<event>
 7    1  0.5525118E-011  0.5052886E+02  0.7816164E-02  0.1300439E+00
        -11   -1    0    0    0    0  0.00000000000E+00  0.00000000000E+00  0.45593999997E+02  0.45594000000E+02  0.51100000000E-03 0.  1.
         11   -1    0    0    0    0 -0.00000000000E+00 -0.00000000000E+00 -0.45593999997E+02  0.45594000000E+02  0.51100000000E-03 0. -1.
    9900012    2    1    2    0    0  0.68507337965E+01  0.32499178259E+02 -0.23452851589E+02  0.50528863404E+02  0.30000010804E+02 0.  0.
        -12    1    1    2    0    0 -0.68507337965E+01 -0.32499178259E+02  0.23452851589E+02  0.40659136596E+02  0.00000000000E+00 0.  1.
         11    1    3    3    0    0 -0.10304757247E+02  0.72641376926E+01 -0.10751082769E+02  0.16569293869E+02  0.51100000000E-03 0. -1.
        -11    1    3    3    0    0  0.87315553861E+01  0.18375988653E+02 -0.60661762576E+01  0.21230061542E+02  0.51100000000E-03 0.  1.
         12    1    3    3    0    0  0.84239356575E+01  0.68590519138E+01 -0.66355925622E+01  0.12729507994E+02  0.00000000000E+00 0. -1.
</event>
<event>
 7    1  0.5525118E-011  0.5052884E+02  0.7816164E-02  0.1300439E+00
        -11   -1    0    0    0    0  0.00000000000E+00  0.00000000000E+00  0.45593999997E+02  0.45594000000E+02  0.51100000000E-03 0.  1.
         11   -1    0    0    0    0 -0.00000000000E+00 -0.00000000000E+00 -0.45593999997E+02  0.45594000000E+02  0.51100000000E-03 0. -1.
    9900012    2    1    2    0    0 -0.22456864167E+02  0.32848372738E+02 -0.83570740161E+01  0.50528843272E+02  0.29999949609E+02 0.  0.
        -12    1    1    2    0    0  0.22456864167E+02 -0.32848372738E+02  0.83570740161E+01  0.40659156728E+02  0.00000000000E+00 0.  1.
         11    1    3    3    0    0 -0.21275352143E+02  0.21187313040E+02  0.35102593289E+00  0.30027754864E+02  0.51100000000E-03 0. -1.
        -11    1    3    3    0    0  0.60981220519E+01  0.20976156702E+01 -0.20809923156E+01  0.67762536360E+01  0.51100000000E-03 0.  1.
         12    1    3    3    0    0 -0.72796340758E+01  0.95634440271E+01 -0.66271076334E+01  0.13724834772E+02  0.00000000000E+00 0. -1.
</event>
<event>
 7    1  0.5525118E-011  0.5052886E+02  0.7816164E-02  0.1300439E+00
        -11   -1    0    0    0    0  0.00000000000E+00  0.00000000000E+00  0.45593999997E+02  0.45594000000E+02  0.51100000000E-03 0. -1.
         11   -1    0    0    0    0 -0.00000000000E+00 -0.00000000000E+00 -0.45593999997E+02  0.45594000000E+02  0.51100000000E-03 0.  1.
    9900012    2    1    2    0    0 -0.38987554813E+02 -0.11534164910E+02  0.31464670156E+00  0.50528863352E+02  0.30000010643E+02 0.  0.
        -12    1    1    2    0    0  0.38987554813E+02  0.11534164910E+02 -0.31464670156E+00  0.40659136648E+02  0.00000000000E+00 0.  1.
         11    1    3    3    0    0 -0.75243502484E+01 -0.59839058199E+01  0.11823080402E+02  0.15238379375E+02  0.51100000000E-03 0. -1.
        -11    1    3    3    0    0 -0.98024672248E+01 -0.38511216532E+01 -0.81242309142E+01  0.13301226631E+02  0.51100000000E-03 0.  1.
         12    1    3    3    0    0 -0.21660737340E+02 -0.16991374364E+01 -0.33842027858E+01  0.21989257346E+02  0.00000000000E+00 0. -1.
</event>
<event>
 7    1  0.5525118E-011  0.5052887E+02  0.7816164E-02  0.1300439E+00
        -11   -1    0    0    0    0  0.00000000000E+00  0.00000000000E+00  0.45593999997E+02  0.45594000000E+02  0.51100000000E-03 0.  1.
         11   -1    0    0    0    0 -0.00000000000E+00 -0.00000000000E+00 -0.45593999997E+02  0.45594000000E+02  0.51100000000E-03 0. -1.
    9900012    2    1    2    0    0 -0.35928326587E+02  0.15726274779E+02  0.10724029620E+02  0.50528865958E+02  0.30000018565E+02 0.  0.
        -12    1    1    2    0    0  0.35928326587E+02 -0.15726274779E+02 -0.10724029620E+02  0.40659134042E+02  0.00000000000E+00 0.  1.
         11    1    3    3    0    0 -0.18210155700E+02 -0.41385246886E+01 -0.20150909505E+01  0.18782911090E+02  0.51100000000E-03 0. -1.
        -11    1    3    3    0    0 -0.16774703697E+02  0.13346372696E+02  0.13147373154E+02  0.25146963423E+02  0.51100000000E-03 0.  1.
         12    1    3    3    0    0 -0.94346718964E+00  0.65184267717E+01 -0.40825258329E+00  0.65989914447E+01  0.00000000000E+00 0. -1.
</event>
<event>
 7    1  0.5525118E-011  0.5052886E+02  0.7816164E-02  0.1300439E+00
        -11   -1    0    0    0    0  0.00000000000E+00  0.00000000000E+00  0.45593999997E+02  0.45594000000E+02  0.51100000000E-03 0.  1.
         11   -1    0    0    0    0 -0.00000000000E+00 -0.00000000000E+00 -0.45593999997E+02  0.45594000000E+02  0.51100000000E-03 0. -1.
    9900012    2    1    2    0    0 -0.88393034860E+01  0.13695235189E+02 -0.37248800525E+02  0.50528857196E+02  0.29999991934E+02 0.  0.
        -12    1    1    2    0    0  0.88393034860E+01 -0.13695235189E+02  0.37248800525E+02  0.40659142804E+02  0.00000000000E+00 0.  1.
         11    1    3    3    0    0 -0.41778051584E+01  0.25320148146E+01 -0.10644668508E+02  0.11712135709E+02  0.51100000000E-03 0. -1.
        -11    1    3    3    0    0  0.56623472604E+01 -0.52830709906E+01 -0.31320329379E+01  0.83536007909E+01  0.51100000000E-03 0.  1.
        -12    1    3    3    0    0 -0.10323845588E+02  0.16446291365E+02 -0.23472099079E+02  0.30463120696E+02  0.00000000000E+00 0.  1.
</event>
<event>
 7    1  0.5525118E-011  0.5052881E+02  0.7816164E-02  0.1300439E+00
        -11   -1    0    0    0    0  0.00000000000E+00  0.00000000000E+00  0.45593999997E+02  0.45594000000E+02  0.51100000000E-03 0. -1.
         11   -1    0    0    0    0 -0.00000000000E+00 -0.00000000000E+00 -0.45593999997E+02  0.45594000000E+02  0.51100000000E-03 0.  1.
    9900012    2    1    2    0    0 -0.13866191441E+02  0.17976684945E+02  0.33730359575E+02  0.50528811324E+02  0.29999852500E+02 0.  0.
        -12    1    1    2    0    0  0.13866191441E+02 -0.17976684945E+02 -0.33730359575E+02  0.40659188676E+02  0.00000000000E+00 0.  1.
         11    1    3    3    0    0 -0.20846949564E+02  0.54157627257E+01  0.24358021544E+02  0.32515211915E+02  0.51100000000E-03 0. -1.
        -11    1    3    3    0    0  0.58155055330E+01  0.68970224803E+01  0.80292137717E+01  0.12077139469E+02  0.51100000000E-03 0.  1.
         12    1    3    3    0    0  0.11652525900E+01  0.56638997389E+01  0.13431242595E+01  0.59364599407E+01  0.00000000000E+00 0. -1.
</event>
<event>
 7    1  0.5525118E-011  0.5052886E+02  0.7816164E-02  0.1300439E+00
        -11   -1    0    0    0    0  0.00000000000E+00  0.00000000000E+00  0.45593999997E+02  0.45594000000E+02  0.51100000000E-03 0.  1.
         11   -1    0    0    0    0 -0.00000000000E+00 -0.00000000000E+00 -0.45593999997E+02  0.45594000000E+02  0.51100000000E-03 0. -1.
    9900012    2    1    2    0    0  0.12133251168E+02  0.32726751733E+02 -0.20854480405E+02  0.50528863070E+02  0.30000009788E+02 0.  0.
        -12    1    1    2    0    0 -0.12133251168E+02 -0.32726751733E+02  0.20854480405E+02  0.40659136930E+02  0.00000000000E+00 0.  1.
         11    1    3    3    0    0  0.12342172357E+02  0.98564461503E+01  0.33273240866E+01  0.16141556153E+02  0.51100000000E-03 0. -1.
        -11    1    3    3    0    0 -0.62139891014E-01  0.11359689588E+02 -0.59456333557E+01  0.12821737993E+02  0.51100000000E-03 0.  1.
         12    1    3    3    0    0 -0.14678129804E+00  0.11510615995E+02 -0.18236171136E+02  0.21565568924E+02  0.00000000000E+00 0. -1.
</event>
<event>
 7    1  0.5525118E-011  0.5052884E+02  0.7816164E-02  0.1300439E+00
        -11   -1    0    0    0    0  0.00000000000E+00  0.00000000000E+00  0.45593999997E+02  0.45594000000E+02  0.51100000000E-03 0.  1.
         11   -1    0    0    0    0 -0.00000000000E+00 -0.00000000000E+00 -0.45593999997E+02  0.45594000000E+02  0.51100000000E-03 0. -1.
    9900012    2    1    2    0    0 -0.25211089172E+02  0.81222049748E+01 -0.30847981051E+02  0.50528841550E+02  0.29999944376E+02 0.  0.
        -12    1    1    2    0    0  0.25211089172E+02 -0.81222049748E+01  0.30847981051E+02  0.40659158450E+02  0.00000000000E+00 0.  1.
         11    1    3    3    0    0 -0.24985147252E+02  0.74375347981E+01 -0.24047873191E+02  0.35466529466E+02  0.51100000000E-03 0. -1.
        -11    1    3    3    0    0  0.20529848923E+01  0.48807188273E+01  0.14854343965E+01  0.54993344003E+01  0.51100000000E-03 0.  1.
         12    1    3    3    0    0 -0.22789268122E+01 -0.41960486507E+01 -0.82855422567E+01  0.95629776838E+01  0.00000000000E+00 0. -1.
</event>
<event>
 7    1  0.5525118E-011  0.5052885E+02  0.7816164E-02  0.1300439E+00
        -11   -1    0    0    0    0  0.00000000000E+00  0.00000000000E+00  0.45593999997E+02  0.45594000000E+02  0.51100000000E-03 0. -1.
         11   -1    0    0    0    0 -0.00000000000E+00 -0.00000000000E+00 -0.45593999997E+02  0.45594000000E+02  0.51100000000E-03 0.  1.
    9900012    2    1    2    0    0  0.11260237748E+01 -0.30894417243E+02  0.26408962916E+02  0.50528852584E+02  0.29999977913E+02 0.  0.
        -12    1    1    2    0    0 -0.11260237748E+01  0.30894417243E+02 -0.26408962916E+02  0.40659147416E+02  0.00000000000E+00 0.  1.
         11    1    3    3    0    0  0.60464822185E+01 -0.89081809219E+01  0.10973463470E+02  0.15373110790E+02  0.51100000000E-03 0. -1.
        -11    1    3    3    0    0 -0.72490738676E+01 -0.25938821563E+02  0.13967087147E+02  0.30338936363E+02  0.51100000000E-03 0.  1.
        -12    1    3    3    0    0  0.23286154238E+01  0.39525852413E+01  0.14684122987E+01  0.48168054311E+01  0.00000000000E+00 0.  1.
</event>
<event>
 7    1  0.5525118E-011  0.5052886E+02  0.7816164E-02  0.1300439E+00
        -11   -1    0    0    0    0  0.00000000000E+00  0.00000000000E+00  0.45593999997E+02  0.45594000000E+02  0.51100000000E-03 0.  1.
         11   -1    0    0    0    0 -0.00000000000E+00 -0.00000000000E+00 -0.45593999997E+02  0.45594000000E+02  0.51100000000E-03 0. -1.
    9900012    2    1    2    0    0 -0.23000539654E+01 -0.87548195260E+01 -0.39638729228E+02  0.50528856280E+02  0.29999989150E+02 0.  0.
        -12    1    1    2    0    0  0.23000539654E+01  0.87548195260E+01  0.39638729228E+02  0.40659143720E+02  0.00000000000E+00 0.  1.
         11    1    3    3    0    0 -0.49942301790E+01 -0.10840192667E+02 -0.18987769620E+01  0.12085423714E+02  0.51100000000E-03 0.  1.
        -11    1    3    3    0    0  0.10127314064E+01  0.41613173437E+01 -0.28673737218E+02  0.28991815970E+02  0.51100000000E-03 0. -1.
        -12    1    3    3    0    0  0.16814448072E+01 -0.20759442024E+01 -0.90662150483E+01  0.94516165957E+01  0.00000000000E+00 0.  1.
</event>
<event>
 7    1  0.5525118E-011  0.5052889E+02  0.7816164E-02  0.1300439E+00
        -11   -1    0    0    0    0  0.00000000000E+00  0.00000000000E+00  0.45593999997E+02  0.45594000000E+02  0.51100000000E-03 0.  1.
         11   -1    0    0    0    0 -0.00000000000E+00 -0.00000000000E+00 -0.45593999997E+02  0.45594000000E+02  0.51100000000E-03 0. -1.
    9900012    2    1    2    0    0 -0.34348882560E+01  0.26034140649E+02 -0.31041712762E+02  0.50528894404E+02  0.30000105030E+02 0.  0.
        -12    1    1    2    0    0  0.34348882560E+01 -0.26034140649E+02  0.31041712762E+02  0.40659105596E+02  0.00000000000E+00 0.  1.
         11    1    3    3    0    0 -0.98826647524E+01  0.23148615391E+02 -0.10989977728E+02  0.27464614832E+02  0.51100000000E-03 0. -1.
        -11    1    3    3    0    0 -0.95692762219E+00  0.39473891344E+00 -0.11241829259E+02  0.11289386814E+02  0.51100000000E-03 0.  1.
         12    1    3    3    0    0  0.74047041186E+01  0.24907863444E+01 -0.88099057750E+01  0.11774892758E+02  0.00000000000E+00 0. -1.
</event>
<event>
 7    1  0.5525118E-011  0.5052886E+02  0.7816164E-02  0.1300439E+00
        -11   -1    0    0    0    0  0.00000000000E+00  0.00000000000E+00  0.45593999997E+02  0.45594000000E+02  0.51100000000E-03 0.  1.
         11   -1    0    0    0    0 -0.00000000000E+00 -0.00000000000E+00 -0.45593999997E+02  0.45594000000E+02  0.51100000000E-03 0. -1.
    9900012    2    1    2    0    0  0.40629711368E+02  0.11128387472E+01 -0.10741047894E+01  0.50528861334E+02  0.30000004511E+02 0.  0.
        -12    1    1    2    0    0 -0.40629711368E+02 -0.11128387472E+01  0.10741047894E+01  0.40659138666E+02  0.00000000000E+00 0.  1.
         11    1    3    3    0    0  0.17437777754E+01 -0.26272512284E+01 -0.29427192055E+01  0.43130970926E+01  0.51100000000E-03 0. -1.
        -11    1    3    3    0    0  0.33702566325E+01  0.77495815115E+01  0.58137553154E+01  0.10257406812E+02  0.51100000000E-03 0.  1.
        -12    1    3    3    0    0  0.35515676960E+02 -0.40094915358E+01 -0.39451408994E+01  0.35958357430E+02  0.00000000000E+00 0.  1.
</event>
<event>
 7    1  0.5525118E-011  0.5052886E+02  0.7816164E-02  0.1300439E+00
        -11   -1    0    0    0    0  0.00000000000E+00  0.00000000000E+00  0.45593999997E+02  0.45594000000E+02  0.51100000000E-03 0. -1.
         11   -1    0    0    0    0 -0.00000000000E+00 -0.00000000000E+00 -0.45593999997E+02  0.45594000000E+02  0.51100000000E-03 0.  1.
    9900012    2    1    2    0    0  0.24866498741E+02  0.96336664851E+01  0.30692270322E+02  0.50528858997E+02  0.29999997408E+02 0.  0.
        -12    1    1    2    0    0 -0.24866498741E+02 -0.96336664851E+01 -0.30692270322E+02  0.40659141003E+02  0.00000000000E+00 0.  1.
         11    1    3    3    0    0  0.24429890934E+02  0.14801850258E-01  0.21028960978E+02  0.32234096702E+02  0.51100000000E-03 0. -1.
        -11    1    3    3    0    0  0.46545446884E+01  0.90146701414E+01  0.96960888752E+01  0.14033645419E+02  0.51100000000E-03 0.  1.
         12    1    3    3    0    0 -0.42179368824E+01  0.60419449343E+00 -0.32779530409E-01  0.42611168756E+01  0.00000000000E+00 0. -1.
</event>
<event>
 7    1  0.5525118E-011  0.5052886E+02  0.7816164E-02  0.1300439E+00
        -11   -1    0    0    0    0  0.00000000000E+00  0.00000000000E+00  0.45593999997E+02  0.45594000000E+02  0.51100000000E-03 0.  1.
         11   -1    0    0    0    0 -0.00000000000E+00 -0.00000000000E+00 -0.45593999997E+02  0.45594000000E+02  0.51100000000E-03 0. -1.
    9900012    2    1    2    0    0 -0.37211138049E+02 -0.67298140211E+01 -0.14940108615E+02  0.50528855431E+02  0.29999986568E+02 0.  0.
        -12    1    1    2    0    0  0.37211138049E+02  0.67298140211E+01  0.14940108615E+02  0.40659144569E+02  0.00000000000E+00 0.  1.
         11    1    3    3    0    0 -0.49882597238E+01  0.81876538613E+01 -0.37937027776E+01  0.10310799768E+02  0.51100000000E-03 0.  1.
        -11    1    3    3    0    0 -0.21342544792E+02 -0.16082866828E+02 -0.11891522232E+02  0.29250147434E+02  0.51100000000E-03 0. -1.
        -12    1    3    3    0    0 -0.10880333533E+02  0.11653989460E+01  0.74511639516E+00  0.10967908230E+02  0.00000000000E+00 0.  1.
</event>
<event>
 7    1  0.5525118E-011  0.5052886E+02  0.7816164E-02  0.1300439E+00
        -11   -1    0    0    0    0  0.00000000000E+00  0.00000000000E+00  0.45593999997E+02  0.45594000000E+02  0.51100000000E-03 0. -1.
         11   -1    0    0    0    0 -0.00000000000E+00 -0.00000000000E+00 -0.45593999997E+02  0.45594000000E+02  0.51100000000E-03 0.  1.
    9900012    2    1    2    0    0 -0.36742438673E+02  0.57519934184E+00  0.17401953558E+02  0.50528860295E+02  0.30000001353E+02 0.  0.
        -12    1    1    2    0    0  0.36742438673E+02 -0.57519934184E+00 -0.17401953558E+02  0.40659139705E+02  0.00000000000E+00 0.  1.
         11    1    3    3    0    0 -0.27283626795E+02 -0.75021034851E+01  0.95666924511E+01  0.29869707941E+02  0.51100000000E-03 0. -1.
        -11    1    3    3    0    0 -0.97424038298E+01  0.11306667742E+02  0.36492603896E+01  0.15364643486E+02  0.51100000000E-03 0.  1.
         12    1    3    3    0    0  0.28359195186E+00 -0.32293649146E+01  0.41860007176E+01  0.52945088681E+01  0.00000000000E+00 0. -1.
</event>
<event>
 7    1  0.5525118E-011  0.5052885E+02  0.7816164E-02  0.1300439E+00
        -11   -1    0    0    0    0  0.00000000000E+00  0.00000000000E+00  0.45593999997E+02  0.45594000000E+02  0.51100000000E-03 0.  1.
         11   -1    0    0    0    0 -0.00000000000E+00 -0.00000000000E+00 -0.45593999997E+02  0.45594000000E+02  0.51100000000E-03 0. -1.
    9900012    2    1    2    0    0 -0.51028267371E+01 -0.12954740385E+02 -0.38200813318E+02  0.50528852477E+02  0.29999977589E+02 0.  0.
        -12    1    1    2    0    0  0.51028267371E+01  0.12954740385E+02  0.38200813318E+02  0.40659147523E+02  0.00000000000E+00 0.  1.
         11    1    3    3    0    0  0.80677361043E+01  0.46042913115E+01 -0.12597967426E+02  0.15652368762E+02  0.51100000000E-03 0.  1.
        -11    1    3    3    0    0 -0.32663689032E+01 -0.49938283766E+01 -0.18680758790E+01  0.62527750173E+01  0.51100000000E-03 0. -1.
         12    1    3    3    0    0 -0.99041939383E+01 -0.12565203320E+02 -0.23734770013E+02  0.28623708698E+02  0.00000000000E+00 0. -1.
</event>
<event>
 7    1  0.5876935E-011  0.5052886E+02  0.7816164E-02  0.1300439E+00
        -11   -1    0    0    0    0  0.00000000000E+00  0.00000000000E+00  0.45593999997E+02  0.45594000000E+02  0.51100000000E-03 0.  1.
         11   -1    0    0    0    0 -0.00000000000E+00 -0.00000000000E+00 -0.45593999997E+02  0.45594000000E+02  0.51100000000E-03 0. -1.
    9900012    2    1    2    0    0 -0.39921844980E+02  0.36073767703E+01 -0.68116667151E+01  0.50528859857E+02  0.30000000021E+02 0.  0.
        -12    1    1    2    0    0  0.39921844980E+02 -0.36073767703E+01  0.68116667151E+01  0.40659140143E+02  0.00000000000E+00 0.  1.
         11    1    3    3    0    0 -0.13119707526E+02  0.52160233665E+01 -0.61655359782E+01  0.15406085145E+02  0.51100000000E-03 0. -1.
        -11    1    3    3    0    0 -0.18363637894E+02  0.38551064077E+01  0.93338979148E+01  0.20957258710E+02  0.51100000000E-03 0.  1.
        -12    1    3    3    0    0 -0.84384995604E+01 -0.54637530039E+01 -0.99800286518E+01  0.14165516002E+02  0.00000000000E+00 0.  1.
</event>
<event>
 7    1  0.5525118E-011  0.5052885E+02  0.7816164E-02  0.1300439E+00
        -11   -1    0    0    0    0  0.00000000000E+00  0.00000000000E+00  0.45593999997E+02  0.45594000000E+02  0.51100000000E-03 0. -1.
         11   -1    0    0    0    0 -0.00000000000E+00 -0.00000000000E+00 -0.45593999997E+02  0.45594000000E+02  0.51100000000E-03 0.  1.
    9900012    2    1    2    0    0 -0.30494029577E+02  0.26589370467E+02  0.40355737668E+01  0.50528851985E+02  0.29999976093E+02 0.  0.
        -12    1    1    2    0    0  0.30494029577E+02 -0.26589370467E+02 -0.40355737668E+01  0.40659148015E+02  0.00000000000E+00 0.  1.
         11    1    3    3    0    0 -0.51670614148E+01  0.10931852721E+02 -0.11183362927E+01  0.12143088730E+02  0.51100000000E-03 0. -1.
        -11    1    3    3    0    0 -0.80146554436E+01  0.71948763669E+00  0.12061189716E+02  0.14499126249E+02  0.51100000000E-03 0.  1.
        -12    1    3    3    0    0 -0.17312312719E+02  0.14938030110E+02 -0.69072796569E+01  0.23886637007E+02  0.00000000000E+00 0.  1.
</event>
<event>
 7    1  0.5525118E-011  0.5052886E+02  0.7816164E-02  0.1300439E+00
        -11   -1    0    0    0    0  0.00000000000E+00  0.00000000000E+00  0.45593999997E+02  0.45594000000E+02  0.51100000000E-03 0.  1.
         11   -1    0    0    0    0 -0.00000000000E+00 -0.00000000000E+00 -0.45593999997E+02  0.45594000000E+02  0.51100000000E-03 0. -1.
    9900012    2    1    2    0    0  0.31826148297E+02 -0.61756311000E+01 -0.24538203410E+02  0.50528861279E+02  0.30000004344E+02 0.  0.
        -12    1    1    2    0    0 -0.31826148297E+02  0.61756311000E+01  0.24538203410E+02  0.40659138721E+02  0.00000000000E+00 0.  1.
         11    1    3    3    0    0  0.20605477642E+02 -0.67741807314E+01  0.60862136569E+00  0.21698978171E+02  0.51100000000E-03 0.  1.
        -11    1    3    3    0    0  0.56326257294E+01 -0.10654282680E+01 -0.20750144750E+02  0.21527427097E+02  0.51100000000E-03 0. -1.
        -12    1    3    3    0    0  0.55880449260E+01  0.16639778994E+01 -0.43966800259E+01  0.73024560112E+01  0.00000000000E+00 0.  1.
</event>
<event>
 7    1  0.5525118E-011  0.5052887E+02  0.7816164E-02  0.1300439E+00
        -11   -1    0    0    0    0  0.00000000000E+00  0.00000000000E+00  0.45593999997E+02  0.45594000000E+02  0.51100000000E-03 0.  1.
         11   -1    0    0    0    0 -0.00000000000E+00 -0.00000000000E+00 -0.45593999997E+02  0.45594000000E+02  0.51100000000E-03 0. -1.
    9900012    2    1    2    0    0  0.13783722057E+02  0.26238711669E+02 -0.27833505117E+02  0.50528868297E+02  0.30000025674E+02 0.  0.
        -12    1    1    2    0    0 -0.13783722057E+02 -0.26238711669E+02  0.27833505117E+02  0.40659131703E+02  0.00000000000E+00 0.  1.
         11    1    3    3    0    0  0.90860129454E+01  0.24070631857E+02 -0.80268007123E+01  0.26951446699E+02  0.51100000000E-03 0. -1.
        -11    1    3    3    0    0  0.17520253208E+01  0.36134550084E+01 -0.19893811174E+02  0.20295082486E+02  0.51100000000E-03 0.  1.
         12    1    3    3    0    0  0.29456837903E+01 -0.14453751963E+01  0.87106769811E-01  0.32823391111E+01  0.00000000000E+00 0. -1.
</event>
<event>
 7    1  0.5525118E-011  0.5052887E+02  0.7816164E-02  0.1300439E+00
        -11   -1    0    0    0    0  0.00000000000E+00  0.00000000000E+00  0.45593999997E+02  0.45594000000E+02  0.51100000000E-03 0. -1.
         11   -1    0    0    0    0 -0.00000000000E+00 -0.00000000000E+00 -0.45593999997E+02  0.45594000000E+02  0.51100000000E-03 0.  1.
    9900012    2    1    2    0    0 -0.37060492815E+02  0.14273489254E+02  0.87150643079E+01  0.50528868565E+02  0.30000026490E+02 0.  0.
        -12    1    1    2    0    0  0.37060492815E+02 -0.14273489254E+02 -0.87150643079E+01  0.40659131435E+02  0.00000000000E+00 0.  1.
         11    1    3    3    0    0 -0.27303540823E+02  0.11471868842E+02  0.11352042131E+01  0.29637405505E+02  0.51100000000E-03 0.  1.
        -11    1    3    3    0    0 -0.30220751319E+01 -0.37618425489E+01  0.10067235206E+02  0.11163942960E+02  0.51100000000E-03 0. -1.
         12    1    3    3    0    0 -0.67348768596E+01  0.65634629609E+01 -0.24873751109E+01  0.97275201000E+01  0.00000000000E+00 0. -1.
</event>
<event>
 7    1  0.5525118E-011  0.5052886E+02  0.7816164E-02  0.1300439E+00
        -11   -1    0    0    0    0  0.00000000000E+00  0.00000000000E+00  0.45593999997E+02  0.45594000000E+02  0.51100000000E-03 0. -1.
         11   -1    0    0    0    0 -0.00000000000E+00 -0.00000000000E+00 -0.45593999997E+02  0.45594000000E+02  0.51100000000E-03 0.  1.
    9900012    2    1    2    0    0 -0.15839229881E+02  0.37422314506E+02  0.13619468362E+01  0.50528859264E+02  0.29999998219E+02 0.  0.
        -12    1    1    2    0    0  0.15839229881E+02 -0.37422314506E+02 -0.13619468362E+01  0.40659140736E+02  0.00000000000E+00 0.  1.
         11    1    3    3    0    0  0.26968065649E+00  0.14156130755E+02 -0.17355258033E+01  0.14264670192E+02  0.51100000000E-03 0. -1.
        -11    1    3    3    0    0 -0.18799737603E+02  0.11611684788E+02 -0.38533509241E+01  0.22430106356E+02  0.51100000000E-03 0.  1.
        -12    1    3    3    0    0  0.26908270655E+01  0.11654498963E+02  0.69508235636E+01  0.13834082716E+02  0.00000000000E+00 0.  1.
</event>
<event>
 7    1  0.5525118E-011  0.5052886E+02  0.7816164E-02  0.1300439E+00
        -11   -1    0    0    0    0  0.00000000000E+00  0.00000000000E+00  0.45593999997E+02  0.45594000000E+02  0.51100000000E-03 0. -1.
         11   -1    0    0    0    0 -0.00000000000E+00 -0.00000000000E+00 -0.45593999997E+02  0.45594000000E+02  0.51100000000E-03 0.  1.
    9900012    2    1    2    0    0 -0.26894723503E+02 -0.21184034252E+02  0.21933446608E+02  0.50528861549E+02  0.30000005164E+02 0.  0.
        -12    1    1    2    0    0  0.26894723503E+02  0.21184034252E+02 -0.21933446608E+02  0.40659138451E+02  0.00000000000E+00 0.  1.
         11    1    3    3    0    0 -0.19552597321E+02 -0.22489510383E+02  0.17064659494E+02  0.34340715531E+02  0.51100000000E-03 0. -1.
        -11    1    3    3    0    0  0.21919128532E+01  0.18487041885E+01  0.59230432117E+01  0.65806253716E+01  0.51100000000E-03 0.  1.
        -12    1    3    3    0    0 -0.95340390351E+01 -0.54322805730E+00 -0.10542560981E+01  0.96075206461E+01  0.00000000000E+00 0.  1.
</event>
<event>
 7    1  0.5525118E-011  0.5052885E+02  0.7816164E-02  0.1300439E+00
        -11   -1    0    0    0    0  0.00000000000E+00  0.00000000000E+00  0.45593999997E+02  0.45594000000E+02  0.51100000000E-03 0.  1.
         11   -1    0    0    0    0 -0.00000000000E+00 -0.00000000000E+00 -0.45593999997E+02  0.45594000000E+02  0.51100000000E-03 0. -1.
    9900012    2    1    2    0    0  0.48463913058E+01 -0.33924729318E+02 -0.21881317828E+02  0.50528845583E+02  0.29999956634E+02 0.  0.
        -12    1    1    2    0    0 -0.48463913058E+01  0.33924729318E+02  0.21881317828E+02  0.40659154417E+02  0.00000000000E+00 0.  1.
         11    1    3    3    0    0  0.96285199000E+01 -0.18182406831E+02 -0.20274290815E+02  0.28885206974E+02  0.51100000000E-03 0. -1.
        -11    1    3    3    0    0 -0.57786410362E+01 -0.37254411790E+01 -0.56779310125E+01  0.89168663244E+01  0.51100000000E-03 0.  1.
         12    1    3    3    0    0  0.99651244206E+00 -0.12016881308E+02  0.40709039986E+01  0.12726772284E+02  0.00000000000E+00 0. -1.
</event>
<event>
 7    1  0.5525118E-011  0.5052886E+02  0.7816164E-02  0.1300439E+00
        -11   -1    0    0    0    0  0.00000000000E+00  0.00000000000E+00  0.45593999997E+02  0.45594000000E+02  0.51100000000E-03 0. -1.
         11   -1    0    0    0    0 -0.00000000000E+00 -0.00000000000E+00 -0.45593999997E+02  0.45594000000E+02  0.51100000000E-03 0.  1.
    9900012    2    1    2    0    0 -0.21154054382E+02 -0.26795974943E+02  0.22082739184E+02  0.50528860071E+02  0.30000000672E+02 0.  0.
        -12    1    1    2    0    0  0.21154054382E+02  0.26795974943E+02 -0.22082739184E+02  0.40659139929E+02  0.00000000000E+00 0.  1.
         11    1    3    3    0    0 -0.16981620745E+02 -0.16266239986E+02 -0.12538476304E+01  0.23548633517E+02  0.51100000000E-03 0. -1.
        -11    1    3    3    0    0 -0.67106535125E+00 -0.84753120340E+01  0.10462713909E+02  0.13481454869E+02  0.51100000000E-03 0.  1.
         12    1    3    3    0    0 -0.35013682855E+01 -0.20544229230E+01  0.12873872906E+02  0.13498771685E+02  0.00000000000E+00 0. -1.
</event>
<event>
 7    1  0.5525118E-011  0.5052886E+02  0.7816164E-02  0.1300439E+00
        -11   -1    0    0    0    0  0.00000000000E+00  0.00000000000E+00  0.45593999997E+02  0.45594000000E+02  0.51100000000E-03 0.  1.
         11   -1    0    0    0    0 -0.00000000000E+00 -0.00000000000E+00 -0.45593999997E+02  0.45594000000E+02  0.51100000000E-03 0. -1.
    9900012    2    1    2    0    0  0.94269963035E-01  0.85408904662E+00 -0.40650056436E+02  0.50528862734E+02  0.30000008767E+02 0.  0.
        -12    1    1    2    0    0 -0.94269963035E-01 -0.85408904662E+00  0.40650056436E+02  0.40659137266E+02  0.00000000000E+00 0.  1.
         11    1    3    3    0    0 -0.13470343128E+01 -0.41344510232E+01 -0.43793624589E+02  0.44008973421E+02  0.51100000000E-03 0. -1.
        -11    1    3    3    0    0  0.10294952731E+01  0.12671937255E+01  0.20473591697E+01  0.26186485610E+01  0.51100000000E-03 0.  1.
         12    1    3    3    0    0  0.41180900276E+00  0.37213463443E+01  0.10962089831E+01  0.39012407518E+01  0.00000000000E+00 0. -1.
</event>
<event>
 7    1  0.5525118E-011  0.5052884E+02  0.7816164E-02  0.1300439E+00
        -11   -1    0    0    0    0  0.00000000000E+00  0.00000000000E+00  0.45593999997E+02  0.45594000000E+02  0.51100000000E-03 0.  1.
         11   -1    0    0    0    0 -0.00000000000E+00 -0.00000000000E+00 -0.45593999997E+02  0.45594000000E+02  0.51100000000E-03 0. -1.
    9900012    2    1    2    0    0  0.36049132075E+02  0.53923611764E+01 -0.18015255654E+02  0.50528844589E+02  0.29999953613E+02 0.  0.
        -12    1    1    2    0    0 -0.36049132075E+02 -0.53923611764E+01  0.18015255654E+02  0.40659155411E+02  0.00000000000E+00 0.  1.
         11    1    3    3    0    0  0.90497079094E+01  0.36135078283E+01 -0.29852457407E+01  0.10191483919E+02  0.51100000000E-03 0. -1.
        -11    1    3    3    0    0  0.90157211649E+01 -0.52025598881E+01  0.58249823499E+01  0.11928129658E+02  0.51100000000E-03 0.  1.
        -12    1    3    3    0    0  0.17983703001E+02  0.69814132362E+01 -0.20854992263E+02  0.28409231012E+02  0.00000000000E+00 0.  1.
</event>
<event>
 7    1  0.5525118E-011  0.5052885E+02  0.7816164E-02  0.1300439E+00
        -11   -1    0    0    0    0  0.00000000000E+00  0.00000000000E+00  0.45593999997E+02  0.45594000000E+02  0.51100000000E-03 0. -1.
         11   -1    0    0    0    0 -0.00000000000E+00 -0.00000000000E+00 -0.45593999997E+02  0.45594000000E+02  0.51100000000E-03 0.  1.
    9900012    2    1    2    0    0 -0.28458896296E+02  0.22290168948E+02  0.18611993653E+02  0.50528847059E+02  0.29999961120E+02 0.  0.
        -12    1    1    2    0    0  0.28458896296E+02 -0.22290168948E+02 -0.18611993653E+02  0.40659152941E+02  0.00000000000E+00 0.  1.
         11    1    3    3    0    0 -0.16583155003E+02  0.27108668812E+02  0.19623302506E+02  0.37349095787E+02  0.51100000000E-03 0. -1.
        -11    1    3    3    0    0 -0.56195658870E+01 -0.36345071452E+01 -0.12493080274E+01  0.68080785656E+01  0.51100000000E-03 0.  1.
        -12    1    3    3    0    0 -0.62561754064E+01 -0.11839927182E+01  0.23799917452E+00  0.63716727066E+01  0.00000000000E+00 0.  1.
</event>
<event>
 7    1  0.5525118E-011  0.5052886E+02  0.7816164E-02  0.1300439E+00
        -11   -1    0    0    0    0  0.00000000000E+00  0.00000000000E+00  0.45593999997E+02  0.45594000000E+02  0.51100000000E-03 0.  1.
         11   -1    0    0    0    0 -0.00000000000E+00 -0.00000000000E+00 -0.45593999997E+02  0.45594000000E+02  0.51100000000E-03 0. -1.
    9900012    2    1    2    0    0  0.22531936643E+02  0.34653317317E+01 -0.33667032045E+02  0.50528859089E+02  0.29999997687E+02 0.  0.
        -12    1    1    2    0    0 -0.22531936643E+02 -0.34653317317E+01  0.33667032045E+02  0.40659140911E+02  0.00000000000E+00 0.  1.
         11    1    3    3    0    0  0.14532925578E+02  0.91828695519E+01 -0.12538164095E+02  0.21277607436E+02  0.51100000000E-03 0. -1.
        -11    1    3    3    0    0 -0.71850526524E+00 -0.40881323696E+01  0.19064976322E+01  0.45676919303E+01  0.51100000000E-03 0.  1.
         12    1    3    3    0    0  0.87175163301E+01 -0.16294054507E+01 -0.23035365582E+02  0.24683559723E+02  0.00000000000E+00 0. -1.
</event>
<event>
 7    1  0.5525118E-011  0.5052886E+02  0.7816164E-02  0.1300439E+00
        -11   -1    0    0    0    0  0.00000000000E+00  0.00000000000E+00  0.45593999997E+02  0.45594000000E+02  0.51100000000E-03 0.  1.
         11   -1    0    0    0    0 -0.00000000000E+00 -0.00000000000E+00 -0.45593999997E+02  0.45594000000E+02  0.51100000000E-03 0. -1.
    9900012    2    1    2    0    0  0.18303794843E+02 -0.87286832147E+00 -0.36295663241E+02  0.50528856196E+02  0.29999988894E+02 0.  0.
        -12    1    1    2    0    0 -0.18303794843E+02  0.87286832147E+00  0.36295663241E+02  0.40659143804E+02  0.00000000000E+00 0.  1.
         11    1    3    3    0    0  0.69340247953E+01  0.11130674569E+02 -0.88183477353E+01  0.15803033673E+02  0.51100000000E-03 0. -1.
        -11    1    3    3    0    0 -0.19236024626E+01 -0.59994264260E+01 -0.55857396637E+01  0.84198486760E+01  0.51100000000E-03 0.  1.
        -12    1    3    3    0    0  0.13293372510E+02 -0.60041164645E+01 -0.21891575842E+02  0.26305973847E+02  0.00000000000E+00 0.  1.
</event>
<event>
 7    1  0.5525118E-011  0.5052885E+02  0.7816164E-02  0.1300439E+00
        -11   -1    0    0    0    0  0.00000000000E+00  0.00000000000E+00  0.45593999997E+02  0.45594000000E+02  0.51100000000E-03 0.  1.
         11   -1    0    0    0    0 -0.00000000000E+00 -0.00000000000E+00 -0.45593999997E+02  0.45594000000E+02  0.51100000000E-03 0. -1.
    9900012    2    1    2    0    0 -0.10971531510E+02 -0.59794817607E+01 -0.38691573160E+02  0.50528849254E+02  0.29999967792E+02 0.  0.
        -12    1    1    2    0    0  0.10971531510E+02  0.59794817607E+01  0.38691573160E+02  0.40659150746E+02  0.00000000000E+00 0.  1.
         11    1    3    3    0    0 -0.15468424283E+02 -0.40704642290E+01 -0.35885262215E+02  0.39288584517E+02  0.51100000000E-03 0. -1.
        -11    1    3    3    0    0  0.58003101950E+01  0.53690859469E+00 -0.50226780627E+01  0.76914994884E+01  0.51100000000E-03 0.  1.
        -12    1    3    3    0    0 -0.13034174220E+01 -0.24459261264E+01  0.22163671176E+01  0.35487652489E+01  0.00000000000E+00 0.  1.
</event>
<event>
 7    1  0.5525118E-011  0.5052886E+02  0.7816164E-02  0.1300439E+00
        -11   -1    0    0    0    0  0.00000000000E+00  0.00000000000E+00  0.45593999997E+02  0.45594000000E+02  0.51100000000E-03 0.  1.
         11   -1    0    0    0    0 -0.00000000000E+00 -0.00000000000E+00 -0.45593999997E+02  0.45594000000E+02  0.51100000000E-03 0. -1.
    9900012    2    1    2    0    0 -0.37652411705E+02 -0.11563772942E+02 -0.10086665623E+02  0.50528858651E+02  0.29999996356E+02 0.  0.
        -12    1    1    2    0    0  0.37652411705E+02  0.11563772942E+02  0.10086665623E+02  0.40659141349E+02  0.00000000000E+00 0.  1.
         11    1    3    3    0    0 -0.92236682702E+01  0.81374047254E+01 -0.81725940839E+01  0.14767691300E+02  0.51100000000E-03 0. -1.
        -11    1    3    3    0    0 -0.18409534859E+02 -0.75396760822E+01 -0.20893611963E+01  0.20003077753E+02  0.51100000000E-03 0.  1.
         12    1    3    3    0    0 -0.10019208576E+02 -0.12161501585E+02  0.17528965715E+00  0.15758089597E+02  0.00000000000E+00 0. -1.
</event>
<event>
 7    1  0.5525118E-011  0.5052886E+02  0.7816164E-02  0.1300439E+00
        -11   -1    0    0    0    0  0.00000000000E+00  0.00000000000E+00  0.45593999997E+02  0.45594000000E+02  0.51100000000E-03 0.  1.
         11   -1    0    0    0    0 -0.00000000000E+00 -0.00000000000E+00 -0.45593999997E+02  0.45594000000E+02  0.51100000000E-03 0. -1.
    9900012    2    1    2    0    0  0.39886690463E+01 -0.29679225302E+02 -0.27502720664E+02  0.50528861554E+02  0.30000005179E+02 0.  0.
        -12    1    1    2    0    0 -0.39886690463E+01  0.29679225302E+02  0.27502720664E+02  0.40659138446E+02  0.00000000000E+00 0.  1.
         11    1    3    3    0    0  0.73035744140E+01 -0.28352411662E+02 -0.16191309753E+02  0.33456837239E+02  0.51100000000E-03 0. -1.
        -11    1    3    3    0    0  0.17064738521E+01  0.22382047329E+01  0.12520411064E+01  0.30804578601E+01  0.51100000000E-03 0.  1.
         12    1    3    3    0    0 -0.50213792199E+01 -0.35650183732E+01 -0.12563452017E+02  0.13991566454E+02  0.00000000000E+00 0. -1.
</event>
<event>
 7    1  0.5525118E-011  0.5052888E+02  0.7816164E-02  0.1300439E+00
        -11   -1    0    0    0    0  0.00000000000E+00  0.00000000000E+00  0.45593999997E+02  0.45594000000E+02  0.51100000000E-03 0.  1.
         11   -1    0    0    0    0 -0.00000000000E+00 -0.00000000000E+00 -0.45593999997E+02  0.45594000000E+02  0.51100000000E-03 0. -1.
    9900012    2    1    2    0    0 -0.22724331723E+02  0.31196866521E+02 -0.12787676007E+02  0.50528875678E+02  0.30000048110E+02 0.  0.
        -12    1    1    2    0    0  0.22724331723E+02 -0.31196866521E+02  0.12787676007E+02  0.40659124322E+02  0.00000000000E+00 0.  1.
         11    1    3    3    0    0 -0.75720144819E+01 -0.83408391490E+00  0.40289707971E+01  0.86176391916E+01  0.51100000000E-03 0. -1.
        -11    1    3    3    0    0 -0.78648189769E+01  0.28395046485E+02 -0.94851813839E+01  0.30953234218E+02  0.51100000000E-03 0.  1.
         12    1    3    3    0    0 -0.72874982647E+01  0.36359039512E+01 -0.73314654198E+01  0.10958002268E+02  0.00000000000E+00 0. -1.
</event>
<event>
 7    1  0.5525118E-011  0.5052886E+02  0.7816164E-02  0.1300439E+00
        -11   -1    0    0    0    0  0.00000000000E+00  0.00000000000E+00  0.45593999997E+02  0.45594000000E+02  0.51100000000E-03 0.  1.
         11   -1    0    0    0    0 -0.00000000000E+00 -0.00000000000E+00 -0.45593999997E+02  0.45594000000E+02  0.51100000000E-03 0. -1.
    9900012    2    1    2    0    0 -0.33367849686E+02 -0.50245851288E+01 -0.22682726860E+02  0.50528856549E+02  0.29999989965E+02 0.  0.
        -12    1    1    2    0    0  0.33367849686E+02  0.50245851288E+01  0.22682726860E+02  0.40659143451E+02  0.00000000000E+00 0.  1.
         11    1    3    3    0    0 -0.17426306392E+02  0.90047322981E+00 -0.12455168163E+02  0.21438708467E+02  0.51100000000E-03 0. -1.
        -11    1    3    3    0    0 -0.38677180020E+01 -0.91512387222E+01 -0.12927775250E+02  0.16304348679E+02  0.51100000000E-03 0.  1.
        -12    1    3    3    0    0 -0.12073825292E+02  0.32261803635E+01  0.27002165525E+01  0.12785799402E+02  0.00000000000E+00 0.  1.
</event>
<event>
 7    1  0.5525118E-011  0.5052887E+02  0.7816164E-02  0.1300439E+00
        -11   -1    0    0    0    0  0.00000000000E+00  0.00000000000E+00  0.45593999997E+02  0.45594000000E+02  0.51100000000E-03 0.  1.
         11   -1    0    0    0    0 -0.00000000000E+00 -0.00000000000E+00 -0.45593999997E+02  0.45594000000E+02  0.51100000000E-03 0. -1.
    9900012    2    1    2    0    0  0.26651007487E+02  0.28357993270E+02 -0.11777650743E+02  0.50528867700E+02  0.30000023860E+02 0.  0.
        -12    1    1    2    0    0 -0.26651007487E+02 -0.28357993270E+02  0.11777650743E+02  0.40659132300E+02  0.00000000000E+00 0.  1.
         11    1    3    3    0    0  0.73107935522E+01  0.72491946699E+01 -0.58771287679E+01  0.11854921701E+02  0.51100000000E-03 0. -1.
        -11    1    3    3    0    0  0.16186122009E+02 -0.28794781540E+00  0.24246955119E+00  0.16190498800E+02  0.51100000000E-03 0.  1.
        -12    1    3    3    0    0  0.31540919258E+01  0.21396746415E+02 -0.61429915267E+01  0.22483447199E+02  0.00000000000E+00 0.  1.
</event>
<event>
 7    1  0.5525118E-011  0.5052886E+02  0.7816164E-02  0.1300439E+00
        -11   -1    0    0    0    0  0.00000000000E+00  0.00000000000E+00  0.45593999997E+02  0.45594000000E+02  0.51100000000E-03 0.  1.
         11   -1    0    0    0    0 -0.00000000000E+00 -0.00000000000E+00 -0.45593999997E+02  0.45594000000E+02  0.51100000000E-03 0. -1.
    9900012    2    1    2    0    0 -0.60809861799E+01 -0.24219299401E+02 -0.32087585151E+02  0.50528856167E+02  0.29999988806E+02 0.  0.
        -12    1    1    2    0    0  0.60809861799E+01  0.24219299401E+02  0.32087585151E+02  0.40659143833E+02  0.00000000000E+00 0.  1.
         11    1    3    3    0    0 -0.15643595756E+02 -0.81793577621E+01 -0.20489539630E+02  0.27045243872E+02  0.51100000000E-03 0. -1.
        -11    1    3    3    0    0  0.42177622567E+01 -0.72032800680E+01 -0.10011955263E+02  0.13035183568E+02  0.51100000000E-03 0.  1.
         12    1    3    3    0    0  0.53448473190E+01 -0.88366615706E+01 -0.15860902580E+01  0.10448428728E+02  0.00000000000E+00 0. -1.
</event>
<event>
 7    1  0.5525118E-011  0.5052886E+02  0.7816164E-02  0.1300439E+00
        -11   -1    0    0    0    0  0.00000000000E+00  0.00000000000E+00  0.45593999997E+02  0.45594000000E+02  0.51100000000E-03 0.  1.
         11   -1    0    0    0    0 -0.00000000000E+00 -0.00000000000E+00 -0.45593999997E+02  0.45594000000E+02  0.51100000000E-03 0. -1.
    9900012    2    1    2    0    0 -0.17129752020E+02 -0.31736978622E+02 -0.18775024491E+02  0.50528858827E+02  0.29999996889E+02 0.  0.
        -12    1    1    2    0    0  0.17129752020E+02  0.31736978622E+02  0.18775024491E+02  0.40659141173E+02  0.00000000000E+00 0.  1.
         11    1    3    3    0    0 -0.50648562075E+01 -0.17263837126E+02  0.17725476678E+01  0.18078572018E+02  0.51100000000E-03 0. -1.
        -11    1    3    3    0    0 -0.33492327931E+01  0.33354439936E+01 -0.69635403258E+01  0.84162605156E+01  0.51100000000E-03 0.  1.
         12    1    3    3    0    0 -0.87156630193E+01 -0.17808585489E+02 -0.13584031833E+02  0.24034026293E+02  0.00000000000E+00 0. -1.
</event>
<event>
 7    1  0.5525118E-011  0.5052886E+02  0.7816164E-02  0.1300439E+00
        -11   -1    0    0    0    0  0.00000000000E+00  0.00000000000E+00  0.45593999997E+02  0.45594000000E+02  0.51100000000E-03 0. -1.
         11   -1    0    0    0    0 -0.00000000000E+00 -0.00000000000E+00 -0.45593999997E+02  0.45594000000E+02  0.51100000000E-03 0.  1.
    9900012    2    1    2    0    0  0.17350947861E+02  0.27678673882E+02  0.24207462584E+02  0.50528860507E+02  0.30000001998E+02 0.  0.
        -12    1    1    2    0    0 -0.17350947861E+02 -0.27678673882E+02 -0.24207462584E+02  0.40659139493E+02  0.00000000000E+00 0.  1.
         11    1    3    3    0    0  0.68284305732E+01 -0.14975507222E+01  0.16137380791E+01  0.71745573458E+01  0.51100000000E-03 0.  1.
        -11    1    3    3    0    0  0.57741760580E+01  0.31279230860E+02  0.19330988721E+02  0.37221210586E+02  0.51100000000E-03 0. -1.
         12    1    3    3    0    0  0.47483412292E+01 -0.21030062557E+01  0.32627357839E+01  0.61330925752E+01  0.00000000000E+00 0. -1.
</event>
<event>
 7    1  0.5525118E-011  0.5052885E+02  0.7816164E-02  0.1300439E+00
        -11   -1    0    0    0    0  0.00000000000E+00  0.00000000000E+00  0.45593999997E+02  0.45594000000E+02  0.51100000000E-03 0.  1.
         11   -1    0    0    0    0 -0.00000000000E+00 -0.00000000000E+00 -0.45593999997E+02  0.45594000000E+02  0.51100000000E-03 0. -1.
    9900012    2    1    2    0    0 -0.19944480394E+02  0.35430799402E+02 -0.20708167868E+00  0.50528846944E+02  0.29999960770E+02 0.  0.
        -12    1    1    2    0    0  0.19944480394E+02 -0.35430799402E+02  0.20708167868E+00  0.40659153056E+02  0.00000000000E+00 0.  1.
         11    1    3    3    0    0 -0.49551977619E+01  0.20982296195E+02 -0.10029566990E+02  0.23778203312E+02  0.51100000000E-03 0. -1.
        -11    1    3    3    0    0 -0.52240085141E+01  0.21583152961E+01  0.94946992396E+01  0.11049792024E+02  0.51100000000E-03 0.  1.
         12    1    3    3    0    0 -0.97652741184E+01  0.12290187911E+02  0.32778607158E+00  0.15700851607E+02  0.00000000000E+00 0. -1.
</event>
<event>
 7    1  0.5525118E-011  0.5052882E+02  0.7816164E-02  0.1300439E+00
        -11   -1    0    0    0    0  0.00000000000E+00  0.00000000000E+00  0.45593999997E+02  0.45594000000E+02  0.51100000000E-03 0. -1.
         11   -1    0    0    0    0 -0.00000000000E+00 -0.00000000000E+00 -0.45593999997E+02  0.45594000000E+02  0.51100000000E-03 0.  1.
    9900012    2    1    2    0    0 -0.49013437392E+01  0.94803182715E+01  0.39233519111E+02  0.50528823584E+02  0.29999889766E+02 0.  0.
        -12    1    1    2    0    0  0.49013437392E+01 -0.94803182715E+01 -0.39233519111E+02  0.40659176416E+02  0.00000000000E+00 0.  1.
         11    1    3    3    0    0 -0.71126311732E+01  0.86314544711E+01  0.16212506841E+02  0.19696114003E+02  0.51100000000E-03 0. -1.
        -11    1    3    3    0    0  0.86185366911E+01 -0.60052788949E+01  0.83535981872E+01  0.13421071203E+02  0.51100000000E-03 0.  1.
        -12    1    3    3    0    0 -0.64072492571E+01  0.68541426954E+01  0.14667414082E+02  0.17411638378E+02  0.00000000000E+00 0.  1.
</event>
<event>
 7    1  0.5525118E-011  0.5052885E+02  0.7816164E-02  0.1300439E+00
        -11   -1    0    0    0    0  0.00000000000E+00  0.00000000000E+00  0.45593999997E+02  0.45594000000E+02  0.51100000000E-03 0.  1.
         11   -1    0    0    0    0 -0.00000000000E+00 -0.00000000000E+00 -0.45593999997E+02  0.45594000000E+02  0.51100000000E-03 0. -1.
    9900012    2    1    2    0    0 -0.27783282487E+02  0.22018646624E+02 -0.19910665734E+02  0.50528853491E+02  0.29999980670E+02 0.  0.
        -12    1    1    2    0    0  0.27783282487E+02 -0.22018646624E+02  0.19910665734E+02  0.40659146509E+02  0.00000000000E+00 0.  1.
         11    1    3    3    0    0 -0.10402162907E+02 -0.15994522881E+01 -0.11798843365E+02  0.15810627621E+02  0.51100000000E-03 0. -1.
        -11    1    3    3    0    0 -0.10243172612E+02  0.79468381851E+01  0.41115337675E+01  0.13600718087E+02  0.51100000000E-03 0.  1.
         12    1    3    3    0    0 -0.71379469676E+01  0.15671260727E+02 -0.12223356137E+02  0.21117507782E+02  0.00000000000E+00 0. -1.
</event>
<event>
 7    1  0.5525118E-011  0.5052885E+02  0.7816164E-02  0.1300439E+00
        -11   -1    0    0    0    0  0.00000000000E+00  0.00000000000E+00  0.45593999997E+02  0.45594000000E+02  0.51100000000E-03 0.  1.
         11   -1    0    0    0    0 -0.00000000000E+00 -0.00000000000E+00 -0.45593999997E+02  0.45594000000E+02  0.51100000000E-03 0. -1.
    9900012    2    1    2    0    0 -0.19328843720E+02  0.57862989392E+01 -0.35299877228E+02  0.50528846206E+02  0.29999958528E+02 0.  0.
        -12    1    1    2    0    0  0.19328843720E+02 -0.57862989392E+01  0.35299877228E+02  0.40659153794E+02  0.00000000000E+00 0.  1.
         11    1    3    3    0    0 -0.15089110735E+02  0.11291408425E+02 -0.26123167056E+02  0.32211752891E+02  0.51100000000E-03 0. -1.
        -11    1    3    3    0    0  0.52082446886E+01 -0.29724641519E+01 -0.26382700360E+01  0.65514750182E+01  0.51100000000E-03 0.  1.
        -12    1    3    3    0    0 -0.94479776727E+01 -0.25326453343E+01 -0.65384401356E+01  0.11765618296E+02  0.00000000000E+00 0.  1.
</event>
<event>
 7    1  0.5525118E-011  0.5052887E+02  0.7816164E-02  0.1300439E+00
        -11   -1    0    0    0    0  0.00000000000E+00  0.00000000000E+00  0.45593999997E+02  0.45594000000E+02  0.51100000000E-03 0.  1.
         11   -1    0    0    0    0 -0.00000000000E+00 -0.00000000000E+00 -0.45593999997E+02  0.45594000000E+02  0.51100000000E-03 0. -1.
    9900012    2    1    2    0    0  0.31090608057E+02 -0.73858899113E+01 -0.25139369111E+02  0.50528866236E+02  0.30000019411E+02 0.  0.
        -12    1    1    2    0    0 -0.31090608057E+02  0.73858899113E+01  0.25139369111E+02  0.40659133764E+02  0.00000000000E+00 0.  1.
         11    1    3    3    0    0  0.16598487070E+02 -0.11610599767E+02 -0.30940397642E+01  0.20491190358E+02  0.51100000000E-03 0. -1.
        -11    1    3    3    0    0 -0.22405035458E+01  0.26120439054E+01 -0.52318098489E+01  0.62621453240E+01  0.51100000000E-03 0.  1.
         12    1    3    3    0    0  0.16732624532E+02  0.16126659506E+01 -0.16813519498E+02  0.23775530554E+02  0.00000000000E+00 0. -1.
</event>
<event>
 7    1  0.5525118E-011  0.5052886E+02  0.7816164E-02  0.1300439E+00
        -11   -1    0    0    0    0  0.00000000000E+00  0.00000000000E+00  0.45593999997E+02  0.45594000000E+02  0.51100000000E-03 0.  1.
         11   -1    0    0    0    0 -0.00000000000E+00 -0.00000000000E+00 -0.45593999997E+02  0.45594000000E+02  0.51100000000E-03 0. -1.
    9900012    2    1    2    0    0  0.15815716447E+02  0.29073459033E+00 -0.37455897071E+02  0.50528860330E+02  0.30000001458E+02 0.  0.
        -12    1    1    2    0    0 -0.15815716447E+02 -0.29073459033E+00  0.37455897071E+02  0.40659139670E+02  0.00000000000E+00 0.  1.
         11    1    3    3    0    0  0.50487520716E+01  0.10939677526E+02 -0.19909798952E+02  0.23271582164E+02  0.51100000000E-03 0. -1.
        -11    1    3    3    0    0 -0.17659920636E+01 -0.12930541891E+01  0.14693669724E+01  0.26362391138E+01  0.51100000000E-03 0.  1.
         12    1    3    3    0    0  0.12532956439E+02 -0.93558887464E+01 -0.19015465092E+02  0.24621039052E+02  0.00000000000E+00 0. -1.
</event>
<event>
 7    1  0.5525118E-011  0.5052885E+02  0.7816164E-02  0.1300439E+00
        -11   -1    0    0    0    0  0.00000000000E+00  0.00000000000E+00  0.45593999997E+02  0.45594000000E+02  0.51100000000E-03 0.  1.
         11   -1    0    0    0    0 -0.00000000000E+00 -0.00000000000E+00 -0.45593999997E+02  0.45594000000E+02  0.51100000000E-03 0. -1.
    9900012    2    1    2    0    0  0.27770332585E+02 -0.12900986612E+02 -0.26749570565E+02  0.50528851548E+02  0.29999974765E+02 0.  0.
        -12    1    1    2    0    0 -0.27770332585E+02  0.12900986612E+02  0.26749570565E+02  0.40659148452E+02  0.00000000000E+00 0.  1.
         11    1    3    3    0    0  0.23885225092E+02 -0.65211921503E+00 -0.19789953766E+02  0.31025336541E+02  0.51100000000E-03 0. -1.
        -11    1    3    3    0    0 -0.12786801332E+01 -0.26254160365E+01  0.33781543345E+01  0.44653957514E+01  0.51100000000E-03 0.  1.
         12    1    3    3    0    0  0.51637876259E+01 -0.96234513600E+01 -0.10337771134E+02  0.15038119256E+02  0.00000000000E+00 0. -1.
</event>
<event>
 7    1  0.5525118E-011  0.5052886E+02  0.7816164E-02  0.1300439E+00
        -11   -1    0    0    0    0  0.00000000000E+00  0.00000000000E+00  0.45593999997E+02  0.45594000000E+02  0.51100000000E-03 0. -1.
         11   -1    0    0    0    0 -0.00000000000E+00 -0.00000000000E+00 -0.45593999997E+02  0.45594000000E+02  0.51100000000E-03 0.  1.
    9900012    2    1    2    0    0  0.34198730414E+02 -0.11221153525E+02  0.18912910062E+02  0.50528860617E+02  0.30000002331E+02 0.  0.
        -12    1    1    2    0    0 -0.34198730414E+02  0.11221153525E+02 -0.18912910062E+02  0.40659139383E+02  0.00000000000E+00 0.  1.
         11    1    3    3    0    0  0.65013454011E+01 -0.11756624276E+02  0.98745514239E+00  0.13470737705E+02  0.51100000000E-03 0. -1.
        -11    1    3    3    0    0  0.19450509505E+02  0.82577482280E+01  0.11355909022E+02  0.23988943198E+02  0.51100000000E-03 0.  1.
         12    1    3    3    0    0  0.82468755079E+01 -0.77222774770E+01  0.65695458979E+01  0.13069179713E+02  0.00000000000E+00 0. -1.
</event>
<event>
 7    1  0.5525118E-011  0.5052894E+02  0.7816164E-02  0.1300439E+00
        -11   -1    0    0    0    0  0.00000000000E+00  0.00000000000E+00  0.45593999997E+02  0.45594000000E+02  0.51100000000E-03 0.  1.
         11   -1    0    0    0    0 -0.00000000000E+00 -0.00000000000E+00 -0.45593999997E+02  0.45594000000E+02  0.51100000000E-03 0. -1.
    9900012    2    1    2    0    0 -0.21021663634E+02  0.24803401111E+02 -0.24413935286E+02  0.50528938467E+02  0.30000238962E+02 0.  0.
        -12    1    1    2    0    0  0.21021663634E+02 -0.24803401111E+02  0.24413935286E+02  0.40659061533E+02  0.00000000000E+00 0.  1.
         11    1    3    3    0    0 -0.22642168493E+02  0.25231556311E+02 -0.14440554180E+02  0.36848729058E+02  0.51100000000E-03 0. -1.
        -11    1    3    3    0    0 -0.27871751163E+00 -0.95347628617E+00  0.16310040602E+01  0.19097054708E+01  0.51100000000E-03 0.  1.
         12    1    3    3    0    0  0.18992223703E+01  0.52532108632E+00 -0.11604385167E+02  0.11770503938E+02  0.00000000000E+00 0. -1.
</event>
<event>
 7    1  0.5525118E-011  0.5052887E+02  0.7816164E-02  0.1300439E+00
        -11   -1    0    0    0    0  0.00000000000E+00  0.00000000000E+00  0.45593999997E+02  0.45594000000E+02  0.51100000000E-03 0.  1.
         11   -1    0    0    0    0 -0.00000000000E+00 -0.00000000000E+00 -0.45593999997E+02  0.45594000000E+02  0.51100000000E-03 0. -1.
    9900012    2    1    2    0    0  0.37105747639E+02 -0.83036819657E+01 -0.14400606183E+02  0.50528866949E+02  0.30000021577E+02 0.  0.
        -12    1    1    2    0    0 -0.37105747639E+02  0.83036819657E+01  0.14400606183E+02  0.40659133051E+02  0.00000000000E+00 0.  1.
         11    1    3    3    0    0  0.28071083143E+02 -0.42472581393E+01 -0.20832721234E+02  0.35214019720E+02  0.51100000000E-03 0. -1.
        -11    1    3    3    0    0  0.61369220930E+01  0.11542030773E+01  0.69342667111E+01  0.93315621736E+01  0.51100000000E-03 0.  1.
         12    1    3    3    0    0  0.28977424026E+01 -0.52106269037E+01 -0.50215165964E+00  0.59832850551E+01  0.00000000000E+00 0. -1.
</event>
<event>
 7    1  0.5525118E-011  0.5052884E+02  0.7816164E-02  0.1300439E+00
        -11   -1    0    0    0    0  0.00000000000E+00  0.00000000000E+00  0.45593999997E+02  0.45594000000E+02  0.51100000000E-03 0.  1.
         11   -1    0    0    0    0 -0.00000000000E+00 -0.00000000000E+00 -0.45593999997E+02  0.45594000000E+02  0.51100000000E-03 0. -1.
    9900012    2    1    2    0    0 -0.92885793204E+01 -0.32468720028E+02 -0.22642252271E+02  0.50528842680E+02  0.29999947811E+02 0.  0.
        -12    1    1    2    0    0  0.92885793204E+01  0.32468720028E+02  0.22642252271E+02  0.40659157320E+02  0.00000000000E+00 0.  1.
         11    1    3    3    0    0  0.56143552043E+01 -0.16143944204E+01 -0.71672923540E+01  0.92464768238E+01  0.51100000000E-03 0. -1.
        -11    1    3    3    0    0 -0.10902998130E+02 -0.10550613796E+02  0.43669588073E+00  0.15178324126E+02  0.51100000000E-03 0.  1.
         12    1    3    3    0    0 -0.39999363944E+01 -0.20303711811E+02 -0.15911655798E+02  0.26104041731E+02  0.00000000000E+00 0. -1.
</event>
<event>
 7    1  0.5525118E-011  0.5052886E+02  0.7816164E-02  0.1300439E+00
        -11   -1    0    0    0    0  0.00000000000E+00  0.00000000000E+00  0.45593999997E+02  0.45594000000E+02  0.51100000000E-03 0.  1.
         11   -1    0    0    0    0 -0.00000000000E+00 -0.00000000000E+00 -0.45593999997E+02  0.45594000000E+02  0.51100000000E-03 0. -1.
    9900012    2    1    2    0    0 -0.21177623933E+02  0.22295737112E+02  0.26600263589E+02  0.50528859923E+02  0.30000000223E+02 0.  0.
        -12    1    1    2    0    0  0.21177623933E+02 -0.22295737112E+02 -0.26600263589E+02  0.40659140077E+02  0.00000000000E+00 0.  1.
         11    1    3    3    0    0 -0.16096186807E+02  0.28738439941E+02  0.20769312283E+02  0.38940332471E+02  0.51100000000E-03 0. -1.
        -11    1    3    3    0    0 -0.25939518728E+01 -0.37878780255E+01  0.64307396336E+01  0.79013301887E+01  0.51100000000E-03 0.  1.
         12    1    3    3    0    0 -0.24874852527E+01 -0.26548248041E+01 -0.59978832811E+00  0.36871972637E+01  0.00000000000E+00 0. -1.
</event>
<event>
 7    1  0.5525118E-011  0.5052885E+02  0.7816164E-02  0.1300439E+00
        -11   -1    0    0    0    0  0.00000000000E+00  0.00000000000E+00  0.45593999997E+02  0.45594000000E+02  0.51100000000E-03 0.  1.
         11   -1    0    0    0    0 -0.00000000000E+00 -0.00000000000E+00 -0.45593999997E+02  0.45594000000E+02  0.51100000000E-03 0. -1.
    9900012    2    1    2    0    0 -0.12152361122E+02  0.28945619009E+02 -0.25838688652E+02  0.50528848854E+02  0.29999966576E+02 0.  0.
        -12    1    1    2    0    0  0.12152361122E+02 -0.28945619009E+02  0.25838688652E+02  0.40659151146E+02  0.00000000000E+00 0.  1.
         11    1    3    3    0    0 -0.61276428650E+01  0.47993850371E+01 -0.23288333083E+02  0.24554603680E+02  0.51100000000E-03 0. -1.
        -11    1    3    3    0    0 -0.26160295686E+01  0.20872183161E+02 -0.29024489449E+01  0.21234779272E+02  0.51100000000E-03 0.  1.
        -12    1    3    3    0    0 -0.34086886886E+01  0.32740508108E+01  0.35209337585E+00  0.47394659016E+01  0.00000000000E+00 0.  1.
</event>
<event>
 7    1  0.5525118E-011  0.5052885E+02  0.7816164E-02  0.1300439E+00
        -11   -1    0    0    0    0  0.00000000000E+00  0.00000000000E+00  0.45593999997E+02  0.45594000000E+02  0.51100000000E-03 0. -1.
         11   -1    0    0    0    0 -0.00000000000E+00 -0.00000000000E+00 -0.45593999997E+02  0.45594000000E+02  0.51100000000E-03 0.  1.
    9900012    2    1    2    0    0 -0.98481086473E+01  0.16101370289E+02  0.36012875435E+02  0.50528848924E+02  0.29999966791E+02 0.  0.
        -12    1    1    2    0    0  0.98481086473E+01 -0.16101370289E+02 -0.36012875435E+02  0.40659151076E+02  0.00000000000E+00 0.  1.
         11    1    3    3    0    0 -0.94886581665E+01  0.10505843734E+02  0.13209920957E+01  0.14218031043E+02  0.51100000000E-03 0. -1.
        -11    1    3    3    0    0  0.15931533060E+01 -0.21635162267E+01  0.75270790209E+01  0.79922374069E+01  0.51100000000E-03 0.  1.
         12    1    3    3    0    0 -0.19526037868E+01  0.77590427817E+01  0.27164804318E+02  0.28318580474E+02  0.00000000000E+00 0. -1.
</event>
<event>
 7    1  0.5525118E-011  0.5052886E+02  0.7816164E-02  0.1300439E+00
        -11   -1    0    0    0    0  0.00000000000E+00  0.00000000000E+00  0.45593999997E+02  0.45594000000E+02  0.51100000000E-03 0.  1.
         11   -1    0    0    0    0 -0.00000000000E+00 -0.00000000000E+00 -0.45593999997E+02  0.45594000000E+02  0.51100000000E-03 0. -1.
    9900012    2    1    2    0    0 -0.14167763806E+02  0.29854851780E+02 -0.23688145752E+02  0.50528856437E+02  0.29999989627E+02 0.  0.
        -12    1    1    2    0    0  0.14167763806E+02 -0.29854851780E+02  0.23688145752E+02  0.40659143563E+02  0.00000000000E+00 0.  1.
         11    1    3    3    0    0 -0.73244480352E+01  0.82915394039E+01 -0.16826404082E+02  0.20137652279E+02  0.51100000000E-03 0. -1.
        -11    1    3    3    0    0  0.33027191443E+01  0.55686123428E-01  0.31727787302E+01  0.45801287997E+01  0.51100000000E-03 0.  1.
         12    1    3    3    0    0 -0.10146034915E+02  0.21507626253E+02 -0.10034520400E+02  0.25811075359E+02  0.00000000000E+00 0. -1.
</event>
<event>
 7    1  0.5525118E-011  0.5052886E+02  0.7816164E-02  0.1300439E+00
        -11   -1    0    0    0    0  0.00000000000E+00  0.00000000000E+00  0.45593999997E+02  0.45594000000E+02  0.51100000000E-03 0.  1.
         11   -1    0    0    0    0 -0.00000000000E+00 -0.00000000000E+00 -0.45593999997E+02  0.45594000000E+02  0.51100000000E-03 0. -1.
    9900012    2    1    2    0    0 -0.24484041283E+02 -0.18492733605E+02 -0.26678005260E+02  0.50528862793E+02  0.30000008946E+02 0.  0.
        -12    1    1    2    0    0  0.24484041283E+02  0.18492733605E+02  0.26678005260E+02  0.40659137207E+02  0.00000000000E+00 0.  1.
         11    1    3    3    0    0 -0.23806036218E+02 -0.12323902679E+02 -0.28556042102E+02  0.39166994759E+02  0.51100000000E-03 0. -1.
        -11    1    3    3    0    0 -0.10191726902E+01  0.20692777657E+01  0.20918673971E+01  0.31139256434E+01  0.51100000000E-03 0.  1.
         12    1    3    3    0    0  0.34116762553E+00 -0.82381086922E+01 -0.21383055568E+00  0.82479423907E+01  0.00000000000E+00 0. -1.
</event>
<event>
 7    1  0.5525118E-011  0.5052886E+02  0.7816164E-02  0.1300439E+00
        -11   -1    0    0    0    0  0.00000000000E+00  0.00000000000E+00  0.45593999997E+02  0.45594000000E+02  0.51100000000E-03 0. -1.
         11   -1    0    0    0    0 -0.00000000000E+00 -0.00000000000E+00 -0.45593999997E+02  0.45594000000E+02  0.51100000000E-03 0.  1.
    9900012    2    1    2    0    0 -0.16625925705E+02  0.34662236675E+01  0.36942242595E+02  0.50528863266E+02  0.30000010382E+02 0.  0.
        -12    1    1    2    0    0  0.16625925705E+02 -0.34662236675E+01 -0.36942242595E+02  0.40659136734E+02  0.00000000000E+00 0.  1.
         11    1    3    3    0    0  0.57208093325E+01 -0.21644208214E+01  0.77273777242E+01  0.98551886671E+01  0.51100000000E-03 0.  1.
        -11    1    3    3    0    0 -0.16673514567E+02  0.40885447896E+01  0.30174964003E+02  0.34716721322E+02  0.51100000000E-03 0. -1.
         12    1    3    3    0    0 -0.56732204707E+01  0.15420996993E+01 -0.96009913270E+00  0.59569532763E+01  0.00000000000E+00 0. -1.
</event>
<event>
 7    1  0.5525118E-011  0.5052887E+02  0.7816164E-02  0.1300439E+00
        -11   -1    0    0    0    0  0.00000000000E+00  0.00000000000E+00  0.45593999997E+02  0.45594000000E+02  0.51100000000E-03 0. -1.
         11   -1    0    0    0    0 -0.00000000000E+00 -0.00000000000E+00 -0.45593999997E+02  0.45594000000E+02  0.51100000000E-03 0.  1.
    9900012    2    1    2    0    0  0.32705804863E+01  0.40145092441E+02 -0.55533483809E+01  0.50528870373E+02  0.30000031985E+02 0.  0.
        -12    1    1    2    0    0 -0.32705804863E+01 -0.40145092441E+02  0.55533483809E+01  0.40659129627E+02  0.00000000000E+00 0.  1.
         11    1    3    3    0    0 -0.93860410943E+01  0.32430206941E+02 -0.15732402918E+01  0.33797798375E+02  0.51100000000E-03 0. -1.
        -11    1    3    3    0    0  0.54051980403E+01  0.27439359480E+01 -0.50299867604E+01  0.78769357883E+01  0.51100000000E-03 0.  1.
         12    1    3    3    0    0  0.72514235403E+01  0.49709495513E+01  0.10498786713E+01  0.88541362101E+01  0.00000000000E+00 0. -1.
</event>
<event>
 7    1  0.5525118E-011  0.5052886E+02  0.7816164E-02  0.1300439E+00
        -11   -1    0    0    0    0  0.00000000000E+00  0.00000000000E+00  0.45593999997E+02  0.45594000000E+02  0.51100000000E-03 0. -1.
         11   -1    0    0    0    0 -0.00000000000E+00 -0.00000000000E+00 -0.45593999997E+02  0.45594000000E+02  0.51100000000E-03 0.  1.
    9900012    2    1    2    0    0  0.24878755629E+02  0.21921879772E+02  0.23529651997E+02  0.50528858131E+02  0.29999994776E+02 0.  0.
        -12    1    1    2    0    0 -0.24878755629E+02 -0.21921879772E+02 -0.23529651997E+02  0.40659141869E+02  0.00000000000E+00 0.  1.
         11    1    3    3    0    0  0.52342368986E+01  0.95187595350E+01  0.46104712326E+01  0.11800867097E+02  0.51100000000E-03 0. -1.
        -11    1    3    3    0    0  0.20758242655E+02 -0.15771100886E+00  0.87466346794E+01  0.22526276420E+02  0.51100000000E-03 0.  1.
        -12    1    3    3    0    0 -0.11137239249E+01  0.12560831246E+02  0.10172546085E+02  0.16201714614E+02  0.00000000000E+00 0.  1.
</event>
<event>
 7    1  0.5525118E-011  0.5052885E+02  0.7816164E-02  0.1300439E+00
        -11   -1    0    0    0    0  0.00000000000E+00  0.00000000000E+00  0.45593999997E+02  0.45594000000E+02  0.51100000000E-03 0.  1.
         11   -1    0    0    0    0 -0.00000000000E+00 -0.00000000000E+00 -0.45593999997E+02  0.45594000000E+02  0.51100000000E-03 0. -1.
    9900012    2    1    2    0    0 -0.32143241231E+02  0.24877607142E+02 -0.10407098687E+01  0.50528851325E+02  0.29999974087E+02 0.  0.
        -12    1    1    2    0    0  0.32143241231E+02 -0.24877607142E+02  0.10407098687E+01  0.40659148675E+02  0.00000000000E+00 0.  1.
         11    1    3    3    0    0 -0.15433833047E+02  0.19484458522E+02 -0.43591151751E+01  0.25235871529E+02  0.51100000000E-03 0. -1.
        -11    1    3    3    0    0 -0.21963477111E+01  0.72283353778E+01  0.69008995989E+01  0.10232066807E+02  0.51100000000E-03 0.  1.
         12    1    3    3    0    0 -0.14513060473E+02 -0.18351867581E+01 -0.35824942925E+01  0.15060912989E+02  0.00000000000E+00 0. -1.
</event>
<event>
 7    1  0.5525118E-011  0.5052884E+02  0.7816164E-02  0.1300439E+00
        -11   -1    0    0    0    0  0.00000000000E+00  0.00000000000E+00  0.45593999997E+02  0.45594000000E+02  0.51100000000E-03 0.  1.
         11   -1    0    0    0    0 -0.00000000000E+00 -0.00000000000E+00 -0.45593999997E+02  0.45594000000E+02  0.51100000000E-03 0. -1.
    9900012    2    1    2    0    0 -0.10867277036E+02  0.98678365725E+01 -0.37916948878E+02  0.50528844561E+02  0.29999953527E+02 0.  0.
        -12    1    1    2    0    0  0.10867277036E+02 -0.98678365725E+01  0.37916948878E+02  0.40659155439E+02  0.00000000000E+00 0.  1.
         11    1    3    3    0    0 -0.15059700402E+02  0.75370124603E+01 -0.26249554801E+02  0.31187181029E+02  0.51100000000E-03 0. -1.
        -11    1    3    3    0    0 -0.17592896334E+01 -0.10637986435E+01  0.27179358594E+01  0.34079235855E+01  0.51100000000E-03 0.  1.
         12    1    3    3    0    0  0.59517129996E+01  0.33946227556E+01 -0.14385329937E+02  0.15933739946E+02  0.00000000000E+00 0. -1.
</event>
<event>
 7    1  0.5525118E-011  0.5052893E+02  0.7816164E-02  0.1300439E+00
        -11   -1    0    0    0    0  0.00000000000E+00  0.00000000000E+00  0.45593999997E+02  0.45594000000E+02  0.51100000000E-03 0.  1.
         11   -1    0    0    0    0 -0.00000000000E+00 -0.00000000000E+00 -0.45593999997E+02  0.45594000000E+02  0.51100000000E-03 0. -1.
    9900012    2    1    2    0    0  0.16593623929E+02 -0.18678110303E+02 -0.32077095886E+02  0.50528926719E+02  0.30000203255E+02 0.  0.
        -12    1    1    2    0    0 -0.16593623929E+02  0.18678110303E+02  0.32077095886E+02  0.40659073281E+02  0.00000000000E+00 0.  1.
         11    1    3    3    0    0  0.33876342108E+00 -0.53401189302E+01 -0.13766811957E+02  0.14770130080E+02  0.51100000000E-03 0. -1.
        -11    1    3    3    0    0  0.30667812681E+01 -0.97855690569E+01  0.27865370200E+01  0.10626725645E+02  0.51100000000E-03 0.  1.
        -12    1    3    3    0    0  0.13188079240E+02 -0.35524223162E+01 -0.21096820948E+02  0.25132070994E+02  0.00000000000E+00 0.  1.
</event>
<event>
 7    1  0.5525118E-011  0.5052886E+02  0.7816164E-02  0.1300439E+00
        -11   -1    0    0    0    0  0.00000000000E+00  0.00000000000E+00  0.45593999997E+02  0.45594000000E+02  0.51100000000E-03 0.  1.
         11   -1    0    0    0    0 -0.00000000000E+00 -0.00000000000E+00 -0.45593999997E+02  0.45594000000E+02  0.51100000000E-03 0. -1.
    9900012    2    1    2    0    0  0.34483018559E+02 -0.57857161324E+01 -0.20751201250E+02  0.50528862854E+02  0.30000009132E+02 0.  0.
        -12    1    1    2    0    0 -0.34483018559E+02  0.57857161324E+01  0.20751201250E+02  0.40659137146E+02  0.00000000000E+00 0.  1.
         11    1    3    3    0    0  0.93366670189E+01 -0.20382975346E+01 -0.81289993896E+01  0.12546259969E+02  0.51100000000E-03 0. -1.
        -11    1    3    3    0    0 -0.34230118205E+01 -0.54432434393E+01 -0.55694761794E+01  0.85067605019E+01  0.51100000000E-03 0.  1.
        -12    1    3    3    0    0  0.28569363360E+02  0.16958248415E+01 -0.70527256813E+01  0.29475842384E+02  0.00000000000E+00 0.  1.
</event>
<event>
 7    1  0.5525118E-011  0.5052887E+02  0.7816164E-02  0.1300439E+00
        -11   -1    0    0    0    0  0.00000000000E+00  0.00000000000E+00  0.45593999997E+02  0.45594000000E+02  0.51100000000E-03 0. -1.
         11   -1    0    0    0    0 -0.00000000000E+00 -0.00000000000E+00 -0.45593999997E+02  0.45594000000E+02  0.51100000000E-03 0.  1.
    9900012    2    1    2    0    0  0.94215316273E+01 -0.19523653991E+02  0.34398064839E+02  0.50528865872E+02  0.30000018305E+02 0.  0.
        -12    1    1    2    0    0 -0.94215316273E+01  0.19523653991E+02 -0.34398064839E+02  0.40659134128E+02  0.00000000000E+00 0.  1.
         11    1    3    3    0    0  0.15858884826E+02 -0.92109686393E+01  0.32885364918E+02  0.37653597401E+02  0.51100000000E-03 0. -1.
        -11    1    3    3    0    0 -0.50854154178E+01 -0.49527351750E+01 -0.15822393082E+00  0.71004275053E+01  0.51100000000E-03 0.  1.
         12    1    3    3    0    0 -0.13519377809E+01 -0.53599501765E+01  0.16709238515E+01  0.57748409654E+01  0.00000000000E+00 0. -1.
</event>
<event>
 7    1  0.5525118E-011  0.5052884E+02  0.7816164E-02  0.1300439E+00
        -11   -1    0    0    0    0  0.00000000000E+00  0.00000000000E+00  0.45593999997E+02  0.45594000000E+02  0.51100000000E-03 0. -1.
         11   -1    0    0    0    0 -0.00000000000E+00 -0.00000000000E+00 -0.45593999997E+02  0.45594000000E+02  0.51100000000E-03 0.  1.
    9900012    2    1    2    0    0 -0.32244352590E+01  0.47211047004E+01  0.40255208228E+02  0.50528836189E+02  0.29999928079E+02 0.  0.
        -12    1    1    2    0    0  0.32244352590E+01 -0.47211047004E+01 -0.40255208228E+02  0.40659163811E+02  0.00000000000E+00 0.  1.
         11    1    3    3    0    0  0.45469681411E+01  0.24611197220E+00  0.13097137707E+02  0.13866164096E+02  0.51100000000E-03 0. -1.
        -11    1    3    3    0    0 -0.14344726540E+02 -0.19555126846E+01  0.11437938834E+02  0.18450519083E+02  0.51100000000E-03 0.  1.
        -12    1    3    3    0    0  0.65733231404E+01  0.64305054128E+01  0.15720131687E+02  0.18212153009E+02  0.00000000000E+00 0.  1.
</event>
<event>
 7    1  0.5525118E-011  0.5052890E+02  0.7816164E-02  0.1300439E+00
        -11   -1    0    0    0    0  0.00000000000E+00  0.00000000000E+00  0.45593999997E+02  0.45594000000E+02  0.51100000000E-03 0. -1.
         11   -1    0    0    0    0 -0.00000000000E+00 -0.00000000000E+00 -0.45593999997E+02  0.45594000000E+02  0.51100000000E-03 0.  1.
    9900012    2    1    2    0    0  0.11356190819E+02 -0.12083017697E+02  0.37124121115E+02  0.50528895790E+02  0.30000109242E+02 0.  0.
        -12    1    1    2    0    0 -0.11356190819E+02  0.12083017697E+02 -0.37124121115E+02  0.40659104210E+02  0.00000000000E+00 0.  1.
         11    1    3    3    0    0  0.11400591758E+02  0.11107309665E+01  0.10060685591E+02  0.15245478363E+02  0.51100000000E-03 0. -1.
        -11    1    3    3    0    0 -0.43107999240E+01 -0.16441521739E+01 -0.92588734418E+00  0.47056880465E+01  0.51100000000E-03 0.  1.
         12    1    3    3    0    0  0.42663989858E+01 -0.11549596490E+02  0.27989322869E+02  0.30577729380E+02  0.00000000000E+00 0. -1.
</event>
<event>
 7    1  0.5525118E-011  0.5052887E+02  0.7816164E-02  0.1300439E+00
        -11   -1    0    0    0    0  0.00000000000E+00  0.00000000000E+00  0.45593999997E+02  0.45594000000E+02  0.51100000000E-03 0.  1.
         11   -1    0    0    0    0 -0.00000000000E+00 -0.00000000000E+00 -0.45593999997E+02  0.45594000000E+02  0.51100000000E-03 0. -1.
    9900012    2    1    2    0    0 -0.16128431910E+01 -0.42268812231E+01 -0.40406647132E+02  0.50528869163E+02  0.30000028307E+02 0.  0.
        -12    1    1    2    0    0  0.16128431910E+01  0.42268812231E+01  0.40406647132E+02  0.40659130837E+02  0.00000000000E+00 0.  1.
         11    1    3    3    0    0 -0.13991885019E+02 -0.47389034935E+01 -0.16157459840E+02  0.21892774184E+02  0.51100000000E-03 0. -1.
        -11    1    3    3    0    0  0.95600511367E+01  0.60210371621E+00 -0.90518906331E+01  0.13179295539E+02  0.51100000000E-03 0.  1.
         12    1    3    3    0    0  0.28189906917E+01 -0.90081445785E-01 -0.15197296658E+02  0.15456799439E+02  0.00000000000E+00 0. -1.
</event>
<event>
 7    1  0.5525118E-011  0.5052886E+02  0.7816164E-02  0.1300439E+00
        -11   -1    0    0    0    0  0.00000000000E+00  0.00000000000E+00  0.45593999997E+02  0.45594000000E+02  0.51100000000E-03 0.  1.
         11   -1    0    0    0    0 -0.00000000000E+00 -0.00000000000E+00 -0.45593999997E+02  0.45594000000E+02  0.51100000000E-03 0. -1.
    9900012    2    1    2    0    0 -0.70441819024E+01  0.38801379397E+02 -0.98993948317E+01  0.50528861300E+02  0.30000004408E+02 0.  0.
        -12    1    1    2    0    0  0.70441819024E+01 -0.38801379397E+02  0.98993948317E+01  0.40659138700E+02  0.00000000000E+00 0.  1.
         11    1    3    3    0    0 -0.17555570530E+02  0.20334539131E+02 -0.18614514047E+01  0.26928730751E+02  0.51100000000E-03 0. -1.
        -11    1    3    3    0    0  0.51283661689E+01  0.85792862607E+01 -0.71855084787E+01  0.12309988817E+02  0.51100000000E-03 0.  1.
         12    1    3    3    0    0  0.53830224585E+01  0.98875540052E+01 -0.85243494836E+00  0.11290141732E+02  0.00000000000E+00 0. -1.
</event>
<event>
 7    1  0.5525118E-011  0.5052886E+02  0.7816164E-02  0.1300439E+00
        -11   -1    0    0    0    0  0.00000000000E+00  0.00000000000E+00  0.45593999997E+02  0.45594000000E+02  0.51100000000E-03 0.  1.
         11   -1    0    0    0    0 -0.00000000000E+00 -0.00000000000E+00 -0.45593999997E+02  0.45594000000E+02  0.51100000000E-03 0. -1.
    9900012    2    1    2    0    0  0.23436948226E+01  0.13231834825E+02 -0.38374361052E+02  0.50528856571E+02  0.29999990033E+02 0.  0.
        -12    1    1    2    0    0 -0.23436948226E+01 -0.13231834825E+02  0.38374361052E+02  0.40659143429E+02  0.00000000000E+00 0.  1.
         11    1    3    3    0    0  0.10447013463E+02  0.14613776797E+02 -0.22290213297E+02  0.28627891498E+02  0.51100000000E-03 0. -1.
        -11    1    3    3    0    0 -0.12548239243E+01 -0.20322720310E+01  0.16341911488E+01  0.28940099622E+01  0.51100000000E-03 0.  1.
         12    1    3    3    0    0 -0.68484947162E+01  0.65033005894E+00 -0.17718338904E+02  0.19006955111E+02  0.00000000000E+00 0. -1.
</event>
<event>
 7    1  0.5525118E-011  0.5052886E+02  0.7816164E-02  0.1300439E+00
        -11   -1    0    0    0    0  0.00000000000E+00  0.00000000000E+00  0.45593999997E+02  0.45594000000E+02  0.51100000000E-03 0.  1.
         11   -1    0    0    0    0 -0.00000000000E+00 -0.00000000000E+00 -0.45593999997E+02  0.45594000000E+02  0.51100000000E-03 0. -1.
    9900012    2    1    2    0    0 -0.16344803563E+02  0.39873236149E+01 -0.37015055942E+02  0.50528859336E+02  0.29999998438E+02 0.  0.
        -12    1    1    2    0    0  0.16344803563E+02 -0.39873236149E+01  0.37015055942E+02  0.40659140664E+02  0.00000000000E+00 0.  1.
         11    1    3    3    0    0  0.39063167058E+01  0.43444486663E+01 -0.22809926558E+02  0.23546258605E+02  0.51100000000E-03 0.  1.
        -11    1    3    3    0    0 -0.15766789541E+02  0.34125633824E+01 -0.13587837657E+02  0.21091860367E+02  0.51100000000E-03 0. -1.
        -12    1    3    3    0    0 -0.44843307282E+01 -0.37696884338E+01 -0.61729172653E+00  0.58907403646E+01  0.00000000000E+00 0.  1.
</event>
<event>
 7    1  0.5525118E-011  0.5052884E+02  0.7816164E-02  0.1300439E+00
        -11   -1    0    0    0    0  0.00000000000E+00  0.00000000000E+00  0.45593999997E+02  0.45594000000E+02  0.51100000000E-03 0.  1.
         11   -1    0    0    0    0 -0.00000000000E+00 -0.00000000000E+00 -0.45593999997E+02  0.45594000000E+02  0.51100000000E-03 0. -1.
    9900012    2    1    2    0    0  0.23363278071E+02 -0.21952815212E+01 -0.33203996788E+02  0.50528838353E+02  0.29999934656E+02 0.  0.
        -12    1    1    2    0    0 -0.23363278071E+02  0.21952815212E+01  0.33203996788E+02  0.40659161647E+02  0.00000000000E+00 0.  1.
         11    1    3    3    0    0  0.90026653339E+00  0.70718675283E+01 -0.14953010945E+02  0.16565455827E+02  0.51100000000E-03 0. -1.
        -11    1    3    3    0    0  0.18034041088E+02 -0.17462258390E+01 -0.63374855935E+01  0.19194782275E+02  0.51100000000E-03 0.  1.
         12    1    3    3    0    0  0.44289704489E+01 -0.75209232105E+01 -0.11913500250E+02  0.14768600251E+02  0.00000000000E+00 0. -1.
</event>
<event>
 7    1  0.5525118E-011  0.5052886E+02  0.7816164E-02  0.1300439E+00
        -11   -1    0    0    0    0  0.00000000000E+00  0.00000000000E+00  0.45593999997E+02  0.45594000000E+02  0.51100000000E-03 0. -1.
         11   -1    0    0    0    0 -0.00000000000E+00 -0.00000000000E+00 -0.45593999997E+02  0.45594000000E+02  0.51100000000E-03 0.  1.
    9900012    2    1    2    0    0 -0.29224207841E+02 -0.14729555883E+02  0.24127814546E+02  0.50528861111E+02  0.30000003834E+02 0.  0.
        -12    1    1    2    0    0  0.29224207841E+02  0.14729555883E+02 -0.24127814546E+02  0.40659138889E+02  0.00000000000E+00 0.  1.
         11    1    3    3    0    0 -0.24735028374E+02 -0.12083947934E+02  0.61765380871E+01  0.28213348779E+02  0.51100000000E-03 0. -1.
        -11    1    3    3    0    0 -0.43986093075E+01  0.40077888554E+01  0.11973619690E+02  0.13370777991E+02  0.51100000000E-03 0.  1.
         12    1    3    3    0    0 -0.90570159376E-01 -0.66533968038E+01  0.59776567684E+01  0.89447343406E+01  0.00000000000E+00 0. -1.
</event>
<event>
 7    1  0.5525118E-011  0.5052886E+02  0.7816164E-02  0.1300439E+00
        -11   -1    0    0    0    0  0.00000000000E+00  0.00000000000E+00  0.45593999997E+02  0.45594000000E+02  0.51100000000E-03 0.  1.
         11   -1    0    0    0    0 -0.00000000000E+00 -0.00000000000E+00 -0.45593999997E+02  0.45594000000E+02  0.51100000000E-03 0. -1.
    9900012    2    1    2    0    0 -0.89610477844E+01 -0.51915183531E+01 -0.39318101604E+02  0.50528863832E+02  0.30000012102E+02 0.  0.
        -12    1    1    2    0    0  0.89610477844E+01  0.51915183531E+01  0.39318101604E+02  0.40659136168E+02  0.00000000000E+00 0.  1.
         11    1    3    3    0    0 -0.17099024415E+02  0.50861605714E+00 -0.18720125812E+02  0.25358991244E+02  0.51100000000E-03 0. -1.
        -11    1    3    3    0    0  0.61964207672E+01 -0.33216062031E+01 -0.36034612005E+01  0.79002298053E+01  0.51100000000E-03 0.  1.
         12    1    3    3    0    0  0.19415558637E+01 -0.23785282071E+01 -0.16994514592E+02  0.17269642782E+02  0.00000000000E+00 0. -1.
</event>
<event>
 7    1  0.5525118E-011  0.5052887E+02  0.7816164E-02  0.1300439E+00
        -11   -1    0    0    0    0  0.00000000000E+00  0.00000000000E+00  0.45593999997E+02  0.45594000000E+02  0.51100000000E-03 0.  1.
         11   -1    0    0    0    0 -0.00000000000E+00 -0.00000000000E+00 -0.45593999997E+02  0.45594000000E+02  0.51100000000E-03 0. -1.
    9900012    2    1    2    0    0  0.13998909210E+02  0.80801460373E+01 -0.37308269057E+02  0.50528866228E+02  0.30000019387E+02 0.  0.
        -12    1    1    2    0    0 -0.13998909210E+02 -0.80801460373E+01  0.37308269057E+02  0.40659133772E+02  0.00000000000E+00 0.  1.
         11    1    3    3    0    0  0.17609375788E+02  0.15092246001E+02 -0.31161149312E+02  0.38844346200E+02  0.51100000000E-03 0. -1.
        -11    1    3    3    0    0  0.25865617396E+00 -0.59008997693E+01 -0.34776963870E+01  0.68543339228E+01  0.51100000000E-03 0.  1.
         12    1    3    3    0    0 -0.38691227527E+01 -0.11112001945E+01 -0.26694233584E+01  0.48301861056E+01  0.00000000000E+00 0. -1.
</event>
<event>
 7    1  0.5525118E-011  0.5052883E+02  0.7816164E-02  0.1300439E+00
        -11   -1    0    0    0    0  0.00000000000E+00  0.00000000000E+00  0.45593999997E+02  0.45594000000E+02  0.51100000000E-03 0.  1.
         11   -1    0    0    0    0 -0.00000000000E+00 -0.00000000000E+00 -0.45593999997E+02  0.45594000000E+02  0.51100000000E-03 0. -1.
    9900012    2    1    2    0    0  0.16125366848E+02 -0.10750455810E+02 -0.35743083794E+02  0.50528833811E+02  0.29999920851E+02 0.  0.
        -12    1    1    2    0    0 -0.16125366848E+02  0.10750455810E+02  0.35743083794E+02  0.40659166189E+02  0.00000000000E+00 0.  1.
         11    1    3    3    0    0 -0.21948076800E+01 -0.11538206758E+01 -0.51531285452E+01  0.57186726579E+01  0.51100000000E-03 0. -1.
        -11    1    3    3    0    0  0.20826115700E+02 -0.15324481137E+02 -0.20755125093E+02  0.33156327226E+02  0.51100000000E-03 0.  1.
        -12    1    3    3    0    0 -0.25059411713E+01  0.57278460029E+01 -0.98348301559E+01  0.11653833926E+02  0.00000000000E+00 0.  1.
</event>
<event>
 7    1  0.5525118E-011  0.5052886E+02  0.7816164E-02  0.1300439E+00
        -11   -1    0    0    0    0  0.00000000000E+00  0.00000000000E+00  0.45593999997E+02  0.45594000000E+02  0.51100000000E-03 0.  1.
         11   -1    0    0    0    0 -0.00000000000E+00 -0.00000000000E+00 -0.45593999997E+02  0.45594000000E+02  0.51100000000E-03 0. -1.
    9900012    2    1    2    0    0  0.31348591490E+02 -0.10963989213E+02 -0.23456825771E+02  0.50528856832E+02  0.29999990827E+02 0.  0.
        -12    1    1    2    0    0 -0.31348591490E+02  0.10963989213E+02  0.23456825771E+02  0.40659143168E+02  0.00000000000E+00 0.  1.
         11    1    3    3    0    0  0.15032092483E+02 -0.14096682747E+02 -0.82737892960E+00  0.20624374537E+02  0.51100000000E-03 0. -1.
        -11    1    3    3    0    0  0.59792661634E+01  0.42562881951E+01 -0.34991789543E+01  0.81309204071E+01  0.51100000000E-03 0.  1.
         12    1    3    3    0    0  0.10337232844E+02 -0.11235946610E+01 -0.19130267888E+02  0.21773561888E+02  0.00000000000E+00 0. -1.
</event>
<event>
 7    1  0.5525118E-011  0.5052884E+02  0.7816164E-02  0.1300439E+00
        -11   -1    0    0    0    0  0.00000000000E+00  0.00000000000E+00  0.45593999997E+02  0.45594000000E+02  0.51100000000E-03 0.  1.
         11   -1    0    0    0    0 -0.00000000000E+00 -0.00000000000E+00 -0.45593999997E+02  0.45594000000E+02  0.51100000000E-03 0. -1.
    9900012    2    1    2    0    0 -0.63591711168E+01  0.39850486266E+02 -0.49665616841E+01  0.50528843001E+02  0.29999948785E+02 0.  0.
        -12    1    1    2    0    0  0.63591711168E+01 -0.39850486266E+02  0.49665616841E+01  0.40659156999E+02  0.00000000000E+00 0.  1.
         11    1    3    3    0    0  0.69544814745E+01  0.20740091333E+01 -0.59897359965E+01  0.94097430376E+01  0.51100000000E-03 0. -1.
        -11    1    3    3    0    0 -0.47671352423E+01  0.59621448001E+01  0.27948419570E+01  0.81291998906E+01  0.51100000000E-03 0.  1.
         12    1    3    3    0    0 -0.85465173490E+01  0.31814332333E+02 -0.17716676446E+01  0.32989900073E+02  0.00000000000E+00 0. -1.
</event>
<event>
 7    1  0.5525118E-011  0.5052886E+02  0.7816164E-02  0.1300439E+00
        -11   -1    0    0    0    0  0.00000000000E+00  0.00000000000E+00  0.45593999997E+02  0.45594000000E+02  0.51100000000E-03 0.  1.
         11   -1    0    0    0    0 -0.00000000000E+00 -0.00000000000E+00 -0.45593999997E+02  0.45594000000E+02  0.51100000000E-03 0. -1.
    9900012    2    1    2    0    0 -0.79122296617E+01 -0.45966988807E+01 -0.39616064949E+02  0.50528860549E+02  0.30000002125E+02 0.  0.
        -12    1    1    2    0    0  0.79122296617E+01  0.45966988807E+01  0.39616064949E+02  0.40659139451E+02  0.00000000000E+00 0.  1.
         11    1    3    3    0    0 -0.37485223278E+01  0.31886322834E+01 -0.23857844872E+02  0.24360122283E+02  0.51100000000E-03 0. -1.
        -11    1    3    3    0    0 -0.80157225593E+01 -0.95533353164E+01 -0.17581179080E+02  0.21554950288E+02  0.51100000000E-03 0.  1.
         12    1    3    3    0    0  0.38520152254E+01  0.17680041523E+01  0.18229590022E+01  0.46137879777E+01  0.00000000000E+00 0. -1.
</event>
<event>
 7    1  0.5525118E-011  0.5052885E+02  0.7816164E-02  0.1300439E+00
        -11   -1    0    0    0    0  0.00000000000E+00  0.00000000000E+00  0.45593999997E+02  0.45594000000E+02  0.51100000000E-03 0.  1.
         11   -1    0    0    0    0 -0.00000000000E+00 -0.00000000000E+00 -0.45593999997E+02  0.45594000000E+02  0.51100000000E-03 0. -1.
    9900012    2    1    2    0    0 -0.77531529784E+01 -0.48737437474E+01 -0.39614410054E+02  0.50528852897E+02  0.29999978865E+02 0.  0.
        -12    1    1    2    0    0  0.77531529784E+01  0.48737437474E+01  0.39614410054E+02  0.40659147103E+02  0.00000000000E+00 0.  1.
         11    1    3    3    0    0 -0.67758641285E+01  0.69532283809E+01 -0.11156263319E+02  0.14789250525E+02  0.51100000000E-03 0. -1.
        -11    1    3    3    0    0 -0.11259169300E+01 -0.13445102524E+02 -0.90107309881E+01  0.16224418141E+02  0.51100000000E-03 0.  1.
         12    1    3    3    0    0  0.14862808010E+00  0.16181303958E+01 -0.19447415747E+02  0.19515184230E+02  0.00000000000E+00 0. -1.
</event>
<event>
 7    1  0.5525118E-011  0.5052886E+02  0.7816164E-02  0.1300439E+00
        -11   -1    0    0    0    0  0.00000000000E+00  0.00000000000E+00  0.45593999997E+02  0.45594000000E+02  0.51100000000E-03 0. -1.
         11   -1    0    0    0    0 -0.00000000000E+00 -0.00000000000E+00 -0.45593999997E+02  0.45594000000E+02  0.51100000000E-03 0.  1.
    9900012    2    1    2    0    0 -0.28938387125E+01 -0.33487371188E+02  0.22877662992E+02  0.50528858401E+02  0.29999995596E+02 0.  0.
        -12    1    1    2    0    0  0.28938387125E+01  0.33487371188E+02 -0.22877662992E+02  0.40659141599E+02  0.00000000000E+00 0.  1.
         11    1    3    3    0    0 -0.10561906423E+01 -0.37136171063E+02  0.17643306350E+02  0.41127812963E+02  0.51100000000E-03 0. -1.
        -11    1    3    3    0    0 -0.33420089190E+01 -0.39758125724E+00  0.14671522766E+01  0.36714616346E+01  0.51100000000E-03 0.  1.
         12    1    3    3    0    0  0.15043608488E+01  0.40463811323E+01  0.37672043655E+01  0.57295838037E+01  0.00000000000E+00 0. -1.
</event>
<event>
 7    1  0.5525118E-011  0.5052886E+02  0.7816164E-02  0.1300439E+00
        -11   -1    0    0    0    0  0.00000000000E+00  0.00000000000E+00  0.45593999997E+02  0.45594000000E+02  0.51100000000E-03 0.  1.
         11   -1    0    0    0    0 -0.00000000000E+00 -0.00000000000E+00 -0.45593999997E+02  0.45594000000E+02  0.51100000000E-03 0. -1.
    9900012    2    1    2    0    0  0.24068976083E+02 -0.28480343969E+02 -0.16208635436E+02  0.50528862466E+02  0.30000007951E+02 0.  0.
        -12    1    1    2    0    0 -0.24068976083E+02  0.28480343969E+02  0.16208635436E+02  0.40659137534E+02  0.00000000000E+00 0.  1.
         11    1    3    3    0    0  0.27589597533E+02 -0.19247575647E+02 -0.14320297420E+02  0.36561263365E+02  0.51100000000E-03 0. -1.
        -11    1    3    3    0    0 -0.15406355787E+01 -0.64462142879E+01 -0.57755528728E+01  0.87911459935E+01  0.51100000000E-03 0.  1.
         12    1    3    3    0    0 -0.19799858713E+01 -0.27865540339E+01  0.38872148567E+01  0.51764531077E+01  0.00000000000E+00 0. -1.
</event>
<event>
 7    1  0.5525118E-011  0.5052886E+02  0.7816164E-02  0.1300439E+00
        -11   -1    0    0    0    0  0.00000000000E+00  0.00000000000E+00  0.45593999997E+02  0.45594000000E+02  0.51100000000E-03 0.  1.
         11   -1    0    0    0    0 -0.00000000000E+00 -0.00000000000E+00 -0.45593999997E+02  0.45594000000E+02  0.51100000000E-03 0. -1.
    9900012    2    1    2    0    0  0.80129661179E+01 -0.38626865933E+02 -0.98449457781E+01  0.50528863817E+02  0.30000012057E+02 0.  0.
        -12    1    1    2    0    0 -0.80129661179E+01  0.38626865933E+02  0.98449457781E+01  0.40659136183E+02  0.00000000000E+00 0.  1.
         11    1    3    3    0    0 -0.23690237548E+01 -0.14523644167E+02  0.75901786254E+01  0.16557757254E+02  0.51100000000E-03 0. -1.
        -11    1    3    3    0    0  0.12482948191E+02 -0.13834884474E+02 -0.10292259622E+02  0.21287522926E+02  0.51100000000E-03 0.  1.
        -12    1    3    3    0    0 -0.21009583181E+01 -0.10268337292E+02 -0.71428647812E+01  0.12683583637E+02  0.00000000000E+00 0.  1.
</event>
<event>
 7    1  0.5525118E-011  0.5052886E+02  0.7816164E-02  0.1300439E+00
        -11   -1    0    0    0    0  0.00000000000E+00  0.00000000000E+00  0.45593999997E+02  0.45594000000E+02  0.51100000000E-03 0. -1.
         11   -1    0    0    0    0 -0.00000000000E+00 -0.00000000000E+00 -0.45593999997E+02  0.45594000000E+02  0.51100000000E-03 0.  1.
    9900012    2    1    2    0    0  0.15867371818E+02 -0.23033859457E+02  0.29509891117E+02  0.50528857810E+02  0.29999993799E+02 0.  0.
        -12    1    1    2    0    0 -0.15867371818E+02  0.23033859457E+02 -0.29509891117E+02  0.40659142190E+02  0.00000000000E+00 0.  1.
         11    1    3    3    0    0  0.66733065088E+01  0.39157796625E+01  0.17193379351E+02  0.18854141293E+02  0.51100000000E-03 0. -1.
        -11    1    3    3    0    0  0.36050231631E+01 -0.19545038617E+02  0.77216284339E+01  0.21322013800E+02  0.51100000000E-03 0.  1.
         12    1    3    3    0    0  0.55890421458E+01 -0.74046005022E+01  0.45948833319E+01  0.10352702717E+02  0.00000000000E+00 0. -1.
</event>
<event>
 7    1  0.5525118E-011  0.5052886E+02  0.7816164E-02  0.1300439E+00
        -11   -1    0    0    0    0  0.00000000000E+00  0.00000000000E+00  0.45593999997E+02  0.45594000000E+02  0.51100000000E-03 0.  1.
         11   -1    0    0    0    0 -0.00000000000E+00 -0.00000000000E+00 -0.45593999997E+02  0.45594000000E+02  0.51100000000E-03 0. -1.
    9900012    2    1    2    0    0 -0.33999874574E+02  0.15538132154E+02 -0.15991888309E+02  0.50528861868E+02  0.30000006135E+02 0.  0.
        -12    1    1    2    0    0  0.33999874574E+02 -0.15538132154E+02  0.15991888309E+02  0.40659138132E+02  0.00000000000E+00 0.  1.
         11    1    3    3    0    0  0.68591876885E+00 -0.60212638629E+01 -0.16816087876E+01  0.62891900464E+01  0.51100000000E-03 0.  1.
        -11    1    3    3    0    0 -0.33374949611E+02  0.17819534799E+02 -0.12216309903E+02  0.39757531487E+02  0.51100000000E-03 0. -1.
        -12    1    3    3    0    0 -0.13108437316E+01  0.37398612184E+01 -0.20939696188E+01  0.44821403354E+01  0.00000000000E+00 0.  1.
</event>
<event>
 7    1  0.5525118E-011  0.5052887E+02  0.7816164E-02  0.1300439E+00
        -11   -1    0    0    0    0  0.00000000000E+00  0.00000000000E+00  0.45593999997E+02  0.45594000000E+02  0.51100000000E-03 0. -1.
         11   -1    0    0    0    0 -0.00000000000E+00 -0.00000000000E+00 -0.45593999997E+02  0.45594000000E+02  0.51100000000E-03 0.  1.
    9900012    2    1    2    0    0  0.26612947562E+02 -0.28249543014E+02  0.12119370586E+02  0.50528870621E+02  0.30000032741E+02 0.  0.
        -12    1    1    2    0    0 -0.26612947562E+02  0.28249543014E+02 -0.12119370586E+02  0.40659129379E+02  0.00000000000E+00 0.  1.
         11    1    3    3    0    0  0.35980591941E+01 -0.15100167359E+02  0.76508218682E+01  0.17305957348E+02  0.51100000000E-03 0. -1.
        -11    1    3    3    0    0  0.23625751600E+02 -0.68023184217E+01 -0.13062648678E+01  0.24620195019E+02  0.51100000000E-03 0.  1.
        -12    1    3    3    0    0 -0.61086323264E+00 -0.63470572336E+01  0.57748135854E+01  0.86027182543E+01  0.00000000000E+00 0.  1.
</event>
<event>
 7    1  0.5525118E-011  0.5052886E+02  0.7816164E-02  0.1300439E+00
        -11   -1    0    0    0    0  0.00000000000E+00  0.00000000000E+00  0.45593999997E+02  0.45594000000E+02  0.51100000000E-03 0.  1.
         11   -1    0    0    0    0 -0.00000000000E+00 -0.00000000000E+00 -0.45593999997E+02  0.45594000000E+02  0.51100000000E-03 0. -1.
    9900012    2    1    2    0    0 -0.36174046833E+02 -0.17190217134E+02  0.70071849306E+01  0.50528857486E+02  0.29999992813E+02 0.  0.
        -12    1    1    2    0    0  0.36174046833E+02  0.17190217134E+02 -0.70071849306E+01  0.40659142514E+02  0.00000000000E+00 0.  1.
         11    1    3    3    0    0 -0.55261203319E+01 -0.77814472208E+01 -0.83426357876E+01  0.12676296735E+02  0.51100000000E-03 0. -1.
        -11    1    3    3    0    0 -0.39208526271E+01 -0.73966783102E+00  0.77948891575E+01  0.87567397508E+01  0.51100000000E-03 0.  1.
         12    1    3    3    0    0 -0.26727073874E+02 -0.86691020818E+01  0.75549315606E+01  0.29095821000E+02  0.00000000000E+00 0. -1.
</event>
<event>
 7    1  0.5525118E-011  0.5052886E+02  0.7816164E-02  0.1300439E+00
        -11   -1    0    0    0    0  0.00000000000E+00  0.00000000000E+00  0.45593999997E+02  0.45594000000E+02  0.51100000000E-03 0.  1.
         11   -1    0    0    0    0 -0.00000000000E+00 -0.00000000000E+00 -0.45593999997E+02  0.45594000000E+02  0.51100000000E-03 0. -1.
    9900012    2    1    2    0    0  0.28264611402E+02  0.27678767934E+02 -0.93895416123E+01  0.50528856579E+02  0.29999990057E+02 0.  0.
        -12    1    1    2    0    0 -0.28264611402E+02 -0.27678767934E+02  0.93895416123E+01  0.40659143421E+02  0.00000000000E+00 0.  1.
         11    1    3    3    0    0  0.21563675030E+02  0.36452512623E+01 -0.39540952806E+01  0.22224194188E+02  0.51100000000E-03 0. -1.
        -11    1    3    3    0    0  0.43351770584E+01  0.18235024119E+02  0.16887980301E+01  0.18819189776E+02  0.51100000000E-03 0.  1.
         12    1    3    3    0    0  0.23657593136E+01  0.57984925520E+01 -0.71242443618E+01  0.94854726151E+01  0.00000000000E+00 0. -1.
</event>
<event>
 7    1  0.5525118E-011  0.5052887E+02  0.7816164E-02  0.1300439E+00
        -11   -1    0    0    0    0  0.00000000000E+00  0.00000000000E+00  0.45593999997E+02  0.45594000000E+02  0.51100000000E-03 0.  1.
         11   -1    0    0    0    0 -0.00000000000E+00 -0.00000000000E+00 -0.45593999997E+02  0.45594000000E+02  0.51100000000E-03 0. -1.
    9900012    2    1    2    0    0 -0.20044315642E+02 -0.93056834901E+00 -0.35362756662E+02  0.50528866884E+02  0.30000021380E+02 0.  0.
        -12    1    1    2    0    0  0.20044315642E+02  0.93056834901E+00  0.35362756662E+02  0.40659133116E+02  0.00000000000E+00 0.  1.
         11    1    3    3    0    0 -0.29113114302E+00  0.57260630803E+01 -0.12874727827E+02  0.14093657177E+02  0.51100000000E-03 0. -1.
        -11    1    3    3    0    0 -0.15874467076E+02 -0.12812183104E+02 -0.20437015602E+02  0.28875982196E+02  0.51100000000E-03 0.  1.
        -12    1    3    3    0    0 -0.38787174233E+01  0.61555516746E+01 -0.20510132330E+01  0.75592275102E+01  0.00000000000E+00 0.  1.
</event>
<event>
 7    1  0.5525118E-011  0.5052884E+02  0.7816164E-02  0.1300439E+00
        -11   -1    0    0    0    0  0.00000000000E+00  0.00000000000E+00  0.45593999997E+02  0.45594000000E+02  0.51100000000E-03 0. -1.
         11   -1    0    0    0    0 -0.00000000000E+00 -0.00000000000E+00 -0.45593999997E+02  0.45594000000E+02  0.51100000000E-03 0.  1.
    9900012    2    1    2    0    0 -0.14715365601E+02  0.37351630076E+02  0.64405887209E+01  0.50528838213E+02  0.29999934233E+02 0.  0.
        -12    1    1    2    0    0  0.14715365601E+02 -0.37351630076E+02 -0.64405887209E+01  0.40659161787E+02  0.00000000000E+00 0.  1.
         11    1    3    3    0    0 -0.13467941591E+02  0.20637315043E+02  0.34488292068E+01  0.24883300546E+02  0.51100000000E-03 0. -1.
        -11    1    3    3    0    0 -0.12708401455E+01 -0.20824882383E+01  0.61216951673E+01  0.65899122847E+01  0.51100000000E-03 0.  1.
         12    1    3    3    0    0  0.23416135700E-01  0.18796803271E+02 -0.31299356533E+01  0.19055625383E+02  0.00000000000E+00 0. -1.
</event>
<event>
 7    1  0.5525118E-011  0.5052886E+02  0.7816164E-02  0.1300439E+00
        -11   -1    0    0    0    0  0.00000000000E+00  0.00000000000E+00  0.45593999997E+02  0.45594000000E+02  0.51100000000E-03 0. -1.
         11   -1    0    0    0    0 -0.00000000000E+00 -0.00000000000E+00 -0.45593999997E+02  0.45594000000E+02  0.51100000000E-03 0.  1.
    9900012    2    1    2    0    0 -0.22355542660E+02 -0.33928031985E+02  0.15111809248E+01  0.50528864375E+02  0.30000013755E+02 0.  0.
        -12    1    1    2    0    0  0.22355542660E+02  0.33928031985E+02 -0.15111809248E+01  0.40659135625E+02  0.00000000000E+00 0.  1.
         11    1    3    3    0    0 -0.67971025017E+01 -0.47716618460E+01 -0.11331848227E+02  0.14049204379E+02  0.51100000000E-03 0.  1.
        -11    1    3    3    0    0 -0.14236127182E+02 -0.29515763836E+02  0.12213148250E+02  0.34971540178E+02  0.51100000000E-03 0. -1.
         12    1    3    3    0    0 -0.13223129763E+01  0.35939369731E+00  0.62988090162E+00  0.15081198185E+01  0.00000000000E+00 0. -1.
</event>
<event>
 7    1  0.5525118E-011  0.5052885E+02  0.7816164E-02  0.1300439E+00
        -11   -1    0    0    0    0  0.00000000000E+00  0.00000000000E+00  0.45593999997E+02  0.45594000000E+02  0.51100000000E-03 0.  1.
         11   -1    0    0    0    0 -0.00000000000E+00 -0.00000000000E+00 -0.45593999997E+02  0.45594000000E+02  0.51100000000E-03 0. -1.
    9900012    2    1    2    0    0  0.18590563891E+02 -0.38748656402E+01 -0.35951954565E+02  0.50528847444E+02  0.29999962290E+02 0.  0.
        -12    1    1    2    0    0 -0.18590563891E+02  0.38748656402E+01  0.35951954565E+02  0.40659152556E+02  0.00000000000E+00 0.  1.
         11    1    3    3    0    0  0.20503535776E+01  0.98824576745E+01 -0.19824486983E+02  0.22245835652E+02  0.51100000000E-03 0. -1.
        -11    1    3    3    0    0  0.77925773113E+01 -0.15495715648E+01 -0.76882581319E+01  0.11055982387E+02  0.51100000000E-03 0.  1.
         12    1    3    3    0    0  0.87476330025E+01 -0.12207751750E+02 -0.84392094508E+01  0.17227029404E+02  0.00000000000E+00 0. -1.
</event>
<event>
 7    1  0.6450685E-011  0.5052886E+02  0.7816164E-02  0.1300439E+00
        -11   -1    0    0    0    0  0.00000000000E+00  0.00000000000E+00  0.45593999997E+02  0.45594000000E+02  0.51100000000E-03 0.  1.
         11   -1    0    0    0    0 -0.00000000000E+00 -0.00000000000E+00 -0.45593999997E+02  0.45594000000E+02  0.51100000000E-03 0. -1.
    9900012    2    1    2    0    0 -0.75901863456E+01  0.36964344862E+02 -0.15139088690E+02  0.50528859254E+02  0.29999998188E+02 0.  0.
        -12    1    1    2    0    0  0.75901863456E+01 -0.36964344862E+02  0.15139088690E+02  0.40659140746E+02  0.00000000000E+00 0.  1.
         11    1    3    3    0    0 -0.28335272309E+01  0.10319006093E+02 -0.92980061560E+01  0.14176165986E+02  0.51100000000E-03 0. -1.
        -11    1    3    3    0    0 -0.91240193565E+01  0.23439476757E+02  0.36579757008E+01  0.25417269451E+02  0.51100000000E-03 0.  1.
        -12    1    3    3    0    0  0.43673602418E+01  0.32058620128E+01 -0.94990582345E+01  0.10935423818E+02  0.00000000000E+00 0.  1.
</event>
<event>
 7    1  0.5525118E-011  0.5052886E+02  0.7816164E-02  0.1300439E+00
        -11   -1    0    0    0    0  0.00000000000E+00  0.00000000000E+00  0.45593999997E+02  0.45594000000E+02  0.51100000000E-03 0. -1.
         11   -1    0    0    0    0 -0.00000000000E+00 -0.00000000000E+00 -0.45593999997E+02  0.45594000000E+02  0.51100000000E-03 0.  1.
    9900012    2    1    2    0    0  0.26238297429E+02  0.31001932754E+02  0.18967673147E+01  0.50528858190E+02  0.29999994955E+02 0.  0.
        -12    1    1    2    0    0 -0.26238297429E+02 -0.31001932754E+02 -0.18967673147E+01  0.40659141810E+02  0.00000000000E+00 0.  1.
         11    1    3    3    0    0  0.12523704684E+01 -0.11043399611E+01  0.31092448858E+00  0.16984324651E+01  0.51100000000E-03 0. -1.
        -11    1    3    3    0    0  0.29742191403E+02  0.23723232024E+02 -0.29883284225E+01  0.38161758269E+02  0.51100000000E-03 0.  1.
        -12    1    3    3    0    0 -0.47562644430E+01  0.83830406913E+01  0.45741712486E+01  0.10668667456E+02  0.00000000000E+00 0.  1.
</event>
<event>
 7    1  0.5525118E-011  0.5052886E+02  0.7816164E-02  0.1300439E+00
        -11   -1    0    0    0    0  0.00000000000E+00  0.00000000000E+00  0.45593999997E+02  0.45594000000E+02  0.51100000000E-03 0. -1.
         11   -1    0    0    0    0 -0.00000000000E+00 -0.00000000000E+00 -0.45593999997E+02  0.45594000000E+02  0.51100000000E-03 0.  1.
    9900012    2    1    2    0    0 -0.74626936078E+01  0.38255857178E+02  0.11574233596E+02  0.50528864647E+02  0.30000014582E+02 0.  0.
        -12    1    1    2    0    0  0.74626936078E+01 -0.38255857178E+02 -0.11574233596E+02  0.40659135353E+02  0.00000000000E+00 0.  1.
         11    1    3    3    0    0 -0.15637059377E+02  0.24391840477E+02  0.14212608598E+02  0.32271934420E+02  0.51100000000E-03 0. -1.
        -11    1    3    3    0    0  0.46582893543E+01  0.23345372318E+01 -0.33294382256E+01  0.61834361769E+01  0.51100000000E-03 0.  1.
         12    1    3    3    0    0  0.35160764155E+01  0.11529479469E+02  0.69106322398E+00  0.12073494050E+02  0.00000000000E+00 0. -1.
</event>
<event>
 7    1  0.5525118E-011  0.5052887E+02  0.7816164E-02  0.1300439E+00
        -11   -1    0    0    0    0  0.00000000000E+00  0.00000000000E+00  0.45593999997E+02  0.45594000000E+02  0.51100000000E-03 0.  1.
         11   -1    0    0    0    0 -0.00000000000E+00 -0.00000000000E+00 -0.45593999997E+02  0.45594000000E+02  0.51100000000E-03 0. -1.
    9900012    2    1    2    0    0  0.30447065244E+02  0.22573917991E+02 -0.14715959499E+02  0.50528867945E+02  0.30000024606E+02 0.  0.
        -12    1    1    2    0    0 -0.30447065244E+02 -0.22573917991E+02  0.14715959499E+02  0.40659132055E+02  0.00000000000E+00 0.  1.
         11    1    3    3    0    0 -0.19381571087E-01  0.26806762416E+01 -0.58841844043E+01  0.64660673614E+01  0.51100000000E-03 0. -1.
        -11    1    3    3    0    0  0.20189339139E+02  0.23725329745E+02 -0.21665231431E+01  0.31228104476E+02  0.51100000000E-03 0.  1.
        -12    1    3    3    0    0  0.10277107677E+02 -0.38320879953E+01 -0.66652519518E+01  0.12834696108E+02  0.00000000000E+00 0.  1.
</event>
<event>
 7    1  0.5525118E-011  0.5052886E+02  0.7816164E-02  0.1300439E+00
        -11   -1    0    0    0    0  0.00000000000E+00  0.00000000000E+00  0.45593999997E+02  0.45594000000E+02  0.51100000000E-03 0.  1.
         11   -1    0    0    0    0 -0.00000000000E+00 -0.00000000000E+00 -0.45593999997E+02  0.45594000000E+02  0.51100000000E-03 0. -1.
    9900012    2    1    2    0    0 -0.10959935355E+02 -0.94365455896E+01 -0.37999963356E+02  0.50528858461E+02  0.29999995777E+02 0.  0.
        -12    1    1    2    0    0  0.10959935355E+02  0.94365455896E+01  0.37999963356E+02  0.40659141539E+02  0.00000000000E+00 0.  1.
         11    1    3    3    0    0 -0.14822321854E+02 -0.37127223385E+01 -0.13162476452E+02  0.20167704850E+02  0.51100000000E-03 0. -1.
        -11    1    3    3    0    0  0.63790051048E+01  0.35047461044E+01 -0.68829872253E+01  0.10017507913E+02  0.51100000000E-03 0.  1.
         12    1    3    3    0    0 -0.25166186058E+01 -0.92285693555E+01 -0.17954499679E+02  0.20343645698E+02  0.00000000000E+00 0. -1.
</event>
<event>
 7    1  0.5525118E-011  0.5052886E+02  0.7816164E-02  0.1300439E+00
        -11   -1    0    0    0    0  0.00000000000E+00  0.00000000000E+00  0.45593999997E+02  0.45594000000E+02  0.51100000000E-03 0. -1.
         11   -1    0    0    0    0 -0.00000000000E+00 -0.00000000000E+00 -0.45593999997E+02  0.45594000000E+02  0.51100000000E-03 0.  1.
    9900012    2    1    2    0    0 -0.28970287626E+02 -0.19140816531E+02  0.21154596207E+02  0.50528863717E+02  0.30000011753E+02 0.  0.
        -12    1    1    2    0    0  0.28970287626E+02  0.19140816531E+02 -0.21154596207E+02  0.40659136283E+02  0.00000000000E+00 0.  1.
         11    1    3    3    0    0 -0.19248965680E+02 -0.56717620073E+01  0.24495797547E+02  0.31666001670E+02  0.51100000000E-03 0. -1.
        -11    1    3    3    0    0 -0.11417446136E+01 -0.85231954679E+01 -0.23231498085E+01  0.89076072567E+01  0.51100000000E-03 0.  1.
         12    1    3    3    0    0 -0.85795773328E+01 -0.49458590562E+01 -0.10180515321E+01  0.99552547901E+01  0.00000000000E+00 0. -1.
</event>
<event>
 7    1  0.5525118E-011  0.5052886E+02  0.7816164E-02  0.1300439E+00
        -11   -1    0    0    0    0  0.00000000000E+00  0.00000000000E+00  0.45593999997E+02  0.45594000000E+02  0.51100000000E-03 0.  1.
         11   -1    0    0    0    0 -0.00000000000E+00 -0.00000000000E+00 -0.45593999997E+02  0.45594000000E+02  0.51100000000E-03 0. -1.
    9900012    2    1    2    0    0  0.38587771675E+02 -0.11570963288E+02  0.55010858817E+01  0.50528864985E+02  0.30000015609E+02 0.  0.
        -12    1    1    2    0    0 -0.38587771675E+02  0.11570963288E+02 -0.55010858817E+01  0.40659135015E+02  0.00000000000E+00 0.  1.
         11    1    3    3    0    0 -0.24234967330E+01 -0.72899112214E+01  0.19955705981E+01  0.79371559329E+01  0.51100000000E-03 0. -1.
        -11    1    3    3    0    0  0.15635325702E+02 -0.65029518220E+01  0.23106810409E+01  0.17090671120E+02  0.51100000000E-03 0.  1.
         12    1    3    3    0    0  0.25375942706E+02  0.22218997551E+01  0.11948342427E+01  0.25501037932E+02  0.00000000000E+00 0. -1.
</event>
<event>
 7    1  0.5525118E-011  0.5052887E+02  0.7816164E-02  0.1300439E+00
        -11   -1    0    0    0    0  0.00000000000E+00  0.00000000000E+00  0.45593999997E+02  0.45594000000E+02  0.51100000000E-03 0.  1.
         11   -1    0    0    0    0 -0.00000000000E+00 -0.00000000000E+00 -0.45593999997E+02  0.45594000000E+02  0.51100000000E-03 0. -1.
    9900012    2    1    2    0    0  0.16386136731E+02 -0.19059000566E+02 -0.31959571619E+02  0.50528865754E+02  0.30000017947E+02 0.  0.
        -12    1    1    2    0    0 -0.16386136731E+02  0.19059000566E+02  0.31959571619E+02  0.40659134246E+02  0.00000000000E+00 0.  1.
         11    1    3    3    0    0  0.58110040790E+01 -0.13335320403E+01 -0.18391381908E+02  0.19333623687E+02  0.51100000000E-03 0. -1.
        -11    1    3    3    0    0  0.21454056968E+00 -0.16406575761E+02 -0.12635724481E+02  0.20709497563E+02  0.51100000000E-03 0.  1.
        -12    1    3    3    0    0  0.10360592082E+02 -0.13188927639E+01 -0.93246522949E+00  0.10485744505E+02  0.00000000000E+00 0.  1.
</event>
<event>
 7    1  0.5525118E-011  0.5052887E+02  0.7816164E-02  0.1300439E+00
        -11   -1    0    0    0    0  0.00000000000E+00  0.00000000000E+00  0.45593999997E+02  0.45594000000E+02  0.51100000000E-03 0.  1.
         11   -1    0    0    0    0 -0.00000000000E+00 -0.00000000000E+00 -0.45593999997E+02  0.45594000000E+02  0.51100000000E-03 0. -1.
    9900012    2    1    2    0    0 -0.18576781006E+01  0.36493258714E+02 -0.17831325356E+02  0.50528867405E+02  0.30000022964E+02 0.  0.
        -12    1    1    2    0    0  0.18576781006E+01 -0.36493258714E+02  0.17831325356E+02  0.40659132595E+02  0.00000000000E+00 0.  1.
         11    1    3    3    0    0 -0.31739914685E+01  0.69044160937E+01 -0.17571403440E+02  0.19144174115E+02  0.51100000000E-03 0. -1.
        -11    1    3    3    0    0  0.29078615651E+01  0.45343013079E+01  0.28392550014E+01  0.60890817417E+01  0.51100000000E-03 0.  1.
         12    1    3    3    0    0 -0.15915481972E+01  0.25054541312E+02 -0.30991769166E+01  0.25295611548E+02  0.00000000000E+00 0. -1.
</event>
<event>
 7    1  0.5525118E-011  0.5052888E+02  0.7816164E-02  0.1300439E+00
        -11   -1    0    0    0    0  0.00000000000E+00  0.00000000000E+00  0.45593999997E+02  0.45594000000E+02  0.51100000000E-03 0. -1.
         11   -1    0    0    0    0 -0.00000000000E+00 -0.00000000000E+00 -0.45593999997E+02  0.45594000000E+02  0.51100000000E-03 0.  1.
    9900012    2    1    2    0    0  0.21567772510E+02 -0.21162935144E+01  0.34402280313E+02  0.50528875563E+02  0.30000047761E+02 0.  0.
        -12    1    1    2    0    0 -0.21567772510E+02  0.21162935144E+01 -0.34402280313E+02  0.40659124437E+02  0.00000000000E+00 0.  1.
         11    1    3    3    0    0  0.15195933887E+02  0.73116529670E+01  0.10743526561E+02  0.19995000351E+02  0.51100000000E-03 0. -1.
        -11    1    3    3    0    0  0.37215721470E+01 -0.52382374700E+01  0.66136516319E-01  0.64260100636E+01  0.51100000000E-03 0.  1.
         12    1    3    3    0    0  0.26502664753E+01 -0.41897090113E+01  0.23592617235E+02  0.24107865148E+02  0.00000000000E+00 0. -1.
</event>
<event>
 7    1  0.5525118E-011  0.5052886E+02  0.7816164E-02  0.1300439E+00
        -11   -1    0    0    0    0  0.00000000000E+00  0.00000000000E+00  0.45593999997E+02  0.45594000000E+02  0.51100000000E-03 0.  1.
         11   -1    0    0    0    0 -0.00000000000E+00 -0.00000000000E+00 -0.45593999997E+02  0.45594000000E+02  0.51100000000E-03 0. -1.
    9900012    2    1    2    0    0 -0.79997565261E+01  0.29077241977E+02 -0.27270565902E+02  0.50528857485E+02  0.29999992811E+02 0.  0.
        -12    1    1    2    0    0  0.79997565261E+01 -0.29077241977E+02  0.27270565902E+02  0.40659142515E+02  0.00000000000E+00 0.  1.
         11    1    3    3    0    0 -0.27009066046E+01  0.29431877643E+02 -0.23156288912E+02  0.37546558224E+02  0.51100000000E-03 0. -1.
        -11    1    3    3    0    0  0.33893209904E+01  0.39778396751E+00 -0.18589375207E+00  0.34176432829E+01  0.51100000000E-03 0.  1.
         12    1    3    3    0    0 -0.86881709120E+01 -0.75241963345E+00 -0.39283832381E+01  0.95646559774E+01  0.00000000000E+00 0. -1.
</event>
<event>
 7    1  0.5525118E-011  0.5052892E+02  0.7816164E-02  0.1300439E+00
        -11   -1    0    0    0    0  0.00000000000E+00  0.00000000000E+00  0.45593999997E+02  0.45594000000E+02  0.51100000000E-03 0.  1.
         11   -1    0    0    0    0 -0.00000000000E+00 -0.00000000000E+00 -0.45593999997E+02  0.45594000000E+02  0.51100000000E-03 0. -1.
    9900012    2    1    2    0    0  0.91458078126E+01  0.26558625935E+02 -0.29396497951E+02  0.50528923474E+02  0.30000193392E+02 0.  0.
        -12    1    1    2    0    0 -0.91458078126E+01 -0.26558625935E+02  0.29396497951E+02  0.40659076526E+02  0.00000000000E+00 0.  1.
         11    1    3    3    0    0 -0.28448208145E+01  0.16183873230E+02 -0.28046086885E+02  0.32505288001E+02  0.51100000000E-03 0. -1.
        -11    1    3    3    0    0  0.96400880664E+01  0.96878094128E+01 -0.41701183314E+01  0.14288976041E+02  0.51100000000E-03 0.  1.
         12    1    3    3    0    0  0.23505405608E+01  0.68694329208E+00  0.28197072649E+01  0.37346594322E+01  0.00000000000E+00 0. -1.
</event>
<event>
 7    1  0.5525118E-011  0.5052886E+02  0.7816164E-02  0.1300439E+00
        -11   -1    0    0    0    0  0.00000000000E+00  0.00000000000E+00  0.45593999997E+02  0.45594000000E+02  0.51100000000E-03 0. -1.
         11   -1    0    0    0    0 -0.00000000000E+00 -0.00000000000E+00 -0.45593999997E+02  0.45594000000E+02  0.51100000000E-03 0.  1.
    9900012    2    1    2    0    0  0.37609318513E+02  0.10828286895E+02  0.11020581820E+02  0.50528857611E+02  0.29999993195E+02 0.  0.
        -12    1    1    2    0    0 -0.37609318513E+02 -0.10828286895E+02 -0.11020581820E+02  0.40659142389E+02  0.00000000000E+00 0.  1.
         11    1    3    3    0    0  0.15480522344E+02 -0.23996743082E+01  0.15493130350E+02  0.22032750558E+02  0.51100000000E-03 0. -1.
        -11    1    3    3    0    0  0.13351402484E+01  0.48895671713E-01 -0.36247659882E+01  0.38631488452E+01  0.51100000000E-03 0.  1.
         12    1    3    3    0    0  0.20793655921E+02  0.13179065532E+02 -0.84778254191E+00  0.24632958209E+02  0.00000000000E+00 0. -1.
</event>
<event>
 7    1  0.5525118E-011  0.5052886E+02  0.7816164E-02  0.1300439E+00
        -11   -1    0    0    0    0  0.00000000000E+00  0.00000000000E+00  0.45593999997E+02  0.45594000000E+02  0.51100000000E-03 0. -1.
         11   -1    0    0    0    0 -0.00000000000E+00 -0.00000000000E+00 -0.45593999997E+02  0.45594000000E+02  0.51100000000E-03 0.  1.
    9900012    2    1    2    0    0 -0.17322687057E+02  0.36784059054E+02 -0.15215991799E+00  0.50528860314E+02  0.30000001410E+02 0.  0.
        -12    1    1    2    0    0  0.17322687057E+02 -0.36784059054E+02  0.15215991799E+00  0.40659139686E+02  0.00000000000E+00 0.  1.
         11    1    3    3    0    0 -0.13893484764E+02  0.66693633941E+01 -0.10027563824E+02  0.18386445102E+02  0.51100000000E-03 0. -1.
        -11    1    3    3    0    0 -0.14618773146E+01  0.21024734145E+02  0.85680475339E+01  0.22750559772E+02  0.51100000000E-03 0.  1.
         12    1    3    3    0    0 -0.19673249781E+01  0.90899615151E+01  0.13073563717E+01  0.93918554396E+01  0.00000000000E+00 0. -1.
</event>
<event>
 7    1  0.5525118E-011  0.5052887E+02  0.7816164E-02  0.1300439E+00
        -11   -1    0    0    0    0  0.00000000000E+00  0.00000000000E+00  0.45593999997E+02  0.45594000000E+02  0.51100000000E-03 0. -1.
         11   -1    0    0    0    0 -0.00000000000E+00 -0.00000000000E+00 -0.45593999997E+02  0.45594000000E+02  0.51100000000E-03 0.  1.
    9900012    2    1    2    0    0  0.31616936496E+02  0.24480104522E+02 -0.73660487219E+01  0.50528869850E+02  0.30000030395E+02 0.  0.
        -12    1    1    2    0    0 -0.31616936496E+02 -0.24480104522E+02  0.73660487219E+01  0.40659130150E+02  0.00000000000E+00 0.  1.
         11    1    3    3    0    0  0.28663273328E+02  0.26675263040E+02 -0.91582647763E+01  0.40212270641E+02  0.51100000000E-03 0.  1.
        -11    1    3    3    0    0  0.14565165255E+01 -0.68715667515E+00  0.56702576330E+01  0.58945268318E+01  0.51100000000E-03 0. -1.
         12    1    3    3    0    0  0.14971466426E+01 -0.15080018421E+01 -0.38780415786E+01  0.44220723773E+01  0.00000000000E+00 0. -1.
</event>
<event>
 7    1  0.5525118E-011  0.5052886E+02  0.7816164E-02  0.1300439E+00
        -11   -1    0    0    0    0  0.00000000000E+00  0.00000000000E+00  0.45593999997E+02  0.45594000000E+02  0.51100000000E-03 0.  1.
         11   -1    0    0    0    0 -0.00000000000E+00 -0.00000000000E+00 -0.45593999997E+02  0.45594000000E+02  0.51100000000E-03 0. -1.
    9900012    2    1    2    0    0  0.23257430134E+02  0.10353251331E+02 -0.31702803986E+02  0.50528860190E+02  0.30000001032E+02 0.  0.
        -12    1    1    2    0    0 -0.23257430134E+02 -0.10353251331E+02  0.31702803986E+02  0.40659139810E+02  0.00000000000E+00 0.  1.
         11    1    3    3    0    0  0.77203175244E+01 -0.23455427192E+00 -0.12132724433E+02  0.14382674327E+02  0.51100000000E-03 0. -1.
        -11    1    3    3    0    0  0.15516778626E+01  0.15274956544E+02 -0.12453166350E+02  0.19768999824E+02  0.51100000000E-03 0.  1.
        -12    1    3    3    0    0  0.13985434747E+02 -0.46871509411E+01 -0.71169132028E+01  0.16377186039E+02  0.00000000000E+00 0.  1.
</event>
<event>
 7    1  0.5525118E-011  0.5052886E+02  0.7816164E-02  0.1300439E+00
        -11   -1    0    0    0    0  0.00000000000E+00  0.00000000000E+00  0.45593999997E+02  0.45594000000E+02  0.51100000000E-03 0.  1.
         11   -1    0    0    0    0 -0.00000000000E+00 -0.00000000000E+00 -0.45593999997E+02  0.45594000000E+02  0.51100000000E-03 0. -1.
    9900012    2    1    2    0    0  0.14440528798E+02  0.33906327999E+02 -0.17175501676E+02  0.50528858246E+02  0.29999995126E+02 0.  0.
        -12    1    1    2    0    0 -0.14440528798E+02 -0.33906327999E+02  0.17175501676E+02  0.40659141754E+02  0.00000000000E+00 0.  1.
         11    1    3    3    0    0  0.18735440441E+01  0.22378056879E+01 -0.12602891601E+02  0.12936414440E+02  0.51100000000E-03 0.  1.
        -11    1    3    3    0    0  0.13747427026E+02  0.19736725524E+02  0.16019063463E+01  0.24105936789E+02  0.51100000000E-03 0. -1.
         12    1    3    3    0    0 -0.11804422722E+01  0.11931796786E+02 -0.61745164208E+01  0.13486507018E+02  0.00000000000E+00 0. -1.
</event>
<event>
 7    1  0.5525118E-011  0.5052886E+02  0.7816164E-02  0.1300439E+00
        -11   -1    0    0    0    0  0.00000000000E+00  0.00000000000E+00  0.45593999997E+02  0.45594000000E+02  0.51100000000E-03 0.  1.
         11   -1    0    0    0    0 -0.00000000000E+00 -0.00000000000E+00 -0.45593999997E+02  0.45594000000E+02  0.51100000000E-03 0. -1.
    9900012    2    1    2    0    0  0.23724788913E+02  0.18950846271E+02 -0.27040070338E+02  0.50528860963E+02  0.30000003383E+02 0.  0.
        -12    1    1    2    0    0 -0.23724788913E+02 -0.18950846271E+02  0.27040070338E+02  0.40659139037E+02  0.00000000000E+00 0.  1.
         11    1    3    3    0    0  0.36073714211E+01  0.12145264581E+02 -0.10382123640E+02  0.16380142608E+02  0.51100000000E-03 0. -1.
        -11    1    3    3    0    0  0.16314349932E+02 -0.49893318779E+01 -0.12219808761E+02  0.20985117887E+02  0.51100000000E-03 0.  1.
        -12    1    3    3    0    0  0.38030675598E+01  0.11794913568E+02 -0.44381379367E+01  0.13163600468E+02  0.00000000000E+00 0.  1.
</event>
<event>
 7    1  0.5525118E-011  0.5052886E+02  0.7816164E-02  0.1300439E+00
        -11   -1    0    0    0    0  0.00000000000E+00  0.00000000000E+00  0.45593999997E+02  0.45594000000E+02  0.51100000000E-03 0. -1.
         11   -1    0    0    0    0 -0.00000000000E+00 -0.00000000000E+00 -0.45593999997E+02  0.45594000000E+02  0.51100000000E-03 0.  1.
    9900012    2    1    2    0    0 -0.36026399924E+02 -0.69372947304E+01 -0.17525353936E+02  0.50528861049E+02  0.30000003645E+02 0.  0.
        -12    1    1    2    0    0  0.36026399924E+02  0.69372947304E+01  0.17525353936E+02  0.40659138951E+02  0.00000000000E+00 0.  1.
         11    1    3    3    0    0 -0.21965287516E+02  0.25215470320E+01 -0.10022191262E+02  0.24275015408E+02  0.51100000000E-03 0. -1.
        -11    1    3    3    0    0 -0.74938844782E+01 -0.14817561328E+02 -0.39827314078E+01  0.17075730673E+02  0.51100000000E-03 0.  1.
        -12    1    3    3    0    0 -0.65672279299E+01  0.53587195660E+01 -0.35204312662E+01  0.91781149683E+01  0.00000000000E+00 0.  1.
</event>
<event>
 7    1  0.5525118E-011  0.5052885E+02  0.7816164E-02  0.1300439E+00
        -11   -1    0    0    0    0  0.00000000000E+00  0.00000000000E+00  0.45593999997E+02  0.45594000000E+02  0.51100000000E-03 0.  1.
         11   -1    0    0    0    0 -0.00000000000E+00 -0.00000000000E+00 -0.45593999997E+02  0.45594000000E+02  0.51100000000E-03 0. -1.
    9900012    2    1    2    0    0  0.11877391818E+02 -0.37303857367E+02 -0.10977972246E+02  0.50528854836E+02  0.29999984758E+02 0.  0.
        -12    1    1    2    0    0 -0.11877391818E+02  0.37303857367E+02  0.10977972246E+02  0.40659145164E+02  0.00000000000E+00 0.  1.
         11    1    3    3    0    0  0.10514577792E+02 -0.36323039777E+01 -0.54035116840E+01  0.12367211371E+02  0.51100000000E-03 0. -1.
        -11    1    3    3    0    0  0.54689736217E+01 -0.25628478146E+02  0.21288363018E+01  0.26291833501E+02  0.51100000000E-03 0.  1.
        -12    1    3    3    0    0 -0.41061595954E+01 -0.80430752430E+01 -0.77032968643E+01  0.11869809963E+02  0.00000000000E+00 0.  1.
</event>
<event>
 7    1  0.5525118E-011  0.5052887E+02  0.7816164E-02  0.1300439E+00
        -11   -1    0    0    0    0  0.00000000000E+00  0.00000000000E+00  0.45593999997E+02  0.45594000000E+02  0.51100000000E-03 0. -1.
         11   -1    0    0    0    0 -0.00000000000E+00 -0.00000000000E+00 -0.45593999997E+02  0.45594000000E+02  0.51100000000E-03 0.  1.
    9900012    2    1    2    0    0 -0.18053866422E+02  0.96182458435E+01  0.35138472431E+02  0.50528868299E+02  0.30000025680E+02 0.  0.
        -12    1    1    2    0    0  0.18053866422E+02 -0.96182458435E+01 -0.35138472431E+02  0.40659131701E+02  0.00000000000E+00 0.  1.
         11    1    3    3    0    0 -0.19346389896E+02  0.11182106710E+02  0.17799840676E+02  0.28568455346E+02  0.51100000000E-03 0. -1.
        -11    1    3    3    0    0 -0.16128036938E+01 -0.69568271284E+01  0.73871805690E+01  0.10274678412E+02  0.51100000000E-03 0.  1.
         12    1    3    3    0    0  0.29053271674E+01  0.53929662619E+01  0.99514511860E+01  0.11685734541E+02  0.00000000000E+00 0. -1.
</event>
<event>
 7    1  0.5525118E-011  0.5052886E+02  0.7816164E-02  0.1300439E+00
        -11   -1    0    0    0    0  0.00000000000E+00  0.00000000000E+00  0.45593999997E+02  0.45594000000E+02  0.51100000000E-03 0. -1.
         11   -1    0    0    0    0 -0.00000000000E+00 -0.00000000000E+00 -0.45593999997E+02  0.45594000000E+02  0.51100000000E-03 0.  1.
    9900012    2    1    2    0    0  0.82409794865E+00  0.59664617850E+01  0.40210543871E+02  0.50528860289E+02  0.30000001333E+02 0.  0.
        -12    1    1    2    0    0 -0.82409794865E+00 -0.59664617850E+01 -0.40210543871E+02  0.40659139711E+02  0.00000000000E+00 0.  1.
         11    1    3    3    0    0  0.10016003149E+01  0.10967615284E+02  0.90672835895E+01  0.14265602692E+02  0.51100000000E-03 0. -1.
        -11    1    3    3    0    0  0.68692171783E+01 -0.56935514381E+01  0.26065220143E+02  0.27549925118E+02  0.51100000000E-03 0.  1.
         12    1    3    3    0    0 -0.70467195445E+01  0.69239793954E+00  0.50780401383E+01  0.87133324791E+01  0.00000000000E+00 0. -1.
</event>
<event>
 7    1  0.5525118E-011  0.5052886E+02  0.7816164E-02  0.1300439E+00
        -11   -1    0    0    0    0  0.00000000000E+00  0.00000000000E+00  0.45593999997E+02  0.45594000000E+02  0.51100000000E-03 0. -1.
         11   -1    0    0    0    0 -0.00000000000E+00 -0.00000000000E+00 -0.45593999997E+02  0.45594000000E+02  0.51100000000E-03 0.  1.
    9900012    2    1    2    0    0 -0.69907048259E+01 -0.30461934726E+02  0.26007041294E+02  0.50528860583E+02  0.30000002229E+02 0.  0.
        -12    1    1    2    0    0  0.69907048259E+01  0.30461934726E+02 -0.26007041294E+02  0.40659139417E+02  0.00000000000E+00 0.  1.
         11    1    3    3    0    0 -0.23685623666E+01  0.16023667826E+01  0.15016706170E+02  0.15286567026E+02  0.51100000000E-03 0. -1.
        -11    1    3    3    0    0 -0.47965654904E+01 -0.23556001667E+02  0.43084176274E+01  0.24422422438E+02  0.51100000000E-03 0.  1.
         12    1    3    3    0    0  0.17442303115E+00 -0.85082998423E+01  0.66819174964E+01  0.10819871119E+02  0.00000000000E+00 0. -1.
</event>
<event>
 7    1  0.5525118E-011  0.5052885E+02  0.7816164E-02  0.1300439E+00
        -11   -1    0    0    0    0  0.00000000000E+00  0.00000000000E+00  0.45593999997E+02  0.45594000000E+02  0.51100000000E-03 0.  1.
         11   -1    0    0    0    0 -0.00000000000E+00 -0.00000000000E+00 -0.45593999997E+02  0.45594000000E+02  0.51100000000E-03 0. -1.
    9900012    2    1    2    0    0 -0.34248577932E+02  0.55376263152E+01 -0.21202263054E+02  0.50528851532E+02  0.29999974716E+02 0.  0.
        -12    1    1    2    0    0  0.34248577932E+02 -0.55376263152E+01  0.21202263054E+02  0.40659148468E+02  0.00000000000E+00 0.  1.
         11    1    3    3    0    0 -0.27239636531E+02 -0.12314913984E+01 -0.13539380563E+01  0.27301053421E+02  0.51100000000E-03 0. -1.
        -11    1    3    3    0    0  0.41152394536E+00  0.30657758020E+01 -0.24218512004E+01  0.39285743882E+01  0.51100000000E-03 0.  1.
         12    1    3    3    0    0 -0.74204653465E+01  0.37033419116E+01 -0.17426473797E+02  0.19299223722E+02  0.00000000000E+00 0. -1.
</event>
<event>
 7    1  0.5525118E-011  0.5052886E+02  0.7816164E-02  0.1300439E+00
        -11   -1    0    0    0    0  0.00000000000E+00  0.00000000000E+00  0.45593999997E+02  0.45594000000E+02  0.51100000000E-03 0. -1.
         11   -1    0    0    0    0 -0.00000000000E+00 -0.00000000000E+00 -0.45593999997E+02  0.45594000000E+02  0.51100000000E-03 0.  1.
    9900012    2    1    2    0    0 -0.37828818736E+02 -0.14845318031E+02  0.13275388774E+01  0.50528863833E+02  0.30000012105E+02 0.  0.
        -12    1    1    2    0    0  0.37828818736E+02  0.14845318031E+02 -0.13275388774E+01  0.40659136167E+02  0.00000000000E+00 0.  1.
         11    1    3    3    0    0 -0.21188336970E+02 -0.10460947152E+02  0.41202541714E+01  0.23986528168E+02  0.51100000000E-03 0. -1.
        -11    1    3    3    0    0 -0.12191362451E+02 -0.59977737641E+01 -0.10722119154E+02  0.17307987981E+02  0.51100000000E-03 0.  1.
        -12    1    3    3    0    0 -0.44491193153E+01  0.16134028852E+01  0.79294038604E+01  0.92343476831E+01  0.00000000000E+00 0.  1.
</event>
<event>
 7    1  0.5525118E-011  0.5052886E+02  0.7816164E-02  0.1300439E+00
        -11   -1    0    0    0    0  0.00000000000E+00  0.00000000000E+00  0.45593999997E+02  0.45594000000E+02  0.51100000000E-03 0.  1.
         11   -1    0    0    0    0 -0.00000000000E+00 -0.00000000000E+00 -0.45593999997E+02  0.45594000000E+02  0.51100000000E-03 0. -1.
    9900012    2    1    2    0    0 -0.44518231406E+01  0.27909579202E+02 -0.29230164764E+02  0.50528857453E+02  0.29999992715E+02 0.  0.
        -12    1    1    2    0    0  0.44518231406E+01 -0.27909579202E+02  0.29230164764E+02  0.40659142547E+02  0.00000000000E+00 0.  1.
         11    1    3    3    0    0 -0.73841700225E+01  0.26709507964E+01  0.33026101309E+01  0.85186371572E+01  0.51100000000E-03 0.  1.
        -11    1    3    3    0    0 -0.72125100949E+00  0.19653493682E+02 -0.21694962643E+02  0.29282271450E+02  0.51100000000E-03 0. -1.
        -12    1    3    3    0    0  0.36535978913E+01  0.55851347237E+01 -0.10837812251E+02  0.12727948846E+02  0.00000000000E+00 0.  1.
</event>
<event>
 7    1  0.5525118E-011  0.5052886E+02  0.7816164E-02  0.1300439E+00
        -11   -1    0    0    0    0  0.00000000000E+00  0.00000000000E+00  0.45593999997E+02  0.45594000000E+02  0.51100000000E-03 0.  1.
         11   -1    0    0    0    0 -0.00000000000E+00 -0.00000000000E+00 -0.45593999997E+02  0.45594000000E+02  0.51100000000E-03 0. -1.
    9900012    2    1    2    0    0 -0.32455044613E+02  0.17057758736E+01 -0.24432077322E+02  0.50528855955E+02  0.29999988162E+02 0.  0.
        -12    1    1    2    0    0  0.32455044613E+02 -0.17057758736E+01  0.24432077322E+02  0.40659144045E+02  0.00000000000E+00 0.  1.
         11    1    3    3    0    0 -0.28941599988E+01  0.12401987015E+01 -0.11163251377E+02  0.11598811856E+02  0.51100000000E-03 0. -1.
        -11    1    3    3    0    0 -0.27458618298E+02  0.26315718866E+01 -0.24442695469E+01  0.27692514211E+02  0.51100000000E-03 0.  1.
        -12    1    3    3    0    0 -0.21022663162E+01 -0.21659947145E+01 -0.10824556398E+02  0.11237529888E+02  0.00000000000E+00 0.  1.
</event>
<event>
 7    1  0.5525118E-011  0.5052885E+02  0.7816164E-02  0.1300439E+00
        -11   -1    0    0    0    0  0.00000000000E+00  0.00000000000E+00  0.45593999997E+02  0.45594000000E+02  0.51100000000E-03 0.  1.
         11   -1    0    0    0    0 -0.00000000000E+00 -0.00000000000E+00 -0.45593999997E+02  0.45594000000E+02  0.51100000000E-03 0. -1.
    9900012    2    1    2    0    0 -0.12392396054E+02  0.28733073235E+02 -0.25961610356E+02  0.50528853554E+02  0.29999980862E+02 0.  0.
        -12    1    1    2    0    0  0.12392396054E+02 -0.28733073235E+02  0.25961610356E+02  0.40659146446E+02  0.00000000000E+00 0.  1.
         11    1    3    3    0    0 -0.15828942060E+02  0.18849070091E+02 -0.53603898069E+01  0.25190804457E+02  0.51100000000E-03 0. -1.
        -11    1    3    3    0    0  0.59974112950E+01  0.18009400943E+01 -0.92257607964E+01  0.11150201343E+02  0.51100000000E-03 0.  1.
        -12    1    3    3    0    0 -0.25608652885E+01  0.80830630491E+01 -0.11375459753E+02  0.14187847753E+02  0.00000000000E+00 0.  1.
</event>
<event>
 7    1  0.5525118E-011  0.5052897E+02  0.7816164E-02  0.1300438E+00
        -11   -1    0    0    0    0  0.00000000000E+00  0.00000000000E+00  0.45593999997E+02  0.45594000000E+02  0.51100000000E-03 0.  1.
         11   -1    0    0    0    0 -0.00000000000E+00 -0.00000000000E+00 -0.45593999997E+02  0.45594000000E+02  0.51100000000E-03 0. -1.
    9900012    2    1    2    0    0 -0.51907881530E+01  0.38253612582E+01 -0.40144476486E+02  0.50528970711E+02  0.30000336970E+02 0.  0.
        -12    1    1    2    0    0  0.51907881530E+01 -0.38253612582E+01  0.40144476486E+02  0.40659029289E+02  0.00000000000E+00 0.  1.
         11    1    3    3    0    0  0.93452013728E+01  0.41964273227E+01 -0.79523451137E+01  0.12968522816E+02  0.51100000000E-03 0. -1.
        -11    1    3    3    0    0 -0.11716606978E+02  0.19235786176E+01 -0.11424957751E+02  0.16477520859E+02  0.51100000000E-03 0.  1.
        -12    1    3    3    0    0 -0.28193825481E+01 -0.22946446822E+01 -0.20767173621E+02  0.21082927035E+02  0.00000000000E+00 0.  1.
</event>
<event>
 7    1  0.5525118E-011  0.5052886E+02  0.7816164E-02  0.1300439E+00
        -11   -1    0    0    0    0  0.00000000000E+00  0.00000000000E+00  0.45593999997E+02  0.45594000000E+02  0.51100000000E-03 0. -1.
         11   -1    0    0    0    0 -0.00000000000E+00 -0.00000000000E+00 -0.45593999997E+02  0.45594000000E+02  0.51100000000E-03 0.  1.
    9900012    2    1    2    0    0 -0.13972413644E+01 -0.76334048327E+01  0.39911708540E+02  0.50528860421E+02  0.30000001735E+02 0.  0.
        -12    1    1    2    0    0  0.13972413644E+01  0.76334048327E+01 -0.39911708540E+02  0.40659139579E+02  0.00000000000E+00 0.  1.
         11    1    3    3    0    0 -0.17864115970E+01 -0.10733423570E+02  0.44554031403E+01  0.11757902250E+02  0.51100000000E-03 0. -1.
        -11    1    3    3    0    0  0.15823186920E+01  0.61488459767E+01  0.34871947941E+02  0.35445236531E+02  0.51100000000E-03 0.  1.
        -12    1    3    3    0    0 -0.11931484593E+01 -0.30488272394E+01  0.58435745784E+00  0.33257216391E+01  0.00000000000E+00 0.  1.
</event>
<event>
 7    1  0.5525118E-011  0.5052887E+02  0.7816164E-02  0.1300439E+00
        -11   -1    0    0    0    0  0.00000000000E+00  0.00000000000E+00  0.45593999997E+02  0.45594000000E+02  0.51100000000E-03 0.  1.
         11   -1    0    0    0    0 -0.00000000000E+00 -0.00000000000E+00 -0.45593999997E+02  0.45594000000E+02  0.51100000000E-03 0. -1.
    9900012    2    1    2    0    0  0.12624746769E+00 -0.39639083480E+02 -0.90494130198E+01  0.50528871215E+02  0.30000034546E+02 0.  0.
        -12    1    1    2    0    0 -0.12624746769E+00  0.39639083480E+02  0.90494130198E+01  0.40659128785E+02  0.00000000000E+00 0.  1.
         11    1    3    3    0    0  0.61906982813E+01  0.19768250659E+01 -0.73188142087E+00  0.65397425964E+01  0.51100000000E-03 0. -1.
        -11    1    3    3    0    0 -0.55296367354E+01 -0.19477244989E+02  0.23912712304E+00  0.20248386030E+02  0.51100000000E-03 0.  1.
         12    1    3    3    0    0 -0.53481407825E+00 -0.22138663557E+02 -0.85566587220E+01  0.23740742589E+02  0.00000000000E+00 0. -1.
</event>
<event>
 7    1  0.5525118E-011  0.5052886E+02  0.7816164E-02  0.1300439E+00
        -11   -1    0    0    0    0  0.00000000000E+00  0.00000000000E+00  0.45593999997E+02  0.45594000000E+02  0.51100000000E-03 0. -1.
         11   -1    0    0    0    0 -0.00000000000E+00 -0.00000000000E+00 -0.45593999997E+02  0.45594000000E+02  0.51100000000E-03 0.  1.
    9900012    2    1    2    0    0  0.39117904374E+02 -0.88236624604E+01 -0.67155329741E+01  0.50528857794E+02  0.29999993750E+02 0.  0.
        -12    1    1    2    0    0 -0.39117904374E+02  0.88236624604E+01  0.67155329741E+01  0.40659142206E+02  0.00000000000E+00 0.  1.
         11    1    3    3    0    0  0.43192481952E+01 -0.52491018690E+01  0.85797561721E+01  0.10946286660E+02  0.51100000000E-03 0. -1.
        -11    1    3    3    0    0  0.25899306386E+02  0.17502485367E+00 -0.14980936790E+02  0.29920447395E+02  0.51100000000E-03 0.  1.
        -12    1    3    3    0    0  0.88993497930E+01 -0.37495854450E+01 -0.31435235645E+00  0.96621237392E+01  0.00000000000E+00 0.  1.
</event>
<event>
 7    1  0.5525118E-011  0.5052886E+02  0.7816164E-02  0.1300439E+00
        -11   -1    0    0    0    0  0.00000000000E+00  0.00000000000E+00  0.45593999997E+02  0.45594000000E+02  0.51100000000E-03 0.  1.
         11   -1    0    0    0    0 -0.00000000000E+00 -0.00000000000E+00 -0.45593999997E+02  0.45594000000E+02  0.51100000000E-03 0. -1.
    9900012    2    1    2    0    0  0.79295704645E+00 -0.37452935535E+02 -0.15805511898E+02  0.50528863666E+02  0.30000011600E+02 0.  0.
        -12    1    1    2    0    0 -0.79295704645E+00  0.37452935535E+02  0.15805511898E+02  0.40659136334E+02  0.00000000000E+00 0.  1.
         11    1    3    3    0    0  0.38319708553E+01 -0.19577077151E+02  0.43136591474E+01  0.20409644924E+02  0.51100000000E-03 0. -1.
        -11    1    3    3    0    0  0.38391994355E+01 -0.80598562989E+01 -0.14145533513E+02  0.16727129296E+02  0.51100000000E-03 0.  1.
         12    1    3    3    0    0 -0.68782132443E+01 -0.98160020850E+01 -0.59736375325E+01  0.13392089446E+02  0.00000000000E+00 0. -1.
</event>
<event>
 7    1  0.5525118E-011  0.5052886E+02  0.7816164E-02  0.1300439E+00
        -11   -1    0    0    0    0  0.00000000000E+00  0.00000000000E+00  0.45593999997E+02  0.45594000000E+02  0.51100000000E-03 0.  1.
         11   -1    0    0    0    0 -0.00000000000E+00 -0.00000000000E+00 -0.45593999997E+02  0.45594000000E+02  0.51100000000E-03 0. -1.
    9900012    2    1    2    0    0  0.24904939989E+02 -0.37166018375E+01 -0.31923289634E+02  0.50528860976E+02  0.30000003424E+02 0.  0.
        -12    1    1    2    0    0 -0.24904939989E+02  0.37166018375E+01  0.31923289634E+02  0.40659139024E+02  0.00000000000E+00 0.  1.
         11    1    3    3    0    0  0.14036638004E+02  0.37757547137E+01 -0.30315222028E+02  0.33619878301E+02  0.51100000000E-03 0. -1.
        -11    1    3    3    0    0 -0.64602825690E-02 -0.15961622898E+01  0.32484840557E+01  0.36194508854E+01  0.51100000000E-03 0.  1.
        -12    1    3    3    0    0  0.10874762268E+02 -0.58961942614E+01 -0.48565516614E+01  0.13289531790E+02  0.00000000000E+00 0.  1.
</event>
<event>
 7    1  0.5525118E-011  0.5052886E+02  0.7816164E-02  0.1300439E+00
        -11   -1    0    0    0    0  0.00000000000E+00  0.00000000000E+00  0.45593999997E+02  0.45594000000E+02  0.51100000000E-03 0. -1.
         11   -1    0    0    0    0 -0.00000000000E+00 -0.00000000000E+00 -0.45593999997E+02  0.45594000000E+02  0.51100000000E-03 0.  1.
    9900012    2    1    2    0    0  0.37935890055E+02  0.42220688440E+01 -0.14007416452E+02  0.50528864062E+02  0.30000012802E+02 0.  0.
        -12    1    1    2    0    0 -0.37935890055E+02 -0.42220688440E+01  0.14007416452E+02  0.40659135938E+02  0.00000000000E+00 0.  1.
         11    1    3    3    0    0  0.10932848319E+02  0.41376821587E+01 -0.38915990524E+01  0.12320394858E+02  0.51100000000E-03 0. -1.
        -11    1    3    3    0    0  0.41634849639E+01 -0.72183904175E+01  0.51375009883E+01  0.97894680106E+01  0.51100000000E-03 0.  1.
        -12    1    3    3    0    0  0.22839556772E+02  0.73027771028E+01 -0.15253318388E+02  0.28419001193E+02  0.00000000000E+00 0.  1.
</event>
<event>
 7    1  0.5525118E-011  0.5052886E+02  0.7816164E-02  0.1300439E+00
        -11   -1    0    0    0    0  0.00000000000E+00  0.00000000000E+00  0.45593999997E+02  0.45594000000E+02  0.51100000000E-03 0. -1.
         11   -1    0    0    0    0 -0.00000000000E+00 -0.00000000000E+00 -0.45593999997E+02  0.45594000000E+02  0.51100000000E-03 0.  1.
    9900012    2    1    2    0    0  0.32145405509E+02  0.22315814917E+02 -0.11038255151E+02  0.50528858745E+02  0.29999996643E+02 0.  0.
        -12    1    1    2    0    0 -0.32145405509E+02 -0.22315814917E+02  0.11038255151E+02  0.40659141255E+02  0.00000000000E+00 0.  1.
         11    1    3    3    0    0 -0.32044784437E+01  0.27915901649E+01 -0.53170221309E+01  0.68067894301E+01  0.51100000000E-03 0. -1.
        -11    1    3    3    0    0  0.25745047978E+02  0.10504661507E+02 -0.10477141967E+02  0.29714069274E+02  0.51100000000E-03 0.  1.
         12    1    3    3    0    0  0.96048359754E+01  0.90195632457E+01  0.47559089469E+01  0.14008000042E+02  0.00000000000E+00 0. -1.
</event>
<event>
 7    1  0.5525118E-011  0.5052886E+02  0.7816164E-02  0.1300439E+00
        -11   -1    0    0    0    0  0.00000000000E+00  0.00000000000E+00  0.45593999997E+02  0.45594000000E+02  0.51100000000E-03 0.  1.
         11   -1    0    0    0    0 -0.00000000000E+00 -0.00000000000E+00 -0.45593999997E+02  0.45594000000E+02  0.51100000000E-03 0. -1.
    9900012    2    1    2    0    0  0.18883712906E+02  0.32885813538E+02 -0.14666098483E+02  0.50528858471E+02  0.29999995809E+02 0.  0.
        -12    1    1    2    0    0 -0.18883712906E+02 -0.32885813538E+02  0.14666098483E+02  0.40659141529E+02  0.00000000000E+00 0.  1.
         11    1    3    3    0    0  0.42916587023E+01  0.45202686118E+01 -0.89372941463E+01  0.10896163988E+02  0.51100000000E-03 0. -1.
        -11    1    3    3    0    0  0.48593374777E+01  0.73299288947E+01  0.86673880015E+01  0.12347656999E+02  0.51100000000E-03 0.  1.
        -12    1    3    3    0    0  0.97327167262E+01  0.21035616031E+02 -0.14396192338E+02  0.27285037484E+02  0.00000000000E+00 0.  1.
</event>
<event>
 7    1  0.5525118E-011  0.5052885E+02  0.7816164E-02  0.1300439E+00
        -11   -1    0    0    0    0  0.00000000000E+00  0.00000000000E+00  0.45593999997E+02  0.45594000000E+02  0.51100000000E-03 0.  1.
         11   -1    0    0    0    0 -0.00000000000E+00 -0.00000000000E+00 -0.45593999997E+02  0.45594000000E+02  0.51100000000E-03 0. -1.
    9900012    2    1    2    0    0 -0.19550486818E+02  0.26831695645E+02 -0.23473500065E+02  0.50528848123E+02  0.29999964356E+02 0.  0.
        -12    1    1    2    0    0  0.19550486818E+02 -0.26831695645E+02  0.23473500065E+02  0.40659151877E+02  0.00000000000E+00 0.  1.
         11    1    3    3    0    0 -0.14059537065E+02  0.57441238463E+01 -0.15599538556E+02  0.21771797001E+02  0.51100000000E-03 0. -1.
        -11    1    3    3    0    0 -0.48828975990E+01  0.93336648999E+01  0.46994842426E+01  0.11534519575E+02  0.51100000000E-03 0.  1.
        -12    1    3    3    0    0 -0.60805215443E+00  0.11753906899E+02 -0.12573445752E+02  0.17222531547E+02  0.00000000000E+00 0.  1.
</event>
<event>
 7    1  0.5525118E-011  0.5052885E+02  0.7816164E-02  0.1300439E+00
        -11   -1    0    0    0    0  0.00000000000E+00  0.00000000000E+00  0.45593999997E+02  0.45594000000E+02  0.51100000000E-03 0.  1.
         11   -1    0    0    0    0 -0.00000000000E+00 -0.00000000000E+00 -0.45593999997E+02  0.45594000000E+02  0.51100000000E-03 0. -1.
    9900012    2    1    2    0    0 -0.26459616737E+02 -0.18496307754E+02 -0.24717228861E+02  0.50528854400E+02  0.29999983434E+02 0.  0.
        -12    1    1    2    0    0  0.26459616737E+02  0.18496307754E+02  0.24717228861E+02  0.40659145600E+02  0.00000000000E+00 0.  1.
         11    1    3    3    0    0 -0.15724661398E+02 -0.49056968846E+01 -0.10527514297E+02  0.19548897553E+02  0.51100000000E-03 0. -1.
        -11    1    3    3    0    0  0.43929253692E+01  0.11085970294E+01 -0.76594684258E+01  0.88991144222E+01  0.51100000000E-03 0.  1.
        -12    1    3    3    0    0 -0.15127880708E+02 -0.14699207899E+02 -0.65302461374E+01  0.22080842424E+02  0.00000000000E+00 0.  1.
</event>
<event>
 7    1  0.5525118E-011  0.5052886E+02  0.7816164E-02  0.1300439E+00
        -11   -1    0    0    0    0  0.00000000000E+00  0.00000000000E+00  0.45593999997E+02  0.45594000000E+02  0.51100000000E-03 0.  1.
         11   -1    0    0    0    0 -0.00000000000E+00 -0.00000000000E+00 -0.45593999997E+02  0.45594000000E+02  0.51100000000E-03 0. -1.
    9900012    2    1    2    0    0  0.33738568445E+02 -0.22300629176E+02 -0.41900503206E+01  0.50528861002E+02  0.30000003501E+02 0.  0.
        -12    1    1    2    0    0 -0.33738568445E+02  0.22300629176E+02  0.41900503206E+01  0.40659138998E+02  0.00000000000E+00 0.  1.
         11    1    3    3    0    0  0.23975065912E+02  0.52077973777E+00 -0.71672090850E+01  0.25028861008E+02  0.51100000000E-03 0. -1.
        -11    1    3    3    0    0  0.74813044772E+01 -0.13792942551E+02  0.38198564833E+01  0.16149504163E+02  0.51100000000E-03 0.  1.
         12    1    3    3    0    0  0.22821980558E+01 -0.90284663632E+01 -0.84269771890E+00  0.93504958309E+01  0.00000000000E+00 0. -1.
</event>
<event>
 7    1  0.5525118E-011  0.5052887E+02  0.7816164E-02  0.1300439E+00
        -11   -1    0    0    0    0  0.00000000000E+00  0.00000000000E+00  0.45593999997E+02  0.45594000000E+02  0.51100000000E-03 0.  1.
         11   -1    0    0    0    0 -0.00000000000E+00 -0.00000000000E+00 -0.45593999997E+02  0.45594000000E+02  0.51100000000E-03 0. -1.
    9900012    2    1    2    0    0 -0.36639118613E+02 -0.11345323905E+02 -0.13491599323E+02  0.50528872617E+02  0.30000038807E+02 0.  0.
        -12    1    1    2    0    0  0.36639118613E+02  0.11345323905E+02  0.13491599323E+02  0.40659127383E+02  0.00000000000E+00 0.  1.
         11    1    3    3    0    0 -0.88088759334E+01 -0.16627436177E+02 -0.77648963460E+01  0.20355872483E+02  0.51100000000E-03 0. -1.
        -11    1    3    3    0    0 -0.20642671108E+02  0.50598388743E+01 -0.78784277332E+01  0.22666968561E+02  0.51100000000E-03 0.  1.
        -12    1    3    3    0    0 -0.71875715713E+01  0.22227339718E+00  0.21517247562E+01  0.75060315735E+01  0.00000000000E+00 0.  1.
</event>
<event>
 7    1  0.5525118E-011  0.5052886E+02  0.7816164E-02  0.1300439E+00
        -11   -1    0    0    0    0  0.00000000000E+00  0.00000000000E+00  0.45593999997E+02  0.45594000000E+02  0.51100000000E-03 0. -1.
         11   -1    0    0    0    0 -0.00000000000E+00 -0.00000000000E+00 -0.45593999997E+02  0.45594000000E+02  0.51100000000E-03 0.  1.
    9900012    2    1    2    0    0 -0.11242168188E+02 -0.35084381375E+02  0.17200749532E+02  0.50528856545E+02  0.29999989954E+02 0.  0.
        -12    1    1    2    0    0  0.11242168188E+02  0.35084381375E+02 -0.17200749532E+02  0.40659143455E+02  0.00000000000E+00 0.  1.
         11    1    3    3    0    0  0.35447853397E+01 -0.19522913511E+02  0.16127648356E+02  0.25569722267E+02  0.51100000000E-03 0. -1.
        -11    1    3    3    0    0 -0.11957883913E+02 -0.64471253405E+01  0.52203336548E+01  0.14553635166E+02  0.51100000000E-03 0.  1.
        -12    1    3    3    0    0 -0.28290696148E+01 -0.91143425242E+01 -0.41472324788E+01  0.10405499112E+02  0.00000000000E+00 0.  1.
</event>
<event>
 7    1  0.5525118E-011  0.5052887E+02  0.7816164E-02  0.1300439E+00
        -11   -1    0    0    0    0  0.00000000000E+00  0.00000000000E+00  0.45593999997E+02  0.45594000000E+02  0.51100000000E-03 0. -1.
         11   -1    0    0    0    0 -0.00000000000E+00 -0.00000000000E+00 -0.45593999997E+02  0.45594000000E+02  0.51100000000E-03 0.  1.
    9900012    2    1    2    0    0  0.21797219650E+02 -0.29224903098E+02  0.17998634313E+02  0.50528873316E+02  0.30000040932E+02 0.  0.
        -12    1    1    2    0    0 -0.21797219650E+02  0.29224903098E+02 -0.17998634313E+02  0.40659126684E+02  0.00000000000E+00 0.  1.
         11    1    3    3    0    0  0.18556460838E+02 -0.10915854525E+02  0.21297519783E+02  0.30283369495E+02  0.51100000000E-03 0. -1.
        -11    1    3    3    0    0  0.39573263175E+01 -0.18263889550E+02 -0.41388045879E+01  0.19140527598E+02  0.51100000000E-03 0.  1.
         12    1    3    3    0    0 -0.71656750542E+00 -0.45159023215E-01  0.83991911868E+00  0.11049762229E+01  0.00000000000E+00 0. -1.
</event>
<event>
 7    1  0.5525118E-011  0.5052885E+02  0.7816164E-02  0.1300439E+00
        -11   -1    0    0    0    0  0.00000000000E+00  0.00000000000E+00  0.45593999997E+02  0.45594000000E+02  0.51100000000E-03 0.  1.
         11   -1    0    0    0    0 -0.00000000000E+00 -0.00000000000E+00 -0.45593999997E+02  0.45594000000E+02  0.51100000000E-03 0. -1.
    9900012    2    1    2    0    0 -0.39480415093E+01 -0.25994010380E+02 -0.31014362410E+02  0.50528852405E+02  0.29999977371E+02 0.  0.
        -12    1    1    2    0    0  0.39480415093E+01  0.25994010380E+02  0.31014362410E+02  0.40659147595E+02  0.00000000000E+00 0.  1.
         11    1    3    3    0    0 -0.98469327053E+01 -0.11623590233E+02 -0.23525471071E+02  0.28027089092E+02  0.51100000000E-03 0. -1.
        -11    1    3    3    0    0  0.90849074491E+01 -0.33036612239E+01 -0.27677285970E+01  0.10055348959E+02  0.51100000000E-03 0.  1.
        -12    1    3    3    0    0 -0.31860162532E+01 -0.11066758923E+02 -0.47211627423E+01  0.12446414354E+02  0.00000000000E+00 0.  1.
</event>
<event>
 7    1  0.5525118E-011  0.5052891E+02  0.7816164E-02  0.1300439E+00
        -11   -1    0    0    0    0  0.00000000000E+00  0.00000000000E+00  0.45593999997E+02  0.45594000000E+02  0.51100000000E-03 0.  1.
         11   -1    0    0    0    0 -0.00000000000E+00 -0.00000000000E+00 -0.45593999997E+02  0.45594000000E+02  0.51100000000E-03 0. -1.
    9900012    2    1    2    0    0 -0.11439536878E+02  0.20919399809E+02 -0.32934436424E+02  0.50528912518E+02  0.30000160088E+02 0.  0.
        -12    1    1    2    0    0  0.11439536878E+02 -0.20919399809E+02  0.32934436424E+02  0.40659087482E+02  0.00000000000E+00 0.  1.
         11    1    3    3    0    0  0.53407821368E+01  0.74978208618E+01 -0.18944166122E+02  0.21062352713E+02  0.51100000000E-03 0. -1.
        -11    1    3    3    0    0 -0.10509365660E+02  0.13043368062E+02 -0.33080918700E+01  0.17073947671E+02  0.51100000000E-03 0.  1.
        -12    1    3    3    0    0 -0.62709533547E+01  0.37821088526E+00 -0.10682178432E+02  0.12392612134E+02  0.00000000000E+00 0.  1.
</event>
<event>
 7    1  0.5525118E-011  0.5052886E+02  0.7816164E-02  0.1300439E+00
        -11   -1    0    0    0    0  0.00000000000E+00  0.00000000000E+00  0.45593999997E+02  0.45594000000E+02  0.51100000000E-03 0.  1.
         11   -1    0    0    0    0 -0.00000000000E+00 -0.00000000000E+00 -0.45593999997E+02  0.45594000000E+02  0.51100000000E-03 0. -1.
    9900012    2    1    2    0    0 -0.14374209398E+02  0.14602060764E+02 -0.35118763773E+02  0.50528860273E+02  0.30000001287E+02 0.  0.
        -12    1    1    2    0    0  0.14374209398E+02 -0.14602060764E+02  0.35118763773E+02  0.40659139727E+02  0.00000000000E+00 0.  1.
         11    1    3    3    0    0 -0.56964476354E+01  0.71027048245E+01  0.26076500042E+01  0.94708906810E+01  0.51100000000E-03 0. -1.
        -11    1    3    3    0    0  0.25979338585E+01  0.32128347623E+01 -0.10131823578E+02  0.10941911022E+02  0.51100000000E-03 0.  1.
         12    1    3    3    0    0 -0.11275695621E+02  0.42865211769E+01 -0.27594590199E+02  0.30116058570E+02  0.00000000000E+00 0. -1.
</event>
<event>
 7    1  0.5525118E-011  0.5052888E+02  0.7816164E-02  0.1300439E+00
        -11   -1    0    0    0    0  0.00000000000E+00  0.00000000000E+00  0.45593999997E+02  0.45594000000E+02  0.51100000000E-03 0.  1.
         11   -1    0    0    0    0 -0.00000000000E+00 -0.00000000000E+00 -0.45593999997E+02  0.45594000000E+02  0.51100000000E-03 0. -1.
    9900012    2    1    2    0    0 -0.37254318839E+02 -0.14936731607E+02  0.64941150698E+01  0.50528883510E+02  0.30000071916E+02 0.  0.
        -12    1    1    2    0    0  0.37254318839E+02  0.14936731607E+02 -0.64941150698E+01  0.40659116490E+02  0.00000000000E+00 0.  1.
         11    1    3    3    0    0 -0.19477333701E+02 -0.10108792771E+02  0.22181853877E+01  0.22056168436E+02  0.51100000000E-03 0. -1.
        -11    1    3    3    0    0 -0.13826328741E+02  0.66486033160E+01 -0.69308797109E+00  0.15357462802E+02  0.51100000000E-03 0.  1.
        -12    1    3    3    0    0 -0.39506563962E+01 -0.11476542152E+02  0.49690176533E+01  0.13115252272E+02  0.00000000000E+00 0.  1.
</event>
<event>
 7    1  0.5525118E-011  0.5052884E+02  0.7816164E-02  0.1300439E+00
        -11   -1    0    0    0    0  0.00000000000E+00  0.00000000000E+00  0.45593999997E+02  0.45594000000E+02  0.51100000000E-03 0. -1.
         11   -1    0    0    0    0 -0.00000000000E+00 -0.00000000000E+00 -0.45593999997E+02  0.45594000000E+02  0.51100000000E-03 0.  1.
    9900012    2    1    2    0    0  0.35985412832E+02  0.81206817569E+01  0.17095965040E+02  0.50528838308E+02  0.29999934520E+02 0.  0.
        -12    1    1    2    0    0 -0.35985412832E+02 -0.81206817569E+01 -0.17095965040E+02  0.40659161692E+02  0.00000000000E+00 0.  1.
         11    1    3    3    0    0  0.27899211181E+02  0.13852364630E+02  0.15915109640E+02  0.34979203900E+02  0.51100000000E-03 0. -1.
        -11    1    3    3    0    0  0.58813157512E+01 -0.79227556835E+01 -0.30244249736E+01  0.10320226706E+02  0.51100000000E-03 0.  1.
        -12    1    3    3    0    0  0.22048859000E+01  0.21910728102E+01  0.42052803732E+01  0.52294077015E+01  0.00000000000E+00 0.  1.
</event>
<event>
 7    1  0.5525118E-011  0.5052885E+02  0.7816164E-02  0.1300439E+00
        -11   -1    0    0    0    0  0.00000000000E+00  0.00000000000E+00  0.45593999997E+02  0.45594000000E+02  0.51100000000E-03 0. -1.
         11   -1    0    0    0    0 -0.00000000000E+00 -0.00000000000E+00 -0.45593999997E+02  0.45594000000E+02  0.51100000000E-03 0.  1.
    9900012    2    1    2    0    0  0.25640601233E+02  0.21729653899E+02  0.22881172583E+02  0.50528851596E+02  0.29999974912E+02 0.  0.
        -12    1    1    2    0    0 -0.25640601233E+02 -0.21729653899E+02 -0.22881172583E+02  0.40659148404E+02  0.00000000000E+00 0.  1.
         11    1    3    3    0    0  0.57342600510E+01  0.82385471877E+01  0.98065072378E+01  0.14032924947E+02  0.51100000000E-03 0. -1.
        -11    1    3    3    0    0  0.18371668707E+02  0.66296715598E+00  0.14614442194E+02  0.23484881465E+02  0.51100000000E-03 0.  1.
        -12    1    3    3    0    0  0.15346724750E+01  0.12828139555E+02 -0.15397768485E+01  0.13011045184E+02  0.00000000000E+00 0.  1.
</event>
<event>
 7    1  0.5525118E-011  0.5052886E+02  0.7816164E-02  0.1300439E+00
        -11   -1    0    0    0    0  0.00000000000E+00  0.00000000000E+00  0.45593999997E+02  0.45594000000E+02  0.51100000000E-03 0.  1.
         11   -1    0    0    0    0 -0.00000000000E+00 -0.00000000000E+00 -0.45593999997E+02  0.45594000000E+02  0.51100000000E-03 0. -1.
    9900012    2    1    2    0    0 -0.31512352917E+02  0.25369330310E+02 -0.40662272444E+01  0.50528861904E+02  0.30000006244E+02 0.  0.
        -12    1    1    2    0    0  0.31512352917E+02 -0.25369330310E+02  0.40662272444E+01  0.40659138096E+02  0.00000000000E+00 0.  1.
         11    1    3    3    0    0 -0.27327493268E+02  0.63881684023E+01  0.31176760880E+01  0.28236863995E+02  0.51100000000E-03 0. -1.
        -11    1    3    3    0    0 -0.32557318333E+01  0.14630872187E+02 -0.14844638276E+01  0.15062066387E+02  0.51100000000E-03 0.  1.
         12    1    3    3    0    0 -0.92912781555E+00  0.43502897202E+01 -0.56994395048E+01  0.72299315222E+01  0.00000000000E+00 0. -1.
</event>
<event>
 7    1  0.5525118E-011  0.5052886E+02  0.7816164E-02  0.1300439E+00
        -11   -1    0    0    0    0  0.00000000000E+00  0.00000000000E+00  0.45593999997E+02  0.45594000000E+02  0.51100000000E-03 0. -1.
         11   -1    0    0    0    0 -0.00000000000E+00 -0.00000000000E+00 -0.45593999997E+02  0.45594000000E+02  0.51100000000E-03 0.  1.
    9900012    2    1    2    0    0 -0.17675518409E+01 -0.10441111790E+01  0.40607281795E+02  0.50528859055E+02  0.29999997583E+02 0.  0.
        -12    1    1    2    0    0  0.17675518409E+01  0.10441111790E+01 -0.40607281795E+02  0.40659140945E+02  0.00000000000E+00 0.  1.
         11    1    3    3    0    0 -0.10766944916E+02  0.48434023053E+01  0.21690369630E+02  0.24695298817E+02  0.51100000000E-03 0. -1.
        -11    1    3    3    0    0  0.10850345518E+02 -0.25952761212E+00  0.15716383072E+02  0.19099791872E+02  0.51100000000E-03 0.  1.
         12    1    3    3    0    0 -0.18509524426E+01 -0.56279858721E+01  0.32005290928E+01  0.67337683652E+01  0.00000000000E+00 0. -1.
</event>
<event>
 7    1  0.5525118E-011  0.5052886E+02  0.7816164E-02  0.1300439E+00
        -11   -1    0    0    0    0  0.00000000000E+00  0.00000000000E+00  0.45593999997E+02  0.45594000000E+02  0.51100000000E-03 0. -1.
         11   -1    0    0    0    0 -0.00000000000E+00 -0.00000000000E+00 -0.45593999997E+02  0.45594000000E+02  0.51100000000E-03 0.  1.
    9900012    2    1    2    0    0 -0.24614106694E+02  0.29103647075E+02 -0.14152344834E+02  0.50528863441E+02  0.30000010914E+02 0.  0.
        -12    1    1    2    0    0  0.24614106694E+02 -0.29103647075E+02  0.14152344834E+02  0.40659136559E+02  0.00000000000E+00 0.  1.
         11    1    3    3    0    0 -0.14891110312E+02  0.33010747968E+02 -0.81109278367E+01  0.37111208527E+02  0.51100000000E-03 0. -1.
        -11    1    3    3    0    0 -0.76865076598E+01 -0.33559745192E+01 -0.16531244762E+01  0.85485546014E+01  0.51100000000E-03 0.  1.
         12    1    3    3    0    0 -0.20364887226E+01 -0.55112637357E+00 -0.43882925212E+01  0.48691003120E+01  0.00000000000E+00 0. -1.
</event>
<event>
 7    1  0.5525118E-011  0.5052886E+02  0.7816164E-02  0.1300439E+00
        -11   -1    0    0    0    0  0.00000000000E+00  0.00000000000E+00  0.45593999997E+02  0.45594000000E+02  0.51100000000E-03 0.  1.
         11   -1    0    0    0    0 -0.00000000000E+00 -0.00000000000E+00 -0.45593999997E+02  0.45594000000E+02  0.51100000000E-03 0. -1.
    9900012    2    1    2    0    0 -0.30696255175E+01  0.53308381650E+01 -0.40191109147E+02  0.50528859689E+02  0.29999999509E+02 0.  0.
        -12    1    1    2    0    0  0.30696255175E+01 -0.53308381650E+01  0.40191109147E+02  0.40659140311E+02  0.00000000000E+00 0.  1.
         11    1    3    3    0    0  0.50018866729E+01  0.12112445514E+02 -0.35857240941E+02  0.38176850771E+02  0.51100000000E-03 0. -1.
        -11    1    3    3    0    0 -0.45512699640E+01 -0.15963609409E+01 -0.16711880067E+00  0.48260082360E+01  0.51100000000E-03 0.  1.
         12    1    3    3    0    0 -0.35202422263E+01 -0.51852464083E+01 -0.41667494054E+01  0.75260006813E+01  0.00000000000E+00 0. -1.
</event>
<event>
 7    1  0.5525118E-011  0.5052886E+02  0.7816164E-02  0.1300439E+00
        -11   -1    0    0    0    0  0.00000000000E+00  0.00000000000E+00  0.45593999997E+02  0.45594000000E+02  0.51100000000E-03 0.  1.
         11   -1    0    0    0    0 -0.00000000000E+00 -0.00000000000E+00 -0.45593999997E+02  0.45594000000E+02  0.51100000000E-03 0. -1.
    9900012    2    1    2    0    0  0.12955094541E+02  0.16241954736E+02 -0.34950390045E+02  0.50528864096E+02  0.30000012905E+02 0.  0.
        -12    1    1    2    0    0 -0.12955094541E+02 -0.16241954736E+02  0.34950390045E+02  0.40659135904E+02  0.00000000000E+00 0.  1.
         11    1    3    3    0    0  0.70732038940E+01 -0.25146437500E+01 -0.46659549600E+01  0.88388224592E+01  0.51100000000E-03 0. -1.
        -11    1    3    3    0    0 -0.38522205415E+01  0.13510586257E+02 -0.26515837304E+02  0.30007751870E+02  0.51100000000E-03 0.  1.
        -12    1    3    3    0    0  0.97341111888E+01  0.52460122292E+01 -0.37685977804E+01  0.11682289766E+02  0.00000000000E+00 0.  1.
</event>
<event>
 7    1  0.5525118E-011  0.5052886E+02  0.7816164E-02  0.1300439E+00
        -11   -1    0    0    0    0  0.00000000000E+00  0.00000000000E+00  0.45593999997E+02  0.45594000000E+02  0.51100000000E-03 0.  1.
         11   -1    0    0    0    0 -0.00000000000E+00 -0.00000000000E+00 -0.45593999997E+02  0.45594000000E+02  0.51100000000E-03 0. -1.
    9900012    2    1    2    0    0  0.25872156395E+02 -0.14322716752E+02 -0.27904420858E+02  0.50528863325E+02  0.30000010563E+02 0.  0.
        -12    1    1    2    0    0 -0.25872156395E+02  0.14322716752E+02  0.27904420858E+02  0.40659136675E+02  0.00000000000E+00 0.  1.
         11    1    3    3    0    0  0.42079854566E+01 -0.11382805568E+01 -0.19130934606E+01  0.47605410490E+01  0.51100000000E-03 0. -1.
        -11    1    3    3    0    0  0.23795677764E+02 -0.14198459244E+02 -0.30173074459E+02  0.40966388023E+02  0.51100000000E-03 0.  1.
        -12    1    3    3    0    0 -0.21315068251E+01  0.10140230480E+01  0.41817470611E+01  0.48019342530E+01  0.00000000000E+00 0.  1.
</event>
<event>
 7    1  0.5525118E-011  0.5052886E+02  0.7816164E-02  0.1300439E+00
        -11   -1    0    0    0    0  0.00000000000E+00  0.00000000000E+00  0.45593999997E+02  0.45594000000E+02  0.51100000000E-03 0.  1.
         11   -1    0    0    0    0 -0.00000000000E+00 -0.00000000000E+00 -0.45593999997E+02  0.45594000000E+02  0.51100000000E-03 0. -1.
    9900012    2    1    2    0    0 -0.74319630963E+01  0.10074640902E+02 -0.38683759253E+02  0.50528859642E+02  0.29999999367E+02 0.  0.
        -12    1    1    2    0    0  0.74319630963E+01 -0.10074640902E+02  0.38683759253E+02  0.40659140358E+02  0.00000000000E+00 0.  1.
         11    1    3    3    0    0 -0.15821040814E+02  0.99211015392E+01 -0.21644371620E+02  0.28586927280E+02  0.51100000000E-03 0. -1.
        -11    1    3    3    0    0  0.32625748655E+01 -0.52387330351E+01 -0.58426295134E+01  0.84985315471E+01  0.51100000000E-03 0.  1.
         12    1    3    3    0    0  0.51265028520E+01  0.53922723976E+01 -0.11196758119E+02  0.13443400815E+02  0.00000000000E+00 0. -1.
</event>
<event>
 7    1  0.5525118E-011  0.5052888E+02  0.7816164E-02  0.1300439E+00
        -11   -1    0    0    0    0  0.00000000000E+00  0.00000000000E+00  0.45593999997E+02  0.45594000000E+02  0.51100000000E-03 0.  1.
         11   -1    0    0    0    0 -0.00000000000E+00 -0.00000000000E+00 -0.45593999997E+02  0.45594000000E+02  0.51100000000E-03 0. -1.
    9900012    2    1    2    0    0 -0.23394391022E+02 -0.20076327427E-01 -0.33254566842E+02  0.50528878635E+02  0.30000057098E+02 0.  0.
        -12    1    1    2    0    0  0.23394391022E+02  0.20076327427E-01  0.33254566842E+02  0.40659121365E+02  0.00000000000E+00 0.  1.
         11    1    3    3    0    0 -0.83297568253E+01 -0.49595585039E+01 -0.22117434264E+02  0.24148767422E+02  0.51100000000E-03 0. -1.
        -11    1    3    3    0    0 -0.18929578757E+02  0.59145998528E+01 -0.83605062491E+01  0.21522302580E+02  0.51100000000E-03 0.  1.
         12    1    3    3    0    0  0.38649445606E+01 -0.97511767629E+00 -0.27766263288E+01  0.48578086324E+01  0.00000000000E+00 0. -1.
</event>
<event>
 7    1  0.5525118E-011  0.5052886E+02  0.7816164E-02  0.1300439E+00
        -11   -1    0    0    0    0  0.00000000000E+00  0.00000000000E+00  0.45593999997E+02  0.45594000000E+02  0.51100000000E-03 0.  1.
         11   -1    0    0    0    0 -0.00000000000E+00 -0.00000000000E+00 -0.45593999997E+02  0.45594000000E+02  0.51100000000E-03 0. -1.
    9900012    2    1    2    0    0 -0.15186738260E+02  0.34639472920E+02 -0.14920983843E+02  0.50528857585E+02  0.29999993114E+02 0.  0.
        -12    1    1    2    0    0  0.15186738260E+02 -0.34639472920E+02  0.14920983843E+02  0.40659142415E+02  0.00000000000E+00 0.  1.
         11    1    3    3    0    0 -0.11182962024E+02  0.24079454814E+02  0.35142591100E+01  0.26781127705E+02  0.51100000000E-03 0. -1.
        -11    1    3    3    0    0 -0.26812646070E+01  0.12120572683E+02 -0.13165861788E+02  0.18095230834E+02  0.51100000000E-03 0.  1.
         12    1    3    3    0    0 -0.13225116288E+01 -0.15605545780E+01 -0.52693811652E+01  0.56524990459E+01  0.00000000000E+00 0. -1.
</event>
<event>
 7    1  0.5525118E-011  0.5052885E+02  0.7816164E-02  0.1300439E+00
        -11   -1    0    0    0    0  0.00000000000E+00  0.00000000000E+00  0.45593999997E+02  0.45594000000E+02  0.51100000000E-03 0. -1.
         11   -1    0    0    0    0 -0.00000000000E+00 -0.00000000000E+00 -0.45593999997E+02  0.45594000000E+02  0.51100000000E-03 0.  1.
    9900012    2    1    2    0    0 -0.29530666400E+02  0.97849266312E+01  0.26179409113E+02  0.50528849631E+02  0.29999968939E+02 0.  0.
        -12    1    1    2    0    0  0.29530666400E+02 -0.97849266312E+01 -0.26179409113E+02  0.40659150369E+02  0.00000000000E+00 0.  1.
         11    1    3    3    0    0 -0.23685263047E+02  0.12321186511E+02  0.13363300017E+02  0.29856006268E+02  0.51100000000E-03 0. -1.
        -11    1    3    3    0    0  0.24243228941E+01 -0.24462457156E+01 -0.17948390384E+01  0.38836718490E+01  0.51100000000E-03 0.  1.
         12    1    3    3    0    0 -0.82697262475E+01 -0.90014164477E-01  0.14610948134E+02  0.16789171515E+02  0.00000000000E+00 0. -1.
</event>
<event>
 7    1  0.5525118E-011  0.5052886E+02  0.7816164E-02  0.1300439E+00
        -11   -1    0    0    0    0  0.00000000000E+00  0.00000000000E+00  0.45593999997E+02  0.45594000000E+02  0.51100000000E-03 0. -1.
         11   -1    0    0    0    0 -0.00000000000E+00 -0.00000000000E+00 -0.45593999997E+02  0.45594000000E+02  0.51100000000E-03 0.  1.
    9900012    2    1    2    0    0  0.51245902111E+01 -0.35253309562E+02  0.19598684137E+02  0.50528859825E+02  0.29999999923E+02 0.  0.
        -12    1    1    2    0    0 -0.51245902111E+01  0.35253309562E+02 -0.19598684137E+02  0.40659140175E+02  0.00000000000E+00 0.  1.
         11    1    3    3    0    0  0.71791652101E+01 -0.24445823547E+02  0.43095741815E+01  0.25840107041E+02  0.51100000000E-03 0. -1.
        -11    1    3    3    0    0 -0.77118427697E+00  0.24750576146E+01  0.10006372078E+02  0.10336736323E+02  0.51100000000E-03 0.  1.
        -12    1    3    3    0    0 -0.12833907220E+01 -0.13282543629E+02  0.52827378780E+01  0.14352016461E+02  0.00000000000E+00 0.  1.
</event>
<event>
 7    1  0.5525118E-011  0.5052886E+02  0.7816164E-02  0.1300439E+00
        -11   -1    0    0    0    0  0.00000000000E+00  0.00000000000E+00  0.45593999997E+02  0.45594000000E+02  0.51100000000E-03 0.  1.
         11   -1    0    0    0    0 -0.00000000000E+00 -0.00000000000E+00 -0.45593999997E+02  0.45594000000E+02  0.51100000000E-03 0. -1.
    9900012    2    1    2    0    0  0.39376084137E+02  0.42406894449E+01 -0.92036089695E+01  0.50528857523E+02  0.29999992926E+02 0.  0.
        -12    1    1    2    0    0 -0.39376084137E+02 -0.42406894449E+01  0.92036089695E+01  0.40659142477E+02  0.00000000000E+00 0.  1.
         11    1    3    3    0    0  0.29437379851E+02 -0.98118537157E+01 -0.90894997617E+01  0.32333431801E+02  0.51100000000E-03 0. -1.
        -11    1    3    3    0    0  0.37956377362E+01  0.95227071815E+01  0.15927985922E+01  0.10374286747E+02  0.51100000000E-03 0.  1.
         12    1    3    3    0    0  0.61430665492E+01  0.45298359791E+01 -0.17069078000E+01  0.78211389748E+01  0.00000000000E+00 0. -1.
</event>
<event>
 7    1  0.5525118E-011  0.5052886E+02  0.7816164E-02  0.1300439E+00
        -11   -1    0    0    0    0  0.00000000000E+00  0.00000000000E+00  0.45593999997E+02  0.45594000000E+02  0.51100000000E-03 0.  1.
         11   -1    0    0    0    0 -0.00000000000E+00 -0.00000000000E+00 -0.45593999997E+02  0.45594000000E+02  0.51100000000E-03 0. -1.
    9900012    2    1    2    0    0  0.10329373465E+02 -0.30808685516E+02 -0.24439610900E+02  0.50528860310E+02  0.30000001398E+02 0.  0.
        -12    1    1    2    0    0 -0.10329373465E+02  0.30808685516E+02  0.24439610900E+02  0.40659139690E+02  0.00000000000E+00 0.  1.
         11    1    3    3    0    0  0.42956316973E+01  0.52306068120E-01 -0.77246143473E+01  0.88388265442E+01  0.51100000000E-03 0. -1.
        -11    1    3    3    0    0  0.25671945743E+01 -0.27286558690E+02 -0.21462097115E+02  0.34810463742E+02  0.51100000000E-03 0.  1.
        -12    1    3    3    0    0  0.34665471939E+01 -0.35744328942E+01  0.47471005620E+01  0.68795700235E+01  0.00000000000E+00 0.  1.
</event>
<event>
 7    1  0.5525118E-011  0.5052886E+02  0.7816164E-02  0.1300439E+00
        -11   -1    0    0    0    0  0.00000000000E+00  0.00000000000E+00  0.45593999997E+02  0.45594000000E+02  0.51100000000E-03 0. -1.
         11   -1    0    0    0    0 -0.00000000000E+00 -0.00000000000E+00 -0.45593999997E+02  0.45594000000E+02  0.51100000000E-03 0.  1.
    9900012    2    1    2    0    0  0.31428496333E+02 -0.25649865091E+02  0.27385377905E+01  0.50528861419E+02  0.30000004768E+02 0.  0.
        -12    1    1    2    0    0 -0.31428496333E+02  0.25649865091E+02 -0.27385377905E+01  0.40659138581E+02  0.00000000000E+00 0.  1.
         11    1    3    3    0    0  0.25214723028E+02 -0.24230570896E+02  0.49313747199E+01  0.35316020164E+02  0.51100000000E-03 0. -1.
        -11    1    3    3    0    0  0.43437678045E+01 -0.18255731780E+01 -0.78972176344E+01  0.91960362545E+01  0.51100000000E-03 0.  1.
         12    1    3    3    0    0  0.18700055011E+01  0.40627898346E+00  0.57043807050E+01  0.60168050005E+01  0.00000000000E+00 0. -1.
</event>
<event>
 7    1  0.5525118E-011  0.5052887E+02  0.7816164E-02  0.1300439E+00
        -11   -1    0    0    0    0  0.00000000000E+00  0.00000000000E+00  0.45593999997E+02  0.45594000000E+02  0.51100000000E-03 0.  1.
         11   -1    0    0    0    0 -0.00000000000E+00 -0.00000000000E+00 -0.45593999997E+02  0.45594000000E+02  0.51100000000E-03 0. -1.
    9900012    2    1    2    0    0 -0.36339941828E+02 -0.18236255570E+02  0.11244185122E+00  0.50528867785E+02  0.30000024119E+02 0.  0.
        -12    1    1    2    0    0  0.36339941828E+02  0.18236255570E+02 -0.11244185122E+00  0.40659132215E+02  0.00000000000E+00 0.  1.
         11    1    3    3    0    0 -0.32731711892E+01 -0.50878872894E+01 -0.10338965216E+02  0.11978916842E+02  0.51100000000E-03 0.  1.
        -11    1    3    3    0    0 -0.23622428455E+02 -0.77843959230E+01  0.23158464997E+01  0.24979573481E+02  0.51100000000E-03 0. -1.
        -12    1    3    3    0    0 -0.94443421838E+01 -0.53639723577E+01  0.81355605672E+01  0.13570377463E+02  0.00000000000E+00 0.  1.
</event>
<event>
 7    1  0.5525118E-011  0.5052886E+02  0.7816164E-02  0.1300439E+00
        -11   -1    0    0    0    0  0.00000000000E+00  0.00000000000E+00  0.45593999997E+02  0.45594000000E+02  0.51100000000E-03 0. -1.
         11   -1    0    0    0    0 -0.00000000000E+00 -0.00000000000E+00 -0.45593999997E+02  0.45594000000E+02  0.51100000000E-03 0.  1.
    9900012    2    1    2    0    0 -0.25065092707E+02 -0.31820811000E+02 -0.35132334693E+01  0.50528859644E+02  0.29999999372E+02 0.  0.
        -12    1    1    2    0    0  0.25065092707E+02  0.31820811000E+02  0.35132334693E+01  0.40659140356E+02  0.00000000000E+00 0.  1.
         11    1    3    3    0    0 -0.61226937615E+01 -0.79177119765E+01 -0.47624519526E+01  0.11084154939E+02  0.51100000000E-03 0. -1.
        -11    1    3    3    0    0 -0.45296062237E+01  0.52269213260E+01 -0.80054673461E-01  0.69169681293E+01  0.51100000000E-03 0.  1.
        -12    1    3    3    0    0 -0.14412792722E+02 -0.29130020350E+02  0.13292731567E+01  0.32527736576E+02  0.00000000000E+00 0.  1.
</event>
<event>
 7    1  0.5525118E-011  0.5052886E+02  0.7816164E-02  0.1300439E+00
        -11   -1    0    0    0    0  0.00000000000E+00  0.00000000000E+00  0.45593999997E+02  0.45594000000E+02  0.51100000000E-03 0.  1.
         11   -1    0    0    0    0 -0.00000000000E+00 -0.00000000000E+00 -0.45593999997E+02  0.45594000000E+02  0.51100000000E-03 0. -1.
    9900012    2    1    2    0    0  0.38820235963E+02 -0.25986771684E+01 -0.11806862312E+02  0.50528857843E+02  0.29999993900E+02 0.  0.
        -12    1    1    2    0    0 -0.38820235963E+02  0.25986771684E+01  0.11806862312E+02  0.40659142157E+02  0.00000000000E+00 0.  1.
         11    1    3    3    0    0  0.61876454549E+01  0.26882909321E+00 -0.72354364560E+01  0.95242199852E+01  0.51100000000E-03 0. -1.
        -11    1    3    3    0    0  0.29213528102E+02 -0.72670295168E+00  0.58742089230E+01  0.29807124183E+02  0.51100000000E-03 0.  1.
        -12    1    3    3    0    0  0.34190624065E+01 -0.21408033099E+01 -0.10445634779E+02  0.11197513675E+02  0.00000000000E+00 0.  1.
</event>
<event>
 7    1  0.5525118E-011  0.5052886E+02  0.7816164E-02  0.1300439E+00
        -11   -1    0    0    0    0  0.00000000000E+00  0.00000000000E+00  0.45593999997E+02  0.45594000000E+02  0.51100000000E-03 0.  1.
         11   -1    0    0    0    0 -0.00000000000E+00 -0.00000000000E+00 -0.45593999997E+02  0.45594000000E+02  0.51100000000E-03 0. -1.
    9900012    2    1    2    0    0  0.37796915329E+02  0.14313304708E+02  0.44371205990E+01  0.50528861553E+02  0.30000005175E+02 0.  0.
        -12    1    1    2    0    0 -0.37796915329E+02 -0.14313304708E+02 -0.44371205990E+01  0.40659138447E+02  0.00000000000E+00 0.  1.
         11    1    3    3    0    0  0.21523739149E+02  0.34492631290E+01  0.25736811852E+01  0.21949774445E+02  0.51100000000E-03 0. -1.
        -11    1    3    3    0    0 -0.19037617662E+01 -0.17073351506E+01 -0.48486119219E+01  0.54816366178E+01  0.51100000000E-03 0.  1.
         12    1    3    3    0    0  0.18176937946E+02  0.12571376730E+02  0.67120513358E+01  0.23097450490E+02  0.00000000000E+00 0. -1.
</event>
<event>
 7    1  0.5525118E-011  0.5052887E+02  0.7816164E-02  0.1300439E+00
        -11   -1    0    0    0    0  0.00000000000E+00  0.00000000000E+00  0.45593999997E+02  0.45594000000E+02  0.51100000000E-03 0. -1.
         11   -1    0    0    0    0 -0.00000000000E+00 -0.00000000000E+00 -0.45593999997E+02  0.45594000000E+02  0.51100000000E-03 0.  1.
    9900012    2    1    2    0    0  0.23233747837E+02  0.15027281849E+02  0.29791593017E+02  0.50528865075E+02  0.30000015883E+02 0.  0.
        -12    1    1    2    0    0 -0.23233747837E+02 -0.15027281849E+02 -0.29791593017E+02  0.40659134925E+02  0.00000000000E+00 0.  1.
         11    1    3    3    0    0  0.94263202718E+01 -0.73819370917E+01  0.90694912183E+01  0.15020125842E+02  0.51100000000E-03 0. -1.
        -11    1    3    3    0    0  0.55160773459E+00  0.87649415722E+01  0.24171496993E+01  0.91088465124E+01  0.51100000000E-03 0.  1.
         12    1    3    3    0    0  0.13255819831E+02  0.13644277369E+02  0.18304952099E+02  0.26399892721E+02  0.00000000000E+00 0. -1.
</event>
<event>
 7    1  0.5525118E-011  0.5052886E+02  0.7816164E-02  0.1300439E+00
        -11   -1    0    0    0    0  0.00000000000E+00  0.00000000000E+00  0.45593999997E+02  0.45594000000E+02  0.51100000000E-03 0.  1.
         11   -1    0    0    0    0 -0.00000000000E+00 -0.00000000000E+00 -0.45593999997E+02  0.45594000000E+02  0.51100000000E-03 0. -1.
    9900012    2    1    2    0    0  0.18132920705E+01  0.17533695313E+02 -0.36639420166E+02  0.50528860688E+02  0.30000002549E+02 0.  0.
        -12    1    1    2    0    0 -0.18132920705E+01 -0.17533695313E+02  0.36639420166E+02  0.40659139312E+02  0.00000000000E+00 0.  1.
         11    1    3    3    0    0  0.72859011508E+01  0.21926845373E+02 -0.17088368256E+02  0.28738184242E+02  0.51100000000E-03 0. -1.
        -11    1    3    3    0    0  0.21942248791E+00 -0.30672555815E+01 -0.32529678057E+01  0.44763827849E+01  0.51100000000E-03 0.  1.
         12    1    3    3    0    0 -0.56920315683E+01 -0.13258944791E+01 -0.16298084104E+02  0.17314293662E+02  0.00000000000E+00 0. -1.
</event>
<event>
 7    1  0.5525118E-011  0.5052885E+02  0.7816164E-02  0.1300439E+00
        -11   -1    0    0    0    0  0.00000000000E+00  0.00000000000E+00  0.45593999997E+02  0.45594000000E+02  0.51100000000E-03 0. -1.
         11   -1    0    0    0    0 -0.00000000000E+00 -0.00000000000E+00 -0.45593999997E+02  0.45594000000E+02  0.51100000000E-03 0.  1.
    9900012    2    1    2    0    0 -0.34615668634E+02 -0.19011616470E+02 -0.96685445459E+01  0.50528845688E+02  0.29999956952E+02 0.  0.
        -12    1    1    2    0    0  0.34615668634E+02  0.19011616470E+02  0.96685445459E+01  0.40659154312E+02  0.00000000000E+00 0.  1.
         11    1    3    3    0    0 -0.19940812283E+02  0.43211951739E+01 -0.17603415547E+01  0.20479441517E+02  0.51100000000E-03 0. -1.
        -11    1    3    3    0    0 -0.99816301817E+01 -0.19701240606E+02 -0.92844173931E+01  0.23957717527E+02  0.51100000000E-03 0.  1.
        -12    1    3    3    0    0 -0.46932261696E+01 -0.36315710380E+01  0.13762144019E+01  0.60916866435E+01  0.00000000000E+00 0.  1.
</event>
<event>
 7    1  0.5525118E-011  0.5052884E+02  0.7816164E-02  0.1300439E+00
        -11   -1    0    0    0    0  0.00000000000E+00  0.00000000000E+00  0.45593999997E+02  0.45594000000E+02  0.51100000000E-03 0. -1.
         11   -1    0    0    0    0 -0.00000000000E+00 -0.00000000000E+00 -0.45593999997E+02  0.45594000000E+02  0.51100000000E-03 0.  1.
    9900012    2    1    2    0    0  0.10997792658E+02  0.72719451891E+01  0.38462123833E+02  0.50528836212E+02  0.29999928151E+02 0.  0.
        -12    1    1    2    0    0 -0.10997792658E+02 -0.72719451891E+01 -0.38462123833E+02  0.40659163788E+02  0.00000000000E+00 0.  1.
         11    1    3    3    0    0 -0.47037432491E+01  0.10678086993E+02  0.59030981819E+01  0.13076441060E+02  0.51100000000E-03 0. -1.
        -11    1    3    3    0    0  0.35906658546E+01  0.36989653155E+00  0.16990947529E+02  0.17370146889E+02  0.51100000000E-03 0.  1.
         12    1    3    3    0    0  0.12110870053E+02 -0.37760383354E+01  0.15568078121E+02  0.20082248264E+02  0.00000000000E+00 0. -1.
</event>
<event>
 7    1  0.5525118E-011  0.5052886E+02  0.7816164E-02  0.1300439E+00
        -11   -1    0    0    0    0  0.00000000000E+00  0.00000000000E+00  0.45593999997E+02  0.45594000000E+02  0.51100000000E-03 0. -1.
         11   -1    0    0    0    0 -0.00000000000E+00 -0.00000000000E+00 -0.45593999997E+02  0.45594000000E+02  0.51100000000E-03 0.  1.
    9900012    2    1    2    0    0 -0.27584974159E+02 -0.13635836142E+02  0.26576280169E+02  0.50528862106E+02  0.30000006858E+02 0.  0.
        -12    1    1    2    0    0  0.27584974159E+02  0.13635836142E+02 -0.26576280169E+02  0.40659137894E+02  0.00000000000E+00 0.  1.
         11    1    3    3    0    0 -0.16544263556E+01 -0.71953142938E+01  0.13818150140E+02  0.15666874222E+02  0.51100000000E-03 0. -1.
        -11    1    3    3    0    0 -0.12621452445E+02 -0.10569524072E+02  0.77085303638E+00  0.16480598156E+02  0.51100000000E-03 0.  1.
         12    1    3    3    0    0 -0.13309095358E+02  0.41290022237E+01  0.11987276993E+02  0.18381389728E+02  0.00000000000E+00 0. -1.
</event>
<event>
 7    1  0.5525118E-011  0.5052885E+02  0.7816164E-02  0.1300439E+00
        -11   -1    0    0    0    0  0.00000000000E+00  0.00000000000E+00  0.45593999997E+02  0.45594000000E+02  0.51100000000E-03 0. -1.
         11   -1    0    0    0    0 -0.00000000000E+00 -0.00000000000E+00 -0.45593999997E+02  0.45594000000E+02  0.51100000000E-03 0.  1.
    9900012    2    1    2    0    0 -0.13995051710E+02 -0.33060002861E+02 -0.19087725333E+02  0.50528849493E+02  0.29999968519E+02 0.  0.
        -12    1    1    2    0    0  0.13995051710E+02  0.33060002861E+02  0.19087725333E+02  0.40659150507E+02  0.00000000000E+00 0.  1.
         11    1    3    3    0    0  0.38999187185E+01 -0.17429087432E+02 -0.37286091797E+01  0.18245135829E+02  0.51100000000E-03 0. -1.
        -11    1    3    3    0    0 -0.17267004134E+02 -0.67227148287E+01 -0.14058700223E+02  0.23259221369E+02  0.51100000000E-03 0.  1.
        -12    1    3    3    0    0 -0.62796629455E+00 -0.89082006003E+01 -0.13004159297E+01  0.90244922955E+01  0.00000000000E+00 0.  1.
</event>
<event>
 7    1  0.5525118E-011  0.5052886E+02  0.7816164E-02  0.1300439E+00
        -11   -1    0    0    0    0  0.00000000000E+00  0.00000000000E+00  0.45593999997E+02  0.45594000000E+02  0.51100000000E-03 0.  1.
         11   -1    0    0    0    0 -0.00000000000E+00 -0.00000000000E+00 -0.45593999997E+02  0.45594000000E+02  0.51100000000E-03 0. -1.
    9900012    2    1    2    0    0 -0.33634553586E+02  0.20717737088E+01 -0.22750617738E+02  0.50528855288E+02  0.29999986135E+02 0.  0.
        -12    1    1    2    0    0  0.33634553586E+02 -0.20717737088E+01  0.22750617738E+02  0.40659144712E+02  0.00000000000E+00 0.  1.
         11    1    3    3    0    0 -0.68303569401E+00  0.25389688017E+01 -0.11622094436E+02  0.11915786993E+02  0.51100000000E-03 0. -1.
        -11    1    3    3    0    0 -0.16285541462E+02 -0.42075781550E+01  0.21784689110E+01  0.16960787178E+02  0.51100000000E-03 0.  1.
         12    1    3    3    0    0 -0.16665976430E+02  0.37403830621E+01 -0.13306992213E+02  0.21652281117E+02  0.00000000000E+00 0. -1.
</event>
<event>
 7    1  0.5525118E-011  0.5052886E+02  0.7816164E-02  0.1300439E+00
        -11   -1    0    0    0    0  0.00000000000E+00  0.00000000000E+00  0.45593999997E+02  0.45594000000E+02  0.51100000000E-03 0.  1.
         11   -1    0    0    0    0 -0.00000000000E+00 -0.00000000000E+00 -0.45593999997E+02  0.45594000000E+02  0.51100000000E-03 0. -1.
    9900012    2    1    2    0    0  0.23390080097E+02 -0.15803952938E+02 -0.29262687000E+02  0.50528860487E+02  0.30000001937E+02 0.  0.
        -12    1    1    2    0    0 -0.23390080097E+02  0.15803952938E+02  0.29262687000E+02  0.40659139513E+02  0.00000000000E+00 0.  1.
         11    1    3    3    0    0  0.21392840896E+02 -0.66079790112E+01 -0.22695486500E+02  0.31881093707E+02  0.51100000000E-03 0. -1.
        -11    1    3    3    0    0 -0.63438423292E+01 -0.34301052952E+01 -0.17467455007E+01  0.74203152183E+01  0.51100000000E-03 0.  1.
        -12    1    3    3    0    0  0.83410815306E+01 -0.57658686315E+01 -0.48204550002E+01  0.11227451562E+02  0.00000000000E+00 0.  1.
</event>
<event>
 7    1  0.5525118E-011  0.5052886E+02  0.7816164E-02  0.1300439E+00
        -11   -1    0    0    0    0  0.00000000000E+00  0.00000000000E+00  0.45593999997E+02  0.45594000000E+02  0.51100000000E-03 0.  1.
         11   -1    0    0    0    0 -0.00000000000E+00 -0.00000000000E+00 -0.45593999997E+02  0.45594000000E+02  0.51100000000E-03 0. -1.
    9900012    2    1    2    0    0 -0.14872347926E+02  0.17333715024E+02 -0.33638092428E+02  0.50528859926E+02  0.30000000230E+02 0.  0.
        -12    1    1    2    0    0  0.14872347926E+02 -0.17333715024E+02  0.33638092428E+02  0.40659140074E+02  0.00000000000E+00 0.  1.
         11    1    3    3    0    0 -0.15444822356E+02  0.15424784131E+02 -0.28439027150E+02  0.35850310579E+02  0.51100000000E-03 0. -1.
        -11    1    3    3    0    0  0.20508165326E+01 -0.42179334850E+01 -0.67201047950E+01  0.81949142797E+01  0.51100000000E-03 0.  1.
         12    1    3    3    0    0 -0.14783421024E+01  0.61268643777E+01  0.15210395166E+01  0.64836350673E+01  0.00000000000E+00 0. -1.
</event>
<event>
 7    1  0.5525118E-011  0.5052887E+02  0.7816164E-02  0.1300439E+00
        -11   -1    0    0    0    0  0.00000000000E+00  0.00000000000E+00  0.45593999997E+02  0.45594000000E+02  0.51100000000E-03 0.  1.
         11   -1    0    0    0    0 -0.00000000000E+00 -0.00000000000E+00 -0.45593999997E+02  0.45594000000E+02  0.51100000000E-03 0. -1.
    9900012    2    1    2    0    0 -0.26532915205E+02 -0.22488507857E+02 -0.21057924555E+02  0.50528871117E+02  0.30000034248E+02 0.  0.
        -12    1    1    2    0    0  0.26532915205E+02  0.22488507857E+02  0.21057924555E+02  0.40659128883E+02  0.00000000000E+00 0.  1.
         11    1    3    3    0    0  0.18414275448E+01 -0.69234396780E+01 -0.19529991635E+01  0.74255692288E+01  0.51100000000E-03 0. -1.
        -11    1    3    3    0    0 -0.26552999421E+02 -0.15810378969E+02 -0.81020137302E+01  0.31947965321E+02  0.51100000000E-03 0.  1.
        -12    1    3    3    0    0 -0.18213433295E+01  0.24531079036E+00 -0.11002911661E+02  0.11155336568E+02  0.00000000000E+00 0.  1.
</event>
<event>
 7    1  0.5525118E-011  0.5052891E+02  0.7816164E-02  0.1300439E+00
        -11   -1    0    0    0    0  0.00000000000E+00  0.00000000000E+00  0.45593999997E+02  0.45594000000E+02  0.51100000000E-03 0. -1.
         11   -1    0    0    0    0 -0.00000000000E+00 -0.00000000000E+00 -0.45593999997E+02  0.45594000000E+02  0.51100000000E-03 0.  1.
    9900012    2    1    2    0    0 -0.16916276045E+02  0.36653610313E+02 -0.48491434270E+01  0.50528908321E+02  0.30000147331E+02 0.  0.
        -12    1    1    2    0    0  0.16916276045E+02 -0.36653610313E+02  0.48491434270E+01  0.40659091679E+02  0.00000000000E+00 0.  1.
         11    1    3    3    0    0 -0.67419466052E+01  0.31301983060E+02 -0.49030714950E+01  0.32393025451E+02  0.51100000000E-03 0. -1.
        -11    1    3    3    0    0  0.91340953397E+00 -0.36978975125E+01  0.31013427019E+00  0.38216418613E+01  0.51100000000E-03 0.  1.
        -12    1    3    3    0    0 -0.11087738974E+02  0.90495247656E+01 -0.25620620214E+00  0.14314241008E+02  0.00000000000E+00 0.  1.
</event>
<event>
 7    1  0.5525118E-011  0.5052886E+02  0.7816164E-02  0.1300439E+00
        -11   -1    0    0    0    0  0.00000000000E+00  0.00000000000E+00  0.45593999997E+02  0.45594000000E+02  0.51100000000E-03 0.  1.
         11   -1    0    0    0    0 -0.00000000000E+00 -0.00000000000E+00 -0.45593999997E+02  0.45594000000E+02  0.51100000000E-03 0. -1.
    9900012    2    1    2    0    0 -0.28552777937E+02  0.11279357095E+02 -0.26658591916E+02  0.50528861453E+02  0.30000004873E+02 0.  0.
        -12    1    1    2    0    0  0.28552777937E+02 -0.11279357095E+02  0.26658591916E+02  0.40659138547E+02  0.00000000000E+00 0.  1.
         11    1    3    3    0    0 -0.13042716902E+02  0.10970779554E+02 -0.16683285505E+02  0.23849580368E+02  0.51100000000E-03 0. -1.
        -11    1    3    3    0    0 -0.52007700493E+01 -0.64673980415E+01 -0.11571284211E+02  0.14239728406E+02  0.51100000000E-03 0.  1.
        -12    1    3    3    0    0 -0.10309290986E+02  0.67759755818E+01  0.15959777997E+01  0.12439552679E+02  0.00000000000E+00 0.  1.
</event>
<event>
 7    1  0.5525118E-011  0.5052886E+02  0.7816164E-02  0.1300439E+00
        -11   -1    0    0    0    0  0.00000000000E+00  0.00000000000E+00  0.45593999997E+02  0.45594000000E+02  0.51100000000E-03 0.  1.
         11   -1    0    0    0    0 -0.00000000000E+00 -0.00000000000E+00 -0.45593999997E+02  0.45594000000E+02  0.51100000000E-03 0. -1.
    9900012    2    1    2    0    0 -0.20601043803E+02 -0.67658993367E+01 -0.34394549444E+02  0.50528862883E+02  0.30000009220E+02 0.  0.
        -12    1    1    2    0    0  0.20601043803E+02  0.67658993367E+01  0.34394549444E+02  0.40659137117E+02  0.00000000000E+00 0.  1.
         11    1    3    3    0    0 -0.95412222277E+01 -0.79747766531E+01 -0.95465019459E+01  0.15676979426E+02  0.51100000000E-03 0. -1.
        -11    1    3    3    0    0 -0.44692889288E+00  0.37075472596E+01  0.30993399575E+01  0.48529950083E+01  0.51100000000E-03 0.  1.
        -12    1    3    3    0    0 -0.10612892683E+02 -0.24986699433E+01 -0.27947387455E+02  0.29998888449E+02  0.00000000000E+00 0.  1.
</event>
<event>
 7    1  0.5525118E-011  0.5052885E+02  0.7816164E-02  0.1300439E+00
        -11   -1    0    0    0    0  0.00000000000E+00  0.00000000000E+00  0.45593999997E+02  0.45594000000E+02  0.51100000000E-03 0.  1.
         11   -1    0    0    0    0 -0.00000000000E+00 -0.00000000000E+00 -0.45593999997E+02  0.45594000000E+02  0.51100000000E-03 0. -1.
    9900012    2    1    2    0    0  0.21884697321E+02  0.15179582108E+02 -0.30721433840E+02  0.50528853587E+02  0.29999980964E+02 0.  0.
        -12    1    1    2    0    0 -0.21884697321E+02 -0.15179582108E+02  0.30721433840E+02  0.40659146413E+02  0.00000000000E+00 0.  1.
         11    1    3    3    0    0  0.94472741040E+01  0.19935166347E+02 -0.19524774721E+02  0.29459780608E+02  0.51100000000E-03 0. -1.
        -11    1    3    3    0    0  0.33704404881E+01 -0.75637006237E+01 -0.42564233412E+01  0.93105626108E+01  0.51100000000E-03 0.  1.
         12    1    3    3    0    0  0.90669827291E+01  0.28081163845E+01 -0.69402357777E+01  0.11758510369E+02  0.00000000000E+00 0. -1.
</event>
<event>
 7    1  0.5525118E-011  0.5052890E+02  0.7816164E-02  0.1300439E+00
        -11   -1    0    0    0    0  0.00000000000E+00  0.00000000000E+00  0.45593999997E+02  0.45594000000E+02  0.51100000000E-03 0.  1.
         11   -1    0    0    0    0 -0.00000000000E+00 -0.00000000000E+00 -0.45593999997E+02  0.45594000000E+02  0.51100000000E-03 0. -1.
    9900012    2    1    2    0    0 -0.32867181978E+01  0.16261243703E+02 -0.37120509361E+02  0.50528895503E+02  0.30000108370E+02 0.  0.
        -12    1    1    2    0    0  0.32867181978E+01 -0.16261243703E+02  0.37120509361E+02  0.40659104497E+02  0.00000000000E+00 0.  1.
         11    1    3    3    0    0  0.48432540666E+01 -0.79322719245E+00 -0.37070426509E+01  0.61504865506E+01  0.51100000000E-03 0. -1.
        -11    1    3    3    0    0 -0.15795944691E+02  0.12293910450E+02 -0.25145974182E+02  0.32139883645E+02  0.51100000000E-03 0.  1.
        -12    1    3    3    0    0  0.76659724271E+01  0.47605604455E+01 -0.82674925278E+01  0.12238525308E+02  0.00000000000E+00 0.  1.
</event>
<event>
 7    1  0.5525118E-011  0.5052886E+02  0.7816164E-02  0.1300439E+00
        -11   -1    0    0    0    0  0.00000000000E+00  0.00000000000E+00  0.45593999997E+02  0.45594000000E+02  0.51100000000E-03 0.  1.
         11   -1    0    0    0    0 -0.00000000000E+00 -0.00000000000E+00 -0.45593999997E+02  0.45594000000E+02  0.51100000000E-03 0. -1.
    9900012    2    1    2    0    0  0.21492173548E+02 -0.31517275322E+02 -0.14068186068E+02  0.50528855558E+02  0.29999986953E+02 0.  0.
        -12    1    1    2    0    0 -0.21492173548E+02  0.31517275322E+02  0.14068186068E+02  0.40659144442E+02  0.00000000000E+00 0.  1.
         11    1    3    3    0    0  0.18733839041E+02 -0.81952140275E+01 -0.46516423566E+01  0.20970360871E+02  0.51100000000E-03 0. -1.
        -11    1    3    3    0    0  0.54243964550E+01 -0.24503868887E+02 -0.82625537975E+01  0.26422215328E+02  0.51100000000E-03 0.  1.
         12    1    3    3    0    0 -0.26660619484E+01  0.11818075918E+01 -0.11539899139E+01  0.31362793591E+01  0.00000000000E+00 0. -1.
</event>
<event>
 7    1  0.5525118E-011  0.5052886E+02  0.7816164E-02  0.1300439E+00
        -11   -1    0    0    0    0  0.00000000000E+00  0.00000000000E+00  0.45593999997E+02  0.45594000000E+02  0.51100000000E-03 0.  1.
         11   -1    0    0    0    0 -0.00000000000E+00 -0.00000000000E+00 -0.45593999997E+02  0.45594000000E+02  0.51100000000E-03 0. -1.
    9900012    2    1    2    0    0 -0.29341224490E+02 -0.25897274283E+01 -0.28027694835E+02  0.50528858095E+02  0.29999994665E+02 0.  0.
        -12    1    1    2    0    0  0.29341224490E+02  0.25897274283E+01  0.28027694835E+02  0.40659141905E+02  0.00000000000E+00 0.  1.
         11    1    3    3    0    0 -0.14483266504E+02  0.64169289086E+01  0.68411219299E+00  0.15855913566E+02  0.51100000000E-03 0. -1.
        -11    1    3    3    0    0 -0.82590490871E+01 -0.21632078162E+01 -0.20130008077E+02  0.21865694257E+02  0.51100000000E-03 0.  1.
        -12    1    3    3    0    0 -0.65989088990E+01 -0.68434485208E+01 -0.85817989503E+01  0.12807250272E+02  0.00000000000E+00 0.  1.
</event>
<event>
 7    1  0.5525118E-011  0.5052886E+02  0.7816164E-02  0.1300439E+00
        -11   -1    0    0    0    0  0.00000000000E+00  0.00000000000E+00  0.45593999997E+02  0.45594000000E+02  0.51100000000E-03 0.  1.
         11   -1    0    0    0    0 -0.00000000000E+00 -0.00000000000E+00 -0.45593999997E+02  0.45594000000E+02  0.51100000000E-03 0. -1.
    9900012    2    1    2    0    0 -0.11479878469E+02 -0.38967016506E+02  0.17174918305E+01  0.50528858798E+02  0.29999996803E+02 0.  0.
        -12    1    1    2    0    0  0.11479878469E+02  0.38967016506E+02 -0.17174918305E+01  0.40659141202E+02  0.00000000000E+00 0.  1.
         11    1    3    3    0    0 -0.84933230889E+01 -0.39863482448E+02  0.12854165118E+00  0.40758438307E+02  0.51100000000E-03 0. -1.
        -11    1    3    3    0    0  0.13187921779E+01  0.22878600205E+01  0.38842627278E+01  0.46969153156E+01  0.51100000000E-03 0.  1.
         12    1    3    3    0    0 -0.43053475579E+01 -0.13913940790E+01 -0.22953125485E+01  0.50735051762E+01  0.00000000000E+00 0. -1.
</event>
<event>
 7    1  0.5525118E-011  0.5052887E+02  0.7816164E-02  0.1300439E+00
        -11   -1    0    0    0    0  0.00000000000E+00  0.00000000000E+00  0.45593999997E+02  0.45594000000E+02  0.51100000000E-03 0.  1.
         11   -1    0    0    0    0 -0.00000000000E+00 -0.00000000000E+00 -0.45593999997E+02  0.45594000000E+02  0.51100000000E-03 0. -1.
    9900012    2    1    2    0    0  0.21225424471E+02 -0.38142457293E+01 -0.34468798960E+02  0.50528865526E+02  0.30000017252E+02 0.  0.
        -12    1    1    2    0    0 -0.21225424471E+02  0.38142457293E+01  0.34468798960E+02  0.40659134474E+02  0.00000000000E+00 0.  1.
         11    1    3    3    0    0  0.29696366635E+01  0.59839219413E+01 -0.22301270409E+01  0.70426934189E+01  0.51100000000E-03 0. -1.
        -11    1    3    3    0    0  0.11883598981E+02 -0.11293845247E+02 -0.33048021111E+02  0.36890955054E+02  0.51100000000E-03 0.  1.
        -12    1    3    3    0    0  0.63721888269E+01  0.14956775769E+01  0.80934919196E+00  0.65952170528E+01  0.00000000000E+00 0.  1.
</event>
<event>
 7    1  0.5525118E-011  0.5052886E+02  0.7816164E-02  0.1300439E+00
        -11   -1    0    0    0    0  0.00000000000E+00  0.00000000000E+00  0.45593999997E+02  0.45594000000E+02  0.51100000000E-03 0.  1.
         11   -1    0    0    0    0 -0.00000000000E+00 -0.00000000000E+00 -0.45593999997E+02  0.45594000000E+02  0.51100000000E-03 0. -1.
    9900012    2    1    2    0    0  0.33285759461E+02  0.12126633783E+02 -0.19954172828E+02  0.50528855358E+02  0.29999986346E+02 0.  0.
        -12    1    1    2    0    0 -0.33285759461E+02 -0.12126633783E+02  0.19954172828E+02  0.40659144642E+02  0.00000000000E+00 0.  1.
         11    1    3    3    0    0  0.50672570735E+01  0.43876299564E+01 -0.14077312370E+02  0.15591636050E+02  0.51100000000E-03 0. -1.
        -11    1    3    3    0    0  0.13145348863E+02  0.86692137639E+01  0.47774140472E+01  0.16455368402E+02  0.51100000000E-03 0.  1.
        -12    1    3    3    0    0  0.15073153524E+02 -0.93020993721E+00 -0.10654274505E+02  0.18481850906E+02  0.00000000000E+00 0.  1.
</event>
<event>
 7    1  0.5525118E-011  0.5052886E+02  0.7816164E-02  0.1300439E+00
        -11   -1    0    0    0    0  0.00000000000E+00  0.00000000000E+00  0.45593999997E+02  0.45594000000E+02  0.51100000000E-03 0. -1.
         11   -1    0    0    0    0 -0.00000000000E+00 -0.00000000000E+00 -0.45593999997E+02  0.45594000000E+02  0.51100000000E-03 0.  1.
    9900012    2    1    2    0    0  0.82209850844E+01  0.11249790709E+02  0.38197162395E+02  0.50528860784E+02  0.30000002838E+02 0.  0.
        -12    1    1    2    0    0 -0.82209850844E+01 -0.11249790709E+02 -0.38197162395E+02  0.40659139216E+02  0.00000000000E+00 0.  1.
         11    1    3    3    0    0  0.97482284662E+01  0.93538558309E+00  0.14634615681E+02  0.17608943205E+02  0.51100000000E-03 0. -1.
        -11    1    3    3    0    0 -0.76356433860E+01  0.13265808519E+02  0.20211679623E+02  0.25353436040E+02  0.51100000000E-03 0.  1.
         12    1    3    3    0    0  0.61084000042E+01 -0.29514033933E+01  0.33508670910E+01  0.75664815379E+01  0.00000000000E+00 0. -1.
</event>
<event>
 7    1  0.5525118E-011  0.5052886E+02  0.7816164E-02  0.1300439E+00
        -11   -1    0    0    0    0  0.00000000000E+00  0.00000000000E+00  0.45593999997E+02  0.45594000000E+02  0.51100000000E-03 0.  1.
         11   -1    0    0    0    0 -0.00000000000E+00 -0.00000000000E+00 -0.45593999997E+02  0.45594000000E+02  0.51100000000E-03 0. -1.
    9900012    2    1    2    0    0 -0.37811477734E+02  0.87092862292E+01 -0.12149326470E+02  0.50528860207E+02  0.30000001086E+02 0.  0.
        -12    1    1    2    0    0  0.37811477734E+02 -0.87092862292E+01  0.12149326470E+02  0.40659139793E+02  0.00000000000E+00 0.  1.
         11    1    3    3    0    0  0.11641560358E+01 -0.26137386937E+01 -0.21626609981E+01  0.35866407805E+01  0.51100000000E-03 0.  1.
        -11    1    3    3    0    0 -0.40060942496E+02  0.13469068064E+02 -0.65822423146E+01  0.42774067171E+02  0.51100000000E-03 0. -1.
         12    1    3    3    0    0  0.10853087266E+01 -0.21460431407E+01 -0.34044231573E+01  0.41681522558E+01  0.00000000000E+00 0. -1.
</event>
<event>
 7    1  0.5525118E-011  0.5052887E+02  0.7816164E-02  0.1300439E+00
        -11   -1    0    0    0    0  0.00000000000E+00  0.00000000000E+00  0.45593999997E+02  0.45594000000E+02  0.51100000000E-03 0. -1.
         11   -1    0    0    0    0 -0.00000000000E+00 -0.00000000000E+00 -0.45593999997E+02  0.45594000000E+02  0.51100000000E-03 0.  1.
    9900012    2    1    2    0    0 -0.17484107845E+02 -0.33958651508E+02  0.13938473425E+02  0.50528867190E+02  0.30000022312E+02 0.  0.
        -12    1    1    2    0    0  0.17484107845E+02  0.33958651508E+02 -0.13938473425E+02  0.40659132810E+02  0.00000000000E+00 0.  1.
         11    1    3    3    0    0 -0.42506988823E+01 -0.26390766227E+02  0.68422556933E+00  0.26739654970E+02  0.51100000000E-03 0. -1.
        -11    1    3    3    0    0 -0.64091751135E+01 -0.14274439078E+01 -0.11913531005E+01  0.66734132358E+01  0.51100000000E-03 0.  1.
         12    1    3    3    0    0 -0.68242338489E+01 -0.61404413740E+01  0.14445600957E+02  0.17115798985E+02  0.00000000000E+00 0. -1.
</event>
<event>
 7    1  0.5525118E-011  0.5052886E+02  0.7816164E-02  0.1300439E+00
        -11   -1    0    0    0    0  0.00000000000E+00  0.00000000000E+00  0.45593999997E+02  0.45594000000E+02  0.51100000000E-03 0.  1.
         11   -1    0    0    0    0 -0.00000000000E+00 -0.00000000000E+00 -0.45593999997E+02  0.45594000000E+02  0.51100000000E-03 0. -1.
    9900012    2    1    2    0    0  0.31294445232E+02 -0.25350843252E+02  0.55819144646E+01  0.50528864187E+02  0.30000013182E+02 0.  0.
        -12    1    1    2    0    0 -0.31294445232E+02  0.25350843252E+02 -0.55819144646E+01  0.40659135813E+02  0.00000000000E+00 0.  1.
         11    1    3    3    0    0 -0.17993428281E+01  0.10259720051E+01 -0.61645071039E+01  0.65031839328E+01  0.51100000000E-03 0.  1.
        -11    1    3    3    0    0  0.27212380265E+02 -0.21970835714E+02  0.10869559700E+02  0.36624835699E+02  0.51100000000E-03 0. -1.
        -12    1    3    3    0    0  0.58814077953E+01 -0.44059795435E+01  0.87686186849E+00  0.74008445552E+01  0.00000000000E+00 0.  1.
</event>
<event>
 7    1  0.5525118E-011  0.5052886E+02  0.7816164E-02  0.1300439E+00
        -11   -1    0    0    0    0  0.00000000000E+00  0.00000000000E+00  0.45593999997E+02  0.45594000000E+02  0.51100000000E-03 0. -1.
         11   -1    0    0    0    0 -0.00000000000E+00 -0.00000000000E+00 -0.45593999997E+02  0.45594000000E+02  0.51100000000E-03 0.  1.
    9900012    2    1    2    0    0  0.21986196351E+02  0.57641974544E+01  0.33712710005E+02  0.50528860583E+02  0.30000002228E+02 0.  0.
        -12    1    1    2    0    0 -0.21986196351E+02 -0.57641974544E+01 -0.33712710005E+02  0.40659139417E+02  0.00000000000E+00 0.  1.
         11    1    3    3    0    0  0.74614116368E+01  0.66455598277E+01  0.11334623700E+02  0.15109924676E+02  0.51100000000E-03 0. -1.
        -11    1    3    3    0    0 -0.53866723305E+01  0.22403358884E+01  0.10534326202E+02  0.12041900700E+02  0.51100000000E-03 0.  1.
        -12    1    3    3    0    0  0.19911457044E+02 -0.31216982617E+01  0.11843760103E+02  0.23377035206E+02  0.00000000000E+00 0.  1.
</event>
<event>
 7    1  0.5525118E-011  0.5052885E+02  0.7816164E-02  0.1300439E+00
        -11   -1    0    0    0    0  0.00000000000E+00  0.00000000000E+00  0.45593999997E+02  0.45594000000E+02  0.51100000000E-03 0. -1.
         11   -1    0    0    0    0 -0.00000000000E+00 -0.00000000000E+00 -0.45593999997E+02  0.45594000000E+02  0.51100000000E-03 0.  1.
    9900012    2    1    2    0    0  0.12279864625E+02 -0.37271323121E+02  0.10640481946E+02  0.50528850249E+02  0.29999970818E+02 0.  0.
        -12    1    1    2    0    0 -0.12279864625E+02  0.37271323121E+02 -0.10640481946E+02  0.40659149751E+02  0.00000000000E+00 0.  1.
         11    1    3    3    0    0 -0.53805775004E+01 -0.26709149434E+02  0.11382178827E+02  0.29527669614E+02  0.51100000000E-03 0. -1.
        -11    1    3    3    0    0  0.50734995894E+00  0.38576033559E+00 -0.67520822657E-01  0.64091679645E+00  0.51100000000E-03 0.  1.
         12    1    3    3    0    0  0.17153092166E+02 -0.10947934022E+02 -0.67417605785E+00  0.20360263839E+02  0.00000000000E+00 0. -1.
</event>
<event>
 7    1  0.5525118E-011  0.5052886E+02  0.7816164E-02  0.1300439E+00
        -11   -1    0    0    0    0  0.00000000000E+00  0.00000000000E+00  0.45593999997E+02  0.45594000000E+02  0.51100000000E-03 0. -1.
         11   -1    0    0    0    0 -0.00000000000E+00 -0.00000000000E+00 -0.45593999997E+02  0.45594000000E+02  0.51100000000E-03 0.  1.
    9900012    2    1    2    0    0 -0.18604113760E+02 -0.30969289870E+02  0.18653562344E+02  0.50528863856E+02  0.30000012177E+02 0.  0.
        -12    1    1    2    0    0  0.18604113760E+02  0.30969289870E+02 -0.18653562344E+02  0.40659136144E+02  0.00000000000E+00 0.  1.
         11    1    3    3    0    0 -0.78413140374E+01 -0.23190450381E+02  0.18894687347E+01  0.24553070828E+02  0.51100000000E-03 0. -1.
        -11    1    3    3    0    0 -0.94065841036E+01 -0.88330896231E+00  0.20474207317E+01  0.96672638908E+01  0.51100000000E-03 0.  1.
         12    1    3    3    0    0 -0.13562156190E+01 -0.68955305265E+01  0.14716672877E+02  0.16308529137E+02  0.00000000000E+00 0. -1.
</event>
<event>
 7    1  0.5525118E-011  0.5052886E+02  0.7816164E-02  0.1300439E+00
        -11   -1    0    0    0    0  0.00000000000E+00  0.00000000000E+00  0.45593999997E+02  0.45594000000E+02  0.51100000000E-03 0.  1.
         11   -1    0    0    0    0 -0.00000000000E+00 -0.00000000000E+00 -0.45593999997E+02  0.45594000000E+02  0.51100000000E-03 0. -1.
    9900012    2    1    2    0    0 -0.95954557434E+01 -0.36317962076E+02 -0.15559525146E+02  0.50528856341E+02  0.29999989335E+02 0.  0.
        -12    1    1    2    0    0  0.95954557434E+01  0.36317962076E+02  0.15559525146E+02  0.40659143659E+02  0.00000000000E+00 0.  1.
         11    1    3    3    0    0 -0.41007771373E+01 -0.26476926043E+02 -0.23875608613E+02  0.35887165850E+02  0.51100000000E-03 0. -1.
        -11    1    3    3    0    0 -0.18585488460E+01 -0.72809680087E+01  0.43477513579E+01  0.86815690453E+01  0.51100000000E-03 0.  1.
         12    1    3    3    0    0 -0.36361297601E+01 -0.25600680243E+01  0.39683321097E+01  0.59601214463E+01  0.00000000000E+00 0. -1.
</event>
<event>
 7    1  0.5525118E-011  0.5052888E+02  0.7816164E-02  0.1300439E+00
        -11   -1    0    0    0    0  0.00000000000E+00  0.00000000000E+00  0.45593999997E+02  0.45594000000E+02  0.51100000000E-03 0. -1.
         11   -1    0    0    0    0 -0.00000000000E+00 -0.00000000000E+00 -0.45593999997E+02  0.45594000000E+02  0.51100000000E-03 0.  1.
    9900012    2    1    2    0    0  0.28962509749E+02 -0.14457361502E+02  0.24603284499E+02  0.50528881949E+02  0.30000067173E+02 0.  0.
        -12    1    1    2    0    0 -0.28962509749E+02  0.14457361502E+02 -0.24603284499E+02  0.40659118051E+02  0.00000000000E+00 0.  1.
         11    1    3    3    0    0  0.23844058834E+02  0.19866393461E+01  0.16462946262E+02  0.29043320703E+02  0.51100000000E-03 0.  1.
        -11    1    3    3    0    0  0.55997151575E+01 -0.15129134575E+02  0.10132675415E+02  0.19050423464E+02  0.51100000000E-03 0. -1.
        -12    1    3    3    0    0 -0.48126424262E+00 -0.13148662734E+01 -0.19923371783E+01  0.24351377826E+01  0.00000000000E+00 0.  1.
</event>
<event>
 7    1  0.5525118E-011  0.5052886E+02  0.7816164E-02  0.1300439E+00
        -11   -1    0    0    0    0  0.00000000000E+00  0.00000000000E+00  0.45593999997E+02  0.45594000000E+02  0.51100000000E-03 0.  1.
         11   -1    0    0    0    0 -0.00000000000E+00 -0.00000000000E+00 -0.45593999997E+02  0.45594000000E+02  0.51100000000E-03 0. -1.
    9900012    2    1    2    0    0  0.18974901661E+02 -0.23817518292E+02 -0.26941497706E+02  0.50528863643E+02  0.30000011530E+02 0.  0.
        -12    1    1    2    0    0 -0.18974901661E+02  0.23817518292E+02  0.26941497706E+02  0.40659136357E+02  0.00000000000E+00 0.  1.
         11    1    3    3    0    0  0.17501824137E+02 -0.22427501867E+02 -0.22070393021E+02  0.36005679225E+02  0.51100000000E-03 0. -1.
        -11    1    3    3    0    0  0.57391299403E+01  0.33548211837E+01 -0.26376397649E+00  0.66529699640E+01  0.51100000000E-03 0.  1.
        -12    1    3    3    0    0 -0.42660524161E+01 -0.47448376082E+01 -0.46073407092E+01  0.78702144542E+01  0.00000000000E+00 0.  1.
</event>
<event>
 7    1  0.5525118E-011  0.5052886E+02  0.7816164E-02  0.1300439E+00
        -11   -1    0    0    0    0  0.00000000000E+00  0.00000000000E+00  0.45593999997E+02  0.45594000000E+02  0.51100000000E-03 0.  1.
         11   -1    0    0    0    0 -0.00000000000E+00 -0.00000000000E+00 -0.45593999997E+02  0.45594000000E+02  0.51100000000E-03 0. -1.
    9900012    2    1    2    0    0 -0.80077070804E+01  0.38113658009E+02 -0.11678668880E+02  0.50528860728E+02  0.30000002668E+02 0.  0.
        -12    1    1    2    0    0  0.80077070804E+01 -0.38113658009E+02  0.11678668880E+02  0.40659139272E+02  0.00000000000E+00 0.  1.
         11    1    3    3    0    0 -0.13118774122E+02  0.29117315381E+02 -0.11196468407E+02  0.33842003406E+02  0.51100000000E-03 0. -1.
        -11    1    3    3    0    0  0.91214034169E+01  0.86879303183E+01  0.24630186468E+00  0.12599238008E+02  0.51100000000E-03 0.  1.
         12    1    3    3    0    0 -0.40103363757E+01  0.30841230972E+00 -0.72850233781E+00  0.40876193139E+01  0.00000000000E+00 0. -1.
</event>
<event>
 7    1  0.5525118E-011  0.5052886E+02  0.7816164E-02  0.1300439E+00
        -11   -1    0    0    0    0  0.00000000000E+00  0.00000000000E+00  0.45593999997E+02  0.45594000000E+02  0.51100000000E-03 0.  1.
         11   -1    0    0    0    0 -0.00000000000E+00 -0.00000000000E+00 -0.45593999997E+02  0.45594000000E+02  0.51100000000E-03 0. -1.
    9900012    2    1    2    0    0  0.29382614879E+02  0.20358499894E+02 -0.19374177820E+02  0.50528863987E+02  0.30000012576E+02 0.  0.
        -12    1    1    2    0    0 -0.29382614879E+02 -0.20358499894E+02  0.19374177820E+02  0.40659136013E+02  0.00000000000E+00 0.  1.
         11    1    3    3    0    0  0.14006062752E+02 -0.90680174821E+00 -0.10482579944E+02  0.17517892733E+02  0.51100000000E-03 0. -1.
        -11    1    3    3    0    0 -0.34172364841E+01  0.42210895219E+00  0.35617490594E+00  0.34615808499E+01  0.51100000000E-03 0.  1.
         12    1    3    3    0    0  0.18793788611E+02  0.20843192690E+02 -0.92477727818E+01  0.29549390405E+02  0.00000000000E+00 0. -1.
</event>
<event>
 7    1  0.5525118E-011  0.5052885E+02  0.7816164E-02  0.1300439E+00
        -11   -1    0    0    0    0  0.00000000000E+00  0.00000000000E+00  0.45593999997E+02  0.45594000000E+02  0.51100000000E-03 0. -1.
         11   -1    0    0    0    0 -0.00000000000E+00 -0.00000000000E+00 -0.45593999997E+02  0.45594000000E+02  0.51100000000E-03 0.  1.
    9900012    2    1    2    0    0 -0.27470710507E+02 -0.72371919123E+01  0.29088646543E+02  0.50528852933E+02  0.29999978974E+02 0.  0.
        -12    1    1    2    0    0  0.27470710507E+02  0.72371919123E+01 -0.29088646543E+02  0.40659147067E+02  0.00000000000E+00 0.  1.
         11    1    3    3    0    0 -0.17079581964E+02 -0.92120036230E+01  0.12339754775E+02  0.22996579723E+02  0.51100000000E-03 0. -1.
        -11    1    3    3    0    0  0.12306808966E+01 -0.12045866188E+01  0.15300000081E+02  0.15396610248E+02  0.51100000000E-03 0.  1.
         12    1    3    3    0    0 -0.11621809440E+02  0.31793983295E+01  0.14488916871E+01  0.12135662962E+02  0.00000000000E+00 0. -1.
</event>
<event>
 7    1  0.5525118E-011  0.5052886E+02  0.7816164E-02  0.1300439E+00
        -11   -1    0    0    0    0  0.00000000000E+00  0.00000000000E+00  0.45593999997E+02  0.45594000000E+02  0.51100000000E-03 0.  1.
         11   -1    0    0    0    0 -0.00000000000E+00 -0.00000000000E+00 -0.45593999997E+02  0.45594000000E+02  0.51100000000E-03 0. -1.
    9900012    2    1    2    0    0 -0.13549023129E+02 -0.31584450283E+02 -0.21725834963E+02  0.50528862869E+02  0.30000009175E+02 0.  0.
        -12    1    1    2    0    0  0.13549023129E+02  0.31584450283E+02  0.21725834963E+02  0.40659137131E+02  0.00000000000E+00 0.  1.
         11    1    3    3    0    0 -0.16120802307E+02 -0.24940024791E+02 -0.20203441781E+02  0.35917463213E+02  0.51100000000E-03 0. -1.
        -11    1    3    3    0    0 -0.12488064057E+01  0.34514300106E+01  0.22044102982E+00  0.36770206780E+01  0.51100000000E-03 0.  1.
        -12    1    3    3    0    0  0.38205855834E+01 -0.10095855503E+02 -0.17428342115E+01  0.10934378978E+02  0.00000000000E+00 0.  1.
</event>
<event>
 7    1  0.5525118E-011  0.5052886E+02  0.7816164E-02  0.1300439E+00
        -11   -1    0    0    0    0  0.00000000000E+00  0.00000000000E+00  0.45593999997E+02  0.45594000000E+02  0.51100000000E-03 0. -1.
         11   -1    0    0    0    0 -0.00000000000E+00 -0.00000000000E+00 -0.45593999997E+02  0.45594000000E+02  0.51100000000E-03 0.  1.
    9900012    2    1    2    0    0  0.18999730635E+02  0.13618644401E+02  0.33267227327E+02  0.50528860147E+02  0.30000000904E+02 0.  0.
        -12    1    1    2    0    0 -0.18999730635E+02 -0.13618644401E+02 -0.33267227327E+02  0.40659139853E+02  0.00000000000E+00 0.  1.
         11    1    3    3    0    0  0.27913526894E+01 -0.30255766573E+01  0.22523760500E+02  0.22896845880E+02  0.51100000000E-03 0. -1.
        -11    1    3    3    0    0  0.16524343064E+02  0.12195337508E+02  0.66743143388E+01  0.21594597537E+02  0.51100000000E-03 0.  1.
         12    1    3    3    0    0 -0.31596511807E+00  0.44488835499E+01  0.40691524884E+01  0.60374167299E+01  0.00000000000E+00 0. -1.
</event>
<event>
 7    1  0.5525118E-011  0.5052887E+02  0.7816164E-02  0.1300439E+00
        -11   -1    0    0    0    0  0.00000000000E+00  0.00000000000E+00  0.45593999997E+02  0.45594000000E+02  0.51100000000E-03 0.  1.
         11   -1    0    0    0    0 -0.00000000000E+00 -0.00000000000E+00 -0.45593999997E+02  0.45594000000E+02  0.51100000000E-03 0. -1.
    9900012    2    1    2    0    0 -0.36558315227E+02 -0.13978198444E+02 -0.11012012905E+02  0.50528869756E+02  0.30000030109E+02 0.  0.
        -12    1    1    2    0    0  0.36558315227E+02  0.13978198444E+02  0.11012012905E+02  0.40659130244E+02  0.00000000000E+00 0.  1.
         11    1    3    3    0    0 -0.26542537293E+02 -0.11317244823E+02 -0.86767913829E+01  0.30130931372E+02  0.51100000000E-03 0. -1.
        -11    1    3    3    0    0 -0.79286569198E+01  0.61467491227E+01 -0.46462834420E+01  0.11055952036E+02  0.51100000000E-03 0.  1.
        -12    1    3    3    0    0 -0.20871210142E+01 -0.88077027431E+01  0.23110619195E+01  0.93419863485E+01  0.00000000000E+00 0.  1.
</event>
<event>
 7    1  0.5525118E-011  0.5052885E+02  0.7816164E-02  0.1300439E+00
        -11   -1    0    0    0    0  0.00000000000E+00  0.00000000000E+00  0.45593999997E+02  0.45594000000E+02  0.51100000000E-03 0. -1.
         11   -1    0    0    0    0 -0.00000000000E+00 -0.00000000000E+00 -0.45593999997E+02  0.45594000000E+02  0.51100000000E-03 0.  1.
    9900012    2    1    2    0    0 -0.35903732850E+02  0.39759642742E+01  0.18662271975E+02  0.50528847036E+02  0.29999961050E+02 0.  0.
        -12    1    1    2    0    0  0.35903732850E+02 -0.39759642742E+01 -0.18662271975E+02  0.40659152964E+02  0.00000000000E+00 0.  1.
         11    1    3    3    0    0 -0.19439203696E+02  0.66008811539E+01  0.42144380263E+00  0.20533676911E+02  0.51100000000E-03 0. -1.
        -11    1    3    3    0    0  0.32003577865E+01  0.17577804820E+01  0.24517791644E+01  0.43981022631E+01  0.51100000000E-03 0.  1.
        -12    1    3    3    0    0 -0.19664886941E+02 -0.43826973617E+01  0.15789049008E+02  0.25597067862E+02  0.00000000000E+00 0.  1.
</event>
<event>
 7    1  0.5525118E-011  0.5052887E+02  0.7816164E-02  0.1300439E+00
        -11   -1    0    0    0    0  0.00000000000E+00  0.00000000000E+00  0.45593999997E+02  0.45594000000E+02  0.51100000000E-03 0. -1.
         11   -1    0    0    0    0 -0.00000000000E+00 -0.00000000000E+00 -0.45593999997E+02  0.45594000000E+02  0.51100000000E-03 0.  1.
    9900012    2    1    2    0    0 -0.14991988149E+02 -0.32253667865E+02  0.19700398249E+02  0.50528874449E+02  0.30000044375E+02 0.  0.
        -12    1    1    2    0    0  0.14991988149E+02  0.32253667865E+02 -0.19700398249E+02  0.40659125551E+02  0.00000000000E+00 0.  1.
         11    1    3    3    0    0 -0.54663841306E+01 -0.21366603414E+02 -0.20859678466E+01  0.22153202004E+02  0.51100000000E-03 0. -1.
        -11    1    3    3    0    0 -0.43718980546E+01  0.11169879635E+01  0.27378579015E+01  0.52779750720E+01  0.51100000000E-03 0.  1.
         12    1    3    3    0    0 -0.51537059635E+01 -0.12004052415E+02  0.19048508194E+02  0.23097697373E+02  0.00000000000E+00 0. -1.
</event>
<event>
 7    1  0.5525118E-011  0.5052886E+02  0.7816164E-02  0.1300439E+00
        -11   -1    0    0    0    0  0.00000000000E+00  0.00000000000E+00  0.45593999997E+02  0.45594000000E+02  0.51100000000E-03 0. -1.
         11   -1    0    0    0    0 -0.00000000000E+00 -0.00000000000E+00 -0.45593999997E+02  0.45594000000E+02  0.51100000000E-03 0.  1.
    9900012    2    1    2    0    0  0.34608288321E+02  0.24094466062E+00 -0.21339499357E+02  0.50528857023E+02  0.29999991407E+02 0.  0.
        -12    1    1    2    0    0 -0.34608288321E+02 -0.24094466062E+00  0.21339499357E+02  0.40659142977E+02  0.00000000000E+00 0.  1.
         11    1    3    3    0    0  0.13978708724E+02  0.50418540421E+01 -0.43224285203E+00  0.14866452970E+02  0.51100000000E-03 0. -1.
        -11    1    3    3    0    0  0.65946609488E+01 -0.11556880938E+02 -0.10068170154E+02  0.16685895257E+02  0.51100000000E-03 0.  1.
        -12    1    3    3    0    0  0.14034918648E+02  0.67559715561E+01 -0.10839086351E+02  0.18976508795E+02  0.00000000000E+00 0.  1.
</event>
<event>
 7    1  0.5525118E-011  0.5052884E+02  0.7816164E-02  0.1300439E+00
        -11   -1    0    0    0    0  0.00000000000E+00  0.00000000000E+00  0.45593999997E+02  0.45594000000E+02  0.51100000000E-03 0.  1.
         11   -1    0    0    0    0 -0.00000000000E+00 -0.00000000000E+00 -0.45593999997E+02  0.45594000000E+02  0.51100000000E-03 0. -1.
    9900012    2    1    2    0    0  0.27903636857E+01  0.39390155992E+02 -0.96848527777E+01  0.50528844920E+02  0.29999954617E+02 0.  0.
        -12    1    1    2    0    0 -0.27903636857E+01 -0.39390155992E+02  0.96848527777E+01  0.40659155080E+02  0.00000000000E+00 0.  1.
         11    1    3    3    0    0 -0.22715357704E+01  0.61262252479E+01 -0.90742857326E+01  0.11181823302E+02  0.51100000000E-03 0. -1.
        -11    1    3    3    0    0  0.48972220469E+00  0.21712834135E+02  0.91312192360E+01  0.23559842083E+02  0.51100000000E-03 0.  1.
        -12    1    3    3    0    0  0.45721772515E+01  0.11551096609E+02 -0.97417862811E+01  0.15787179534E+02  0.00000000000E+00 0.  1.
</event>
<event>
 7    1  0.5525118E-011  0.5052886E+02  0.7816164E-02  0.1300439E+00
        -11   -1    0    0    0    0  0.00000000000E+00  0.00000000000E+00  0.45593999997E+02  0.45594000000E+02  0.51100000000E-03 0.  1.
         11   -1    0    0    0    0 -0.00000000000E+00 -0.00000000000E+00 -0.45593999997E+02  0.45594000000E+02  0.51100000000E-03 0. -1.
    9900012    2    1    2    0    0  0.53367741841E+01 -0.25810569331E+02 -0.30959632963E+02  0.50528861776E+02  0.30000005855E+02 0.  0.
        -12    1    1    2    0    0 -0.53367741841E+01  0.25810569331E+02  0.30959632963E+02  0.40659138224E+02  0.00000000000E+00 0.  1.
         11    1    3    3    0    0 -0.46227276355E+01  0.29195642927E+01  0.19950423289E+00  0.54711304729E+01  0.51100000000E-03 0.  1.
        -11    1    3    3    0    0  0.12158674778E+02 -0.23340777931E+02 -0.28031672282E+02  0.38449966683E+02  0.51100000000E-03 0. -1.
         12    1    3    3    0    0 -0.21991729584E+01 -0.53893556925E+01 -0.31274649144E+01  0.66077646199E+01  0.00000000000E+00 0. -1.
</event>
<event>
 7    1  0.5525118E-011  0.5052886E+02  0.7816164E-02  0.1300439E+00
        -11   -1    0    0    0    0  0.00000000000E+00  0.00000000000E+00  0.45593999997E+02  0.45594000000E+02  0.51100000000E-03 0.  1.
         11   -1    0    0    0    0 -0.00000000000E+00 -0.00000000000E+00 -0.45593999997E+02  0.45594000000E+02  0.51100000000E-03 0. -1.
    9900012    2    1    2    0    0 -0.27607518350E+02 -0.11864249149E+02 -0.27390327935E+02  0.50528861522E+02  0.30000005083E+02 0.  0.
        -12    1    1    2    0    0  0.27607518350E+02  0.11864249149E+02  0.27390327935E+02  0.40659138478E+02  0.00000000000E+00 0.  1.
         11    1    3    3    0    0 -0.14005933560E+02 -0.12638544384E+02 -0.14358972789E+02  0.23708206994E+02  0.51100000000E-03 0. -1.
        -11    1    3    3    0    0 -0.25291500422E+01  0.62103342785E+01  0.23489511311E+01  0.71050984134E+01  0.51100000000E-03 0.  1.
        -12    1    3    3    0    0 -0.11072434748E+02 -0.54360390436E+01 -0.15380306277E+02  0.19715556115E+02  0.00000000000E+00 0.  1.
</event>
<event>
 7    1  0.5525118E-011  0.5052886E+02  0.7816164E-02  0.1300439E+00
        -11   -1    0    0    0    0  0.00000000000E+00  0.00000000000E+00  0.45593999997E+02  0.45594000000E+02  0.51100000000E-03 0.  1.
         11   -1    0    0    0    0 -0.00000000000E+00 -0.00000000000E+00 -0.45593999997E+02  0.45594000000E+02  0.51100000000E-03 0. -1.
    9900012    2    1    2    0    0  0.63905847899E+01  0.12512229048E+02 -0.38154557904E+02  0.50528859103E+02  0.29999997728E+02 0.  0.
        -12    1    1    2    0    0 -0.63905847899E+01 -0.12512229048E+02  0.38154557904E+02  0.40659140897E+02  0.00000000000E+00 0.  1.
         11    1    3    3    0    0  0.30849045857E+01  0.17713675629E+02 -0.18826598696E+02  0.26033281762E+02  0.51100000000E-03 0. -1.
        -11    1    3    3    0    0  0.57175791339E+01 -0.74049013751E+01 -0.68447522104E+01  0.11591976044E+02  0.51100000000E-03 0.  1.
        -12    1    3    3    0    0 -0.24118989298E+01  0.22034547941E+01 -0.12483206997E+02  0.12903601296E+02  0.00000000000E+00 0.  1.
</event>
<event>
 7    1  0.5525118E-011  0.5052886E+02  0.7816164E-02  0.1300439E+00
        -11   -1    0    0    0    0  0.00000000000E+00  0.00000000000E+00  0.45593999997E+02  0.45594000000E+02  0.51100000000E-03 0.  1.
         11   -1    0    0    0    0 -0.00000000000E+00 -0.00000000000E+00 -0.45593999997E+02  0.45594000000E+02  0.51100000000E-03 0. -1.
    9900012    2    1    2    0    0 -0.21841807028E+02 -0.21373408674E+01 -0.34227664130E+02  0.50528858936E+02  0.29999997223E+02 0.  0.
        -12    1    1    2    0    0  0.21841807028E+02  0.21373408674E+01  0.34227664130E+02  0.40659141064E+02  0.00000000000E+00 0.  1.
         11    1    3    3    0    0 -0.24761983749E+02 -0.44377182886E+01 -0.33308761124E+02  0.41741139786E+02  0.51100000000E-03 0. -1.
        -11    1    3    3    0    0 -0.58304151127E+00  0.32165292004E+01  0.22560664619E+01  0.39718803661E+01  0.51100000000E-03 0.  1.
         12    1    3    3    0    0  0.35032182326E+01 -0.91615177922E+00 -0.31749694688E+01  0.48158387842E+01  0.00000000000E+00 0. -1.
</event>
<event>
 7    1  0.5525118E-011  0.5052885E+02  0.7816164E-02  0.1300439E+00
        -11   -1    0    0    0    0  0.00000000000E+00  0.00000000000E+00  0.45593999997E+02  0.45594000000E+02  0.51100000000E-03 0.  1.
         11   -1    0    0    0    0 -0.00000000000E+00 -0.00000000000E+00 -0.45593999997E+02  0.45594000000E+02  0.51100000000E-03 0. -1.
    9900012    2    1    2    0    0 -0.91389141078E+01 -0.13730026727E+02 -0.37163601554E+02  0.50528847704E+02  0.29999963080E+02 0.  0.
        -12    1    1    2    0    0  0.91389141078E+01  0.13730026727E+02  0.37163601554E+02  0.40659152296E+02  0.00000000000E+00 0.  1.
         11    1    3    3    0    0 -0.84563304595E+01 -0.30867503453E+01 -0.27562051211E+02  0.28994899892E+02  0.51100000000E-03 0. -1.
        -11    1    3    3    0    0  0.23032706708E+00  0.41871593975E+01 -0.81520227640E+00  0.42719912676E+01  0.51100000000E-03 0.  1.
         12    1    3    3    0    0 -0.91291071538E+00 -0.14830435779E+02 -0.87863480666E+01  0.17261956544E+02  0.00000000000E+00 0. -1.
</event>
<event>
 7    1  0.5525118E-011  0.5052886E+02  0.7816164E-02  0.1300439E+00
        -11   -1    0    0    0    0  0.00000000000E+00  0.00000000000E+00  0.45593999997E+02  0.45594000000E+02  0.51100000000E-03 0.  1.
         11   -1    0    0    0    0 -0.00000000000E+00 -0.00000000000E+00 -0.45593999997E+02  0.45594000000E+02  0.51100000000E-03 0. -1.
    9900012    2    1    2    0    0  0.28342095848E-01 -0.33079444769E+02 -0.23641391259E+02  0.50528857730E+02  0.29999993555E+02 0.  0.
        -12    1    1    2    0    0 -0.28342095848E-01  0.33079444769E+02  0.23641391259E+02  0.40659142270E+02  0.00000000000E+00 0.  1.
         11    1    3    3    0    0  0.24042145341E+01 -0.13865580111E+02 -0.44396990712E+01  0.14756201661E+02  0.51100000000E-03 0. -1.
        -11    1    3    3    0    0 -0.96302695167E+01 -0.43451895608E+00 -0.90655345727E+01  0.13233095444E+02  0.51100000000E-03 0.  1.
        -12    1    3    3    0    0  0.72543970785E+01 -0.18779345702E+02 -0.10136157615E+02  0.22539560625E+02  0.00000000000E+00 0.  1.
</event>
<event>
 7    1  0.5525118E-011  0.5052886E+02  0.7816164E-02  0.1300439E+00
        -11   -1    0    0    0    0  0.00000000000E+00  0.00000000000E+00  0.45593999997E+02  0.45594000000E+02  0.51100000000E-03 0.  1.
         11   -1    0    0    0    0 -0.00000000000E+00 -0.00000000000E+00 -0.45593999997E+02  0.45594000000E+02  0.51100000000E-03 0. -1.
    9900012    2    1    2    0    0  0.59254812005E+00 -0.38165759052E+02 -0.14006772990E+02  0.50528856294E+02  0.29999989192E+02 0.  0.
        -12    1    1    2    0    0 -0.59254812005E+00  0.38165759052E+02  0.14006772990E+02  0.40659143706E+02  0.00000000000E+00 0.  1.
         11    1    3    3    0    0  0.96795657903E+01 -0.44230206764E+01 -0.89429765974E+01  0.13900860998E+02  0.51100000000E-03 0. -1.
        -11    1    3    3    0    0 -0.33719780894E+01 -0.21026998900E+02  0.12320895711E+01  0.21331267284E+02  0.51100000000E-03 0.  1.
         12    1    3    3    0    0 -0.57150395808E+01 -0.12715739476E+02 -0.62958859636E+01  0.15296728013E+02  0.00000000000E+00 0. -1.
</event>
<event>
 7    1  0.5525118E-011  0.5052889E+02  0.7816164E-02  0.1300439E+00
        -11   -1    0    0    0    0  0.00000000000E+00  0.00000000000E+00  0.45593999997E+02  0.45594000000E+02  0.51100000000E-03 0. -1.
         11   -1    0    0    0    0 -0.00000000000E+00 -0.00000000000E+00 -0.45593999997E+02  0.45594000000E+02  0.51100000000E-03 0.  1.
    9900012    2    1    2    0    0  0.13220439204E+02  0.37708017141E+02  0.75158956969E+01  0.50528889611E+02  0.30000090462E+02 0.  0.
        -12    1    1    2    0    0 -0.13220439204E+02 -0.37708017141E+02 -0.75158956969E+01  0.40659110389E+02  0.00000000000E+00 0.  1.
         11    1    3    3    0    0  0.22293633446E+01  0.28604656872E+02 -0.48794792821E+01  0.29103363620E+02  0.51100000000E-03 0. -1.
        -11    1    3    3    0    0  0.83353740459E+01  0.20266846709E+01  0.10637245256E+02  0.13665170988E+02  0.51100000000E-03 0.  1.
         12    1    3    3    0    0  0.26557018137E+01  0.70766755989E+01  0.17581297234E+01  0.77603550034E+01  0.00000000000E+00 0. -1.
</event>
<event>
 7    1  0.5525118E-011  0.5052886E+02  0.7816164E-02  0.1300439E+00
        -11   -1    0    0    0    0  0.00000000000E+00  0.00000000000E+00  0.45593999997E+02  0.45594000000E+02  0.51100000000E-03 0.  1.
         11   -1    0    0    0    0 -0.00000000000E+00 -0.00000000000E+00 -0.45593999997E+02  0.45594000000E+02  0.51100000000E-03 0. -1.
    9900012    2    1    2    0    0  0.74365472689E+01  0.32478482574E+02 -0.23302608732E+02  0.50528860323E+02  0.30000001436E+02 0.  0.
        -12    1    1    2    0    0 -0.74365472689E+01 -0.32478482574E+02  0.23302608732E+02  0.40659139677E+02  0.00000000000E+00 0.  1.
         11    1    3    3    0    0 -0.13193249778E+00  0.25340301941E+02 -0.12644484829E+02  0.28320157229E+02  0.51100000000E-03 0. -1.
        -11    1    3    3    0    0  0.48856181067E+01 -0.27379242336E+01 -0.10584001109E+02  0.11974413269E+02  0.51100000000E-03 0.  1.
        -12    1    3    3    0    0  0.26828616601E+01  0.98761048664E+01 -0.74122794162E-01  0.10234289824E+02  0.00000000000E+00 0.  1.
</event>
<event>
 7    1  0.5525118E-011  0.5052885E+02  0.7816164E-02  0.1300439E+00
        -11   -1    0    0    0    0  0.00000000000E+00  0.00000000000E+00  0.45593999997E+02  0.45594000000E+02  0.51100000000E-03 0. -1.
         11   -1    0    0    0    0 -0.00000000000E+00 -0.00000000000E+00 -0.45593999997E+02  0.45594000000E+02  0.51100000000E-03 0.  1.
    9900012    2    1    2    0    0  0.16665519386E+02  0.37081708591E+02 -0.61131427253E+00  0.50528851539E+02  0.29999974738E+02 0.  0.
        -12    1    1    2    0    0 -0.16665519386E+02 -0.37081708591E+02  0.61131427253E+00  0.40659148461E+02  0.00000000000E+00 0.  1.
         11    1    3    3    0    0  0.94867029457E+01  0.18958135794E+02 -0.11965001604E+02  0.24342754758E+02  0.51100000000E-03 0. -1.
        -11    1    3    3    0    0 -0.24449302370E+01  0.10845744537E+02  0.30157685194E+01  0.11519666595E+02  0.51100000000E-03 0.  1.
         12    1    3    3    0    0  0.96237466775E+01  0.72778282598E+01  0.83379188124E+01  0.14666430186E+02  0.00000000000E+00 0. -1.
</event>
<event>
 7    1  0.5525118E-011  0.5052886E+02  0.7816164E-02  0.1300439E+00
        -11   -1    0    0    0    0  0.00000000000E+00  0.00000000000E+00  0.45593999997E+02  0.45594000000E+02  0.51100000000E-03 0.  1.
         11   -1    0    0    0    0 -0.00000000000E+00 -0.00000000000E+00 -0.45593999997E+02  0.45594000000E+02  0.51100000000E-03 0. -1.
    9900012    2    1    2    0    0 -0.10263186125E+00 -0.23370765394E+02 -0.33271045156E+02  0.50528860140E+02  0.30000000881E+02 0.  0.
        -12    1    1    2    0    0  0.10263186125E+00  0.23370765394E+02  0.33271045156E+02  0.40659139860E+02  0.00000000000E+00 0.  1.
         11    1    3    3    0    0  0.73197677745E+01  0.26324383071E+01 -0.25515636060E+01  0.81865260526E+01  0.51100000000E-03 0. -1.
        -11    1    3    3    0    0 -0.61834526929E+00 -0.15616521966E+02 -0.11274532268E+02  0.19271045310E+02  0.51100000000E-03 0.  1.
         12    1    3    3    0    0 -0.68040543665E+01 -0.10386681735E+02 -0.19444949282E+02  0.23071288778E+02  0.00000000000E+00 0. -1.
</event>
<event>
 7    1  0.5525118E-011  0.5052888E+02  0.7816164E-02  0.1300439E+00
        -11   -1    0    0    0    0  0.00000000000E+00  0.00000000000E+00  0.45593999997E+02  0.45594000000E+02  0.51100000000E-03 0.  1.
         11   -1    0    0    0    0 -0.00000000000E+00 -0.00000000000E+00 -0.45593999997E+02  0.45594000000E+02  0.51100000000E-03 0. -1.
    9900012    2    1    2    0    0  0.37360645476E+02 -0.15943487101E+02 -0.17752779879E+01  0.50528877736E+02  0.30000054367E+02 0.  0.
        -12    1    1    2    0    0 -0.37360645476E+02  0.15943487101E+02  0.17752779879E+01  0.40659122264E+02  0.00000000000E+00 0.  1.
         11    1    3    3    0    0 -0.78966786538E+00 -0.60651674822E+01  0.15296069802E+01  0.63047228091E+01  0.51100000000E-03 0.  1.
        -11    1    3    3    0    0  0.30721079966E+02 -0.12301340427E+02 -0.93007043975E+01  0.34374566661E+02  0.51100000000E-03 0. -1.
        -12    1    3    3    0    0  0.74292333759E+01  0.24230208081E+01  0.59958194294E+01  0.98495882665E+01  0.00000000000E+00 0.  1.
</event>
<event>
 7    1  0.5525118E-011  0.5052886E+02  0.7816164E-02  0.1300439E+00
        -11   -1    0    0    0    0  0.00000000000E+00  0.00000000000E+00  0.45593999997E+02  0.45594000000E+02  0.51100000000E-03 0.  1.
         11   -1    0    0    0    0 -0.00000000000E+00 -0.00000000000E+00 -0.45593999997E+02  0.45594000000E+02  0.51100000000E-03 0. -1.
    9900012    2    1    2    0    0 -0.80473868522E+01  0.20923645911E+01 -0.39799844364E+02  0.50528855442E+02  0.29999986602E+02 0.  0.
        -12    1    1    2    0    0  0.80473868522E+01 -0.20923645911E+01  0.39799844364E+02  0.40659144558E+02  0.00000000000E+00 0.  1.
         11    1    3    3    0    0  0.89432659221E+00  0.11468119391E+02 -0.15839434489E+02  0.19575629431E+02  0.51100000000E-03 0. -1.
        -11    1    3    3    0    0 -0.82124180820E+01 -0.88950621725E+01 -0.26029592421E+02  0.28707239918E+02  0.51100000000E-03 0.  1.
        -12    1    3    3    0    0 -0.72929536241E+00 -0.48069262729E+00  0.20691825456E+01  0.22459860941E+01  0.00000000000E+00 0.  1.
</event>
<event>
 7    1  0.5525118E-011  0.5052886E+02  0.7816164E-02  0.1300439E+00
        -11   -1    0    0    0    0  0.00000000000E+00  0.00000000000E+00  0.45593999997E+02  0.45594000000E+02  0.51100000000E-03 0.  1.
         11   -1    0    0    0    0 -0.00000000000E+00 -0.00000000000E+00 -0.45593999997E+02  0.45594000000E+02  0.51100000000E-03 0. -1.
    9900012    2    1    2    0    0  0.13655772139E+02 -0.15041784743E+02 -0.35219741819E+02  0.50528860625E+02  0.30000002354E+02 0.  0.
        -12    1    1    2    0    0 -0.13655772139E+02  0.15041784743E+02  0.35219741819E+02  0.40659139375E+02  0.00000000000E+00 0.  1.
         11    1    3    3    0    0 -0.12282022441E+00  0.67591836363E+01 -0.12812834630E+02  0.14486903732E+02  0.51100000000E-03 0. -1.
        -11    1    3    3    0    0  0.80304707217E+01 -0.16461004792E+02 -0.87646035903E+01  0.20304467861E+02  0.51100000000E-03 0.  1.
        -12    1    3    3    0    0  0.57481216412E+01 -0.53399635872E+01 -0.13642303599E+02  0.15737489031E+02  0.00000000000E+00 0.  1.
</event>
<event>
 7    1  0.5525118E-011  0.5052885E+02  0.7816164E-02  0.1300439E+00
        -11   -1    0    0    0    0  0.00000000000E+00  0.00000000000E+00  0.45593999997E+02  0.45594000000E+02  0.51100000000E-03 0.  1.
         11   -1    0    0    0    0 -0.00000000000E+00 -0.00000000000E+00 -0.45593999997E+02  0.45594000000E+02  0.51100000000E-03 0. -1.
    9900012    2    1    2    0    0  0.33803993267E+02 -0.98458480818E+01 -0.20335091412E+02  0.50528848165E+02  0.29999964481E+02 0.  0.
        -12    1    1    2    0    0 -0.33803993267E+02  0.98458480818E+01  0.20335091412E+02  0.40659151835E+02  0.00000000000E+00 0.  1.
         11    1    3    3    0    0  0.84473766401E+01 -0.38077894209E+01 -0.60304532856E+01  0.11055487301E+02  0.51100000000E-03 0. -1.
        -11    1    3    3    0    0  0.41616128398E+01  0.10981832077E+01  0.72380843280E+01  0.84210980748E+01  0.51100000000E-03 0.  1.
        -12    1    3    3    0    0  0.21195003787E+02 -0.71362418686E+01 -0.21542722454E+02  0.31052262789E+02  0.00000000000E+00 0.  1.
</event>
<event>
 7    1  0.5525118E-011  0.5052885E+02  0.7816164E-02  0.1300439E+00
        -11   -1    0    0    0    0  0.00000000000E+00  0.00000000000E+00  0.45593999997E+02  0.45594000000E+02  0.51100000000E-03 0.  1.
         11   -1    0    0    0    0 -0.00000000000E+00 -0.00000000000E+00 -0.45593999997E+02  0.45594000000E+02  0.51100000000E-03 0. -1.
    9900012    2    1    2    0    0 -0.37847103868E+02  0.51926777584E+01 -0.13921175509E+02  0.50528852185E+02  0.29999976701E+02 0.  0.
        -12    1    1    2    0    0  0.37847103868E+02 -0.51926777584E+01  0.13921175509E+02  0.40659147815E+02  0.00000000000E+00 0.  1.
         11    1    3    3    0    0 -0.17326240233E+02 -0.63779661572E+01 -0.12305035364E+02  0.22187630529E+02  0.51100000000E-03 0. -1.
        -11    1    3    3    0    0 -0.23103524453E+02  0.10653864724E+02 -0.69890925394E+00  0.25451250463E+02  0.51100000000E-03 0.  1.
         12    1    3    3    0    0  0.25826608184E+01  0.91677919166E+00 -0.91723089140E+00  0.28899711932E+01  0.00000000000E+00 0. -1.
</event>
<event>
 7    1  0.5525118E-011  0.5052886E+02  0.7816164E-02  0.1300439E+00
        -11   -1    0    0    0    0  0.00000000000E+00  0.00000000000E+00  0.45593999997E+02  0.45594000000E+02  0.51100000000E-03 0.  1.
         11   -1    0    0    0    0 -0.00000000000E+00 -0.00000000000E+00 -0.45593999997E+02  0.45594000000E+02  0.51100000000E-03 0. -1.
    9900012    2    1    2    0    0 -0.35679223563E+01  0.30913541382E+02 -0.26168467969E+02  0.50528858020E+02  0.29999994437E+02 0.  0.
        -12    1    1    2    0    0  0.35679223563E+01 -0.30913541382E+02  0.26168467969E+02  0.40659141980E+02  0.00000000000E+00 0.  1.
         11    1    3    3    0    0 -0.86725657468E+01  0.49174178749E+01 -0.16117281528E+02  0.18951547675E+02  0.51100000000E-03 0. -1.
        -11    1    3    3    0    0 -0.97449178960E+00  0.56360393165E+01  0.31820039979E+01  0.65452061181E+01  0.51100000000E-03 0.  1.
         12    1    3    3    0    0  0.60791351800E+01  0.20360084191E+02 -0.13233190439E+02  0.25032104226E+02  0.00000000000E+00 0. -1.
</event>
<event>
 7    1  0.5525118E-011  0.5052878E+02  0.7816164E-02  0.1300439E+00
        -11   -1    0    0    0    0  0.00000000000E+00  0.00000000000E+00  0.45593999997E+02  0.45594000000E+02  0.51100000000E-03 0.  1.
         11   -1    0    0    0    0 -0.00000000000E+00 -0.00000000000E+00 -0.45593999997E+02  0.45594000000E+02  0.51100000000E-03 0. -1.
    9900012    2    1    2    0    0 -0.10945048078E+02  0.23314987750E+02 -0.31460917647E+02  0.50528781237E+02  0.29999761047E+02 0.  0.
        -12    1    1    2    0    0  0.10945048078E+02 -0.23314987750E+02  0.31460917647E+02  0.40659218763E+02  0.00000000000E+00 0.  1.
         11    1    3    3    0    0 -0.30466293439E+01  0.91249159779E+01 -0.11163105615E+02  0.14736382500E+02  0.51100000000E-03 0. -1.
        -11    1    3    3    0    0 -0.11781320820E+01 -0.64676086239E+01 -0.83734484073E+00  0.66271489464E+01  0.51100000000E-03 0.  1.
        -12    1    3    3    0    0 -0.67202866523E+01  0.20657680396E+02 -0.19460467192E+02  0.29165249791E+02  0.00000000000E+00 0.  1.
</event>
<event>
 7    1  0.5525118E-011  0.5052886E+02  0.7816164E-02  0.1300439E+00
        -11   -1    0    0    0    0  0.00000000000E+00  0.00000000000E+00  0.45593999997E+02  0.45594000000E+02  0.51100000000E-03 0.  1.
         11   -1    0    0    0    0 -0.00000000000E+00 -0.00000000000E+00 -0.45593999997E+02  0.45594000000E+02  0.51100000000E-03 0. -1.
    9900012    2    1    2    0    0 -0.27517327469E+02  0.38998132092E+01 -0.29677499474E+02  0.50528857988E+02  0.29999994341E+02 0.  0.
        -12    1    1    2    0    0  0.27517327469E+02 -0.38998132092E+01  0.29677499474E+02  0.40659142012E+02  0.00000000000E+00 0.  1.
         11    1    3    3    0    0 -0.45361627676E+01  0.11246557358E+01 -0.20747386867E+02  0.21267244421E+02  0.51100000000E-03 0. -1.
        -11    1    3    3    0    0 -0.83426624001E+01  0.54847405653E+01  0.27311992255E+01  0.10350934473E+02  0.51100000000E-03 0.  1.
         12    1    3    3    0    0 -0.14638502301E+02 -0.27095830919E+01 -0.11661311833E+02  0.18910679094E+02  0.00000000000E+00 0. -1.
</event>
<event>
 7    1  0.5525118E-011  0.5052886E+02  0.7816164E-02  0.1300439E+00
        -11   -1    0    0    0    0  0.00000000000E+00  0.00000000000E+00  0.45593999997E+02  0.45594000000E+02  0.51100000000E-03 0.  1.
         11   -1    0    0    0    0 -0.00000000000E+00 -0.00000000000E+00 -0.45593999997E+02  0.45594000000E+02  0.51100000000E-03 0. -1.
    9900012    2    1    2    0    0  0.91350227675E+01  0.39171544049E+02  0.59420029553E+01  0.50528857077E+02  0.29999991571E+02 0.  0.
        -12    1    1    2    0    0 -0.91350227675E+01 -0.39171544049E+02 -0.59420029553E+01  0.40659142923E+02  0.00000000000E+00 0.  1.
         11    1    3    3    0    0  0.14636472425E+02  0.26410968829E+02 -0.35132815371E+01  0.30399157010E+02  0.51100000000E-03 0.  1.
        -11    1    3    3    0    0 -0.18203506546E-02  0.42076728481E+01  0.90185731107E+01  0.99518428105E+01  0.51100000000E-03 0. -1.
         12    1    3    3    0    0 -0.54996293066E+01  0.85529023717E+01  0.43671138172E+00  0.10177857256E+02  0.00000000000E+00 0. -1.
</event>
<event>
 7    1  0.5525118E-011  0.5052886E+02  0.7816164E-02  0.1300439E+00
        -11   -1    0    0    0    0  0.00000000000E+00  0.00000000000E+00  0.45593999997E+02  0.45594000000E+02  0.51100000000E-03 0. -1.
         11   -1    0    0    0    0 -0.00000000000E+00 -0.00000000000E+00 -0.45593999997E+02  0.45594000000E+02  0.51100000000E-03 0.  1.
    9900012    2    1    2    0    0  0.33487670232E+02  0.22941268412E+01  0.22945117558E+02  0.50528862094E+02  0.30000006819E+02 0.  0.
        -12    1    1    2    0    0 -0.33487670232E+02 -0.22941268412E+01 -0.22945117558E+02  0.40659137906E+02  0.00000000000E+00 0.  1.
         11    1    3    3    0    0  0.13273077691E+02  0.32492263988E+01  0.21613327243E+02  0.25570842347E+02  0.51100000000E-03 0. -1.
        -11    1    3    3    0    0  0.15701863848E+02  0.43000041496E+01  0.51159757989E+01  0.17064928146E+02  0.51100000000E-03 0.  1.
         12    1    3    3    0    0  0.45127286934E+01 -0.52551037073E+01 -0.37841854839E+01  0.78930916003E+01  0.00000000000E+00 0. -1.
</event>
<event>
 7    1  0.5525118E-011  0.5052886E+02  0.7816164E-02  0.1300439E+00
        -11   -1    0    0    0    0  0.00000000000E+00  0.00000000000E+00  0.45593999997E+02  0.45594000000E+02  0.51100000000E-03 0.  1.
         11   -1    0    0    0    0 -0.00000000000E+00 -0.00000000000E+00 -0.45593999997E+02  0.45594000000E+02  0.51100000000E-03 0. -1.
    9900012    2    1    2    0    0 -0.28162298264E+01 -0.14300320576E+02 -0.37957017446E+02  0.50528862129E+02  0.30000006926E+02 0.  0.
        -12    1    1    2    0    0  0.28162298264E+01  0.14300320576E+02  0.37957017446E+02  0.40659137871E+02  0.00000000000E+00 0.  1.
         11    1    3    3    0    0 -0.91937787793E+01 -0.59191294641E+01 -0.24319643230E+02  0.26664709054E+02  0.51100000000E-03 0. -1.
        -11    1    3    3    0    0  0.12025344335E+02 -0.61923161072E+01 -0.94979571025E+01  0.16527700219E+02  0.51100000000E-03 0.  1.
        -12    1    3    3    0    0 -0.56477953817E+01 -0.21888750046E+01 -0.41394171138E+01  0.73364528555E+01  0.00000000000E+00 0.  1.
</event>
<event>
 7    1  0.5525118E-011  0.5052887E+02  0.7816164E-02  0.1300439E+00
        -11   -1    0    0    0    0  0.00000000000E+00  0.00000000000E+00  0.45593999997E+02  0.45594000000E+02  0.51100000000E-03 0.  1.
         11   -1    0    0    0    0 -0.00000000000E+00 -0.00000000000E+00 -0.45593999997E+02  0.45594000000E+02  0.51100000000E-03 0. -1.
    9900012    2    1    2    0    0  0.28207757605E+02  0.13729699063E+02 -0.25864699606E+02  0.50528869277E+02  0.30000028655E+02 0.  0.
        -12    1    1    2    0    0 -0.28207757605E+02 -0.13729699063E+02  0.25864699606E+02  0.40659130723E+02  0.00000000000E+00 0.  1.
         11    1    3    3    0    0  0.17193983136E+01  0.14398869705E+02 -0.55290061374E+01  0.15519461604E+02  0.51100000000E-03 0. -1.
        -11    1    3    3    0    0  0.19024602873E+02  0.23028420716E-01 -0.81368798328E+01  0.20691661568E+02  0.51100000000E-03 0.  1.
        -12    1    3    3    0    0  0.74637564180E+01 -0.69219906297E+00 -0.12198813636E+02  0.14317746105E+02  0.00000000000E+00 0.  1.
</event>
<event>
 7    1  0.5525118E-011  0.5052887E+02  0.7816164E-02  0.1300439E+00
        -11   -1    0    0    0    0  0.00000000000E+00  0.00000000000E+00  0.45593999997E+02  0.45594000000E+02  0.51100000000E-03 0. -1.
         11   -1    0    0    0    0 -0.00000000000E+00 -0.00000000000E+00 -0.45593999997E+02  0.45594000000E+02  0.51100000000E-03 0.  1.
    9900012    2    1    2    0    0 -0.39779840460E+02 -0.59629694969E+01 -0.59305875241E+01  0.50528873342E+02  0.30000041010E+02 0.  0.
        -12    1    1    2    0    0  0.39779840460E+02  0.59629694969E+01  0.59305875241E+01  0.40659126658E+02  0.00000000000E+00 0.  1.
         11    1    3    3    0    0 -0.85125976128E+01  0.95077696281E+01 -0.44410239287E+01  0.13512390433E+02  0.51100000000E-03 0. -1.
        -11    1    3    3    0    0 -0.31427120724E+02 -0.12964535231E+02 -0.29285500049E+01  0.34122126196E+02  0.51100000000E-03 0.  1.
        -12    1    3    3    0    0  0.15987787693E+00 -0.25062038941E+01  0.14389864095E+01  0.28943567128E+01  0.00000000000E+00 0.  1.
</event>
<event>
 7    1  0.5525118E-011  0.5052887E+02  0.7816164E-02  0.1300439E+00
        -11   -1    0    0    0    0  0.00000000000E+00  0.00000000000E+00  0.45593999997E+02  0.45594000000E+02  0.51100000000E-03 0.  1.
         11   -1    0    0    0    0 -0.00000000000E+00 -0.00000000000E+00 -0.45593999997E+02  0.45594000000E+02  0.51100000000E-03 0. -1.
    9900012    2    1    2    0    0 -0.18730350046E+02 -0.21111657384E+02 -0.29268357950E+02  0.50528869815E+02  0.30000030288E+02 0.  0.
        -12    1    1    2    0    0  0.18730350046E+02  0.21111657384E+02  0.29268357950E+02  0.40659130185E+02  0.00000000000E+00 0.  1.
         11    1    3    3    0    0 -0.15796226679E+01 -0.17570675376E+02 -0.27518240065E+02  0.32687572218E+02  0.51100000000E-03 0. -1.
        -11    1    3    3    0    0 -0.44279630252E+01  0.33456495375E+00 -0.12405340736E+00  0.44423169371E+01  0.51100000000E-03 0.  1.
         12    1    3    3    0    0 -0.12722764353E+02 -0.38755469621E+01 -0.16260644771E+01  0.13398980660E+02  0.00000000000E+00 0. -1.
</event>
<event>
 7    1  0.5525118E-011  0.5052880E+02  0.7816164E-02  0.1300439E+00
        -11   -1    0    0    0    0  0.00000000000E+00  0.00000000000E+00  0.45593999997E+02  0.45594000000E+02  0.51100000000E-03 0.  1.
         11   -1    0    0    0    0 -0.00000000000E+00 -0.00000000000E+00 -0.45593999997E+02  0.45594000000E+02  0.51100000000E-03 0. -1.
    9900012    2    1    2    0    0  0.28220032767E+01  0.26812781175E+02 -0.30434873766E+02  0.50528800820E+02  0.29999820571E+02 0.  0.
        -12    1    1    2    0    0 -0.28220032767E+01 -0.26812781175E+02  0.30434873766E+02  0.40659199180E+02  0.00000000000E+00 0.  1.
         11    1    3    3    0    0  0.38177943079E+01  0.12118591388E+02 -0.26466020439E+02  0.29357895850E+02  0.51100000000E-03 0. -1.
        -11    1    3    3    0    0 -0.17628317725E+01  0.16205821012E+02  0.58487978145E+00  0.16311906545E+02  0.51100000000E-03 0.  1.
        -12    1    3    3    0    0  0.76704074132E+00 -0.15116312253E+01 -0.45537331086E+01  0.48589984240E+01  0.00000000000E+00 0.  1.
</event>
<event>
 7    1  0.5525118E-011  0.5052885E+02  0.7816164E-02  0.1300439E+00
        -11   -1    0    0    0    0  0.00000000000E+00  0.00000000000E+00  0.45593999997E+02  0.45594000000E+02  0.51100000000E-03 0. -1.
         11   -1    0    0    0    0 -0.00000000000E+00 -0.00000000000E+00 -0.45593999997E+02  0.45594000000E+02  0.51100000000E-03 0.  1.
    9900012    2    1    2    0    0 -0.25198672197E+02  0.24426437343E+02  0.20531509547E+02  0.50528845975E+02  0.29999957825E+02 0.  0.
        -12    1    1    2    0    0  0.25198672197E+02 -0.24426437343E+02 -0.20531509547E+02  0.40659154025E+02  0.00000000000E+00 0.  1.
         11    1    3    3    0    0 -0.57331985062E+01 -0.29877136450E+01 -0.19506012352E+01  0.67528396528E+01  0.51100000000E-03 0.  1.
        -11    1    3    3    0    0 -0.20993923562E+02  0.27002103047E+02  0.23838866330E+02  0.41691125478E+02  0.51100000000E-03 0. -1.
         12    1    3    3    0    0  0.15284498709E+01  0.41204794098E+00 -0.13567555486E+01  0.20848808436E+01  0.00000000000E+00 0. -1.
</event>
<event>
 7    1  0.5525118E-011  0.5052886E+02  0.7816164E-02  0.1300439E+00
        -11   -1    0    0    0    0  0.00000000000E+00  0.00000000000E+00  0.45593999997E+02  0.45594000000E+02  0.51100000000E-03 0. -1.
         11   -1    0    0    0    0 -0.00000000000E+00 -0.00000000000E+00 -0.45593999997E+02  0.45594000000E+02  0.51100000000E-03 0.  1.
    9900012    2    1    2    0    0  0.39772253865E+02 -0.14856968875E+01  0.83141951492E+01  0.50528864327E+02  0.30000013607E+02 0.  0.
        -12    1    1    2    0    0 -0.39772253865E+02  0.14856968875E+01 -0.83141951492E+01  0.40659135673E+02  0.00000000000E+00 0.  1.
         11    1    3    3    0    0  0.29714859947E+02  0.30197590145E+01  0.18267817763E+02  0.35011498287E+02  0.51100000000E-03 0. -1.
        -11    1    3    3    0    0  0.53998975394E+00 -0.19628562746E+01 -0.13978323388E+01  0.24694795398E+01  0.51100000000E-03 0.  1.
         12    1    3    3    0    0  0.95174041635E+01 -0.25425996274E+01 -0.85557902754E+01  0.13047886500E+02  0.00000000000E+00 0. -1.
</event>
<event>
 7    1  0.5525118E-011  0.5052886E+02  0.7816164E-02  0.1300439E+00
        -11   -1    0    0    0    0  0.00000000000E+00  0.00000000000E+00  0.45593999997E+02  0.45594000000E+02  0.51100000000E-03 0.  1.
         11   -1    0    0    0    0 -0.00000000000E+00 -0.00000000000E+00 -0.45593999997E+02  0.45594000000E+02  0.51100000000E-03 0. -1.
    9900012    2    1    2    0    0 -0.18100364051E+02 -0.28925114835E+02 -0.22110638122E+02  0.50528858775E+02  0.29999996732E+02 0.  0.
        -12    1    1    2    0    0  0.18100364051E+02  0.28925114835E+02  0.22110638122E+02  0.40659141225E+02  0.00000000000E+00 0.  1.
         11    1    3    3    0    0 -0.60725543695E+01 -0.30568563245E+02 -0.13658472792E+02  0.34027442671E+02  0.51100000000E-03 0. -1.
        -11    1    3    3    0    0 -0.31375274737E+01  0.16892560679E+01  0.81915019811E+00  0.36563194635E+01  0.51100000000E-03 0.  1.
         12    1    3    3    0    0 -0.88902822076E+01 -0.45807657617E-01 -0.92713155282E+01  0.12845096640E+02  0.00000000000E+00 0. -1.
</event>
<event>
 7    1  0.5525118E-011  0.5052885E+02  0.7816164E-02  0.1300439E+00
        -11   -1    0    0    0    0  0.00000000000E+00  0.00000000000E+00  0.45593999997E+02  0.45594000000E+02  0.51100000000E-03 0.  1.
         11   -1    0    0    0    0 -0.00000000000E+00 -0.00000000000E+00 -0.45593999997E+02  0.45594000000E+02  0.51100000000E-03 0. -1.
    9900012    2    1    2    0    0  0.24094927815E+02 -0.21588659086E+02 -0.24627836925E+02  0.50528854668E+02  0.29999984248E+02 0.  0.
        -12    1    1    2    0    0 -0.24094927815E+02  0.21588659086E+02  0.24627836925E+02  0.40659145332E+02  0.00000000000E+00 0.  1.
         11    1    3    3    0    0  0.13122485652E+01 -0.71022311635E+01 -0.14864665600E+02  0.16526402133E+02  0.51100000000E-03 0. -1.
        -11    1    3    3    0    0  0.11440105414E+02 -0.12673512911E+02  0.24365099658E+01  0.17246174140E+02  0.51100000000E-03 0.  1.
        -12    1    3    3    0    0  0.11342573836E+02 -0.18129150122E+01 -0.12199681290E+02  0.16756278395E+02  0.00000000000E+00 0.  1.
</event>
<event>
 7    1  0.5525118E-011  0.5052886E+02  0.7816164E-02  0.1300439E+00
        -11   -1    0    0    0    0  0.00000000000E+00  0.00000000000E+00  0.45593999997E+02  0.45594000000E+02  0.51100000000E-03 0. -1.
         11   -1    0    0    0    0 -0.00000000000E+00 -0.00000000000E+00 -0.45593999997E+02  0.45594000000E+02  0.51100000000E-03 0.  1.
    9900012    2    1    2    0    0 -0.10029362620E+02  0.39352298209E+02  0.19934836079E+01  0.50528862456E+02  0.30000007922E+02 0.  0.
        -12    1    1    2    0    0  0.10029362620E+02 -0.39352298209E+02 -0.19934836079E+01  0.40659137544E+02  0.00000000000E+00 0.  1.
         11    1    3    3    0    0  0.25832893178E+01  0.37148036394E+02  0.87705672259E+00  0.37248076734E+02  0.51100000000E-03 0. -1.
        -11    1    3    3    0    0 -0.10926806730E+02  0.24549265498E+01 -0.78150396105E-01  0.11199458801E+02  0.51100000000E-03 0.  1.
         12    1    3    3    0    0 -0.16858452080E+01 -0.25066473470E+00  0.11945772814E+01  0.20813269219E+01  0.00000000000E+00 0. -1.
</event>
<event>
 7    1  0.5525118E-011  0.5052886E+02  0.7816164E-02  0.1300439E+00
        -11   -1    0    0    0    0  0.00000000000E+00  0.00000000000E+00  0.45593999997E+02  0.45594000000E+02  0.51100000000E-03 0. -1.
         11   -1    0    0    0    0 -0.00000000000E+00 -0.00000000000E+00 -0.45593999997E+02  0.45594000000E+02  0.51100000000E-03 0.  1.
    9900012    2    1    2    0    0  0.25613924676E+02 -0.52667443887E+01  0.31134445185E+02  0.50528863133E+02  0.30000009981E+02 0.  0.
        -12    1    1    2    0    0 -0.25613924676E+02  0.52667443887E+01 -0.31134445185E+02  0.40659136867E+02  0.00000000000E+00 0.  1.
         11    1    3    3    0    0  0.16159393412E+02 -0.10678990702E+02  0.18870157146E+02  0.27041628443E+02  0.51100000000E-03 0. -1.
        -11    1    3    3    0    0 -0.48361373119E+01  0.18340111410E+01  0.20645318047E+01  0.55690315853E+01  0.51100000000E-03 0.  1.
         12    1    3    3    0    0  0.14290668575E+02  0.35782351726E+01  0.10199756234E+02  0.17918203105E+02  0.00000000000E+00 0. -1.
</event>
<event>
 7    1  0.5525118E-011  0.5052885E+02  0.7816164E-02  0.1300439E+00
        -11   -1    0    0    0    0  0.00000000000E+00  0.00000000000E+00  0.45593999997E+02  0.45594000000E+02  0.51100000000E-03 0.  1.
         11   -1    0    0    0    0 -0.00000000000E+00 -0.00000000000E+00 -0.45593999997E+02  0.45594000000E+02  0.51100000000E-03 0. -1.
    9900012    2    1    2    0    0  0.11975165296E+02 -0.34983822993E+02 -0.16908400502E+02  0.50528850198E+02  0.29999970662E+02 0.  0.
        -12    1    1    2    0    0 -0.11975165296E+02  0.34983822993E+02  0.16908400502E+02  0.40659149802E+02  0.00000000000E+00 0.  1.
         11    1    3    3    0    0  0.64277196864E+01 -0.27103004236E+02 -0.18030089629E+02  0.33180906426E+02  0.51100000000E-03 0. -1.
        -11    1    3    3    0    0  0.94150073534E+01 -0.36370128460E+01  0.40828139602E+01  0.10887589081E+02  0.51100000000E-03 0.  1.
        -12    1    3    3    0    0 -0.38675617433E+01 -0.42438059113E+01 -0.29611248335E+01  0.64603546908E+01  0.00000000000E+00 0.  1.
</event>
<event>
 7    1  0.5525118E-011  0.5052886E+02  0.7816164E-02  0.1300439E+00
        -11   -1    0    0    0    0  0.00000000000E+00  0.00000000000E+00  0.45593999997E+02  0.45594000000E+02  0.51100000000E-03 0.  1.
         11   -1    0    0    0    0 -0.00000000000E+00 -0.00000000000E+00 -0.45593999997E+02  0.45594000000E+02  0.51100000000E-03 0. -1.
    9900012    2    1    2    0    0  0.13537437169E+02  0.59296347793E+01 -0.37877997960E+02  0.50528861996E+02  0.30000006524E+02 0.  0.
        -12    1    1    2    0    0 -0.13537437169E+02 -0.59296347793E+01  0.37877997960E+02  0.40659138004E+02  0.00000000000E+00 0.  1.
         11    1    3    3    0    0 -0.57567981389E+01 -0.25833731502E+01 -0.20783147752E+02  0.21719893471E+02  0.51100000000E-03 0. -1.
        -11    1    3    3    0    0  0.37719194746E+01  0.56243517380E+01 -0.22463085110E+01  0.71348869076E+01  0.51100000000E-03 0.  1.
         12    1    3    3    0    0  0.15522315834E+02  0.28886561914E+01 -0.14848541697E+02  0.21674081618E+02  0.00000000000E+00 0. -1.
</event>
<event>
 7    1  0.5525118E-011  0.5052886E+02  0.7816164E-02  0.1300439E+00
        -11   -1    0    0    0    0  0.00000000000E+00  0.00000000000E+00  0.45593999997E+02  0.45594000000E+02  0.51100000000E-03 0. -1.
         11   -1    0    0    0    0 -0.00000000000E+00 -0.00000000000E+00 -0.45593999997E+02  0.45594000000E+02  0.51100000000E-03 0.  1.
    9900012    2    1    2    0    0  0.36500385152E+02 -0.14894139904E+02 -0.99525072028E+01  0.50528856879E+02  0.29999990969E+02 0.  0.
        -12    1    1    2    0    0 -0.36500385152E+02  0.14894139904E+02  0.99525072028E+01  0.40659143121E+02  0.00000000000E+00 0.  1.
         11    1    3    3    0    0 -0.13156374245E+01 -0.65365981178E+01  0.41198418276E+01  0.78378003121E+01  0.51100000000E-03 0. -1.
        -11    1    3    3    0    0  0.55478878759E+01 -0.10998910195E+01 -0.67674735891E+01  0.88197233051E+01  0.51100000000E-03 0.  1.
         12    1    3    3    0    0  0.32268134701E+02 -0.72576507662E+01 -0.73048754414E+01  0.33871333262E+02  0.00000000000E+00 0. -1.
</event>
<event>
 7    1  0.5525118E-011  0.5052883E+02  0.7816164E-02  0.1300439E+00
        -11   -1    0    0    0    0  0.00000000000E+00  0.00000000000E+00  0.45593999997E+02  0.45594000000E+02  0.51100000000E-03 0.  1.
         11   -1    0    0    0    0 -0.00000000000E+00 -0.00000000000E+00 -0.45593999997E+02  0.45594000000E+02  0.51100000000E-03 0. -1.
    9900012    2    1    2    0    0 -0.31768625054E+01 -0.36036165797E+02 -0.18559917140E+02  0.50528828526E+02  0.29999904788E+02 0.  0.
        -12    1    1    2    0    0  0.31768625054E+01  0.36036165797E+02  0.18559917140E+02  0.40659171474E+02  0.00000000000E+00 0.  1.
         11    1    3    3    0    0  0.11059230956E+02 -0.10718629230E+02 -0.83521344695E+01  0.17520095673E+02  0.51100000000E-03 0.  1.
        -11    1    3    3    0    0 -0.45258358521E+01 -0.19613721550E+02 -0.65755259859E+01  0.21175901527E+02  0.51100000000E-03 0. -1.
         12    1    3    3    0    0 -0.97102576096E+01 -0.57038150157E+01 -0.36322566850E+01  0.11832831327E+02  0.00000000000E+00 0. -1.
</event>
<event>
 7    1  0.5525118E-011  0.5052889E+02  0.7816164E-02  0.1300439E+00
        -11   -1    0    0    0    0  0.00000000000E+00  0.00000000000E+00  0.45593999997E+02  0.45594000000E+02  0.51100000000E-03 0.  1.
         11   -1    0    0    0    0 -0.00000000000E+00 -0.00000000000E+00 -0.45593999997E+02  0.45594000000E+02  0.51100000000E-03 0. -1.
    9900012    2    1    2    0    0 -0.17680390716E+02 -0.25373950600E+02 -0.26395638323E+02  0.50528888999E+02  0.30000088601E+02 0.  0.
        -12    1    1    2    0    0  0.17680390716E+02  0.25373950600E+02  0.26395638323E+02  0.40659111001E+02  0.00000000000E+00 0.  1.
         11    1    3    3    0    0 -0.18336449841E+02 -0.14658843479E+01 -0.81755260120E+01  0.20129913947E+02  0.51100000000E-03 0.  1.
        -11    1    3    3    0    0  0.15775776879E+01 -0.17654166351E+02 -0.11270106841E+02  0.21004134102E+02  0.51100000000E-03 0. -1.
         12    1    3    3    0    0 -0.92151856249E+00 -0.62538999014E+01 -0.69500054706E+01  0.93948409502E+01  0.00000000000E+00 0. -1.
</event>
<event>
 7    1  0.5525118E-011  0.5052885E+02  0.7816164E-02  0.1300439E+00
        -11   -1    0    0    0    0  0.00000000000E+00  0.00000000000E+00  0.45593999997E+02  0.45594000000E+02  0.51100000000E-03 0.  1.
         11   -1    0    0    0    0 -0.00000000000E+00 -0.00000000000E+00 -0.45593999997E+02  0.45594000000E+02  0.51100000000E-03 0. -1.
    9900012    2    1    2    0    0  0.11731019857E+02 -0.23412604063E+02 -0.31103043347E+02  0.50528853903E+02  0.29999981923E+02 0.  0.
        -12    1    1    2    0    0 -0.11731019857E+02  0.23412604063E+02  0.31103043347E+02  0.40659146097E+02  0.00000000000E+00 0.  1.
         11    1    3    3    0    0  0.12630197861E+02 -0.26476370081E+02 -0.29073011038E+02  0.41300847954E+02  0.51100000000E-03 0. -1.
        -11    1    3    3    0    0  0.13024088117E-01  0.25157175262E+01  0.30979444371E+01  0.39907723933E+01  0.51100000000E-03 0.  1.
         12    1    3    3    0    0 -0.91220209208E+00  0.54804849121E+00 -0.51279767458E+01  0.52372335551E+01  0.00000000000E+00 0. -1.
</event>
<event>
 7    1  0.5525118E-011  0.5052890E+02  0.7816164E-02  0.1300439E+00
        -11   -1    0    0    0    0  0.00000000000E+00  0.00000000000E+00  0.45593999997E+02  0.45594000000E+02  0.51100000000E-03 0.  1.
         11   -1    0    0    0    0 -0.00000000000E+00 -0.00000000000E+00 -0.45593999997E+02  0.45594000000E+02  0.51100000000E-03 0. -1.
    9900012    2    1    2    0    0 -0.86277112509E+01 -0.13023319385E+02 -0.37538221259E+02  0.50528901332E+02  0.30000126088E+02 0.  0.
        -12    1    1    2    0    0  0.86277112509E+01  0.13023319385E+02  0.37538221259E+02  0.40659098668E+02  0.00000000000E+00 0.  1.
         11    1    3    3    0    0  0.38105879372E+01 -0.16436447976E+02 -0.16974403601E+02  0.23933403025E+02  0.51100000000E-03 0. -1.
        -11    1    3    3    0    0 -0.95419665055E+01  0.72510468197E+01 -0.13519079495E+02  0.18066330989E+02  0.51100000000E-03 0.  1.
        -12    1    3    3    0    0 -0.28963326827E+01 -0.38379182287E+01 -0.70447381632E+01  0.85291673173E+01  0.00000000000E+00 0.  1.
</event>
<event>
 7    1  0.5525118E-011  0.5052887E+02  0.7816164E-02  0.1300439E+00
        -11   -1    0    0    0    0  0.00000000000E+00  0.00000000000E+00  0.45593999997E+02  0.45594000000E+02  0.51100000000E-03 0.  1.
         11   -1    0    0    0    0 -0.00000000000E+00 -0.00000000000E+00 -0.45593999997E+02  0.45594000000E+02  0.51100000000E-03 0. -1.
    9900012    2    1    2    0    0 -0.15084993886E+02 -0.28710924500E+02 -0.24521233305E+02  0.50528866844E+02  0.30000021259E+02 0.  0.
        -12    1    1    2    0    0  0.15084993886E+02  0.28710924500E+02  0.24521233305E+02  0.40659133156E+02  0.00000000000E+00 0.  1.
         11    1    3    3    0    0 -0.22639558207E+02 -0.23956017945E+02 -0.16528022192E+02  0.36872969903E+02  0.51100000000E-03 0. -1.
        -11    1    3    3    0    0  0.72864643562E+01 -0.60990345826E+01 -0.60034412758E+01  0.11239755027E+02  0.51100000000E-03 0.  1.
         12    1    3    3    0    0  0.26809996471E+00  0.13441280276E+01 -0.19897698369E+01  0.24161419142E+01  0.00000000000E+00 0. -1.
</event>
<event>
 7    1  0.5525118E-011  0.5052886E+02  0.7816164E-02  0.1300439E+00
        -11   -1    0    0    0    0  0.00000000000E+00  0.00000000000E+00  0.45593999997E+02  0.45594000000E+02  0.51100000000E-03 0. -1.
         11   -1    0    0    0    0 -0.00000000000E+00 -0.00000000000E+00 -0.45593999997E+02  0.45594000000E+02  0.51100000000E-03 0.  1.
    9900012    2    1    2    0    0  0.20227414970E+02 -0.10760843649E+02  0.33589008331E+02  0.50528861383E+02  0.30000004661E+02 0.  0.
        -12    1    1    2    0    0 -0.20227414970E+02  0.10760843649E+02 -0.33589008331E+02  0.40659138617E+02  0.00000000000E+00 0.  1.
         11    1    3    3    0    0  0.15388241741E+02 -0.13689127640E+02  0.30740930391E+02  0.37002635055E+02  0.51100000000E-03 0. -1.
        -11    1    3    3    0    0 -0.22773436765E+01 -0.12371651674E+01 -0.25776928989E+01  0.36553211644E+01  0.51100000000E-03 0.  1.
         12    1    3    3    0    0  0.71165169061E+01  0.41654491585E+01  0.54257708381E+01  0.98709051639E+01  0.00000000000E+00 0. -1.
</event>
<event>
 7    1  0.5525118E-011  0.5052886E+02  0.7816164E-02  0.1300439E+00
        -11   -1    0    0    0    0  0.00000000000E+00  0.00000000000E+00  0.45593999997E+02  0.45594000000E+02  0.51100000000E-03 0. -1.
         11   -1    0    0    0    0 -0.00000000000E+00 -0.00000000000E+00 -0.45593999997E+02  0.45594000000E+02  0.51100000000E-03 0.  1.
    9900012    2    1    2    0    0 -0.25953845063E+02  0.27312029904E+02  0.15284523660E+02  0.50528859397E+02  0.29999998624E+02 0.  0.
        -12    1    1    2    0    0  0.25953845063E+02 -0.27312029904E+02 -0.15284523660E+02  0.40659140603E+02  0.00000000000E+00 0.  1.
         11    1    3    3    0    0 -0.24309873626E+02  0.27305941669E+02  0.31665622270E+01  0.36696205836E+02  0.51100000000E-03 0. -1.
        -11    1    3    3    0    0  0.13038618998E+01 -0.82385959799E+00  0.99782846941E+01  0.10096779991E+02  0.51100000000E-03 0.  1.
        -12    1    3    3    0    0 -0.29478333373E+01  0.82994783275E+00  0.21396767388E+01  0.37358735706E+01  0.00000000000E+00 0.  1.
</event>
<event>
 7    1  0.5525118E-011  0.5052885E+02  0.7816164E-02  0.1300439E+00
        -11   -1    0    0    0    0  0.00000000000E+00  0.00000000000E+00  0.45593999997E+02  0.45594000000E+02  0.51100000000E-03 0.  1.
         11   -1    0    0    0    0 -0.00000000000E+00 -0.00000000000E+00 -0.45593999997E+02  0.45594000000E+02  0.51100000000E-03 0. -1.
    9900012    2    1    2    0    0 -0.14521955254E+02 -0.27864167437E+02 -0.25804404938E+02  0.50528851884E+02  0.29999975786E+02 0.  0.
        -12    1    1    2    0    0  0.14521955254E+02  0.27864167437E+02  0.25804404938E+02  0.40659148116E+02  0.00000000000E+00 0.  1.
         11    1    3    3    0    0 -0.14110780350E+02 -0.22155353666E+01 -0.16110843955E+02  0.21530954745E+02  0.51100000000E-03 0. -1.
        -11    1    3    3    0    0 -0.24838418556E+01 -0.24889250360E+02 -0.95893017608E+01  0.26788037673E+02  0.51100000000E-03 0.  1.
        -12    1    3    3    0    0  0.20726669511E+01 -0.75938170964E+00 -0.10425922256E+00  0.22098594654E+01  0.00000000000E+00 0.  1.
</event>
<event>
 7    1  0.5525118E-011  0.5052886E+02  0.7816164E-02  0.1300439E+00
        -11   -1    0    0    0    0  0.00000000000E+00  0.00000000000E+00  0.45593999997E+02  0.45594000000E+02  0.51100000000E-03 0.  1.
         11   -1    0    0    0    0 -0.00000000000E+00 -0.00000000000E+00 -0.45593999997E+02  0.45594000000E+02  0.51100000000E-03 0. -1.
    9900012    2    1    2    0    0  0.29441470291E+02  0.17260325144E+02 -0.22100830796E+02  0.50528859345E+02  0.29999998465E+02 0.  0.
        -12    1    1    2    0    0 -0.29441470291E+02 -0.17260325144E+02  0.22100830796E+02  0.40659140655E+02  0.00000000000E+00 0.  1.
         11    1    3    3    0    0  0.19959810163E+02  0.88971245170E+01 -0.15247016982E+02  0.26646282546E+02  0.51100000000E-03 0. -1.
        -11    1    3    3    0    0 -0.14198377600E+01 -0.51204971917E+01 -0.22223403006E+00  0.53183473918E+01  0.51100000000E-03 0.  1.
        -12    1    3    3    0    0  0.10901497888E+02  0.13483697818E+02 -0.66315797838E+01  0.18564229408E+02  0.00000000000E+00 0.  1.
</event>
<event>
 7    1  0.5525118E-011  0.5052886E+02  0.7816164E-02  0.1300439E+00
        -11   -1    0    0    0    0  0.00000000000E+00  0.00000000000E+00  0.45593999997E+02  0.45594000000E+02  0.51100000000E-03 0. -1.
         11   -1    0    0    0    0 -0.00000000000E+00 -0.00000000000E+00 -0.45593999997E+02  0.45594000000E+02  0.51100000000E-03 0.  1.
    9900012    2    1    2    0    0  0.21021682797E+01 -0.35888277056E+02  0.18994157355E+02  0.50528861358E+02  0.30000004582E+02 0.  0.
        -12    1    1    2    0    0 -0.21021682797E+01  0.35888277056E+02 -0.18994157355E+02  0.40659138642E+02  0.00000000000E+00 0.  1.
         11    1    3    3    0    0 -0.53473283943E+01 -0.22979543883E+01 -0.49379687123E+01  0.76326961549E+01  0.51100000000E-03 0.  1.
        -11    1    3    3    0    0  0.35971692684E+01 -0.27963066257E+02  0.15931232318E+02  0.32383280635E+02  0.51100000000E-03 0. -1.
         12    1    3    3    0    0  0.38523274056E+01 -0.56272564106E+01  0.80008937493E+01  0.10512884568E+02  0.00000000000E+00 0. -1.
</event>
<event>
 7    1  0.5525118E-011  0.5052883E+02  0.7816164E-02  0.1300439E+00
        -11   -1    0    0    0    0  0.00000000000E+00  0.00000000000E+00  0.45593999997E+02  0.45594000000E+02  0.51100000000E-03 0.  1.
         11   -1    0    0    0    0 -0.00000000000E+00 -0.00000000000E+00 -0.45593999997E+02  0.45594000000E+02  0.51100000000E-03 0. -1.
    9900012    2    1    2    0    0  0.28698466867E+02  0.27487553428E+02 -0.86023577027E+01  0.50528829423E+02  0.29999907515E+02 0.  0.
        -12    1    1    2    0    0 -0.28698466867E+02 -0.27487553428E+02  0.86023577027E+01  0.40659170577E+02  0.00000000000E+00 0.  1.
         11    1    3    3    0    0  0.25744035080E+02  0.16596511159E+02  0.47532230232E+01  0.30996655533E+02  0.51100000000E-03 0. -1.
        -11    1    3    3    0    0 -0.76220892588E+00  0.10126407652E+02 -0.78021121293E+01  0.12806172275E+02  0.51100000000E-03 0.  1.
         12    1    3    3    0    0  0.37166407121E+01  0.76463461624E+00 -0.55534685966E+01  0.67260016156E+01  0.00000000000E+00 0. -1.
</event>
<event>
 7    1  0.5525118E-011  0.5052885E+02  0.7816164E-02  0.1300439E+00
        -11   -1    0    0    0    0  0.00000000000E+00  0.00000000000E+00  0.45593999997E+02  0.45594000000E+02  0.51100000000E-03 0. -1.
         11   -1    0    0    0    0 -0.00000000000E+00 -0.00000000000E+00 -0.45593999997E+02  0.45594000000E+02  0.51100000000E-03 0.  1.
    9900012    2    1    2    0    0 -0.20141991930E+02 -0.67434984603E+01  0.34669750369E+02  0.50528853415E+02  0.29999980439E+02 0.  0.
        -12    1    1    2    0    0  0.20141991930E+02  0.67434984603E+01 -0.34669750369E+02  0.40659146585E+02  0.00000000000E+00 0.  1.
         11    1    3    3    0    0 -0.10173938916E+02 -0.15473927462E+02  0.19348494614E+02  0.26782750199E+02  0.51100000000E-03 0. -1.
        -11    1    3    3    0    0 -0.11119239622E+02  0.28236946378E+01  0.68722949812E+01  0.13373076675E+02  0.51100000000E-03 0.  1.
         12    1    3    3    0    0  0.11511866084E+01  0.59067343635E+01  0.84489607739E+01  0.10373026540E+02  0.00000000000E+00 0. -1.
</event>
<event>
 7    1  0.5525118E-011  0.5052886E+02  0.7816164E-02  0.1300439E+00
        -11   -1    0    0    0    0  0.00000000000E+00  0.00000000000E+00  0.45593999997E+02  0.45594000000E+02  0.51100000000E-03 0. -1.
         11   -1    0    0    0    0 -0.00000000000E+00 -0.00000000000E+00 -0.45593999997E+02  0.45594000000E+02  0.51100000000E-03 0.  1.
    9900012    2    1    2    0    0  0.16344024426E+02  0.32806954482E+02  0.17599491052E+02  0.50528862256E+02  0.30000007312E+02 0.  0.
        -12    1    1    2    0    0 -0.16344024426E+02 -0.32806954482E+02 -0.17599491052E+02  0.40659137744E+02  0.00000000000E+00 0.  1.
         11    1    3    3    0    0 -0.67180576060E+01  0.15509739487E+02  0.98599804367E+01  0.19567920979E+02  0.51100000000E-03 0. -1.
        -11    1    3    3    0    0  0.21907463715E+02  0.18224544166E+02  0.73311626172E+01  0.29424767154E+02  0.51100000000E-03 0.  1.
        -12    1    3    3    0    0  0.11546183170E+01 -0.92732917080E+00  0.40834799822E+00  0.15361741231E+01  0.00000000000E+00 0.  1.
</event>
<event>
 7    1  0.5525118E-011  0.5052886E+02  0.7816164E-02  0.1300439E+00
        -11   -1    0    0    0    0  0.00000000000E+00  0.00000000000E+00  0.45593999997E+02  0.45594000000E+02  0.51100000000E-03 0. -1.
         11   -1    0    0    0    0 -0.00000000000E+00 -0.00000000000E+00 -0.45593999997E+02  0.45594000000E+02  0.51100000000E-03 0.  1.
    9900012    2    1    2    0    0  0.73947481144E+01 -0.17245439478E+02  0.36070463018E+02  0.50528858533E+02  0.29999995998E+02 0.  0.
        -12    1    1    2    0    0 -0.73947481144E+01  0.17245439478E+02 -0.36070463018E+02  0.40659141467E+02  0.00000000000E+00 0.  1.
         11    1    3    3    0    0  0.78440341775E+01  0.18098507882E+01  0.19258632168E+01  0.82772810418E+01  0.51100000000E-03 0.  1.
        -11    1    3    3    0    0 -0.44738576986E+01 -0.17570207448E+02  0.18006755082E+02  0.25553293747E+02  0.51100000000E-03 0. -1.
        -12    1    3    3    0    0  0.40245716355E+01 -0.14850828177E+01  0.16137844719E+02  0.16698283744E+02  0.00000000000E+00 0.  1.
</event>
<event>
 7    1  0.5525118E-011  0.5052887E+02  0.7816164E-02  0.1300439E+00
        -11   -1    0    0    0    0  0.00000000000E+00  0.00000000000E+00  0.45593999997E+02  0.45594000000E+02  0.51100000000E-03 0. -1.
         11   -1    0    0    0    0 -0.00000000000E+00 -0.00000000000E+00 -0.45593999997E+02  0.45594000000E+02  0.51100000000E-03 0.  1.
    9900012    2    1    2    0    0 -0.20317387836E+02 -0.31591392928E+02 -0.15567665487E+02  0.50528873542E+02  0.30000041618E+02 0.  0.
        -12    1    1    2    0    0  0.20317387836E+02  0.31591392928E+02  0.15567665487E+02  0.40659126458E+02  0.00000000000E+00 0.  1.
         11    1    3    3    0    0 -0.43011275374E+01 -0.33393676789E+01 -0.62530090801E+00  0.54810652318E+01  0.51100000000E-03 0. -1.
        -11    1    3    3    0    0 -0.21823065212E+02 -0.25256389287E+02 -0.59067063140E+01  0.33897205708E+02  0.51100000000E-03 0.  1.
        -12    1    3    3    0    0  0.58068049130E+01 -0.29956359618E+01 -0.90356582651E+01  0.11150602602E+02  0.00000000000E+00 0.  1.
</event>
<event>
 7    1  0.8374117E-011  0.5052886E+02  0.7816164E-02  0.1300439E+00
        -11   -1    0    0    0    0  0.00000000000E+00  0.00000000000E+00  0.45593999997E+02  0.45594000000E+02  0.51100000000E-03 0. -1.
         11   -1    0    0    0    0 -0.00000000000E+00 -0.00000000000E+00 -0.45593999997E+02  0.45594000000E+02  0.51100000000E-03 0.  1.
    9900012    2    1    2    0    0 -0.13144195329E+02  0.17730538913E+02  0.34147095654E+02  0.50528855609E+02  0.29999987110E+02 0.  0.
        -12    1    1    2    0    0  0.13144195329E+02 -0.17730538913E+02 -0.34147095654E+02  0.40659144391E+02  0.00000000000E+00 0.  1.
         11    1    3    3    0    0  0.60970470483E+00  0.96039169189E+01  0.24159948670E+02  0.26005962394E+02  0.51100000000E-03 0. -1.
        -11    1    3    3    0    0 -0.46454849586E+01  0.81647673210E+01 -0.18628516296E+01  0.95767516602E+01  0.51100000000E-03 0.  1.
        -12    1    3    3    0    0 -0.91084150751E+01 -0.38145327257E-01  0.11849998614E+02  0.14946141555E+02  0.00000000000E+00 0.  1.
</event>
<event>
 7    1  0.5525118E-011  0.5052886E+02  0.7816164E-02  0.1300439E+00
        -11   -1    0    0    0    0  0.00000000000E+00  0.00000000000E+00  0.45593999997E+02  0.45594000000E+02  0.51100000000E-03 0.  1.
         11   -1    0    0    0    0 -0.00000000000E+00 -0.00000000000E+00 -0.45593999997E+02  0.45594000000E+02  0.51100000000E-03 0. -1.
    9900012    2    1    2    0    0 -0.24241157261E+02 -0.82227878828E+01 -0.31589836367E+02  0.50528859482E+02  0.29999998882E+02 0.  0.
        -12    1    1    2    0    0  0.24241157261E+02  0.82227878828E+01  0.31589836367E+02  0.40659140518E+02  0.00000000000E+00 0.  1.
         11    1    3    3    0    0 -0.18886184571E+01 -0.10277408421E+02 -0.11890071238E+02  0.15829270287E+02  0.51100000000E-03 0. -1.
        -11    1    3    3    0    0 -0.25346072048E+02  0.12197381234E+01 -0.18329903682E+02  0.31303298526E+02  0.51100000000E-03 0.  1.
        -12    1    3    3    0    0  0.29935332433E+01  0.83488241438E+00 -0.13698614471E+01  0.33962906691E+01  0.00000000000E+00 0.  1.
</event>
<event>
 7    1  0.5525118E-011  0.5052886E+02  0.7816164E-02  0.1300439E+00
        -11   -1    0    0    0    0  0.00000000000E+00  0.00000000000E+00  0.45593999997E+02  0.45594000000E+02  0.51100000000E-03 0.  1.
         11   -1    0    0    0    0 -0.00000000000E+00 -0.00000000000E+00 -0.45593999997E+02  0.45594000000E+02  0.51100000000E-03 0. -1.
    9900012    2    1    2    0    0 -0.22229848018E+02  0.96705627788E+01 -0.32641688119E+02  0.50528859200E+02  0.29999998023E+02 0.  0.
        -12    1    1    2    0    0  0.22229848018E+02 -0.96705627788E+01  0.32641688119E+02  0.40659140800E+02  0.00000000000E+00 0.  1.
         11    1    3    3    0    0 -0.20688868653E+02 -0.26270075145E+00 -0.30755156295E+02  0.37067208376E+02  0.51100000000E-03 0. -1.
        -11    1    3    3    0    0  0.14841155937E+01  0.83232418870E+00  0.24120523889E+01  0.29518400428E+01  0.51100000000E-03 0.  1.
         12    1    3    3    0    0 -0.30250949588E+01  0.91009393416E+01 -0.42985842129E+01  0.10509810781E+02  0.00000000000E+00 0. -1.
</event>
<event>
 7    1  0.5525118E-011  0.5052880E+02  0.7816164E-02  0.1300439E+00
        -11   -1    0    0    0    0  0.00000000000E+00  0.00000000000E+00  0.45593999997E+02  0.45594000000E+02  0.51100000000E-03 0. -1.
         11   -1    0    0    0    0 -0.00000000000E+00 -0.00000000000E+00 -0.45593999997E+02  0.45594000000E+02  0.51100000000E-03 0.  1.
    9900012    2    1    2    0    0 -0.56086077522E+01 -0.35285459793E+01  0.40115626270E+02  0.50528799459E+02  0.29999816434E+02 0.  0.
        -12    1    1    2    0    0  0.56086077522E+01  0.35285459793E+01 -0.40115626270E+02  0.40659200541E+02  0.00000000000E+00 0.  1.
         11    1    3    3    0    0 -0.26923354454E+01  0.17319212960E+01  0.38743711830E+02  0.38875743441E+02  0.51100000000E-03 0. -1.
        -11    1    3    3    0    0 -0.44311564916E+01 -0.43159426686E+01  0.47722274425E+01  0.78125964951E+01  0.51100000000E-03 0.  1.
         12    1    3    3    0    0  0.15148841848E+01 -0.94452460676E+00 -0.34003130025E+01  0.38404595222E+01  0.00000000000E+00 0. -1.
</event>
<event>
 7    1  0.5525118E-011  0.5052886E+02  0.7816164E-02  0.1300439E+00
        -11   -1    0    0    0    0  0.00000000000E+00  0.00000000000E+00  0.45593999997E+02  0.45594000000E+02  0.51100000000E-03 0. -1.
         11   -1    0    0    0    0 -0.00000000000E+00 -0.00000000000E+00 -0.45593999997E+02  0.45594000000E+02  0.51100000000E-03 0.  1.
    9900012    2    1    2    0    0  0.16617685773E+02 -0.21919803724E+01  0.37043400286E+02  0.50528858800E+02  0.29999996809E+02 0.  0.
        -12    1    1    2    0    0 -0.16617685773E+02  0.21919803724E+01 -0.37043400286E+02  0.40659141200E+02  0.00000000000E+00 0.  1.
         11    1    3    3    0    0  0.89198215638E+01 -0.10146646326E+02  0.18475853706E+02  0.22888311839E+02  0.51100000000E-03 0. -1.
        -11    1    3    3    0    0 -0.16232314331E+01  0.76422527316E+01  0.11686315346E+01  0.78996586650E+01  0.51100000000E-03 0.  1.
        -12    1    3    3    0    0  0.93210956420E+01  0.31241322220E+00  0.17398915045E+02  0.19740888296E+02  0.00000000000E+00 0.  1.
</event>
<event>
 7    1  0.5525118E-011  0.5052887E+02  0.7816164E-02  0.1300439E+00
        -11   -1    0    0    0    0  0.00000000000E+00  0.00000000000E+00  0.45593999997E+02  0.45594000000E+02  0.51100000000E-03 0.  1.
         11   -1    0    0    0    0 -0.00000000000E+00 -0.00000000000E+00 -0.45593999997E+02  0.45594000000E+02  0.51100000000E-03 0. -1.
    9900012    2    1    2    0    0 -0.23447335638E+02  0.31573092152E+02 -0.10321207755E+02  0.50528867864E+02  0.30000024358E+02 0.  0.
        -12    1    1    2    0    0  0.23447335638E+02 -0.31573092152E+02  0.10321207755E+02  0.40659132136E+02  0.00000000000E+00 0.  1.
         11    1    3    3    0    0 -0.10890762477E+01 -0.58074617962E+00 -0.52933917396E+00  0.13429644152E+01  0.51100000000E-03 0. -1.
        -11    1    3    3    0    0  0.14276715511E+01 -0.40156570329E+01 -0.33469463094E+01  0.54190218050E+01  0.51100000000E-03 0.  1.
        -12    1    3    3    0    0 -0.23785930942E+02  0.36169495365E+02 -0.64449222717E+01  0.43766881643E+02  0.00000000000E+00 0.  1.
</event>
<event>
 7    1  0.5525118E-011  0.5052886E+02  0.7816164E-02  0.1300439E+00
        -11   -1    0    0    0    0  0.00000000000E+00  0.00000000000E+00  0.45593999997E+02  0.45594000000E+02  0.51100000000E-03 0.  1.
         11   -1    0    0    0    0 -0.00000000000E+00 -0.00000000000E+00 -0.45593999997E+02  0.45594000000E+02  0.51100000000E-03 0. -1.
    9900012    2    1    2    0    0 -0.76321032784E+00  0.87534422902E+01 -0.39698368531E+02  0.50528859503E+02  0.29999998946E+02 0.  0.
        -12    1    1    2    0    0  0.76321032784E+00 -0.87534422902E+01  0.39698368531E+02  0.40659140497E+02  0.00000000000E+00 0.  1.
         11    1    3    3    0    0 -0.98181014681E+01  0.14350725176E+02 -0.32592106003E+02  0.36940273463E+02  0.51100000000E-03 0. -1.
        -11    1    3    3    0    0  0.26962922156E+01 -0.26216589893E+00 -0.74351385968E-01  0.27100278707E+01  0.51100000000E-03 0.  1.
         12    1    3    3    0    0  0.63585989247E+01 -0.53351169869E+01 -0.70319111413E+01  0.10878558170E+02  0.00000000000E+00 0. -1.
</event>
<event>
 7    1  0.5525118E-011  0.5052886E+02  0.7816164E-02  0.1300439E+00
        -11   -1    0    0    0    0  0.00000000000E+00  0.00000000000E+00  0.45593999997E+02  0.45594000000E+02  0.51100000000E-03 0.  1.
         11   -1    0    0    0    0 -0.00000000000E+00 -0.00000000000E+00 -0.45593999997E+02  0.45594000000E+02  0.51100000000E-03 0. -1.
    9900012    2    1    2    0    0  0.31624793126E+02 -0.20859978373E+02 -0.14761420732E+02  0.50528858593E+02  0.29999996179E+02 0.  0.
        -12    1    1    2    0    0 -0.31624793126E+02  0.20859978373E+02  0.14761420732E+02  0.40659141407E+02  0.00000000000E+00 0.  1.
         11    1    3    3    0    0  0.22413776970E+02 -0.38811395968E+01 -0.80846837366E+01  0.24141308043E+02  0.51100000000E-03 0. -1.
        -11    1    3    3    0    0  0.69669114963E-03 -0.10589907875E+02 -0.10133634988E+02  0.14657309017E+02  0.51100000000E-03 0.  1.
        -12    1    3    3    0    0  0.92103194643E+01 -0.63889309009E+01  0.34568979926E+01  0.11730241533E+02  0.00000000000E+00 0.  1.
</event>
<event>
 7    1  0.5525118E-011  0.5052887E+02  0.7816164E-02  0.1300439E+00
        -11   -1    0    0    0    0  0.00000000000E+00  0.00000000000E+00  0.45593999997E+02  0.45594000000E+02  0.51100000000E-03 0. -1.
         11   -1    0    0    0    0 -0.00000000000E+00 -0.00000000000E+00 -0.45593999997E+02  0.45594000000E+02  0.51100000000E-03 0.  1.
    9900012    2    1    2    0    0 -0.32636926629E+01 -0.32478933818E+02  0.24241122618E+02  0.50528869937E+02  0.30000030659E+02 0.  0.
        -12    1    1    2    0    0  0.32636926629E+01  0.32478933818E+02 -0.24241122618E+02  0.40659130063E+02  0.00000000000E+00 0.  1.
         11    1    3    3    0    0  0.45840616951E+01 -0.29544946425E+02  0.11541775576E+02  0.32048869942E+02  0.51100000000E-03 0. -1.
        -11    1    3    3    0    0 -0.78664396838E+01  0.21609448514E+01  0.92168879747E+01  0.12308597814E+02  0.51100000000E-03 0.  1.
         12    1    3    3    0    0  0.18685325814E-01 -0.50949322440E+01  0.34824590676E+01  0.61714021802E+01  0.00000000000E+00 0. -1.
</event>
<event>
 7    1  0.5525118E-011  0.5052886E+02  0.7816164E-02  0.1300439E+00
        -11   -1    0    0    0    0  0.00000000000E+00  0.00000000000E+00  0.45593999997E+02  0.45594000000E+02  0.51100000000E-03 0.  1.
         11   -1    0    0    0    0 -0.00000000000E+00 -0.00000000000E+00 -0.45593999997E+02  0.45594000000E+02  0.51100000000E-03 0. -1.
    9900012    2    1    2    0    0 -0.20510168701E+02 -0.11947691118E+02 -0.33011385706E+02  0.50528856754E+02  0.29999990590E+02 0.  0.
        -12    1    1    2    0    0  0.20510168701E+02  0.11947691118E+02  0.33011385706E+02  0.40659143246E+02  0.00000000000E+00 0.  1.
         11    1    3    3    0    0 -0.46648846255E-01  0.10636943459E+01 -0.23492088636E+02  0.23516203999E+02  0.51100000000E-03 0.  1.
        -11    1    3    3    0    0 -0.10856376722E+02 -0.32717102147E+01 -0.62489890961E+01  0.12946616092E+02  0.51100000000E-03 0. -1.
        -12    1    3    3    0    0 -0.96071431333E+01 -0.97396752496E+01 -0.32703079741E+01  0.14066036663E+02  0.00000000000E+00 0.  1.
</event>
<event>
 7    1  0.5525118E-011  0.5052886E+02  0.7816164E-02  0.1300439E+00
        -11   -1    0    0    0    0  0.00000000000E+00  0.00000000000E+00  0.45593999997E+02  0.45594000000E+02  0.51100000000E-03 0. -1.
         11   -1    0    0    0    0 -0.00000000000E+00 -0.00000000000E+00 -0.45593999997E+02  0.45594000000E+02  0.51100000000E-03 0.  1.
    9900012    2    1    2    0    0 -0.51722541968E+01  0.39538723830E+02  0.79437444242E+01  0.50528856243E+02  0.29999989036E+02 0.  0.
        -12    1    1    2    0    0  0.51722541968E+01 -0.39538723830E+02 -0.79437444242E+01  0.40659143757E+02  0.00000000000E+00 0.  1.
         11    1    3    3    0    0  0.79379427865E+01  0.31340308457E+02 -0.12761489548E+01  0.32355129829E+02  0.51100000000E-03 0. -1.
        -11    1    3    3    0    0 -0.88739581514E+01  0.42997450540E+01  0.64666918833E+01  0.11792075516E+02  0.51100000000E-03 0.  1.
         12    1    3    3    0    0 -0.42362388319E+01  0.38986703191E+01  0.27532014957E+01  0.63816508972E+01  0.00000000000E+00 0. -1.
</event>
<event>
 7    1  0.5525118E-011  0.5052892E+02  0.7816164E-02  0.1300439E+00
        -11   -1    0    0    0    0  0.00000000000E+00  0.00000000000E+00  0.45593999997E+02  0.45594000000E+02  0.51100000000E-03 0.  1.
         11   -1    0    0    0    0 -0.00000000000E+00 -0.00000000000E+00 -0.45593999997E+02  0.45594000000E+02  0.51100000000E-03 0. -1.
    9900012    2    1    2    0    0 -0.34150587858E+01  0.25305219939E+02 -0.31640858920E+02  0.50528920622E+02  0.30000184722E+02 0.  0.
        -12    1    1    2    0    0  0.34150587858E+01 -0.25305219939E+02  0.31640858920E+02  0.40659079378E+02  0.00000000000E+00 0.  1.
         11    1    3    3    0    0 -0.51953441606E+01  0.59181397249E+00 -0.23496552688E+02  0.24071348804E+02  0.51100000000E-03 0. -1.
        -11    1    3    3    0    0  0.28786124432E+01  0.19163227385E+02 -0.51247510217E+01  0.20044419840E+02  0.51100000000E-03 0.  1.
         12    1    3    3    0    0 -0.10983270684E+01  0.55501785810E+01 -0.30195552101E+01  0.64131519783E+01  0.00000000000E+00 0. -1.
</event>
<event>
 7    1  0.5525118E-011  0.5052886E+02  0.7816164E-02  0.1300439E+00
        -11   -1    0    0    0    0  0.00000000000E+00  0.00000000000E+00  0.45593999997E+02  0.45594000000E+02  0.51100000000E-03 0. -1.
         11   -1    0    0    0    0 -0.00000000000E+00 -0.00000000000E+00 -0.45593999997E+02  0.45594000000E+02  0.51100000000E-03 0.  1.
    9900012    2    1    2    0    0 -0.29315572498E+00 -0.38373917275E+02  0.13435868698E+02  0.50528855457E+02  0.29999986646E+02 0.  0.
        -12    1    1    2    0    0  0.29315572498E+00  0.38373917275E+02 -0.13435868698E+02  0.40659144543E+02  0.00000000000E+00 0.  1.
         11    1    3    3    0    0  0.21444960809E+01 -0.35528158316E+02  0.38163710693E+01  0.35796837642E+02  0.51100000000E-03 0. -1.
        -11    1    3    3    0    0 -0.48810160316E+01 -0.48879661843E+01  0.92229406646E+01  0.11522984235E+02  0.51100000000E-03 0.  1.
        -12    1    3    3    0    0  0.24433642257E+01  0.20422072249E+01  0.39655696368E+00  0.32090335795E+01  0.00000000000E+00 0.  1.
</event>
<event>
 7    1  0.5525118E-011  0.5052886E+02  0.7816164E-02  0.1300439E+00
        -11   -1    0    0    0    0  0.00000000000E+00  0.00000000000E+00  0.45593999997E+02  0.45594000000E+02  0.51100000000E-03 0.  1.
         11   -1    0    0    0    0 -0.00000000000E+00 -0.00000000000E+00 -0.45593999997E+02  0.45594000000E+02  0.51100000000E-03 0. -1.
    9900012    2    1    2    0    0 -0.11517058409E+02  0.33904181367E+02 -0.19262126188E+02  0.50528860145E+02  0.30000000895E+02 0.  0.
        -12    1    1    2    0    0  0.11517058409E+02 -0.33904181367E+02  0.19262126188E+02  0.40659139855E+02  0.00000000000E+00 0.  1.
         11    1    3    3    0    0 -0.89772347980E+01  0.12342011339E+02 -0.16369069140E+02  0.22379955615E+02  0.51100000000E-03 0. -1.
        -11    1    3    3    0    0 -0.70830694987E+01  0.20533879884E+02  0.14642098426E+01  0.21770484775E+02  0.51100000000E-03 0.  1.
        -12    1    3    3    0    0  0.45432458882E+01  0.10282901427E+01 -0.43572668896E+01  0.63784197546E+01  0.00000000000E+00 0.  1.
</event>
<event>
 7    1  0.5525118E-011  0.5052886E+02  0.7816164E-02  0.1300439E+00
        -11   -1    0    0    0    0  0.00000000000E+00  0.00000000000E+00  0.45593999997E+02  0.45594000000E+02  0.51100000000E-03 0.  1.
         11   -1    0    0    0    0 -0.00000000000E+00 -0.00000000000E+00 -0.45593999997E+02  0.45594000000E+02  0.51100000000E-03 0. -1.
    9900012    2    1    2    0    0 -0.13966014547E+01  0.21654341273E+02 -0.34384655146E+02  0.50528862022E+02  0.30000006602E+02 0.  0.
        -12    1    1    2    0    0  0.13966014547E+01 -0.21654341273E+02  0.34384655146E+02  0.40659137978E+02  0.00000000000E+00 0.  1.
         11    1    3    3    0    0 -0.24517231689E+00  0.54176686989E+01 -0.30257837501E+02  0.30740006084E+02  0.51100000000E-03 0. -1.
        -11    1    3    3    0    0  0.12198997423E+01  0.56829989267E+01  0.32848271074E+01  0.66764303014E+01  0.51100000000E-03 0.  1.
        -12    1    3    3    0    0 -0.23713288802E+01  0.10553673647E+02 -0.74116447531E+01  0.13112425636E+02  0.00000000000E+00 0.  1.
</event>
<event>
 7    1  0.5525118E-011  0.5052885E+02  0.7816164E-02  0.1300439E+00
        -11   -1    0    0    0    0  0.00000000000E+00  0.00000000000E+00  0.45593999997E+02  0.45594000000E+02  0.51100000000E-03 0.  1.
         11   -1    0    0    0    0 -0.00000000000E+00 -0.00000000000E+00 -0.45593999997E+02  0.45594000000E+02  0.51100000000E-03 0. -1.
    9900012    2    1    2    0    0  0.29223114064E+02 -0.52251525355E+01 -0.27782612462E+02  0.50528853799E+02  0.29999981607E+02 0.  0.
        -12    1    1    2    0    0 -0.29223114064E+02  0.52251525355E+01  0.27782612462E+02  0.40659146201E+02  0.00000000000E+00 0.  1.
         11    1    3    3    0    0  0.11437328594E+02 -0.11212181665E+02 -0.13871057965E+02  0.21188009637E+02  0.51100000000E-03 0. -1.
        -11    1    3    3    0    0  0.65080917381E+01  0.55824111466E+01  0.29359832285E+01  0.90630331601E+01  0.51100000000E-03 0.  1.
         12    1    3    3    0    0  0.11277693732E+02  0.40461798293E+00 -0.16847537725E+02  0.20277811002E+02  0.00000000000E+00 0. -1.
</event>
<event>
 7    1  0.5525118E-011  0.5052886E+02  0.7816164E-02  0.1300439E+00
        -11   -1    0    0    0    0  0.00000000000E+00  0.00000000000E+00  0.45593999997E+02  0.45594000000E+02  0.51100000000E-03 0. -1.
         11   -1    0    0    0    0 -0.00000000000E+00 -0.00000000000E+00 -0.45593999997E+02  0.45594000000E+02  0.51100000000E-03 0.  1.
    9900012    2    1    2    0    0 -0.26913918623E+02  0.28237649969E+02 -0.11464818856E+02  0.50528856344E+02  0.29999989342E+02 0.  0.
        -12    1    1    2    0    0  0.26913918623E+02 -0.28237649969E+02  0.11464818856E+02  0.40659143656E+02  0.00000000000E+00 0.  1.
         11    1    3    3    0    0 -0.43716230475E+01  0.18961592259E+02  0.95348370322E+00  0.19482356133E+02  0.51100000000E-03 0. -1.
        -11    1    3    3    0    0 -0.24046720416E+02  0.67819815538E+01 -0.12860571521E+02  0.28100433034E+02  0.51100000000E-03 0.  1.
        -12    1    3    3    0    0  0.15044248404E+01  0.24940761565E+01  0.44226896192E+00  0.29460671766E+01  0.00000000000E+00 0.  1.
</event>
<event>
 7    1  0.5525118E-011  0.5052888E+02  0.7816164E-02  0.1300439E+00
        -11   -1    0    0    0    0  0.00000000000E+00  0.00000000000E+00  0.45593999997E+02  0.45594000000E+02  0.51100000000E-03 0.  1.
         11   -1    0    0    0    0 -0.00000000000E+00 -0.00000000000E+00 -0.45593999997E+02  0.45594000000E+02  0.51100000000E-03 0. -1.
    9900012    2    1    2    0    0 -0.28611699777E+02 -0.11982000790E+02  0.26286240954E+02  0.50528878385E+02  0.30000056338E+02 0.  0.
        -12    1    1    2    0    0  0.28611699777E+02  0.11982000790E+02 -0.26286240954E+02  0.40659121615E+02  0.00000000000E+00 0.  1.
         11    1    3    3    0    0 -0.14323050031E+02 -0.12274681517E+02  0.11967499283E+02  0.22339172050E+02  0.51100000000E-03 0. -1.
        -11    1    3    3    0    0 -0.10898603080E+02  0.18442577282E+01 -0.21872745084E+01  0.11267874942E+02  0.51100000000E-03 0.  1.
        -12    1    3    3    0    0 -0.33900466654E+01 -0.15515770017E+01  0.16506016179E+02  0.16921831393E+02  0.00000000000E+00 0.  1.
</event>
<event>
 7    1  0.5525118E-011  0.5052882E+02  0.7816164E-02  0.1300439E+00
        -11   -1    0    0    0    0  0.00000000000E+00  0.00000000000E+00  0.45593999997E+02  0.45594000000E+02  0.51100000000E-03 0.  1.
         11   -1    0    0    0    0 -0.00000000000E+00 -0.00000000000E+00 -0.45593999997E+02  0.45594000000E+02  0.51100000000E-03 0. -1.
    9900012    2    1    2    0    0  0.24739861521E+02 -0.48045109602E+01 -0.31906507242E+02  0.50528815576E+02  0.29999865424E+02 0.  0.
        -12    1    1    2    0    0 -0.24739861521E+02  0.48045109602E+01  0.31906507242E+02  0.40659184424E+02  0.00000000000E+00 0.  1.
         11    1    3    3    0    0  0.20239038438E+02 -0.72273584154E+01 -0.30816738805E+02  0.37570264538E+02  0.51100000000E-03 0. -1.
        -11    1    3    3    0    0 -0.13006868296E+01 -0.38331381589E+01 -0.17312156839E+01  0.44024813888E+01  0.51100000000E-03 0.  1.
         12    1    3    3    0    0  0.58015099129E+01  0.62559856140E+01  0.64144724746E+00  0.85560696493E+01  0.00000000000E+00 0. -1.
</event>
<event>
 7    1  0.5525118E-011  0.5052881E+02  0.7816164E-02  0.1300439E+00
        -11   -1    0    0    0    0  0.00000000000E+00  0.00000000000E+00  0.45593999997E+02  0.45594000000E+02  0.51100000000E-03 0.  1.
         11   -1    0    0    0    0 -0.00000000000E+00 -0.00000000000E+00 -0.45593999997E+02  0.45594000000E+02  0.51100000000E-03 0. -1.
    9900012    2    1    2    0    0 -0.15246293294E+01  0.23465619924E+02 -0.33169408735E+02  0.50528812983E+02  0.29999857544E+02 0.  0.
        -12    1    1    2    0    0  0.15246293294E+01 -0.23465619924E+02  0.33169408735E+02  0.40659187017E+02  0.00000000000E+00 0.  1.
         11    1    3    3    0    0  0.74899028941E+01  0.98035677597E+01 -0.16659781400E+02  0.20730578929E+02  0.51100000000E-03 0. -1.
        -11    1    3    3    0    0 -0.60947907293E+01 -0.37161199062E+01 -0.39464081516E+01  0.81566021573E+01  0.51100000000E-03 0.  1.
         12    1    3    3    0    0 -0.29197414942E+01  0.17378172071E+02 -0.12563219183E+02  0.21641631897E+02  0.00000000000E+00 0. -1.
</event>
<event>
 7    1  0.5525118E-011  0.5052887E+02  0.7816164E-02  0.1300439E+00
        -11   -1    0    0    0    0  0.00000000000E+00  0.00000000000E+00  0.45593999997E+02  0.45594000000E+02  0.51100000000E-03 0.  1.
         11   -1    0    0    0    0 -0.00000000000E+00 -0.00000000000E+00 -0.45593999997E+02  0.45594000000E+02  0.51100000000E-03 0. -1.
    9900012    2    1    2    0    0 -0.22368857540E+02 -0.33689370422E+02  0.42220029104E+01  0.50528870944E+02  0.30000033720E+02 0.  0.
        -12    1    1    2    0    0  0.22368857540E+02  0.33689370422E+02 -0.42220029104E+01  0.40659129056E+02  0.00000000000E+00 0.  1.
         11    1    3    3    0    0  0.23871251515E+01 -0.18314158954E+01  0.31188616328E+00  0.30248510560E+01  0.51100000000E-03 0. -1.
        -11    1    3    3    0    0 -0.19263797498E+02 -0.32286312096E+02 -0.40602438913E+01  0.37815148069E+02  0.51100000000E-03 0.  1.
        -12    1    3    3    0    0 -0.54921851934E+01  0.42835756971E+00  0.79703606383E+01  0.96888718183E+01  0.00000000000E+00 0.  1.
</event>
<event>
 7    1  0.5525118E-011  0.5052886E+02  0.7816164E-02  0.1300439E+00
        -11   -1    0    0    0    0  0.00000000000E+00  0.00000000000E+00  0.45593999997E+02  0.45594000000E+02  0.51100000000E-03 0.  1.
         11   -1    0    0    0    0 -0.00000000000E+00 -0.00000000000E+00 -0.45593999997E+02  0.45594000000E+02  0.51100000000E-03 0. -1.
    9900012    2    1    2    0    0  0.26658013275E+02 -0.29532195394E+02  0.83884238857E+01  0.50528857217E+02  0.29999991996E+02 0.  0.
        -12    1    1    2    0    0 -0.26658013275E+02  0.29532195394E+02 -0.83884238857E+01  0.40659142783E+02  0.00000000000E+00 0.  1.
         11    1    3    3    0    0  0.30487878403E+02 -0.16560217950E+02  0.43359549777E+01  0.34965011853E+02  0.51100000000E-03 0. -1.
        -11    1    3    3    0    0 -0.26393480039E+01 -0.13061970432E+02  0.24240436593E+01  0.13544637957E+02  0.51100000000E-03 0.  1.
        -12    1    3    3    0    0 -0.11905171243E+01  0.89992987670E-01  0.16284252487E+01  0.20192074068E+01  0.00000000000E+00 0.  1.
</event>
<event>
 7    1  0.5525118E-011  0.5052885E+02  0.7816164E-02  0.1300439E+00
        -11   -1    0    0    0    0  0.00000000000E+00  0.00000000000E+00  0.45593999997E+02  0.45594000000E+02  0.51100000000E-03 0. -1.
         11   -1    0    0    0    0 -0.00000000000E+00 -0.00000000000E+00 -0.45593999997E+02  0.45594000000E+02  0.51100000000E-03 0.  1.
    9900012    2    1    2    0    0 -0.23025456884E+02  0.10628034494E+02  0.31781118070E+02  0.50528852841E+02  0.29999978695E+02 0.  0.
        -12    1    1    2    0    0  0.23025456884E+02 -0.10628034494E+02 -0.31781118070E+02  0.40659147159E+02  0.00000000000E+00 0.  1.
         11    1    3    3    0    0 -0.11118412734E+02  0.64202938047E+01  0.29391214309E+01  0.13171093702E+02  0.51100000000E-03 0. -1.
        -11    1    3    3    0    0 -0.10916348196E+02  0.25927209833E+01  0.31869153476E+02  0.33786562470E+02  0.51100000000E-03 0.  1.
        -12    1    3    3    0    0 -0.99069595391E+00  0.16150197063E+01 -0.30271568371E+01  0.35711966679E+01  0.00000000000E+00 0.  1.
</event>
<event>
 7    1  0.5525118E-011  0.5052897E+02  0.7816164E-02  0.1300438E+00
        -11   -1    0    0    0    0  0.00000000000E+00  0.00000000000E+00  0.45593999997E+02  0.45594000000E+02  0.51100000000E-03 0. -1.
         11   -1    0    0    0    0 -0.00000000000E+00 -0.00000000000E+00 -0.45593999997E+02  0.45594000000E+02  0.51100000000E-03 0.  1.
    9900012    2    1    2    0    0  0.18156695672E+02 -0.10224522554E+02  0.34913463108E+02  0.50528974368E+02  0.30000348086E+02 0.  0.
        -12    1    1    2    0    0 -0.18156695672E+02  0.10224522554E+02 -0.34913463108E+02  0.40659025632E+02  0.00000000000E+00 0.  1.
         11    1    3    3    0    0  0.96808515600E+00 -0.10627815882E+02  0.50970828084E+01  0.11826576542E+02  0.51100000000E-03 0. -1.
        -11    1    3    3    0    0  0.49760885639E+01  0.77122769246E+01  0.17995836951E+02  0.20201257896E+02  0.51100000000E-03 0.  1.
        -12    1    3    3    0    0  0.12212521952E+02 -0.73089835967E+01  0.11820543348E+02  0.18501139930E+02  0.00000000000E+00 0.  1.
</event>
<event>
 7    1  0.5525118E-011  0.5052886E+02  0.7816164E-02  0.1300439E+00
        -11   -1    0    0    0    0  0.00000000000E+00  0.00000000000E+00  0.45593999997E+02  0.45594000000E+02  0.51100000000E-03 0.  1.
         11   -1    0    0    0    0 -0.00000000000E+00 -0.00000000000E+00 -0.45593999997E+02  0.45594000000E+02  0.51100000000E-03 0. -1.
    9900012    2    1    2    0    0 -0.21441733696E+02  0.25544048151E+01 -0.34451310086E+02  0.50528859644E+02  0.29999999373E+02 0.  0.
        -12    1    1    2    0    0  0.21441733696E+02 -0.25544048151E+01  0.34451310086E+02  0.40659140356E+02  0.00000000000E+00 0.  1.
         11    1    3    3    0    0 -0.15894400606E+02 -0.51542132977E+01 -0.35094003310E+02  0.38868842971E+02  0.51100000000E-03 0. -1.
        -11    1    3    3    0    0  0.12786108285E+01  0.28404837006E+01 -0.63531853176E+00  0.31791230240E+01  0.51100000000E-03 0.  1.
         12    1    3    3    0    0 -0.68259439186E+01  0.48681344123E+01  0.12780117551E+01  0.84808936488E+01  0.00000000000E+00 0. -1.
</event>
<event>
 7    1  0.5525118E-011  0.5052885E+02  0.7816164E-02  0.1300439E+00
        -11   -1    0    0    0    0  0.00000000000E+00  0.00000000000E+00  0.45593999997E+02  0.45594000000E+02  0.51100000000E-03 0. -1.
         11   -1    0    0    0    0 -0.00000000000E+00 -0.00000000000E+00 -0.45593999997E+02  0.45594000000E+02  0.51100000000E-03 0.  1.
    9900012    2    1    2    0    0  0.77307694773E+01  0.31674108045E+02  0.24293053119E+02  0.50528851620E+02  0.29999974984E+02 0.  0.
        -12    1    1    2    0    0 -0.77307694773E+01 -0.31674108045E+02 -0.24293053119E+02  0.40659148380E+02  0.00000000000E+00 0.  1.
         11    1    3    3    0    0  0.37334878130E+00  0.10336705248E+02 -0.51151978377E+01  0.11539155683E+02  0.51100000000E-03 0. -1.
        -11    1    3    3    0    0  0.29194015356E+01  0.21515960792E+01  0.12560952309E+02  0.13074012168E+02  0.51100000000E-03 0.  1.
         12    1    3    3    0    0  0.44380191603E+01  0.19185806718E+02  0.16847298648E+02  0.25915683769E+02  0.00000000000E+00 0. -1.
</event>
<event>
 7    1  0.5525118E-011  0.5052886E+02  0.7816164E-02  0.1300439E+00
        -11   -1    0    0    0    0  0.00000000000E+00  0.00000000000E+00  0.45593999997E+02  0.45594000000E+02  0.51100000000E-03 0. -1.
         11   -1    0    0    0    0 -0.00000000000E+00 -0.00000000000E+00 -0.45593999997E+02  0.45594000000E+02  0.51100000000E-03 0.  1.
    9900012    2    1    2    0    0  0.10182330151E+02  0.21267291915E+02 -0.33123823917E+02  0.50528864943E+02  0.30000015480E+02 0.  0.
        -12    1    1    2    0    0 -0.10182330151E+02 -0.21267291915E+02  0.33123823917E+02  0.40659135057E+02  0.00000000000E+00 0.  1.
         11    1    3    3    0    0  0.93010653800E+01 -0.31767420783E+01 -0.17809996186E+01  0.99886669449E+01  0.51100000000E-03 0. -1.
        -11    1    3    3    0    0 -0.26407384534E+01  0.12367483556E+02 -0.19636161775E+02  0.23356091253E+02  0.51100000000E-03 0.  1.
         12    1    3    3    0    0  0.35220032249E+01  0.12076550437E+02 -0.11706662523E+02  0.17184106745E+02  0.00000000000E+00 0. -1.
</event>
<event>
 7    1  0.5525118E-011  0.5052886E+02  0.7816164E-02  0.1300439E+00
        -11   -1    0    0    0    0  0.00000000000E+00  0.00000000000E+00  0.45593999997E+02  0.45594000000E+02  0.51100000000E-03 0.  1.
         11   -1    0    0    0    0 -0.00000000000E+00 -0.00000000000E+00 -0.45593999997E+02  0.45594000000E+02  0.51100000000E-03 0. -1.
    9900012    2    1    2    0    0 -0.12080279056E+02 -0.21414197770E+01 -0.38763987416E+02  0.50528861530E+02  0.30000005106E+02 0.  0.
        -12    1    1    2    0    0  0.12080279056E+02  0.21414197770E+01  0.38763987416E+02  0.40659138470E+02  0.00000000000E+00 0.  1.
         11    1    3    3    0    0 -0.53080930429E+01 -0.12135540086E+02 -0.30394051098E+02  0.33154871849E+02  0.51100000000E-03 0. -1.
        -11    1    3    3    0    0 -0.44217762585E+01  0.67862728414E+01  0.84360958553E-02  0.80997330688E+01  0.51100000000E-03 0.  1.
         12    1    3    3    0    0 -0.23504097547E+01  0.32078474679E+01 -0.83783724144E+01  0.92742566121E+01  0.00000000000E+00 0. -1.
</event>
<event>
 7    1  0.5525118E-011  0.5052886E+02  0.7816164E-02  0.1300439E+00
        -11   -1    0    0    0    0  0.00000000000E+00  0.00000000000E+00  0.45593999997E+02  0.45594000000E+02  0.51100000000E-03 0. -1.
         11   -1    0    0    0    0 -0.00000000000E+00 -0.00000000000E+00 -0.45593999997E+02  0.45594000000E+02  0.51100000000E-03 0.  1.
    9900012    2    1    2    0    0 -0.32089699551E+02 -0.89036957740E+01  0.23326833162E+02  0.50528858825E+02  0.29999996884E+02 0.  0.
        -12    1    1    2    0    0  0.32089699551E+02  0.89036957740E+01 -0.23326833162E+02  0.40659141175E+02  0.00000000000E+00 0.  1.
         11    1    3    3    0    0 -0.26416532535E+02 -0.91574558562E+00  0.23055096242E+02  0.35074338827E+02  0.51100000000E-03 0. -1.
        -11    1    3    3    0    0 -0.53401262175E+01 -0.11051718324E+02  0.90767613046E+00  0.12307774053E+02  0.51100000000E-03 0.  1.
         12    1    3    3    0    0 -0.33304079872E+00  0.30637681355E+01 -0.63593921066E+00  0.31467459448E+01  0.00000000000E+00 0. -1.
</event>
<event>
 7    1  0.5525118E-011  0.5052886E+02  0.7816164E-02  0.1300439E+00
        -11   -1    0    0    0    0  0.00000000000E+00  0.00000000000E+00  0.45593999997E+02  0.45594000000E+02  0.51100000000E-03 0.  1.
         11   -1    0    0    0    0 -0.00000000000E+00 -0.00000000000E+00 -0.45593999997E+02  0.45594000000E+02  0.51100000000E-03 0. -1.
    9900012    2    1    2    0    0 -0.26995344666E+02 -0.29407508311E+02 -0.77210979412E+01  0.50528861641E+02  0.30000005443E+02 0.  0.
        -12    1    1    2    0    0  0.26995344666E+02  0.29407508311E+02  0.77210979412E+01  0.40659138359E+02  0.00000000000E+00 0.  1.
         11    1    3    3    0    0 -0.22850615714E+02 -0.54703933581E+01 -0.54074796413E+01  0.24110509707E+02  0.51100000000E-03 0. -1.
        -11    1    3    3    0    0 -0.70390456525E+01 -0.18226575872E+02 -0.36542197797E+01  0.19877362858E+02  0.51100000000E-03 0.  1.
         12    1    3    3    0    0  0.28943167009E+01 -0.57105390809E+01  0.13406014797E+01  0.65409890756E+01  0.00000000000E+00 0. -1.
</event>
<event>
 7    1  0.5525118E-011  0.5052886E+02  0.7816164E-02  0.1300439E+00
        -11   -1    0    0    0    0  0.00000000000E+00  0.00000000000E+00  0.45593999997E+02  0.45594000000E+02  0.51100000000E-03 0.  1.
         11   -1    0    0    0    0 -0.00000000000E+00 -0.00000000000E+00 -0.45593999997E+02  0.45594000000E+02  0.51100000000E-03 0. -1.
    9900012    2    1    2    0    0 -0.15258033382E+02 -0.35650266511E+02  0.12223591288E+02  0.50528864876E+02  0.30000015279E+02 0.  0.
        -12    1    1    2    0    0  0.15258033382E+02  0.35650266511E+02 -0.12223591288E+02  0.40659135124E+02  0.00000000000E+00 0.  1.
         11    1    3    3    0    0 -0.31046370015E+01  0.10019700522E+01  0.78663449030E+01  0.85159906817E+01  0.51100000000E-03 0.  1.
        -11    1    3    3    0    0 -0.26808157697E+01 -0.28193650750E+02 -0.73526951366E+00  0.28330360698E+02  0.51100000000E-03 0. -1.
        -12    1    3    3    0    0 -0.94725806107E+01 -0.84585858138E+01  0.50925158992E+01  0.13682513496E+02  0.00000000000E+00 0.  1.
</event>
<event>
 7    1  0.5525118E-011  0.5052886E+02  0.7816164E-02  0.1300439E+00
        -11   -1    0    0    0    0  0.00000000000E+00  0.00000000000E+00  0.45593999997E+02  0.45594000000E+02  0.51100000000E-03 0.  1.
         11   -1    0    0    0    0 -0.00000000000E+00 -0.00000000000E+00 -0.45593999997E+02  0.45594000000E+02  0.51100000000E-03 0. -1.
    9900012    2    1    2    0    0 -0.32181146396E+02 -0.24791331163E+02  0.17115809253E+01  0.50528858427E+02  0.29999995675E+02 0.  0.
        -12    1    1    2    0    0  0.32181146396E+02  0.24791331163E+02 -0.17115809253E+01  0.40659141573E+02  0.00000000000E+00 0.  1.
         11    1    3    3    0    0 -0.71185961467E+01 -0.14723187647E+01 -0.27017313042E+01  0.77550941933E+01  0.51100000000E-03 0. -1.
        -11    1    3    3    0    0 -0.19398233953E+02 -0.28529385724E+02  0.14603005389E+01  0.34530418593E+02  0.51100000000E-03 0.  1.
        -12    1    3    3    0    0 -0.56643162970E+01  0.52103733262E+01  0.29530116906E+01  0.82433456409E+01  0.00000000000E+00 0.  1.
</event>
<event>
 7    1  0.5525118E-011  0.5052886E+02  0.7816164E-02  0.1300439E+00
        -11   -1    0    0    0    0  0.00000000000E+00  0.00000000000E+00  0.45593999997E+02  0.45594000000E+02  0.51100000000E-03 0. -1.
         11   -1    0    0    0    0 -0.00000000000E+00 -0.00000000000E+00 -0.45593999997E+02  0.45594000000E+02  0.51100000000E-03 0.  1.
    9900012    2    1    2    0    0  0.36897525243E+02 -0.12355735947E+02 -0.11792964210E+02  0.50528860994E+02  0.30000003477E+02 0.  0.
        -12    1    1    2    0    0 -0.36897525243E+02  0.12355735947E+02  0.11792964210E+02  0.40659139006E+02  0.00000000000E+00 0.  1.
         11    1    3    3    0    0  0.23138077192E+02 -0.17108605419E+02 -0.54111352004E+01  0.29280631481E+02  0.51100000000E-03 0. -1.
        -11    1    3    3    0    0  0.46968944521E+01  0.52544312461E+01  0.34675265687E+01  0.78545277375E+01  0.51100000000E-03 0.  1.
         12    1    3    3    0    0  0.90625535987E+01 -0.50156177445E+00 -0.98493555778E+01  0.13393701775E+02  0.00000000000E+00 0. -1.
</event>
<event>
 7    1  0.5525118E-011  0.5052887E+02  0.7816164E-02  0.1300439E+00
        -11   -1    0    0    0    0  0.00000000000E+00  0.00000000000E+00  0.45593999997E+02  0.45594000000E+02  0.51100000000E-03 0.  1.
         11   -1    0    0    0    0 -0.00000000000E+00 -0.00000000000E+00 -0.45593999997E+02  0.45594000000E+02  0.51100000000E-03 0. -1.
    9900012    2    1    2    0    0 -0.22056971807E+02 -0.24853396454E+02 -0.23429968863E+02  0.50528871117E+02  0.30000034248E+02 0.  0.
        -12    1    1    2    0    0  0.22056971807E+02  0.24853396454E+02  0.23429968863E+02  0.40659128883E+02  0.00000000000E+00 0.  1.
         11    1    3    3    0    0 -0.69902514318E+01 -0.20695204232E+02 -0.23993944551E+02  0.32447873100E+02  0.51100000000E-03 0. -1.
        -11    1    3    3    0    0 -0.62382612489E+01 -0.52722218715E+01 -0.27005203378E+01  0.86026180450E+01  0.51100000000E-03 0.  1.
         12    1    3    3    0    0 -0.88284591260E+01  0.11140296498E+01  0.32644960264E+01  0.94783799726E+01  0.00000000000E+00 0. -1.
</event>
<event>
 7    1  0.5525118E-011  0.5052889E+02  0.7816164E-02  0.1300439E+00
        -11   -1    0    0    0    0  0.00000000000E+00  0.00000000000E+00  0.45593999997E+02  0.45594000000E+02  0.51100000000E-03 0.  1.
         11   -1    0    0    0    0 -0.00000000000E+00 -0.00000000000E+00 -0.45593999997E+02  0.45594000000E+02  0.51100000000E-03 0. -1.
    9900012    2    1    2    0    0 -0.31875219273E+02  0.18775071321E+02 -0.16870980900E+02  0.50528893968E+02  0.30000103705E+02 0.  0.
        -12    1    1    2    0    0  0.31875219273E+02 -0.18775071321E+02  0.16870980900E+02  0.40659106032E+02  0.00000000000E+00 0.  1.
         11    1    3    3    0    0 -0.14748246271E+02  0.13120317926E+02 -0.81776849321E+01  0.21366516835E+02  0.51100000000E-03 0.  1.
        -11    1    3    3    0    0 -0.83457783892E+01 -0.79031015629E+01 -0.19500641513E+01  0.11658206624E+02  0.51100000000E-03 0. -1.
         12    1    3    3    0    0 -0.87811946124E+01  0.13557854957E+02 -0.67432318165E+01  0.17504170508E+02  0.00000000000E+00 0. -1.
</event>
<event>
 7    1  0.5525118E-011  0.5052885E+02  0.7816164E-02  0.1300439E+00
        -11   -1    0    0    0    0  0.00000000000E+00  0.00000000000E+00  0.45593999997E+02  0.45594000000E+02  0.51100000000E-03 0. -1.
         11   -1    0    0    0    0 -0.00000000000E+00 -0.00000000000E+00 -0.45593999997E+02  0.45594000000E+02  0.51100000000E-03 0.  1.
    9900012    2    1    2    0    0  0.18092119594E+02 -0.33375993386E+02  0.14556260622E+02  0.50528850363E+02  0.29999971164E+02 0.  0.
        -12    1    1    2    0    0 -0.18092119594E+02  0.33375993386E+02 -0.14556260622E+02  0.40659149637E+02  0.00000000000E+00 0.  1.
         11    1    3    3    0    0  0.16866499784E+01 -0.15604160671E+01  0.14328477336E+02  0.14511545385E+02  0.51100000000E-03 0. -1.
        -11    1    3    3    0    0  0.77768199210E+01 -0.12705611533E+02 -0.15353556963E+01  0.14975607163E+02  0.51100000000E-03 0.  1.
         12    1    3    3    0    0  0.86286496949E+01 -0.19109965785E+02  0.17631389824E+01  0.21041697815E+02  0.00000000000E+00 0. -1.
</event>
<event>
 7    1  0.5525118E-011  0.5052886E+02  0.7816164E-02  0.1300439E+00
        -11   -1    0    0    0    0  0.00000000000E+00  0.00000000000E+00  0.45593999997E+02  0.45594000000E+02  0.51100000000E-03 0.  1.
         11   -1    0    0    0    0 -0.00000000000E+00 -0.00000000000E+00 -0.45593999997E+02  0.45594000000E+02  0.51100000000E-03 0. -1.
    9900012    2    1    2    0    0  0.13536162063E+02  0.38142142512E+02  0.38878205828E+01  0.50528857514E+02  0.29999992899E+02 0.  0.
        -12    1    1    2    0    0 -0.13536162063E+02 -0.38142142512E+02 -0.38878205828E+01  0.40659142486E+02  0.00000000000E+00 0.  1.
         11    1    3    3    0    0 -0.48422971329E+01  0.14119610916E+02  0.17073980290E+01  0.15024195893E+02  0.51100000000E-03 0. -1.
        -11    1    3    3    0    0  0.12769726408E+02  0.17949378661E+02 -0.70352343917E+01  0.23124459562E+02  0.51100000000E-03 0.  1.
        -12    1    3    3    0    0  0.56087327882E+01  0.60731529356E+01  0.92156569455E+01  0.12380202058E+02  0.00000000000E+00 0.  1.
</event>
<event>
 7    1  0.5525118E-011  0.5052887E+02  0.7816164E-02  0.1300439E+00
        -11   -1    0    0    0    0  0.00000000000E+00  0.00000000000E+00  0.45593999997E+02  0.45594000000E+02  0.51100000000E-03 0.  1.
         11   -1    0    0    0    0 -0.00000000000E+00 -0.00000000000E+00 -0.45593999997E+02  0.45594000000E+02  0.51100000000E-03 0. -1.
    9900012    2    1    2    0    0 -0.20206832295E+02 -0.44961268577E+01 -0.34994770111E+02  0.50528866177E+02  0.30000019232E+02 0.  0.
        -12    1    1    2    0    0  0.20206832295E+02  0.44961268577E+01  0.34994770111E+02  0.40659133823E+02  0.00000000000E+00 0.  1.
         11    1    3    3    0    0 -0.23761442047E+02  0.53374256579E-01 -0.15374630771E+02  0.28301735787E+02  0.51100000000E-03 0. -1.
        -11    1    3    3    0    0  0.35597565705E+01  0.82492403519E+00 -0.29016931823E+01  0.46660679475E+01  0.51100000000E-03 0.  1.
         12    1    3    3    0    0 -0.51468183403E-02 -0.53744251495E+01 -0.16718446158E+02  0.17561062442E+02  0.00000000000E+00 0. -1.
</event>
<event>
 7    1  0.5525118E-011  0.5052885E+02  0.7816164E-02  0.1300439E+00
        -11   -1    0    0    0    0  0.00000000000E+00  0.00000000000E+00  0.45593999997E+02  0.45594000000E+02  0.51100000000E-03 0.  1.
         11   -1    0    0    0    0 -0.00000000000E+00 -0.00000000000E+00 -0.45593999997E+02  0.45594000000E+02  0.51100000000E-03 0. -1.
    9900012    2    1    2    0    0 -0.20512942515E+02 -0.29967486795E+02 -0.18284831120E+02  0.50528854356E+02  0.29999983300E+02 0.  0.
        -12    1    1    2    0    0  0.20512942515E+02  0.29967486795E+02  0.18284831120E+02  0.40659145644E+02  0.00000000000E+00 0.  1.
         11    1    3    3    0    0 -0.21876938305E+02 -0.17641603558E+02 -0.89323580996E+01  0.29489212047E+02  0.51100000000E-03 0. -1.
        -11    1    3    3    0    0 -0.22916915156E+01 -0.13975159266E+02 -0.94546407554E+01  0.17027834818E+02  0.51100000000E-03 0.  1.
         12    1    3    3    0    0  0.36556873059E+01  0.16492760284E+01  0.10216773466E+00  0.40118074907E+01  0.00000000000E+00 0. -1.
</event>
<event>
 7    1  0.5525118E-011  0.5052887E+02  0.7816164E-02  0.1300439E+00
        -11   -1    0    0    0    0  0.00000000000E+00  0.00000000000E+00  0.45593999997E+02  0.45594000000E+02  0.51100000000E-03 0.  1.
         11   -1    0    0    0    0 -0.00000000000E+00 -0.00000000000E+00 -0.45593999997E+02  0.45594000000E+02  0.51100000000E-03 0. -1.
    9900012    2    1    2    0    0  0.39254098116E+01  0.36938986233E+01 -0.40300266110E+02  0.50528865998E+02  0.30000018688E+02 0.  0.
        -12    1    1    2    0    0 -0.39254098116E+01 -0.36938986233E+01  0.40300266110E+02  0.40659134002E+02  0.00000000000E+00 0.  1.
         11    1    3    3    0    0  0.79808102411E+01 -0.68627706787E+01 -0.22747014368E+02  0.25064269717E+02  0.51100000000E-03 0. -1.
        -11    1    3    3    0    0 -0.16774854308E+00  0.34808101233E+01  0.22027054033E+01  0.41226314465E+01  0.51100000000E-03 0.  1.
        -12    1    3    3    0    0 -0.38876518864E+01  0.70758591787E+01 -0.19755957145E+02  0.21341964835E+02  0.00000000000E+00 0.  1.
</event>
<event>
 7    1  0.5525118E-011  0.5052886E+02  0.7816164E-02  0.1300439E+00
        -11   -1    0    0    0    0  0.00000000000E+00  0.00000000000E+00  0.45593999997E+02  0.45594000000E+02  0.51100000000E-03 0.  1.
         11   -1    0    0    0    0 -0.00000000000E+00 -0.00000000000E+00 -0.45593999997E+02  0.45594000000E+02  0.51100000000E-03 0. -1.
    9900012    2    1    2    0    0  0.20552806016E+02  0.19192784306E+02 -0.29366386048E+02  0.50528862847E+02  0.30000009109E+02 0.  0.
        -12    1    1    2    0    0 -0.20552806016E+02 -0.19192784306E+02  0.29366386048E+02  0.40659137153E+02  0.00000000000E+00 0.  1.
         11    1    3    3    0    0 -0.16892215128E+00  0.11408292432E+01 -0.14960076911E+02  0.15004463586E+02  0.51100000000E-03 0. -1.
        -11    1    3    3    0    0  0.16484807985E+02  0.41275048998E+01 -0.35342668712E+01  0.17357310666E+02  0.51100000000E-03 0.  1.
         12    1    3    3    0    0  0.42369201822E+01  0.13924450163E+02 -0.10872042266E+02  0.18167088595E+02  0.00000000000E+00 0. -1.
</event>
<event>
 7    1  0.5525118E-011  0.5052886E+02  0.7816164E-02  0.1300439E+00
        -11   -1    0    0    0    0  0.00000000000E+00  0.00000000000E+00  0.45593999997E+02  0.45594000000E+02  0.51100000000E-03 0. -1.
         11   -1    0    0    0    0 -0.00000000000E+00 -0.00000000000E+00 -0.45593999997E+02  0.45594000000E+02  0.51100000000E-03 0.  1.
    9900012    2    1    2    0    0  0.27596465343E+02 -0.62949358084E+01  0.29188604251E+02  0.50528859154E+02  0.29999997883E+02 0.  0.
        -12    1    1    2    0    0 -0.27596465343E+02  0.62949358084E+01 -0.29188604251E+02  0.40659140846E+02  0.00000000000E+00 0.  1.
         11    1    3    3    0    0  0.13550537424E+02 -0.12346746376E+02  0.58029043230E+01  0.19228440119E+02  0.51100000000E-03 0. -1.
        -11    1    3    3    0    0  0.14888571074E+02  0.83842113185E+01  0.15627998629E+02  0.23155968765E+02  0.51100000000E-03 0.  1.
         12    1    3    3    0    0 -0.84264315474E+00 -0.23324007503E+01  0.77577012987E+01  0.81444502691E+01  0.00000000000E+00 0. -1.
</event>
<event>
 7    1  0.6294358E-011  0.5052883E+02  0.7816164E-02  0.1300439E+00
        -11   -1    0    0    0    0  0.00000000000E+00  0.00000000000E+00  0.45593999997E+02  0.45594000000E+02  0.51100000000E-03 0. -1.
         11   -1    0    0    0    0 -0.00000000000E+00 -0.00000000000E+00 -0.45593999997E+02  0.45594000000E+02  0.51100000000E-03 0.  1.
    9900012    2    1    2    0    0 -0.63520184223E+01  0.32235863098E+02 -0.23951388321E+02  0.50528831167E+02  0.29999912814E+02 0.  0.
        -12    1    1    2    0    0  0.63520184223E+01 -0.32235863098E+02  0.23951388321E+02  0.40659168833E+02  0.00000000000E+00 0.  1.
         11    1    3    3    0    0 -0.29328618481E+01  0.24053968643E+02 -0.62788315992E+01  0.25032355315E+02  0.51100000000E-03 0. -1.
        -11    1    3    3    0    0  0.22545079202E+01 -0.27308501420E+01  0.47568112069E+00  0.35730408968E+01  0.51100000000E-03 0.  1.
         12    1    3    3    0    0 -0.56736644945E+01  0.10912744597E+02 -0.18148237843E+02  0.21923434955E+02  0.00000000000E+00 0. -1.
</event>
<event>
 7    1  0.5525118E-011  0.5052886E+02  0.7816164E-02  0.1300439E+00
        -11   -1    0    0    0    0  0.00000000000E+00  0.00000000000E+00  0.45593999997E+02  0.45594000000E+02  0.51100000000E-03 0.  1.
         11   -1    0    0    0    0 -0.00000000000E+00 -0.00000000000E+00 -0.45593999997E+02  0.45594000000E+02  0.51100000000E-03 0. -1.
    9900012    2    1    2    0    0  0.16961930555E+02  0.19829159961E+02 -0.31181136424E+02  0.50528856605E+02  0.29999990138E+02 0.  0.
        -12    1    1    2    0    0 -0.16961930555E+02 -0.19829159961E+02  0.31181136424E+02  0.40659143395E+02  0.00000000000E+00 0.  1.
         11    1    3    3    0    0  0.35583000090E+01  0.72694037179E+01 -0.49659671300E+01  0.94956073616E+01  0.51100000000E-03 0. -1.
        -11    1    3    3    0    0  0.15767762521E+02  0.29963871674E+00 -0.52313543819E+01  0.16615630810E+02  0.51100000000E-03 0.  1.
        -12    1    3    3    0    0 -0.23641319747E+01  0.12260117526E+02 -0.20983814912E+02  0.24417618434E+02  0.00000000000E+00 0.  1.
</event>
<event>
 7    1  0.5525118E-011  0.5052889E+02  0.7816164E-02  0.1300439E+00
        -11   -1    0    0    0    0  0.00000000000E+00  0.00000000000E+00  0.45593999997E+02  0.45594000000E+02  0.51100000000E-03 0. -1.
         11   -1    0    0    0    0 -0.00000000000E+00 -0.00000000000E+00 -0.45593999997E+02  0.45594000000E+02  0.51100000000E-03 0.  1.
    9900012    2    1    2    0    0  0.17957611982E+02 -0.54259889460E+01  0.36072790933E+02  0.50528887494E+02  0.30000084026E+02 0.  0.
        -12    1    1    2    0    0 -0.17957611982E+02  0.54259889460E+01 -0.36072790933E+02  0.40659112506E+02  0.00000000000E+00 0.  1.
         11    1    3    3    0    0  0.54003191306E+01  0.36248615951E+00  0.25892586554E+01  0.59999252974E+01  0.51100000000E-03 0. -1.
        -11    1    3    3    0    0  0.46390091503E+01 -0.15465359293E+02  0.13957853196E+02  0.21342900695E+02  0.51100000000E-03 0.  1.
        -12    1    3    3    0    0  0.79182837011E+01  0.96768841879E+01  0.19525679081E+02  0.23186061501E+02  0.00000000000E+00 0.  1.
</event>
<event>
 7    1  0.5525118E-011  0.5052887E+02  0.7816164E-02  0.1300439E+00
        -11   -1    0    0    0    0  0.00000000000E+00  0.00000000000E+00  0.45593999997E+02  0.45594000000E+02  0.51100000000E-03 0. -1.
         11   -1    0    0    0    0 -0.00000000000E+00 -0.00000000000E+00 -0.45593999997E+02  0.45594000000E+02  0.51100000000E-03 0.  1.
    9900012    2    1    2    0    0 -0.24674212778E+02 -0.19181387863E+02  0.26008120196E+02  0.50528871472E+02  0.30000035325E+02 0.  0.
        -12    1    1    2    0    0  0.24674212778E+02  0.19181387863E+02 -0.26008120196E+02  0.40659128528E+02  0.00000000000E+00 0.  1.
         11    1    3    3    0    0 -0.77684193538E+01 -0.18663305102E+02  0.89103836887E+01  0.22092130597E+02  0.51100000000E-03 0. -1.
        -11    1    3    3    0    0 -0.22169639512E+01  0.30152555066E+01 -0.18731413083E+01  0.41851348309E+01  0.51100000000E-03 0.  1.
         12    1    3    3    0    0 -0.14688829473E+02 -0.35333382680E+01  0.18970877815E+02  0.24251606044E+02  0.00000000000E+00 0. -1.
</event>
<event>
 7    1  0.5759692E-011  0.5052886E+02  0.7816164E-02  0.1300439E+00
        -11   -1    0    0    0    0  0.00000000000E+00  0.00000000000E+00  0.45593999997E+02  0.45594000000E+02  0.51100000000E-03 0. -1.
         11   -1    0    0    0    0 -0.00000000000E+00 -0.00000000000E+00 -0.45593999997E+02  0.45594000000E+02  0.51100000000E-03 0.  1.
    9900012    2    1    2    0    0 -0.14302268108E+02 -0.97093974568E+01  0.36801341631E+02  0.50528855667E+02  0.29999987287E+02 0.  0.
        -12    1    1    2    0    0  0.14302268108E+02  0.97093974568E+01 -0.36801341631E+02  0.40659144333E+02  0.00000000000E+00 0.  1.
         11    1    3    3    0    0 -0.17260927237E+02 -0.78872631898E+01  0.25857211920E+02  0.32074038384E+02  0.51100000000E-03 0. -1.
        -11    1    3    3    0    0  0.76445745165E+01 -0.31016073570E+01  0.10806277497E+02  0.13595408097E+02  0.51100000000E-03 0.  1.
        -12    1    3    3    0    0 -0.46859153875E+01  0.12794730900E+01  0.13785221435E+00  0.48594091863E+01  0.00000000000E+00 0.  1.
</event>
<event>
 7    1  0.5525118E-011  0.5052887E+02  0.7816164E-02  0.1300439E+00
        -11   -1    0    0    0    0  0.00000000000E+00  0.00000000000E+00  0.45593999997E+02  0.45594000000E+02  0.51100000000E-03 0. -1.
         11   -1    0    0    0    0 -0.00000000000E+00 -0.00000000000E+00 -0.45593999997E+02  0.45594000000E+02  0.51100000000E-03 0.  1.
    9900012    2    1    2    0    0 -0.11846962284E+02 -0.26656612289E+02  0.28323833224E+02  0.50528867907E+02  0.30000024489E+02 0.  0.
        -12    1    1    2    0    0  0.11846962284E+02  0.26656612289E+02 -0.28323833224E+02  0.40659132093E+02  0.00000000000E+00 0.  1.
         11    1    3    3    0    0 -0.67073417508E+01 -0.10168872222E+01  0.14840538560E+02  0.16317600253E+02  0.51100000000E-03 0. -1.
        -11    1    3    3    0    0  0.14935017175E+01 -0.24360945247E+02  0.86068391492E+01  0.25879796775E+02  0.51100000000E-03 0.  1.
        -12    1    3    3    0    0 -0.66331222510E+01 -0.12787798196E+01  0.48764555147E+01  0.83314708792E+01  0.00000000000E+00 0.  1.
</event>
<event>
 7    1  0.5525118E-011  0.5052886E+02  0.7816164E-02  0.1300439E+00
        -11   -1    0    0    0    0  0.00000000000E+00  0.00000000000E+00  0.45593999997E+02  0.45594000000E+02  0.51100000000E-03 0. -1.
         11   -1    0    0    0    0 -0.00000000000E+00 -0.00000000000E+00 -0.45593999997E+02  0.45594000000E+02  0.51100000000E-03 0.  1.
    9900012    2    1    2    0    0 -0.40192266705E+02  0.10419629409E+01  0.60549124424E+01  0.50528856448E+02  0.29999989660E+02 0.  0.
        -12    1    1    2    0    0  0.40192266705E+02 -0.10419629409E+01 -0.60549124424E+01  0.40659143552E+02  0.00000000000E+00 0.  1.
         11    1    3    3    0    0 -0.28193817598E+01 -0.84551691503E+01 -0.42010804701E+01  0.98533180323E+01  0.51100000000E-03 0.  1.
        -11    1    3    3    0    0 -0.20246866101E+02  0.45659664640E+01  0.14743681338E+01  0.20807628368E+02  0.51100000000E-03 0. -1.
        -12    1    3    3    0    0 -0.17126018845E+02  0.49311656271E+01  0.87816247786E+01  0.19867910048E+02  0.00000000000E+00 0.  1.
</event>
<event>
 7    1  0.5525118E-011  0.5052886E+02  0.7816164E-02  0.1300439E+00
        -11   -1    0    0    0    0  0.00000000000E+00  0.00000000000E+00  0.45593999997E+02  0.45594000000E+02  0.51100000000E-03 0.  1.
         11   -1    0    0    0    0 -0.00000000000E+00 -0.00000000000E+00 -0.45593999997E+02  0.45594000000E+02  0.51100000000E-03 0. -1.
    9900012    2    1    2    0    0  0.34684451471E+02  0.20594555481E+02 -0.51008909695E+01  0.50528856158E+02  0.29999988777E+02 0.  0.
        -12    1    1    2    0    0 -0.34684451471E+02 -0.20594555481E+02  0.51008909695E+01  0.40659143842E+02  0.00000000000E+00 0.  1.
         11    1    3    3    0    0  0.38546380337E+01  0.69286032365E+01  0.13697543604E+01  0.80461173524E+01  0.51100000000E-03 0. -1.
        -11    1    3    3    0    0  0.30332875915E+02  0.38527497726E+01 -0.97992838814E+01  0.32108456938E+02  0.51100000000E-03 0.  1.
        -12    1    3    3    0    0  0.49693752256E+00  0.98132024718E+01  0.33286385516E+01  0.10374281867E+02  0.00000000000E+00 0.  1.
</event>
<event>
 7    1  0.5525118E-011  0.5052885E+02  0.7816164E-02  0.1300439E+00
        -11   -1    0    0    0    0  0.00000000000E+00  0.00000000000E+00  0.45593999997E+02  0.45594000000E+02  0.51100000000E-03 0.  1.
         11   -1    0    0    0    0 -0.00000000000E+00 -0.00000000000E+00 -0.45593999997E+02  0.45594000000E+02  0.51100000000E-03 0. -1.
    9900012    2    1    2    0    0  0.12312673180E+02 -0.21120030129E+00 -0.38749453094E+02  0.50528847999E+02  0.29999963976E+02 0.  0.
        -12    1    1    2    0    0 -0.12312673180E+02  0.21120030129E+00  0.38749453094E+02  0.40659152001E+02  0.00000000000E+00 0.  1.
         11    1    3    3    0    0  0.15389037180E+02 -0.49276538057E+01 -0.13842541097E+02  0.21277222131E+02  0.51100000000E-03 0.  1.
        -11    1    3    3    0    0 -0.20303393219E+01 -0.25213202359E+01 -0.20413291669E+02  0.20668377065E+02  0.51100000000E-03 0. -1.
        -12    1    3    3    0    0 -0.10460246778E+01  0.72377737403E+01 -0.44936203283E+01  0.85832488021E+01  0.00000000000E+00 0.  1.
</event>
<event>
 7    1  0.5525118E-011  0.5052885E+02  0.7816164E-02  0.1300439E+00
        -11   -1    0    0    0    0  0.00000000000E+00  0.00000000000E+00  0.45593999997E+02  0.45594000000E+02  0.51100000000E-03 0.  1.
         11   -1    0    0    0    0 -0.00000000000E+00 -0.00000000000E+00 -0.45593999997E+02  0.45594000000E+02  0.51100000000E-03 0. -1.
    9900012    2    1    2    0    0  0.16542235613E+02 -0.19653153272E+02 -0.31516261948E+02  0.50528846544E+02  0.29999959555E+02 0.  0.
        -12    1    1    2    0    0 -0.16542235613E+02  0.19653153272E+02  0.31516261948E+02  0.40659153456E+02  0.00000000000E+00 0.  1.
         11    1    3    3    0    0 -0.54989052384E+01 -0.13327390654E+01  0.14337286454E+01  0.58369281584E+01  0.51100000000E-03 0. -1.
        -11    1    3    3    0    0  0.14951369212E+02 -0.80344681172E+01 -0.23683646691E+02  0.29137797447E+02  0.51100000000E-03 0.  1.
        -12    1    3    3    0    0  0.70897716392E+01 -0.10285946089E+02 -0.92663439025E+01  0.15554120938E+02  0.00000000000E+00 0.  1.
</event>
<event>
 7    1  0.5525118E-011  0.5052875E+02  0.7816164E-02  0.1300439E+00
        -11   -1    0    0    0    0  0.00000000000E+00  0.00000000000E+00  0.45593999997E+02  0.45594000000E+02  0.51100000000E-03 0.  1.
         11   -1    0    0    0    0 -0.00000000000E+00 -0.00000000000E+00 -0.45593999997E+02  0.45594000000E+02  0.51100000000E-03 0. -1.
    9900012    2    1    2    0    0  0.38074713434E+02  0.31107855418E+01 -0.13921704589E+02  0.50528749534E+02  0.29999664683E+02 0.  0.
        -12    1    1    2    0    0 -0.38074713434E+02 -0.31107855418E+01  0.13921704589E+02  0.40659250466E+02  0.00000000000E+00 0.  1.
         11    1    3    3    0    0  0.33261757327E+02  0.55778613432E+01 -0.17961123903E+02  0.38210718519E+02  0.51100000000E-03 0. -1.
        -11    1    3    3    0    0  0.61676038229E+01 -0.55322744933E+01  0.29241276202E+01  0.87861209066E+01  0.51100000000E-03 0.  1.
         12    1    3    3    0    0 -0.13546477158E+01  0.30651986920E+01  0.11152916934E+01  0.35319101088E+01  0.00000000000E+00 0. -1.
</event>
<event>
 7    1  0.5525118E-011  0.5052886E+02  0.7816164E-02  0.1300439E+00
        -11   -1    0    0    0    0  0.00000000000E+00  0.00000000000E+00  0.45593999997E+02  0.45594000000E+02  0.51100000000E-03 0. -1.
         11   -1    0    0    0    0 -0.00000000000E+00 -0.00000000000E+00 -0.45593999997E+02  0.45594000000E+02  0.51100000000E-03 0.  1.
    9900012    2    1    2    0    0 -0.23936740077E+02  0.15644497646E+02  0.28904110224E+02  0.50528863021E+02  0.30000009637E+02 0.  0.
        -12    1    1    2    0    0  0.23936740077E+02 -0.15644497646E+02 -0.28904110224E+02  0.40659136979E+02  0.00000000000E+00 0.  1.
         11    1    3    3    0    0 -0.43358609840E+01  0.41657447250E+01  0.38249500396E+01  0.71262446389E+01  0.51100000000E-03 0. -1.
        -11    1    3    3    0    0  0.31371760453E+01  0.97041834301E+01  0.10172564980E+01  0.10249285859E+02  0.51100000000E-03 0.  1.
        -12    1    3    3    0    0 -0.22738055138E+02  0.17745694910E+01  0.24061903686E+02  0.33153332522E+02  0.00000000000E+00 0.  1.
</event>
<event>
 7    1  0.5525118E-011  0.5052886E+02  0.7816164E-02  0.1300439E+00
        -11   -1    0    0    0    0  0.00000000000E+00  0.00000000000E+00  0.45593999997E+02  0.45594000000E+02  0.51100000000E-03 0. -1.
         11   -1    0    0    0    0 -0.00000000000E+00 -0.00000000000E+00 -0.45593999997E+02  0.45594000000E+02  0.51100000000E-03 0.  1.
    9900012    2    1    2    0    0 -0.11352471873E+02 -0.84767537153E+01  0.38110781298E+02  0.50528860531E+02  0.30000002070E+02 0.  0.
        -12    1    1    2    0    0  0.11352471873E+02  0.84767537153E+01 -0.38110781298E+02  0.40659139469E+02  0.00000000000E+00 0.  1.
         11    1    3    3    0    0 -0.64171596661E+01  0.53438458087E+01  0.26721246189E+02  0.27995742969E+02  0.51100000000E-03 0. -1.
        -11    1    3    3    0    0 -0.80591142493E+01 -0.12298101636E+02  0.55072548953E+01  0.15701034458E+02  0.51100000000E-03 0.  1.
        -12    1    3    3    0    0  0.31238020429E+01 -0.15224978884E+01  0.58822802142E+01  0.68320831041E+01  0.00000000000E+00 0.  1.
</event>
<event>
 7    1  0.5525118E-011  0.5052886E+02  0.7816164E-02  0.1300439E+00
        -11   -1    0    0    0    0  0.00000000000E+00  0.00000000000E+00  0.45593999997E+02  0.45594000000E+02  0.51100000000E-03 0.  1.
         11   -1    0    0    0    0 -0.00000000000E+00 -0.00000000000E+00 -0.45593999997E+02  0.45594000000E+02  0.51100000000E-03 0. -1.
    9900012    2    1    2    0    0  0.40461427906E+02  0.25375613599E+01 -0.30983348339E+01  0.50528855339E+02  0.29999986289E+02 0.  0.
        -12    1    1    2    0    0 -0.40461427906E+02 -0.25375613599E+01  0.30983348339E+01  0.40659144661E+02  0.00000000000E+00 0.  1.
         11    1    3    3    0    0 -0.31401133163E+01 -0.17833720855E+01 -0.13944706918E+01  0.38710820717E+01  0.51100000000E-03 0. -1.
        -11    1    3    3    0    0  0.28297940534E+02  0.20377880089E+01 -0.87020780556E+01  0.29675784424E+02  0.51100000000E-03 0.  1.
        -12    1    3    3    0    0  0.15303600688E+02  0.22831454364E+01  0.69982139135E+01  0.16981988844E+02  0.00000000000E+00 0.  1.
</event>
<event>
 7    1  0.5525118E-011  0.5052886E+02  0.7816164E-02  0.1300439E+00
        -11   -1    0    0    0    0  0.00000000000E+00  0.00000000000E+00  0.45593999997E+02  0.45594000000E+02  0.51100000000E-03 0.  1.
         11   -1    0    0    0    0 -0.00000000000E+00 -0.00000000000E+00 -0.45593999997E+02  0.45594000000E+02  0.51100000000E-03 0. -1.
    9900012    2    1    2    0    0  0.32690748947E+02  0.19524074661E+01 -0.24097075405E+02  0.50528855829E+02  0.29999987779E+02 0.  0.
        -12    1    1    2    0    0 -0.32690748947E+02 -0.19524074661E+01  0.24097075405E+02  0.40659144171E+02  0.00000000000E+00 0.  1.
         11    1    3    3    0    0  0.13714328298E+02 -0.45062406035E+01 -0.71002433597E+01  0.16087338533E+02  0.51100000000E-03 0. -1.
        -11    1    3    3    0    0  0.82492372560E+01  0.36644641846E+01 -0.20838566370E+02  0.22709558818E+02  0.51100000000E-03 0.  1.
        -12    1    3    3    0    0  0.10727183393E+02  0.27941838850E+01  0.38417343250E+01  0.11731958479E+02  0.00000000000E+00 0.  1.
</event>
<event>
 7    1  0.5525118E-011  0.5052886E+02  0.7816164E-02  0.1300439E+00
        -11   -1    0    0    0    0  0.00000000000E+00  0.00000000000E+00  0.45593999997E+02  0.45594000000E+02  0.51100000000E-03 0.  1.
         11   -1    0    0    0    0 -0.00000000000E+00 -0.00000000000E+00 -0.45593999997E+02  0.45594000000E+02  0.51100000000E-03 0. -1.
    9900012    2    1    2    0    0 -0.13864875715E+02  0.37976686335E+02  0.43245550898E+01  0.50528864983E+02  0.30000015603E+02 0.  0.
        -12    1    1    2    0    0  0.13864875715E+02 -0.37976686335E+02 -0.43245550898E+01  0.40659135017E+02  0.00000000000E+00 0.  1.
         11    1    3    3    0    0 -0.18596194321E+02  0.21484825715E+02 -0.51210120025E+01  0.28872840931E+02  0.51100000000E-03 0. -1.
        -11    1    3    3    0    0  0.44888973916E+01  0.17302469054E+02  0.72258462012E+01  0.19280520966E+02  0.51100000000E-03 0.  1.
        -12    1    3    3    0    0  0.24242121481E+00 -0.81060843336E+00  0.22197208911E+01  0.23755030861E+01  0.00000000000E+00 0.  1.
</event>
<event>
 7    1  0.5525118E-011  0.5052886E+02  0.7816164E-02  0.1300439E+00
        -11   -1    0    0    0    0  0.00000000000E+00  0.00000000000E+00  0.45593999997E+02  0.45594000000E+02  0.51100000000E-03 0.  1.
         11   -1    0    0    0    0 -0.00000000000E+00 -0.00000000000E+00 -0.45593999997E+02  0.45594000000E+02  0.51100000000E-03 0. -1.
    9900012    2    1    2    0    0 -0.97321813221E+01 -0.39476316060E+02  0.26620205005E+00  0.50528859004E+02  0.29999997429E+02 0.  0.
        -12    1    1    2    0    0  0.97321813221E+01  0.39476316060E+02 -0.26620205005E+00  0.40659140996E+02  0.00000000000E+00 0.  1.
         11    1    3    3    0    0 -0.19489690560E+02 -0.28787935396E+02  0.37615109445E+01  0.34967731229E+02  0.51100000000E-03 0. -1.
        -11    1    3    3    0    0  0.24769343351E+01 -0.14947332380E+01 -0.24433266710E+01  0.37867237337E+01  0.51100000000E-03 0.  1.
         12    1    3    3    0    0  0.72805749032E+01 -0.91936474266E+01 -0.10519822234E+01  0.11774404041E+02  0.00000000000E+00 0. -1.
</event>
<event>
 7    1  0.5525118E-011  0.5052886E+02  0.7816164E-02  0.1300439E+00
        -11   -1    0    0    0    0  0.00000000000E+00  0.00000000000E+00  0.45593999997E+02  0.45594000000E+02  0.51100000000E-03 0.  1.
         11   -1    0    0    0    0 -0.00000000000E+00 -0.00000000000E+00 -0.45593999997E+02  0.45594000000E+02  0.51100000000E-03 0. -1.
    9900012    2    1    2    0    0 -0.22960891479E+02 -0.35211170999E+00 -0.33553528150E+02  0.50528858697E+02  0.29999996496E+02 0.  0.
        -12    1    1    2    0    0  0.22960891479E+02  0.35211170999E+00  0.33553528150E+02  0.40659141303E+02  0.00000000000E+00 0.  1.
         11    1    3    3    0    0  0.35421661959E+01  0.42959405425E+01 -0.20727510165E+01  0.59412409093E+01  0.51100000000E-03 0.  1.
        -11    1    3    3    0    0 -0.98238413470E+01 -0.75496293457E+01 -0.54491505344E+01  0.13535065714E+02  0.51100000000E-03 0. -1.
         12    1    3    3    0    0 -0.16679216328E+02  0.29015770932E+01 -0.26031626599E+02  0.31052552074E+02  0.00000000000E+00 0. -1.
</event>
<event>
 7    1  0.5525118E-011  0.5052886E+02  0.7816164E-02  0.1300439E+00
        -11   -1    0    0    0    0  0.00000000000E+00  0.00000000000E+00  0.45593999997E+02  0.45594000000E+02  0.51100000000E-03 0.  1.
         11   -1    0    0    0    0 -0.00000000000E+00 -0.00000000000E+00 -0.45593999997E+02  0.45594000000E+02  0.51100000000E-03 0. -1.
    9900012    2    1    2    0    0 -0.24594370102E+02  0.12588426898E+02 -0.29829755650E+02  0.50528857675E+02  0.29999993388E+02 0.  0.
        -12    1    1    2    0    0  0.24594370102E+02 -0.12588426898E+02  0.29829755650E+02  0.40659142325E+02  0.00000000000E+00 0.  1.
         11    1    3    3    0    0  0.47079233304E+00 -0.38213117420E+01 -0.24031512606E+01  0.45386347168E+01  0.51100000000E-03 0. -1.
        -11    1    3    3    0    0 -0.27460153141E+02  0.10140936671E+02 -0.17814775608E+02  0.34267547874E+02  0.51100000000E-03 0.  1.
        -12    1    3    3    0    0  0.23949907053E+01  0.62688019689E+01 -0.96118287813E+01  0.11722675084E+02  0.00000000000E+00 0.  1.
</event>
<event>
 7    1  0.5525118E-011  0.5052886E+02  0.7816164E-02  0.1300439E+00
        -11   -1    0    0    0    0  0.00000000000E+00  0.00000000000E+00  0.45593999997E+02  0.45594000000E+02  0.51100000000E-03 0. -1.
         11   -1    0    0    0    0 -0.00000000000E+00 -0.00000000000E+00 -0.45593999997E+02  0.45594000000E+02  0.51100000000E-03 0.  1.
    9900012    2    1    2    0    0 -0.36075464592E+02 -0.50938336742E+01  0.18049359670E+02  0.50528859926E+02  0.30000000232E+02 0.  0.
        -12    1    1    2    0    0  0.36075464592E+02  0.50938336742E+01 -0.18049359670E+02  0.40659140074E+02  0.00000000000E+00 0.  1.
         11    1    3    3    0    0 -0.39374768838E+02 -0.67633898135E+01  0.13986674044E+02  0.42328984324E+02  0.51100000000E-03 0. -1.
        -11    1    3    3    0    0 -0.48469163998E+00  0.29532151911E+01  0.96656657737E+00  0.31449415194E+01  0.51100000000E-03 0.  1.
         12    1    3    3    0    0  0.37839958857E+01 -0.12836590518E+01  0.30961190481E+01  0.50549340831E+01  0.00000000000E+00 0. -1.
</event>
<event>
 7    1  0.5525118E-011  0.5052885E+02  0.7816164E-02  0.1300439E+00
        -11   -1    0    0    0    0  0.00000000000E+00  0.00000000000E+00  0.45593999997E+02  0.45594000000E+02  0.51100000000E-03 0.  1.
         11   -1    0    0    0    0 -0.00000000000E+00 -0.00000000000E+00 -0.45593999997E+02  0.45594000000E+02  0.51100000000E-03 0. -1.
    9900012    2    1    2    0    0  0.54754864844E+01 -0.59342451427E+00 -0.40284403371E+02  0.50528852691E+02  0.29999978240E+02 0.  0.
        -12    1    1    2    0    0 -0.54754864844E+01  0.59342451427E+00  0.40284403371E+02  0.40659147309E+02  0.00000000000E+00 0.  1.
         11    1    3    3    0    0  0.38649957425E+01 -0.14909990822E+02 -0.26046656976E+02  0.30260111670E+02  0.51100000000E-03 0. -1.
        -11    1    3    3    0    0  0.56364001138E+00  0.82074821053E+01 -0.80004897374E+01  0.11475551789E+02  0.51100000000E-03 0.  1.
         12    1    3    3    0    0  0.10468507306E+01  0.61090842027E+01 -0.62372566581E+01  0.87931892318E+01  0.00000000000E+00 0. -1.
</event>
<event>
 7    1  0.5525118E-011  0.5052886E+02  0.7816164E-02  0.1300439E+00
        -11   -1    0    0    0    0  0.00000000000E+00  0.00000000000E+00  0.45593999997E+02  0.45594000000E+02  0.51100000000E-03 0.  1.
         11   -1    0    0    0    0 -0.00000000000E+00 -0.00000000000E+00 -0.45593999997E+02  0.45594000000E+02  0.51100000000E-03 0. -1.
    9900012    2    1    2    0    0  0.31495625404E+02  0.20829101232E+02 -0.15077789335E+02  0.50528860695E+02  0.30000002570E+02 0.  0.
        -12    1    1    2    0    0 -0.31495625404E+02 -0.20829101232E+02  0.15077789335E+02  0.40659139305E+02  0.00000000000E+00 0.  1.
         11    1    3    3    0    0  0.28074689910E+02  0.15368377628E+02 -0.79990641051E+01  0.32990305716E+02  0.51100000000E-03 0. -1.
        -11    1    3    3    0    0  0.40540393837E+01 -0.42366480989E+01 -0.47477256362E+01  0.75448871042E+01  0.51100000000E-03 0.  1.
         12    1    3    3    0    0 -0.63310388919E+00  0.96973717032E+01 -0.23309995939E+01  0.99936678748E+01  0.00000000000E+00 0. -1.
</event>
<event>
 7    1  0.5525118E-011  0.5052886E+02  0.7816164E-02  0.1300439E+00
        -11   -1    0    0    0    0  0.00000000000E+00  0.00000000000E+00  0.45593999997E+02  0.45594000000E+02  0.51100000000E-03 0.  1.
         11   -1    0    0    0    0 -0.00000000000E+00 -0.00000000000E+00 -0.45593999997E+02  0.45594000000E+02  0.51100000000E-03 0. -1.
    9900012    2    1    2    0    0  0.40386264369E-01 -0.14218209299E+02 -0.38092085163E+02  0.50528855164E+02  0.29999985757E+02 0.  0.
        -12    1    1    2    0    0 -0.40386264369E-01  0.14218209299E+02  0.38092085163E+02  0.40659144836E+02  0.00000000000E+00 0.  1.
         11    1    3    3    0    0 -0.11785689648E+02 -0.10272018737E+02 -0.13358461077E+02  0.20563689650E+02  0.51100000000E-03 0. -1.
        -11    1    3    3    0    0  0.57873029441E+01  0.31627670859E+01 -0.15479048806E+02  0.16825484338E+02  0.51100000000E-03 0.  1.
         12    1    3    3    0    0  0.60387729686E+01 -0.71089576475E+01 -0.92545752802E+01  0.13139681176E+02  0.00000000000E+00 0. -1.
</event>
<event>
 7    1  0.5525118E-011  0.5052886E+02  0.7816164E-02  0.1300439E+00
        -11   -1    0    0    0    0  0.00000000000E+00  0.00000000000E+00  0.45593999997E+02  0.45594000000E+02  0.51100000000E-03 0.  1.
         11   -1    0    0    0    0 -0.00000000000E+00 -0.00000000000E+00 -0.45593999997E+02  0.45594000000E+02  0.51100000000E-03 0. -1.
    9900012    2    1    2    0    0  0.34464399056E+01  0.40214740325E+02 -0.49053481187E+01  0.50528859237E+02  0.29999998136E+02 0.  0.
        -12    1    1    2    0    0 -0.34464399056E+01 -0.40214740325E+02  0.49053481187E+01  0.40659140763E+02  0.00000000000E+00 0.  1.
         11    1    3    3    0    0  0.30079587368E+01  0.23436583016E+02 -0.15161834851E+02  0.28074943910E+02  0.51100000000E-03 0. -1.
        -11    1    3    3    0    0  0.18995218256E+01  0.15904997090E+02  0.12002219742E+02  0.20015753660E+02  0.51100000000E-03 0.  1.
        -12    1    3    3    0    0 -0.14610406568E+01  0.87316021875E+00 -0.17457330100E+01  0.24381616662E+01  0.00000000000E+00 0.  1.
</event>
<event>
 7    1  0.5525118E-011  0.5052886E+02  0.7816164E-02  0.1300439E+00
        -11   -1    0    0    0    0  0.00000000000E+00  0.00000000000E+00  0.45593999997E+02  0.45594000000E+02  0.51100000000E-03 0.  1.
         11   -1    0    0    0    0 -0.00000000000E+00 -0.00000000000E+00 -0.45593999997E+02  0.45594000000E+02  0.51100000000E-03 0. -1.
    9900012    2    1    2    0    0  0.13817689675E+02  0.24458858537E+02 -0.29393903323E+02  0.50528857591E+02  0.29999993134E+02 0.  0.
        -12    1    1    2    0    0 -0.13817689675E+02 -0.24458858537E+02  0.29393903323E+02  0.40659142409E+02  0.00000000000E+00 0.  1.
         11    1    3    3    0    0  0.16080300938E+02  0.20126560445E+02 -0.33150371928E+02  0.41983349948E+02  0.51100000000E-03 0. -1.
        -11    1    3    3    0    0 -0.17997497376E+00  0.41437390159E+01  0.46852622030E+01  0.62573673533E+01  0.51100000000E-03 0.  1.
         12    1    3    3    0    0 -0.20826362896E+01  0.18855907578E+00 -0.92879359815E+00  0.22881402902E+01  0.00000000000E+00 0. -1.
</event>
<event>
 7    1  0.5525118E-011  0.5052886E+02  0.7816164E-02  0.1300439E+00
        -11   -1    0    0    0    0  0.00000000000E+00  0.00000000000E+00  0.45593999997E+02  0.45594000000E+02  0.51100000000E-03 0. -1.
         11   -1    0    0    0    0 -0.00000000000E+00 -0.00000000000E+00 -0.45593999997E+02  0.45594000000E+02  0.51100000000E-03 0.  1.
    9900012    2    1    2    0    0 -0.18103663269E+02  0.22371321192E+02  0.28721884212E+02  0.50528864885E+02  0.30000015304E+02 0.  0.
        -12    1    1    2    0    0  0.18103663269E+02 -0.22371321192E+02 -0.28721884212E+02  0.40659135115E+02  0.00000000000E+00 0.  1.
         11    1    3    3    0    0 -0.68741427781E+01  0.68771915278E+01  0.12671231558E+02  0.15972154260E+02  0.51100000000E-03 0. -1.
        -11    1    3    3    0    0 -0.11698287990E+02  0.10703117687E+02 -0.19023442830E+01  0.15969520473E+02  0.51100000000E-03 0.  1.
        -12    1    3    3    0    0  0.46876749893E+00  0.47910119771E+01  0.17952996936E+02  0.18587190151E+02  0.00000000000E+00 0.  1.
</event>
<event>
 7    1  0.5525118E-011  0.5052885E+02  0.7816164E-02  0.1300439E+00
        -11   -1    0    0    0    0  0.00000000000E+00  0.00000000000E+00  0.45593999997E+02  0.45594000000E+02  0.51100000000E-03 0. -1.
         11   -1    0    0    0    0 -0.00000000000E+00 -0.00000000000E+00 -0.45593999997E+02  0.45594000000E+02  0.51100000000E-03 0.  1.
    9900012    2    1    2    0    0 -0.23981060275E+02  0.28711486467E+02  0.15928762641E+02  0.50528853595E+02  0.29999980988E+02 0.  0.
        -12    1    1    2    0    0  0.23981060275E+02 -0.28711486467E+02 -0.15928762641E+02  0.40659146405E+02  0.00000000000E+00 0.  1.
         11    1    3    3    0    0 -0.63462346042E+01  0.19768531533E+02  0.18895643504E+02  0.28073383770E+02  0.51100000000E-03 0. -1.
        -11    1    3    3    0    0 -0.10468217303E+02  0.20112393021E+00 -0.37572618338E+01  0.11123895050E+02  0.51100000000E-03 0.  1.
         12    1    3    3    0    0 -0.71666083677E+01  0.87418310036E+01  0.79038097159E+00  0.11331574775E+02  0.00000000000E+00 0. -1.
</event>
<event>
 7    1  0.5525118E-011  0.5052885E+02  0.7816164E-02  0.1300439E+00
        -11   -1    0    0    0    0  0.00000000000E+00  0.00000000000E+00  0.45593999997E+02  0.45594000000E+02  0.51100000000E-03 0.  1.
         11   -1    0    0    0    0 -0.00000000000E+00 -0.00000000000E+00 -0.45593999997E+02  0.45594000000E+02  0.51100000000E-03 0. -1.
    9900012    2    1    2    0    0  0.24253935513E+02  0.25229857497E+02 -0.20697031878E+02  0.50528853111E+02  0.29999979517E+02 0.  0.
        -12    1    1    2    0    0 -0.24253935513E+02 -0.25229857497E+02  0.20697031878E+02  0.40659146889E+02  0.00000000000E+00 0.  1.
         11    1    3    3    0    0  0.18651146463E+02  0.63853116739E+01 -0.98732949162E+01  0.22048116072E+02  0.51100000000E-03 0. -1.
        -11    1    3    3    0    0 -0.53348909769E+01  0.64933350843E+01  0.58192250453E+00  0.84239596577E+01  0.51100000000E-03 0.  1.
        -12    1    3    3    0    0  0.10937680026E+02  0.12351210739E+02 -0.11405659466E+02  0.20056777381E+02  0.00000000000E+00 0.  1.
</event>
<event>
 7    1  0.5525118E-011  0.5052886E+02  0.7816164E-02  0.1300439E+00
        -11   -1    0    0    0    0  0.00000000000E+00  0.00000000000E+00  0.45593999997E+02  0.45594000000E+02  0.51100000000E-03 0.  1.
         11   -1    0    0    0    0 -0.00000000000E+00 -0.00000000000E+00 -0.45593999997E+02  0.45594000000E+02  0.51100000000E-03 0. -1.
    9900012    2    1    2    0    0  0.28190627046E+02 -0.27932014159E+02 -0.88462923986E+01  0.50528858870E+02  0.29999997021E+02 0.  0.
        -12    1    1    2    0    0 -0.28190627046E+02  0.27932014159E+02  0.88462923986E+01  0.40659141130E+02  0.00000000000E+00 0.  1.
         11    1    3    3    0    0  0.11699447896E+02 -0.26449016762E+02 -0.30540317549E+01  0.29081861683E+02  0.51100000000E-03 0. -1.
        -11    1    3    3    0    0 -0.57733502010E+00  0.24506375504E+01  0.93203029058E+00  0.26847012595E+01  0.51100000000E-03 0.  1.
         12    1    3    3    0    0  0.17068514171E+02 -0.39336349475E+01 -0.67242909343E+01  0.18762295928E+02  0.00000000000E+00 0. -1.
</event>
<event>
 7    1  0.5525118E-011  0.5052885E+02  0.7816164E-02  0.1300439E+00
        -11   -1    0    0    0    0  0.00000000000E+00  0.00000000000E+00  0.45593999997E+02  0.45594000000E+02  0.51100000000E-03 0.  1.
         11   -1    0    0    0    0 -0.00000000000E+00 -0.00000000000E+00 -0.45593999997E+02  0.45594000000E+02  0.51100000000E-03 0. -1.
    9900012    2    1    2    0    0 -0.62783962936E+01  0.30835664546E+01 -0.40052958649E+02  0.50528854182E+02  0.29999982772E+02 0.  0.
        -12    1    1    2    0    0  0.62783962936E+01 -0.30835664546E+01  0.40052958649E+02  0.40659145818E+02  0.00000000000E+00 0.  1.
         11    1    3    3    0    0 -0.51741245739E+01  0.79546817505E+01 -0.26769711022E+02  0.28401865350E+02  0.51100000000E-03 0. -1.
        -11    1    3    3    0    0 -0.32454245687E+01 -0.97016728962E+01 -0.13379365952E+02  0.16842288180E+02  0.51100000000E-03 0.  1.
        -12    1    3    3    0    0  0.21411528489E+01  0.48305576003E+01  0.96118325147E-01  0.52847006523E+01  0.00000000000E+00 0.  1.
</event>
<event>
 7    1  0.5525118E-011  0.5052886E+02  0.7816164E-02  0.1300439E+00
        -11   -1    0    0    0    0  0.00000000000E+00  0.00000000000E+00  0.45593999997E+02  0.45594000000E+02  0.51100000000E-03 0.  1.
         11   -1    0    0    0    0 -0.00000000000E+00 -0.00000000000E+00 -0.45593999997E+02  0.45594000000E+02  0.51100000000E-03 0. -1.
    9900012    2    1    2    0    0 -0.33665663020E+02  0.21790732539E+02 -0.67046852923E+01  0.50528859625E+02  0.29999999315E+02 0.  0.
        -12    1    1    2    0    0  0.33665663020E+02 -0.21790732539E+02  0.67046852923E+01  0.40659140375E+02  0.00000000000E+00 0.  1.
         11    1    3    3    0    0 -0.28917094711E+02  0.11617550563E+02 -0.12601006657E+02  0.33614747011E+02  0.51100000000E-03 0. -1.
        -11    1    3    3    0    0  0.12693866594E+00  0.14188476130E+00  0.57567295465E+01  0.57598767386E+01  0.51100000000E-03 0.  1.
        -12    1    3    3    0    0 -0.48755069758E+01  0.10031297215E+02  0.13959181789E+00  0.11154235875E+02  0.00000000000E+00 0.  1.
</event>
<event>
 7    1  0.5525118E-011  0.5052886E+02  0.7816164E-02  0.1300439E+00
        -11   -1    0    0    0    0  0.00000000000E+00  0.00000000000E+00  0.45593999997E+02  0.45594000000E+02  0.51100000000E-03 0.  1.
         11   -1    0    0    0    0 -0.00000000000E+00 -0.00000000000E+00 -0.45593999997E+02  0.45594000000E+02  0.51100000000E-03 0. -1.
    9900012    2    1    2    0    0  0.30388933070E+02  0.22856617064E+02 -0.14396292184E+02  0.50528862954E+02  0.30000009434E+02 0.  0.
        -12    1    1    2    0    0 -0.30388933070E+02 -0.22856617064E+02  0.14396292184E+02  0.40659137046E+02  0.00000000000E+00 0.  1.
         11    1    3    3    0    0  0.30210983577E+02  0.20004445964E+02 -0.15307267532E+02  0.39334384787E+02  0.51100000000E-03 0. -1.
        -11    1    3    3    0    0 -0.21160265945E+01 -0.36104530811E+01 -0.43011533863E+00  0.42068919008E+01  0.51100000000E-03 0.  1.
         12    1    3    3    0    0  0.22939760871E+01  0.64626241806E+01  0.13410906868E+01  0.69875862655E+01  0.00000000000E+00 0. -1.
</event>
<event>
 7    1  0.5525118E-011  0.5052880E+02  0.7816164E-02  0.1300439E+00
        -11   -1    0    0    0    0  0.00000000000E+00  0.00000000000E+00  0.45593999997E+02  0.45594000000E+02  0.51100000000E-03 0.  1.
         11   -1    0    0    0    0 -0.00000000000E+00 -0.00000000000E+00 -0.45593999997E+02  0.45594000000E+02  0.51100000000E-03 0. -1.
    9900012    2    1    2    0    0 -0.21895552790E+02  0.17243108471E+01 -0.34216692755E+02  0.50528800021E+02  0.29999818142E+02 0.  0.
        -12    1    1    2    0    0  0.21895552790E+02 -0.17243108471E+01  0.34216692755E+02  0.40659199979E+02  0.00000000000E+00 0.  1.
         11    1    3    3    0    0 -0.62902595682E+01 -0.93006676183E+01 -0.18907039403E+02  0.21989677642E+02  0.51100000000E-03 0. -1.
        -11    1    3    3    0    0 -0.77604288893E+01  0.13704302665E+02 -0.91796257676E+01  0.18229034466E+02  0.51100000000E-03 0.  1.
        -12    1    3    3    0    0 -0.78448643324E+01 -0.26793241995E+01 -0.61300275848E+01  0.10310087912E+02  0.00000000000E+00 0.  1.
</event>
<event>
 7    1  0.5525118E-011  0.5052886E+02  0.7816164E-02  0.1300439E+00
        -11   -1    0    0    0    0  0.00000000000E+00  0.00000000000E+00  0.45593999997E+02  0.45594000000E+02  0.51100000000E-03 0.  1.
         11   -1    0    0    0    0 -0.00000000000E+00 -0.00000000000E+00 -0.45593999997E+02  0.45594000000E+02  0.51100000000E-03 0. -1.
    9900012    2    1    2    0    0  0.32287952125E+02 -0.13980321668E+02 -0.20376567957E+02  0.50528858739E+02  0.29999996622E+02 0.  0.
        -12    1    1    2    0    0 -0.32287952125E+02  0.13980321668E+02  0.20376567957E+02  0.40659141261E+02  0.00000000000E+00 0.  1.
         11    1    3    3    0    0  0.31749353452E+02 -0.48466599981E+01 -0.90077835909E+01  0.33356434510E+02  0.51100000000E-03 0. -1.
        -11    1    3    3    0    0 -0.30621736489E+01 -0.67489321358E+01 -0.34993438407E+01  0.81957549992E+01  0.51100000000E-03 0.  1.
        -12    1    3    3    0    0  0.36007723226E+01 -0.23847295341E+01 -0.78694405256E+01  0.89766692295E+01  0.00000000000E+00 0.  1.
</event>
<event>
 7    1  0.5525118E-011  0.5052886E+02  0.7816164E-02  0.1300439E+00
        -11   -1    0    0    0    0  0.00000000000E+00  0.00000000000E+00  0.45593999997E+02  0.45594000000E+02  0.51100000000E-03 0. -1.
         11   -1    0    0    0    0 -0.00000000000E+00 -0.00000000000E+00 -0.45593999997E+02  0.45594000000E+02  0.51100000000E-03 0.  1.
    9900012    2    1    2    0    0  0.28589772006E+02 -0.28625693894E+02  0.40447377995E+01  0.50528864272E+02  0.30000013442E+02 0.  0.
        -12    1    1    2    0    0 -0.28589772006E+02  0.28625693894E+02 -0.40447377995E+01  0.40659135728E+02  0.00000000000E+00 0.  1.
         11    1    3    3    0    0  0.30665264347E+02 -0.25509311519E+02  0.45151374663E+01  0.40143117446E+02  0.51100000000E-03 0. -1.
        -11    1    3    3    0    0 -0.17603162512E+01 -0.47501167878E+01 -0.40190063407E+01  0.64664313984E+01  0.51100000000E-03 0.  1.
         12    1    3    3    0    0 -0.31517609015E+00  0.16337344130E+01  0.35486066740E+01  0.39193154283E+01  0.00000000000E+00 0. -1.
</event>
<event>
 7    1  0.5525118E-011  0.5052885E+02  0.7816164E-02  0.1300439E+00
        -11   -1    0    0    0    0  0.00000000000E+00  0.00000000000E+00  0.45593999997E+02  0.45594000000E+02  0.51100000000E-03 0.  1.
         11   -1    0    0    0    0 -0.00000000000E+00 -0.00000000000E+00 -0.45593999997E+02  0.45594000000E+02  0.51100000000E-03 0. -1.
    9900012    2    1    2    0    0 -0.10244228649E+02  0.12098160419E+02 -0.37441373546E+02  0.50528853930E+02  0.29999982006E+02 0.  0.
        -12    1    1    2    0    0  0.10244228649E+02 -0.12098160419E+02  0.37441373546E+02  0.40659146070E+02  0.00000000000E+00 0.  1.
         11    1    3    3    0    0  0.67317652415E+01  0.50469113667E+01 -0.20065834440E+01  0.86495291773E+01  0.51100000000E-03 0.  1.
        -11    1    3    3    0    0 -0.14450947400E+02 -0.16640906883E-01 -0.19554894182E+02  0.24315099103E+02  0.51100000000E-03 0. -1.
        -12    1    3    3    0    0 -0.25250464913E+01  0.70678899592E+01 -0.15879895919E+02  0.17564225650E+02  0.00000000000E+00 0.  1.
</event>
<event>
 7    1  0.5525118E-011  0.5052886E+02  0.7816164E-02  0.1300439E+00
        -11   -1    0    0    0    0  0.00000000000E+00  0.00000000000E+00  0.45593999997E+02  0.45594000000E+02  0.51100000000E-03 0. -1.
         11   -1    0    0    0    0 -0.00000000000E+00 -0.00000000000E+00 -0.45593999997E+02  0.45594000000E+02  0.51100000000E-03 0.  1.
    9900012    2    1    2    0    0  0.27230111733E+02  0.73260725588E+01 -0.29291899071E+02  0.50528859880E+02  0.30000000092E+02 0.  0.
        -12    1    1    2    0    0 -0.27230111733E+02 -0.73260725588E+01  0.29291899071E+02  0.40659140120E+02  0.00000000000E+00 0.  1.
         11    1    3    3    0    0  0.13786573349E+02 -0.81426442588E+01 -0.20837123197E+02  0.26278469583E+02  0.51100000000E-03 0. -1.
        -11    1    3    3    0    0  0.19476618185E+01  0.90306728612E+00 -0.49104517693E+01  0.53592400509E+01  0.51100000000E-03 0.  1.
         12    1    3    3    0    0  0.11495876565E+02  0.14565649532E+02 -0.35443241045E+01  0.18891150246E+02  0.00000000000E+00 0. -1.
</event>
<event>
 7    1  0.5525118E-011  0.5052891E+02  0.7816164E-02  0.1300439E+00
        -11   -1    0    0    0    0  0.00000000000E+00  0.00000000000E+00  0.45593999997E+02  0.45594000000E+02  0.51100000000E-03 0.  1.
         11   -1    0    0    0    0 -0.00000000000E+00 -0.00000000000E+00 -0.45593999997E+02  0.45594000000E+02  0.51100000000E-03 0. -1.
    9900012    2    1    2    0    0 -0.38327647239E+01 -0.35298786508E+02 -0.19810790870E+02  0.50528906930E+02  0.30000143105E+02 0.  0.
        -12    1    1    2    0    0  0.38327647239E+01  0.35298786508E+02  0.19810790870E+02  0.40659093070E+02  0.00000000000E+00 0.  1.
         11    1    3    3    0    0  0.19864215545E+01  0.14304634258E+01 -0.63628987494E+01  0.68175198541E+01  0.51100000000E-03 0. -1.
        -11    1    3    3    0    0 -0.11202786642E+02 -0.33437898829E+02 -0.11847475419E+02  0.37201588417E+02  0.51100000000E-03 0.  1.
        -12    1    3    3    0    0  0.53836003637E+01 -0.32913511045E+01 -0.16004167020E+01  0.65097986596E+01  0.00000000000E+00 0.  1.
</event>
<event>
 7    1  0.5525118E-011  0.5052883E+02  0.7816164E-02  0.1300439E+00
        -11   -1    0    0    0    0  0.00000000000E+00  0.00000000000E+00  0.45593999997E+02  0.45594000000E+02  0.51100000000E-03 0.  1.
         11   -1    0    0    0    0 -0.00000000000E+00 -0.00000000000E+00 -0.45593999997E+02  0.45594000000E+02  0.51100000000E-03 0. -1.
    9900012    2    1    2    0    0 -0.39626826762E+01 -0.15533913723E+02 -0.37365261863E+02  0.50528829772E+02  0.29999908574E+02 0.  0.
        -12    1    1    2    0    0  0.39626826762E+01  0.15533913723E+02  0.37365261863E+02  0.40659170228E+02  0.00000000000E+00 0.  1.
         11    1    3    3    0    0 -0.58682195890E+01 -0.98797140583E+01 -0.29042421729E+02  0.31233107613E+02  0.51100000000E-03 0. -1.
        -11    1    3    3    0    0 -0.54090598204E+01  0.16814813997E+00  0.16189658119E+01  0.56486505025E+01  0.51100000000E-03 0.  1.
        -12    1    3    3    0    0  0.73145967332E+01 -0.58223478042E+01 -0.99418059466E+01  0.13647071657E+02  0.00000000000E+00 0.  1.
</event>
<event>
 7    1  0.5525118E-011  0.5052885E+02  0.7816164E-02  0.1300439E+00
        -11   -1    0    0    0    0  0.00000000000E+00  0.00000000000E+00  0.45593999997E+02  0.45594000000E+02  0.51100000000E-03 0. -1.
         11   -1    0    0    0    0 -0.00000000000E+00 -0.00000000000E+00 -0.45593999997E+02  0.45594000000E+02  0.51100000000E-03 0.  1.
    9900012    2    1    2    0    0  0.25723813707E+01 -0.33889732891E+02 -0.22316712712E+02  0.50528845956E+02  0.29999957767E+02 0.  0.
        -12    1    1    2    0    0 -0.25723813707E+01  0.33889732891E+02  0.22316712712E+02  0.40659154044E+02  0.00000000000E+00 0.  1.
         11    1    3    3    0    0  0.93387221873E+01 -0.26444314308E+02 -0.18472673876E+02  0.33582036444E+02  0.51100000000E-03 0. -1.
        -11    1    3    3    0    0 -0.39965011159E+01 -0.55901340786E+01  0.43278375336E+01  0.81210712449E+01  0.51100000000E-03 0.  1.
        -12    1    3    3    0    0 -0.27698397006E+01 -0.18552845039E+01 -0.81718763696E+01  0.88257382670E+01  0.00000000000E+00 0.  1.
</event>
<event>
 7    1  0.5525118E-011  0.5052886E+02  0.7816164E-02  0.1300439E+00
        -11   -1    0    0    0    0  0.00000000000E+00  0.00000000000E+00  0.45593999997E+02  0.45594000000E+02  0.51100000000E-03 0.  1.
         11   -1    0    0    0    0 -0.00000000000E+00 -0.00000000000E+00 -0.45593999997E+02  0.45594000000E+02  0.51100000000E-03 0. -1.
    9900012    2    1    2    0    0 -0.70357257727E+01 -0.33020223418E+02 -0.22656767572E+02  0.50528859472E+02  0.29999998850E+02 0.  0.
        -12    1    1    2    0    0  0.70357257727E+01  0.33020223418E+02  0.22656767572E+02  0.40659140528E+02  0.00000000000E+00 0.  1.
         11    1    3    3    0    0 -0.23914632979E+01 -0.28912729421E+02 -0.28226626932E+02  0.40477246541E+02  0.51100000000E-03 0. -1.
        -11    1    3    3    0    0 -0.41952961019E+01 -0.32606874449E+01  0.10308451481E+01  0.54125071802E+01  0.51100000000E-03 0.  1.
         12    1    3    3    0    0 -0.44896637297E+00 -0.84680655166E+00  0.45390142126E+01  0.46391057503E+01  0.00000000000E+00 0. -1.
</event>
<event>
 7    1  0.5525118E-011  0.5052885E+02  0.7816164E-02  0.1300439E+00
        -11   -1    0    0    0    0  0.00000000000E+00  0.00000000000E+00  0.45593999997E+02  0.45594000000E+02  0.51100000000E-03 0.  1.
         11   -1    0    0    0    0 -0.00000000000E+00 -0.00000000000E+00 -0.45593999997E+02  0.45594000000E+02  0.51100000000E-03 0. -1.
    9900012    2    1    2    0    0  0.23777085948E+02  0.12940865532E+02 -0.30337276106E+02  0.50528854185E+02  0.29999982781E+02 0.  0.
        -12    1    1    2    0    0 -0.23777085948E+02 -0.12940865532E+02  0.30337276106E+02  0.40659145815E+02  0.00000000000E+00 0.  1.
         11    1    3    3    0    0  0.10037737097E+02  0.15679824930E+02 -0.24244908047E+02  0.30568425578E+02  0.51100000000E-03 0. -1.
        -11    1    3    3    0    0  0.27309285604E+01 -0.58018355485E+01  0.10317917597E+01  0.64949103944E+01  0.51100000000E-03 0.  1.
        -12    1    3    3    0    0  0.11008420290E+02  0.30628761508E+01 -0.71241598181E+01  0.13465518212E+02  0.00000000000E+00 0.  1.
</event>
<event>
 7    1  0.5525118E-011  0.5052886E+02  0.7816164E-02  0.1300439E+00
        -11   -1    0    0    0    0  0.00000000000E+00  0.00000000000E+00  0.45593999997E+02  0.45594000000E+02  0.51100000000E-03 0.  1.
         11   -1    0    0    0    0 -0.00000000000E+00 -0.00000000000E+00 -0.45593999997E+02  0.45594000000E+02  0.51100000000E-03 0. -1.
    9900012    2    1    2    0    0 -0.83037543924E+01  0.67007454624E+01 -0.39234083544E+02  0.50528860335E+02  0.30000001475E+02 0.  0.
        -12    1    1    2    0    0  0.83037543924E+01 -0.67007454624E+01  0.39234083544E+02  0.40659139665E+02  0.00000000000E+00 0.  1.
         11    1    3    3    0    0  0.59129798024E+01  0.64678169676E+01 -0.18365333072E+02  0.20348991267E+02  0.51100000000E-03 0. -1.
        -11    1    3    3    0    0 -0.11430605540E+02 -0.56384712021E+01 -0.62794609875E+01  0.14208544298E+02  0.51100000000E-03 0.  1.
        -12    1    3    3    0    0 -0.27861286550E+01  0.58713996969E+01 -0.14589289484E+02  0.15971324770E+02  0.00000000000E+00 0.  1.
</event>
<event>
 7    1  0.5525118E-011  0.5052877E+02  0.7816164E-02  0.1300439E+00
        -11   -1    0    0    0    0  0.00000000000E+00  0.00000000000E+00  0.45593999997E+02  0.45594000000E+02  0.51100000000E-03 0.  1.
         11   -1    0    0    0    0 -0.00000000000E+00 -0.00000000000E+00 -0.45593999997E+02  0.45594000000E+02  0.51100000000E-03 0. -1.
    9900012    2    1    2    0    0  0.40648745538E+02  0.13216081988E+00  0.91365257093E+00  0.50528772987E+02  0.29999735970E+02 0.  0.
        -12    1    1    2    0    0 -0.40648745538E+02 -0.13216081988E+00 -0.91365257093E+00  0.40659227013E+02  0.00000000000E+00 0.  1.
         11    1    3    3    0    0  0.28609119011E+01  0.64748714988E+01 -0.34783297850E+01  0.78871766930E+01  0.51100000000E-03 0. -1.
        -11    1    3    3    0    0  0.37241695829E+02 -0.68148829900E+01  0.82232931901E+01  0.38742858562E+02  0.51100000000E-03 0.  1.
        -12    1    3    3    0    0  0.54613780799E+00  0.47217231102E+00 -0.38313108342E+01  0.38987377322E+01  0.00000000000E+00 0.  1.
</event>
<event>
 7    1  0.5525118E-011  0.5052886E+02  0.7816164E-02  0.1300439E+00
        -11   -1    0    0    0    0  0.00000000000E+00  0.00000000000E+00  0.45593999997E+02  0.45594000000E+02  0.51100000000E-03 0.  1.
         11   -1    0    0    0    0 -0.00000000000E+00 -0.00000000000E+00 -0.45593999997E+02  0.45594000000E+02  0.51100000000E-03 0. -1.
    9900012    2    1    2    0    0 -0.34813434880E+02 -0.20158632628E+02  0.59008535418E+01  0.50528858468E+02  0.29999995800E+02 0.  0.
        -12    1    1    2    0    0  0.34813434880E+02  0.20158632628E+02 -0.59008535418E+01  0.40659141532E+02  0.00000000000E+00 0.  1.
         11    1    3    3    0    0 -0.21175197374E+02 -0.61814362346E+00  0.45942508172E+01  0.21676674703E+02  0.51100000000E-03 0. -1.
        -11    1    3    3    0    0 -0.16062834197E+02 -0.18695809207E+02 -0.19264449104E+01  0.24723654961E+02  0.51100000000E-03 0.  1.
        -12    1    3    3    0    0  0.24245966913E+01 -0.84467979779E+00  0.32330476351E+01  0.41285288042E+01  0.00000000000E+00 0.  1.
</event>
<event>
 7    1  0.5525118E-011  0.5052886E+02  0.7816164E-02  0.1300439E+00
        -11   -1    0    0    0    0  0.00000000000E+00  0.00000000000E+00  0.45593999997E+02  0.45594000000E+02  0.51100000000E-03 0. -1.
         11   -1    0    0    0    0 -0.00000000000E+00 -0.00000000000E+00 -0.45593999997E+02  0.45594000000E+02  0.51100000000E-03 0.  1.
    9900012    2    1    2    0    0  0.15933447945E+02  0.25757649329E+02  0.27126272251E+02  0.50528857011E+02  0.29999991372E+02 0.  0.
        -12    1    1    2    0    0 -0.15933447945E+02 -0.25757649329E+02 -0.27126272251E+02  0.40659142989E+02  0.00000000000E+00 0.  1.
         11    1    3    3    0    0  0.60266403916E+00  0.11440941421E+02  0.11411056566E+02  0.16170051229E+02  0.51100000000E-03 0. -1.
        -11    1    3    3    0    0  0.16692977986E+02  0.71659379810E+00  0.10475796220E+02  0.19720834856E+02  0.51100000000E-03 0.  1.
        -12    1    3    3    0    0 -0.13621940808E+01  0.13600114110E+02  0.52394194651E+01  0.14637970926E+02  0.00000000000E+00 0.  1.
</event>
<event>
 7    1  0.5525118E-011  0.5052883E+02  0.7816164E-02  0.1300439E+00
        -11   -1    0    0    0    0  0.00000000000E+00  0.00000000000E+00  0.45593999997E+02  0.45594000000E+02  0.51100000000E-03 0.  1.
         11   -1    0    0    0    0 -0.00000000000E+00 -0.00000000000E+00 -0.45593999997E+02  0.45594000000E+02  0.51100000000E-03 0. -1.
    9900012    2    1    2    0    0  0.23860827203E+02  0.90867479486E+00 -0.32909011131E+02  0.50528834018E+02  0.29999921481E+02 0.  0.
        -12    1    1    2    0    0 -0.23860827203E+02 -0.90867479486E+00  0.32909011131E+02  0.40659165982E+02  0.00000000000E+00 0.  1.
         11    1    3    3    0    0 -0.43014641098E+00  0.37326863890E+01 -0.17526957918E+02  0.17925184176E+02  0.51100000000E-03 0. -1.
        -11    1    3    3    0    0  0.18294014562E+02 -0.15201013117E+01 -0.27529274231E+01  0.18562335156E+02  0.51100000000E-03 0.  1.
         12    1    3    3    0    0  0.59969590527E+01 -0.13039102825E+01 -0.12629125789E+02  0.14041314686E+02  0.00000000000E+00 0. -1.
</event>
<event>
 7    1  0.5525118E-011  0.5052886E+02  0.7816164E-02  0.1300439E+00
        -11   -1    0    0    0    0  0.00000000000E+00  0.00000000000E+00  0.45593999997E+02  0.45594000000E+02  0.51100000000E-03 0. -1.
         11   -1    0    0    0    0 -0.00000000000E+00 -0.00000000000E+00 -0.45593999997E+02  0.45594000000E+02  0.51100000000E-03 0.  1.
    9900012    2    1    2    0    0  0.16019975514E+02 -0.26745769975E+02  0.26099617419E+02  0.50528857652E+02  0.29999993320E+02 0.  0.
        -12    1    1    2    0    0 -0.16019975514E+02  0.26745769975E+02 -0.26099617419E+02  0.40659142348E+02  0.00000000000E+00 0.  1.
         11    1    3    3    0    0  0.87049401264E+01 -0.25520756803E+02  0.21623963437E+02  0.34564154921E+02  0.51100000000E-03 0. -1.
        -11    1    3    3    0    0  0.46509119327E+01  0.29957172224E+01  0.80911210781E+01  0.98016092579E+01  0.51100000000E-03 0.  1.
         12    1    3    3    0    0  0.26641234551E+01 -0.42207303939E+01 -0.36154670956E+01  0.61630934734E+01  0.00000000000E+00 0. -1.
</event>
<event>
 7    1  0.5525118E-011  0.5052885E+02  0.7816164E-02  0.1300439E+00
        -11   -1    0    0    0    0  0.00000000000E+00  0.00000000000E+00  0.45593999997E+02  0.45594000000E+02  0.51100000000E-03 0. -1.
         11   -1    0    0    0    0 -0.00000000000E+00 -0.00000000000E+00 -0.45593999997E+02  0.45594000000E+02  0.51100000000E-03 0.  1.
    9900012    2    1    2    0    0  0.47577318944E+01  0.35425586409E+02 -0.19379319139E+02  0.50528853483E+02  0.29999980648E+02 0.  0.
        -12    1    1    2    0    0 -0.47577318944E+01 -0.35425586409E+02  0.19379319139E+02  0.40659146517E+02  0.00000000000E+00 0.  1.
         11    1    3    3    0    0  0.35672436205E+01  0.18818546615E+02 -0.25133008444E+01  0.19317857157E+02  0.51100000000E-03 0. -1.
        -11    1    3    3    0    0  0.54417341575E+01 -0.28087078684E+01 -0.21881682524E+01  0.65030293781E+01  0.51100000000E-03 0.  1.
        -12    1    3    3    0    0 -0.42512458837E+01  0.19415747662E+02 -0.14677850042E+02  0.24707966948E+02  0.00000000000E+00 0.  1.
</event>
<event>
 7    1  0.5525118E-011  0.5052887E+02  0.7816164E-02  0.1300439E+00
        -11   -1    0    0    0    0  0.00000000000E+00  0.00000000000E+00  0.45593999997E+02  0.45594000000E+02  0.51100000000E-03 0.  1.
         11   -1    0    0    0    0 -0.00000000000E+00 -0.00000000000E+00 -0.45593999997E+02  0.45594000000E+02  0.51100000000E-03 0. -1.
    9900012    2    1    2    0    0 -0.32709674975E+02  0.19334847927E+02 -0.14470867268E+02  0.50528865960E+02  0.30000018573E+02 0.  0.
        -12    1    1    2    0    0  0.32709674975E+02 -0.19334847927E+02  0.14470867268E+02  0.40659134040E+02  0.00000000000E+00 0.  1.
         11    1    3    3    0    0 -0.14182779743E+02  0.49391928664E+01 -0.34769864207E+01  0.15415456602E+02  0.51100000000E-03 0. -1.
        -11    1    3    3    0    0  0.17764813712E+01 -0.41734207458E+01 -0.53717307908E+01  0.70305631875E+01  0.51100000000E-03 0.  1.
        -12    1    3    3    0    0 -0.20303376603E+02  0.18569075807E+02 -0.56221500564E+01  0.28082846171E+02  0.00000000000E+00 0.  1.
</event>
<event>
 7    1  0.5525118E-011  0.5052886E+02  0.7816164E-02  0.1300439E+00
        -11   -1    0    0    0    0  0.00000000000E+00  0.00000000000E+00  0.45593999997E+02  0.45594000000E+02  0.51100000000E-03 0.  1.
         11   -1    0    0    0    0 -0.00000000000E+00 -0.00000000000E+00 -0.45593999997E+02  0.45594000000E+02  0.51100000000E-03 0. -1.
    9900012    2    1    2    0    0 -0.18752101513E+02 -0.16578333903E+02 -0.32041894357E+02  0.50528862526E+02  0.30000008134E+02 0.  0.
        -12    1    1    2    0    0  0.18752101513E+02  0.16578333903E+02  0.32041894357E+02  0.40659137474E+02  0.00000000000E+00 0.  1.
         11    1    3    3    0    0 -0.15899280323E+01 -0.16959752280E+02 -0.18902491918E+02  0.25445338857E+02  0.51100000000E-03 0. -1.
        -11    1    3    3    0    0 -0.13842749686E+01  0.18151878473E+01  0.20993241717E+01  0.31013362199E+01  0.51100000000E-03 0.  1.
         12    1    3    3    0    0 -0.15777898512E+02 -0.14337694700E+01 -0.15238726610E+02  0.21982187449E+02  0.00000000000E+00 0. -1.
</event>
<event>
 7    1  0.5525118E-011  0.5052886E+02  0.7816164E-02  0.1300439E+00
        -11   -1    0    0    0    0  0.00000000000E+00  0.00000000000E+00  0.45593999997E+02  0.45594000000E+02  0.51100000000E-03 0. -1.
         11   -1    0    0    0    0 -0.00000000000E+00 -0.00000000000E+00 -0.45593999997E+02  0.45594000000E+02  0.51100000000E-03 0.  1.
    9900012    2    1    2    0    0  0.28573806477E+01 -0.20969532267E+02  0.34717144712E+02  0.50528855338E+02  0.29999986286E+02 0.  0.
        -12    1    1    2    0    0 -0.28573806477E+01  0.20969532267E+02 -0.34717144712E+02  0.40659144662E+02  0.00000000000E+00 0.  1.
         11    1    3    3    0    0 -0.93769165547E+01 -0.15495805781E+02  0.20982588893E+02  0.27718506413E+02  0.51100000000E-03 0.  1.
        -11    1    3    3    0    0  0.29803781214E+01 -0.40893530358E+01 -0.11871760624E+01  0.51975810972E+01  0.51100000000E-03 0. -1.
         12    1    3    3    0    0  0.92539190810E+01 -0.13843734510E+01  0.14921731882E+02  0.17612767828E+02  0.00000000000E+00 0. -1.
</event>
<event>
 7    1  0.5525118E-011  0.5052895E+02  0.7816164E-02  0.1300438E+00
        -11   -1    0    0    0    0  0.00000000000E+00  0.00000000000E+00  0.45593999997E+02  0.45594000000E+02  0.51100000000E-03 0. -1.
         11   -1    0    0    0    0 -0.00000000000E+00 -0.00000000000E+00 -0.45593999997E+02  0.45594000000E+02  0.51100000000E-03 0.  1.
    9900012    2    1    2    0    0  0.18756680319E+02 -0.18893555018E+02  0.30730746528E+02  0.50528951069E+02  0.30000277267E+02 0.  0.
        -12    1    1    2    0    0 -0.18756680319E+02  0.18893555018E+02 -0.30730746528E+02  0.40659048931E+02  0.00000000000E+00 0.  1.
         11    1    3    3    0    0 -0.44879172825E+01 -0.57584822664E+01 -0.26625474290E+01  0.77711439711E+01  0.51100000000E-03 0.  1.
        -11    1    3    3    0    0  0.14939361193E+02 -0.83595856076E+01  0.21022240371E+02  0.27110916157E+02  0.51100000000E-03 0. -1.
        -12    1    3    3    0    0  0.83052364088E+01 -0.47754871445E+01  0.12371053587E+02  0.15646890941E+02  0.00000000000E+00 0.  1.
</event>
<event>
 7    1  0.5525118E-011  0.5052889E+02  0.7816164E-02  0.1300439E+00
        -11   -1    0    0    0    0  0.00000000000E+00  0.00000000000E+00  0.45593999997E+02  0.45594000000E+02  0.51100000000E-03 0.  1.
         11   -1    0    0    0    0 -0.00000000000E+00 -0.00000000000E+00 -0.45593999997E+02  0.45594000000E+02  0.51100000000E-03 0. -1.
    9900012    2    1    2    0    0  0.35113386357E+02  0.16795464962E+02  0.11752684332E+02  0.50528891134E+02  0.30000095090E+02 0.  0.
        -12    1    1    2    0    0 -0.35113386357E+02 -0.16795464962E+02 -0.11752684332E+02  0.40659108866E+02  0.00000000000E+00 0.  1.
         11    1    3    3    0    0  0.21163488386E+02  0.11605396655E+02 -0.53076314550E+01  0.24713345061E+02  0.51100000000E-03 0. -1.
        -11    1    3    3    0    0  0.37821472583E+01  0.79743579330E+01  0.74282782879E+01  0.11535785232E+02  0.51100000000E-03 0.  1.
         12    1    3    3    0    0  0.10167750713E+02 -0.27842896257E+01  0.96320374994E+01  0.14279760841E+02  0.00000000000E+00 0. -1.
</event>
<event>
 7    1  0.5525118E-011  0.5052887E+02  0.7816164E-02  0.1300439E+00
        -11   -1    0    0    0    0  0.00000000000E+00  0.00000000000E+00  0.45593999997E+02  0.45594000000E+02  0.51100000000E-03 0. -1.
         11   -1    0    0    0    0 -0.00000000000E+00 -0.00000000000E+00 -0.45593999997E+02  0.45594000000E+02  0.51100000000E-03 0.  1.
    9900012    2    1    2    0    0 -0.38661053054E+02 -0.10063638834E+01  0.12548922879E+02  0.50528865025E+02  0.30000015729E+02 0.  0.
        -12    1    1    2    0    0  0.38661053054E+02  0.10063638834E+01 -0.12548922879E+02  0.40659134975E+02  0.00000000000E+00 0.  1.
         11    1    3    3    0    0 -0.28912836601E+02 -0.92968581309E+00 -0.28947771158E+01  0.29072257752E+02  0.51100000000E-03 0. -1.
        -11    1    3    3    0    0 -0.48451074202E+01 -0.52293377956E+01  0.45858648961E+01  0.84765085265E+01  0.51100000000E-03 0.  1.
         12    1    3    3    0    0 -0.49031090334E+01  0.51526597253E+01  0.10857835098E+02  0.12980098746E+02  0.00000000000E+00 0. -1.
</event>
<event>
 7    1  0.5525118E-011  0.5052887E+02  0.7816164E-02  0.1300439E+00
        -11   -1    0    0    0    0  0.00000000000E+00  0.00000000000E+00  0.45593999997E+02  0.45594000000E+02  0.51100000000E-03 0.  1.
         11   -1    0    0    0    0 -0.00000000000E+00 -0.00000000000E+00 -0.45593999997E+02  0.45594000000E+02  0.51100000000E-03 0. -1.
    9900012    2    1    2    0    0  0.10224570791E+02  0.27883113983E+02 -0.27769683288E+02  0.50528865686E+02  0.30000017739E+02 0.  0.
        -12    1    1    2    0    0 -0.10224570791E+02 -0.27883113983E+02  0.27769683288E+02  0.40659134314E+02  0.00000000000E+00 0.  1.
         11    1    3    3    0    0 -0.52573783666E+01  0.21599462110E+00 -0.12209854136E+02  0.13295383381E+02  0.51100000000E-03 0. -1.
        -11    1    3    3    0    0  0.11845475382E+02  0.24418468082E+02 -0.81028835899E+01  0.28323728448E+02  0.51100000000E-03 0.  1.
         12    1    3    3    0    0  0.36364737763E+01  0.32486512800E+01 -0.74569455621E+01  0.89097538564E+01  0.00000000000E+00 0. -1.
</event>
<event>
 7    1  0.5525118E-011  0.5052896E+02  0.7816164E-02  0.1300438E+00
        -11   -1    0    0    0    0  0.00000000000E+00  0.00000000000E+00  0.45593999997E+02  0.45594000000E+02  0.51100000000E-03 0.  1.
         11   -1    0    0    0    0 -0.00000000000E+00 -0.00000000000E+00 -0.45593999997E+02  0.45594000000E+02  0.51100000000E-03 0. -1.
    9900012    2    1    2    0    0  0.23966156758E+02 -0.14948570746E+00 -0.32844460455E+02  0.50528959206E+02  0.30000302002E+02 0.  0.
        -12    1    1    2    0    0 -0.23966156758E+02  0.14948570746E+00  0.32844460455E+02  0.40659040794E+02  0.00000000000E+00 0.  1.
         11    1    3    3    0    0  0.21487840943E+02 -0.58484175957E+01 -0.27113229807E+02  0.35086443644E+02  0.51100000000E-03 0. -1.
        -11    1    3    3    0    0 -0.42674610572E+01 -0.52363118822E+00  0.53095246433E+00  0.43321269922E+01  0.51100000000E-03 0.  1.
         12    1    3    3    0    0  0.67457768717E+01  0.62225630764E+01 -0.62621831117E+01  0.11110388570E+02  0.00000000000E+00 0. -1.
</event>
<event>
 7    1  0.5525118E-011  0.5052887E+02  0.7816164E-02  0.1300439E+00
        -11   -1    0    0    0    0  0.00000000000E+00  0.00000000000E+00  0.45593999997E+02  0.45594000000E+02  0.51100000000E-03 0. -1.
         11   -1    0    0    0    0 -0.00000000000E+00 -0.00000000000E+00 -0.45593999997E+02  0.45594000000E+02  0.51100000000E-03 0.  1.
    9900012    2    1    2    0    0  0.12192515924E+01 -0.40364804040E+02  0.47287377671E+01  0.50528868916E+02  0.30000027558E+02 0.  0.
        -12    1    1    2    0    0 -0.12192515924E+01  0.40364804040E+02 -0.47287377671E+01  0.40659131084E+02  0.00000000000E+00 0.  1.
         11    1    3    3    0    0  0.68314279689E+01 -0.73214287444E+01  0.55473635373E+01  0.11447487472E+02  0.51100000000E-03 0. -1.
        -11    1    3    3    0    0 -0.74961574569E+01 -0.11087797537E+02 -0.83717190968E+01  0.15786618122E+02  0.51100000000E-03 0.  1.
        -12    1    3    3    0    0  0.18839810804E+01 -0.21955577759E+02  0.75530933266E+01  0.23294763322E+02  0.00000000000E+00 0.  1.
</event>
<event>
 7    1  0.5525118E-011  0.5052887E+02  0.7816164E-02  0.1300439E+00
        -11   -1    0    0    0    0  0.00000000000E+00  0.00000000000E+00  0.45593999997E+02  0.45594000000E+02  0.51100000000E-03 0.  1.
         11   -1    0    0    0    0 -0.00000000000E+00 -0.00000000000E+00 -0.45593999997E+02  0.45594000000E+02  0.51100000000E-03 0. -1.
    9900012    2    1    2    0    0 -0.85868167019E+00  0.28493384893E+02 -0.28992322565E+02  0.50528867144E+02  0.30000022170E+02 0.  0.
        -12    1    1    2    0    0  0.85868167019E+00 -0.28493384893E+02  0.28992322565E+02  0.40659132856E+02  0.00000000000E+00 0.  1.
         11    1    3    3    0    0  0.89196097993E+01  0.24612385889E+02 -0.29900693303E+02  0.39741419682E+02  0.51100000000E-03 0. -1.
        -11    1    3    3    0    0 -0.39530103532E+01  0.24568140310E+01 -0.32306144784E+00  0.46654683576E+01  0.51100000000E-03 0.  1.
         12    1    3    3    0    0 -0.58252811163E+01  0.14241849735E+01  0.12314321854E+01  0.61219791040E+01  0.00000000000E+00 0. -1.
</event>
<event>
 7    1  0.5525118E-011  0.5052886E+02  0.7816164E-02  0.1300439E+00
        -11   -1    0    0    0    0  0.00000000000E+00  0.00000000000E+00  0.45593999997E+02  0.45594000000E+02  0.51100000000E-03 0. -1.
         11   -1    0    0    0    0 -0.00000000000E+00 -0.00000000000E+00 -0.45593999997E+02  0.45594000000E+02  0.51100000000E-03 0.  1.
    9900012    2    1    2    0    0  0.25373531317E+02 -0.20121156412E+02  0.24586356692E+02  0.50528856352E+02  0.29999989366E+02 0.  0.
        -12    1    1    2    0    0 -0.25373531317E+02  0.20121156412E+02 -0.24586356692E+02  0.40659143648E+02  0.00000000000E+00 0.  1.
         11    1    3    3    0    0  0.16154884650E+02 -0.40716550715E+01 -0.13081648026E+00  0.16660605820E+02  0.51100000000E-03 0.  1.
        -11    1    3    3    0    0 -0.32213907294E+01 -0.68968561281E+01  0.96596983678E+01  0.12298526558E+02  0.51100000000E-03 0. -1.
        -12    1    3    3    0    0  0.12440037397E+02 -0.91526452121E+01  0.15057474804E+02  0.21569723973E+02  0.00000000000E+00 0.  1.
</event>
<event>
 7    1  0.5525118E-011  0.5052885E+02  0.7816164E-02  0.1300439E+00
        -11   -1    0    0    0    0  0.00000000000E+00  0.00000000000E+00  0.45593999997E+02  0.45594000000E+02  0.51100000000E-03 0.  1.
         11   -1    0    0    0    0 -0.00000000000E+00 -0.00000000000E+00 -0.45593999997E+02  0.45594000000E+02  0.51100000000E-03 0. -1.
    9900012    2    1    2    0    0 -0.24891154040E+02  0.79295283274E+01 -0.31156375462E+02  0.50528847268E+02  0.29999961755E+02 0.  0.
        -12    1    1    2    0    0  0.24891154040E+02 -0.79295283274E+01  0.31156375462E+02  0.40659152732E+02  0.00000000000E+00 0.  1.
         11    1    3    3    0    0 -0.23986044965E+02  0.11584620776E+01 -0.30144180244E+02  0.38540160745E+02  0.51100000000E-03 0. -1.
        -11    1    3    3    0    0 -0.29354527800E+01 -0.47126065135E+00  0.23111221982E+01  0.37656680286E+01  0.51100000000E-03 0.  1.
         12    1    3    3    0    0  0.20303437044E+01  0.72423269011E+01 -0.33233174169E+01  0.82230184941E+01  0.00000000000E+00 0. -1.
</event>
<event>
 7    1  0.5525118E-011  0.5052887E+02  0.7816164E-02  0.1300439E+00
        -11   -1    0    0    0    0  0.00000000000E+00  0.00000000000E+00  0.45593999997E+02  0.45594000000E+02  0.51100000000E-03 0.  1.
         11   -1    0    0    0    0 -0.00000000000E+00 -0.00000000000E+00 -0.45593999997E+02  0.45594000000E+02  0.51100000000E-03 0. -1.
    9900012    2    1    2    0    0 -0.28499761824E+02  0.17466395871E+02 -0.23148512901E+02  0.50528867468E+02  0.30000023155E+02 0.  0.
        -12    1    1    2    0    0  0.28499761824E+02 -0.17466395871E+02  0.23148512901E+02  0.40659132532E+02  0.00000000000E+00 0.  1.
         11    1    3    3    0    0 -0.22784214415E+02  0.15762340873E+02 -0.18406598239E+02  0.33262210920E+02  0.51100000000E-03 0. -1.
        -11    1    3    3    0    0 -0.81171727837E+00 -0.67241487251E+01 -0.11212524042E+01  0.68651488135E+01  0.51100000000E-03 0.  1.
        -12    1    3    3    0    0 -0.49038301310E+01  0.84282037238E+01 -0.36206622570E+01  0.10401507734E+02  0.00000000000E+00 0.  1.
</event>
<event>
 7    1  0.5525118E-011  0.5052886E+02  0.7816164E-02  0.1300439E+00
        -11   -1    0    0    0    0  0.00000000000E+00  0.00000000000E+00  0.45593999997E+02  0.45594000000E+02  0.51100000000E-03 0.  1.
         11   -1    0    0    0    0 -0.00000000000E+00 -0.00000000000E+00 -0.45593999997E+02  0.45594000000E+02  0.51100000000E-03 0. -1.
    9900012    2    1    2    0    0  0.17682988948E+01  0.10098959137E+02 -0.39345260162E+02  0.50528863833E+02  0.30000012106E+02 0.  0.
        -12    1    1    2    0    0 -0.17682988948E+01 -0.10098959137E+02  0.39345260162E+02  0.40659136167E+02  0.00000000000E+00 0.  1.
         11    1    3    3    0    0 -0.75751373437E+01  0.35633637668E+01 -0.24307515663E+02  0.25708667509E+02  0.51100000000E-03 0. -1.
        -11    1    3    3    0    0  0.78196938447E+01 -0.40788067305E+01 -0.85696013665E+01  0.12297249449E+02  0.51100000000E-03 0.  1.
        -12    1    3    3    0    0  0.15237423939E+01  0.10614402101E+02 -0.64681431323E+01  0.12522946875E+02  0.00000000000E+00 0.  1.
</event>
<event>
 7    1  0.5525118E-011  0.5052886E+02  0.7816164E-02  0.1300439E+00
        -11   -1    0    0    0    0  0.00000000000E+00  0.00000000000E+00  0.45593999997E+02  0.45594000000E+02  0.51100000000E-03 0. -1.
         11   -1    0    0    0    0 -0.00000000000E+00 -0.00000000000E+00 -0.45593999997E+02  0.45594000000E+02  0.51100000000E-03 0.  1.
    9900012    2    1    2    0    0  0.28623697627E+02  0.22034495032E+02  0.18663616521E+02  0.50528860575E+02  0.30000002203E+02 0.  0.
        -12    1    1    2    0    0 -0.28623697627E+02 -0.22034495032E+02 -0.18663616521E+02  0.40659139425E+02  0.00000000000E+00 0.  1.
         11    1    3    3    0    0  0.22993105803E+02  0.15320567198E+02  0.13363029955E+01  0.27662038965E+02  0.51100000000E-03 0. -1.
        -11    1    3    3    0    0  0.34871949380E+01 -0.21530953059E+01  0.11070898286E+02  0.11805131810E+02  0.51100000000E-03 0.  1.
         12    1    3    3    0    0  0.21433968861E+01  0.88670231400E+01  0.62564152387E+01  0.11061689799E+02  0.00000000000E+00 0. -1.
</event>
<event>
 7    1  0.5525118E-011  0.5052886E+02  0.7816164E-02  0.1300439E+00
        -11   -1    0    0    0    0  0.00000000000E+00  0.00000000000E+00  0.45593999997E+02  0.45594000000E+02  0.51100000000E-03 0.  1.
         11   -1    0    0    0    0 -0.00000000000E+00 -0.00000000000E+00 -0.45593999997E+02  0.45594000000E+02  0.51100000000E-03 0. -1.
    9900012    2    1    2    0    0 -0.44395213121E+01  0.10501542866E+02 -0.39027857166E+02  0.50528863425E+02  0.30000010867E+02 0.  0.
        -12    1    1    2    0    0  0.44395213121E+01 -0.10501542866E+02  0.39027857166E+02  0.40659136575E+02  0.00000000000E+00 0.  1.
         11    1    3    3    0    0  0.46991324385E+01  0.10865421676E+02 -0.12759698248E+02  0.17405434022E+02  0.51100000000E-03 0. -1.
        -11    1    3    3    0    0 -0.13121019621E+02  0.17224004481E+01 -0.25259164241E+02  0.28515841170E+02  0.51100000000E-03 0.  1.
         12    1    3    3    0    0  0.39823658707E+01 -0.20862792580E+01 -0.10089946773E+01  0.46075882335E+01  0.00000000000E+00 0. -1.
</event>
<event>
 7    1  0.5525118E-011  0.5052886E+02  0.7816164E-02  0.1300439E+00
        -11   -1    0    0    0    0  0.00000000000E+00  0.00000000000E+00  0.45593999997E+02  0.45594000000E+02  0.51100000000E-03 0.  1.
         11   -1    0    0    0    0 -0.00000000000E+00 -0.00000000000E+00 -0.45593999997E+02  0.45594000000E+02  0.51100000000E-03 0. -1.
    9900012    2    1    2    0    0 -0.28424885200E+02 -0.15598496282E+02 -0.24533215953E+02  0.50528857487E+02  0.29999992819E+02 0.  0.
        -12    1    1    2    0    0  0.28424885200E+02  0.15598496282E+02  0.24533215953E+02  0.40659142513E+02  0.00000000000E+00 0.  1.
         11    1    3    3    0    0 -0.17135049735E+02 -0.49848709885E+01 -0.22941772270E+02  0.29065164430E+02  0.51100000000E-03 0. -1.
        -11    1    3    3    0    0 -0.13564752721E+02 -0.11442060722E+02 -0.38430641385E+01  0.18157434075E+02  0.51100000000E-03 0.  1.
         12    1    3    3    0    0  0.22749172563E+01  0.82843542830E+00  0.22516204560E+01  0.33062589826E+01  0.00000000000E+00 0. -1.
</event>
<event>
 7    1  0.5525118E-011  0.5052887E+02  0.7816164E-02  0.1300439E+00
        -11   -1    0    0    0    0  0.00000000000E+00  0.00000000000E+00  0.45593999997E+02  0.45594000000E+02  0.51100000000E-03 0.  1.
         11   -1    0    0    0    0 -0.00000000000E+00 -0.00000000000E+00 -0.45593999997E+02  0.45594000000E+02  0.51100000000E-03 0. -1.
    9900012    2    1    2    0    0 -0.16090561287E+02  0.36705123892E+02  0.68551387269E+01  0.50528865609E+02  0.30000017505E+02 0.  0.
        -12    1    1    2    0    0  0.16090561287E+02 -0.36705123892E+02 -0.68551387269E+01  0.40659134391E+02  0.00000000000E+00 0.  1.
         11    1    3    3    0    0 -0.44109707147E+01  0.44513913750E+01 -0.98302019692E+01  0.11657805061E+02  0.51100000000E-03 0. -1.
        -11    1    3    3    0    0 -0.32740064860E+01  0.19795026024E+02  0.89804361034E+01  0.21982047371E+02  0.51100000000E-03 0.  1.
         12    1    3    3    0    0 -0.84055840863E+01  0.12458706493E+02  0.77049045928E+01  0.16889013177E+02  0.00000000000E+00 0. -1.
</event>
<event>
 7    1  0.5525118E-011  0.5052886E+02  0.7816164E-02  0.1300439E+00
        -11   -1    0    0    0    0  0.00000000000E+00  0.00000000000E+00  0.45593999997E+02  0.45594000000E+02  0.51100000000E-03 0. -1.
         11   -1    0    0    0    0 -0.00000000000E+00 -0.00000000000E+00 -0.45593999997E+02  0.45594000000E+02  0.51100000000E-03 0.  1.
    9900012    2    1    2    0    0  0.28240429057E+02  0.20829443864E+02  0.20537232427E+02  0.50528862272E+02  0.30000007362E+02 0.  0.
        -12    1    1    2    0    0 -0.28240429057E+02 -0.20829443864E+02 -0.20537232427E+02  0.40659137728E+02  0.00000000000E+00 0.  1.
         11    1    3    3    0    0  0.15272252064E+02  0.15413716096E+02  0.16880702427E+02  0.27491497625E+02  0.51100000000E-03 0. -1.
        -11    1    3    3    0    0  0.47552351076E+00  0.53469604034E+01 -0.53945478433E+01  0.76103386823E+01  0.51100000000E-03 0.  1.
         12    1    3    3    0    0  0.12492653482E+02  0.68767365261E-01  0.90510778434E+01  0.15427025965E+02  0.00000000000E+00 0. -1.
</event>
<event>
 7    1  0.5525118E-011  0.5052886E+02  0.7816164E-02  0.1300439E+00
        -11   -1    0    0    0    0  0.00000000000E+00  0.00000000000E+00  0.45593999997E+02  0.45594000000E+02  0.51100000000E-03 0.  1.
         11   -1    0    0    0    0 -0.00000000000E+00 -0.00000000000E+00 -0.45593999997E+02  0.45594000000E+02  0.51100000000E-03 0. -1.
    9900012    2    1    2    0    0 -0.30372791072E+02 -0.12207563909E+02 -0.24117106104E+02  0.50528857597E+02  0.29999993153E+02 0.  0.
        -12    1    1    2    0    0  0.30372791072E+02  0.12207563909E+02  0.24117106104E+02  0.40659142403E+02  0.00000000000E+00 0.  1.
         11    1    3    3    0    0 -0.10885146360E+02 -0.93790362652E+01 -0.96672999300E+01  0.17317893080E+02  0.51100000000E-03 0. -1.
        -11    1    3    3    0    0  0.36394268319E+01  0.31632004174E+00  0.24468943723E+01  0.43969055441E+01  0.51100000000E-03 0.  1.
        -12    1    3    3    0    0 -0.23127071544E+02 -0.31448476853E+01 -0.16896700547E+02  0.28814058973E+02  0.00000000000E+00 0.  1.
</event>
<event>
 7    1  0.5525118E-011  0.5052886E+02  0.7816164E-02  0.1300439E+00
        -11   -1    0    0    0    0  0.00000000000E+00  0.00000000000E+00  0.45593999997E+02  0.45594000000E+02  0.51100000000E-03 0.  1.
         11   -1    0    0    0    0 -0.00000000000E+00 -0.00000000000E+00 -0.45593999997E+02  0.45594000000E+02  0.51100000000E-03 0. -1.
    9900012    2    1    2    0    0 -0.17471369742E+02  0.25175233148E+02 -0.26723112241E+02  0.50528857700E+02  0.29999993465E+02 0.  0.
        -12    1    1    2    0    0  0.17471369742E+02 -0.25175233148E+02  0.26723112241E+02  0.40659142300E+02  0.00000000000E+00 0.  1.
         11    1    3    3    0    0 -0.63514499750E+01  0.71449765627E+01 -0.10472547681E+02  0.14179769464E+02  0.51100000000E-03 0. -1.
        -11    1    3    3    0    0 -0.55487686301E+01 -0.37915262906E+00  0.51467903258E+01  0.75777332327E+01  0.51100000000E-03 0.  1.
        -12    1    3    3    0    0 -0.55711511373E+01  0.18409409214E+02 -0.21397354886E+02  0.28771355003E+02  0.00000000000E+00 0.  1.
</event>
<event>
 7    1  0.5525118E-011  0.5052886E+02  0.7816164E-02  0.1300439E+00
        -11   -1    0    0    0    0  0.00000000000E+00  0.00000000000E+00  0.45593999997E+02  0.45594000000E+02  0.51100000000E-03 0.  1.
         11   -1    0    0    0    0 -0.00000000000E+00 -0.00000000000E+00 -0.45593999997E+02  0.45594000000E+02  0.51100000000E-03 0. -1.
    9900012    2    1    2    0    0  0.10807555307E+02 -0.39195717245E+02  0.24035155385E+00  0.50528864852E+02  0.30000015205E+02 0.  0.
        -12    1    1    2    0    0 -0.10807555307E+02  0.39195717245E+02 -0.24035155385E+00  0.40659135148E+02  0.00000000000E+00 0.  1.
         11    1    3    3    0    0 -0.21125981482E+01 -0.22396125450E+02 -0.80543259527E+01  0.23893967291E+02  0.51100000000E-03 0. -1.
        -11    1    3    3    0    0  0.96488238356E+01 -0.24905349909E+01  0.63796409034E+01  0.11832260320E+02  0.51100000000E-03 0.  1.
         12    1    3    3    0    0  0.32713296192E+01 -0.14309056805E+02  0.19150366031E+01  0.14802637242E+02  0.00000000000E+00 0. -1.
</event>
<event>
 7    1  0.5525118E-011  0.5052886E+02  0.7816164E-02  0.1300439E+00
        -11   -1    0    0    0    0  0.00000000000E+00  0.00000000000E+00  0.45593999997E+02  0.45594000000E+02  0.51100000000E-03 0.  1.
         11   -1    0    0    0    0 -0.00000000000E+00 -0.00000000000E+00 -0.45593999997E+02  0.45594000000E+02  0.51100000000E-03 0. -1.
    9900012    2    1    2    0    0 -0.17740639033E+02 -0.36192849330E+02 -0.53397906910E+01  0.50528856127E+02  0.29999988683E+02 0.  0.
        -12    1    1    2    0    0  0.17740639033E+02  0.36192849330E+02  0.53397906910E+01  0.40659143873E+02  0.00000000000E+00 0.  1.
         11    1    3    3    0    0  0.59395756709E+01 -0.16770428974E+02  0.34485144763E+01  0.18122309441E+02  0.51100000000E-03 0. -1.
        -11    1    3    3    0    0 -0.10918157117E+02 -0.68966017422E+01 -0.11616140175E+01  0.12966056370E+02  0.51100000000E-03 0.  1.
         12    1    3    3    0    0 -0.12762057587E+02 -0.12525818613E+02 -0.76266911498E+01  0.19440490315E+02  0.00000000000E+00 0. -1.
</event>
<event>
 7    1  0.5525118E-011  0.5052887E+02  0.7816164E-02  0.1300439E+00
        -11   -1    0    0    0    0  0.00000000000E+00  0.00000000000E+00  0.45593999997E+02  0.45594000000E+02  0.51100000000E-03 0.  1.
         11   -1    0    0    0    0 -0.00000000000E+00 -0.00000000000E+00 -0.45593999997E+02  0.45594000000E+02  0.51100000000E-03 0. -1.
    9900012    2    1    2    0    0  0.25513270216E+02  0.13005674104E+02 -0.28863310918E+02  0.50528865317E+02  0.30000016619E+02 0.  0.
        -12    1    1    2    0    0 -0.25513270216E+02 -0.13005674104E+02  0.28863310918E+02  0.40659134683E+02  0.00000000000E+00 0.  1.
         11    1    3    3    0    0  0.78994980196E+01  0.90571094019E+01 -0.17986248556E+02  0.21631884732E+02  0.51100000000E-03 0. -1.
        -11    1    3    3    0    0  0.49179645685E-01 -0.25740355341E+01  0.41466914959E+01  0.48808942000E+01  0.51100000000E-03 0.  1.
        -12    1    3    3    0    0  0.17564592550E+02  0.65226002364E+01 -0.15023753858E+02  0.24016086386E+02  0.00000000000E+00 0.  1.
</event>
<event>
 7    1  0.5525118E-011  0.5052886E+02  0.7816164E-02  0.1300439E+00
        -11   -1    0    0    0    0  0.00000000000E+00  0.00000000000E+00  0.45593999997E+02  0.45594000000E+02  0.51100000000E-03 0. -1.
         11   -1    0    0    0    0 -0.00000000000E+00 -0.00000000000E+00 -0.45593999997E+02  0.45594000000E+02  0.51100000000E-03 0.  1.
    9900012    2    1    2    0    0 -0.24996913355E+02 -0.28548234273E+02 -0.14605417533E+02  0.50528861068E+02  0.30000003703E+02 0.  0.
        -12    1    1    2    0    0  0.24996913355E+02  0.28548234273E+02  0.14605417533E+02  0.40659138932E+02  0.00000000000E+00 0.  1.
         11    1    3    3    0    0 -0.14781359764E+02 -0.16217567081E+02  0.44634289354E+01  0.22392415605E+02  0.51100000000E-03 0. -1.
        -11    1    3    3    0    0  0.16306007531E+01 -0.71814787750E+01 -0.43480402723E+01  0.85520728881E+01  0.51100000000E-03 0.  1.
         12    1    3    3    0    0 -0.11846154344E+02 -0.51491884165E+01 -0.14720806196E+02  0.19584372575E+02  0.00000000000E+00 0. -1.
</event>
<event>
 7    1  0.5525118E-011  0.5052886E+02  0.7816164E-02  0.1300439E+00
        -11   -1    0    0    0    0  0.00000000000E+00  0.00000000000E+00  0.45593999997E+02  0.45594000000E+02  0.51100000000E-03 0.  1.
         11   -1    0    0    0    0 -0.00000000000E+00 -0.00000000000E+00 -0.45593999997E+02  0.45594000000E+02  0.51100000000E-03 0. -1.
    9900012    2    1    2    0    0 -0.26021252406E+02 -0.99166276883E+01 -0.29626346936E+02  0.50528861861E+02  0.30000006112E+02 0.  0.
        -12    1    1    2    0    0  0.26021252406E+02  0.99166276883E+01  0.29626346936E+02  0.40659138139E+02  0.00000000000E+00 0.  1.
         11    1    3    3    0    0 -0.16767856878E+02 -0.30259120118E+01 -0.21415312421E+02  0.27366636150E+02  0.51100000000E-03 0. -1.
        -11    1    3    3    0    0 -0.10070214364E+02 -0.81990053559E+01  0.17314756339E+01  0.13100798231E+02  0.51100000000E-03 0.  1.
         12    1    3    3    0    0  0.81681883538E+00  0.13082896793E+01 -0.99425101480E+01  0.10061427480E+02  0.00000000000E+00 0. -1.
</event>
<event>
 7    1  0.5525118E-011  0.5052885E+02  0.7816164E-02  0.1300439E+00
        -11   -1    0    0    0    0  0.00000000000E+00  0.00000000000E+00  0.45593999997E+02  0.45594000000E+02  0.51100000000E-03 0.  1.
         11   -1    0    0    0    0 -0.00000000000E+00 -0.00000000000E+00 -0.45593999997E+02  0.45594000000E+02  0.51100000000E-03 0. -1.
    9900012    2    1    2    0    0  0.13326808489E+02  0.69681658599E+00 -0.38406727518E+02  0.50528854701E+02  0.29999984349E+02 0.  0.
        -12    1    1    2    0    0 -0.13326808489E+02 -0.69681658599E+00  0.38406727518E+02  0.40659145299E+02  0.00000000000E+00 0.  1.
         11    1    3    3    0    0  0.38173359146E+00 -0.72077850375E+01 -0.18010925324E+02  0.19403384163E+02  0.51100000000E-03 0.  1.
        -11    1    3    3    0    0  0.87360193731E+01  0.10042380612E+02 -0.22352324893E+02  0.26015262275E+02  0.51100000000E-03 0. -1.
        -12    1    3    3    0    0  0.42090555242E+01 -0.21377789890E+01  0.19565227000E+01  0.51102082627E+01  0.00000000000E+00 0.  1.
</event>
<event>
 7    1  0.5525118E-011  0.5052881E+02  0.7816164E-02  0.1300439E+00
        -11   -1    0    0    0    0  0.00000000000E+00  0.00000000000E+00  0.45593999997E+02  0.45594000000E+02  0.51100000000E-03 0. -1.
         11   -1    0    0    0    0 -0.00000000000E+00 -0.00000000000E+00 -0.45593999997E+02  0.45594000000E+02  0.51100000000E-03 0.  1.
    9900012    2    1    2    0    0 -0.85573656134E+01  0.39647511508E+02 -0.28312444435E+01  0.50528811369E+02  0.29999852637E+02 0.  0.
        -12    1    1    2    0    0  0.85573656134E+01 -0.39647511508E+02  0.28312444435E+01  0.40659188631E+02  0.00000000000E+00 0.  1.
         11    1    3    3    0    0 -0.20694150668E+01  0.37887217141E+00  0.83857905417E+00  0.22647820938E+01  0.51100000000E-03 0. -1.
        -11    1    3    3    0    0  0.53882411909E+01  0.29759386485E+02 -0.99018828040E+01  0.31822971427E+02  0.51100000000E-03 0.  1.
        -12    1    3    3    0    0 -0.11876191737E+02  0.95092528514E+01  0.62320593064E+01  0.16441057848E+02  0.00000000000E+00 0.  1.
</event>
<event>
 7    1  0.5525118E-011  0.5052886E+02  0.7816164E-02  0.1300439E+00
        -11   -1    0    0    0    0  0.00000000000E+00  0.00000000000E+00  0.45593999997E+02  0.45594000000E+02  0.51100000000E-03 0.  1.
         11   -1    0    0    0    0 -0.00000000000E+00 -0.00000000000E+00 -0.45593999997E+02  0.45594000000E+02  0.51100000000E-03 0. -1.
    9900012    2    1    2    0    0 -0.70140208259E+01 -0.13690764861E+02 -0.37636842257E+02  0.50528862950E+02  0.30000009421E+02 0.  0.
        -12    1    1    2    0    0  0.70140208259E+01  0.13690764861E+02  0.37636842257E+02  0.40659137050E+02  0.00000000000E+00 0.  1.
         11    1    3    3    0    0  0.13170297430E+01  0.39972965213E+01 -0.15501747593E+02  0.16062911489E+02  0.51100000000E-03 0.  1.
        -11    1    3    3    0    0 -0.11833284261E+02 -0.75092884792E+01 -0.64142925634E+01  0.15412954915E+02  0.51100000000E-03 0. -1.
        -12    1    3    3    0    0  0.35022336925E+01 -0.10178772903E+02 -0.15720802101E+02  0.19052996545E+02  0.00000000000E+00 0.  1.
</event>
<event>
 7    1  0.5525118E-011  0.5052887E+02  0.7816164E-02  0.1300439E+00
        -11   -1    0    0    0    0  0.00000000000E+00  0.00000000000E+00  0.45593999997E+02  0.45594000000E+02  0.51100000000E-03 0.  1.
         11   -1    0    0    0    0 -0.00000000000E+00 -0.00000000000E+00 -0.45593999997E+02  0.45594000000E+02  0.51100000000E-03 0. -1.
    9900012    2    1    2    0    0  0.37238545217E+02  0.12643379407E+02  0.10324773912E+02  0.50528865122E+02  0.30000016024E+02 0.  0.
        -12    1    1    2    0    0 -0.37238545217E+02 -0.12643379407E+02 -0.10324773912E+02  0.40659134878E+02  0.00000000000E+00 0.  1.
         11    1    3    3    0    0  0.21928642855E+02  0.72619976664E+01  0.59599710869E+00  0.23107513938E+02  0.51100000000E-03 0. -1.
        -11    1    3    3    0    0 -0.47906857960E+01  0.90374167676E+00  0.65994645210E+00  0.49196492756E+01  0.51100000000E-03 0.  1.
        -12    1    3    3    0    0  0.20100588158E+02  0.44776400639E+01  0.90688303509E+01  0.22501701908E+02  0.00000000000E+00 0.  1.
</event>
<event>
 7    1  0.5525118E-011  0.5052887E+02  0.7816164E-02  0.1300439E+00
        -11   -1    0    0    0    0  0.00000000000E+00  0.00000000000E+00  0.45593999997E+02  0.45594000000E+02  0.51100000000E-03 0. -1.
         11   -1    0    0    0    0 -0.00000000000E+00 -0.00000000000E+00 -0.45593999997E+02  0.45594000000E+02  0.51100000000E-03 0.  1.
    9900012    2    1    2    0    0  0.81000606887E+01 -0.39801074283E+02  0.18516408761E+01  0.50528867309E+02  0.30000022673E+02 0.  0.
        -12    1    1    2    0    0 -0.81000606887E+01  0.39801074283E+02 -0.18516408761E+01  0.40659132691E+02  0.00000000000E+00 0.  1.
         11    1    3    3    0    0  0.56469783193E+01 -0.18870568704E+02  0.60697899699E+01  0.20611382241E+02  0.51100000000E-03 0. -1.
        -11    1    3    3    0    0  0.28004329052E+01 -0.19748159360E+02 -0.11167818292E+02  0.22859404809E+02  0.51100000000E-03 0.  1.
        -12    1    3    3    0    0 -0.34735053576E+00 -0.11823462189E+01  0.69496691984E+01  0.70580802591E+01  0.00000000000E+00 0.  1.
</event>
<event>
 7    1  0.5525118E-011  0.5052886E+02  0.7816164E-02  0.1300439E+00
        -11   -1    0    0    0    0  0.00000000000E+00  0.00000000000E+00  0.45593999997E+02  0.45594000000E+02  0.51100000000E-03 0.  1.
         11   -1    0    0    0    0 -0.00000000000E+00 -0.00000000000E+00 -0.45593999997E+02  0.45594000000E+02  0.51100000000E-03 0. -1.
    9900012    2    1    2    0    0 -0.52703500613E+01  0.27481904634E+02 -0.29498029477E+02  0.50528863079E+02  0.30000009816E+02 0.  0.
        -12    1    1    2    0    0  0.52703500613E+01 -0.27481904634E+02  0.29498029477E+02  0.40659136921E+02  0.00000000000E+00 0.  1.
         11    1    3    3    0    0  0.17575345284E+01  0.21698028901E+02 -0.33021536746E+02  0.39551425703E+02  0.51100000000E-03 0. -1.
        -11    1    3    3    0    0 -0.31141730142E+01  0.14748830569E+01  0.38254896325E+01  0.51485653131E+01  0.51100000000E-03 0.  1.
         12    1    3    3    0    0 -0.39137115756E+01  0.43089926762E+01 -0.30198236372E+00  0.58288720632E+01  0.00000000000E+00 0. -1.
</event>
<event>
 7    1  0.5525118E-011  0.5052884E+02  0.7816164E-02  0.1300439E+00
        -11   -1    0    0    0    0  0.00000000000E+00  0.00000000000E+00  0.45593999997E+02  0.45594000000E+02  0.51100000000E-03 0.  1.
         11   -1    0    0    0    0 -0.00000000000E+00 -0.00000000000E+00 -0.45593999997E+02  0.45594000000E+02  0.51100000000E-03 0. -1.
    9900012    2    1    2    0    0  0.11721741213E+02 -0.62262342697E+01 -0.38431779742E+02  0.50528844766E+02  0.29999954150E+02 0.  0.
        -12    1    1    2    0    0 -0.11721741213E+02  0.62262342697E+01  0.38431779742E+02  0.40659155234E+02  0.00000000000E+00 0.  1.
         11    1    3    3    0    0 -0.51816455287E+01 -0.64814670725E+01 -0.14162153902E+02  0.16414185000E+02  0.51100000000E-03 0. -1.
        -11    1    3    3    0    0  0.14378206437E+02  0.75594320429E+01 -0.16229165150E+02  0.22962221907E+02  0.51100000000E-03 0.  1.
         12    1    3    3    0    0  0.25251803052E+01 -0.73041992402E+01 -0.80404606893E+01  0.11152437860E+02  0.00000000000E+00 0. -1.
</event>
<event>
 7    1  0.5525118E-011  0.5052886E+02  0.7816164E-02  0.1300439E+00
        -11   -1    0    0    0    0  0.00000000000E+00  0.00000000000E+00  0.45593999997E+02  0.45594000000E+02  0.51100000000E-03 0.  1.
         11   -1    0    0    0    0 -0.00000000000E+00 -0.00000000000E+00 -0.45593999997E+02  0.45594000000E+02  0.51100000000E-03 0. -1.
    9900012    2    1    2    0    0  0.31349353414E+02  0.13294356497E+02 -0.22218092293E+02  0.50528862045E+02  0.30000006671E+02 0.  0.
        -12    1    1    2    0    0 -0.31349353414E+02 -0.13294356497E+02  0.22218092293E+02  0.40659137955E+02  0.00000000000E+00 0.  1.
         11    1    3    3    0    0  0.16605067922E+02  0.50004369081E+01 -0.15077683364E+01  0.17407067978E+02  0.51100000000E-03 0. -1.
        -11    1    3    3    0    0  0.12708653017E+02  0.77129915863E+01 -0.24571372133E+02  0.28718503259E+02  0.51100000000E-03 0.  1.
        -12    1    3    3    0    0  0.20356324748E+01  0.58092800244E+00  0.38610481762E+01  0.44032908075E+01  0.00000000000E+00 0.  1.
</event>
<event>
 7    1  0.5525118E-011  0.5052886E+02  0.7816164E-02  0.1300439E+00
        -11   -1    0    0    0    0  0.00000000000E+00  0.00000000000E+00  0.45593999997E+02  0.45594000000E+02  0.51100000000E-03 0.  1.
         11   -1    0    0    0    0 -0.00000000000E+00 -0.00000000000E+00 -0.45593999997E+02  0.45594000000E+02  0.51100000000E-03 0. -1.
    9900012    2    1    2    0    0  0.36238023648E+02  0.89006211671E+01 -0.16147760980E+02  0.50528860809E+02  0.30000002916E+02 0.  0.
        -12    1    1    2    0    0 -0.36238023648E+02 -0.89006211671E+01  0.16147760980E+02  0.40659139191E+02  0.00000000000E+00 0.  1.
         11    1    3    3    0    0 -0.31338532490E+01 -0.36100824666E+01  0.28028270118E+00  0.47887670914E+01  0.51100000000E-03 0. -1.
        -11    1    3    3    0    0  0.70940605927E+01  0.69478478501E+01 -0.41120773823E+01  0.10747439979E+02  0.51100000000E-03 0.  1.
         12    1    3    3    0    0  0.32277816304E+02  0.55628557836E+01 -0.12315966299E+02  0.34992653739E+02  0.00000000000E+00 0. -1.
</event>
<event>
 7    1  0.5525118E-011  0.5052886E+02  0.7816164E-02  0.1300439E+00
        -11   -1    0    0    0    0  0.00000000000E+00  0.00000000000E+00  0.45593999997E+02  0.45594000000E+02  0.51100000000E-03 0.  1.
         11   -1    0    0    0    0 -0.00000000000E+00 -0.00000000000E+00 -0.45593999997E+02  0.45594000000E+02  0.51100000000E-03 0. -1.
    9900012    2    1    2    0    0 -0.16189239429E+02 -0.25814671839E+02 -0.26919823895E+02  0.50528859896E+02  0.30000000141E+02 0.  0.
        -12    1    1    2    0    0  0.16189239429E+02  0.25814671839E+02  0.26919823895E+02  0.40659140104E+02  0.00000000000E+00 0.  1.
         11    1    3    3    0    0 -0.11352152770E+02  0.31632726416E+00 -0.10213738400E+02  0.15273895633E+02  0.51100000000E-03 0. -1.
        -11    1    3    3    0    0 -0.70330729798E+01 -0.26651641013E+02 -0.17732950967E+02  0.32775473063E+02  0.51100000000E-03 0.  1.
        -12    1    3    3    0    0  0.21959863203E+01  0.52064191024E+00  0.10268654717E+01  0.24794912007E+01  0.00000000000E+00 0.  1.
</event>
<event>
 7    1  0.5525118E-011  0.5052886E+02  0.7816164E-02  0.1300439E+00
        -11   -1    0    0    0    0  0.00000000000E+00  0.00000000000E+00  0.45593999997E+02  0.45594000000E+02  0.51100000000E-03 0.  1.
         11   -1    0    0    0    0 -0.00000000000E+00 -0.00000000000E+00 -0.45593999997E+02  0.45594000000E+02  0.51100000000E-03 0. -1.
    9900012    2    1    2    0    0  0.34425424985E+02 -0.92223239022E+01 -0.19570496333E+02  0.50528862401E+02  0.30000007754E+02 0.  0.
        -12    1    1    2    0    0 -0.34425424985E+02  0.92223239022E+01  0.19570496333E+02  0.40659137599E+02  0.00000000000E+00 0.  1.
         11    1    3    3    0    0  0.36416212107E+02 -0.54810511466E+01 -0.94649959076E+01  0.38023263585E+02  0.51100000000E-03 0. -1.
        -11    1    3    3    0    0  0.84227347496E+00  0.31106821347E+00  0.33110729680E+00  0.95698502766E+00  0.51100000000E-03 0.  1.
         12    1    3    3    0    0 -0.28330605966E+01 -0.40523409691E+01 -0.10436607723E+02  0.11548613788E+02  0.00000000000E+00 0. -1.
</event>
<event>
 7    1  0.5525118E-011  0.5052886E+02  0.7816164E-02  0.1300439E+00
        -11   -1    0    0    0    0  0.00000000000E+00  0.00000000000E+00  0.45593999997E+02  0.45594000000E+02  0.51100000000E-03 0. -1.
         11   -1    0    0    0    0 -0.00000000000E+00 -0.00000000000E+00 -0.45593999997E+02  0.45594000000E+02  0.51100000000E-03 0.  1.
    9900012    2    1    2    0    0 -0.78710768348E+01 -0.22494287931E+02  0.32942660626E+02  0.50528859217E+02  0.29999998077E+02 0.  0.
        -12    1    1    2    0    0  0.78710768348E+01  0.22494287931E+02 -0.32942660626E+02  0.40659140783E+02  0.00000000000E+00 0.  1.
         11    1    3    3    0    0 -0.81472205284E+01 -0.39608120845E+01  0.74558496738E+00  0.90896167088E+01  0.51100000000E-03 0. -1.
        -11    1    3    3    0    0 -0.88331485063E+00 -0.81329304771E+01  0.29526555536E+02  0.30638901503E+02  0.51100000000E-03 0.  1.
        -12    1    3    3    0    0  0.11594585442E+01 -0.10400545370E+02  0.26705201230E+01  0.10800341005E+02  0.00000000000E+00 0.  1.
</event>
<event>
 7    1  0.5525118E-011  0.5052886E+02  0.7816164E-02  0.1300439E+00
        -11   -1    0    0    0    0  0.00000000000E+00  0.00000000000E+00  0.45593999997E+02  0.45594000000E+02  0.51100000000E-03 0. -1.
         11   -1    0    0    0    0 -0.00000000000E+00 -0.00000000000E+00 -0.45593999997E+02  0.45594000000E+02  0.51100000000E-03 0.  1.
    9900012    2    1    2    0    0  0.27016731062E+02 -0.13690313704E+02  0.27126324030E+02  0.50528857092E+02  0.29999991618E+02 0.  0.
        -12    1    1    2    0    0 -0.27016731062E+02  0.13690313704E+02 -0.27126324030E+02  0.40659142908E+02  0.00000000000E+00 0.  1.
         11    1    3    3    0    0  0.18277174594E+02 -0.14851621098E+02  0.14658983873E+02  0.27740071536E+02  0.51100000000E-03 0. -1.
        -11    1    3    3    0    0  0.81225246219E+00  0.25420881629E+01 -0.37980205498E+01  0.46418667202E+01  0.51100000000E-03 0.  1.
        -12    1    3    3    0    0  0.79273040060E+01 -0.13807807690E+01  0.16265360707E+02  0.18146918836E+02  0.00000000000E+00 0.  1.
</event>
<event>
 7    1  0.5525118E-011  0.5052880E+02  0.7816164E-02  0.1300439E+00
        -11   -1    0    0    0    0  0.00000000000E+00  0.00000000000E+00  0.45593999997E+02  0.45594000000E+02  0.51100000000E-03 0.  1.
         11   -1    0    0    0    0 -0.00000000000E+00 -0.00000000000E+00 -0.45593999997E+02  0.45594000000E+02  0.51100000000E-03 0. -1.
    9900012    2    1    2    0    0  0.13139916946E+02 -0.18793773333E+02 -0.33575401751E+02  0.50528795186E+02  0.29999803446E+02 0.  0.
        -12    1    1    2    0    0 -0.13139916946E+02  0.18793773333E+02  0.33575401751E+02  0.40659204814E+02  0.00000000000E+00 0.  1.
         11    1    3    3    0    0 -0.68222641681E+01 -0.88791502014E+00 -0.13482845051E+02  0.15136670453E+02  0.51100000000E-03 0. -1.
        -11    1    3    3    0    0  0.26062436502E+01 -0.45893178549E+01  0.56014411191E+00  0.53073633778E+01  0.51100000000E-03 0.  1.
         12    1    3    3    0    0  0.17355937463E+02 -0.13316540458E+02 -0.20652700811E+02  0.30084761355E+02  0.00000000000E+00 0. -1.
</event>
<event>
 7    1  0.5525118E-011  0.5052886E+02  0.7816164E-02  0.1300439E+00
        -11   -1    0    0    0    0  0.00000000000E+00  0.00000000000E+00  0.45593999997E+02  0.45594000000E+02  0.51100000000E-03 0.  1.
         11   -1    0    0    0    0 -0.00000000000E+00 -0.00000000000E+00 -0.45593999997E+02  0.45594000000E+02  0.51100000000E-03 0. -1.
    9900012    2    1    2    0    0  0.17496510173E+02  0.35184367124E+02  0.10445004718E+02  0.50528859801E+02  0.29999999852E+02 0.  0.
        -12    1    1    2    0    0 -0.17496510173E+02 -0.35184367124E+02 -0.10445004718E+02  0.40659140199E+02  0.00000000000E+00 0.  1.
         11    1    3    3    0    0  0.12999516641E+02  0.33499160718E+02  0.18151766849E+02  0.40257519071E+02  0.51100000000E-03 0. -1.
        -11    1    3    3    0    0  0.28609109605E+01  0.22252833757E+01 -0.16647801832E+01  0.39885073581E+01  0.51100000000E-03 0.  1.
         12    1    3    3    0    0  0.16360825716E+01 -0.54007697019E+00 -0.60419819486E+01  0.62828333721E+01  0.00000000000E+00 0. -1.
</event>
<event>
 7    1  0.5525118E-011  0.5052887E+02  0.7816164E-02  0.1300439E+00
        -11   -1    0    0    0    0  0.00000000000E+00  0.00000000000E+00  0.45593999997E+02  0.45594000000E+02  0.51100000000E-03 0.  1.
         11   -1    0    0    0    0 -0.00000000000E+00 -0.00000000000E+00 -0.45593999997E+02  0.45594000000E+02  0.51100000000E-03 0. -1.
    9900012    2    1    2    0    0 -0.31399133856E+02 -0.11755854171E+02 -0.23001292368E+02  0.50528866158E+02  0.30000019173E+02 0.  0.
        -12    1    1    2    0    0  0.31399133856E+02  0.11755854171E+02  0.23001292368E+02  0.40659133842E+02  0.00000000000E+00 0.  1.
         11    1    3    3    0    0  0.51186416944E+01 -0.11111308167E+01 -0.43888229948E+01  0.68335109592E+01  0.51100000000E-03 0.  1.
        -11    1    3    3    0    0 -0.32569220707E+02 -0.12668686102E+02 -0.15253603282E+02  0.38130331212E+02  0.51100000000E-03 0. -1.
         12    1    3    3    0    0 -0.39485548437E+01  0.20239627473E+01 -0.33588660905E+01  0.55650239865E+01  0.00000000000E+00 0. -1.
</event>
<event>
 7    1  0.5525118E-011  0.5052886E+02  0.7816164E-02  0.1300439E+00
        -11   -1    0    0    0    0  0.00000000000E+00  0.00000000000E+00  0.45593999997E+02  0.45594000000E+02  0.51100000000E-03 0.  1.
         11   -1    0    0    0    0 -0.00000000000E+00 -0.00000000000E+00 -0.45593999997E+02  0.45594000000E+02  0.51100000000E-03 0. -1.
    9900012    2    1    2    0    0  0.18025286410E+02 -0.21250423599E+02 -0.29608690072E+02  0.50528856120E+02  0.29999988662E+02 0.  0.
        -12    1    1    2    0    0 -0.18025286410E+02  0.21250423599E+02  0.29608690072E+02  0.40659143880E+02  0.00000000000E+00 0.  1.
         11    1    3    3    0    0  0.20424453331E+02 -0.76569005025E+01 -0.19188453921E+02  0.29051388664E+02  0.51100000000E-03 0. -1.
        -11    1    3    3    0    0 -0.17167686293E+01 -0.15852604476E+02 -0.10540929657E+02  0.19114485646E+02  0.51100000000E-03 0.  1.
         12    1    3    3    0    0 -0.68239829229E+00  0.22590813800E+01  0.12069350569E+00  0.23629818098E+01  0.00000000000E+00 0. -1.
</event>
<event>
 7    1  0.5525118E-011  0.5052884E+02  0.7816164E-02  0.1300439E+00
        -11   -1    0    0    0    0  0.00000000000E+00  0.00000000000E+00  0.45593999997E+02  0.45594000000E+02  0.51100000000E-03 0. -1.
         11   -1    0    0    0    0 -0.00000000000E+00 -0.00000000000E+00 -0.45593999997E+02  0.45594000000E+02  0.51100000000E-03 0.  1.
    9900012    2    1    2    0    0  0.66284805010E+01 -0.30189842601E+02  0.26415985144E+02  0.50528835951E+02  0.29999927357E+02 0.  0.
        -12    1    1    2    0    0 -0.66284805010E+01  0.30189842601E+02 -0.26415985144E+02  0.40659164049E+02  0.00000000000E+00 0.  1.
         11    1    3    3    0    0 -0.63531235789E+01 -0.15224431040E+02  0.52551571950E+00  0.16505200596E+02  0.51100000000E-03 0.  1.
        -11    1    3    3    0    0  0.27912592256E+01 -0.36801638913E+01  0.13936656151E+02  0.14682136059E+02  0.51100000000E-03 0. -1.
         12    1    3    3    0    0  0.10190344854E+02 -0.11285247670E+02  0.11953813273E+02  0.19341499295E+02  0.00000000000E+00 0. -1.
</event>
<event>
 7    1  0.5852359E-011  0.5052886E+02  0.7816164E-02  0.1300439E+00
        -11   -1    0    0    0    0  0.00000000000E+00  0.00000000000E+00  0.45593999997E+02  0.45594000000E+02  0.51100000000E-03 0. -1.
         11   -1    0    0    0    0 -0.00000000000E+00 -0.00000000000E+00 -0.45593999997E+02  0.45594000000E+02  0.51100000000E-03 0.  1.
    9900012    2    1    2    0    0  0.67289041975E+00  0.24975628214E+01  0.40576776177E+02  0.50528863678E+02  0.30000011635E+02 0.  0.
        -12    1    1    2    0    0 -0.67289041975E+00 -0.24975628214E+01 -0.40576776177E+02  0.40659136322E+02  0.00000000000E+00 0.  1.
         11    1    3    3    0    0 -0.61991486744E+01  0.85375429337E+01  0.22044030667E+02  0.24438870103E+02  0.51100000000E-03 0. -1.
        -11    1    3    3    0    0 -0.11542643850E+01 -0.94116801691E+01  0.78555510505E+01  0.12313477675E+02  0.51100000000E-03 0.  1.
        -12    1    3    3    0    0  0.80263034792E+01  0.33717000567E+01  0.10677194460E+02  0.13776515900E+02  0.00000000000E+00 0.  1.
</event>
<event>
 7    1  0.5525118E-011  0.5052880E+02  0.7816164E-02  0.1300439E+00
        -11   -1    0    0    0    0  0.00000000000E+00  0.00000000000E+00  0.45593999997E+02  0.45594000000E+02  0.51100000000E-03 0.  1.
         11   -1    0    0    0    0 -0.00000000000E+00 -0.00000000000E+00 -0.45593999997E+02  0.45594000000E+02  0.51100000000E-03 0. -1.
    9900012    2    1    2    0    0  0.55848346257E+01  0.23898191553E+02 -0.32416922233E+02  0.50528797052E+02  0.29999809119E+02 0.  0.
        -12    1    1    2    0    0 -0.55848346257E+01 -0.23898191553E+02  0.32416922233E+02  0.40659202948E+02  0.00000000000E+00 0.  1.
         11    1    3    3    0    0 -0.11123906700E+02  0.22525775972E+01 -0.87568978279E+01  0.14335224656E+02  0.51100000000E-03 0. -1.
        -11    1    3    3    0    0  0.75605410611E+01  0.85379372834E+01 -0.99776456593E+01  0.15152939232E+02  0.51100000000E-03 0.  1.
         12    1    3    3    0    0  0.91482002647E+01  0.13107676672E+02 -0.13682378746E+02  0.21040633165E+02  0.00000000000E+00 0. -1.
</event>
<event>
 7    1  0.5525118E-011  0.5052886E+02  0.7816164E-02  0.1300439E+00
        -11   -1    0    0    0    0  0.00000000000E+00  0.00000000000E+00  0.45593999997E+02  0.45594000000E+02  0.51100000000E-03 0.  1.
         11   -1    0    0    0    0 -0.00000000000E+00 -0.00000000000E+00 -0.45593999997E+02  0.45594000000E+02  0.51100000000E-03 0. -1.
    9900012    2    1    2    0    0 -0.30823934729E+02 -0.26492122855E+02  0.11038164499E+01  0.50528856671E+02  0.29999990337E+02 0.  0.
        -12    1    1    2    0    0  0.30823934729E+02  0.26492122855E+02 -0.11038164499E+01  0.40659143329E+02  0.00000000000E+00 0.  1.
         11    1    3    3    0    0 -0.33136408755E+02 -0.12771396324E+02  0.32585309628E+01  0.35661578394E+02  0.51100000000E-03 0. -1.
        -11    1    3    3    0    0 -0.77975350017E+00 -0.78277809642E+01 -0.23481127634E+01  0.82094947564E+01  0.51100000000E-03 0.  1.
         12    1    3    3    0    0  0.30922275263E+01 -0.58929455668E+01  0.19339825054E+00  0.66577835209E+01  0.00000000000E+00 0. -1.
</event>
<event>
 7    1  0.5525118E-011  0.5052886E+02  0.7816164E-02  0.1300439E+00
        -11   -1    0    0    0    0  0.00000000000E+00  0.00000000000E+00  0.45593999997E+02  0.45594000000E+02  0.51100000000E-03 0.  1.
         11   -1    0    0    0    0 -0.00000000000E+00 -0.00000000000E+00 -0.45593999997E+02  0.45594000000E+02  0.51100000000E-03 0. -1.
    9900012    2    1    2    0    0 -0.43070985996E+01  0.34724015836E+02 -0.20708878284E+02  0.50528855716E+02  0.29999987434E+02 0.  0.
        -12    1    1    2    0    0  0.43070985996E+01 -0.34724015836E+02  0.20708878284E+02  0.40659144284E+02  0.00000000000E+00 0.  1.
         11    1    3    3    0    0 -0.51463722140E+01  0.11499433638E+02 -0.23453602151E+02  0.26623177403E+02  0.51100000000E-03 0. -1.
        -11    1    3    3    0    0  0.22505168400E+01  0.68756921963E+01 -0.18256613535E+00  0.72369399528E+01  0.51100000000E-03 0.  1.
         12    1    3    3    0    0 -0.14112432256E+01  0.16348890002E+02  0.29272900018E+01  0.16668738360E+02  0.00000000000E+00 0. -1.
</event>
<event>
 7    1  0.5525118E-011  0.5052886E+02  0.7816164E-02  0.1300439E+00
        -11   -1    0    0    0    0  0.00000000000E+00  0.00000000000E+00  0.45593999997E+02  0.45594000000E+02  0.51100000000E-03 0.  1.
         11   -1    0    0    0    0 -0.00000000000E+00 -0.00000000000E+00 -0.45593999997E+02  0.45594000000E+02  0.51100000000E-03 0. -1.
    9900012    2    1    2    0    0 -0.17628372943E+02 -0.35621620034E+02 -0.85735859225E+01  0.50528859306E+02  0.29999998346E+02 0.  0.
        -12    1    1    2    0    0  0.17628372943E+02  0.35621620034E+02  0.85735859225E+01  0.40659140694E+02  0.00000000000E+00 0.  1.
         11    1    3    3    0    0  0.18102495364E+01 -0.32187741094E+01 -0.11066634435E+02  0.11666529395E+02  0.51100000000E-03 0. -1.
        -11    1    3    3    0    0 -0.82762647956E+01 -0.15266711840E+02  0.54449215671E+01  0.18199346705E+02  0.51100000000E-03 0.  1.
         12    1    3    3    0    0 -0.11162357683E+02 -0.17136134085E+02 -0.29518730548E+01  0.20662983205E+02  0.00000000000E+00 0. -1.
</event>
<event>
 7    1  0.5588270E-011  0.5052884E+02  0.7816164E-02  0.1300439E+00
        -11   -1    0    0    0    0  0.00000000000E+00  0.00000000000E+00  0.45593999997E+02  0.45594000000E+02  0.51100000000E-03 0. -1.
         11   -1    0    0    0    0 -0.00000000000E+00 -0.00000000000E+00 -0.45593999997E+02  0.45594000000E+02  0.51100000000E-03 0.  1.
    9900012    2    1    2    0    0 -0.36766843624E+02  0.17219483647E+02 -0.22036690681E+01  0.50528836648E+02  0.29999929475E+02 0.  0.
        -12    1    1    2    0    0  0.36766843624E+02 -0.17219483647E+02  0.22036690681E+01  0.40659163352E+02  0.00000000000E+00 0.  1.
         11    1    3    3    0    0 -0.18206951482E+02  0.36650811078E+01  0.42231940277E+00  0.18576981879E+02  0.51100000000E-03 0. -1.
        -11    1    3    3    0    0  0.26122473403E+01  0.47680191555E+01  0.54016656131E+01  0.76639307467E+01  0.51100000000E-03 0.  1.
        -12    1    3    3    0    0 -0.21172139482E+02  0.87863833836E+01 -0.80276540840E+01  0.24287924022E+02  0.00000000000E+00 0.  1.
</event>
<event>
 7    1  0.5525118E-011  0.5052887E+02  0.7816164E-02  0.1300439E+00
        -11   -1    0    0    0    0  0.00000000000E+00  0.00000000000E+00  0.45593999997E+02  0.45594000000E+02  0.51100000000E-03 0.  1.
         11   -1    0    0    0    0 -0.00000000000E+00 -0.00000000000E+00 -0.45593999997E+02  0.45594000000E+02  0.51100000000E-03 0. -1.
    9900012    2    1    2    0    0  0.52173191313E+01  0.29791866056E+02 -0.27173316319E+02  0.50528870376E+02  0.30000031995E+02 0.  0.
        -12    1    1    2    0    0 -0.52173191313E+01 -0.29791866056E+02  0.27173316319E+02  0.40659129624E+02  0.00000000000E+00 0.  1.
         11    1    3    3    0    0  0.14413098682E+02  0.21208493429E+02 -0.17595505483E+02  0.31098865262E+02  0.51100000000E-03 0. -1.
        -11    1    3    3    0    0 -0.39044576577E+01  0.16403355299E+01 -0.98230353381E+01  0.10697079684E+02  0.51100000000E-03 0.  1.
         12    1    3    3    0    0 -0.52913218931E+01  0.69430370969E+01  0.24522450192E+00  0.87329254298E+01  0.00000000000E+00 0. -1.
</event>
<event>
 7    1  0.5525118E-011  0.5052886E+02  0.7816164E-02  0.1300439E+00
        -11   -1    0    0    0    0  0.00000000000E+00  0.00000000000E+00  0.45593999997E+02  0.45594000000E+02  0.51100000000E-03 0.  1.
         11   -1    0    0    0    0 -0.00000000000E+00 -0.00000000000E+00 -0.45593999997E+02  0.45594000000E+02  0.51100000000E-03 0. -1.
    9900012    2    1    2    0    0  0.18794584227E+02  0.19977661019E+02 -0.30013701636E+02  0.50528860536E+02  0.30000002086E+02 0.  0.
        -12    1    1    2    0    0 -0.18794584227E+02 -0.19977661019E+02  0.30013701636E+02  0.40659139464E+02  0.00000000000E+00 0.  1.
         11    1    3    3    0    0 -0.11385094980E+01  0.44660970511E+01 -0.18450513217E+02  0.19017456849E+02  0.51100000000E-03 0. -1.
        -11    1    3    3    0    0  0.64007421629E+01  0.14217510642E+02 -0.76366107282E+01  0.17361593613E+02  0.51100000000E-03 0.  1.
         12    1    3    3    0    0  0.13532351562E+02  0.12940533256E+01 -0.39265776904E+01  0.14149810075E+02  0.00000000000E+00 0. -1.
</event>
<event>
 7    1  0.5525118E-011  0.5052883E+02  0.7816164E-02  0.1300439E+00
        -11   -1    0    0    0    0  0.00000000000E+00  0.00000000000E+00  0.45593999997E+02  0.45594000000E+02  0.51100000000E-03 0. -1.
         11   -1    0    0    0    0 -0.00000000000E+00 -0.00000000000E+00 -0.45593999997E+02  0.45594000000E+02  0.51100000000E-03 0.  1.
    9900012    2    1    2    0    0 -0.27037348586E+02  0.19794092624E+02  0.23029196061E+02  0.50528828924E+02  0.29999905998E+02 0.  0.
        -12    1    1    2    0    0  0.27037348586E+02 -0.19794092624E+02 -0.23029196061E+02  0.40659171076E+02  0.00000000000E+00 0.  1.
         11    1    3    3    0    0 -0.69910118350E+01 -0.59558043313E+01  0.14105750730E+01  0.92916938180E+01  0.51100000000E-03 0.  1.
        -11    1    3    3    0    0 -0.16787575512E+02  0.23970004268E+02  0.13334415952E+02  0.32158831527E+02  0.51100000000E-03 0. -1.
         12    1    3    3    0    0 -0.32587612396E+01  0.17798926875E+01  0.82842050359E+01  0.90783035790E+01  0.00000000000E+00 0. -1.
</event>
<event>
 7    1  0.5525118E-011  0.5052884E+02  0.7816164E-02  0.1300439E+00
        -11   -1    0    0    0    0  0.00000000000E+00  0.00000000000E+00  0.45593999997E+02  0.45594000000E+02  0.51100000000E-03 0.  1.
         11   -1    0    0    0    0 -0.00000000000E+00 -0.00000000000E+00 -0.45593999997E+02  0.45594000000E+02  0.51100000000E-03 0. -1.
    9900012    2    1    2    0    0 -0.25325203483E+02 -0.23392070179E+02 -0.21554871296E+02  0.50528839220E+02  0.29999937295E+02 0.  0.
        -12    1    1    2    0    0  0.25325203483E+02  0.23392070179E+02  0.21554871296E+02  0.40659160780E+02  0.00000000000E+00 0.  1.
         11    1    3    3    0    0 -0.22475688653E+02 -0.20924423075E+02 -0.12607286951E+02  0.33195357296E+02  0.51100000000E-03 0. -1.
        -11    1    3    3    0    0  0.26860610043E+01  0.43630599589E+01 -0.51209588214E+00  0.51491220978E+01  0.51100000000E-03 0.  1.
        -12    1    3    3    0    0 -0.55355758345E+01 -0.68307070624E+01 -0.84354884626E+01  0.12184359827E+02  0.00000000000E+00 0.  1.
</event>
<event>
 7    1  0.5525118E-011  0.5052886E+02  0.7816164E-02  0.1300439E+00
        -11   -1    0    0    0    0  0.00000000000E+00  0.00000000000E+00  0.45593999997E+02  0.45594000000E+02  0.51100000000E-03 0.  1.
         11   -1    0    0    0    0 -0.00000000000E+00 -0.00000000000E+00 -0.45593999997E+02  0.45594000000E+02  0.51100000000E-03 0. -1.
    9900012    2    1    2    0    0  0.20211964147E+01 -0.22251079042E+02 -0.33970135478E+02  0.50528857635E+02  0.29999993267E+02 0.  0.
        -12    1    1    2    0    0 -0.20211964147E+01  0.22251079042E+02  0.33970135478E+02  0.40659142365E+02  0.00000000000E+00 0.  1.
         11    1    3    3    0    0  0.10785878548E+02 -0.19903767867E+02 -0.30823655852E+02  0.38243861099E+02  0.51100000000E-03 0. -1.
        -11    1    3    3    0    0 -0.25854966014E+01 -0.41877884561E+01 -0.31391821807E+01  0.58375362829E+01  0.51100000000E-03 0.  1.
         12    1    3    3    0    0 -0.61791855322E+01  0.18404772813E+01 -0.72974447532E-02  0.64474602533E+01  0.00000000000E+00 0. -1.
</event>
<event>
 7    1  0.5525118E-011  0.5052887E+02  0.7816164E-02  0.1300439E+00
        -11   -1    0    0    0    0  0.00000000000E+00  0.00000000000E+00  0.45593999997E+02  0.45594000000E+02  0.51100000000E-03 0.  1.
         11   -1    0    0    0    0 -0.00000000000E+00 -0.00000000000E+00 -0.45593999997E+02  0.45594000000E+02  0.51100000000E-03 0. -1.
    9900012    2    1    2    0    0 -0.10814961287E+02 -0.20421883298E+02 -0.33453674488E+02  0.50528867670E+02  0.30000023770E+02 0.  0.
        -12    1    1    2    0    0  0.10814961287E+02  0.20421883298E+02  0.33453674488E+02  0.40659132330E+02  0.00000000000E+00 0.  1.
         11    1    3    3    0    0 -0.14607367814E+02 -0.10792547137E+02 -0.41691926315E+01  0.18634281194E+02  0.51100000000E-03 0. -1.
        -11    1    3    3    0    0  0.55073110255E+01 -0.71404966302E+01 -0.16998615529E+02  0.19242403619E+02  0.51100000000E-03 0.  1.
         12    1    3    3    0    0 -0.17149044983E+01 -0.24888395312E+01 -0.12285866327E+02  0.12652182857E+02  0.00000000000E+00 0. -1.
</event>
<event>
 7    1  0.5525118E-011  0.5052886E+02  0.7816164E-02  0.1300439E+00
        -11   -1    0    0    0    0  0.00000000000E+00  0.00000000000E+00  0.45593999997E+02  0.45594000000E+02  0.51100000000E-03 0.  1.
         11   -1    0    0    0    0 -0.00000000000E+00 -0.00000000000E+00 -0.45593999997E+02  0.45594000000E+02  0.51100000000E-03 0. -1.
    9900012    2    1    2    0    0  0.15847064111E+02  0.37353168152E+02  0.26033077061E+01  0.50528858065E+02  0.29999994574E+02 0.  0.
        -12    1    1    2    0    0 -0.15847064111E+02 -0.37353168152E+02 -0.26033077061E+01  0.40659141935E+02  0.00000000000E+00 0.  1.
         11    1    3    3    0    0 -0.74401303721E+00  0.21163516463E+02 -0.21690208310E+01  0.21287382086E+02  0.51100000000E-03 0. -1.
        -11    1    3    3    0    0  0.79028057150E+01 -0.13920495562E+01  0.53109478897E+01  0.96228014572E+01  0.51100000000E-03 0.  1.
         12    1    3    3    0    0  0.86882714327E+01  0.17581701245E+02 -0.53861935261E+00  0.19618674521E+02  0.00000000000E+00 0. -1.
</event>
<event>
 7    1  0.5525118E-011  0.5052883E+02  0.7816164E-02  0.1300439E+00
        -11   -1    0    0    0    0  0.00000000000E+00  0.00000000000E+00  0.45593999997E+02  0.45594000000E+02  0.51100000000E-03 0.  1.
         11   -1    0    0    0    0 -0.00000000000E+00 -0.00000000000E+00 -0.45593999997E+02  0.45594000000E+02  0.51100000000E-03 0. -1.
    9900012    2    1    2    0    0  0.15720098884E+02 -0.92051186833E+01 -0.36349859940E+02  0.50528830843E+02  0.29999911831E+02 0.  0.
        -12    1    1    2    0    0 -0.15720098884E+02  0.92051186833E+01  0.36349859940E+02  0.40659169157E+02  0.00000000000E+00 0.  1.
         11    1    3    3    0    0  0.11130723536E+02 -0.16100022422E+02 -0.26973371648E+02  0.33326663601E+02  0.51100000000E-03 0. -1.
        -11    1    3    3    0    0 -0.32867770671E+01  0.28143870213E+01 -0.44966821746E-01  0.43273201951E+01  0.51100000000E-03 0.  1.
         12    1    3    3    0    0  0.78761524148E+01  0.40805167179E+01 -0.93315214699E+01  0.12874847047E+02  0.00000000000E+00 0. -1.
</event>
<event>
 7    1  0.5525118E-011  0.5052886E+02  0.7816164E-02  0.1300439E+00
        -11   -1    0    0    0    0  0.00000000000E+00  0.00000000000E+00  0.45593999997E+02  0.45594000000E+02  0.51100000000E-03 0. -1.
         11   -1    0    0    0    0 -0.00000000000E+00 -0.00000000000E+00 -0.45593999997E+02  0.45594000000E+02  0.51100000000E-03 0.  1.
    9900012    2    1    2    0    0 -0.18181026200E+02  0.27561744523E+02  0.23726900534E+02  0.50528864694E+02  0.30000014725E+02 0.  0.
        -12    1    1    2    0    0  0.18181026200E+02 -0.27561744523E+02 -0.23726900534E+02  0.40659135306E+02  0.00000000000E+00 0.  1.
         11    1    3    3    0    0 -0.12822380773E+02  0.27696149723E+02  0.14208194676E+02  0.33665456396E+02  0.51100000000E-03 0. -1.
        -11    1    3    3    0    0 -0.83781944340E+01 -0.37596631092E+01  0.58676169880E+01  0.10897620752E+02  0.51100000000E-03 0.  1.
        -12    1    3    3    0    0  0.30195490065E+01  0.36252579094E+01  0.36510888701E+01  0.59657875465E+01  0.00000000000E+00 0.  1.
</event>
<event>
 7    1  0.5525118E-011  0.5052885E+02  0.7816164E-02  0.1300439E+00
        -11   -1    0    0    0    0  0.00000000000E+00  0.00000000000E+00  0.45593999997E+02  0.45594000000E+02  0.51100000000E-03 0.  1.
         11   -1    0    0    0    0 -0.00000000000E+00 -0.00000000000E+00 -0.45593999997E+02  0.45594000000E+02  0.51100000000E-03 0. -1.
    9900012    2    1    2    0    0 -0.87337128658E+01 -0.13557121569E+02 -0.37324164478E+02  0.50528849251E+02  0.29999967784E+02 0.  0.
        -12    1    1    2    0    0  0.87337128658E+01  0.13557121569E+02  0.37324164478E+02  0.40659150749E+02  0.00000000000E+00 0.  1.
         11    1    3    3    0    0 -0.50227540615E+01 -0.12630923983E+02 -0.42126362627E+02  0.44265096041E+02  0.51100000000E-03 0. -1.
        -11    1    3    3    0    0 -0.14209618027E+01  0.23784274931E-01  0.25247637437E+01  0.28972625630E+01  0.51100000000E-03 0.  1.
         12    1    3    3    0    0 -0.22899970016E+01 -0.94998186063E+00  0.22774344062E+01  0.33664906472E+01  0.00000000000E+00 0. -1.
</event>
<event>
 7    1  0.5525118E-011  0.5052888E+02  0.7816164E-02  0.1300439E+00
        -11   -1    0    0    0    0  0.00000000000E+00  0.00000000000E+00  0.45593999997E+02  0.45594000000E+02  0.51100000000E-03 0.  1.
         11   -1    0    0    0    0 -0.00000000000E+00 -0.00000000000E+00 -0.45593999997E+02  0.45594000000E+02  0.51100000000E-03 0. -1.
    9900012    2    1    2    0    0 -0.21085496639E+02 -0.19129190807E+02 -0.29028266362E+02  0.50528876086E+02  0.30000049351E+02 0.  0.
        -12    1    1    2    0    0  0.21085496639E+02  0.19129190807E+02  0.29028266362E+02  0.40659123914E+02  0.00000000000E+00 0.  1.
         11    1    3    3    0    0 -0.63600726079E+01 -0.21514774877E+02 -0.12471945557E+02  0.25668764828E+02  0.51100000000E-03 0. -1.
        -11    1    3    3    0    0 -0.68690281558E+00  0.16564671892E+01  0.12409309641E+01  0.21807404581E+01  0.51100000000E-03 0.  1.
         12    1    3    3    0    0 -0.14038521215E+02  0.72911688005E+00 -0.17797251769E+02  0.22679370800E+02  0.00000000000E+00 0. -1.
</event>
<event>
 7    1  0.5525118E-011  0.5052886E+02  0.7816164E-02  0.1300439E+00
        -11   -1    0    0    0    0  0.00000000000E+00  0.00000000000E+00  0.45593999997E+02  0.45594000000E+02  0.51100000000E-03 0.  1.
         11   -1    0    0    0    0 -0.00000000000E+00 -0.00000000000E+00 -0.45593999997E+02  0.45594000000E+02  0.51100000000E-03 0. -1.
    9900012    2    1    2    0    0 -0.66873145526E+01  0.19229959606E+02 -0.35194516613E+02  0.50528861765E+02  0.30000005821E+02 0.  0.
        -12    1    1    2    0    0  0.66873145526E+01 -0.19229959606E+02  0.35194516613E+02  0.40659138235E+02  0.00000000000E+00 0.  1.
         11    1    3    3    0    0 -0.11422342866E+02  0.15323373399E+02 -0.24125088366E+02  0.30778167226E+02  0.51100000000E-03 0. -1.
        -11    1    3    3    0    0  0.11450833497E+01  0.18300808961E+00  0.38180732799E+01  0.39902871664E+01  0.51100000000E-03 0.  1.
         12    1    3    3    0    0  0.35899449634E+01  0.37235781181E+01 -0.14887501527E+02  0.15760407373E+02  0.00000000000E+00 0. -1.
</event>
<event>
 7    1  0.5525118E-011  0.5052887E+02  0.7816164E-02  0.1300439E+00
        -11   -1    0    0    0    0  0.00000000000E+00  0.00000000000E+00  0.45593999997E+02  0.45594000000E+02  0.51100000000E-03 0.  1.
         11   -1    0    0    0    0 -0.00000000000E+00 -0.00000000000E+00 -0.45593999997E+02  0.45594000000E+02  0.51100000000E-03 0. -1.
    9900012    2    1    2    0    0 -0.58583626403E+01  0.21048006980E+02 -0.34290321477E+02  0.50528866246E+02  0.30000019440E+02 0.  0.
        -12    1    1    2    0    0  0.58583626403E+01 -0.21048006980E+02  0.34290321477E+02  0.40659133754E+02  0.00000000000E+00 0.  1.
         11    1    3    3    0    0 -0.18863610421E+01  0.39211389586E+01 -0.49474609845E+01  0.65887069420E+01  0.51100000000E-03 0. -1.
        -11    1    3    3    0    0  0.17460010590E+00  0.14988206042E+02 -0.79150693360E+00  0.15010106231E+02  0.51100000000E-03 0.  1.
        -12    1    3    3    0    0 -0.41466017041E+01  0.21386619787E+01 -0.28551353559E+02  0.28930053073E+02  0.00000000000E+00 0.  1.
</event>
<event>
 7    1  0.5525118E-011  0.5052886E+02  0.7816164E-02  0.1300439E+00
        -11   -1    0    0    0    0  0.00000000000E+00  0.00000000000E+00  0.45593999997E+02  0.45594000000E+02  0.51100000000E-03 0.  1.
         11   -1    0    0    0    0 -0.00000000000E+00 -0.00000000000E+00 -0.45593999997E+02  0.45594000000E+02  0.51100000000E-03 0. -1.
    9900012    2    1    2    0    0 -0.17308049515E+02 -0.15444626577E+02 -0.33392524566E+02  0.50528858777E+02  0.29999996740E+02 0.  0.
        -12    1    1    2    0    0  0.17308049515E+02  0.15444626577E+02  0.33392524566E+02  0.40659141223E+02  0.00000000000E+00 0.  1.
         11    1    3    3    0    0  0.13137990355E+01  0.22970465734E+01 -0.13143497893E+02  0.13407237896E+02  0.51100000000E-03 0. -1.
        -11    1    3    3    0    0 -0.17993274846E+02 -0.13675571323E+02 -0.76376931734E+01  0.23856100854E+02  0.51100000000E-03 0.  1.
        -12    1    3    3    0    0 -0.62857370380E+00 -0.40661018274E+01 -0.12611333499E+02  0.13265520028E+02  0.00000000000E+00 0.  1.
</event>
<event>
 7    1  0.5525118E-011  0.5052885E+02  0.7816164E-02  0.1300439E+00
        -11   -1    0    0    0    0  0.00000000000E+00  0.00000000000E+00  0.45593999997E+02  0.45594000000E+02  0.51100000000E-03 0.  1.
         11   -1    0    0    0    0 -0.00000000000E+00 -0.00000000000E+00 -0.45593999997E+02  0.45594000000E+02  0.51100000000E-03 0. -1.
    9900012    2    1    2    0    0  0.22998910016E+02  0.29476444494E+02 -0.15979853481E+02  0.50528851470E+02  0.29999974528E+02 0.  0.
        -12    1    1    2    0    0 -0.22998910016E+02 -0.29476444494E+02  0.15979853481E+02  0.40659148530E+02  0.00000000000E+00 0.  1.
         11    1    3    3    0    0  0.81474414036E+01  0.10251743468E+02 -0.74284491668E+01  0.15055261633E+02  0.51100000000E-03 0. -1.
        -11    1    3    3    0    0  0.12202415190E+02  0.11581075615E+02  0.67806118016E+01  0.18138272948E+02  0.51100000000E-03 0.  1.
        -12    1    3    3    0    0  0.26490534229E+01  0.76436254108E+01 -0.15332016116E+02  0.17335316889E+02  0.00000000000E+00 0.  1.
</event>
<event>
 7    1  0.5525118E-011  0.5052887E+02  0.7816164E-02  0.1300439E+00
        -11   -1    0    0    0    0  0.00000000000E+00  0.00000000000E+00  0.45593999997E+02  0.45594000000E+02  0.51100000000E-03 0.  1.
         11   -1    0    0    0    0 -0.00000000000E+00 -0.00000000000E+00 -0.45593999997E+02  0.45594000000E+02  0.51100000000E-03 0. -1.
    9900012    2    1    2    0    0  0.20463607396E+02  0.35005289074E+02 -0.30059544497E+01  0.50528865074E+02  0.30000015878E+02 0.  0.
        -12    1    1    2    0    0 -0.20463607396E+02 -0.35005289074E+02  0.30059544497E+01  0.40659134926E+02  0.00000000000E+00 0.  1.
         11    1    3    3    0    0  0.75039037770E+01  0.15220225382E+01  0.79165292317E+01  0.11013471743E+02  0.51100000000E-03 0.  1.
        -11    1    3    3    0    0  0.19345488424E+01  0.19444085831E+02 -0.91513819307E+01  0.21576903034E+02  0.51100000000E-03 0. -1.
        -12    1    3    3    0    0  0.11025154777E+02  0.14039180704E+02 -0.17711017506E+01  0.17938490296E+02  0.00000000000E+00 0.  1.
</event>
<event>
 7    1  0.5525118E-011  0.5052886E+02  0.7816164E-02  0.1300439E+00
        -11   -1    0    0    0    0  0.00000000000E+00  0.00000000000E+00  0.45593999997E+02  0.45594000000E+02  0.51100000000E-03 0.  1.
         11   -1    0    0    0    0 -0.00000000000E+00 -0.00000000000E+00 -0.45593999997E+02  0.45594000000E+02  0.51100000000E-03 0. -1.
    9900012    2    1    2    0    0 -0.14721419080E+02  0.34601783066E+02 -0.15464862997E+02  0.50528861316E+02  0.30000004455E+02 0.  0.
        -12    1    1    2    0    0  0.14721419080E+02 -0.34601783066E+02  0.15464862997E+02  0.40659138684E+02  0.00000000000E+00 0.  1.
         11    1    3    3    0    0 -0.17758504136E+02  0.14432561965E+02 -0.93117340801E+01  0.24705701890E+02  0.51100000000E-03 0. -1.
        -11    1    3    3    0    0  0.68984666221E+01  0.18704595925E+02 -0.77580152491E+01  0.21392464826E+02  0.51100000000E-03 0.  1.
        -12    1    3    3    0    0 -0.38613815656E+01  0.14646251755E+01  0.16048863326E+01  0.44306946002E+01  0.00000000000E+00 0.  1.
</event>
<event>
 7    1  0.5525118E-011  0.5052888E+02  0.7816164E-02  0.1300439E+00
        -11   -1    0    0    0    0  0.00000000000E+00  0.00000000000E+00  0.45593999997E+02  0.45594000000E+02  0.51100000000E-03 0.  1.
         11   -1    0    0    0    0 -0.00000000000E+00 -0.00000000000E+00 -0.45593999997E+02  0.45594000000E+02  0.51100000000E-03 0. -1.
    9900012    2    1    2    0    0  0.30951607250E+02 -0.25316068812E+02 -0.73660678112E+01  0.50528876959E+02  0.30000052005E+02 0.  0.
        -12    1    1    2    0    0 -0.30951607250E+02  0.25316068812E+02  0.73660678112E+01  0.40659123041E+02  0.00000000000E+00 0.  1.
         11    1    3    3    0    0  0.24669360949E+02 -0.12162339033E+02  0.45829757882E-01  0.27504580728E+02  0.51100000000E-03 0.  1.
        -11    1    3    3    0    0 -0.47467156088E+01 -0.85759578450E+01 -0.25266121195E+01  0.10122357981E+02  0.51100000000E-03 0. -1.
         12    1    3    3    0    0  0.11028961910E+02 -0.45777719336E+01 -0.48852854496E+01  0.12901938250E+02  0.00000000000E+00 0. -1.
</event>
<event>
 7    1  0.5525118E-011  0.5052875E+02  0.7816164E-02  0.1300439E+00
        -11   -1    0    0    0    0  0.00000000000E+00  0.00000000000E+00  0.45593999997E+02  0.45594000000E+02  0.51100000000E-03 0. -1.
         11   -1    0    0    0    0 -0.00000000000E+00 -0.00000000000E+00 -0.45593999997E+02  0.45594000000E+02  0.51100000000E-03 0.  1.
    9900012    2    1    2    0    0 -0.42929980348E+01  0.40416008491E+02 -0.11363786274E+01  0.50528746061E+02  0.29999654125E+02 0.  0.
        -12    1    1    2    0    0  0.42929980348E+01 -0.40416008491E+02  0.11363786274E+01  0.40659253939E+02  0.00000000000E+00 0.  1.
         11    1    3    3    0    0 -0.52496633621E+01  0.36313136783E+02  0.47669604358E+01  0.36999010534E+02  0.51100000000E-03 0. -1.
        -11    1    3    3    0    0  0.23754577327E+01  0.24908073522E+01 -0.90713930411E+01  0.97024271537E+01  0.51100000000E-03 0.  1.
         12    1    3    3    0    0 -0.14187924055E+01  0.16120643564E+01  0.31680539778E+01  0.38273083735E+01  0.00000000000E+00 0. -1.
</event>
<event>
 7    1  0.5525118E-011  0.5052886E+02  0.7816164E-02  0.1300439E+00
        -11   -1    0    0    0    0  0.00000000000E+00  0.00000000000E+00  0.45593999997E+02  0.45594000000E+02  0.51100000000E-03 0. -1.
         11   -1    0    0    0    0 -0.00000000000E+00 -0.00000000000E+00 -0.45593999997E+02  0.45594000000E+02  0.51100000000E-03 0.  1.
    9900012    2    1    2    0    0  0.37127766470E+02  0.16263469548E+02 -0.31928319055E+01  0.50528860064E+02  0.30000000651E+02 0.  0.
        -12    1    1    2    0    0 -0.37127766470E+02 -0.16263469548E+02  0.31928319055E+01  0.40659139936E+02  0.00000000000E+00 0.  1.
         11    1    3    3    0    0  0.20883513976E+02 -0.15083331748E+00 -0.90916317667E+01  0.22777218336E+02  0.51100000000E-03 0. -1.
        -11    1    3    3    0    0  0.94491867610E+01  0.19441121261E+01  0.66997686706E+01  0.11745365167E+02  0.51100000000E-03 0.  1.
         12    1    3    3    0    0  0.67950657330E+01  0.14470190739E+02 -0.80096880941E+00  0.16006276562E+02  0.00000000000E+00 0. -1.
</event>
<event>
 7    1  0.5525118E-011  0.5052886E+02  0.7816164E-02  0.1300439E+00
        -11   -1    0    0    0    0  0.00000000000E+00  0.00000000000E+00  0.45593999997E+02  0.45594000000E+02  0.51100000000E-03 0.  1.
         11   -1    0    0    0    0 -0.00000000000E+00 -0.00000000000E+00 -0.45593999997E+02  0.45594000000E+02  0.51100000000E-03 0. -1.
    9900012    2    1    2    0    0 -0.19232573502E+02  0.30911056942E+02 -0.18104707631E+02  0.50528858799E+02  0.29999996806E+02 0.  0.
        -12    1    1    2    0    0  0.19232573502E+02 -0.30911056942E+02  0.18104707631E+02  0.40659141201E+02  0.00000000000E+00 0.  1.
         11    1    3    3    0    0  0.18079119535E+01  0.14422951842E+02 -0.15279218984E+01  0.14615903360E+02  0.51100000000E-03 0. -1.
        -11    1    3    3    0    0 -0.16900870631E+02  0.19956363381E+02 -0.15520236223E+02  0.30410090433E+02  0.51100000000E-03 0.  1.
        -12    1    3    3    0    0 -0.41396148250E+01 -0.34682582807E+01 -0.10565495095E+01  0.55028650053E+01  0.00000000000E+00 0.  1.
</event>
<event>
 7    1  0.5525118E-011  0.5052885E+02  0.7816164E-02  0.1300439E+00
        -11   -1    0    0    0    0  0.00000000000E+00  0.00000000000E+00  0.45593999997E+02  0.45594000000E+02  0.51100000000E-03 0.  1.
         11   -1    0    0    0    0 -0.00000000000E+00 -0.00000000000E+00 -0.45593999997E+02  0.45594000000E+02  0.51100000000E-03 0. -1.
    9900012    2    1    2    0    0  0.29208079474E+02 -0.28266203087E+02  0.10375552164E+01  0.50528847717E+02  0.29999963121E+02 0.  0.
        -12    1    1    2    0    0 -0.29208079474E+02  0.28266203087E+02 -0.10375552164E+01  0.40659152283E+02  0.00000000000E+00 0.  1.
         11    1    3    3    0    0  0.24430372763E+02 -0.20928155113E+02 -0.50748540227E+01  0.32566622997E+02  0.51100000000E-03 0. -1.
        -11    1    3    3    0    0  0.43962321330E+01 -0.11355367272E+02  0.66775770223E+01  0.13887449658E+02  0.51100000000E-03 0.  1.
         12    1    3    3    0    0  0.38147457756E+00  0.40173192973E+01 -0.56516778322E+00  0.40747750628E+01  0.00000000000E+00 0. -1.
</event>
<event>
 7    1  0.5525118E-011  0.5052886E+02  0.7816164E-02  0.1300439E+00
        -11   -1    0    0    0    0  0.00000000000E+00  0.00000000000E+00  0.45593999997E+02  0.45594000000E+02  0.51100000000E-03 0. -1.
         11   -1    0    0    0    0 -0.00000000000E+00 -0.00000000000E+00 -0.45593999997E+02  0.45594000000E+02  0.51100000000E-03 0.  1.
    9900012    2    1    2    0    0  0.11101422120E+02 -0.39106772261E+02 -0.76431834374E+00  0.50528863361E+02  0.30000010671E+02 0.  0.
        -12    1    1    2    0    0 -0.11101422120E+02  0.39106772261E+02  0.76431834374E+00  0.40659136639E+02  0.00000000000E+00 0.  1.
         11    1    3    3    0    0  0.12443434514E+02 -0.90966184296E+01  0.35615177176E+00  0.15417988640E+02  0.51100000000E-03 0. -1.
        -11    1    3    3    0    0 -0.66601698557E+01 -0.48520387460E+01 -0.41372085121E+01  0.92204466830E+01  0.51100000000E-03 0.  1.
        -12    1    3    3    0    0  0.53181574620E+01 -0.25158115085E+02  0.30167383966E+01  0.25890428038E+02  0.00000000000E+00 0.  1.
</event>
<event>
 7    1  0.5525118E-011  0.5052887E+02  0.7816164E-02  0.1300439E+00
        -11   -1    0    0    0    0  0.00000000000E+00  0.00000000000E+00  0.45593999997E+02  0.45594000000E+02  0.51100000000E-03 0.  1.
         11   -1    0    0    0    0 -0.00000000000E+00 -0.00000000000E+00 -0.45593999997E+02  0.45594000000E+02  0.51100000000E-03 0. -1.
    9900012    2    1    2    0    0  0.18280607778E+02 -0.34366553602E+02 -0.11744110731E+02  0.50528871086E+02  0.30000034153E+02 0.  0.
        -12    1    1    2    0    0 -0.18280607778E+02  0.34366553602E+02  0.11744110731E+02  0.40659128914E+02  0.00000000000E+00 0.  1.
         11    1    3    3    0    0 -0.11597044061E+01 -0.15039193485E+01 -0.71256745016E+01  0.73744101513E+01  0.51100000000E-03 0. -1.
        -11    1    3    3    0    0  0.20428749137E+02 -0.15987800281E+02 -0.16641123849E+01  0.25994476710E+02  0.51100000000E-03 0.  1.
        -12    1    3    3    0    0 -0.98843695370E+00 -0.16874833972E+02 -0.29543238446E+01  0.17159984225E+02  0.00000000000E+00 0.  1.
</event>
<event>
 7    1  0.5525118E-011  0.5052886E+02  0.7816164E-02  0.1300439E+00
        -11   -1    0    0    0    0  0.00000000000E+00  0.00000000000E+00  0.45593999997E+02  0.45594000000E+02  0.51100000000E-03 0.  1.
         11   -1    0    0    0    0 -0.00000000000E+00 -0.00000000000E+00 -0.45593999997E+02  0.45594000000E+02  0.51100000000E-03 0. -1.
    9900012    2    1    2    0    0 -0.34978029732E+02  0.86591813718E+01 -0.18834059370E+02  0.50528858613E+02  0.29999996241E+02 0.  0.
        -12    1    1    2    0    0  0.34978029732E+02 -0.86591813718E+01  0.18834059370E+02  0.40659141387E+02  0.00000000000E+00 0.  1.
         11    1    3    3    0    0 -0.35187745285E+02  0.45991287980E+00 -0.18669879113E+02  0.39836582740E+02  0.51100000000E-03 0. -1.
        -11    1    3    3    0    0 -0.19947650176E+01  0.82463341809E+01 -0.21108778318E+00  0.84867940479E+01  0.51100000000E-03 0.  1.
         12    1    3    3    0    0  0.22044805706E+01 -0.47065688842E-01  0.46907525685E-01  0.22054818252E+01  0.00000000000E+00 0. -1.
</event>
<event>
 7    1  0.5525118E-011  0.5052885E+02  0.7816164E-02  0.1300439E+00
        -11   -1    0    0    0    0  0.00000000000E+00  0.00000000000E+00  0.45593999997E+02  0.45594000000E+02  0.51100000000E-03 0. -1.
         11   -1    0    0    0    0 -0.00000000000E+00 -0.00000000000E+00 -0.45593999997E+02  0.45594000000E+02  0.51100000000E-03 0.  1.
    9900012    2    1    2    0    0 -0.35230677374E+02 -0.20064976209E+02 -0.30598202466E+01  0.50528850987E+02  0.29999973061E+02 0.  0.
        -12    1    1    2    0    0  0.35230677374E+02  0.20064976209E+02  0.30598202466E+01  0.40659149013E+02  0.00000000000E+00 0.  1.
         11    1    3    3    0    0  0.43778362610E+01 -0.58687623546E+01 -0.92461578670E+00  0.73798872971E+01  0.51100000000E-03 0. -1.
        -11    1    3    3    0    0 -0.76754303300E+01 -0.48717742064E+00 -0.33211751013E+01  0.83773371011E+01  0.51100000000E-03 0.  1.
         12    1    3    3    0    0 -0.31933083305E+02 -0.13709036434E+02  0.11859706414E+01  0.34771626589E+02  0.00000000000E+00 0. -1.
</event>
<event>
 7    1  0.5525118E-011  0.5052885E+02  0.7816164E-02  0.1300439E+00
        -11   -1    0    0    0    0  0.00000000000E+00  0.00000000000E+00  0.45593999997E+02  0.45594000000E+02  0.51100000000E-03 0.  1.
         11   -1    0    0    0    0 -0.00000000000E+00 -0.00000000000E+00 -0.45593999997E+02  0.45594000000E+02  0.51100000000E-03 0. -1.
    9900012    2    1    2    0    0  0.35009989131E+02 -0.19541078215E+02 -0.67537636933E+01  0.50528850958E+02  0.29999972972E+02 0.  0.
        -12    1    1    2    0    0 -0.35009989131E+02  0.19541078215E+02  0.67537636933E+01  0.40659149042E+02  0.00000000000E+00 0.  1.
         11    1    3    3    0    0  0.36513258083E+02 -0.11418804648E+02 -0.10776300408E+02  0.39745889928E+02  0.51100000000E-03 0. -1.
        -11    1    3    3    0    0 -0.40485051791E+00  0.86255668510E+00  0.37974825830E+00  0.10257275358E+01  0.51100000000E-03 0.  1.
         12    1    3    3    0    0 -0.10984184338E+01 -0.89848302528E+01  0.36427884564E+01  0.97572334945E+01  0.00000000000E+00 0. -1.
</event>
<event>
 7    1  0.5525118E-011  0.5052886E+02  0.7816164E-02  0.1300439E+00
        -11   -1    0    0    0    0  0.00000000000E+00  0.00000000000E+00  0.45593999997E+02  0.45594000000E+02  0.51100000000E-03 0.  1.
         11   -1    0    0    0    0 -0.00000000000E+00 -0.00000000000E+00 -0.45593999997E+02  0.45594000000E+02  0.51100000000E-03 0. -1.
    9900012    2    1    2    0    0 -0.17934885182E+02  0.78499276165E+01 -0.35635436199E+02  0.50528858554E+02  0.29999996061E+02 0.  0.
        -12    1    1    2    0    0  0.17934885182E+02 -0.78499276165E+01  0.35635436199E+02  0.40659141446E+02  0.00000000000E+00 0.  1.
         11    1    3    3    0    0 -0.17790472706E+00  0.11599887814E+02 -0.20586747570E+02  0.23630556980E+02  0.51100000000E-03 0. -1.
        -11    1    3    3    0    0 -0.10890747685E+02 -0.78476736680E+01 -0.56654828704E+01  0.14570245830E+02  0.51100000000E-03 0.  1.
         12    1    3    3    0    0 -0.68662327694E+01  0.40977134707E+01 -0.93832057579E+01  0.12328055744E+02  0.00000000000E+00 0. -1.
</event>
<event>
 7    1  0.5525118E-011  0.5052887E+02  0.7816164E-02  0.1300439E+00
        -11   -1    0    0    0    0  0.00000000000E+00  0.00000000000E+00  0.45593999997E+02  0.45594000000E+02  0.51100000000E-03 0. -1.
         11   -1    0    0    0    0 -0.00000000000E+00 -0.00000000000E+00 -0.45593999997E+02  0.45594000000E+02  0.51100000000E-03 0.  1.
    9900012    2    1    2    0    0  0.61680768701E+01  0.35039290977E+02 -0.19681664418E+02  0.50528868201E+02  0.30000025382E+02 0.  0.
        -12    1    1    2    0    0 -0.61680768701E+01 -0.35039290977E+02  0.19681664418E+02  0.40659131799E+02  0.00000000000E+00 0.  1.
         11    1    3    3    0    0 -0.63173172336E+01  0.10380684170E+02 -0.29937338701E+01  0.12515172536E+02  0.51100000000E-03 0. -1.
        -11    1    3    3    0    0  0.17107594616E+02  0.15673885277E+02 -0.15353211375E+02  0.27821962063E+02  0.51100000000E-03 0.  1.
        -12    1    3    3    0    0 -0.46222005118E+01  0.89847215300E+01 -0.13347191721E+01  0.10191733602E+02  0.00000000000E+00 0.  1.
</event>
<event>
 7    1  0.5525118E-011  0.5052886E+02  0.7816164E-02  0.1300439E+00
        -11   -1    0    0    0    0  0.00000000000E+00  0.00000000000E+00  0.45593999997E+02  0.45594000000E+02  0.51100000000E-03 0.  1.
         11   -1    0    0    0    0 -0.00000000000E+00 -0.00000000000E+00 -0.45593999997E+02  0.45594000000E+02  0.51100000000E-03 0. -1.
    9900012    2    1    2    0    0 -0.10913784856E+02  0.38343590356E+02 -0.79889756935E+01  0.50528863832E+02  0.30000012105E+02 0.  0.
        -12    1    1    2    0    0  0.10913784856E+02 -0.38343590356E+02  0.79889756935E+01  0.40659136168E+02  0.00000000000E+00 0.  1.
         11    1    3    3    0    0 -0.22288391475E-01  0.40522987985E+01 -0.20724790527E+00  0.40576562545E+01  0.51100000000E-03 0. -1.
        -11    1    3    3    0    0 -0.11500256393E+02  0.32547129897E+02 -0.16000645029E+02  0.38047236474E+02  0.51100000000E-03 0.  1.
        -12    1    3    3    0    0  0.60875992856E+00  0.17441616600E+01  0.82189172412E+01  0.84239711042E+01  0.00000000000E+00 0.  1.
</event>
<event>
 7    1  0.5525118E-011  0.5052885E+02  0.7816164E-02  0.1300439E+00
        -11   -1    0    0    0    0  0.00000000000E+00  0.00000000000E+00  0.45593999997E+02  0.45594000000E+02  0.51100000000E-03 0. -1.
         11   -1    0    0    0    0 -0.00000000000E+00 -0.00000000000E+00 -0.45593999997E+02  0.45594000000E+02  0.51100000000E-03 0.  1.
    9900012    2    1    2    0    0 -0.33383765526E+02 -0.10489307686E+02  0.20704225928E+02  0.50528851611E+02  0.29999974958E+02 0.  0.
        -12    1    1    2    0    0  0.33383765526E+02  0.10489307686E+02 -0.20704225928E+02  0.40659148389E+02  0.00000000000E+00 0.  1.
         11    1    3    3    0    0 -0.28603310750E+02 -0.84157386139E+01  0.26289088529E+02  0.39750348655E+02  0.51100000000E-03 0. -1.
        -11    1    3    3    0    0 -0.23903793481E+01  0.28550436336E+01 -0.19354367307E+01  0.41965584920E+01  0.51100000000E-03 0.  1.
         12    1    3    3    0    0 -0.23900754280E+01 -0.49286127054E+01 -0.36494258699E+01  0.65819444643E+01  0.00000000000E+00 0. -1.
</event>
<event>
 7    1  0.5525118E-011  0.5052886E+02  0.7816164E-02  0.1300439E+00
        -11   -1    0    0    0    0  0.00000000000E+00  0.00000000000E+00  0.45593999997E+02  0.45594000000E+02  0.51100000000E-03 0.  1.
         11   -1    0    0    0    0 -0.00000000000E+00 -0.00000000000E+00 -0.45593999997E+02  0.45594000000E+02  0.51100000000E-03 0. -1.
    9900012    2    1    2    0    0  0.21803584388E+02 -0.27609175858E+02 -0.20383890494E+02  0.50528857420E+02  0.29999992614E+02 0.  0.
        -12    1    1    2    0    0 -0.21803584388E+02  0.27609175858E+02  0.20383890494E+02  0.40659142580E+02  0.00000000000E+00 0.  1.
         11    1    3    3    0    0  0.23689972580E+02 -0.23500508553E+02 -0.10355100858E+02  0.34938758094E+02  0.51100000000E-03 0. -1.
        -11    1    3    3    0    0 -0.41077176819E+01 -0.45338038383E+01 -0.89809165790E+00  0.61834691465E+01  0.51100000000E-03 0.  1.
         12    1    3    3    0    0  0.22213294895E+01  0.42513653375E+00 -0.91306979777E+01  0.94066301795E+01  0.00000000000E+00 0. -1.
</event>
<event>
 7    1  0.5525118E-011  0.5052887E+02  0.7816164E-02  0.1300439E+00
        -11   -1    0    0    0    0  0.00000000000E+00  0.00000000000E+00  0.45593999997E+02  0.45594000000E+02  0.51100000000E-03 0.  1.
         11   -1    0    0    0    0 -0.00000000000E+00 -0.00000000000E+00 -0.45593999997E+02  0.45594000000E+02  0.51100000000E-03 0. -1.
    9900012    2    1    2    0    0  0.10784630808E+02  0.39129869669E+02  0.23896009919E+01  0.50528866280E+02  0.30000019545E+02 0.  0.
        -12    1    1    2    0    0 -0.10784630808E+02 -0.39129869669E+02 -0.23896009919E+01  0.40659133720E+02  0.00000000000E+00 0.  1.
         11    1    3    3    0    0 -0.94401881145E+01  0.92980301452E+01 -0.26963575719E+01  0.13521866019E+02  0.51100000000E-03 0. -1.
        -11    1    3    3    0    0  0.18586842479E+02  0.27966842120E+02  0.64213202482E+01  0.34188423852E+02  0.51100000000E-03 0.  1.
         12    1    3    3    0    0  0.16379764436E+01  0.18649974031E+01 -0.13353616845E+01  0.28185764087E+01  0.00000000000E+00 0. -1.
</event>
<event>
 7    1  0.5525118E-011  0.5052886E+02  0.7816164E-02  0.1300439E+00
        -11   -1    0    0    0    0  0.00000000000E+00  0.00000000000E+00  0.45593999997E+02  0.45594000000E+02  0.51100000000E-03 0.  1.
         11   -1    0    0    0    0 -0.00000000000E+00 -0.00000000000E+00 -0.45593999997E+02  0.45594000000E+02  0.51100000000E-03 0. -1.
    9900012    2    1    2    0    0  0.16570878255E+02 -0.36309956690E+02 -0.77561903345E+01  0.50528862657E+02  0.30000008533E+02 0.  0.
        -12    1    1    2    0    0 -0.16570878255E+02  0.36309956690E+02  0.77561903345E+01  0.40659137343E+02  0.00000000000E+00 0.  1.
         11    1    3    3    0    0  0.19877750771E+02 -0.32069689322E+02 -0.84432620216E+01  0.38663660235E+02  0.51100000000E-03 0. -1.
        -11    1    3    3    0    0 -0.61972990283E+01 -0.46607402997E+01  0.28171267101E+01  0.82501647589E+01  0.51100000000E-03 0.  1.
         12    1    3    3    0    0  0.28904265117E+01  0.42047293207E+00 -0.21300550230E+01  0.36150376633E+01  0.00000000000E+00 0. -1.
</event>
<event>
 7    1  0.5525118E-011  0.5052886E+02  0.7816164E-02  0.1300439E+00
        -11   -1    0    0    0    0  0.00000000000E+00  0.00000000000E+00  0.45593999997E+02  0.45594000000E+02  0.51100000000E-03 0.  1.
         11   -1    0    0    0    0 -0.00000000000E+00 -0.00000000000E+00 -0.45593999997E+02  0.45594000000E+02  0.51100000000E-03 0. -1.
    9900012    2    1    2    0    0  0.27030108680E+02 -0.17782528895E+02 -0.24623577040E+02  0.50528860125E+02  0.30000000836E+02 0.  0.
        -12    1    1    2    0    0 -0.27030108680E+02  0.17782528895E+02  0.24623577040E+02  0.40659139875E+02  0.00000000000E+00 0.  1.
         11    1    3    3    0    0  0.18107159546E+02 -0.15542042866E+02 -0.10802511244E+02  0.26193865173E+02  0.51100000000E-03 0. -1.
        -11    1    3    3    0    0 -0.26893929885E+01  0.50159795518E+01 -0.14315921291E+01  0.58687598176E+01  0.51100000000E-03 0.  1.
         12    1    3    3    0    0  0.11612342122E+02 -0.72564655805E+01 -0.12389473667E+02  0.18466235134E+02  0.00000000000E+00 0. -1.
</event>
<event>
 7    1  0.5525118E-011  0.5052886E+02  0.7816164E-02  0.1300439E+00
        -11   -1    0    0    0    0  0.00000000000E+00  0.00000000000E+00  0.45593999997E+02  0.45594000000E+02  0.51100000000E-03 0.  1.
         11   -1    0    0    0    0 -0.00000000000E+00 -0.00000000000E+00 -0.45593999997E+02  0.45594000000E+02  0.51100000000E-03 0. -1.
    9900012    2    1    2    0    0  0.19106141876E+02  0.13133219911E+02 -0.33401196226E+02  0.50528855494E+02  0.29999986760E+02 0.  0.
        -12    1    1    2    0    0 -0.19106141876E+02 -0.13133219911E+02  0.33401196226E+02  0.40659144506E+02  0.00000000000E+00 0.  1.
         11    1    3    3    0    0 -0.48646013681E+01 -0.22293887693E+01 -0.10636803225E+02  0.11906977109E+02  0.51100000000E-03 0. -1.
        -11    1    3    3    0    0  0.21745247593E+02  0.17390308893E+02 -0.22075960262E+02  0.35533458290E+02  0.51100000000E-03 0.  1.
         12    1    3    3    0    0  0.22254956516E+01 -0.20277002131E+01 -0.68843273894E+00  0.30884200954E+01  0.00000000000E+00 0. -1.
</event>
<event>
 7    1  0.5525118E-011  0.5052886E+02  0.7816164E-02  0.1300439E+00
        -11   -1    0    0    0    0  0.00000000000E+00  0.00000000000E+00  0.45593999997E+02  0.45594000000E+02  0.51100000000E-03 0.  1.
         11   -1    0    0    0    0 -0.00000000000E+00 -0.00000000000E+00 -0.45593999997E+02  0.45594000000E+02  0.51100000000E-03 0. -1.
    9900012    2    1    2    0    0 -0.31990849108E+02  0.27849590443E+00 -0.25093306610E+02  0.50528855601E+02  0.29999987085E+02 0.  0.
        -12    1    1    2    0    0  0.31990849108E+02 -0.27849590443E+00  0.25093306610E+02  0.40659144399E+02  0.00000000000E+00 0.  1.
         11    1    3    3    0    0 -0.55992796578E+01 -0.31607036119E+01 -0.53089038963E+01  0.83382516662E+01  0.51100000000E-03 0. -1.
        -11    1    3    3    0    0 -0.24087814498E+02  0.11312130851E+02 -0.20997771911E+02  0.33898282216E+02  0.51100000000E-03 0.  1.
        -12    1    3    3    0    0 -0.23037549517E+01 -0.78729313350E+01  0.12133691968E+01  0.82923217189E+01  0.00000000000E+00 0.  1.
</event>
<event>
 7    1  0.5525118E-011  0.5052882E+02  0.7816164E-02  0.1300439E+00
        -11   -1    0    0    0    0  0.00000000000E+00  0.00000000000E+00  0.45593999997E+02  0.45594000000E+02  0.51100000000E-03 0. -1.
         11   -1    0    0    0    0 -0.00000000000E+00 -0.00000000000E+00 -0.45593999997E+02  0.45594000000E+02  0.51100000000E-03 0.  1.
    9900012    2    1    2    0    0 -0.39063539840E+02  0.48408428079E+01  0.10187001192E+02  0.50528820259E+02  0.29999879660E+02 0.  0.
        -12    1    1    2    0    0  0.39063539840E+02 -0.48408428079E+01 -0.10187001192E+02  0.40659179741E+02  0.00000000000E+00 0.  1.
         11    1    3    3    0    0 -0.83661855773E+01 -0.21818618854E+01  0.11505851712E+02  0.14392296769E+02  0.51100000000E-03 0. -1.
        -11    1    3    3    0    0 -0.65250800531E+01 -0.26091222723E+01 -0.65371538266E+01  0.95978419003E+01  0.51100000000E-03 0.  1.
         12    1    3    3    0    0 -0.24172274209E+02  0.96318269656E+01  0.52183033064E+01  0.26538681590E+02  0.00000000000E+00 0. -1.
</event>
<event>
 7    1  0.5525118E-011  0.5052896E+02  0.7816164E-02  0.1300438E+00
        -11   -1    0    0    0    0  0.00000000000E+00  0.00000000000E+00  0.45593999997E+02  0.45594000000E+02  0.51100000000E-03 0.  1.
         11   -1    0    0    0    0 -0.00000000000E+00 -0.00000000000E+00 -0.45593999997E+02  0.45594000000E+02  0.51100000000E-03 0. -1.
    9900012    2    1    2    0    0 -0.49767356661E+01 -0.24521453831E+02 -0.32048211102E+02  0.50528961266E+02  0.30000308264E+02 0.  0.
        -12    1    1    2    0    0  0.49767356661E+01  0.24521453831E+02  0.32048211102E+02  0.40659038734E+02  0.00000000000E+00 0.  1.
         11    1    3    3    0    0 -0.40772056523E+01 -0.20034555385E+02 -0.71214615554E+01  0.21649993772E+02  0.51100000000E-03 0. -1.
        -11    1    3    3    0    0  0.42171956909E+01  0.32343278065E+01 -0.94613102237E+01  0.10851820459E+02  0.51100000000E-03 0.  1.
         12    1    3    3    0    0 -0.51167257047E+01 -0.77212262529E+01 -0.15465439323E+02  0.18027147036E+02  0.00000000000E+00 0. -1.
</event>
<event>
 7    1  0.5525118E-011  0.5052886E+02  0.7816164E-02  0.1300439E+00
        -11   -1    0    0    0    0  0.00000000000E+00  0.00000000000E+00  0.45593999997E+02  0.45594000000E+02  0.51100000000E-03 0.  1.
         11   -1    0    0    0    0 -0.00000000000E+00 -0.00000000000E+00 -0.45593999997E+02  0.45594000000E+02  0.51100000000E-03 0. -1.
    9900012    2    1    2    0    0  0.14609658861E+02  0.21876286803E+02 -0.31002440389E+02  0.50528863679E+02  0.30000011639E+02 0.  0.
        -12    1    1    2    0    0 -0.14609658861E+02 -0.21876286803E+02  0.31002440389E+02  0.40659136321E+02  0.00000000000E+00 0.  1.
         11    1    3    3    0    0  0.52618800515E+01  0.39284881139E+00 -0.15517262274E+02  0.16389848706E+02  0.51100000000E-03 0. -1.
        -11    1    3    3    0    0  0.26863155607E+01  0.14127785265E+02  0.15086362615E+01  0.14459826812E+02  0.51100000000E-03 0.  1.
        -12    1    3    3    0    0  0.66614632487E+01  0.73556527260E+01 -0.16993814376E+02  0.19679188161E+02  0.00000000000E+00 0.  1.
</event>
<event>
 7    1  0.5525118E-011  0.5052885E+02  0.7816164E-02  0.1300439E+00
        -11   -1    0    0    0    0  0.00000000000E+00  0.00000000000E+00  0.45593999997E+02  0.45594000000E+02  0.51100000000E-03 0.  1.
         11   -1    0    0    0    0 -0.00000000000E+00 -0.00000000000E+00 -0.45593999997E+02  0.45594000000E+02  0.51100000000E-03 0. -1.
    9900012    2    1    2    0    0  0.70222174146E+01  0.52269282391E+00 -0.40044747761E+02  0.50528848897E+02  0.29999966708E+02 0.  0.
        -12    1    1    2    0    0 -0.70222174146E+01 -0.52269282391E+00  0.40044747761E+02  0.40659151103E+02  0.00000000000E+00 0.  1.
         11    1    3    3    0    0 -0.39297832491E+01  0.20351625484E+01 -0.34727860009E+02  0.35008703833E+02  0.51100000000E-03 0. -1.
        -11    1    3    3    0    0  0.34075984979E+01 -0.13909368793E+01  0.26591269694E+01  0.45406375572E+01  0.51100000000E-03 0.  1.
         12    1    3    3    0    0  0.75444021658E+01 -0.12153284521E+00 -0.79760147212E+01  0.10979507507E+02  0.00000000000E+00 0. -1.
</event>
<event>
 7    1  0.5525118E-011  0.5052884E+02  0.7816164E-02  0.1300439E+00
        -11   -1    0    0    0    0  0.00000000000E+00  0.00000000000E+00  0.45593999997E+02  0.45594000000E+02  0.51100000000E-03 0. -1.
         11   -1    0    0    0    0 -0.00000000000E+00 -0.00000000000E+00 -0.45593999997E+02  0.45594000000E+02  0.51100000000E-03 0.  1.
    9900012    2    1    2    0    0 -0.59597858838E+01 -0.34015415912E+02  0.21461579346E+02  0.50528844137E+02  0.29999952239E+02 0.  0.
        -12    1    1    2    0    0  0.59597858838E+01  0.34015415912E+02 -0.21461579346E+02  0.40659155863E+02  0.00000000000E+00 0.  1.
         11    1    3    3    0    0  0.20530407342E+01 -0.70163503196E+01  0.28583418015E+01  0.78494755353E+01  0.51100000000E-03 0. -1.
        -11    1    3    3    0    0 -0.30016112627E+01 -0.60658030526E+01  0.19995365595E+02  0.21109672721E+02  0.51100000000E-03 0.  1.
        -12    1    3    3    0    0 -0.50112153553E+01 -0.20933262540E+02 -0.13921280504E+01  0.21569695881E+02  0.00000000000E+00 0.  1.
</event>
<event>
 7    1  0.5525118E-011  0.5052886E+02  0.7816164E-02  0.1300439E+00
        -11   -1    0    0    0    0  0.00000000000E+00  0.00000000000E+00  0.45593999997E+02  0.45594000000E+02  0.51100000000E-03 0.  1.
         11   -1    0    0    0    0 -0.00000000000E+00 -0.00000000000E+00 -0.45593999997E+02  0.45594000000E+02  0.51100000000E-03 0. -1.
    9900012    2    1    2    0    0 -0.12783531485E+02 -0.11304711013E+02 -0.36904618680E+02  0.50528855294E+02  0.29999986151E+02 0.  0.
        -12    1    1    2    0    0  0.12783531485E+02  0.11304711013E+02  0.36904618680E+02  0.40659144706E+02  0.00000000000E+00 0.  1.
         11    1    3    3    0    0 -0.15820088737E+02 -0.99530368876E+01 -0.24451811809E+02  0.30777089725E+02  0.51100000000E-03 0. -1.
        -11    1    3    3    0    0 -0.30368134261E+01  0.13911735939E+01  0.19600213345E+01  0.38728908642E+01  0.51100000000E-03 0.  1.
         12    1    3    3    0    0  0.60733706777E+01 -0.27428477189E+01 -0.14412828206E+02  0.15878874705E+02  0.00000000000E+00 0. -1.
</event>
<event>
 7    1  0.5525118E-011  0.5052885E+02  0.7816164E-02  0.1300439E+00
        -11   -1    0    0    0    0  0.00000000000E+00  0.00000000000E+00  0.45593999997E+02  0.45594000000E+02  0.51100000000E-03 0.  1.
         11   -1    0    0    0    0 -0.00000000000E+00 -0.00000000000E+00 -0.45593999997E+02  0.45594000000E+02  0.51100000000E-03 0. -1.
    9900012    2    1    2    0    0 -0.76776267314E+01  0.36410490362E+02 -0.16385877647E+02  0.50528846703E+02  0.29999960037E+02 0.  0.
        -12    1    1    2    0    0  0.76776267314E+01 -0.36410490362E+02  0.16385877647E+02  0.40659153297E+02  0.00000000000E+00 0.  1.
         11    1    3    3    0    0  0.49927308199E+01  0.19368396615E+02 -0.12627218013E+02  0.23653938012E+02  0.51100000000E-03 0. -1.
        -11    1    3    3    0    0 -0.16755901304E+01 -0.23805822090E+01  0.23432895279E+01  0.37370817507E+01  0.51100000000E-03 0.  1.
         12    1    3    3    0    0 -0.10994767421E+02  0.19422675956E+02 -0.61019491614E+01  0.23137826940E+02  0.00000000000E+00 0. -1.
</event>
<event>
 7    1  0.5703109E-011  0.5052886E+02  0.7816164E-02  0.1300439E+00
        -11   -1    0    0    0    0  0.00000000000E+00  0.00000000000E+00  0.45593999997E+02  0.45594000000E+02  0.51100000000E-03 0. -1.
         11   -1    0    0    0    0 -0.00000000000E+00 -0.00000000000E+00 -0.45593999997E+02  0.45594000000E+02  0.51100000000E-03 0.  1.
    9900012    2    1    2    0    0 -0.10451768329E+02  0.30240587396E+02  0.25088500806E+02  0.50528862529E+02  0.30000008142E+02 0.  0.
        -12    1    1    2    0    0  0.10451768329E+02 -0.30240587396E+02 -0.25088500806E+02  0.40659137471E+02  0.00000000000E+00 0.  1.
         11    1    3    3    0    0 -0.95945171501E+01  0.18149250771E+02  0.14324231160E+02  0.25032651907E+02  0.51100000000E-03 0. -1.
        -11    1    3    3    0    0 -0.63040569395E+01 -0.29235682992E+01  0.17918294512E+01  0.71762830588E+01  0.51100000000E-03 0.  1.
        -12    1    3    3    0    0  0.54468057610E+01  0.15014904924E+02  0.89724401949E+01  0.18319927563E+02  0.00000000000E+00 0.  1.
</event>
<event>
 7    1  0.5525118E-011  0.5052885E+02  0.7816164E-02  0.1300439E+00
        -11   -1    0    0    0    0  0.00000000000E+00  0.00000000000E+00  0.45593999997E+02  0.45594000000E+02  0.51100000000E-03 0.  1.
         11   -1    0    0    0    0 -0.00000000000E+00 -0.00000000000E+00 -0.45593999997E+02  0.45594000000E+02  0.51100000000E-03 0. -1.
    9900012    2    1    2    0    0  0.12312381391E+02 -0.37827547155E+02 -0.84052392962E+01  0.50528854572E+02  0.29999983957E+02 0.  0.
        -12    1    1    2    0    0 -0.12312381391E+02  0.37827547155E+02  0.84052392962E+01  0.40659145428E+02  0.00000000000E+00 0.  1.
         11    1    3    3    0    0  0.14546913221E+02 -0.18696962712E+02  0.52456821658E+01  0.24263270195E+02  0.51100000000E-03 0. -1.
        -11    1    3    3    0    0  0.12440611678E+01 -0.44922314871E+01 -0.96187056505E+01  0.10688654292E+02  0.51100000000E-03 0.  1.
         12    1    3    3    0    0 -0.34785929978E+01 -0.14638352957E+02 -0.40322158115E+01  0.15576930085E+02  0.00000000000E+00 0. -1.
</event>
<event>
 7    1  0.5525118E-011  0.5052886E+02  0.7816164E-02  0.1300439E+00
        -11   -1    0    0    0    0  0.00000000000E+00  0.00000000000E+00  0.45593999997E+02  0.45594000000E+02  0.51100000000E-03 0. -1.
         11   -1    0    0    0    0 -0.00000000000E+00 -0.00000000000E+00 -0.45593999997E+02  0.45594000000E+02  0.51100000000E-03 0.  1.
    9900012    2    1    2    0    0  0.17508568252E+02  0.24828801792E+02  0.27021223614E+02  0.50528857285E+02  0.29999992205E+02 0.  0.
        -12    1    1    2    0    0 -0.17508568252E+02 -0.24828801792E+02 -0.27021223614E+02  0.40659142715E+02  0.00000000000E+00 0.  1.
         11    1    3    3    0    0 -0.62798550221E+01  0.82025404874E+01  0.62659972007E+01  0.12082258511E+02  0.51100000000E-03 0. -1.
        -11    1    3    3    0    0  0.91878859426E+01  0.50762860288E+00  0.11708612043E+02  0.14891827663E+02  0.51100000000E-03 0.  1.
         12    1    3    3    0    0  0.14600537332E+02  0.16118632702E+02  0.90466143700E+01  0.23554771112E+02  0.00000000000E+00 0. -1.
</event>
<event>
 7    1  0.5525118E-011  0.5052886E+02  0.7816164E-02  0.1300439E+00
        -11   -1    0    0    0    0  0.00000000000E+00  0.00000000000E+00  0.45593999997E+02  0.45594000000E+02  0.51100000000E-03 0. -1.
         11   -1    0    0    0    0 -0.00000000000E+00 -0.00000000000E+00 -0.45593999997E+02  0.45594000000E+02  0.51100000000E-03 0.  1.
    9900012    2    1    2    0    0  0.22700102443E+02 -0.63114289049E+01  0.33136636169E+02  0.50528862745E+02  0.30000008799E+02 0.  0.
        -12    1    1    2    0    0 -0.22700102443E+02  0.63114289049E+01 -0.33136636169E+02  0.40659137255E+02  0.00000000000E+00 0.  1.
         11    1    3    3    0    0  0.12495290799E+02 -0.85539036123E+01  0.17643242955E+00  0.15143734276E+02  0.51100000000E-03 0.  1.
        -11    1    3    3    0    0  0.23413006681E+01 -0.17102400059E+01  0.16171941527E+02  0.16429799229E+02  0.51100000000E-03 0. -1.
         12    1    3    3    0    0  0.78635109760E+01  0.39527147133E+01  0.16788262213E+02  0.18955329240E+02  0.00000000000E+00 0. -1.
</event>
<event>
 7    1  0.5525118E-011  0.5052886E+02  0.7816164E-02  0.1300439E+00
        -11   -1    0    0    0    0  0.00000000000E+00  0.00000000000E+00  0.45593999997E+02  0.45594000000E+02  0.51100000000E-03 0.  1.
         11   -1    0    0    0    0 -0.00000000000E+00 -0.00000000000E+00 -0.45593999997E+02  0.45594000000E+02  0.51100000000E-03 0. -1.
    9900012    2    1    2    0    0  0.30584047891E+02 -0.24923800355E+02  0.98278003451E+01  0.50528862414E+02  0.30000007795E+02 0.  0.
        -12    1    1    2    0    0 -0.30584047891E+02  0.24923800355E+02 -0.98278003451E+01  0.40659137586E+02  0.00000000000E+00 0.  1.
         11    1    3    3    0    0  0.13889099528E+01 -0.31991377756E+01 -0.16010482764E+01  0.38375655315E+01  0.51100000000E-03 0. -1.
        -11    1    3    3    0    0  0.39858394961E+01  0.42473417231E+01 -0.42866940443E+01  0.72320518729E+01  0.51100000000E-03 0.  1.
        -12    1    3    3    0    0  0.25209298443E+02 -0.25972004303E+02  0.15715542666E+02  0.39459245010E+02  0.00000000000E+00 0.  1.
</event>
<event>
 7    1  0.5525118E-011  0.5052888E+02  0.7816164E-02  0.1300439E+00
        -11   -1    0    0    0    0  0.00000000000E+00  0.00000000000E+00  0.45593999997E+02  0.45594000000E+02  0.51100000000E-03 0.  1.
         11   -1    0    0    0    0 -0.00000000000E+00 -0.00000000000E+00 -0.45593999997E+02  0.45594000000E+02  0.51100000000E-03 0. -1.
    9900012    2    1    2    0    0 -0.12721392934E+02  0.86516211509E+01 -0.37636149871E+02  0.50528878467E+02  0.30000056587E+02 0.  0.
        -12    1    1    2    0    0  0.12721392934E+02 -0.86516211509E+01  0.37636149871E+02  0.40659121533E+02  0.00000000000E+00 0.  1.
         11    1    3    3    0    0 -0.30360653950E+01 -0.93890939344E+01 -0.99114801825E+01  0.13986072274E+02  0.51100000000E-03 0. -1.
        -11    1    3    3    0    0 -0.17745792158E+01  0.15334052091E+02 -0.18446954398E+02  0.24053532210E+02  0.51100000000E-03 0.  1.
         12    1    3    3    0    0 -0.79107483234E+01  0.27066629939E+01 -0.92777152909E+01  0.12489273983E+02  0.00000000000E+00 0. -1.
</event>
<event>
 7    1  0.5525118E-011  0.5052882E+02  0.7816164E-02  0.1300439E+00
        -11   -1    0    0    0    0  0.00000000000E+00  0.00000000000E+00  0.45593999997E+02  0.45594000000E+02  0.51100000000E-03 0.  1.
         11   -1    0    0    0    0 -0.00000000000E+00 -0.00000000000E+00 -0.45593999997E+02  0.45594000000E+02  0.51100000000E-03 0. -1.
    9900012    2    1    2    0    0  0.28177012832E+01 -0.44651734581E+01 -0.40314910475E+02  0.50528816276E+02  0.29999867552E+02 0.  0.
        -12    1    1    2    0    0 -0.28177012832E+01  0.44651734581E+01  0.40314910475E+02  0.40659183724E+02  0.00000000000E+00 0.  1.
         11    1    3    3    0    0 -0.25387165193E+01 -0.46288768097E+01 -0.37188286180E+02  0.37561152956E+02  0.51100000000E-03 0. -1.
        -11    1    3    3    0    0  0.22786487950E+01 -0.43563833074E+01  0.21524198745E+01  0.53668638355E+01  0.51100000000E-03 0.  1.
         12    1    3    3    0    0  0.30777690076E+01  0.45200866589E+01 -0.52790441690E+01  0.76007994847E+01  0.00000000000E+00 0. -1.
</event>
<event>
 7    1  0.5525118E-011  0.5052885E+02  0.7816164E-02  0.1300439E+00
        -11   -1    0    0    0    0  0.00000000000E+00  0.00000000000E+00  0.45593999997E+02  0.45594000000E+02  0.51100000000E-03 0.  1.
         11   -1    0    0    0    0 -0.00000000000E+00 -0.00000000000E+00 -0.45593999997E+02  0.45594000000E+02  0.51100000000E-03 0. -1.
    9900012    2    1    2    0    0  0.39706981742E+02 -0.87240684510E+01  0.64219478763E+00  0.50528853630E+02  0.29999981095E+02 0.  0.
        -12    1    1    2    0    0 -0.39706981742E+02  0.87240684510E+01 -0.64219478763E+00  0.40659146370E+02  0.00000000000E+00 0.  1.
         11    1    3    3    0    0  0.15704246546E+02 -0.16080881339E+02 -0.13838205276E+01  0.22519615089E+02  0.51100000000E-03 0. -1.
        -11    1    3    3    0    0  0.23751060334E+02  0.51584705977E+01 -0.92311722348E+00  0.24322311394E+02  0.51100000000E-03 0.  1.
        -12    1    3    3    0    0  0.25167486125E+00  0.21983422901E+01  0.29491325387E+01  0.36869271475E+01  0.00000000000E+00 0.  1.
</event>
<event>
 7    1  0.5525118E-011  0.5052886E+02  0.7816164E-02  0.1300439E+00
        -11   -1    0    0    0    0  0.00000000000E+00  0.00000000000E+00  0.45593999997E+02  0.45594000000E+02  0.51100000000E-03 0. -1.
         11   -1    0    0    0    0 -0.00000000000E+00 -0.00000000000E+00 -0.45593999997E+02  0.45594000000E+02  0.51100000000E-03 0.  1.
    9900012    2    1    2    0    0 -0.74757329025E+01  0.29564997941E+02  0.26892186342E+02  0.50528863610E+02  0.30000011429E+02 0.  0.
        -12    1    1    2    0    0  0.74757329025E+01 -0.29564997941E+02 -0.26892186342E+02  0.40659136390E+02  0.00000000000E+00 0.  1.
         11    1    3    3    0    0 -0.22055343181E+00  0.96459766881E+01  0.18955621196E+02  0.21269910326E+02  0.51100000000E-03 0. -1.
        -11    1    3    3    0    0 -0.13723256965E+01 -0.12573382329E+01 -0.38815468018E+01  0.43047163768E+01  0.51100000000E-03 0.  1.
         12    1    3    3    0    0 -0.58828537742E+01  0.21176359486E+02  0.11818111948E+02  0.24954236907E+02  0.00000000000E+00 0. -1.
</event>
<event>
 7    1  0.5525118E-011  0.5052887E+02  0.7816164E-02  0.1300439E+00
        -11   -1    0    0    0    0  0.00000000000E+00  0.00000000000E+00  0.45593999997E+02  0.45594000000E+02  0.51100000000E-03 0. -1.
         11   -1    0    0    0    0 -0.00000000000E+00 -0.00000000000E+00 -0.45593999997E+02  0.45594000000E+02  0.51100000000E-03 0.  1.
    9900012    2    1    2    0    0  0.28853841763E+02  0.14422107659E+02 -0.24751238351E+02  0.50528866048E+02  0.30000018839E+02 0.  0.
        -12    1    1    2    0    0 -0.28853841763E+02 -0.14422107659E+02  0.24751238351E+02  0.40659133952E+02  0.00000000000E+00 0.  1.
         11    1    3    3    0    0  0.92889698057E+01  0.16746204858E+01 -0.30620332725E+01  0.99229714222E+01  0.51100000000E-03 0. -1.
        -11    1    3    3    0    0 -0.34037435790E+01 -0.43818605740E+01 -0.22825737330E+01  0.59996929546E+01  0.51100000000E-03 0.  1.
        -12    1    3    3    0    0  0.22968615536E+02  0.17129347748E+02 -0.19406631346E+02  0.34606201671E+02  0.00000000000E+00 0.  1.
</event>
<event>
 7    1  0.5525118E-011  0.5052885E+02  0.7816164E-02  0.1300439E+00
        -11   -1    0    0    0    0  0.00000000000E+00  0.00000000000E+00  0.45593999997E+02  0.45594000000E+02  0.51100000000E-03 0.  1.
         11   -1    0    0    0    0 -0.00000000000E+00 -0.00000000000E+00 -0.45593999997E+02  0.45594000000E+02  0.51100000000E-03 0. -1.
    9900012    2    1    2    0    0  0.34019167436E+02  0.27130214691E+00 -0.22266319808E+02  0.50528851513E+02  0.29999974658E+02 0.  0.
        -12    1    1    2    0    0 -0.34019167436E+02 -0.27130214691E+00  0.22266319808E+02  0.40659148487E+02  0.00000000000E+00 0.  1.
         11    1    3    3    0    0  0.12085512931E+02 -0.64041183257E+01 -0.86512677224E+01  0.16183843419E+02  0.51100000000E-03 0. -1.
        -11    1    3    3    0    0  0.27365340267E+01  0.10936231603E+02 -0.82263719381E+01  0.13955750631E+02  0.51100000000E-03 0.  1.
        -12    1    3    3    0    0  0.19197120479E+02 -0.42608111302E+01 -0.53886801474E+01  0.20389257463E+02  0.00000000000E+00 0.  1.
</event>
<event>
 7    1  0.5525118E-011  0.5052886E+02  0.7816164E-02  0.1300439E+00
        -11   -1    0    0    0    0  0.00000000000E+00  0.00000000000E+00  0.45593999997E+02  0.45594000000E+02  0.51100000000E-03 0.  1.
         11   -1    0    0    0    0 -0.00000000000E+00 -0.00000000000E+00 -0.45593999997E+02  0.45594000000E+02  0.51100000000E-03 0. -1.
    9900012    2    1    2    0    0  0.18692670194E+01 -0.33218946759E+02 -0.23370349077E+02  0.50528858360E+02  0.29999995470E+02 0.  0.
        -12    1    1    2    0    0 -0.18692670194E+01  0.33218946759E+02  0.23370349077E+02  0.40659141640E+02  0.00000000000E+00 0.  1.
         11    1    3    3    0    0 -0.19910014678E+01 -0.16704426488E+02 -0.32851207710E+01  0.17140419186E+02  0.51100000000E-03 0. -1.
        -11    1    3    3    0    0  0.93928775717E+01 -0.15290772316E+02 -0.21027840206E+02  0.27644238660E+02  0.51100000000E-03 0.  1.
        -12    1    3    3    0    0 -0.55326090845E+01 -0.12237479542E+01  0.94261189994E+00  0.57442005128E+01  0.00000000000E+00 0.  1.
</event>
<event>
 7    1  0.5525118E-011  0.5052884E+02  0.7816164E-02  0.1300439E+00
        -11   -1    0    0    0    0  0.00000000000E+00  0.00000000000E+00  0.45593999997E+02  0.45594000000E+02  0.51100000000E-03 0. -1.
         11   -1    0    0    0    0 -0.00000000000E+00 -0.00000000000E+00 -0.45593999997E+02  0.45594000000E+02  0.51100000000E-03 0.  1.
    9900012    2    1    2    0    0  0.34747445260E+02 -0.17100204611E+01 -0.21044191087E+02  0.50528842353E+02  0.29999946815E+02 0.  0.
        -12    1    1    2    0    0 -0.34747445260E+02  0.17100204611E+01  0.21044191087E+02  0.40659157647E+02  0.00000000000E+00 0.  1.
         11    1    3    3    0    0  0.10811770147E+02 -0.55609710026E+01 -0.40058206021E+01  0.12800991023E+02  0.51100000000E-03 0. -1.
        -11    1    3    3    0    0  0.94076168354E+01  0.56954039769E+01 -0.19965131496E+02  0.22793581484E+02  0.51100000000E-03 0.  1.
        -12    1    3    3    0    0  0.14528058278E+02 -0.18444534354E+01  0.29267610110E+01  0.14934269845E+02  0.00000000000E+00 0.  1.
</event>
<event>
 7    1  0.5525118E-011  0.5052886E+02  0.7816164E-02  0.1300439E+00
        -11   -1    0    0    0    0  0.00000000000E+00  0.00000000000E+00  0.45593999997E+02  0.45594000000E+02  0.51100000000E-03 0.  1.
         11   -1    0    0    0    0 -0.00000000000E+00 -0.00000000000E+00 -0.45593999997E+02  0.45594000000E+02  0.51100000000E-03 0. -1.
    9900012    2    1    2    0    0 -0.27302783486E+02  0.29443167657E+02 -0.63893591533E+01  0.50528855664E+02  0.29999987276E+02 0.  0.
        -12    1    1    2    0    0  0.27302783486E+02 -0.29443167657E+02  0.63893591533E+01  0.40659144336E+02  0.00000000000E+00 0.  1.
         11    1    3    3    0    0 -0.51129215866E+01  0.11148107304E+02 -0.15585038285E+01  0.12363300452E+02  0.51100000000E-03 0. -1.
        -11    1    3    3    0    0 -0.31684750582E+01 -0.49150228930E+01 -0.56698078088E+01  0.81451461057E+01  0.51100000000E-03 0.  1.
        -12    1    3    3    0    0 -0.19021386841E+02  0.23210083246E+02  0.83895248408E+00  0.30020409106E+02  0.00000000000E+00 0.  1.
</event>
<event>
 7    1  0.5525118E-011  0.5052886E+02  0.7816164E-02  0.1300439E+00
        -11   -1    0    0    0    0  0.00000000000E+00  0.00000000000E+00  0.45593999997E+02  0.45594000000E+02  0.51100000000E-03 0.  1.
         11   -1    0    0    0    0 -0.00000000000E+00 -0.00000000000E+00 -0.45593999997E+02  0.45594000000E+02  0.51100000000E-03 0. -1.
    9900012    2    1    2    0    0 -0.34958151937E+02  0.84398795066E+01 -0.18970015052E+02  0.50528862970E+02  0.30000009485E+02 0.  0.
        -12    1    1    2    0    0  0.34958151937E+02 -0.84398795066E+01  0.18970015052E+02  0.40659137030E+02  0.00000000000E+00 0.  1.
         11    1    3    3    0    0 -0.24925413889E+02  0.65818333713E+01 -0.24866895041E+02  0.35818420642E+02  0.51100000000E-03 0. -1.
        -11    1    3    3    0    0 -0.72916239367E+01 -0.29259939977E+01  0.43650098495E+01  0.89879103109E+01  0.51100000000E-03 0.  1.
         12    1    3    3    0    0 -0.27411141109E+01  0.47840401329E+01  0.15318701398E+01  0.57225320172E+01  0.00000000000E+00 0. -1.
</event>
<event>
 7    1  0.5525118E-011  0.5052886E+02  0.7816164E-02  0.1300439E+00
        -11   -1    0    0    0    0  0.00000000000E+00  0.00000000000E+00  0.45593999997E+02  0.45594000000E+02  0.51100000000E-03 0.  1.
         11   -1    0    0    0    0 -0.00000000000E+00 -0.00000000000E+00 -0.45593999997E+02  0.45594000000E+02  0.51100000000E-03 0. -1.
    9900012    2    1    2    0    0 -0.36045109418E+01 -0.25027565912E+02 -0.31840130617E+02  0.50528862377E+02  0.30000007680E+02 0.  0.
        -12    1    1    2    0    0  0.36045109418E+01  0.25027565912E+02  0.31840130617E+02  0.40659137623E+02  0.00000000000E+00 0.  1.
         11    1    3    3    0    0  0.56347192132E+00 -0.74917346407E+00 -0.34406135288E+01  0.35660318564E+01  0.51100000000E-03 0. -1.
        -11    1    3    3    0    0  0.48075551632E+01 -0.18224935681E+02 -0.30577348752E+02  0.35919843042E+02  0.51100000000E-03 0.  1.
        -12    1    3    3    0    0 -0.89755380263E+01 -0.60534567662E+01  0.21778316637E+01  0.11042987478E+02  0.00000000000E+00 0.  1.
</event>
<event>
 7    1  0.5525118E-011  0.5052882E+02  0.7816164E-02  0.1300439E+00
        -11   -1    0    0    0    0  0.00000000000E+00  0.00000000000E+00  0.45593999997E+02  0.45594000000E+02  0.51100000000E-03 0.  1.
         11   -1    0    0    0    0 -0.00000000000E+00 -0.00000000000E+00 -0.45593999997E+02  0.45594000000E+02  0.51100000000E-03 0. -1.
    9900012    2    1    2    0    0 -0.38422121444E+02  0.10430869741E+02  0.82526584604E+01  0.50528821067E+02  0.29999882116E+02 0.  0.
        -12    1    1    2    0    0  0.38422121444E+02 -0.10430869741E+02 -0.82526584604E+01  0.40659178933E+02  0.00000000000E+00 0.  1.
         11    1    3    3    0    0  0.11297964877E+01 -0.24713032153E+01 -0.50685880131E+01  0.57510315938E+01  0.51100000000E-03 0.  1.
        -11    1    3    3    0    0 -0.26958244840E+02  0.59228610932E+01  0.47080608346E+01  0.27999876526E+02  0.51100000000E-03 0. -1.
         12    1    3    3    0    0 -0.12593673092E+02  0.69793118636E+01  0.86131856389E+01  0.16777912948E+02  0.00000000000E+00 0. -1.
</event>
<event>
 7    1  0.5525118E-011  0.5052885E+02  0.7816164E-02  0.1300439E+00
        -11   -1    0    0    0    0  0.00000000000E+00  0.00000000000E+00  0.45593999997E+02  0.45594000000E+02  0.51100000000E-03 0.  1.
         11   -1    0    0    0    0 -0.00000000000E+00 -0.00000000000E+00 -0.45593999997E+02  0.45594000000E+02  0.51100000000E-03 0. -1.
    9900012    2    1    2    0    0  0.18733695153E+02 -0.18546052029E+01 -0.36038525617E+02  0.50528853142E+02  0.29999979612E+02 0.  0.
        -12    1    1    2    0    0 -0.18733695153E+02  0.18546052029E+01  0.36038525617E+02  0.40659146858E+02  0.00000000000E+00 0.  1.
         11    1    3    3    0    0  0.69597771438E+01  0.23952666333E+01 -0.14073383415E+02  0.15881936945E+02  0.51100000000E-03 0. -1.
        -11    1    3    3    0    0  0.85329882506E+01 -0.14063113144E+02 -0.13958946671E+02  0.21573947998E+02  0.51100000000E-03 0.  1.
        -12    1    3    3    0    0  0.32409297589E+01  0.98132413075E+01 -0.80061955310E+01  0.13072968199E+02  0.00000000000E+00 0.  1.
</event>
<event>
 7    1  0.5525118E-011  0.5052889E+02  0.7816164E-02  0.1300439E+00
        -11   -1    0    0    0    0  0.00000000000E+00  0.00000000000E+00  0.45593999997E+02  0.45594000000E+02  0.51100000000E-03 0.  1.
         11   -1    0    0    0    0 -0.00000000000E+00 -0.00000000000E+00 -0.45593999997E+02  0.45594000000E+02  0.51100000000E-03 0. -1.
    9900012    2    1    2    0    0  0.26953073578E+02  0.23870739123E+02 -0.18891336545E+02  0.50528893295E+02  0.30000101659E+02 0.  0.
        -12    1    1    2    0    0 -0.26953073578E+02 -0.23870739123E+02  0.18891336545E+02  0.40659106705E+02  0.00000000000E+00 0.  1.
         11    1    3    3    0    0  0.13197985627E+02  0.21185539016E+02 -0.17052761662E+02  0.30229299836E+02  0.51100000000E-03 0. -1.
        -11    1    3    3    0    0  0.12137128034E+02 -0.28980017269E+01  0.28873143396E+01  0.12808000440E+02  0.51100000000E-03 0.  1.
        -12    1    3    3    0    0  0.16179599172E+01  0.55832018346E+01 -0.47258892229E+01  0.74915930193E+01  0.00000000000E+00 0.  1.
</event>
<event>
 7    1  0.5525118E-011  0.5052890E+02  0.7816164E-02  0.1300439E+00
        -11   -1    0    0    0    0  0.00000000000E+00  0.00000000000E+00  0.45593999997E+02  0.45594000000E+02  0.51100000000E-03 0.  1.
         11   -1    0    0    0    0 -0.00000000000E+00 -0.00000000000E+00 -0.45593999997E+02  0.45594000000E+02  0.51100000000E-03 0. -1.
    9900012    2    1    2    0    0  0.28911792376E+02  0.89253684216E+01 -0.27158943056E+02  0.50528903505E+02  0.30000132694E+02 0.  0.
        -12    1    1    2    0    0 -0.28911792376E+02 -0.89253684216E+01  0.27158943056E+02  0.40659096495E+02  0.00000000000E+00 0.  1.
         11    1    3    3    0    0  0.28542414630E+02  0.11827413634E+02 -0.27908382910E+02  0.41634540746E+02  0.51100000000E-03 0. -1.
        -11    1    3    3    0    0  0.40392460551E+01 -0.12055777511E+01  0.19953586239E+01  0.46637305568E+01  0.51100000000E-03 0.  1.
         12    1    3    3    0    0 -0.36698683088E+01 -0.16964674617E+01 -0.12459187697E+01  0.42306322025E+01  0.00000000000E+00 0. -1.
</event>
<event>
 7    1  0.5525118E-011  0.5052876E+02  0.7816164E-02  0.1300439E+00
        -11   -1    0    0    0    0  0.00000000000E+00  0.00000000000E+00  0.45593999997E+02  0.45594000000E+02  0.51100000000E-03 0. -1.
         11   -1    0    0    0    0 -0.00000000000E+00 -0.00000000000E+00 -0.45593999997E+02  0.45594000000E+02  0.51100000000E-03 0.  1.
    9900012    2    1    2    0    0 -0.16839333148E+02  0.45272753581E+01  0.36730290316E+02  0.50528762554E+02  0.29999704257E+02 0.  0.
        -12    1    1    2    0    0  0.16839333148E+02 -0.45272753581E+01 -0.36730290316E+02  0.40659237446E+02  0.00000000000E+00 0.  1.
         11    1    3    3    0    0 -0.61819501694E+01 -0.55403505842E+01  0.31041450641E+02  0.32132283620E+02  0.51100000000E-03 0.  1.
        -11    1    3    3    0    0 -0.92746221589E-01  0.43203452180E+01 -0.12667826766E+01  0.45031903441E+01  0.51100000000E-03 0. -1.
        -12    1    3    3    0    0 -0.10564636757E+02  0.57472807243E+01  0.69556223511E+01  0.13893288589E+02  0.00000000000E+00 0.  1.
</event>
<event>
 7    1  0.5525118E-011  0.5052886E+02  0.7816164E-02  0.1300439E+00
        -11   -1    0    0    0    0  0.00000000000E+00  0.00000000000E+00  0.45593999997E+02  0.45594000000E+02  0.51100000000E-03 0.  1.
         11   -1    0    0    0    0 -0.00000000000E+00 -0.00000000000E+00 -0.45593999997E+02  0.45594000000E+02  0.51100000000E-03 0. -1.
    9900012    2    1    2    0    0  0.30399274930E+02 -0.24919490872E+02  0.10395602178E+02  0.50528862205E+02  0.30000007159E+02 0.  0.
        -12    1    1    2    0    0 -0.30399274930E+02  0.24919490872E+02 -0.10395602178E+02  0.40659137795E+02  0.00000000000E+00 0.  1.
         11    1    3    3    0    0  0.25606163302E+02 -0.57180240323E+01  0.75149249275E+01  0.27291857665E+02  0.51100000000E-03 0. -1.
        -11    1    3    3    0    0 -0.88480264033E+00 -0.11122364205E+02 -0.32409842678E+01  0.11618684973E+02  0.51100000000E-03 0.  1.
        -12    1    3    3    0    0  0.56779142686E+01 -0.80791026343E+01  0.61216615179E+01  0.11618319567E+02  0.00000000000E+00 0.  1.
</event>
<event>
 7    1  0.5525118E-011  0.5052884E+02  0.7816164E-02  0.1300439E+00
        -11   -1    0    0    0    0  0.00000000000E+00  0.00000000000E+00  0.45593999997E+02  0.45594000000E+02  0.51100000000E-03 0.  1.
         11   -1    0    0    0    0 -0.00000000000E+00 -0.00000000000E+00 -0.45593999997E+02  0.45594000000E+02  0.51100000000E-03 0. -1.
    9900012    2    1    2    0    0 -0.32822714061E+02  0.55844074318E-01 -0.23996532497E+02  0.50528840531E+02  0.29999941278E+02 0.  0.
        -12    1    1    2    0    0  0.32822714061E+02 -0.55844074318E-01  0.23996532497E+02  0.40659159469E+02  0.00000000000E+00 0.  1.
         11    1    3    3    0    0 -0.83680561081E+01  0.94824099598E+01 -0.93262138972E+01  0.15713647813E+02  0.51100000000E-03 0. -1.
        -11    1    3    3    0    0 -0.15191236202E+02 -0.76605260364E+01  0.42225673650E+00  0.17018684365E+02  0.51100000000E-03 0.  1.
        -12    1    3    3    0    0 -0.92634217503E+01 -0.17660398490E+01 -0.15092575336E+02  0.17796508353E+02  0.00000000000E+00 0.  1.
</event>
<event>
 7    1  0.5525118E-011  0.5052891E+02  0.7816164E-02  0.1300439E+00
        -11   -1    0    0    0    0  0.00000000000E+00  0.00000000000E+00  0.45593999997E+02  0.45594000000E+02  0.51100000000E-03 0.  1.
         11   -1    0    0    0    0 -0.00000000000E+00 -0.00000000000E+00 -0.45593999997E+02  0.45594000000E+02  0.51100000000E-03 0. -1.
    9900012    2    1    2    0    0  0.31793130159E+02 -0.19047504244E+01 -0.25273120380E+02  0.50528907373E+02  0.30000144452E+02 0.  0.
        -12    1    1    2    0    0 -0.31793130159E+02  0.19047504244E+01  0.25273120380E+02  0.40659092627E+02  0.00000000000E+00 0.  1.
         11    1    3    3    0    0  0.29716069231E+01 -0.84188439204E+01 -0.15317777986E+02  0.17729684243E+02  0.51100000000E-03 0. -1.
        -11    1    3    3    0    0  0.19480587405E+02 -0.62452593360E+00 -0.64903164821E+01  0.20542821778E+02  0.51100000000E-03 0.  1.
        -12    1    3    3    0    0  0.93409358302E+01  0.71386194296E+01 -0.34650259122E+01  0.12256401353E+02  0.00000000000E+00 0.  1.
</event>
<event>
 7    1  0.5525118E-011  0.5052886E+02  0.7816164E-02  0.1300439E+00
        -11   -1    0    0    0    0  0.00000000000E+00  0.00000000000E+00  0.45593999997E+02  0.45594000000E+02  0.51100000000E-03 0. -1.
         11   -1    0    0    0    0 -0.00000000000E+00 -0.00000000000E+00 -0.45593999997E+02  0.45594000000E+02  0.51100000000E-03 0.  1.
    9900012    2    1    2    0    0 -0.13603207223E+02  0.35409783583E+02  0.14637827488E+02  0.50528855718E+02  0.29999987442E+02 0.  0.
        -12    1    1    2    0    0  0.13603207223E+02 -0.35409783583E+02 -0.14637827488E+02  0.40659144282E+02  0.00000000000E+00 0.  1.
         11    1    3    3    0    0 -0.52194369545E+01  0.31443601467E+02  0.98086737466E+01  0.33348953151E+02  0.51100000000E-03 0. -1.
        -11    1    3    3    0    0 -0.68758368133E+01 -0.54591129315E+00 -0.33882233717E+01  0.76847387009E+01  0.51100000000E-03 0.  1.
         12    1    3    3    0    0 -0.15079334555E+01  0.45120934091E+01  0.82173771130E+01  0.94951638667E+01  0.00000000000E+00 0. -1.
</event>
<event>
 7    1  0.5525118E-011  0.5052886E+02  0.7816164E-02  0.1300439E+00
        -11   -1    0    0    0    0  0.00000000000E+00  0.00000000000E+00  0.45593999997E+02  0.45594000000E+02  0.51100000000E-03 0. -1.
         11   -1    0    0    0    0 -0.00000000000E+00 -0.00000000000E+00 -0.45593999997E+02  0.45594000000E+02  0.51100000000E-03 0.  1.
    9900012    2    1    2    0    0  0.20825009094E+02 -0.34531974245E+02  0.51988115496E+01  0.50528857233E+02  0.29999992044E+02 0.  0.
        -12    1    1    2    0    0 -0.20825009094E+02  0.34531974245E+02 -0.51988115496E+01  0.40659142767E+02  0.00000000000E+00 0.  1.
         11    1    3    3    0    0  0.23424353189E+01 -0.69846254059E+01  0.10595684284E+02  0.12905057961E+02  0.51100000000E-03 0. -1.
        -11    1    3    3    0    0  0.20967126981E+02 -0.24175948219E+02 -0.76001001330E+01  0.32891616081E+02  0.51100000000E-03 0.  1.
        -12    1    3    3    0    0 -0.24845532057E+01 -0.33714006201E+01  0.22032273986E+01  0.47321831899E+01  0.00000000000E+00 0.  1.
</event>
<event>
 7    1  0.5525118E-011  0.5052886E+02  0.7816164E-02  0.1300439E+00
        -11   -1    0    0    0    0  0.00000000000E+00  0.00000000000E+00  0.45593999997E+02  0.45594000000E+02  0.51100000000E-03 0.  1.
         11   -1    0    0    0    0 -0.00000000000E+00 -0.00000000000E+00 -0.45593999997E+02  0.45594000000E+02  0.51100000000E-03 0. -1.
    9900012    2    1    2    0    0  0.11706897935E+01  0.17847941025E+02 -0.36513640217E+02  0.50528862831E+02  0.30000009061E+02 0.  0.
        -12    1    1    2    0    0 -0.11706897935E+01 -0.17847941025E+02  0.36513640217E+02  0.40659137169E+02  0.00000000000E+00 0.  1.
         11    1    3    3    0    0  0.48885110649E+01 -0.54834226367E+01 -0.17110654953E+02  0.18620955331E+02  0.51100000000E-03 0. -1.
        -11    1    3    3    0    0  0.11928683339E+01  0.10397643425E+02 -0.40002572222E+01  0.11204284081E+02  0.51100000000E-03 0.  1.
         12    1    3    3    0    0 -0.49106896053E+01  0.12933720237E+02 -0.15402728042E+02  0.20703623419E+02  0.00000000000E+00 0. -1.
</event>
<event>
 7    1  0.5525118E-011  0.5052885E+02  0.7816164E-02  0.1300439E+00
        -11   -1    0    0    0    0  0.00000000000E+00  0.00000000000E+00  0.45593999997E+02  0.45594000000E+02  0.51100000000E-03 0.  1.
         11   -1    0    0    0    0 -0.00000000000E+00 -0.00000000000E+00 -0.45593999997E+02  0.45594000000E+02  0.51100000000E-03 0. -1.
    9900012    2    1    2    0    0 -0.26081752596E+02  0.11970841298E+02 -0.28802916491E+02  0.50528845333E+02  0.29999955874E+02 0.  0.
        -12    1    1    2    0    0  0.26081752596E+02 -0.11970841298E+02  0.28802916491E+02  0.40659154667E+02  0.00000000000E+00 0.  1.
         11    1    3    3    0    0 -0.14086071144E+02  0.11670555931E+02 -0.20037230442E+02  0.27131344973E+02  0.51100000000E-03 0. -1.
        -11    1    3    3    0    0 -0.86375779375E+01 -0.83844502426E+01 -0.69846559052E+01  0.13917333684E+02  0.51100000000E-03 0.  1.
         12    1    3    3    0    0 -0.33581035145E+01  0.86847356096E+01 -0.17810301435E+01  0.94801666754E+01  0.00000000000E+00 0. -1.
</event>
<event>
 7    1  0.5525118E-011  0.5052886E+02  0.7816164E-02  0.1300439E+00
        -11   -1    0    0    0    0  0.00000000000E+00  0.00000000000E+00  0.45593999997E+02  0.45594000000E+02  0.51100000000E-03 0.  1.
         11   -1    0    0    0    0 -0.00000000000E+00 -0.00000000000E+00 -0.45593999997E+02  0.45594000000E+02  0.51100000000E-03 0. -1.
    9900012    2    1    2    0    0 -0.22971690545E+02  0.31651305930E+02  0.11120341755E+02  0.50528859154E+02  0.29999997886E+02 0.  0.
        -12    1    1    2    0    0  0.22971690545E+02 -0.31651305930E+02 -0.11120341755E+02  0.40659140846E+02  0.00000000000E+00 0.  1.
         11    1    3    3    0    0 -0.14107828114E+02  0.20093429091E+02  0.21055069413E+02  0.32343355654E+02  0.51100000000E-03 0. -1.
        -11    1    3    3    0    0 -0.49289977296E+01  0.32937351358E+01 -0.51729927261E+01  0.78678817841E+01  0.51100000000E-03 0.  1.
         12    1    3    3    0    0 -0.39348647014E+01  0.82641417030E+01 -0.47617349323E+01  0.10317621716E+02  0.00000000000E+00 0. -1.
</event>
<event>
 7    1  0.5525118E-011  0.5052886E+02  0.7816164E-02  0.1300439E+00
        -11   -1    0    0    0    0  0.00000000000E+00  0.00000000000E+00  0.45593999997E+02  0.45594000000E+02  0.51100000000E-03 0.  1.
         11   -1    0    0    0    0 -0.00000000000E+00 -0.00000000000E+00 -0.45593999997E+02  0.45594000000E+02  0.51100000000E-03 0. -1.
    9900012    2    1    2    0    0  0.10290224364E+02 -0.22283048124E+02 -0.32415159202E+02  0.50528862069E+02  0.30000006746E+02 0.  0.
        -12    1    1    2    0    0 -0.10290224364E+02  0.22283048124E+02  0.32415159202E+02  0.40659137931E+02  0.00000000000E+00 0.  1.
         11    1    3    3    0    0  0.18391704523E+02 -0.14429718922E+02 -0.10886498464E+02  0.25787350242E+02  0.51100000000E-03 0. -1.
        -11    1    3    3    0    0 -0.54087357979E+01 -0.35410954844E+01 -0.79777419051E+01  0.10268307861E+02  0.51100000000E-03 0.  1.
         12    1    3    3    0    0 -0.26927443613E+01 -0.43122337182E+01 -0.13550918833E+02  0.14473203967E+02  0.00000000000E+00 0. -1.
</event>
<event>
 7    1  0.5525118E-011  0.5052876E+02  0.7816164E-02  0.1300439E+00
        -11   -1    0    0    0    0  0.00000000000E+00  0.00000000000E+00  0.45593999997E+02  0.45594000000E+02  0.51100000000E-03 0. -1.
         11   -1    0    0    0    0 -0.00000000000E+00 -0.00000000000E+00 -0.45593999997E+02  0.45594000000E+02  0.51100000000E-03 0.  1.
    9900012    2    1    2    0    0  0.71733354028E+01 -0.24254767596E+02  0.31834311681E+02  0.50528758835E+02  0.29999692953E+02 0.  0.
        -12    1    1    2    0    0 -0.71733354028E+01  0.24254767596E+02 -0.31834311681E+02  0.40659241165E+02  0.00000000000E+00 0.  1.
         11    1    3    3    0    0  0.34492367987E+01 -0.17268663187E+02  0.36869334509E+02  0.40858925465E+02  0.51100000000E-03 0. -1.
        -11    1    3    3    0    0  0.38534699141E+01 -0.52797895477E+01 -0.38162196566E+01  0.75689458166E+01  0.51100000000E-03 0.  1.
         12    1    3    3    0    0 -0.12937130996E+00 -0.17063148615E+01 -0.12188031711E+01  0.21008875535E+01  0.00000000000E+00 0. -1.
</event>
<event>
 7    1  0.5525118E-011  0.5052885E+02  0.7816164E-02  0.1300439E+00
        -11   -1    0    0    0    0  0.00000000000E+00  0.00000000000E+00  0.45593999997E+02  0.45594000000E+02  0.51100000000E-03 0.  1.
         11   -1    0    0    0    0 -0.00000000000E+00 -0.00000000000E+00 -0.45593999997E+02  0.45594000000E+02  0.51100000000E-03 0. -1.
    9900012    2    1    2    0    0  0.73949529825E+01 -0.13433151472E+02 -0.37656756147E+02  0.50528853777E+02  0.29999981540E+02 0.  0.
        -12    1    1    2    0    0 -0.73949529825E+01  0.13433151472E+02  0.37656756147E+02  0.40659146223E+02  0.00000000000E+00 0.  1.
         11    1    3    3    0    0 -0.24600779328E+01 -0.22813329711E+01 -0.12481061980E+02  0.12924139119E+02  0.51100000000E-03 0. -1.
        -11    1    3    3    0    0  0.35793447591E+01 -0.13849133809E+02 -0.32898351502E+01  0.14677643944E+02  0.51100000000E-03 0.  1.
        -12    1    3    3    0    0  0.62756861562E+01  0.26973153082E+01 -0.21885859017E+02  0.22927070714E+02  0.00000000000E+00 0.  1.
</event>
<event>
 7    1  0.5525118E-011  0.5052887E+02  0.7816164E-02  0.1300439E+00
        -11   -1    0    0    0    0  0.00000000000E+00  0.00000000000E+00  0.45593999997E+02  0.45594000000E+02  0.51100000000E-03 0. -1.
         11   -1    0    0    0    0 -0.00000000000E+00 -0.00000000000E+00 -0.45593999997E+02  0.45594000000E+02  0.51100000000E-03 0.  1.
    9900012    2    1    2    0    0 -0.30554031721E+02 -0.22646094691E+02 -0.14379519720E+02  0.50528867612E+02  0.30000023593E+02 0.  0.
        -12    1    1    2    0    0  0.30554031721E+02  0.22646094691E+02  0.14379519720E+02  0.40659132388E+02  0.00000000000E+00 0.  1.
         11    1    3    3    0    0 -0.17651807923E+02 -0.14680798583E+02 -0.14849589087E+02  0.27342685792E+02  0.51100000000E-03 0. -1.
        -11    1    3    3    0    0 -0.49510058359E+01 -0.39510437630E+01  0.88989664279E+01  0.10923131847E+02  0.51100000000E-03 0.  1.
        -12    1    3    3    0    0 -0.79512179622E+01 -0.40142523451E+01 -0.84288970608E+01  0.12263049973E+02  0.00000000000E+00 0.  1.
</event>
<event>
 7    1  0.5525118E-011  0.5052885E+02  0.7816164E-02  0.1300439E+00
        -11   -1    0    0    0    0  0.00000000000E+00  0.00000000000E+00  0.45593999997E+02  0.45594000000E+02  0.51100000000E-03 0. -1.
         11   -1    0    0    0    0 -0.00000000000E+00 -0.00000000000E+00 -0.45593999997E+02  0.45594000000E+02  0.51100000000E-03 0.  1.
    9900012    2    1    2    0    0 -0.97517869883E+01  0.23968710854E+02  0.31361915511E+02  0.50528853502E+02  0.29999980704E+02 0.  0.
        -12    1    1    2    0    0  0.97517869883E+01 -0.23968710854E+02 -0.31361915511E+02  0.40659146498E+02  0.00000000000E+00 0.  1.
         11    1    3    3    0    0 -0.37586772311E+01  0.18696013738E+02  0.98996971763E+01  0.21486567633E+02  0.51100000000E-03 0. -1.
        -11    1    3    3    0    0 -0.12160202798E+02  0.13081547570E+01  0.13128414847E+02  0.17942605096E+02  0.51100000000E-03 0.  1.
        -12    1    3    3    0    0  0.61670930411E+01  0.39645423588E+01  0.83338034875E+01  0.11099680773E+02  0.00000000000E+00 0.  1.
</event>
<event>
 7    1  0.5525118E-011  0.5052887E+02  0.7816164E-02  0.1300439E+00
        -11   -1    0    0    0    0  0.00000000000E+00  0.00000000000E+00  0.45593999997E+02  0.45594000000E+02  0.51100000000E-03 0. -1.
         11   -1    0    0    0    0 -0.00000000000E+00 -0.00000000000E+00 -0.45593999997E+02  0.45594000000E+02  0.51100000000E-03 0.  1.
    9900012    2    1    2    0    0 -0.15684150483E+02 -0.35601464357E+02  0.11819818164E+02  0.50528868896E+02  0.30000027496E+02 0.  0.
        -12    1    1    2    0    0  0.15684150483E+02  0.35601464357E+02 -0.11819818164E+02  0.40659131104E+02  0.00000000000E+00 0.  1.
         11    1    3    3    0    0 -0.96231456624E+01  0.50535918736E+00 -0.31658599390E+01  0.10143125246E+02  0.51100000000E-03 0. -1.
        -11    1    3    3    0    0 -0.80532248223E+01 -0.30101418135E+02  0.12883182301E+02  0.33718336113E+02  0.51100000000E-03 0.  1.
        -12    1    3    3    0    0  0.19922200013E+01 -0.60054054091E+01  0.21024958020E+01  0.66674075366E+01  0.00000000000E+00 0.  1.
</event>
<event>
 7    1  0.5525118E-011  0.5052888E+02  0.7816164E-02  0.1300439E+00
        -11   -1    0    0    0    0  0.00000000000E+00  0.00000000000E+00  0.45593999997E+02  0.45594000000E+02  0.51100000000E-03 0.  1.
         11   -1    0    0    0    0 -0.00000000000E+00 -0.00000000000E+00 -0.45593999997E+02  0.45594000000E+02  0.51100000000E-03 0. -1.
    9900012    2    1    2    0    0 -0.31826839176E+02  0.21471453675E+02 -0.13386297219E+02  0.50528880874E+02  0.30000063905E+02 0.  0.
        -12    1    1    2    0    0  0.31826839176E+02 -0.21471453675E+02  0.13386297219E+02  0.40659119126E+02  0.00000000000E+00 0.  1.
         11    1    3    3    0    0 -0.25268512800E+02  0.19558490479E+02 -0.73980590352E+00  0.31962158907E+02  0.51100000000E-03 0. -1.
        -11    1    3    3    0    0 -0.32393723664E+01  0.49902454967E+01 -0.94969092540E+00  0.60247818683E+01  0.51100000000E-03 0.  1.
         12    1    3    3    0    0 -0.33189540090E+01 -0.30772823005E+01 -0.11696800390E+02  0.12541940099E+02  0.00000000000E+00 0. -1.
</event>
<event>
 7    1  0.5525118E-011  0.5052885E+02  0.7816164E-02  0.1300439E+00
        -11   -1    0    0    0    0  0.00000000000E+00  0.00000000000E+00  0.45593999997E+02  0.45594000000E+02  0.51100000000E-03 0. -1.
         11   -1    0    0    0    0 -0.00000000000E+00 -0.00000000000E+00 -0.45593999997E+02  0.45594000000E+02  0.51100000000E-03 0.  1.
    9900012    2    1    2    0    0  0.36257557995E+02 -0.17399991555E+02  0.59830020121E+01  0.50528849358E+02  0.29999968108E+02 0.  0.
        -12    1    1    2    0    0 -0.36257557995E+02  0.17399991555E+02 -0.59830020121E+01  0.40659150642E+02  0.00000000000E+00 0.  1.
         11    1    3    3    0    0  0.81192246377E+00 -0.91142906011E+01  0.68706438632E+01  0.11442694552E+02  0.51100000000E-03 0. -1.
        -11    1    3    3    0    0  0.34688666896E+02 -0.10891346863E+02 -0.67651614347E+00  0.36364580596E+02  0.51100000000E-03 0.  1.
        -12    1    3    3    0    0  0.75696863485E+00  0.26056459093E+01 -0.21112570766E+00  0.27215742105E+01  0.00000000000E+00 0.  1.
</event>
<event>
 7    1  0.5525118E-011  0.5052886E+02  0.7816164E-02  0.1300439E+00
        -11   -1    0    0    0    0  0.00000000000E+00  0.00000000000E+00  0.45593999997E+02  0.45594000000E+02  0.51100000000E-03 0. -1.
         11   -1    0    0    0    0 -0.00000000000E+00 -0.00000000000E+00 -0.45593999997E+02  0.45594000000E+02  0.51100000000E-03 0.  1.
    9900012    2    1    2    0    0 -0.38978645590E+02 -0.71343443455E+01  0.91066849387E+01  0.50528863365E+02  0.30000010686E+02 0.  0.
        -12    1    1    2    0    0  0.38978645590E+02  0.71343443455E+01 -0.91066849387E+01  0.40659136635E+02  0.00000000000E+00 0.  1.
         11    1    3    3    0    0 -0.14883029351E+02  0.12708349831E+01  0.31755540286E+01  0.15271009393E+02  0.51100000000E-03 0. -1.
        -11    1    3    3    0    0 -0.32006566572E+01 -0.11239518543E+01 -0.82882861035E+01  0.89556215643E+01  0.51100000000E-03 0.  1.
        -12    1    3    3    0    0 -0.20894959582E+02 -0.72812274743E+01  0.14219417014E+02  0.26302232408E+02  0.00000000000E+00 0.  1.
</event>
<event>
 7    1  0.5525118E-011  0.5052886E+02  0.7816164E-02  0.1300439E+00
        -11   -1    0    0    0    0  0.00000000000E+00  0.00000000000E+00  0.45593999997E+02  0.45594000000E+02  0.51100000000E-03 0. -1.
         11   -1    0    0    0    0 -0.00000000000E+00 -0.00000000000E+00 -0.45593999997E+02  0.45594000000E+02  0.51100000000E-03 0.  1.
    9900012    2    1    2    0    0  0.15899683865E+02  0.13719632569E+01  0.37396307139E+02  0.50528855668E+02  0.29999987288E+02 0.  0.
        -12    1    1    2    0    0 -0.15899683865E+02 -0.13719632569E+01 -0.37396307139E+02  0.40659144332E+02  0.00000000000E+00 0.  1.
         11    1    3    3    0    0  0.98279561762E+01  0.49176838490E+01  0.31993434817E+02  0.33828275284E+02  0.51100000000E-03 0. -1.
        -11    1    3    3    0    0 -0.35269953077E+01 -0.21155459187E+01 -0.19240518342E+01  0.45406173761E+01  0.51100000000E-03 0.  1.
        -12    1    3    3    0    0  0.95987229961E+01 -0.14301746734E+01  0.73269241560E+01  0.12159963007E+02  0.00000000000E+00 0.  1.
</event>
<event>
 7    1  0.5525118E-011  0.5052886E+02  0.7816164E-02  0.1300439E+00
        -11   -1    0    0    0    0  0.00000000000E+00  0.00000000000E+00  0.45593999997E+02  0.45594000000E+02  0.51100000000E-03 0.  1.
         11   -1    0    0    0    0 -0.00000000000E+00 -0.00000000000E+00 -0.45593999997E+02  0.45594000000E+02  0.51100000000E-03 0. -1.
    9900012    2    1    2    0    0  0.24343881726E+02  0.32392347914E+02 -0.33580832108E+01  0.50528861990E+02  0.30000006504E+02 0.  0.
        -12    1    1    2    0    0 -0.24343881726E+02 -0.32392347914E+02  0.33580832108E+01  0.40659138010E+02  0.00000000000E+00 0.  1.
         11    1    3    3    0    0  0.11377225280E+02  0.12435331489E+02 -0.15912981665E+02  0.23179769413E+02  0.51100000000E-03 0. -1.
        -11    1    3    3    0    0  0.78681652490E+01  0.11625894016E+02  0.10052529992E+02  0.17266232814E+02  0.51100000000E-03 0.  1.
         12    1    3    3    0    0  0.50984911974E+01  0.83311224085E+01  0.25023684620E+01  0.10082859763E+02  0.00000000000E+00 0. -1.
</event>
<event>
 7    1  0.5525118E-011  0.5052886E+02  0.7816164E-02  0.1300439E+00
        -11   -1    0    0    0    0  0.00000000000E+00  0.00000000000E+00  0.45593999997E+02  0.45594000000E+02  0.51100000000E-03 0.  1.
         11   -1    0    0    0    0 -0.00000000000E+00 -0.00000000000E+00 -0.45593999997E+02  0.45594000000E+02  0.51100000000E-03 0. -1.
    9900012    2    1    2    0    0  0.14573691095E+02 -0.23016960497E+02 -0.30182654447E+02  0.50528861149E+02  0.30000003948E+02 0.  0.
        -12    1    1    2    0    0 -0.14573691095E+02  0.23016960497E+02  0.30182654447E+02  0.40659138851E+02  0.00000000000E+00 0.  1.
         11    1    3    3    0    0  0.10473622585E+02 -0.11318897183E+02 -0.12076631028E+02  0.19587220853E+02  0.51100000000E-03 0. -1.
        -11    1    3    3    0    0 -0.20862062745E+01 -0.52470456317E+01  0.41173311866E+01  0.69882874041E+01  0.51100000000E-03 0.  1.
        -12    1    3    3    0    0  0.61862747842E+01 -0.64510176826E+01 -0.22223354605E+02  0.23953352892E+02  0.00000000000E+00 0.  1.
</event>
<event>
 7    1  0.5525118E-011  0.5052894E+02  0.7816164E-02  0.1300438E+00
        -11   -1    0    0    0    0  0.00000000000E+00  0.00000000000E+00  0.45593999997E+02  0.45594000000E+02  0.51100000000E-03 0. -1.
         11   -1    0    0    0    0 -0.00000000000E+00 -0.00000000000E+00 -0.45593999997E+02  0.45594000000E+02  0.51100000000E-03 0.  1.
    9900012    2    1    2    0    0 -0.60183333778E+01 -0.39911864356E+02  0.48970946459E+01  0.50528944563E+02  0.30000257494E+02 0.  0.
        -12    1    1    2    0    0  0.60183333778E+01  0.39911864356E+02 -0.48970946459E+01  0.40659055437E+02  0.00000000000E+00 0.  1.
         11    1    3    3    0    0  0.72907490421E+01 -0.16652865359E+02  0.11644021171E+02  0.21588334247E+02  0.51100000000E-03 0. -1.
        -11    1    3    3    0    0 -0.12187191835E+02 -0.14864206531E+02 -0.70288716071E+01  0.20466492541E+02  0.51100000000E-03 0.  1.
         12    1    3    3    0    0 -0.11218905849E+01 -0.83947924666E+01  0.28194508176E+00  0.84741177753E+01  0.00000000000E+00 0. -1.
</event>
<event>
 7    1  0.5525118E-011  0.5052886E+02  0.7816164E-02  0.1300439E+00
        -11   -1    0    0    0    0  0.00000000000E+00  0.00000000000E+00  0.45593999997E+02  0.45594000000E+02  0.51100000000E-03 0.  1.
         11   -1    0    0    0    0 -0.00000000000E+00 -0.00000000000E+00 -0.45593999997E+02  0.45594000000E+02  0.51100000000E-03 0. -1.
    9900012    2    1    2    0    0 -0.15078901229E+02 -0.29126299459E+02 -0.24030216217E+02  0.50528857438E+02  0.29999992669E+02 0.  0.
        -12    1    1    2    0    0  0.15078901229E+02  0.29126299459E+02  0.24030216217E+02  0.40659142562E+02  0.00000000000E+00 0.  1.
         11    1    3    3    0    0 -0.78091516216E+01 -0.21051788468E+02 -0.95426163133E+01  0.24397175515E+02  0.51100000000E-03 0. -1.
        -11    1    3    3    0    0  0.29778447458E+01 -0.22276428313E+01 -0.13823220161E+02  0.14314725557E+02  0.51100000000E-03 0.  1.
         12    1    3    3    0    0 -0.10247594354E+02 -0.58468681595E+01 -0.66437974313E+00  0.11816956366E+02  0.00000000000E+00 0. -1.
</event>
<event>
 7    1  0.5525118E-011  0.5052874E+02  0.7816164E-02  0.1300439E+00
        -11   -1    0    0    0    0  0.00000000000E+00  0.00000000000E+00  0.45593999997E+02  0.45594000000E+02  0.51100000000E-03 0. -1.
         11   -1    0    0    0    0 -0.00000000000E+00 -0.00000000000E+00 -0.45593999997E+02  0.45594000000E+02  0.51100000000E-03 0.  1.
    9900012    2    1    2    0    0 -0.35043799740E+02 -0.38899315902E+01 -0.20247870656E+02  0.50528736183E+02  0.29999624101E+02 0.  0.
        -12    1    1    2    0    0  0.35043799740E+02  0.38899315902E+01  0.20247870656E+02  0.40659263817E+02  0.00000000000E+00 0.  1.
         11    1    3    3    0    0 -0.25350437213E+02  0.40173993606E+01 -0.10716632697E+02  0.27814211856E+02  0.51100000000E-03 0. -1.
        -11    1    3    3    0    0  0.17558433406E+01 -0.85319846196E+01 -0.64579636068E+01  0.10843571441E+02  0.51100000000E-03 0.  1.
        -12    1    3    3    0    0 -0.11449205867E+02  0.62465366887E+00 -0.30732743519E+01  0.11870952887E+02  0.00000000000E+00 0.  1.
</event>
<event>
 7    1  0.5525118E-011  0.5052885E+02  0.7816164E-02  0.1300439E+00
        -11   -1    0    0    0    0  0.00000000000E+00  0.00000000000E+00  0.45593999997E+02  0.45594000000E+02  0.51100000000E-03 0.  1.
         11   -1    0    0    0    0 -0.00000000000E+00 -0.00000000000E+00 -0.45593999997E+02  0.45594000000E+02  0.51100000000E-03 0. -1.
    9900012    2    1    2    0    0 -0.30321543181E+01  0.91719439126E+01 -0.39494909559E+02  0.50528851017E+02  0.29999973151E+02 0.  0.
        -12    1    1    2    0    0  0.30321543181E+01 -0.91719439126E+01  0.39494909559E+02  0.40659148983E+02  0.00000000000E+00 0.  1.
         11    1    3    3    0    0 -0.44742235843E+01  0.73677404641E+01 -0.32208119540E+02  0.33341644243E+02  0.51100000000E-03 0. -1.
        -11    1    3    3    0    0  0.73445662932E+01 -0.30102471847E+01 -0.33870917988E+01  0.86299845460E+01  0.51100000000E-03 0.  1.
        -12    1    3    3    0    0 -0.59024970271E+01  0.48144506332E+01 -0.38996982205E+01  0.85572222283E+01  0.00000000000E+00 0.  1.
</event>
<event>
 7    1  0.5525118E-011  0.5052886E+02  0.7816164E-02  0.1300439E+00
        -11   -1    0    0    0    0  0.00000000000E+00  0.00000000000E+00  0.45593999997E+02  0.45594000000E+02  0.51100000000E-03 0.  1.
         11   -1    0    0    0    0 -0.00000000000E+00 -0.00000000000E+00 -0.45593999997E+02  0.45594000000E+02  0.51100000000E-03 0. -1.
    9900012    2    1    2    0    0  0.24473202165E+02 -0.21620316483E+02 -0.24223749657E+02  0.50528858881E+02  0.29999997056E+02 0.  0.
        -12    1    1    2    0    0 -0.24473202165E+02  0.21620316483E+02  0.24223749657E+02  0.40659141119E+02  0.00000000000E+00 0.  1.
         11    1    3    3    0    0  0.81698049144E+01 -0.11176145807E+02 -0.42707201535E+01  0.14487615343E+02  0.51100000000E-03 0. -1.
        -11    1    3    3    0    0 -0.28357710495E+01  0.11219668235E+01  0.27988659738E+01  0.41393306220E+01  0.51100000000E-03 0.  1.
        -12    1    3    3    0    0  0.19139168300E+02 -0.11566137499E+02 -0.22751895477E+02  0.31901912916E+02  0.00000000000E+00 0.  1.
</event>
<event>
 7    1  0.5525118E-011  0.5052885E+02  0.7816164E-02  0.1300439E+00
        -11   -1    0    0    0    0  0.00000000000E+00  0.00000000000E+00  0.45593999997E+02  0.45594000000E+02  0.51100000000E-03 0.  1.
         11   -1    0    0    0    0 -0.00000000000E+00 -0.00000000000E+00 -0.45593999997E+02  0.45594000000E+02  0.51100000000E-03 0. -1.
    9900012    2    1    2    0    0 -0.44296976445E+01 -0.24353322786E+02 -0.32256164712E+02  0.50528847109E+02  0.29999961271E+02 0.  0.
        -12    1    1    2    0    0  0.44296976445E+01  0.24353322786E+02  0.32256164712E+02  0.40659152891E+02  0.00000000000E+00 0.  1.
         11    1    3    3    0    0 -0.23229365438E+01 -0.11959119226E+01 -0.67101171570E+01  0.72008271771E+01  0.51100000000E-03 0. -1.
        -11    1    3    3    0    0  0.39048355669E+01 -0.27109551112E+02 -0.22764852876E+02  0.35614800702E+02  0.51100000000E-03 0.  1.
        -12    1    3    3    0    0 -0.60115966676E+01  0.39521402489E+01 -0.27811946788E+01  0.77132192295E+01  0.00000000000E+00 0.  1.
</event>
<event>
 7    1  0.5525118E-011  0.5052886E+02  0.7816164E-02  0.1300439E+00
        -11   -1    0    0    0    0  0.00000000000E+00  0.00000000000E+00  0.45593999997E+02  0.45594000000E+02  0.51100000000E-03 0.  1.
         11   -1    0    0    0    0 -0.00000000000E+00 -0.00000000000E+00 -0.45593999997E+02  0.45594000000E+02  0.51100000000E-03 0. -1.
    9900012    2    1    2    0    0  0.36107583585E+02 -0.95623856268E+01 -0.16061407715E+02  0.50528860449E+02  0.30000001822E+02 0.  0.
        -12    1    1    2    0    0 -0.36107583585E+02  0.95623856268E+01  0.16061407715E+02  0.40659139551E+02  0.00000000000E+00 0.  1.
         11    1    3    3    0    0  0.28293618048E+02 -0.38066926609E+01 -0.11334176590E+02  0.30716173109E+02  0.51100000000E-03 0. -1.
        -11    1    3    3    0    0  0.31298384090E+01 -0.10956601908E+01  0.62069291297E+01  0.70372103281E+01  0.51100000000E-03 0.  1.
         12    1    3    3    0    0  0.46841271280E+01 -0.46600327751E+01 -0.10934160254E+02  0.12775477012E+02  0.00000000000E+00 0. -1.
</event>
<event>
 7    1  0.5525118E-011  0.5052886E+02  0.7816164E-02  0.1300439E+00
        -11   -1    0    0    0    0  0.00000000000E+00  0.00000000000E+00  0.45593999997E+02  0.45594000000E+02  0.51100000000E-03 0.  1.
         11   -1    0    0    0    0 -0.00000000000E+00 -0.00000000000E+00 -0.45593999997E+02  0.45594000000E+02  0.51100000000E-03 0. -1.
    9900012    2    1    2    0    0  0.33879318611E+02 -0.30274776091E+01 -0.22275359499E+02  0.50528862146E+02  0.30000006980E+02 0.  0.
        -12    1    1    2    0    0 -0.33879318611E+02  0.30274776091E+01  0.22275359499E+02  0.40659137854E+02  0.00000000000E+00 0.  1.
         11    1    3    3    0    0  0.22506354693E+02 -0.58628881804E+01 -0.25534088153E+02  0.34538371668E+02  0.51100000000E-03 0. -1.
        -11    1    3    3    0    0  0.40360848296E+01  0.63462656884E+01  0.16163287779E+01  0.76926970511E+01  0.51100000000E-03 0.  1.
         12    1    3    3    0    0  0.73368790878E+01 -0.35108551172E+01  0.16423998769E+01  0.82977934271E+01  0.00000000000E+00 0. -1.
</event>
<event>
 7    1  0.5981525E-011  0.5052887E+02  0.7816164E-02  0.1300439E+00
        -11   -1    0    0    0    0  0.00000000000E+00  0.00000000000E+00  0.45593999997E+02  0.45594000000E+02  0.51100000000E-03 0. -1.
         11   -1    0    0    0    0 -0.00000000000E+00 -0.00000000000E+00 -0.45593999997E+02  0.45594000000E+02  0.51100000000E-03 0.  1.
    9900012    2    1    2    0    0 -0.20648339338E+01 -0.15004978753E+02  0.37732635245E+02  0.50528872008E+02  0.30000036956E+02 0.  0.
        -12    1    1    2    0    0  0.20648339338E+01  0.15004978753E+02 -0.37732635245E+02  0.40659127992E+02  0.00000000000E+00 0.  1.
         11    1    3    3    0    0 -0.10159899530E+01 -0.97354853001E+01  0.36135343958E+02  0.37437614679E+02  0.51100000000E-03 0. -1.
        -11    1    3    3    0    0 -0.14853204165E+01  0.36825392097E+01  0.10732265723E+01  0.41132818172E+01  0.51100000000E-03 0.  1.
         12    1    3    3    0    0  0.43647643567E+00 -0.89520326627E+01  0.52406471433E+00  0.89779755122E+01  0.00000000000E+00 0. -1.
</event>
<event>
 7    1  0.5525118E-011  0.5052886E+02  0.7816164E-02  0.1300439E+00
        -11   -1    0    0    0    0  0.00000000000E+00  0.00000000000E+00  0.45593999997E+02  0.45594000000E+02  0.51100000000E-03 0.  1.
         11   -1    0    0    0    0 -0.00000000000E+00 -0.00000000000E+00 -0.45593999997E+02  0.45594000000E+02  0.51100000000E-03 0. -1.
    9900012    2    1    2    0    0  0.65556809487E+01 -0.50402740166E+01 -0.39809349638E+02  0.50528860395E+02  0.30000001656E+02 0.  0.
        -12    1    1    2    0    0 -0.65556809487E+01  0.50402740166E+01  0.39809349638E+02  0.40659139605E+02  0.00000000000E+00 0.  1.
         11    1    3    3    0    0  0.46727600932E+01  0.11085500461E+02 -0.10400721903E+02  0.15902767801E+02  0.51100000000E-03 0. -1.
        -11    1    3    3    0    0  0.11613660660E+01 -0.14249072803E+02 -0.17730798113E+02  0.22776436263E+02  0.51100000000E-03 0.  1.
        -12    1    3    3    0    0  0.72155478948E+00 -0.18767016740E+01 -0.11677829622E+02  0.11849656331E+02  0.00000000000E+00 0.  1.
</event>
<event>
 7    1  0.5525118E-011  0.5052886E+02  0.7816164E-02  0.1300439E+00
        -11   -1    0    0    0    0  0.00000000000E+00  0.00000000000E+00  0.45593999997E+02  0.45594000000E+02  0.51100000000E-03 0.  1.
         11   -1    0    0    0    0 -0.00000000000E+00 -0.00000000000E+00 -0.45593999997E+02  0.45594000000E+02  0.51100000000E-03 0. -1.
    9900012    2    1    2    0    0 -0.10724234961E+02  0.34385265189E+02  0.18862919225E+02  0.50528863274E+02  0.30000010407E+02 0.  0.
        -12    1    1    2    0    0  0.10724234961E+02 -0.34385265189E+02 -0.18862919225E+02  0.40659136726E+02  0.00000000000E+00 0.  1.
         11    1    3    3    0    0 -0.40685806792E+01  0.15201481786E+02  0.55181153277E+01  0.16675970565E+02  0.51100000000E-03 0. -1.
        -11    1    3    3    0    0 -0.23239356648E+01 -0.41612341673E+01  0.83124949397E+01  0.95819684383E+01  0.51100000000E-03 0.  1.
        -12    1    3    3    0    0 -0.43317186169E+01  0.23345017570E+02  0.50323089577E+01  0.24270924271E+02  0.00000000000E+00 0.  1.
</event>
<event>
 7    1  0.5525118E-011  0.5052884E+02  0.7816164E-02  0.1300439E+00
        -11   -1    0    0    0    0  0.00000000000E+00  0.00000000000E+00  0.45593999997E+02  0.45594000000E+02  0.51100000000E-03 0.  1.
         11   -1    0    0    0    0 -0.00000000000E+00 -0.00000000000E+00 -0.45593999997E+02  0.45594000000E+02  0.51100000000E-03 0. -1.
    9900012    2    1    2    0    0  0.11870262119E+02  0.25513058047E+02 -0.29348727091E+02  0.50528843153E+02  0.29999949247E+02 0.  0.
        -12    1    1    2    0    0 -0.11870262119E+02 -0.25513058047E+02  0.29348727091E+02  0.40659156847E+02  0.00000000000E+00 0.  1.
         11    1    3    3    0    0 -0.66333514244E+01  0.13534548373E+02 -0.55709079549E+01  0.16069236649E+02  0.51100000000E-03 0. -1.
        -11    1    3    3    0    0  0.13734463183E+02  0.51030083196E+01 -0.82349264209E+01  0.16807444370E+02  0.51100000000E-03 0.  1.
         12    1    3    3    0    0  0.47691503601E+01  0.68755013548E+01 -0.15542892715E+02  0.17652162133E+02  0.00000000000E+00 0. -1.
</event>
<event>
 7    1  0.5525118E-011  0.5052885E+02  0.7816164E-02  0.1300439E+00
        -11   -1    0    0    0    0  0.00000000000E+00  0.00000000000E+00  0.45593999997E+02  0.45594000000E+02  0.51100000000E-03 0. -1.
         11   -1    0    0    0    0 -0.00000000000E+00 -0.00000000000E+00 -0.45593999997E+02  0.45594000000E+02  0.51100000000E-03 0.  1.
    9900012    2    1    2    0    0  0.37977133037E+02 -0.95708095655E+01  0.10922617322E+02  0.50528848525E+02  0.29999965577E+02 0.  0.
        -12    1    1    2    0    0 -0.37977133037E+02  0.95708095655E+01 -0.10922617322E+02  0.40659151475E+02  0.00000000000E+00 0.  1.
         11    1    3    3    0    0  0.14125853801E+02 -0.40573276148E+00 -0.56939028988E+01  0.15235645545E+02  0.51100000000E-03 0.  1.
        -11    1    3    3    0    0  0.60074925003E+01  0.14094704200E+01  0.12790938427E+02  0.14201573121E+02  0.51100000000E-03 0. -1.
        -12    1    3    3    0    0  0.17843786736E+02 -0.10574547224E+02  0.38255817943E+01  0.21091629860E+02  0.00000000000E+00 0.  1.
</event>
<event>
 7    1  0.5525118E-011  0.5052886E+02  0.7816164E-02  0.1300439E+00
        -11   -1    0    0    0    0  0.00000000000E+00  0.00000000000E+00  0.45593999997E+02  0.45594000000E+02  0.51100000000E-03 0.  1.
         11   -1    0    0    0    0 -0.00000000000E+00 -0.00000000000E+00 -0.45593999997E+02  0.45594000000E+02  0.51100000000E-03 0. -1.
    9900012    2    1    2    0    0  0.39827362722E+02  0.43863810151E+00  0.81703276577E+01  0.50528862296E+02  0.30000007434E+02 0.  0.
        -12    1    1    2    0    0 -0.39827362722E+02 -0.43863810151E+00 -0.81703276577E+01  0.40659137704E+02  0.00000000000E+00 0.  1.
         11    1    3    3    0    0  0.23825116555E+02  0.31739977092E+01  0.11027387060E+01  0.24060890949E+02  0.51100000000E-03 0. -1.
        -11    1    3    3    0    0 -0.37772202555E+01  0.27565833793E+01  0.29572012009E+01  0.55327374769E+01  0.51100000000E-03 0.  1.
        -12    1    3    3    0    0  0.19779466422E+02 -0.54919429869E+01  0.41103877509E+01  0.20935233870E+02  0.00000000000E+00 0.  1.
</event>
<event>
 7    1  0.6157180E-011  0.5052886E+02  0.7816164E-02  0.1300439E+00
        -11   -1    0    0    0    0  0.00000000000E+00  0.00000000000E+00  0.45593999997E+02  0.45594000000E+02  0.51100000000E-03 0.  1.
         11   -1    0    0    0    0 -0.00000000000E+00 -0.00000000000E+00 -0.45593999997E+02  0.45594000000E+02  0.51100000000E-03 0. -1.
    9900012    2    1    2    0    0 -0.32015630055E+01  0.39839064392E+02 -0.74675592929E+01  0.50528862046E+02  0.30000006676E+02 0.  0.
        -12    1    1    2    0    0  0.32015630055E+01 -0.39839064392E+02  0.74675592929E+01  0.40659137954E+02  0.00000000000E+00 0.  1.
         11    1    3    3    0    0  0.30559661300E+01  0.23128956608E+02 -0.63847992795E+01  0.24187873509E+02  0.51100000000E-03 0. -1.
        -11    1    3    3    0    0 -0.98302138606E+01  0.62385214614E+01 -0.72090283056E+01  0.13693879799E+02  0.51100000000E-03 0.  1.
        -12    1    3    3    0    0  0.35726847251E+01  0.10471586323E+02  0.61262682923E+01  0.12647108739E+02  0.00000000000E+00 0.  1.
</event>
<event>
 7    1  0.5525118E-011  0.5052886E+02  0.7816164E-02  0.1300439E+00
        -11   -1    0    0    0    0  0.00000000000E+00  0.00000000000E+00  0.45593999997E+02  0.45594000000E+02  0.51100000000E-03 0.  1.
         11   -1    0    0    0    0 -0.00000000000E+00 -0.00000000000E+00 -0.45593999997E+02  0.45594000000E+02  0.51100000000E-03 0. -1.
    9900012    2    1    2    0    0  0.11193868700E+02 -0.23095708835E+02 -0.31534923464E+02  0.50528857597E+02  0.29999993152E+02 0.  0.
        -12    1    1    2    0    0 -0.11193868700E+02  0.23095708835E+02  0.31534923464E+02  0.40659142403E+02  0.00000000000E+00 0.  1.
         11    1    3    3    0    0  0.91095337254E+01 -0.13230945140E+02 -0.29087063086E+02  0.33227981479E+02  0.51100000000E-03 0. -1.
        -11    1    3    3    0    0 -0.10781691277E+01 -0.12693075723E+02 -0.28022796202E+01  0.13043365797E+02  0.51100000000E-03 0.  1.
        -12    1    3    3    0    0  0.31625041024E+01  0.28283120289E+01  0.35441924165E+00  0.42575103205E+01  0.00000000000E+00 0.  1.
</event>
<event>
 7    1  0.5525118E-011  0.5052885E+02  0.7816164E-02  0.1300439E+00
        -11   -1    0    0    0    0  0.00000000000E+00  0.00000000000E+00  0.45593999997E+02  0.45594000000E+02  0.51100000000E-03 0.  1.
         11   -1    0    0    0    0 -0.00000000000E+00 -0.00000000000E+00 -0.45593999997E+02  0.45594000000E+02  0.51100000000E-03 0. -1.
    9900012    2    1    2    0    0 -0.20332003359E+02  0.31634664906E+01 -0.35068053861E+02  0.50528852414E+02  0.29999977398E+02 0.  0.
        -12    1    1    2    0    0  0.20332003359E+02 -0.31634664906E+01  0.35068053861E+02  0.40659147586E+02  0.00000000000E+00 0.  1.
         11    1    3    3    0    0 -0.98412212541E+01 -0.57346362710E+01 -0.25641751384E+02  0.28057710228E+02  0.51100000000E-03 0. -1.
        -11    1    3    3    0    0 -0.64369834852E+01  0.12825647909E+02 -0.86965146569E+01  0.16779790467E+02  0.51100000000E-03 0.  1.
        -12    1    3    3    0    0 -0.40537986198E+01 -0.39275451473E+01 -0.72978782010E+00  0.56913517196E+01  0.00000000000E+00 0.  1.
</event>
<event>
 7    1  0.5525118E-011  0.5052886E+02  0.7816164E-02  0.1300439E+00
        -11   -1    0    0    0    0  0.00000000000E+00  0.00000000000E+00  0.45593999997E+02  0.45594000000E+02  0.51100000000E-03 0.  1.
         11   -1    0    0    0    0 -0.00000000000E+00 -0.00000000000E+00 -0.45593999997E+02  0.45594000000E+02  0.51100000000E-03 0. -1.
    9900012    2    1    2    0    0  0.38726468184E+02  0.96050847226E+01 -0.78210232850E+01  0.50528863318E+02  0.30000010540E+02 0.  0.
        -12    1    1    2    0    0 -0.38726468184E+02 -0.96050847226E+01  0.78210232850E+01  0.40659136682E+02  0.00000000000E+00 0.  1.
         11    1    3    3    0    0  0.25990325157E+02 -0.19652538334E+01  0.27688928553E+01  0.26211180673E+02  0.51100000000E-03 0. -1.
        -11    1    3    3    0    0  0.64706325897E+01  0.13306825371E+02 -0.46471362430E+01  0.15509241215E+02  0.51100000000E-03 0.  1.
        -12    1    3    3    0    0  0.62655104373E+01 -0.17364868146E+01 -0.59427798974E+01  0.88084414288E+01  0.00000000000E+00 0.  1.
</event>
<event>
 7    1  0.5525118E-011  0.5052886E+02  0.7816164E-02  0.1300439E+00
        -11   -1    0    0    0    0  0.00000000000E+00  0.00000000000E+00  0.45593999997E+02  0.45594000000E+02  0.51100000000E-03 0. -1.
         11   -1    0    0    0    0 -0.00000000000E+00 -0.00000000000E+00 -0.45593999997E+02  0.45594000000E+02  0.51100000000E-03 0.  1.
    9900012    2    1    2    0    0 -0.31633912466E+01 -0.13882989288E+02  0.38084394300E+02  0.50528861729E+02  0.30000005712E+02 0.  0.
        -12    1    1    2    0    0  0.31633912466E+01  0.13882989288E+02 -0.38084394300E+02  0.40659138271E+02  0.00000000000E+00 0.  1.
         11    1    3    3    0    0 -0.32933593046E+00  0.31831415651E+01  0.82167541502E+01  0.88179306759E+01  0.51100000000E-03 0. -1.
        -11    1    3    3    0    0 -0.73708164088E+01 -0.18260283817E+02  0.11608562752E+02  0.22858819503E+02  0.51100000000E-03 0.  1.
        -12    1    3    3    0    0  0.45367610927E+01  0.11941529646E+01  0.18259077397E+02  0.18852111550E+02  0.00000000000E+00 0.  1.
</event>
<event>
 7    1  0.5525118E-011  0.5052876E+02  0.7816164E-02  0.1300439E+00
        -11   -1    0    0    0    0  0.00000000000E+00  0.00000000000E+00  0.45593999997E+02  0.45594000000E+02  0.51100000000E-03 0.  1.
         11   -1    0    0    0    0 -0.00000000000E+00 -0.00000000000E+00 -0.45593999997E+02  0.45594000000E+02  0.51100000000E-03 0. -1.
    9900012    2    1    2    0    0 -0.20413911396E+02  0.12398009481E+02 -0.32904942569E+02  0.50528761652E+02  0.29999701515E+02 0.  0.
        -12    1    1    2    0    0  0.20413911396E+02 -0.12398009481E+02  0.32904942569E+02  0.40659238348E+02  0.00000000000E+00 0.  1.
         11    1    3    3    0    0 -0.16148859670E+02  0.25957196580E+01 -0.25351911638E+02  0.30170231241E+02  0.51100000000E-03 0. -1.
        -11    1    3    3    0    0  0.61729658860E+00  0.13029197371E+02 -0.55093206289E+01  0.14159578145E+02  0.51100000000E-03 0.  1.
        -12    1    3    3    0    0 -0.48823483147E+01 -0.32269075478E+01 -0.20437103020E+01  0.61989522652E+01  0.00000000000E+00 0.  1.
</event>
<event>
 7    1  0.5525118E-011  0.5052888E+02  0.7816164E-02  0.1300439E+00
        -11   -1    0    0    0    0  0.00000000000E+00  0.00000000000E+00  0.45593999997E+02  0.45594000000E+02  0.51100000000E-03 0. -1.
         11   -1    0    0    0    0 -0.00000000000E+00 -0.00000000000E+00 -0.45593999997E+02  0.45594000000E+02  0.51100000000E-03 0.  1.
    9900012    2    1    2    0    0 -0.23006256969E+02 -0.26844537698E+02  0.20081019049E+02  0.50528875686E+02  0.30000048136E+02 0.  0.
        -12    1    1    2    0    0  0.23006256969E+02  0.26844537698E+02 -0.20081019049E+02  0.40659124314E+02  0.00000000000E+00 0.  1.
         11    1    3    3    0    0 -0.16042414340E+02 -0.73510317960E+00  0.10194593261E+02  0.19021807657E+02  0.51100000000E-03 0. -1.
        -11    1    3    3    0    0 -0.10260969667E+02 -0.21041417266E+02  0.55282281784E+01  0.24053898772E+02  0.51100000000E-03 0.  1.
         12    1    3    3    0    0  0.32971270380E+01 -0.50680172518E+01  0.43581976097E+01  0.74531692571E+01  0.00000000000E+00 0. -1.
</event>
<event>
 7    1  0.5525118E-011  0.5052886E+02  0.7816164E-02  0.1300439E+00
        -11   -1    0    0    0    0  0.00000000000E+00  0.00000000000E+00  0.45593999997E+02  0.45594000000E+02  0.51100000000E-03 0.  1.
         11   -1    0    0    0    0 -0.00000000000E+00 -0.00000000000E+00 -0.45593999997E+02  0.45594000000E+02  0.51100000000E-03 0. -1.
    9900012    2    1    2    0    0  0.15820766630E+02  0.31362209333E+02 -0.20476354899E+02  0.50528856613E+02  0.29999990160E+02 0.  0.
        -12    1    1    2    0    0 -0.15820766630E+02 -0.31362209333E+02  0.20476354899E+02  0.40659143387E+02  0.00000000000E+00 0.  1.
         11    1    3    3    0    0  0.29753967671E+01  0.30729425103E+01 -0.15688810936E+02  0.16261449826E+02  0.51100000000E-03 0. -1.
        -11    1    3    3    0    0  0.14339452351E+02  0.15862907012E+02 -0.23004698804E+01  0.21506833206E+02  0.51100000000E-03 0.  1.
        -12    1    3    3    0    0 -0.14940824879E+01  0.12426359811E+02 -0.24870740823E+01  0.12760573581E+02  0.00000000000E+00 0.  1.
</event>
<event>
 7    1  0.5525118E-011  0.5052886E+02  0.7816164E-02  0.1300439E+00
        -11   -1    0    0    0    0  0.00000000000E+00  0.00000000000E+00  0.45593999997E+02  0.45594000000E+02  0.51100000000E-03 0.  1.
         11   -1    0    0    0    0 -0.00000000000E+00 -0.00000000000E+00 -0.45593999997E+02  0.45594000000E+02  0.51100000000E-03 0. -1.
    9900012    2    1    2    0    0  0.11973111960E+02  0.33459088255E+02 -0.19755999933E+02  0.50528861664E+02  0.30000005513E+02 0.  0.
        -12    1    1    2    0    0 -0.11973111960E+02 -0.33459088255E+02  0.19755999933E+02  0.40659138336E+02  0.00000000000E+00 0.  1.
         11    1    3    3    0    0  0.12278131297E+02  0.24695697051E+01 -0.67892906981E+01  0.14245902959E+02  0.51100000000E-03 0. -1.
        -11    1    3    3    0    0  0.33649809340E+01  0.10645170709E+02  0.11899261492E+01  0.11227585698E+02  0.51100000000E-03 0.  1.
         12    1    3    3    0    0 -0.36700002712E+01  0.20344347841E+02 -0.14156635385E+02  0.25055373006E+02  0.00000000000E+00 0. -1.
</event>
<event>
 7    1  0.5525118E-011  0.5052886E+02  0.7816164E-02  0.1300439E+00
        -11   -1    0    0    0    0  0.00000000000E+00  0.00000000000E+00  0.45593999997E+02  0.45594000000E+02  0.51100000000E-03 0.  1.
         11   -1    0    0    0    0 -0.00000000000E+00 -0.00000000000E+00 -0.45593999997E+02  0.45594000000E+02  0.51100000000E-03 0. -1.
    9900012    2    1    2    0    0 -0.15158484290E+02  0.36708029786E+02 -0.87124304437E+01  0.50528861532E+02  0.30000005111E+02 0.  0.
        -12    1    1    2    0    0  0.15158484290E+02 -0.36708029786E+02  0.87124304437E+01  0.40659138468E+02  0.00000000000E+00 0.  1.
         11    1    3    3    0    0 -0.32653033922E+00  0.27190376584E+02 -0.92888826632E+00  0.27208197928E+02  0.51100000000E-03 0. -1.
        -11    1    3    3    0    0 -0.14633104082E+02  0.10657394983E+02 -0.10101242566E+02  0.20730241304E+02  0.51100000000E-03 0.  1.
         12    1    3    3    0    0 -0.19884986843E+00 -0.11397417800E+01  0.23177003887E+01  0.25904222990E+01  0.00000000000E+00 0. -1.
</event>
<event>
 7    1  0.5525118E-011  0.5052887E+02  0.7816164E-02  0.1300439E+00
        -11   -1    0    0    0    0  0.00000000000E+00  0.00000000000E+00  0.45593999997E+02  0.45594000000E+02  0.51100000000E-03 0. -1.
         11   -1    0    0    0    0 -0.00000000000E+00 -0.00000000000E+00 -0.45593999997E+02  0.45594000000E+02  0.51100000000E-03 0.  1.
    9900012    2    1    2    0    0 -0.24911474568E+02 -0.28608517487E+02 -0.14633389277E+02  0.50528869172E+02  0.30000028335E+02 0.  0.
        -12    1    1    2    0    0  0.24911474568E+02  0.28608517487E+02  0.14633389277E+02  0.40659130828E+02  0.00000000000E+00 0.  1.
         11    1    3    3    0    0 -0.78203916149E+01 -0.26522290961E+02 -0.13206232000E+02  0.30643025418E+02  0.51100000000E-03 0. -1.
        -11    1    3    3    0    0 -0.18460398996E+01  0.55292412702E+00 -0.37735573158E+01  0.42371362355E+01  0.51100000000E-03 0.  1.
         12    1    3    3    0    0 -0.15245043053E+02 -0.26391506528E+01  0.23464000392E+01  0.15648707519E+02  0.00000000000E+00 0. -1.
</event>
<event>
 7    1  0.5525118E-011  0.5052886E+02  0.7816164E-02  0.1300439E+00
        -11   -1    0    0    0    0  0.00000000000E+00  0.00000000000E+00  0.45593999997E+02  0.45594000000E+02  0.51100000000E-03 0.  1.
         11   -1    0    0    0    0 -0.00000000000E+00 -0.00000000000E+00 -0.45593999997E+02  0.45594000000E+02  0.51100000000E-03 0. -1.
    9900012    2    1    2    0    0 -0.29524394462E+02 -0.26092142136E+02 -0.10033742200E+02  0.50528859181E+02  0.29999997967E+02 0.  0.
        -12    1    1    2    0    0  0.29524394462E+02  0.26092142136E+02  0.10033742200E+02  0.40659140819E+02  0.00000000000E+00 0.  1.
         11    1    3    3    0    0 -0.27501404670E+02 -0.19614795249E+02 -0.81205763351E+01  0.34742066890E+02  0.51100000000E-03 0. -1.
        -11    1    3    3    0    0  0.29001892545E+01  0.69599450500E-02  0.45473144577E+01  0.53934418687E+01  0.51100000000E-03 0.  1.
        -12    1    3    3    0    0 -0.49231790458E+01 -0.64843068323E+01 -0.64604803222E+01  0.10393350423E+02  0.00000000000E+00 0.  1.
</event>
<event>
 7    1  0.5525118E-011  0.5052886E+02  0.7816164E-02  0.1300439E+00
        -11   -1    0    0    0    0  0.00000000000E+00  0.00000000000E+00  0.45593999997E+02  0.45594000000E+02  0.51100000000E-03 0.  1.
         11   -1    0    0    0    0 -0.00000000000E+00 -0.00000000000E+00 -0.45593999997E+02  0.45594000000E+02  0.51100000000E-03 0. -1.
    9900012    2    1    2    0    0 -0.14049810882E+02 -0.36643880221E+02  0.10629890251E+02  0.50528859450E+02  0.29999998785E+02 0.  0.
        -12    1    1    2    0    0  0.14049810882E+02  0.36643880221E+02 -0.10629890251E+02  0.40659140550E+02  0.00000000000E+00 0.  1.
         11    1    3    3    0    0 -0.11991088943E+02 -0.35178437275E+02  0.68060396691E+01  0.37784002427E+02  0.51100000000E-03 0. -1.
        -11    1    3    3    0    0  0.45296031671E+01  0.39666755730E+00 -0.61064546039E+00  0.45877595994E+01  0.51100000000E-03 0.  1.
         12    1    3    3    0    0 -0.65883251059E+01 -0.18621105033E+01  0.44344960426E+01  0.81570974237E+01  0.00000000000E+00 0. -1.
</event>
<event>
 7    1  0.5525118E-011  0.5052885E+02  0.7816164E-02  0.1300439E+00
        -11   -1    0    0    0    0  0.00000000000E+00  0.00000000000E+00  0.45593999997E+02  0.45594000000E+02  0.51100000000E-03 0.  1.
         11   -1    0    0    0    0 -0.00000000000E+00 -0.00000000000E+00 -0.45593999997E+02  0.45594000000E+02  0.51100000000E-03 0. -1.
    9900012    2    1    2    0    0  0.89425981413E+01  0.19385791947E+02 -0.34603292096E+02  0.50528845867E+02  0.29999957498E+02 0.  0.
        -12    1    1    2    0    0 -0.89425981413E+01 -0.19385791947E+02  0.34603292096E+02  0.40659154133E+02  0.00000000000E+00 0.  1.
         11    1    3    3    0    0  0.10580182170E+02  0.10701245250E+02 -0.17824706144E+02  0.23327602835E+02  0.51100000000E-03 0. -1.
        -11    1    3    3    0    0 -0.85084788386E+01  0.11209004842E+02 -0.11554216039E+02  0.18208127587E+02  0.51100000000E-03 0.  1.
        -12    1    3    3    0    0  0.68708948095E+01 -0.25244581453E+01 -0.52243699129E+01  0.89931154445E+01  0.00000000000E+00 0.  1.
</event>
<event>
 7    1  0.5525118E-011  0.5052886E+02  0.7816164E-02  0.1300439E+00
        -11   -1    0    0    0    0  0.00000000000E+00  0.00000000000E+00  0.45593999997E+02  0.45594000000E+02  0.51100000000E-03 0.  1.
         11   -1    0    0    0    0 -0.00000000000E+00 -0.00000000000E+00 -0.45593999997E+02  0.45594000000E+02  0.51100000000E-03 0. -1.
    9900012    2    1    2    0    0 -0.31068952185E+02 -0.23995123773E+02 -0.10588684668E+02  0.50528855915E+02  0.29999988039E+02 0.  0.
        -12    1    1    2    0    0  0.31068952185E+02  0.23995123773E+02  0.10588684668E+02  0.40659144085E+02  0.00000000000E+00 0.  1.
         11    1    3    3    0    0 -0.41192732936E+01  0.32770684915E+00 -0.90918514579E+00  0.42311253983E+01  0.51100000000E-03 0. -1.
        -11    1    3    3    0    0 -0.25655545410E+02 -0.22751506331E+02  0.20893864526E+01  0.34354091265E+02  0.51100000000E-03 0.  1.
        -12    1    3    3    0    0 -0.12941334810E+01 -0.15713242913E+01 -0.11768885974E+02  0.11943639252E+02  0.00000000000E+00 0.  1.
</event>
<event>
 7    1  0.5525118E-011  0.5052886E+02  0.7816164E-02  0.1300439E+00
        -11   -1    0    0    0    0  0.00000000000E+00  0.00000000000E+00  0.45593999997E+02  0.45594000000E+02  0.51100000000E-03 0.  1.
         11   -1    0    0    0    0 -0.00000000000E+00 -0.00000000000E+00 -0.45593999997E+02  0.45594000000E+02  0.51100000000E-03 0. -1.
    9900012    2    1    2    0    0 -0.52911675359E+01 -0.38485833638E+02 -0.12000402930E+02  0.50528861849E+02  0.30000006076E+02 0.  0.
        -12    1    1    2    0    0  0.52911675359E+01  0.38485833638E+02  0.12000402930E+02  0.40659138151E+02  0.00000000000E+00 0.  1.
         11    1    3    3    0    0 -0.10546134625E+01 -0.77540416091E+01 -0.83455784609E+00  0.78698067251E+01  0.51100000000E-03 0. -1.
        -11    1    3    3    0    0 -0.33958792068E+01 -0.36531584766E+00 -0.11789776243E+02  0.12274537685E+02  0.51100000000E-03 0.  1.
        -12    1    3    3    0    0 -0.84067486667E+00 -0.30366476181E+02  0.62393115875E+00  0.30384517439E+02  0.00000000000E+00 0.  1.
</event>
<event>
 7    1  0.5525118E-011  0.5052883E+02  0.7816164E-02  0.1300439E+00
        -11   -1    0    0    0    0  0.00000000000E+00  0.00000000000E+00  0.45593999997E+02  0.45594000000E+02  0.51100000000E-03 0.  1.
         11   -1    0    0    0    0 -0.00000000000E+00 -0.00000000000E+00 -0.45593999997E+02  0.45594000000E+02  0.51100000000E-03 0. -1.
    9900012    2    1    2    0    0  0.28724508712E+02 -0.19248874457E+02 -0.21390451681E+02  0.50528831394E+02  0.29999913505E+02 0.  0.
        -12    1    1    2    0    0 -0.28724508712E+02  0.19248874457E+02  0.21390451681E+02  0.40659168606E+02  0.00000000000E+00 0.  1.
         11    1    3    3    0    0  0.44691189733E+01 -0.32759302216E-01  0.64494951392E+01  0.78466607790E+01  0.51100000000E-03 0. -1.
        -11    1    3    3    0    0  0.23698401584E+01  0.97325447970E+00 -0.18619000442E+01  0.31670236333E+01  0.51100000000E-03 0.  1.
         12    1    3    3    0    0  0.21885549580E+02 -0.20189369634E+02 -0.25978046776E+02  0.39515146982E+02  0.00000000000E+00 0. -1.
</event>
<event>
 7    1  0.5525118E-011  0.5052887E+02  0.7816164E-02  0.1300439E+00
        -11   -1    0    0    0    0  0.00000000000E+00  0.00000000000E+00  0.45593999997E+02  0.45594000000E+02  0.51100000000E-03 0.  1.
         11   -1    0    0    0    0 -0.00000000000E+00 -0.00000000000E+00 -0.45593999997E+02  0.45594000000E+02  0.51100000000E-03 0. -1.
    9900012    2    1    2    0    0  0.26925497739E+02 -0.14745632446E+02 -0.26659871178E+02  0.50528870202E+02  0.30000031466E+02 0.  0.
        -12    1    1    2    0    0 -0.26925497739E+02  0.14745632446E+02  0.26659871178E+02  0.40659129798E+02  0.00000000000E+00 0.  1.
         11    1    3    3    0    0  0.26172774546E+02 -0.13423808122E+02 -0.29421362303E+02  0.41603236796E+02  0.51100000000E-03 0. -1.
        -11    1    3    3    0    0 -0.64643661131E+00 -0.97793467868E+00  0.56112275368E+01  0.57323739637E+01  0.51100000000E-03 0.  1.
         12    1    3    3    0    0  0.13991598043E+01 -0.34388964482E+00 -0.28497364120E+01  0.31932594420E+01  0.00000000000E+00 0. -1.
</event>
<event>
 7    1  0.5525118E-011  0.5052886E+02  0.7816164E-02  0.1300439E+00
        -11   -1    0    0    0    0  0.00000000000E+00  0.00000000000E+00  0.45593999997E+02  0.45594000000E+02  0.51100000000E-03 0.  1.
         11   -1    0    0    0    0 -0.00000000000E+00 -0.00000000000E+00 -0.45593999997E+02  0.45594000000E+02  0.51100000000E-03 0. -1.
    9900012    2    1    2    0    0 -0.31432964946E+02 -0.25131001826E+02  0.57936903723E+01  0.50528863435E+02  0.30000010898E+02 0.  0.
        -12    1    1    2    0    0  0.31432964946E+02  0.25131001826E+02 -0.57936903723E+01  0.40659136565E+02  0.00000000000E+00 0.  1.
         11    1    3    3    0    0 -0.26566094491E+02 -0.27749306966E+02  0.65145179935E+01  0.38964347275E+02  0.51100000000E-03 0. -1.
        -11    1    3    3    0    0  0.14540362871E+01  0.34393374687E+01 -0.30055673767E+01  0.47934016382E+01  0.51100000000E-03 0.  1.
        -12    1    3    3    0    0 -0.63209067419E+01 -0.82103232896E+00  0.22847397555E+01  0.67711145224E+01  0.00000000000E+00 0.  1.
</event>
<event>
 7    1  0.5525118E-011  0.5052885E+02  0.7816164E-02  0.1300439E+00
        -11   -1    0    0    0    0  0.00000000000E+00  0.00000000000E+00  0.45593999997E+02  0.45594000000E+02  0.51100000000E-03 0.  1.
         11   -1    0    0    0    0 -0.00000000000E+00 -0.00000000000E+00 -0.45593999997E+02  0.45594000000E+02  0.51100000000E-03 0. -1.
    9900012    2    1    2    0    0 -0.66560617363E+01 -0.24162261080E+02 -0.32016371958E+02  0.50528854760E+02  0.29999984528E+02 0.  0.
        -12    1    1    2    0    0  0.66560617363E+01  0.24162261080E+02  0.32016371958E+02  0.40659145240E+02  0.00000000000E+00 0.  1.
         11    1    3    3    0    0 -0.52539438383E+01 -0.82059497256E+01 -0.44146304640E+01  0.10697219225E+02  0.51100000000E-03 0. -1.
        -11    1    3    3    0    0 -0.43348387531E+01  0.36528249791E+01 -0.15733985295E+02  0.16724002239E+02  0.51100000000E-03 0.  1.
        -12    1    3    3    0    0  0.29327208551E+01 -0.19609136333E+02 -0.11867756198E+02  0.23107633296E+02  0.00000000000E+00 0.  1.
</event>
<event>
 7    1  0.5525118E-011  0.5052885E+02  0.7816164E-02  0.1300439E+00
        -11   -1    0    0    0    0  0.00000000000E+00  0.00000000000E+00  0.45593999997E+02  0.45594000000E+02  0.51100000000E-03 0.  1.
         11   -1    0    0    0    0 -0.00000000000E+00 -0.00000000000E+00 -0.45593999997E+02  0.45594000000E+02  0.51100000000E-03 0. -1.
    9900012    2    1    2    0    0  0.12252008467E+02 -0.21218312317E+02 -0.32447461727E+02  0.50528852670E+02  0.29999978176E+02 0.  0.
        -12    1    1    2    0    0 -0.12252008467E+02  0.21218312317E+02  0.32447461727E+02  0.40659147330E+02  0.00000000000E+00 0.  1.
         11    1    3    3    0    0  0.90798605898E+01 -0.47641515909E+01 -0.73480891037E+01  0.12614888919E+02  0.51100000000E-03 0. -1.
        -11    1    3    3    0    0 -0.76288547102E+01 -0.15700872363E+02 -0.13682175278E+02  0.22179241145E+02  0.51100000000E-03 0.  1.
        -12    1    3    3    0    0  0.10801002588E+02 -0.75328836230E+00 -0.11417197346E+02  0.15734722606E+02  0.00000000000E+00 0.  1.
</event>
<event>
 7    1  0.5525118E-011  0.5052886E+02  0.7816164E-02  0.1300439E+00
        -11   -1    0    0    0    0  0.00000000000E+00  0.00000000000E+00  0.45593999997E+02  0.45594000000E+02  0.51100000000E-03 0. -1.
         11   -1    0    0    0    0 -0.00000000000E+00 -0.00000000000E+00 -0.45593999997E+02  0.45594000000E+02  0.51100000000E-03 0.  1.
    9900012    2    1    2    0    0  0.68463797197E+01  0.16587249587E+01  0.40044246414E+02  0.50528856445E+02  0.29999989650E+02 0.  0.
        -12    1    1    2    0    0 -0.68463797197E+01 -0.16587249587E+01 -0.40044246414E+02  0.40659143555E+02  0.00000000000E+00 0.  1.
         11    1    3    3    0    0  0.10404772938E+01 -0.11280148425E+02  0.16645089023E+02  0.20134133463E+02  0.51100000000E-03 0. -1.
        -11    1    3    3    0    0  0.76575000424E+01  0.79706314039E+01  0.68184060813E+01  0.12986875437E+02  0.51100000000E-03 0.  1.
         12    1    3    3    0    0 -0.18515976165E+01  0.49682419799E+01  0.16580751310E+02  0.17407847544E+02  0.00000000000E+00 0. -1.
</event>
<event>
 7    1  0.5525118E-011  0.5052886E+02  0.7816164E-02  0.1300439E+00
        -11   -1    0    0    0    0  0.00000000000E+00  0.00000000000E+00  0.45593999997E+02  0.45594000000E+02  0.51100000000E-03 0.  1.
         11   -1    0    0    0    0 -0.00000000000E+00 -0.00000000000E+00 -0.45593999997E+02  0.45594000000E+02  0.51100000000E-03 0. -1.
    9900012    2    1    2    0    0  0.16183141970E+02  0.34469549777E+02 -0.14252075011E+02  0.50528860954E+02  0.30000003355E+02 0.  0.
        -12    1    1    2    0    0 -0.16183141970E+02 -0.34469549777E+02  0.14252075011E+02  0.40659139046E+02  0.00000000000E+00 0.  1.
         11    1    3    3    0    0  0.94471991783E+01  0.10164509588E+02 -0.51649407295E+01  0.14806871394E+02  0.51100000000E-03 0. -1.
        -11    1    3    3    0    0 -0.77083428480E+01  0.34604306005E+01 -0.55675080540E+01  0.10118808013E+02  0.51100000000E-03 0.  1.
        -12    1    3    3    0    0  0.14444285640E+02  0.20844609589E+02 -0.35196262278E+01  0.25603181547E+02  0.00000000000E+00 0.  1.
</event>
<event>
 7    1  0.5525118E-011  0.5052886E+02  0.7816164E-02  0.1300439E+00
        -11   -1    0    0    0    0  0.00000000000E+00  0.00000000000E+00  0.45593999997E+02  0.45594000000E+02  0.51100000000E-03 0.  1.
         11   -1    0    0    0    0 -0.00000000000E+00 -0.00000000000E+00 -0.45593999997E+02  0.45594000000E+02  0.51100000000E-03 0. -1.
    9900012    2    1    2    0    0  0.17112084453E+02 -0.76819901968E+01 -0.36073939826E+02  0.50528861515E+02  0.30000005062E+02 0.  0.
        -12    1    1    2    0    0 -0.17112084453E+02  0.76819901968E+01  0.36073939826E+02  0.40659138485E+02  0.00000000000E+00 0.  1.
         11    1    3    3    0    0  0.21096742442E+02 -0.25985303474E+01 -0.10844371140E+02  0.23862633705E+02  0.51100000000E-03 0. -1.
        -11    1    3    3    0    0 -0.37156101746E+01 -0.40019852697E+01 -0.99832427112E+01  0.11379225824E+02  0.51100000000E-03 0.  1.
         12    1    3    3    0    0 -0.26904781445E+00 -0.10814745797E+01 -0.15246325975E+02  0.15287001986E+02  0.00000000000E+00 0. -1.
</event>
<event>
 7    1  0.5525118E-011  0.5052887E+02  0.7816164E-02  0.1300439E+00
        -11   -1    0    0    0    0  0.00000000000E+00  0.00000000000E+00  0.45593999997E+02  0.45594000000E+02  0.51100000000E-03 0. -1.
         11   -1    0    0    0    0 -0.00000000000E+00 -0.00000000000E+00 -0.45593999997E+02  0.45594000000E+02  0.51100000000E-03 0.  1.
    9900012    2    1    2    0    0  0.18818767166E+02  0.25232469690E+02  0.25735998366E+02  0.50528866510E+02  0.30000020242E+02 0.  0.
        -12    1    1    2    0    0 -0.18818767166E+02 -0.25232469690E+02 -0.25735998366E+02  0.40659133490E+02  0.00000000000E+00 0.  1.
         11    1    3    3    0    0 -0.42869705807E+01  0.41997097657E+01 -0.27657863204E+01  0.66079689094E+01  0.51100000000E-03 0. -1.
        -11    1    3    3    0    0  0.48165082113E+01 -0.68484771810E+00  0.57856337592E+01  0.75591881841E+01  0.51100000000E-03 0.  1.
         12    1    3    3    0    0  0.18289229535E+02  0.21717607643E+02  0.22716150927E+02  0.36361709416E+02  0.00000000000E+00 0. -1.
</event>
<event>
 7    1  0.5525118E-011  0.5052884E+02  0.7816164E-02  0.1300439E+00
        -11   -1    0    0    0    0  0.00000000000E+00  0.00000000000E+00  0.45593999997E+02  0.45594000000E+02  0.51100000000E-03 0. -1.
         11   -1    0    0    0    0 -0.00000000000E+00 -0.00000000000E+00 -0.45593999997E+02  0.45594000000E+02  0.51100000000E-03 0.  1.
    9900012    2    1    2    0    0 -0.32497730670E+02 -0.14585986414E+02  0.19603914912E+02  0.50528843857E+02  0.29999951389E+02 0.  0.
        -12    1    1    2    0    0  0.32497730670E+02  0.14585986414E+02 -0.19603914912E+02  0.40659156143E+02  0.00000000000E+00 0.  1.
         11    1    3    3    0    0  0.33915978159E+01  0.58206554870E+00  0.20008789633E+01  0.39806096185E+01  0.51100000000E-03 0.  1.
        -11    1    3    3    0    0 -0.25020976497E+02 -0.84242909642E+01  0.20509719168E+02  0.33431519914E+02  0.51100000000E-03 0. -1.
         12    1    3    3    0    0 -0.10868351989E+02 -0.67437609982E+01 -0.29066832196E+01  0.13116714325E+02  0.00000000000E+00 0. -1.
</event>
<event>
 7    1  0.5525118E-011  0.5052886E+02  0.7816164E-02  0.1300439E+00
        -11   -1    0    0    0    0  0.00000000000E+00  0.00000000000E+00  0.45593999997E+02  0.45594000000E+02  0.51100000000E-03 0.  1.
         11   -1    0    0    0    0 -0.00000000000E+00 -0.00000000000E+00 -0.45593999997E+02  0.45594000000E+02  0.51100000000E-03 0. -1.
    9900012    2    1    2    0    0  0.10923176888E+02  0.25348805373E+02 -0.29854450475E+02  0.50528856620E+02  0.29999990184E+02 0.  0.
        -12    1    1    2    0    0 -0.10923176888E+02 -0.25348805373E+02  0.29854450475E+02  0.40659143380E+02  0.00000000000E+00 0.  1.
         11    1    3    3    0    0  0.12739863293E+01  0.16023038799E+02 -0.24729406999E+02  0.29494141525E+02  0.51100000000E-03 0. -1.
        -11    1    3    3    0    0  0.84582664424E+01  0.59481260249E+01  0.41117864470E+01  0.11127859743E+02  0.51100000000E-03 0.  1.
        -12    1    3    3    0    0  0.11909241158E+01  0.33776405489E+01 -0.92368299234E+01  0.99068553518E+01  0.00000000000E+00 0.  1.
</event>
<event>
 7    1  0.5525118E-011  0.5052886E+02  0.7816164E-02  0.1300439E+00
        -11   -1    0    0    0    0  0.00000000000E+00  0.00000000000E+00  0.45593999997E+02  0.45594000000E+02  0.51100000000E-03 0. -1.
         11   -1    0    0    0    0 -0.00000000000E+00 -0.00000000000E+00 -0.45593999997E+02  0.45594000000E+02  0.51100000000E-03 0.  1.
    9900012    2    1    2    0    0  0.81790170893E+01  0.20568190190E+02  0.34105996365E+02  0.50528858884E+02  0.29999997065E+02 0.  0.
        -12    1    1    2    0    0 -0.81790170893E+01 -0.20568190190E+02 -0.34105996365E+02  0.40659141116E+02  0.00000000000E+00 0.  1.
         11    1    3    3    0    0 -0.43508638438E+01  0.43273584083E+01 -0.53548825446E+00  0.61597723101E+01  0.51100000000E-03 0.  1.
        -11    1    3    3    0    0  0.10279534436E+02  0.57250909069E+01  0.30764352299E+02  0.32937681563E+02  0.51100000000E-03 0. -1.
         12    1    3    3    0    0  0.22503464968E+01  0.10515740875E+02  0.38771323206E+01  0.11431405011E+02  0.00000000000E+00 0. -1.
</event>
<event>
 7    1  0.5525118E-011  0.5052885E+02  0.7816164E-02  0.1300439E+00
        -11   -1    0    0    0    0  0.00000000000E+00  0.00000000000E+00  0.45593999997E+02  0.45594000000E+02  0.51100000000E-03 0.  1.
         11   -1    0    0    0    0 -0.00000000000E+00 -0.00000000000E+00 -0.45593999997E+02  0.45594000000E+02  0.51100000000E-03 0. -1.
    9900012    2    1    2    0    0  0.19845728288E+02 -0.22075610543E+02 -0.27784542359E+02  0.50528852121E+02  0.29999976507E+02 0.  0.
        -12    1    1    2    0    0 -0.19845728288E+02  0.22075610543E+02  0.27784542359E+02  0.40659147879E+02  0.00000000000E+00 0.  1.
         11    1    3    3    0    0  0.19052095063E+02 -0.42792590540E+01 -0.21045736015E+02  0.28709186492E+02  0.51100000000E-03 0. -1.
        -11    1    3    3    0    0 -0.44584656494E+01 -0.40367972095E+01 -0.16379836495E+01  0.62335093130E+01  0.51100000000E-03 0.  1.
        -12    1    3    3    0    0  0.52520988749E+01 -0.13759554280E+02 -0.51008226942E+01  0.15586156317E+02  0.00000000000E+00 0.  1.
</event>
<event>
 7    1  0.5525118E-011  0.5052886E+02  0.7816164E-02  0.1300439E+00
        -11   -1    0    0    0    0  0.00000000000E+00  0.00000000000E+00  0.45593999997E+02  0.45594000000E+02  0.51100000000E-03 0. -1.
         11   -1    0    0    0    0 -0.00000000000E+00 -0.00000000000E+00 -0.45593999997E+02  0.45594000000E+02  0.51100000000E-03 0.  1.
    9900012    2    1    2    0    0 -0.19737692629E+02 -0.31750637464E+02  0.15983939012E+02  0.50528858395E+02  0.29999995578E+02 0.  0.
        -12    1    1    2    0    0  0.19737692629E+02  0.31750637464E+02 -0.15983939012E+02  0.40659141605E+02  0.00000000000E+00 0.  1.
         11    1    3    3    0    0 -0.11313845781E+02 -0.52559014657E+01  0.90794461560E+01  0.15429321091E+02  0.51100000000E-03 0. -1.
        -11    1    3    3    0    0 -0.42672555891E+01 -0.27174531114E+02  0.10616749287E+02  0.29485250163E+02  0.51100000000E-03 0.  1.
        -12    1    3    3    0    0 -0.41565912590E+01  0.67979511523E+00 -0.37122564309E+01  0.56142871410E+01  0.00000000000E+00 0.  1.
</event>
<event>
 7    1  0.5525118E-011  0.5052887E+02  0.7816164E-02  0.1300439E+00
        -11   -1    0    0    0    0  0.00000000000E+00  0.00000000000E+00  0.45593999997E+02  0.45594000000E+02  0.51100000000E-03 0.  1.
         11   -1    0    0    0    0 -0.00000000000E+00 -0.00000000000E+00 -0.45593999997E+02  0.45594000000E+02  0.51100000000E-03 0. -1.
    9900012    2    1    2    0    0 -0.39494036613E+02  0.71386260040E+01  0.65135240746E+01  0.50528869351E+02  0.30000028880E+02 0.  0.
        -12    1    1    2    0    0  0.39494036613E+02 -0.71386260040E+01 -0.65135240746E+01  0.40659130649E+02  0.00000000000E+00 0.  1.
         11    1    3    3    0    0 -0.19475515750E+02 -0.53832626859E+01 -0.57687972558E+00  0.20214055045E+02  0.51100000000E-03 0. -1.
        -11    1    3    3    0    0 -0.28638125855E+01  0.11077440570E+02  0.63451601758E+01  0.13083278260E+02  0.51100000000E-03 0.  1.
        -12    1    3    3    0    0 -0.17154708277E+02  0.14444481199E+01  0.74524362438E+00  0.17231536046E+02  0.00000000000E+00 0.  1.
</event>
<event>
 7    1  0.5525118E-011  0.5052886E+02  0.7816164E-02  0.1300439E+00
        -11   -1    0    0    0    0  0.00000000000E+00  0.00000000000E+00  0.45593999997E+02  0.45594000000E+02  0.51100000000E-03 0.  1.
         11   -1    0    0    0    0 -0.00000000000E+00 -0.00000000000E+00 -0.45593999997E+02  0.45594000000E+02  0.51100000000E-03 0. -1.
    9900012    2    1    2    0    0  0.31316817105E+02 -0.22723912680E+02 -0.12491865620E+02  0.50528856529E+02  0.29999989906E+02 0.  0.
        -12    1    1    2    0    0 -0.31316817105E+02  0.22723912680E+02  0.12491865620E+02  0.40659143471E+02  0.00000000000E+00 0.  1.
         11    1    3    3    0    0  0.18868213277E+02 -0.79491139508E+01 -0.29701770116E+01  0.20688640280E+02  0.51100000000E-03 0. -1.
        -11    1    3    3    0    0 -0.41891210137E+01 -0.21228667839E+01 -0.74891363246E+01  0.88398224755E+01  0.51100000000E-03 0.  1.
        -12    1    3    3    0    0  0.16637724842E+02 -0.12651931946E+02 -0.20325522836E+01  0.21000393774E+02  0.00000000000E+00 0.  1.
</event>
<event>
 7    1  0.5525118E-011  0.5052886E+02  0.7816164E-02  0.1300439E+00
        -11   -1    0    0    0    0  0.00000000000E+00  0.00000000000E+00  0.45593999997E+02  0.45594000000E+02  0.51100000000E-03 0.  1.
         11   -1    0    0    0    0 -0.00000000000E+00 -0.00000000000E+00 -0.45593999997E+02  0.45594000000E+02  0.51100000000E-03 0. -1.
    9900012    2    1    2    0    0  0.35744822695E+01 -0.27813054025E+02 -0.29441852866E+02  0.50528860833E+02  0.30000002987E+02 0.  0.
        -12    1    1    2    0    0 -0.35744822695E+01  0.27813054025E+02  0.29441852866E+02  0.40659139167E+02  0.00000000000E+00 0.  1.
         11    1    3    3    0    0 -0.33575872569E+01 -0.24022731912E+02 -0.26676736807E+02  0.36055697575E+02  0.51100000000E-03 0. -1.
        -11    1    3    3    0    0 -0.20566762487E+01 -0.91742096430E+00  0.27410713139E+01  0.35475414904E+01  0.51100000000E-03 0.  1.
         12    1    3    3    0    0  0.89887457751E+01 -0.28729011486E+01 -0.55061873726E+01  0.10925621767E+02  0.00000000000E+00 0. -1.
</event>
<event>
 7    1  0.5525118E-011  0.5052886E+02  0.7816164E-02  0.1300439E+00
        -11   -1    0    0    0    0  0.00000000000E+00  0.00000000000E+00  0.45593999997E+02  0.45594000000E+02  0.51100000000E-03 0. -1.
         11   -1    0    0    0    0 -0.00000000000E+00 -0.00000000000E+00 -0.45593999997E+02  0.45594000000E+02  0.51100000000E-03 0.  1.
    9900012    2    1    2    0    0  0.20897263603E+02  0.17216642341E+02  0.30332451350E+02  0.50528855831E+02  0.29999987785E+02 0.  0.
        -12    1    1    2    0    0 -0.20897263603E+02 -0.17216642341E+02 -0.30332451350E+02  0.40659144169E+02  0.00000000000E+00 0.  1.
         11    1    3    3    0    0  0.14314447589E+02  0.19320264433E+02  0.25913112740E+02  0.35350607345E+02  0.51100000000E-03 0. -1.
        -11    1    3    3    0    0 -0.14580064899E+01 -0.21613737760E+01 -0.31815652253E+01  0.41133535063E+01  0.51100000000E-03 0.  1.
        -12    1    3    3    0    0  0.80408225043E+01  0.57751684125E-01  0.76009038358E+01  0.11064894980E+02  0.00000000000E+00 0.  1.
</event>
<event>
 7    1  0.5525118E-011  0.5052886E+02  0.7816164E-02  0.1300439E+00
        -11   -1    0    0    0    0  0.00000000000E+00  0.00000000000E+00  0.45593999997E+02  0.45594000000E+02  0.51100000000E-03 0.  1.
         11   -1    0    0    0    0 -0.00000000000E+00 -0.00000000000E+00 -0.45593999997E+02  0.45594000000E+02  0.51100000000E-03 0. -1.
    9900012    2    1    2    0    0 -0.20883110210E+02  0.32775766085E+02 -0.11950333365E+02  0.50528860781E+02  0.30000002829E+02 0.  0.
        -12    1    1    2    0    0  0.20883110210E+02 -0.32775766085E+02  0.11950333365E+02  0.40659139219E+02  0.00000000000E+00 0.  1.
         11    1    3    3    0    0  0.41818768443E+01  0.18327063307E+02 -0.93829777096E+00  0.18821523487E+02  0.51100000000E-03 0. -1.
        -11    1    3    3    0    0 -0.14211058970E+02  0.42752290907E+01 -0.49625661407E+01  0.15647966123E+02  0.51100000000E-03 0.  1.
         12    1    3    3    0    0 -0.10853928085E+02  0.10173473687E+02 -0.60494694534E+01  0.16059371171E+02  0.00000000000E+00 0. -1.
</event>
<event>
 7    1  0.5525118E-011  0.5052885E+02  0.7816164E-02  0.1300439E+00
        -11   -1    0    0    0    0  0.00000000000E+00  0.00000000000E+00  0.45593999997E+02  0.45594000000E+02  0.51100000000E-03 0.  1.
         11   -1    0    0    0    0 -0.00000000000E+00 -0.00000000000E+00 -0.45593999997E+02  0.45594000000E+02  0.51100000000E-03 0. -1.
    9900012    2    1    2    0    0 -0.32692589164E+02  0.23916151461E+02 -0.35183925479E+01  0.50528846380E+02  0.29999959058E+02 0.  0.
        -12    1    1    2    0    0  0.32692589164E+02 -0.23916151461E+02  0.35183925479E+01  0.40659153620E+02  0.00000000000E+00 0.  1.
         11    1    3    3    0    0 -0.50647577684E+01 -0.38173365792E+01  0.49776731345E+01  0.80623234806E+01  0.51100000000E-03 0. -1.
        -11    1    3    3    0    0 -0.42233437208E+01  0.13659995062E+02 -0.29468562543E+01  0.14598495104E+02  0.51100000000E-03 0.  1.
         12    1    3    3    0    0 -0.23404487674E+02  0.14073492979E+02 -0.55492094280E+01  0.27868027795E+02  0.00000000000E+00 0. -1.
</event>
<event>
 7    1  0.5525118E-011  0.5052886E+02  0.7816164E-02  0.1300439E+00
        -11   -1    0    0    0    0  0.00000000000E+00  0.00000000000E+00  0.45593999997E+02  0.45594000000E+02  0.51100000000E-03 0. -1.
         11   -1    0    0    0    0 -0.00000000000E+00 -0.00000000000E+00 -0.45593999997E+02  0.45594000000E+02  0.51100000000E-03 0.  1.
    9900012    2    1    2    0    0 -0.36511799923E+02 -0.70816197801E+01  0.16428769691E+02  0.50528863931E+02  0.30000012406E+02 0.  0.
        -12    1    1    2    0    0  0.36511799923E+02  0.70816197801E+01 -0.16428769691E+02  0.40659136069E+02  0.00000000000E+00 0.  1.
         11    1    3    3    0    0 -0.10617460635E+02 -0.43686006100E+01  0.10597226166E+02  0.15624222998E+02  0.51100000000E-03 0. -1.
        -11    1    3    3    0    0 -0.27056800631E+02  0.41462978559E+01  0.36586154036E+01  0.27616077079E+02  0.51100000000E-03 0.  1.
        -12    1    3    3    0    0  0.11624613434E+01 -0.68593170260E+01  0.21729281213E+01  0.72885638543E+01  0.00000000000E+00 0.  1.
</event>
<event>
 7    1  0.5525118E-011  0.5052886E+02  0.7816164E-02  0.1300439E+00
        -11   -1    0    0    0    0  0.00000000000E+00  0.00000000000E+00  0.45593999997E+02  0.45594000000E+02  0.51100000000E-03 0.  1.
         11   -1    0    0    0    0 -0.00000000000E+00 -0.00000000000E+00 -0.45593999997E+02  0.45594000000E+02  0.51100000000E-03 0. -1.
    9900012    2    1    2    0    0 -0.67618783716E+01  0.29002861681E+02 -0.27681701834E+02  0.50528860791E+02  0.30000002859E+02 0.  0.
        -12    1    1    2    0    0  0.67618783716E+01 -0.29002861681E+02  0.27681701834E+02  0.40659139209E+02  0.00000000000E+00 0.  1.
         11    1    3    3    0    0  0.92882317357E+01  0.21771574050E+01 -0.10076804216E+02  0.13876355668E+02  0.51100000000E-03 0. -1.
        -11    1    3    3    0    0 -0.94840599577E+01  0.13806344775E+02 -0.52869193213E+01  0.17564568469E+02  0.51100000000E-03 0.  1.
         12    1    3    3    0    0 -0.65660501496E+01  0.13019359501E+02 -0.12317978297E+02  0.19087936654E+02  0.00000000000E+00 0. -1.
</event>
<event>
 7    1  0.5525118E-011  0.5052886E+02  0.7816164E-02  0.1300439E+00
        -11   -1    0    0    0    0  0.00000000000E+00  0.00000000000E+00  0.45593999997E+02  0.45594000000E+02  0.51100000000E-03 0. -1.
         11   -1    0    0    0    0 -0.00000000000E+00 -0.00000000000E+00 -0.45593999997E+02  0.45594000000E+02  0.51100000000E-03 0.  1.
    9900012    2    1    2    0    0 -0.15634362751E+02 -0.37046363679E+02  0.60248846539E+01  0.50528860860E+02  0.30000003071E+02 0.  0.
        -12    1    1    2    0    0  0.15634362751E+02  0.37046363679E+02 -0.60248846539E+01  0.40659139140E+02  0.00000000000E+00 0.  1.
         11    1    3    3    0    0 -0.55063633910E+01 -0.25632206726E+02 -0.13311209582E+00  0.26217318294E+02  0.51100000000E-03 0. -1.
        -11    1    3    3    0    0 -0.87714632863E+01  0.20561399650E+01  0.59026957830E+01  0.10770705525E+02  0.51100000000E-03 0.  1.
        -12    1    3    3    0    0 -0.13565360737E+01 -0.13470296919E+02  0.25530096673E+00  0.13540837042E+02  0.00000000000E+00 0.  1.
</event>
<event>
 7    1  0.5525118E-011  0.5052886E+02  0.7816164E-02  0.1300439E+00
        -11   -1    0    0    0    0  0.00000000000E+00  0.00000000000E+00  0.45593999997E+02  0.45594000000E+02  0.51100000000E-03 0.  1.
         11   -1    0    0    0    0 -0.00000000000E+00 -0.00000000000E+00 -0.45593999997E+02  0.45594000000E+02  0.51100000000E-03 0. -1.
    9900012    2    1    2    0    0 -0.10372361722E+02 -0.37988432668E+02 -0.10122180893E+02  0.50528862647E+02  0.30000008501E+02 0.  0.
        -12    1    1    2    0    0  0.10372361722E+02  0.37988432668E+02  0.10122180893E+02  0.40659137353E+02  0.00000000000E+00 0.  1.
         11    1    3    3    0    0 -0.11691944244E+02 -0.16928541147E+02 -0.17213433301E+02  0.26824976269E+02  0.51100000000E-03 0. -1.
        -11    1    3    3    0    0  0.36211102027E+01 -0.49114801953E+01  0.33791802750E+01  0.69752373723E+01  0.51100000000E-03 0.  1.
         12    1    3    3    0    0 -0.23015276808E+01 -0.16148411326E+02  0.37120721333E+01  0.16728649006E+02  0.00000000000E+00 0. -1.
</event>
<event>
 7    1  0.5525118E-011  0.5052885E+02  0.7816164E-02  0.1300439E+00
        -11   -1    0    0    0    0  0.00000000000E+00  0.00000000000E+00  0.45593999997E+02  0.45594000000E+02  0.51100000000E-03 0. -1.
         11   -1    0    0    0    0 -0.00000000000E+00 -0.00000000000E+00 -0.45593999997E+02  0.45594000000E+02  0.51100000000E-03 0.  1.
    9900012    2    1    2    0    0  0.20225440063E+02 -0.35249185322E+02 -0.12621053961E+01  0.50528850948E+02  0.29999972941E+02 0.  0.
        -12    1    1    2    0    0 -0.20225440063E+02  0.35249185322E+02  0.12621053961E+01  0.40659149052E+02  0.00000000000E+00 0.  1.
         11    1    3    3    0    0  0.17791835526E+02 -0.20640552769E+02 -0.73572693130E+01  0.28226073797E+02  0.51100000000E-03 0. -1.
        -11    1    3    3    0    0  0.78168263819E+00 -0.13676092447E+02  0.10661299085E+02  0.17358278452E+02  0.51100000000E-03 0.  1.
        -12    1    3    3    0    0  0.16519218985E+01 -0.93254010692E+00 -0.45661351683E+01  0.49444986991E+01  0.00000000000E+00 0.  1.
</event>
<event>
 7    1  0.5525118E-011  0.5052887E+02  0.7816164E-02  0.1300439E+00
        -11   -1    0    0    0    0  0.00000000000E+00  0.00000000000E+00  0.45593999997E+02  0.45594000000E+02  0.51100000000E-03 0.  1.
         11   -1    0    0    0    0 -0.00000000000E+00 -0.00000000000E+00 -0.45593999997E+02  0.45594000000E+02  0.51100000000E-03 0. -1.
    9900012    2    1    2    0    0 -0.33419807548E+01  0.12736201554E+02 -0.38467974151E+02  0.50528871865E+02  0.30000036522E+02 0.  0.
        -12    1    1    2    0    0  0.33419807548E+01 -0.12736201554E+02  0.38467974151E+02  0.40659128135E+02  0.00000000000E+00 0.  1.
         11    1    3    3    0    0 -0.65839681145E+01 -0.66024850051E+01 -0.10583897645E+02  0.14105329986E+02  0.51100000000E-03 0. -1.
        -11    1    3    3    0    0  0.62006957817E+01  0.19456313208E+02 -0.25118648058E+02  0.32371951321E+02  0.51100000000E-03 0.  1.
        -12    1    3    3    0    0 -0.29587084221E+01 -0.11762664824E+00 -0.27654284473E+01  0.40515905583E+01  0.00000000000E+00 0.  1.
</event>
<event>
 7    1  0.5525118E-011  0.5052884E+02  0.7816164E-02  0.1300439E+00
        -11   -1    0    0    0    0  0.00000000000E+00  0.00000000000E+00  0.45593999997E+02  0.45594000000E+02  0.51100000000E-03 0.  1.
         11   -1    0    0    0    0 -0.00000000000E+00 -0.00000000000E+00 -0.45593999997E+02  0.45594000000E+02  0.51100000000E-03 0. -1.
    9900012    2    1    2    0    0 -0.45031884572E+00 -0.37375131923E+02  0.16001991205E+02  0.50528843641E+02  0.29999950731E+02 0.  0.
        -12    1    1    2    0    0  0.45031884572E+00  0.37375131923E+02 -0.16001991205E+02  0.40659156359E+02  0.00000000000E+00 0.  1.
         11    1    3    3    0    0  0.11364581916E+02 -0.32624645417E+02  0.10770648325E+02  0.36187402177E+02  0.51100000000E-03 0. -1.
        -11    1    3    3    0    0 -0.65478505902E+01 -0.93958379397E+00  0.12919973117E+01  0.67399126383E+01  0.51100000000E-03 0.  1.
         12    1    3    3    0    0 -0.52670501711E+01 -0.38109027121E+01  0.39393455682E+01  0.76015288260E+01  0.00000000000E+00 0. -1.
</event>
<event>
 7    1  0.5525118E-011  0.5052885E+02  0.7816164E-02  0.1300439E+00
        -11   -1    0    0    0    0  0.00000000000E+00  0.00000000000E+00  0.45593999997E+02  0.45594000000E+02  0.51100000000E-03 0.  1.
         11   -1    0    0    0    0 -0.00000000000E+00 -0.00000000000E+00 -0.45593999997E+02  0.45594000000E+02  0.51100000000E-03 0. -1.
    9900012    2    1    2    0    0  0.35429714688E+02 -0.14253432664E+02  0.13954966588E+02  0.50528854436E+02  0.29999983542E+02 0.  0.
        -12    1    1    2    0    0 -0.35429714688E+02  0.14253432664E+02 -0.13954966588E+02  0.40659145564E+02  0.00000000000E+00 0.  1.
         11    1    3    3    0    0  0.17141861809E+02 -0.44666920073E+01  0.63411457821E+01  0.18815017774E+02  0.51100000000E-03 0. -1.
        -11    1    3    3    0    0 -0.17813907355E+01  0.37036129039E+01  0.62671342854E+01  0.74944695547E+01  0.51100000000E-03 0.  1.
        -12    1    3    3    0    0  0.20069243615E+02 -0.13490353560E+02  0.13466865203E+01  0.24219367106E+02  0.00000000000E+00 0.  1.
</event>
<event>
 7    1  0.5525118E-011  0.5052887E+02  0.7816164E-02  0.1300439E+00
        -11   -1    0    0    0    0  0.00000000000E+00  0.00000000000E+00  0.45593999997E+02  0.45594000000E+02  0.51100000000E-03 0.  1.
         11   -1    0    0    0    0 -0.00000000000E+00 -0.00000000000E+00 -0.45593999997E+02  0.45594000000E+02  0.51100000000E-03 0. -1.
    9900012    2    1    2    0    0  0.26303879592E+02 -0.15638147236E+02 -0.26771615482E+02  0.50528866634E+02  0.30000020619E+02 0.  0.
        -12    1    1    2    0    0 -0.26303879592E+02  0.15638147236E+02  0.26771615482E+02  0.40659133366E+02  0.00000000000E+00 0.  1.
         11    1    3    3    0    0  0.17196023432E+02 -0.17161257765E+02 -0.29959597820E+02  0.38571874361E+02  0.51100000000E-03 0. -1.
        -11    1    3    3    0    0  0.44296326493E+01 -0.27283519258E+01  0.13990249140E+01  0.53872832309E+01  0.51100000000E-03 0.  1.
         12    1    3    3    0    0  0.46782235112E+01  0.42514624549E+01  0.17889574236E+01  0.65697090414E+01  0.00000000000E+00 0. -1.
</event>
<event>
 7    1  0.5525118E-011  0.5052887E+02  0.7816164E-02  0.1300439E+00
        -11   -1    0    0    0    0  0.00000000000E+00  0.00000000000E+00  0.45593999997E+02  0.45594000000E+02  0.51100000000E-03 0.  1.
         11   -1    0    0    0    0 -0.00000000000E+00 -0.00000000000E+00 -0.45593999997E+02  0.45594000000E+02  0.51100000000E-03 0. -1.
    9900012    2    1    2    0    0  0.94322940639E+01 -0.22843916990E+01 -0.39483902319E+02  0.50528866228E+02  0.30000019387E+02 0.  0.
        -12    1    1    2    0    0 -0.94322940639E+01  0.22843916990E+01  0.39483902319E+02  0.40659133772E+02  0.00000000000E+00 0.  1.
         11    1    3    3    0    0 -0.16742041023E+01  0.63281616260E+01 -0.83895132928E+01  0.10641077130E+02  0.51100000000E-03 0. -1.
        -11    1    3    3    0    0  0.17168734982E+02 -0.48242855360E+01 -0.22379416575E+02  0.28616035336E+02  0.51100000000E-03 0.  1.
        -12    1    3    3    0    0 -0.60622368161E+01 -0.37882677890E+01 -0.87149724508E+01  0.11271753762E+02  0.00000000000E+00 0.  1.
</event>
<event>
 7    1  0.5525118E-011  0.5052886E+02  0.7816164E-02  0.1300439E+00
        -11   -1    0    0    0    0  0.00000000000E+00  0.00000000000E+00  0.45593999997E+02  0.45594000000E+02  0.51100000000E-03 0.  1.
         11   -1    0    0    0    0 -0.00000000000E+00 -0.00000000000E+00 -0.45593999997E+02  0.45594000000E+02  0.51100000000E-03 0. -1.
    9900012    2    1    2    0    0  0.60111376810E+01 -0.18219256790E+02 -0.35848157772E+02  0.50528861914E+02  0.30000006275E+02 0.  0.
        -12    1    1    2    0    0 -0.60111376810E+01  0.18219256790E+02  0.35848157772E+02  0.40659138086E+02  0.00000000000E+00 0.  1.
         11    1    3    3    0    0 -0.57801687196E+01 -0.13232126226E+02 -0.81344770605E+01  0.16573147926E+02  0.51100000000E-03 0. -1.
        -11    1    3    3    0    0  0.50724444845E+01  0.51830206153E+01 -0.81892203141E+01  0.10938771657E+02  0.51100000000E-03 0.  1.
         12    1    3    3    0    0  0.67188619162E+01 -0.10170151180E+02 -0.19524460398E+02  0.23016942331E+02  0.00000000000E+00 0. -1.
</event>
<event>
 7    1  0.5525118E-011  0.5052886E+02  0.7816164E-02  0.1300439E+00
        -11   -1    0    0    0    0  0.00000000000E+00  0.00000000000E+00  0.45593999997E+02  0.45594000000E+02  0.51100000000E-03 0. -1.
         11   -1    0    0    0    0 -0.00000000000E+00 -0.00000000000E+00 -0.45593999997E+02  0.45594000000E+02  0.51100000000E-03 0.  1.
    9900012    2    1    2    0    0  0.25743890454E+02 -0.12252131307E+02  0.28987978927E+02  0.50528861550E+02  0.30000005166E+02 0.  0.
        -12    1    1    2    0    0 -0.25743890454E+02  0.12252131307E+02 -0.28987978927E+02  0.40659138450E+02  0.00000000000E+00 0.  1.
         11    1    3    3    0    0  0.21144385349E+02  0.18506545519E+01  0.20370003110E+02  0.29418480264E+02  0.51100000000E-03 0. -1.
        -11    1    3    3    0    0  0.72310562569E+01 -0.88693161755E+01  0.98086418770E+00  0.11485427237E+02  0.51100000000E-03 0.  1.
         12    1    3    3    0    0 -0.26315511523E+01 -0.52334696829E+01  0.76371116297E+01  0.96249540484E+01  0.00000000000E+00 0. -1.
</event>
<event>
 7    1  0.5525118E-011  0.5052884E+02  0.7816164E-02  0.1300439E+00
        -11   -1    0    0    0    0  0.00000000000E+00  0.00000000000E+00  0.45593999997E+02  0.45594000000E+02  0.51100000000E-03 0. -1.
         11   -1    0    0    0    0 -0.00000000000E+00 -0.00000000000E+00 -0.45593999997E+02  0.45594000000E+02  0.51100000000E-03 0.  1.
    9900012    2    1    2    0    0 -0.27871029536E+02  0.43636631135E+01  0.29280219818E+02  0.50528842167E+02  0.29999946250E+02 0.  0.
        -12    1    1    2    0    0  0.27871029536E+02 -0.43636631135E+01 -0.29280219818E+02  0.40659157833E+02  0.00000000000E+00 0.  1.
         11    1    3    3    0    0 -0.27219619363E+02  0.14363881968E+01  0.32912790523E+02  0.42734326596E+02  0.51100000000E-03 0. -1.
        -11    1    3    3    0    0 -0.78921890546E+00 -0.40440695145E-01 -0.46020602676E+01  0.46694176188E+01  0.51100000000E-03 0.  1.
        -12    1    3    3    0    0  0.13780873278E+00  0.29677156119E+01  0.96948956237E+00  0.31250979523E+01  0.00000000000E+00 0.  1.
</event>
<event>
 7    1  0.5525118E-011  0.5052887E+02  0.7816164E-02  0.1300439E+00
        -11   -1    0    0    0    0  0.00000000000E+00  0.00000000000E+00  0.45593999997E+02  0.45594000000E+02  0.51100000000E-03 0.  1.
         11   -1    0    0    0    0 -0.00000000000E+00 -0.00000000000E+00 -0.45593999997E+02  0.45594000000E+02  0.51100000000E-03 0. -1.
    9900012    2    1    2    0    0 -0.13022375568E+02 -0.27474773254E+02 -0.26994808485E+02  0.50528866758E+02  0.30000020998E+02 0.  0.
        -12    1    1    2    0    0  0.13022375568E+02  0.27474773254E+02  0.26994808485E+02  0.40659133242E+02  0.00000000000E+00 0.  1.
         11    1    3    3    0    0  0.22065095168E+01 -0.22230256481E+02 -0.49552323541E+01  0.22882467424E+02  0.51100000000E-03 0. -1.
        -11    1    3    3    0    0 -0.13461564304E+02 -0.60068222272E+01 -0.19953903496E+02  0.24808343189E+02  0.51100000000E-03 0.  1.
         12    1    3    3    0    0 -0.17673207807E+01  0.76230545365E+00 -0.20856726354E+01  0.28380561461E+01  0.00000000000E+00 0. -1.
</event>
<event>
 7    1  0.5525118E-011  0.5052887E+02  0.7816164E-02  0.1300439E+00
        -11   -1    0    0    0    0  0.00000000000E+00  0.00000000000E+00  0.45593999997E+02  0.45594000000E+02  0.51100000000E-03 0. -1.
         11   -1    0    0    0    0 -0.00000000000E+00 -0.00000000000E+00 -0.45593999997E+02  0.45594000000E+02  0.51100000000E-03 0.  1.
    9900012    2    1    2    0    0  0.22763615436E+01  0.19952528035E+02  0.35353639038E+02  0.50528868306E+02  0.30000025703E+02 0.  0.
        -12    1    1    2    0    0 -0.22763615436E+01 -0.19952528035E+02 -0.35353639038E+02  0.40659131694E+02  0.00000000000E+00 0.  1.
         11    1    3    3    0    0  0.11064504127E+02  0.12657982603E+02  0.26387202784E+02  0.31287892965E+02  0.51100000000E-03 0. -1.
        -11    1    3    3    0    0 -0.78673379048E+00 -0.31865391676E+01 -0.22647834011E-01  0.32823002772E+01  0.51100000000E-03 0.  1.
         12    1    3    3    0    0 -0.80014087930E+01  0.10481084600E+02  0.89890840875E+01  0.15958675064E+02  0.00000000000E+00 0. -1.
</event>
<event>
 7    1  0.5525118E-011  0.5052886E+02  0.7816164E-02  0.1300439E+00
        -11   -1    0    0    0    0  0.00000000000E+00  0.00000000000E+00  0.45593999997E+02  0.45594000000E+02  0.51100000000E-03 0.  1.
         11   -1    0    0    0    0 -0.00000000000E+00 -0.00000000000E+00 -0.45593999997E+02  0.45594000000E+02  0.51100000000E-03 0. -1.
    9900012    2    1    2    0    0 -0.20826194970E+02  0.29643470207E+02  0.18458066282E+02  0.50528856702E+02  0.29999990432E+02 0.  0.
        -12    1    1    2    0    0  0.20826194970E+02 -0.29643470207E+02 -0.18458066282E+02  0.40659143298E+02  0.00000000000E+00 0.  1.
         11    1    3    3    0    0 -0.10719191428E+02  0.94354959884E+01  0.16120753383E+01  0.14371097264E+02  0.51100000000E-03 0. -1.
        -11    1    3    3    0    0  0.68021990991E+01  0.25929577138E+01  0.60269921719E+01  0.94508188635E+01  0.51100000000E-03 0.  1.
        -12    1    3    3    0    0 -0.16909202641E+02  0.17615016505E+02  0.10818998772E+02  0.26706940574E+02  0.00000000000E+00 0.  1.
</event>
<event>
 7    1  0.5525118E-011  0.5052887E+02  0.7816164E-02  0.1300439E+00
        -11   -1    0    0    0    0  0.00000000000E+00  0.00000000000E+00  0.45593999997E+02  0.45594000000E+02  0.51100000000E-03 0.  1.
         11   -1    0    0    0    0 -0.00000000000E+00 -0.00000000000E+00 -0.45593999997E+02  0.45594000000E+02  0.51100000000E-03 0. -1.
    9900012    2    1    2    0    0  0.30087459084E+02  0.27189101255E+02 -0.29432149173E+01  0.50528868980E+02  0.30000027753E+02 0.  0.
        -12    1    1    2    0    0 -0.30087459084E+02 -0.27189101255E+02  0.29432149173E+01  0.40659131020E+02  0.00000000000E+00 0.  1.
         11    1    3    3    0    0  0.28952830987E+02  0.23115451554E+02 -0.93573773367E+01  0.38211922663E+02  0.51100000000E-03 0. -1.
        -11    1    3    3    0    0  0.29910451543E+01  0.38749414432E+01  0.83173405995E+01  0.96508899700E+01  0.51100000000E-03 0.  1.
        -12    1    3    3    0    0 -0.18564170574E+01  0.19870825802E+00 -0.19031781801E+01  0.26660563475E+01  0.00000000000E+00 0.  1.
</event>
<event>
 7    1  0.5525118E-011  0.5052886E+02  0.7816164E-02  0.1300439E+00
        -11   -1    0    0    0    0  0.00000000000E+00  0.00000000000E+00  0.45593999997E+02  0.45594000000E+02  0.51100000000E-03 0. -1.
         11   -1    0    0    0    0 -0.00000000000E+00 -0.00000000000E+00 -0.45593999997E+02  0.45594000000E+02  0.51100000000E-03 0.  1.
    9900012    2    1    2    0    0 -0.26490099867E+01  0.28065074641E+02  0.29300170220E+02  0.50528860272E+02  0.30000001281E+02 0.  0.
        -12    1    1    2    0    0  0.26490099867E+01 -0.28065074641E+02 -0.29300170220E+02  0.40659139728E+02  0.00000000000E+00 0.  1.
         11    1    3    3    0    0  0.75943683160E+01  0.21433669776E+01  0.18641800734E+02  0.20243151607E+02  0.51100000000E-03 0. -1.
        -11    1    3    3    0    0 -0.40197030111E+01  0.83881430608E+01  0.10932423394E+01  0.93655824901E+01  0.51100000000E-03 0.  1.
         12    1    3    3    0    0 -0.62236752916E+01  0.17533564603E+02  0.95651271467E+01  0.20920126174E+02  0.00000000000E+00 0. -1.
</event>
<event>
 7    1  0.5525118E-011  0.5052886E+02  0.7816164E-02  0.1300439E+00
        -11   -1    0    0    0    0  0.00000000000E+00  0.00000000000E+00  0.45593999997E+02  0.45594000000E+02  0.51100000000E-03 0.  1.
         11   -1    0    0    0    0 -0.00000000000E+00 -0.00000000000E+00 -0.45593999997E+02  0.45594000000E+02  0.51100000000E-03 0. -1.
    9900012    2    1    2    0    0  0.19212988331E+02  0.87378186363E+01 -0.34751646621E+02  0.50528864028E+02  0.30000012700E+02 0.  0.
        -12    1    1    2    0    0 -0.19212988331E+02 -0.87378186363E+01  0.34751646621E+02  0.40659135972E+02  0.00000000000E+00 0.  1.
         11    1    3    3    0    0  0.12882382554E+02 -0.82589812574E+01 -0.11998088717E+02  0.19445325525E+02  0.51100000000E-03 0. -1.
        -11    1    3    3    0    0  0.50552897201E+01  0.13821456208E+02 -0.97895224110E+01  0.17675501554E+02  0.51100000000E-03 0.  1.
         12    1    3    3    0    0  0.12753160569E+01  0.31753436854E+01 -0.12964035493E+02  0.13408036949E+02  0.00000000000E+00 0. -1.
</event>
<event>
 7    1  0.5525118E-011  0.5052886E+02  0.7816164E-02  0.1300439E+00
        -11   -1    0    0    0    0  0.00000000000E+00  0.00000000000E+00  0.45593999997E+02  0.45594000000E+02  0.51100000000E-03 0.  1.
         11   -1    0    0    0    0 -0.00000000000E+00 -0.00000000000E+00 -0.45593999997E+02  0.45594000000E+02  0.51100000000E-03 0. -1.
    9900012    2    1    2    0    0  0.23503518153E+00  0.40658058785E+02  0.18102525748E+00  0.50528858890E+02  0.29999997081E+02 0.  0.
        -12    1    1    2    0    0 -0.23503518153E+00 -0.40658058785E+02 -0.18102525748E+00  0.40659141110E+02  0.00000000000E+00 0.  1.
         11    1    3    3    0    0  0.85159196884E+01  0.87841596726E+01 -0.53193727027E+01  0.13340842384E+02  0.51100000000E-03 0. -1.
        -11    1    3    3    0    0 -0.10119441576E+02  0.14520572269E+02 -0.27055168092E+01  0.17904466993E+02  0.51100000000E-03 0.  1.
         12    1    3    3    0    0  0.18385570694E+01  0.17353326844E+02  0.82059147694E+01  0.19283549513E+02  0.00000000000E+00 0. -1.
</event>
<event>
 7    1  0.5525118E-011  0.5052885E+02  0.7816164E-02  0.1300439E+00
        -11   -1    0    0    0    0  0.00000000000E+00  0.00000000000E+00  0.45593999997E+02  0.45594000000E+02  0.51100000000E-03 0.  1.
         11   -1    0    0    0    0 -0.00000000000E+00 -0.00000000000E+00 -0.45593999997E+02  0.45594000000E+02  0.51100000000E-03 0. -1.
    9900012    2    1    2    0    0 -0.25994445943E+02  0.28637547714E+02 -0.12543752250E+02  0.50528854910E+02  0.29999984985E+02 0.  0.
        -12    1    1    2    0    0  0.25994445943E+02 -0.28637547714E+02  0.12543752250E+02  0.40659145090E+02  0.00000000000E+00 0.  1.
         11    1    3    3    0    0 -0.21308994923E+02  0.33714276794E+02 -0.10844401522E+02  0.41331909816E+02  0.51100000000E-03 0. -1.
        -11    1    3    3    0    0 -0.15495745495E+01 -0.15470589741E+01 -0.35126552830E+01  0.41392414948E+01  0.51100000000E-03 0.  1.
         12    1    3    3    0    0 -0.31358764697E+01 -0.35296701063E+01  0.18133045545E+01  0.50577035995E+01  0.00000000000E+00 0. -1.
</event>
<event>
 7    1  0.5525118E-011  0.5052886E+02  0.7816164E-02  0.1300439E+00
        -11   -1    0    0    0    0  0.00000000000E+00  0.00000000000E+00  0.45593999997E+02  0.45594000000E+02  0.51100000000E-03 0.  1.
         11   -1    0    0    0    0 -0.00000000000E+00 -0.00000000000E+00 -0.45593999997E+02  0.45594000000E+02  0.51100000000E-03 0. -1.
    9900012    2    1    2    0    0  0.37455930444E+01  0.28226612385E+02  0.29024028168E+02  0.50528864187E+02  0.30000013181E+02 0.  0.
        -12    1    1    2    0    0 -0.37455930444E+01 -0.28226612385E+02 -0.29024028168E+02  0.40659135813E+02  0.00000000000E+00 0.  1.
         11    1    3    3    0    0  0.10399496902E+02  0.14498831665E+02  0.49774301417E+01  0.18524051029E+02  0.51100000000E-03 0. -1.
        -11    1    3    3    0    0 -0.74922442208E+01  0.19866077790E+01  0.15902741937E+02  0.17691171112E+02  0.51100000000E-03 0.  1.
        -12    1    3    3    0    0  0.83834036361E+00  0.11741172941E+02  0.81438560891E+01  0.14313642045E+02  0.00000000000E+00 0.  1.
</event>
<event>
 7    1  0.5525118E-011  0.5052886E+02  0.7816164E-02  0.1300439E+00
        -11   -1    0    0    0    0  0.00000000000E+00  0.00000000000E+00  0.45593999997E+02  0.45594000000E+02  0.51100000000E-03 0.  1.
         11   -1    0    0    0    0 -0.00000000000E+00 -0.00000000000E+00 -0.45593999997E+02  0.45594000000E+02  0.51100000000E-03 0. -1.
    9900012    2    1    2    0    0 -0.36928363739E+01  0.31903228532E+02 -0.24934165878E+02  0.50528860077E+02  0.30000000690E+02 0.  0.
        -12    1    1    2    0    0  0.36928363739E+01 -0.31903228532E+02  0.24934165878E+02  0.40659139923E+02  0.00000000000E+00 0.  1.
         11    1    3    3    0    0  0.23651970001E+00 -0.11635211084E+01  0.18480256858E+01  0.21965705395E+01  0.51100000000E-03 0.  1.
        -11    1    3    3    0    0 -0.67964791727E+01  0.34419616898E+02 -0.18932439423E+02  0.39866520031E+02  0.51100000000E-03 0. -1.
         12    1    3    3    0    0  0.28671230988E+01 -0.13528672578E+01 -0.78497521404E+01  0.84657695070E+01  0.00000000000E+00 0. -1.
</event>
<event>
 7    1  0.5525118E-011  0.5052889E+02  0.7816164E-02  0.1300439E+00
        -11   -1    0    0    0    0  0.00000000000E+00  0.00000000000E+00  0.45593999997E+02  0.45594000000E+02  0.51100000000E-03 0.  1.
         11   -1    0    0    0    0 -0.00000000000E+00 -0.00000000000E+00 -0.45593999997E+02  0.45594000000E+02  0.51100000000E-03 0. -1.
    9900012    2    1    2    0    0  0.29169887214E+02  0.22674417915E+02 -0.16975027887E+02  0.50528891309E+02  0.30000095621E+02 0.  0.
        -12    1    1    2    0    0 -0.29169887214E+02 -0.22674417915E+02  0.16975027887E+02  0.40659108691E+02  0.00000000000E+00 0.  1.
         11    1    3    3    0    0  0.56426640698E+01  0.48495898586E+01 -0.61771503786E+01  0.96703343615E+01  0.51100000000E-03 0. -1.
        -11    1    3    3    0    0  0.19103784414E+02  0.58080697383E+01  0.49401955214E+01  0.20569243668E+02  0.51100000000E-03 0.  1.
        -12    1    3    3    0    0  0.44234387300E+01  0.12016758318E+02 -0.15738073030E+02  0.20289313279E+02  0.00000000000E+00 0.  1.
</event>
<event>
 7    1  0.5525118E-011  0.5052886E+02  0.7816164E-02  0.1300439E+00
        -11   -1    0    0    0    0  0.00000000000E+00  0.00000000000E+00  0.45593999997E+02  0.45594000000E+02  0.51100000000E-03 0. -1.
         11   -1    0    0    0    0 -0.00000000000E+00 -0.00000000000E+00 -0.45593999997E+02  0.45594000000E+02  0.51100000000E-03 0.  1.
    9900012    2    1    2    0    0  0.55674696407E+01 -0.38160108541E+02  0.12883118768E+02  0.50528863865E+02  0.30000012204E+02 0.  0.
        -12    1    1    2    0    0 -0.55674696407E+01  0.38160108541E+02 -0.12883118768E+02  0.40659136135E+02  0.00000000000E+00 0.  1.
         11    1    3    3    0    0  0.35903779607E+01 -0.58089093628E+01  0.15528902467E+02  0.16964110763E+02  0.51100000000E-03 0. -1.
        -11    1    3    3    0    0 -0.21625620902E+01 -0.22570303583E+02 -0.33535798457E+01  0.22920335439E+02  0.51100000000E-03 0.  1.
         12    1    3    3    0    0  0.41396537703E+01 -0.97808955954E+01  0.70779614640E+00  0.10644417662E+02  0.00000000000E+00 0. -1.
</event>
<event>
 7    1  0.5525118E-011  0.5052887E+02  0.7816164E-02  0.1300439E+00
        -11   -1    0    0    0    0  0.00000000000E+00  0.00000000000E+00  0.45593999997E+02  0.45594000000E+02  0.51100000000E-03 0. -1.
         11   -1    0    0    0    0 -0.00000000000E+00 -0.00000000000E+00 -0.45593999997E+02  0.45594000000E+02  0.51100000000E-03 0.  1.
    9900012    2    1    2    0    0 -0.13689182623E+02 -0.37870623012E+02  0.56202046490E+01  0.50528874229E+02  0.30000043706E+02 0.  0.
        -12    1    1    2    0    0  0.13689182623E+02  0.37870623012E+02 -0.56202046490E+01  0.40659125771E+02  0.00000000000E+00 0.  1.
         11    1    3    3    0    0 -0.13443003622E+02 -0.25660095268E+02  0.50283069828E+01  0.29401338522E+02  0.51100000000E-03 0. -1.
        -11    1    3    3    0    0  0.29920748024E+01 -0.72670871816E+01  0.82897096239E+01  0.11422887272E+02  0.51100000000E-03 0.  1.
        -12    1    3    3    0    0 -0.32382538035E+01 -0.49434405622E+01 -0.76978119578E+01  0.97046484339E+01  0.00000000000E+00 0.  1.
</event>
<event>
 7    1  0.7623867E-011  0.5052886E+02  0.7816164E-02  0.1300439E+00
        -11   -1    0    0    0    0  0.00000000000E+00  0.00000000000E+00  0.45593999997E+02  0.45594000000E+02  0.51100000000E-03 0. -1.
         11   -1    0    0    0    0 -0.00000000000E+00 -0.00000000000E+00 -0.45593999997E+02  0.45594000000E+02  0.51100000000E-03 0.  1.
    9900012    2    1    2    0    0 -0.25927442647E+01  0.23750456511E+02  0.32899226619E+02  0.50528860567E+02  0.30000002179E+02 0.  0.
        -12    1    1    2    0    0  0.25927442647E+01 -0.23750456511E+02 -0.32899226619E+02  0.40659139433E+02  0.00000000000E+00 0.  1.
         11    1    3    3    0    0  0.70876843950E+01  0.11694521673E+02  0.21434733298E+02  0.25425280707E+02  0.51100000000E-03 0. -1.
        -11    1    3    3    0    0 -0.22636826323E+01  0.82920870424E+00 -0.39593182815E+01  0.46355202136E+01  0.51100000000E-03 0.  1.
         12    1    3    3    0    0 -0.74167460274E+01  0.11226726134E+02  0.15423811603E+02  0.20468059646E+02  0.00000000000E+00 0. -1.
</event>
<event>
 7    1  0.5525118E-011  0.5052885E+02  0.7816164E-02  0.1300439E+00
        -11   -1    0    0    0    0  0.00000000000E+00  0.00000000000E+00  0.45593999997E+02  0.45594000000E+02  0.51100000000E-03 0.  1.
         11   -1    0    0    0    0 -0.00000000000E+00 -0.00000000000E+00 -0.45593999997E+02  0.45594000000E+02  0.51100000000E-03 0. -1.
    9900012    2    1    2    0    0  0.69796303126E+01 -0.12553364086E+02 -0.38037664746E+02  0.50528854306E+02  0.29999983150E+02 0.  0.
        -12    1    1    2    0    0 -0.69796303126E+01  0.12553364086E+02  0.38037664746E+02  0.40659145694E+02  0.00000000000E+00 0.  1.
         11    1    3    3    0    0  0.32394952973E+01 -0.12109307096E+02 -0.32697622581E+02  0.35018054926E+02  0.51100000000E-03 0. -1.
        -11    1    3    3    0    0  0.30120257999E+01  0.43142852035E+01  0.28700740733E+01  0.59935533437E+01  0.51100000000E-03 0.  1.
        -12    1    3    3    0    0  0.72810921545E+00 -0.47583421933E+01 -0.82101162389E+01  0.95172460363E+01  0.00000000000E+00 0.  1.
</event>
<event>
 7    1  0.5525118E-011  0.5052886E+02  0.7816164E-02  0.1300439E+00
        -11   -1    0    0    0    0  0.00000000000E+00  0.00000000000E+00  0.45593999997E+02  0.45594000000E+02  0.51100000000E-03 0. -1.
         11   -1    0    0    0    0 -0.00000000000E+00 -0.00000000000E+00 -0.45593999997E+02  0.45594000000E+02  0.51100000000E-03 0.  1.
    9900012    2    1    2    0    0  0.25717175175E+02 -0.28845276962E+02  0.12638936301E+02  0.50528858189E+02  0.29999994951E+02 0.  0.
        -12    1    1    2    0    0 -0.25717175175E+02  0.28845276962E+02 -0.12638936301E+02  0.40659141811E+02  0.00000000000E+00 0.  1.
         11    1    3    3    0    0  0.50699794933E+00 -0.71360664864E+01  0.41945540648E+01  0.82930558833E+01  0.51100000000E-03 0. -1.
        -11    1    3    3    0    0  0.27864623630E+02 -0.24787120078E+02  0.71761013305E+01  0.37978085818E+02  0.51100000000E-03 0.  1.
        -12    1    3    3    0    0 -0.26544464045E+01  0.30779096026E+01  0.12682809060E+01  0.42577164881E+01  0.00000000000E+00 0.  1.
</event>
<event>
 7    1  0.5525118E-011  0.5052887E+02  0.7816164E-02  0.1300439E+00
        -11   -1    0    0    0    0  0.00000000000E+00  0.00000000000E+00  0.45593999997E+02  0.45594000000E+02  0.51100000000E-03 0. -1.
         11   -1    0    0    0    0 -0.00000000000E+00 -0.00000000000E+00 -0.45593999997E+02  0.45594000000E+02  0.51100000000E-03 0.  1.
    9900012    2    1    2    0    0  0.33769648601E+02 -0.76480211267E+01  0.21313930934E+02  0.50528867623E+02  0.30000023627E+02 0.  0.
        -12    1    1    2    0    0 -0.33769648601E+02  0.76480211267E+01 -0.21313930934E+02  0.40659132377E+02  0.00000000000E+00 0.  1.
         11    1    3    3    0    0  0.19612859057E+02 -0.13583775339E+02  0.77572006429E+01  0.25086995733E+02  0.51100000000E-03 0. -1.
        -11    1    3    3    0    0  0.12420187908E+02  0.69852236034E+01  0.28339380658E+01  0.14528785967E+02  0.51100000000E-03 0.  1.
        -12    1    3    3    0    0  0.17366016361E+01 -0.10494693911E+01  0.10722792225E+02  0.10913085923E+02  0.00000000000E+00 0.  1.
</event>
<event>
 7    1  0.5525118E-011  0.5052885E+02  0.7816164E-02  0.1300439E+00
        -11   -1    0    0    0    0  0.00000000000E+00  0.00000000000E+00  0.45593999997E+02  0.45594000000E+02  0.51100000000E-03 0. -1.
         11   -1    0    0    0    0 -0.00000000000E+00 -0.00000000000E+00 -0.45593999997E+02  0.45594000000E+02  0.51100000000E-03 0.  1.
    9900012    2    1    2    0    0 -0.19385371627E+02 -0.26236000896E+02  0.24270265922E+02  0.50528853623E+02  0.29999981074E+02 0.  0.
        -12    1    1    2    0    0  0.19385371627E+02  0.26236000896E+02 -0.24270265922E+02  0.40659146377E+02  0.00000000000E+00 0.  1.
         11    1    3    3    0    0 -0.10115893533E+02 -0.14699089752E+01  0.18160736051E+02  0.20839968056E+02  0.51100000000E-03 0. -1.
        -11    1    3    3    0    0  0.14181077873E+01 -0.13303956973E+02  0.26256935895E+01  0.13634535853E+02  0.51100000000E-03 0.  1.
         12    1    3    3    0    0 -0.10687585881E+02 -0.11462134948E+02  0.34838362810E+01  0.16054349715E+02  0.00000000000E+00 0. -1.
</event>
<event>
 7    1  0.5525118E-011  0.5052886E+02  0.7816164E-02  0.1300439E+00
        -11   -1    0    0    0    0  0.00000000000E+00  0.00000000000E+00  0.45593999997E+02  0.45594000000E+02  0.51100000000E-03 0.  1.
         11   -1    0    0    0    0 -0.00000000000E+00 -0.00000000000E+00 -0.45593999997E+02  0.45594000000E+02  0.51100000000E-03 0. -1.
    9900012    2    1    2    0    0  0.31063595858E+01  0.25217871313E+02 -0.31742326656E+02  0.50528858285E+02  0.29999995244E+02 0.  0.
        -12    1    1    2    0    0 -0.31063595858E+01 -0.25217871313E+02  0.31742326656E+02  0.40659141715E+02  0.00000000000E+00 0.  1.
         11    1    3    3    0    0 -0.64986091899E+01  0.52671472777E+01 -0.15566037772E+02  0.17671341036E+02  0.51100000000E-03 0. -1.
        -11    1    3    3    0    0  0.25232759981E+01  0.15396500156E+02 -0.11639347400E+01  0.15645251138E+02  0.51100000000E-03 0.  1.
         12    1    3    3    0    0  0.70816927776E+01  0.45542238788E+01 -0.15012354145E+02  0.17212266112E+02  0.00000000000E+00 0. -1.
</event>
<event>
 7    1  0.5525118E-011  0.5052886E+02  0.7816164E-02  0.1300439E+00
        -11   -1    0    0    0    0  0.00000000000E+00  0.00000000000E+00  0.45593999997E+02  0.45594000000E+02  0.51100000000E-03 0.  1.
         11   -1    0    0    0    0 -0.00000000000E+00 -0.00000000000E+00 -0.45593999997E+02  0.45594000000E+02  0.51100000000E-03 0. -1.
    9900012    2    1    2    0    0  0.25932657897E+02  0.18539751654E+02 -0.25237679317E+02  0.50528860876E+02  0.30000003119E+02 0.  0.
        -12    1    1    2    0    0 -0.25932657897E+02 -0.18539751654E+02  0.25237679317E+02  0.40659139124E+02  0.00000000000E+00 0.  1.
         11    1    3    3    0    0  0.28227459712E+02  0.15068180893E+02 -0.17721997616E+02  0.36577435079E+02  0.51100000000E-03 0. -1.
        -11    1    3    3    0    0 -0.45757093503E+01  0.62962378470E+01 -0.66055622290E+01  0.10208485672E+02  0.51100000000E-03 0.  1.
         12    1    3    3    0    0  0.22809075349E+01 -0.28246670859E+01 -0.91011947215E+00  0.37429401254E+01  0.00000000000E+00 0. -1.
</event>
<event>
 7    1  0.5525118E-011  0.5052888E+02  0.7816164E-02  0.1300439E+00
        -11   -1    0    0    0    0  0.00000000000E+00  0.00000000000E+00  0.45593999997E+02  0.45594000000E+02  0.51100000000E-03 0. -1.
         11   -1    0    0    0    0 -0.00000000000E+00 -0.00000000000E+00 -0.45593999997E+02  0.45594000000E+02  0.51100000000E-03 0.  1.
    9900012    2    1    2    0    0  0.57802577595E+01  0.96959055480E+01  0.39060751428E+02  0.50528877207E+02  0.30000052760E+02 0.  0.
        -12    1    1    2    0    0 -0.57802577595E+01 -0.96959055480E+01 -0.39060751428E+02  0.40659122793E+02  0.00000000000E+00 0.  1.
         11    1    3    3    0    0 -0.48247805792E+01  0.86895487119E+01  0.16786352558E+02  0.19508162315E+02  0.51100000000E-03 0. -1.
        -11    1    3    3    0    0  0.15375132983E+02 -0.21184654124E+01  0.18652801888E+02  0.24265399822E+02  0.51100000000E-03 0.  1.
        -12    1    3    3    0    0 -0.47700946447E+01  0.31248222485E+01  0.36215969811E+01  0.67553150702E+01  0.00000000000E+00 0.  1.
</event>
<event>
 7    1  0.5525118E-011  0.5052886E+02  0.7816164E-02  0.1300439E+00
        -11   -1    0    0    0    0  0.00000000000E+00  0.00000000000E+00  0.45593999997E+02  0.45594000000E+02  0.51100000000E-03 0.  1.
         11   -1    0    0    0    0 -0.00000000000E+00 -0.00000000000E+00 -0.45593999997E+02  0.45594000000E+02  0.51100000000E-03 0. -1.
    9900012    2    1    2    0    0  0.32598969287E+02  0.14282130648E+02 -0.19659436934E+02  0.50528861851E+02  0.30000006083E+02 0.  0.
        -12    1    1    2    0    0 -0.32598969287E+02 -0.14282130648E+02  0.19659436934E+02  0.40659138149E+02  0.00000000000E+00 0.  1.
         11    1    3    3    0    0  0.26218696312E+02  0.25512786990E+01 -0.18969190200E+02  0.32461657943E+02  0.51100000000E-03 0. -1.
        -11    1    3    3    0    0  0.70159063008E+00  0.12288173610E+02 -0.10294704581E+01  0.12351163903E+02  0.51100000000E-03 0.  1.
        -12    1    3    3    0    0  0.56786823450E+01 -0.55732166073E+00  0.33922372350E+00  0.57160400055E+01  0.00000000000E+00 0.  1.
</event>
<event>
 7    1  0.5525118E-011  0.5052887E+02  0.7816164E-02  0.1300439E+00
        -11   -1    0    0    0    0  0.00000000000E+00  0.00000000000E+00  0.45593999997E+02  0.45594000000E+02  0.51100000000E-03 0. -1.
         11   -1    0    0    0    0 -0.00000000000E+00 -0.00000000000E+00 -0.45593999997E+02  0.45594000000E+02  0.51100000000E-03 0.  1.
    9900012    2    1    2    0    0 -0.68758141086E+01 -0.36561264136E+02  0.16406168472E+02  0.50528865494E+02  0.30000017156E+02 0.  0.
        -12    1    1    2    0    0  0.68758141086E+01  0.36561264136E+02 -0.16406168472E+02  0.40659134506E+02  0.00000000000E+00 0.  1.
         11    1    3    3    0    0 -0.73416745888E+01 -0.16511477824E+02  0.14753988202E+02  0.23328292991E+02  0.51100000000E-03 0. -1.
        -11    1    3    3    0    0 -0.16402153795E+01 -0.20969319292E+02 -0.37179027860E+01  0.21359434905E+02  0.51100000000E-03 0.  1.
        -12    1    3    3    0    0  0.21060758596E+01  0.91953298066E+00  0.53700830552E+01  0.58411375989E+01  0.00000000000E+00 0.  1.
</event>
<event>
 7    1  0.5525118E-011  0.5052885E+02  0.7816164E-02  0.1300439E+00
        -11   -1    0    0    0    0  0.00000000000E+00  0.00000000000E+00  0.45593999997E+02  0.45594000000E+02  0.51100000000E-03 0.  1.
         11   -1    0    0    0    0 -0.00000000000E+00 -0.00000000000E+00 -0.45593999997E+02  0.45594000000E+02  0.51100000000E-03 0. -1.
    9900012    2    1    2    0    0 -0.16939735919E+02  0.36771760331E+02 -0.37482167435E+01  0.50528854171E+02  0.29999982737E+02 0.  0.
        -12    1    1    2    0    0  0.16939735919E+02 -0.36771760331E+02  0.37482167435E+01  0.40659145829E+02  0.00000000000E+00 0.  1.
         11    1    3    3    0    0 -0.13101066335E+02  0.11998949594E+02  0.10719854284E+02  0.20749168817E+02  0.51100000000E-03 0.  1.
        -11    1    3    3    0    0 -0.90351807023E+00  0.99864605534E+01 -0.97443542461E+01  0.13982066343E+02  0.51100000000E-03 0. -1.
         12    1    3    3    0    0 -0.29351515136E+01  0.14786350184E+02 -0.47237167814E+01  0.15797619010E+02  0.00000000000E+00 0. -1.
</event>
<event>
 7    1  0.5525118E-011  0.5052888E+02  0.7816164E-02  0.1300439E+00
        -11   -1    0    0    0    0  0.00000000000E+00  0.00000000000E+00  0.45593999997E+02  0.45594000000E+02  0.51100000000E-03 0. -1.
         11   -1    0    0    0    0 -0.00000000000E+00 -0.00000000000E+00 -0.45593999997E+02  0.45594000000E+02  0.51100000000E-03 0.  1.
    9900012    2    1    2    0    0  0.35105246588E+02 -0.15740826246E+02  0.13153410681E+02  0.50528878496E+02  0.30000056677E+02 0.  0.
        -12    1    1    2    0    0 -0.35105246588E+02  0.15740826246E+02 -0.13153410681E+02  0.40659121504E+02  0.00000000000E+00 0.  1.
         11    1    3    3    0    0  0.28572915409E+02 -0.79540376654E+01  0.12164629187E+02  0.32057080554E+02  0.51100000000E-03 0. -1.
        -11    1    3    3    0    0 -0.50819343992E+01 -0.20108354242E+01  0.32971919161E-01  0.54654006028E+01  0.51100000000E-03 0.  1.
        -12    1    3    3    0    0  0.11614265579E+02 -0.57759531567E+01  0.95580957420E+00  0.13006397339E+02  0.00000000000E+00 0.  1.
</event>
<event>
 7    1  0.5525118E-011  0.5052886E+02  0.7816164E-02  0.1300439E+00
        -11   -1    0    0    0    0  0.00000000000E+00  0.00000000000E+00  0.45593999997E+02  0.45594000000E+02  0.51100000000E-03 0.  1.
         11   -1    0    0    0    0 -0.00000000000E+00 -0.00000000000E+00 -0.45593999997E+02  0.45594000000E+02  0.51100000000E-03 0. -1.
    9900012    2    1    2    0    0  0.38363271299E+02  0.34800333945E+01 -0.13012100041E+02  0.50528856321E+02  0.29999989274E+02 0.  0.
        -12    1    1    2    0    0 -0.38363271299E+02 -0.34800333945E+01  0.13012100041E+02  0.40659143679E+02  0.00000000000E+00 0.  1.
         11    1    3    3    0    0  0.22942266051E+02  0.61770249889E+01 -0.18962106216E+02  0.30398432224E+02  0.51100000000E-03 0. -1.
        -11    1    3    3    0    0  0.40169873752E+01  0.14882945738E+01  0.67078410017E+01  0.79590413666E+01  0.51100000000E-03 0.  1.
        -12    1    3    3    0    0  0.11404017873E+02 -0.41852861682E+01 -0.75783482714E+00  0.12171382731E+02  0.00000000000E+00 0.  1.
</event>
<event>
 7    1  0.5525118E-011  0.5052886E+02  0.7816164E-02  0.1300439E+00
        -11   -1    0    0    0    0  0.00000000000E+00  0.00000000000E+00  0.45593999997E+02  0.45594000000E+02  0.51100000000E-03 0.  1.
         11   -1    0    0    0    0 -0.00000000000E+00 -0.00000000000E+00 -0.45593999997E+02  0.45594000000E+02  0.51100000000E-03 0. -1.
    9900012    2    1    2    0    0  0.22132130357E+02 -0.29608213298E+02 -0.16931860104E+02  0.50528863568E+02  0.30000011300E+02 0.  0.
        -12    1    1    2    0    0 -0.22132130357E+02  0.29608213298E+02  0.16931860104E+02  0.40659136432E+02  0.00000000000E+00 0.  1.
         11    1    3    3    0    0  0.16710625214E+02 -0.18152234359E+02  0.33652477847E+01  0.24901275071E+02  0.51100000000E-03 0. -1.
        -11    1    3    3    0    0 -0.26208784192E+00 -0.73315576887E+01 -0.15424546249E+02  0.17080311924E+02  0.51100000000E-03 0.  1.
        -12    1    3    3    0    0  0.56835929853E+01 -0.41244212505E+01 -0.48725616402E+01  0.85472765728E+01  0.00000000000E+00 0.  1.
</event>
<event>
 7    1  0.5525118E-011  0.5052886E+02  0.7816164E-02  0.1300439E+00
        -11   -1    0    0    0    0  0.00000000000E+00  0.00000000000E+00  0.45593999997E+02  0.45594000000E+02  0.51100000000E-03 0.  1.
         11   -1    0    0    0    0 -0.00000000000E+00 -0.00000000000E+00 -0.45593999997E+02  0.45594000000E+02  0.51100000000E-03 0. -1.
    9900012    2    1    2    0    0  0.32196713731E+00 -0.24716883991E+02 -0.32282153572E+02  0.50528862573E+02  0.30000008277E+02 0.  0.
        -12    1    1    2    0    0 -0.32196713731E+00  0.24716883991E+02  0.32282153572E+02  0.40659137427E+02  0.00000000000E+00 0.  1.
         11    1    3    3    0    0 -0.55412758111E+01 -0.22132695451E+02 -0.72915192962E+01  0.23952624062E+02  0.51100000000E-03 0. -1.
        -11    1    3    3    0    0  0.29537898974E+01  0.31761517298E+00 -0.19463716792E+02  0.19689134714E+02  0.51100000000E-03 0.  1.
         12    1    3    3    0    0  0.29094530510E+01 -0.29018037130E+01 -0.55269174832E+01  0.68871037970E+01  0.00000000000E+00 0. -1.
</event>
<event>
 7    1  0.5525118E-011  0.5052885E+02  0.7816164E-02  0.1300439E+00
        -11   -1    0    0    0    0  0.00000000000E+00  0.00000000000E+00  0.45593999997E+02  0.45594000000E+02  0.51100000000E-03 0. -1.
         11   -1    0    0    0    0 -0.00000000000E+00 -0.00000000000E+00 -0.45593999997E+02  0.45594000000E+02  0.51100000000E-03 0.  1.
    9900012    2    1    2    0    0 -0.45150796925E+01 -0.99627136486E+01  0.39160241914E+02  0.50528853986E+02  0.29999982175E+02 0.  0.
        -12    1    1    2    0    0  0.45150796925E+01  0.99627136486E+01 -0.39160241914E+02  0.40659146014E+02  0.00000000000E+00 0.  1.
         11    1    3    3    0    0 -0.11454259102E+02 -0.85165021639E+01  0.13283325761E+02  0.19498143609E+02  0.51100000000E-03 0. -1.
        -11    1    3    3    0    0  0.44771401958E+01 -0.84557925481E+01  0.12660499571E+02  0.15869261533E+02  0.51100000000E-03 0.  1.
        -12    1    3    3    0    0  0.24620392136E+01  0.70095810634E+01  0.13216416582E+02  0.15161448843E+02  0.00000000000E+00 0.  1.
</event>
<event>
 7    1  0.5525118E-011  0.5052892E+02  0.7816164E-02  0.1300439E+00
        -11   -1    0    0    0    0  0.00000000000E+00  0.00000000000E+00  0.45593999997E+02  0.45594000000E+02  0.51100000000E-03 0.  1.
         11   -1    0    0    0    0 -0.00000000000E+00 -0.00000000000E+00 -0.45593999997E+02  0.45594000000E+02  0.51100000000E-03 0. -1.
    9900012    2    1    2    0    0 -0.25688444751E+02 -0.15278878686E+02 -0.27564838809E+02  0.50528921479E+02  0.30000187326E+02 0.  0.
        -12    1    1    2    0    0  0.25688444751E+02  0.15278878686E+02  0.27564838809E+02  0.40659078521E+02  0.00000000000E+00 0.  1.
         11    1    3    3    0    0 -0.29812069174E+01 -0.14087054855E+02 -0.41717028593E+01  0.14991191219E+02  0.51100000000E-03 0. -1.
        -11    1    3    3    0    0 -0.21235180916E+02 -0.54544664179E+01 -0.17145708235E+02  0.27832704209E+02  0.51100000000E-03 0.  1.
         12    1    3    3    0    0 -0.14720569175E+01  0.42626425864E+01 -0.62474277145E+01  0.77050260503E+01  0.00000000000E+00 0. -1.
</event>
<event>
 7    1  0.5525118E-011  0.5052887E+02  0.7816164E-02  0.1300439E+00
        -11   -1    0    0    0    0  0.00000000000E+00  0.00000000000E+00  0.45593999997E+02  0.45594000000E+02  0.51100000000E-03 0.  1.
         11   -1    0    0    0    0 -0.00000000000E+00 -0.00000000000E+00 -0.45593999997E+02  0.45594000000E+02  0.51100000000E-03 0. -1.
    9900012    2    1    2    0    0  0.26506321164E+02  0.30165923570E+02  0.63715926370E+01  0.50528865735E+02  0.30000017888E+02 0.  0.
        -12    1    1    2    0    0 -0.26506321164E+02 -0.30165923570E+02 -0.63715926370E+01  0.40659134265E+02  0.00000000000E+00 0.  1.
         11    1    3    3    0    0  0.13269459229E+02  0.15725793262E+02  0.52037743761E+01  0.21224005041E+02  0.51100000000E-03 0. -1.
        -11    1    3    3    0    0 -0.60012721095E+01  0.19122681994E+01 -0.24950733588E+00  0.63035141604E+01  0.51100000000E-03 0.  1.
        -12    1    3    3    0    0  0.19238134044E+02  0.12527862108E+02  0.14173255967E+01  0.23001346533E+02  0.00000000000E+00 0.  1.
</event>
<event>
 7    1  0.5525118E-011  0.5052886E+02  0.7816164E-02  0.1300439E+00
        -11   -1    0    0    0    0  0.00000000000E+00  0.00000000000E+00  0.45593999997E+02  0.45594000000E+02  0.51100000000E-03 0. -1.
         11   -1    0    0    0    0 -0.00000000000E+00 -0.00000000000E+00 -0.45593999997E+02  0.45594000000E+02  0.51100000000E-03 0.  1.
    9900012    2    1    2    0    0 -0.10753525348E+02  0.25672459618E+02  0.29638690487E+02  0.50528862478E+02  0.30000007987E+02 0.  0.
        -12    1    1    2    0    0  0.10753525348E+02 -0.25672459618E+02 -0.29638690487E+02  0.40659137522E+02  0.00000000000E+00 0.  1.
         11    1    3    3    0    0  0.13198518653E+01  0.13342808033E+01  0.19368645653E+02  0.19459361472E+02  0.51100000000E-03 0. -1.
        -11    1    3    3    0    0 -0.77712600613E+01  0.21929663303E+02  0.11550791902E+02  0.25975438579E+02  0.51100000000E-03 0.  1.
        -12    1    3    3    0    0 -0.43021171522E+01  0.24085155118E+01 -0.12807470677E+01  0.50940624273E+01  0.00000000000E+00 0.  1.
</event>
<event>
 7    1  0.5525118E-011  0.5052886E+02  0.7816164E-02  0.1300439E+00
        -11   -1    0    0    0    0  0.00000000000E+00  0.00000000000E+00  0.45593999997E+02  0.45594000000E+02  0.51100000000E-03 0.  1.
         11   -1    0    0    0    0 -0.00000000000E+00 -0.00000000000E+00 -0.45593999997E+02  0.45594000000E+02  0.51100000000E-03 0. -1.
    9900012    2    1    2    0    0 -0.30885690782E+02 -0.24209545458E+02 -0.10636615626E+02  0.50528861073E+02  0.30000003716E+02 0.  0.
        -12    1    1    2    0    0  0.30885690782E+02  0.24209545458E+02  0.10636615626E+02  0.40659138927E+02  0.00000000000E+00 0.  1.
         11    1    3    3    0    0 -0.88031834316E+01 -0.70997105124E+01 -0.77202394433E+01  0.13693210917E+02  0.51100000000E-03 0. -1.
        -11    1    3    3    0    0 -0.13549210246E+02 -0.43178491175E+00  0.74045250561E+01  0.15446505367E+02  0.51100000000E-03 0.  1.
        -12    1    3    3    0    0 -0.85332971042E+01 -0.16678050034E+02 -0.10320901238E+02  0.21389144789E+02  0.00000000000E+00 0.  1.
</event>
<event>
 7    1  0.5525118E-011  0.5052886E+02  0.7816164E-02  0.1300439E+00
        -11   -1    0    0    0    0  0.00000000000E+00  0.00000000000E+00  0.45593999997E+02  0.45594000000E+02  0.51100000000E-03 0.  1.
         11   -1    0    0    0    0 -0.00000000000E+00 -0.00000000000E+00 -0.45593999997E+02  0.45594000000E+02  0.51100000000E-03 0. -1.
    9900012    2    1    2    0    0  0.29107878348E+01 -0.13487181527E+02 -0.38246427028E+02  0.50528856726E+02  0.29999990504E+02 0.  0.
        -12    1    1    2    0    0 -0.29107878348E+01  0.13487181527E+02  0.38246427028E+02  0.40659143274E+02  0.00000000000E+00 0.  1.
         11    1    3    3    0    0 -0.10041767180E+01  0.29926014926E+01 -0.72141166894E+01  0.78744850272E+01  0.51100000000E-03 0. -1.
        -11    1    3    3    0    0 -0.90498390270E+01 -0.12741580499E+02 -0.18741376528E+02  0.24402595240E+02  0.51100000000E-03 0.  1.
        -12    1    3    3    0    0  0.12964803580E+02 -0.37382025206E+01 -0.12290933810E+02  0.18251776458E+02  0.00000000000E+00 0.  1.
</event>
<event>
 7    1  0.5525118E-011  0.5052886E+02  0.7816164E-02  0.1300439E+00
        -11   -1    0    0    0    0  0.00000000000E+00  0.00000000000E+00  0.45593999997E+02  0.45594000000E+02  0.51100000000E-03 0.  1.
         11   -1    0    0    0    0 -0.00000000000E+00 -0.00000000000E+00 -0.45593999997E+02  0.45594000000E+02  0.51100000000E-03 0. -1.
    9900012    2    1    2    0    0 -0.40379306057E+02 -0.47152948273E+01 -0.66569364671E+00  0.50528861900E+02  0.30000006232E+02 0.  0.
        -12    1    1    2    0    0  0.40379306057E+02  0.47152948273E+01  0.66569364671E+00  0.40659138100E+02  0.00000000000E+00 0.  1.
         11    1    3    3    0    0 -0.45851116072E+01  0.90717451454E+01  0.89580113441E+00  0.10204031966E+02  0.51100000000E-03 0. -1.
        -11    1    3    3    0    0 -0.17208128958E+02 -0.94053141210E+01  0.48142370672E+01  0.20192981819E+02  0.51100000000E-03 0.  1.
         12    1    3    3    0    0 -0.18586065492E+02 -0.43817258517E+01 -0.63757318483E+01  0.20131848115E+02  0.00000000000E+00 0. -1.
</event>
<event>
 7    1  0.5525118E-011  0.5052886E+02  0.7816164E-02  0.1300439E+00
        -11   -1    0    0    0    0  0.00000000000E+00  0.00000000000E+00  0.45593999997E+02  0.45594000000E+02  0.51100000000E-03 0.  1.
         11   -1    0    0    0    0 -0.00000000000E+00 -0.00000000000E+00 -0.45593999997E+02  0.45594000000E+02  0.51100000000E-03 0. -1.
    9900012    2    1    2    0    0  0.35197368338E+02  0.19477337564E+02 -0.59113945669E+01  0.50528855859E+02  0.29999987870E+02 0.  0.
        -12    1    1    2    0    0 -0.35197368338E+02 -0.19477337564E+02  0.59113945669E+01  0.40659144141E+02  0.00000000000E+00 0.  1.
         11    1    3    3    0    0  0.41293202465E+01  0.97921600286E+01 -0.11539991682E+02  0.15687864482E+02  0.51100000000E-03 0. -1.
        -11    1    3    3    0    0  0.26213142096E+02  0.63128836398E+01  0.42534197642E+00  0.26965945829E+02  0.51100000000E-03 0.  1.
         12    1    3    3    0    0  0.48549059957E+01  0.33722938960E+01  0.52032551390E+01  0.78750455484E+01  0.00000000000E+00 0. -1.
</event>
<event>
 7    1  0.5525118E-011  0.5052884E+02  0.7816164E-02  0.1300439E+00
        -11   -1    0    0    0    0  0.00000000000E+00  0.00000000000E+00  0.45593999997E+02  0.45594000000E+02  0.51100000000E-03 0. -1.
         11   -1    0    0    0    0 -0.00000000000E+00 -0.00000000000E+00 -0.45593999997E+02  0.45594000000E+02  0.51100000000E-03 0.  1.
    9900012    2    1    2    0    0 -0.30874326976E+02 -0.21699821024E+02  0.15134765328E+02  0.50528838422E+02  0.29999934867E+02 0.  0.
        -12    1    1    2    0    0  0.30874326976E+02  0.21699821024E+02 -0.15134765328E+02  0.40659161578E+02  0.00000000000E+00 0.  1.
         11    1    3    3    0    0 -0.98940687298E+01 -0.45719866722E+01  0.18606979441E+02  0.21564214392E+02  0.51100000000E-03 0. -1.
        -11    1    3    3    0    0 -0.11165254553E+02 -0.14520362248E+02 -0.27869261765E+00  0.18318883669E+02  0.51100000000E-03 0.  1.
         12    1    3    3    0    0 -0.98150036938E+01 -0.26074721042E+01 -0.31935214959E+01  0.10645740361E+02  0.00000000000E+00 0. -1.
</event>
<event>
 7    1  0.5525118E-011  0.5052885E+02  0.7816164E-02  0.1300439E+00
        -11   -1    0    0    0    0  0.00000000000E+00  0.00000000000E+00  0.45593999997E+02  0.45594000000E+02  0.51100000000E-03 0. -1.
         11   -1    0    0    0    0 -0.00000000000E+00 -0.00000000000E+00 -0.45593999997E+02  0.45594000000E+02  0.51100000000E-03 0.  1.
    9900012    2    1    2    0    0  0.39119614866E+02  0.88446554471E+01  0.66778653944E+01  0.50528854861E+02  0.29999984835E+02 0.  0.
        -12    1    1    2    0    0 -0.39119614866E+02 -0.88446554471E+01 -0.66778653944E+01  0.40659145139E+02  0.00000000000E+00 0.  1.
         11    1    3    3    0    0  0.16491710119E+02  0.40257690195E+01  0.15172915273E+02  0.22768414020E+02  0.51100000000E-03 0. -1.
        -11    1    3    3    0    0  0.13871600883E+02  0.62460936282E+01 -0.10723995755E+02  0.18612874090E+02  0.51100000000E-03 0.  1.
        -12    1    3    3    0    0  0.87563038633E+01 -0.14272072006E+01  0.22289458758E+01  0.91475667506E+01  0.00000000000E+00 0.  1.
</event>
<event>
 7    1  0.5525118E-011  0.5052884E+02  0.7816164E-02  0.1300439E+00
        -11   -1    0    0    0    0  0.00000000000E+00  0.00000000000E+00  0.45593999997E+02  0.45594000000E+02  0.51100000000E-03 0.  1.
         11   -1    0    0    0    0 -0.00000000000E+00 -0.00000000000E+00 -0.45593999997E+02  0.45594000000E+02  0.51100000000E-03 0. -1.
    9900012    2    1    2    0    0 -0.13961917483E+02 -0.19626824779E+02 -0.32756979370E+02  0.50528842505E+02  0.29999947279E+02 0.  0.
        -12    1    1    2    0    0  0.13961917483E+02  0.19626824779E+02  0.32756979370E+02  0.40659157495E+02  0.00000000000E+00 0.  1.
         11    1    3    3    0    0 -0.14341341557E+02 -0.22272294797E+02 -0.21199084824E+02  0.33928312525E+02  0.51100000000E-03 0. -1.
        -11    1    3    3    0    0 -0.53464764485E+01  0.29158096426E+01 -0.69904971499E+01  0.92711275987E+01  0.51100000000E-03 0.  1.
         12    1    3    3    0    0  0.57259005219E+01 -0.27033962512E+00 -0.45673973963E+01  0.73294023819E+01  0.00000000000E+00 0. -1.
</event>
<event>
 7    1  0.5525118E-011  0.5052889E+02  0.7816164E-02  0.1300439E+00
        -11   -1    0    0    0    0  0.00000000000E+00  0.00000000000E+00  0.45593999997E+02  0.45594000000E+02  0.51100000000E-03 0.  1.
         11   -1    0    0    0    0 -0.00000000000E+00 -0.00000000000E+00 -0.45593999997E+02  0.45594000000E+02  0.51100000000E-03 0. -1.
    9900012    2    1    2    0    0  0.17816876720E+01 -0.36131029788E+02 -0.18561715430E+02  0.50528892727E+02  0.30000099934E+02 0.  0.
        -12    1    1    2    0    0 -0.17816876720E+01  0.36131029788E+02  0.18561715430E+02  0.40659107273E+02  0.00000000000E+00 0.  1.
         11    1    3    3    0    0 -0.25541619986E+01 -0.27721074344E+01 -0.14629435118E+02  0.15107239830E+02  0.51100000000E-03 0. -1.
        -11    1    3    3    0    0  0.49020555048E+01 -0.17226157340E+02  0.24225137984E+01  0.18073162928E+02  0.51100000000E-03 0.  1.
         12    1    3    3    0    0 -0.56620583409E+00 -0.16132765013E+02 -0.63547941110E+01  0.17348489969E+02  0.00000000000E+00 0. -1.
</event>
<event>
 7    1  0.5525118E-011  0.5052886E+02  0.7816164E-02  0.1300439E+00
        -11   -1    0    0    0    0  0.00000000000E+00  0.00000000000E+00  0.45593999997E+02  0.45594000000E+02  0.51100000000E-03 0. -1.
         11   -1    0    0    0    0 -0.00000000000E+00 -0.00000000000E+00 -0.45593999997E+02  0.45594000000E+02  0.51100000000E-03 0.  1.
    9900012    2    1    2    0    0  0.33009003557E+02 -0.13456878282E+02  0.19557193258E+02  0.50528859612E+02  0.29999999278E+02 0.  0.
        -12    1    1    2    0    0 -0.33009003557E+02  0.13456878282E+02 -0.19557193258E+02  0.40659140388E+02  0.00000000000E+00 0.  1.
         11    1    3    3    0    0  0.12298731877E+02 -0.84340435932E+01  0.20546019277E+02  0.25387611260E+02  0.51100000000E-03 0. -1.
        -11    1    3    3    0    0  0.15617838743E+02 -0.87672223145E+01 -0.36576983737E+01  0.18280039162E+02  0.51100000000E-03 0.  1.
         12    1    3    3    0    0  0.50924329367E+01  0.37443876254E+01  0.26688723548E+01  0.68612091901E+01  0.00000000000E+00 0. -1.
</event>
<event>
 7    1  0.5525118E-011  0.5052887E+02  0.7816164E-02  0.1300439E+00
        -11   -1    0    0    0    0  0.00000000000E+00  0.00000000000E+00  0.45593999997E+02  0.45594000000E+02  0.51100000000E-03 0.  1.
         11   -1    0    0    0    0 -0.00000000000E+00 -0.00000000000E+00 -0.45593999997E+02  0.45594000000E+02  0.51100000000E-03 0. -1.
    9900012    2    1    2    0    0 -0.22410355472E+02  0.18686241537E+01 -0.33874015431E+02  0.50528871750E+02  0.30000036172E+02 0.  0.
        -12    1    1    2    0    0  0.22410355472E+02 -0.18686241537E+01  0.33874015431E+02  0.40659128250E+02  0.00000000000E+00 0.  1.
         11    1    3    3    0    0 -0.68181495821E+01  0.31246673656E+01 -0.23805596031E+02  0.24959108808E+02  0.51100000000E-03 0. -1.
        -11    1    3    3    0    0 -0.78363115712E+01 -0.10167769738E+01  0.44783575569E+01  0.90828024928E+01  0.51100000000E-03 0.  1.
        -12    1    3    3    0    0 -0.77558943190E+01 -0.23926623806E+00 -0.14546776957E+02  0.16486960449E+02  0.00000000000E+00 0.  1.
</event>
<event>
 7    1  0.5525118E-011  0.5052885E+02  0.7816164E-02  0.1300439E+00
        -11   -1    0    0    0    0  0.00000000000E+00  0.00000000000E+00  0.45593999997E+02  0.45594000000E+02  0.51100000000E-03 0.  1.
         11   -1    0    0    0    0 -0.00000000000E+00 -0.00000000000E+00 -0.45593999997E+02  0.45594000000E+02  0.51100000000E-03 0. -1.
    9900012    2    1    2    0    0 -0.34828159597E+02  0.34156640073E+00 -0.20977350365E+02  0.50528848547E+02  0.29999965645E+02 0.  0.
        -12    1    1    2    0    0  0.34828159597E+02 -0.34156640073E+00  0.20977350365E+02  0.40659151453E+02  0.00000000000E+00 0.  1.
         11    1    3    3    0    0 -0.24954591329E+02 -0.77419654102E+01 -0.16037381044E+02  0.30657254408E+02  0.51100000000E-03 0. -1.
        -11    1    3    3    0    0 -0.10190667861E+02  0.56578887226E+01  0.26019613427E+01  0.11942848042E+02  0.51100000000E-03 0.  1.
         12    1    3    3    0    0  0.31709959388E+00  0.24256430883E+01 -0.75419306640E+01  0.79287460979E+01  0.00000000000E+00 0. -1.
</event>
<event>
 7    1  0.5525118E-011  0.5052887E+02  0.7816164E-02  0.1300439E+00
        -11   -1    0    0    0    0  0.00000000000E+00  0.00000000000E+00  0.45593999997E+02  0.45594000000E+02  0.51100000000E-03 0.  1.
         11   -1    0    0    0    0 -0.00000000000E+00 -0.00000000000E+00 -0.45593999997E+02  0.45594000000E+02  0.51100000000E-03 0. -1.
    9900012    2    1    2    0    0  0.38152153888E+02 -0.23220194376E+01 -0.13863127568E+02  0.50528869088E+02  0.30000028080E+02 0.  0.
        -12    1    1    2    0    0 -0.38152153888E+02  0.23220194376E+01  0.13863127568E+02  0.40659130912E+02  0.00000000000E+00 0.  1.
         11    1    3    3    0    0  0.31542657642E+02  0.42189062794E+01 -0.18164123188E+02  0.36642513462E+02  0.51100000000E-03 0. -1.
        -11    1    3    3    0    0  0.33286713995E+01  0.68225231394E+00  0.48637210823E+01  0.59330687282E+01  0.51100000000E-03 0.  1.
         12    1    3    3    0    0  0.32808248462E+01 -0.72231780310E+01 -0.56272546151E+00  0.79532868981E+01  0.00000000000E+00 0. -1.
</event>
<event>
 7    1  0.7556339E-011  0.5052886E+02  0.7816164E-02  0.1300439E+00
        -11   -1    0    0    0    0  0.00000000000E+00  0.00000000000E+00  0.45593999997E+02  0.45594000000E+02  0.51100000000E-03 0. -1.
         11   -1    0    0    0    0 -0.00000000000E+00 -0.00000000000E+00 -0.45593999997E+02  0.45594000000E+02  0.51100000000E-03 0.  1.
    9900012    2    1    2    0    0 -0.28850158071E+02 -0.45929420238E+01  0.28279649711E+02  0.50528864188E+02  0.30000013187E+02 0.  0.
        -12    1    1    2    0    0  0.28850158071E+02  0.45929420238E+01 -0.28279649711E+02  0.40659135812E+02  0.00000000000E+00 0.  1.
         11    1    3    3    0    0 -0.15124122600E+02 -0.17492700249E+01  0.18542146160E+02  0.23991878094E+02  0.51100000000E-03 0. -1.
        -11    1    3    3    0    0  0.50178152414E+01  0.18146888082E+01  0.15257807976E+01  0.55497362613E+01  0.51100000000E-03 0.  1.
        -12    1    3    3    0    0 -0.18743850713E+02 -0.46583608072E+01  0.82117227539E+01  0.20987249833E+02  0.00000000000E+00 0.  1.
</event>
<event>
 7    1  0.5525118E-011  0.5052886E+02  0.7816164E-02  0.1300439E+00
        -11   -1    0    0    0    0  0.00000000000E+00  0.00000000000E+00  0.45593999997E+02  0.45594000000E+02  0.51100000000E-03 0.  1.
         11   -1    0    0    0    0 -0.00000000000E+00 -0.00000000000E+00 -0.45593999997E+02  0.45594000000E+02  0.51100000000E-03 0. -1.
    9900012    2    1    2    0    0 -0.19996729561E+02  0.30736008567E+02 -0.17566852484E+02  0.50528859306E+02  0.29999998347E+02 0.  0.
        -12    1    1    2    0    0  0.19996729561E+02 -0.30736008567E+02  0.17566852484E+02  0.40659140694E+02  0.00000000000E+00 0.  1.
         11    1    3    3    0    0 -0.34382480389E+01  0.30074212975E+00  0.45586227904E+01  0.57177825608E+01  0.51100000000E-03 0. -1.
        -11    1    3    3    0    0 -0.95185723806E+01  0.30455183759E+02 -0.17567376042E+02  0.36424361892E+02  0.51100000000E-03 0.  1.
         12    1    3    3    0    0 -0.70399091413E+01 -0.19917322115E-01 -0.45580992328E+01  0.83867148535E+01  0.00000000000E+00 0. -1.
</event>
<event>
 7    1  0.5525118E-011  0.5052886E+02  0.7816164E-02  0.1300439E+00
        -11   -1    0    0    0    0  0.00000000000E+00  0.00000000000E+00  0.45593999997E+02  0.45594000000E+02  0.51100000000E-03 0.  1.
         11   -1    0    0    0    0 -0.00000000000E+00 -0.00000000000E+00 -0.45593999997E+02  0.45594000000E+02  0.51100000000E-03 0. -1.
    9900012    2    1    2    0    0  0.22143509321E+02  0.32637464374E+02 -0.98806052687E+01  0.50528862696E+02  0.30000008651E+02 0.  0.
        -12    1    1    2    0    0 -0.22143509321E+02 -0.32637464374E+02  0.98806052687E+01  0.40659137304E+02  0.00000000000E+00 0.  1.
         11    1    3    3    0    0  0.21073391224E+02  0.28809258225E+02  0.14768867435E+01  0.35724534593E+02  0.51100000000E-03 0. -1.
        -11    1    3    3    0    0  0.15902709883E+01  0.52351570950E+01 -0.11987710465E+02  0.13177292365E+02  0.51100000000E-03 0.  1.
         12    1    3    3    0    0 -0.52015289083E+00 -0.14069509463E+01  0.63021845280E+00  0.16270357382E+01  0.00000000000E+00 0. -1.
</event>
<event>
 7    1  0.5525118E-011  0.5052886E+02  0.7816164E-02  0.1300439E+00
        -11   -1    0    0    0    0  0.00000000000E+00  0.00000000000E+00  0.45593999997E+02  0.45594000000E+02  0.51100000000E-03 0.  1.
         11   -1    0    0    0    0 -0.00000000000E+00 -0.00000000000E+00 -0.45593999997E+02  0.45594000000E+02  0.51100000000E-03 0. -1.
    9900012    2    1    2    0    0  0.15429837014E+02 -0.16522804558E+02 -0.33794712313E+02  0.50528861777E+02  0.30000005858E+02 0.  0.
        -12    1    1    2    0    0 -0.15429837014E+02  0.16522804558E+02  0.33794712313E+02  0.40659138223E+02  0.00000000000E+00 0.  1.
         11    1    3    3    0    0  0.49552295298E+01  0.29741956706E+01 -0.19627434419E+02  0.20460604139E+02  0.51100000000E-03 0. -1.
        -11    1    3    3    0    0 -0.90131571174E+00 -0.87068874220E+01  0.26575607860E+00  0.87574474104E+01  0.51100000000E-03 0.  1.
         12    1    3    3    0    0  0.11375923196E+02 -0.10790112807E+02 -0.14433033972E+02  0.21310810228E+02  0.00000000000E+00 0. -1.
</event>
<event>
 7    1  0.5525118E-011  0.5052886E+02  0.7816164E-02  0.1300439E+00
        -11   -1    0    0    0    0  0.00000000000E+00  0.00000000000E+00  0.45593999997E+02  0.45594000000E+02  0.51100000000E-03 0. -1.
         11   -1    0    0    0    0 -0.00000000000E+00 -0.00000000000E+00 -0.45593999997E+02  0.45594000000E+02  0.51100000000E-03 0.  1.
    9900012    2    1    2    0    0  0.38402554675E+02  0.68346925457E+01  0.11475910762E+02  0.50528858893E+02  0.29999997091E+02 0.  0.
        -12    1    1    2    0    0 -0.38402554675E+02 -0.68346925457E+01 -0.11475910762E+02  0.40659141107E+02  0.00000000000E+00 0.  1.
         11    1    3    3    0    0  0.77627626664E+00  0.26294387483E+01  0.45858132796E+01  0.53428678319E+01  0.51100000000E-03 0. -1.
        -11    1    3    3    0    0  0.12624237592E+02 -0.94670151895E+01  0.52983860443E+01  0.16645379128E+02  0.51100000000E-03 0.  1.
        -12    1    3    3    0    0  0.25002040816E+02  0.13672268987E+02  0.15917114386E+01  0.28540611933E+02  0.00000000000E+00 0.  1.
</event>
<event>
 7    1  0.5525118E-011  0.5052886E+02  0.7816164E-02  0.1300439E+00
        -11   -1    0    0    0    0  0.00000000000E+00  0.00000000000E+00  0.45593999997E+02  0.45594000000E+02  0.51100000000E-03 0. -1.
         11   -1    0    0    0    0 -0.00000000000E+00 -0.00000000000E+00 -0.45593999997E+02  0.45594000000E+02  0.51100000000E-03 0.  1.
    9900012    2    1    2    0    0 -0.16103841962E+02  0.33427744523E+02  0.16625812312E+02  0.50528862468E+02  0.30000007958E+02 0.  0.
        -12    1    1    2    0    0  0.16103841962E+02 -0.33427744523E+02 -0.16625812312E+02  0.40659137532E+02  0.00000000000E+00 0.  1.
         11    1    3    3    0    0 -0.13280077201E+02  0.24448519177E+02  0.25503150862E+01  0.27939123961E+02  0.51100000000E-03 0. -1.
        -11    1    3    3    0    0 -0.35492996106E+01 -0.32682167426E+01  0.15775218478E+01  0.50761544346E+01  0.51100000000E-03 0.  1.
         12    1    3    3    0    0  0.72553484970E+00  0.12247442088E+02  0.12497975378E+02  0.17513584072E+02  0.00000000000E+00 0. -1.
</event>
<event>
 7    1  0.5525118E-011  0.5052887E+02  0.7816164E-02  0.1300439E+00
        -11   -1    0    0    0    0  0.00000000000E+00  0.00000000000E+00  0.45593999997E+02  0.45594000000E+02  0.51100000000E-03 0.  1.
         11   -1    0    0    0    0 -0.00000000000E+00 -0.00000000000E+00 -0.45593999997E+02  0.45594000000E+02  0.51100000000E-03 0. -1.
    9900012    2    1    2    0    0 -0.36660296157E+02 -0.88842747024E+01 -0.15174236872E+02  0.50528866758E+02  0.30000020998E+02 0.  0.
        -12    1    1    2    0    0  0.36660296157E+02  0.88842747024E+01  0.15174236872E+02  0.40659133242E+02  0.00000000000E+00 0.  1.
         11    1    3    3    0    0 -0.19524908044E+02  0.61308234425E+01 -0.32714229662E+01  0.20724652921E+02  0.51100000000E-03 0.  1.
        -11    1    3    3    0    0 -0.19265955840E+02 -0.12529384478E+02 -0.12934507455E+02  0.26371651697E+02  0.51100000000E-03 0. -1.
        -12    1    3    3    0    0  0.21305677267E+01 -0.24857136665E+01  0.10316935495E+01  0.34325621407E+01  0.00000000000E+00 0.  1.
</event>
<event>
 7    1  0.5525118E-011  0.5052886E+02  0.7816164E-02  0.1300439E+00
        -11   -1    0    0    0    0  0.00000000000E+00  0.00000000000E+00  0.45593999997E+02  0.45594000000E+02  0.51100000000E-03 0.  1.
         11   -1    0    0    0    0 -0.00000000000E+00 -0.00000000000E+00 -0.45593999997E+02  0.45594000000E+02  0.51100000000E-03 0. -1.
    9900012    2    1    2    0    0  0.33676415667E+02  0.21115451505E+02 -0.85558295074E+01  0.50528862245E+02  0.30000007279E+02 0.  0.
        -12    1    1    2    0    0 -0.33676415667E+02 -0.21115451505E+02  0.85558295074E+01  0.40659137755E+02  0.00000000000E+00 0.  1.
         11    1    3    3    0    0  0.65648631450E+01  0.13046884054E+02  0.29802946919E+01  0.14906400248E+02  0.51100000000E-03 0.  1.
        -11    1    3    3    0    0  0.17094803236E+02 -0.44550264493E+01 -0.61234854862E+01  0.18696968554E+02  0.51100000000E-03 0. -1.
         12    1    3    3    0    0  0.10016749286E+02  0.12523593901E+02 -0.54126387132E+01  0.16925493443E+02  0.00000000000E+00 0. -1.
</event>
<event>
 7    1  0.5525118E-011  0.5052886E+02  0.7816164E-02  0.1300439E+00
        -11   -1    0    0    0    0  0.00000000000E+00  0.00000000000E+00  0.45593999997E+02  0.45594000000E+02  0.51100000000E-03 0.  1.
         11   -1    0    0    0    0 -0.00000000000E+00 -0.00000000000E+00 -0.45593999997E+02  0.45594000000E+02  0.51100000000E-03 0. -1.
    9900012    2    1    2    0    0  0.93944863965E+01  0.27786429300E+02 -0.28157128334E+02  0.50528857069E+02  0.29999991546E+02 0.  0.
        -12    1    1    2    0    0 -0.93944863965E+01 -0.27786429300E+02  0.28157128334E+02  0.40659142931E+02  0.00000000000E+00 0.  1.
         11    1    3    3    0    0  0.13663757725E+01  0.10742030352E+02 -0.21085529864E+02  0.23703539161E+02  0.51100000000E-03 0. -1.
        -11    1    3    3    0    0  0.70730117726E+01  0.20763806664E+02 -0.68447253110E+01  0.22978542764E+02  0.51100000000E-03 0.  1.
        -12    1    3    3    0    0  0.95509885147E+00 -0.37194077163E+01 -0.22687315862E+00  0.38467751437E+01  0.00000000000E+00 0.  1.
</event>
<event>
 7    1  0.6345819E-011  0.5052886E+02  0.7816164E-02  0.1300439E+00
        -11   -1    0    0    0    0  0.00000000000E+00  0.00000000000E+00  0.45593999997E+02  0.45594000000E+02  0.51100000000E-03 0. -1.
         11   -1    0    0    0    0 -0.00000000000E+00 -0.00000000000E+00 -0.45593999997E+02  0.45594000000E+02  0.51100000000E-03 0.  1.
    9900012    2    1    2    0    0  0.16868020873E+02 -0.21740770854E+02  0.29932831458E+02  0.50528860258E+02  0.30000001239E+02 0.  0.
        -12    1    1    2    0    0 -0.16868020873E+02  0.21740770854E+02 -0.29932831458E+02  0.40659139742E+02  0.00000000000E+00 0.  1.
         11    1    3    3    0    0  0.80995771044E+01 -0.62578432568E+01  0.17101486704E+02  0.19930494204E+02  0.51100000000E-03 0. -1.
        -11    1    3    3    0    0  0.10322021287E+02 -0.11314118683E+02 -0.16925385569E+01  0.15408377333E+02  0.51100000000E-03 0.  1.
        -12    1    3    3    0    0 -0.15535775188E+01 -0.41688089147E+01  0.14523883311E+02  0.15189988720E+02  0.00000000000E+00 0.  1.
</event>
<event>
 7    1  0.5525118E-011  0.5052887E+02  0.7816164E-02  0.1300439E+00
        -11   -1    0    0    0    0  0.00000000000E+00  0.00000000000E+00  0.45593999997E+02  0.45594000000E+02  0.51100000000E-03 0.  1.
         11   -1    0    0    0    0 -0.00000000000E+00 -0.00000000000E+00 -0.45593999997E+02  0.45594000000E+02  0.51100000000E-03 0. -1.
    9900012    2    1    2    0    0 -0.12304661154E+02  0.24723007270E+02 -0.29841799266E+02  0.50528871160E+02  0.30000034379E+02 0.  0.
        -12    1    1    2    0    0  0.12304661154E+02 -0.24723007270E+02  0.29841799266E+02  0.40659128840E+02  0.00000000000E+00 0.  1.
         11    1    3    3    0    0 -0.37598694740E+01  0.11837033873E+02 -0.10312894722E+02  0.16143351176E+02  0.51100000000E-03 0. -1.
        -11    1    3    3    0    0  0.58255955246E+00 -0.29368000505E+01  0.37479424377E+01  0.47970035383E+01  0.51100000000E-03 0.  1.
        -12    1    3    3    0    0 -0.91273512326E+01  0.15822773447E+02 -0.23276846982E+02  0.29588516446E+02  0.00000000000E+00 0.  1.
</event>
<event>
 7    1  0.5525118E-011  0.5052893E+02  0.7816164E-02  0.1300439E+00
        -11   -1    0    0    0    0  0.00000000000E+00  0.00000000000E+00  0.45593999997E+02  0.45594000000E+02  0.51100000000E-03 0. -1.
         11   -1    0    0    0    0 -0.00000000000E+00 -0.00000000000E+00 -0.45593999997E+02  0.45594000000E+02  0.51100000000E-03 0.  1.
    9900012    2    1    2    0    0 -0.24811901241E+02 -0.12601169076E+02  0.29643554337E+02  0.50528926977E+02  0.30000204040E+02 0.  0.
        -12    1    1    2    0    0  0.24811901241E+02  0.12601169076E+02 -0.29643554337E+02  0.40659073023E+02  0.00000000000E+00 0.  1.
         11    1    3    3    0    0 -0.16750097855E+02 -0.14731968592E+02  0.34984852109E+01  0.22579549946E+02  0.51100000000E-03 0. -1.
        -11    1    3    3    0    0 -0.82004874603E+01  0.30087699754E+01  0.25105041255E+02  0.26581267615E+02  0.51100000000E-03 0.  1.
         12    1    3    3    0    0  0.13868407373E+00 -0.87797045961E+00  0.10400278719E+01  0.13681094162E+01  0.00000000000E+00 0. -1.
</event>
<event>
 7    1  0.5525118E-011  0.5052885E+02  0.7816164E-02  0.1300439E+00
        -11   -1    0    0    0    0  0.00000000000E+00  0.00000000000E+00  0.45593999997E+02  0.45594000000E+02  0.51100000000E-03 0.  1.
         11   -1    0    0    0    0 -0.00000000000E+00 -0.00000000000E+00 -0.45593999997E+02  0.45594000000E+02  0.51100000000E-03 0. -1.
    9900012    2    1    2    0    0 -0.50383288442E+01 -0.22931271385E+02 -0.33195453559E+02  0.50528854635E+02  0.29999984147E+02 0.  0.
        -12    1    1    2    0    0  0.50383288442E+01  0.22931271385E+02  0.33195453559E+02  0.40659145365E+02  0.00000000000E+00 0.  1.
         11    1    3    3    0    0 -0.11764232379E+02 -0.10905229611E+02 -0.18596502968E+02  0.24559135148E+02  0.51100000000E-03 0. -1.
        -11    1    3    3    0    0  0.92521170953E+01 -0.67560656670E+01 -0.16263234688E+02  0.19893187196E+02  0.51100000000E-03 0.  1.
        -12    1    3    3    0    0 -0.25262135608E+01 -0.52699761062E+01  0.16642840970E+01  0.60765322899E+01  0.00000000000E+00 0.  1.
</event>
<event>
 7    1  0.5525118E-011  0.5052884E+02  0.7816164E-02  0.1300439E+00
        -11   -1    0    0    0    0  0.00000000000E+00  0.00000000000E+00  0.45593999997E+02  0.45594000000E+02  0.51100000000E-03 0. -1.
         11   -1    0    0    0    0 -0.00000000000E+00 -0.00000000000E+00 -0.45593999997E+02  0.45594000000E+02  0.51100000000E-03 0.  1.
    9900012    2    1    2    0    0  0.35324016941E+02 -0.11009194551E+02  0.16857611720E+02  0.50528836083E+02  0.29999927758E+02 0.  0.
        -12    1    1    2    0    0 -0.35324016941E+02  0.11009194551E+02 -0.16857611720E+02  0.40659163917E+02  0.00000000000E+00 0.  1.
         11    1    3    3    0    0  0.79142329133E+01 -0.88833630912E+01  0.73002390706E+01  0.13958607136E+02  0.51100000000E-03 0. -1.
        -11    1    3    3    0    0  0.27882777078E+02 -0.12768402356E+01  0.14554986275E+02  0.31478996241E+02  0.51100000000E-03 0.  1.
        -12    1    3    3    0    0 -0.47299305054E+00 -0.84899122409E+00 -0.49976136256E+01  0.50912327069E+01  0.00000000000E+00 0.  1.
</event>
<event>
 7    1  0.5525118E-011  0.5052886E+02  0.7816164E-02  0.1300439E+00
        -11   -1    0    0    0    0  0.00000000000E+00  0.00000000000E+00  0.45593999997E+02  0.45594000000E+02  0.51100000000E-03 0. -1.
         11   -1    0    0    0    0 -0.00000000000E+00 -0.00000000000E+00 -0.45593999997E+02  0.45594000000E+02  0.51100000000E-03 0.  1.
    9900012    2    1    2    0    0  0.29684839472E+02 -0.15681420062E+02  0.22936191953E+02  0.50528861655E+02  0.30000005486E+02 0.  0.
        -12    1    1    2    0    0 -0.29684839472E+02  0.15681420062E+02 -0.22936191953E+02  0.40659138345E+02  0.00000000000E+00 0.  1.
         11    1    3    3    0    0  0.32311722001E+02 -0.95572338601E+01  0.25115365457E+02  0.42025821587E+02  0.51100000000E-03 0. -1.
        -11    1    3    3    0    0 -0.31962775997E+00 -0.46280447504E+01  0.49733347958E+00  0.46656511837E+01  0.51100000000E-03 0.  1.
         12    1    3    3    0    0 -0.23072547693E+01 -0.14961414517E+01 -0.26765069838E+01  0.38373888842E+01  0.00000000000E+00 0. -1.
</event>
<event>
 7    1  0.5525118E-011  0.5052886E+02  0.7816164E-02  0.1300439E+00
        -11   -1    0    0    0    0  0.00000000000E+00  0.00000000000E+00  0.45593999997E+02  0.45594000000E+02  0.51100000000E-03 0.  1.
         11   -1    0    0    0    0 -0.00000000000E+00 -0.00000000000E+00 -0.45593999997E+02  0.45594000000E+02  0.51100000000E-03 0. -1.
    9900012    2    1    2    0    0  0.32712304021E+02 -0.66170563803E+01 -0.23222517730E+02  0.50528860816E+02  0.30000002936E+02 0.  0.
        -12    1    1    2    0    0 -0.32712304021E+02  0.66170563803E+01  0.23222517730E+02  0.40659139184E+02  0.00000000000E+00 0.  1.
         11    1    3    3    0    0  0.19288932823E+02 -0.32883340160E+01 -0.74384213062E+00  0.19581352645E+02  0.51100000000E-03 0. -1.
        -11    1    3    3    0    0  0.34762241842E+01 -0.61886689083E+01 -0.18576145534E+02  0.19886099180E+02  0.51100000000E-03 0.  1.
        -12    1    3    3    0    0  0.99471470139E+01  0.28599465440E+01 -0.39025300650E+01  0.11061408991E+02  0.00000000000E+00 0.  1.
</event>
<event>
 7    1  0.5525118E-011  0.5052889E+02  0.7816164E-02  0.1300439E+00
        -11   -1    0    0    0    0  0.00000000000E+00  0.00000000000E+00  0.45593999997E+02  0.45594000000E+02  0.51100000000E-03 0. -1.
         11   -1    0    0    0    0 -0.00000000000E+00 -0.00000000000E+00 -0.45593999997E+02  0.45594000000E+02  0.51100000000E-03 0.  1.
    9900012    2    1    2    0    0 -0.29855940537E-01 -0.40125518964E+02 -0.65654568541E+01  0.50528888018E+02  0.30000085618E+02 0.  0.
        -12    1    1    2    0    0  0.29855940537E-01  0.40125518964E+02  0.65654568541E+01  0.40659111982E+02  0.00000000000E+00 0.  1.
         11    1    3    3    0    0 -0.44182215164E+01 -0.22682075192E+02  0.52171668124E+01  0.23689998864E+02  0.51100000000E-03 0. -1.
        -11    1    3    3    0    0  0.10263295974E+02 -0.12498482111E+02 -0.97927851081E+01  0.18906240762E+02  0.51100000000E-03 0.  1.
         12    1    3    3    0    0 -0.58749303979E+01 -0.49449616608E+01 -0.19898385583E+01  0.79326483910E+01  0.00000000000E+00 0. -1.
</event>
<event>
 7    1  0.5525118E-011  0.5052884E+02  0.7816164E-02  0.1300439E+00
        -11   -1    0    0    0    0  0.00000000000E+00  0.00000000000E+00  0.45593999997E+02  0.45594000000E+02  0.51100000000E-03 0.  1.
         11   -1    0    0    0    0 -0.00000000000E+00 -0.00000000000E+00 -0.45593999997E+02  0.45594000000E+02  0.51100000000E-03 0. -1.
    9900012    2    1    2    0    0 -0.29346197683E+02  0.18886905444E+02 -0.20862710331E+02  0.50528841154E+02  0.29999943173E+02 0.  0.
        -12    1    1    2    0    0  0.29346197683E+02 -0.18886905444E+02  0.20862710331E+02  0.40659158846E+02  0.00000000000E+00 0.  1.
         11    1    3    3    0    0 -0.58909650593E+01  0.13804865480E+02 -0.21727978528E+01  0.15165712348E+02  0.51100000000E-03 0. -1.
        -11    1    3    3    0    0 -0.14536927840E+02 -0.59857642433E+01 -0.11146639183E+02  0.19271720472E+02  0.51100000000E-03 0.  1.
        -12    1    3    3    0    0 -0.89183047832E+01  0.11067804207E+02 -0.75432732950E+01  0.16091408334E+02  0.00000000000E+00 0.  1.
</event>
<event>
 7    1  0.6383621E-011  0.5052888E+02  0.7816164E-02  0.1300439E+00
        -11   -1    0    0    0    0  0.00000000000E+00  0.00000000000E+00  0.45593999997E+02  0.45594000000E+02  0.51100000000E-03 0. -1.
         11   -1    0    0    0    0 -0.00000000000E+00 -0.00000000000E+00 -0.45593999997E+02  0.45594000000E+02  0.51100000000E-03 0.  1.
    9900012    2    1    2    0    0 -0.19337198183E+02 -0.82610253850E+01  0.34799315177E+02  0.50528879119E+02  0.30000058571E+02 0.  0.
        -12    1    1    2    0    0  0.19337198183E+02  0.82610253850E+01 -0.34799315177E+02  0.40659120881E+02  0.00000000000E+00 0.  1.
         11    1    3    3    0    0 -0.36632211080E+01 -0.60596700941E+01  0.10865655344E+02  0.12969242725E+02  0.51100000000E-03 0. -1.
        -11    1    3    3    0    0 -0.93588964938E+00 -0.35267903298E+01 -0.43264836405E+01  0.56597350131E+01  0.51100000000E-03 0.  1.
        -12    1    3    3    0    0 -0.14738087426E+02  0.13254350389E+01  0.28260143474E+02  0.31899901382E+02  0.00000000000E+00 0.  1.
</event>
<event>
 7    1  0.5525118E-011  0.5052886E+02  0.7816164E-02  0.1300439E+00
        -11   -1    0    0    0    0  0.00000000000E+00  0.00000000000E+00  0.45593999997E+02  0.45594000000E+02  0.51100000000E-03 0. -1.
         11   -1    0    0    0    0 -0.00000000000E+00 -0.00000000000E+00 -0.45593999997E+02  0.45594000000E+02  0.51100000000E-03 0.  1.
    9900012    2    1    2    0    0 -0.15759145925E+02 -0.14430640858E+02  0.34591498683E+02  0.50528857646E+02  0.29999993299E+02 0.  0.
        -12    1    1    2    0    0  0.15759145925E+02  0.14430640858E+02 -0.34591498683E+02  0.40659142354E+02  0.00000000000E+00 0.  1.
         11    1    3    3    0    0 -0.82782945826E+01  0.79715665040E+01  0.10291259910E+02  0.15426796962E+02  0.51100000000E-03 0. -1.
        -11    1    3    3    0    0 -0.94935750849E+01 -0.16520096297E+02  0.19335948197E+02  0.27146278612E+02  0.51100000000E-03 0.  1.
         12    1    3    3    0    0  0.20127237419E+01 -0.58821110647E+01  0.49642905767E+01  0.79557820715E+01  0.00000000000E+00 0. -1.
</event>
<event>
 7    1  0.5525118E-011  0.5052886E+02  0.7816164E-02  0.1300439E+00
        -11   -1    0    0    0    0  0.00000000000E+00  0.00000000000E+00  0.45593999997E+02  0.45594000000E+02  0.51100000000E-03 0. -1.
         11   -1    0    0    0    0 -0.00000000000E+00 -0.00000000000E+00 -0.45593999997E+02  0.45594000000E+02  0.51100000000E-03 0.  1.
    9900012    2    1    2    0    0  0.25906645841E+02 -0.31336660414E+02  0.15867416327E+00  0.50528858812E+02  0.29999996845E+02 0.  0.
        -12    1    1    2    0    0 -0.25906645841E+02  0.31336660414E+02 -0.15867416327E+00  0.40659141188E+02  0.00000000000E+00 0.  1.
         11    1    3    3    0    0  0.12076878820E+02 -0.61442591311E+01 -0.38406593960E+01  0.14083805848E+02  0.51100000000E-03 0. -1.
        -11    1    3    3    0    0  0.54411756542E+01 -0.24037735314E+02  0.94268856289E+01  0.26387218203E+02  0.51100000000E-03 0.  1.
        -12    1    3    3    0    0  0.83885913671E+01 -0.11546659688E+01 -0.54275520697E+01  0.10057834762E+02  0.00000000000E+00 0.  1.
</event>
<event>
 7    1  0.5525118E-011  0.5052886E+02  0.7816164E-02  0.1300439E+00
        -11   -1    0    0    0    0  0.00000000000E+00  0.00000000000E+00  0.45593999997E+02  0.45594000000E+02  0.51100000000E-03 0.  1.
         11   -1    0    0    0    0 -0.00000000000E+00 -0.00000000000E+00 -0.45593999997E+02  0.45594000000E+02  0.51100000000E-03 0. -1.
    9900012    2    1    2    0    0  0.25311635872E+01 -0.90540452109E+01 -0.39557337811E+02  0.50528862054E+02  0.30000006701E+02 0.  0.
        -12    1    1    2    0    0 -0.25311635872E+01  0.90540452109E+01  0.39557337811E+02  0.40659137946E+02  0.00000000000E+00 0.  1.
         11    1    3    3    0    0 -0.30598988117E+01 -0.29861735950E+01  0.33121253153E+01  0.54083627692E+01  0.51100000000E-03 0. -1.
        -11    1    3    3    0    0  0.95882921794E+00  0.33548640528E+01 -0.12964603549E+02  0.13425923123E+02  0.51100000000E-03 0.  1.
         12    1    3    3    0    0  0.46322331810E+01 -0.94227356687E+01 -0.29904859578E+02  0.31694576162E+02  0.00000000000E+00 0. -1.
</event>
<event>
 7    1  0.5525118E-011  0.5052885E+02  0.7816164E-02  0.1300439E+00
        -11   -1    0    0    0    0  0.00000000000E+00  0.00000000000E+00  0.45593999997E+02  0.45594000000E+02  0.51100000000E-03 0.  1.
         11   -1    0    0    0    0 -0.00000000000E+00 -0.00000000000E+00 -0.45593999997E+02  0.45594000000E+02  0.51100000000E-03 0. -1.
    9900012    2    1    2    0    0  0.39966976893E+02 -0.11923062391E+01  0.73746395006E+01  0.50528854117E+02  0.29999982575E+02 0.  0.
        -12    1    1    2    0    0 -0.39966976893E+02  0.11923062391E+01 -0.73746395006E+01  0.40659145883E+02  0.00000000000E+00 0.  1.
         11    1    3    3    0    0  0.15320492403E+02 -0.10463406776E+02  0.43627296997E+01  0.19058693018E+02  0.51100000000E-03 0. -1.
        -11    1    3    3    0    0  0.93630797503E+01  0.12566485578E+02  0.20690946708E+01  0.15807117865E+02  0.51100000000E-03 0.  1.
        -12    1    3    3    0    0  0.15283404740E+02 -0.32953850409E+01  0.94281513007E+00  0.15663043235E+02  0.00000000000E+00 0.  1.
</event>
<event>
 7    1  0.5525118E-011  0.5052885E+02  0.7816164E-02  0.1300439E+00
        -11   -1    0    0    0    0  0.00000000000E+00  0.00000000000E+00  0.45593999997E+02  0.45594000000E+02  0.51100000000E-03 0. -1.
         11   -1    0    0    0    0 -0.00000000000E+00 -0.00000000000E+00 -0.45593999997E+02  0.45594000000E+02  0.51100000000E-03 0.  1.
    9900012    2    1    2    0    0  0.25371158965E+02 -0.69908584670E+01  0.30993521711E+02  0.50528853459E+02  0.29999980575E+02 0.  0.
        -12    1    1    2    0    0 -0.25371158965E+02  0.69908584670E+01 -0.30993521711E+02  0.40659146541E+02  0.00000000000E+00 0.  1.
         11    1    3    3    0    0  0.12667102847E+01  0.12322242373E+01  0.16174492450E+02  0.16270744844E+02  0.51100000000E-03 0. -1.
        -11    1    3    3    0    0  0.26090349302E+02 -0.99045540763E+01  0.14937319767E+02  0.31653278506E+02  0.51100000000E-03 0.  1.
        -12    1    3    3    0    0 -0.19859006209E+01  0.16814713720E+01 -0.11829050536E+00  0.26048301086E+01  0.00000000000E+00 0.  1.
</event>
<event>
 7    1  0.5525118E-011  0.5052884E+02  0.7816164E-02  0.1300439E+00
        -11   -1    0    0    0    0  0.00000000000E+00  0.00000000000E+00  0.45593999997E+02  0.45594000000E+02  0.51100000000E-03 0.  1.
         11   -1    0    0    0    0 -0.00000000000E+00 -0.00000000000E+00 -0.45593999997E+02  0.45594000000E+02  0.51100000000E-03 0. -1.
    9900012    2    1    2    0    0 -0.18321001166E+02  0.36285238172E+02 -0.94341777559E+00  0.50528835842E+02  0.29999927025E+02 0.  0.
        -12    1    1    2    0    0  0.18321001166E+02 -0.36285238172E+02  0.94341777559E+00  0.40659164158E+02  0.00000000000E+00 0.  1.
         11    1    3    3    0    0 -0.30445116751E+01  0.59067641666E+01 -0.68953878130E+01  0.95762877782E+01  0.51100000000E-03 0. -1.
        -11    1    3    3    0    0 -0.17771955956E+02  0.11823974741E+02  0.62042316105E+01  0.22229288952E+02  0.51100000000E-03 0.  1.
        -12    1    3    3    0    0  0.24954664654E+01  0.18554499265E+02 -0.25226157311E+00  0.18723259112E+02  0.00000000000E+00 0.  1.
</event>
<event>
 7    1  0.5525118E-011  0.5052887E+02  0.7816164E-02  0.1300439E+00
        -11   -1    0    0    0    0  0.00000000000E+00  0.00000000000E+00  0.45593999997E+02  0.45594000000E+02  0.51100000000E-03 0.  1.
         11   -1    0    0    0    0 -0.00000000000E+00 -0.00000000000E+00 -0.45593999997E+02  0.45594000000E+02  0.51100000000E-03 0. -1.
    9900012    2    1    2    0    0  0.17434181571E+02  0.19455812561E+02 -0.31155829146E+02  0.50528867948E+02  0.30000024615E+02 0.  0.
        -12    1    1    2    0    0 -0.17434181571E+02 -0.19455812561E+02  0.31155829146E+02  0.40659132052E+02  0.00000000000E+00 0.  1.
         11    1    3    3    0    0  0.70588201899E+01  0.92960929014E+01 -0.27056555158E+02  0.29466955441E+02  0.51100000000E-03 0. -1.
        -11    1    3    3    0    0  0.36921270516E+01  0.54252364164E+01  0.54149044472E+01  0.85080069801E+01  0.51100000000E-03 0.  1.
        -12    1    3    3    0    0  0.66832343291E+01  0.47344832427E+01 -0.95141784357E+01  0.12553905527E+02  0.00000000000E+00 0.  1.
</event>
<event>
 7    1  0.5525118E-011  0.5052884E+02  0.7816164E-02  0.1300439E+00
        -11   -1    0    0    0    0  0.00000000000E+00  0.00000000000E+00  0.45593999997E+02  0.45594000000E+02  0.51100000000E-03 0. -1.
         11   -1    0    0    0    0 -0.00000000000E+00 -0.00000000000E+00 -0.45593999997E+02  0.45594000000E+02  0.51100000000E-03 0.  1.
    9900012    2    1    2    0    0 -0.59778800285E+01 -0.15616934339E+02  0.37061348162E+02  0.50528840941E+02  0.29999942524E+02 0.  0.
        -12    1    1    2    0    0  0.59778800285E+01  0.15616934339E+02 -0.37061348162E+02  0.40659159059E+02  0.00000000000E+00 0.  1.
         11    1    3    3    0    0  0.35129186522E+01 -0.99327878679E+01  0.34736932541E+02  0.36299522792E+02  0.51100000000E-03 0. -1.
        -11    1    3    3    0    0 -0.64512592937E+01 -0.79135345929E+01  0.22710242771E+01  0.10459461160E+02  0.51100000000E-03 0.  1.
         12    1    3    3    0    0 -0.30395393870E+01  0.22293881222E+01  0.53391344204E-01  0.37698569893E+01  0.00000000000E+00 0. -1.
</event>
<event>
 7    1  0.5525118E-011  0.5052886E+02  0.7816164E-02  0.1300439E+00
        -11   -1    0    0    0    0  0.00000000000E+00  0.00000000000E+00  0.45593999997E+02  0.45594000000E+02  0.51100000000E-03 0.  1.
         11   -1    0    0    0    0 -0.00000000000E+00 -0.00000000000E+00 -0.45593999997E+02  0.45594000000E+02  0.51100000000E-03 0. -1.
    9900012    2    1    2    0    0  0.37019425113E+01 -0.41197753419E+01 -0.40280131104E+02  0.50528857252E+02  0.29999992105E+02 0.  0.
        -12    1    1    2    0    0 -0.37019425113E+01  0.41197753419E+01  0.40280131104E+02  0.40659142748E+02  0.00000000000E+00 0.  1.
         11    1    3    3    0    0 -0.22121247269E+00  0.57775354881E+01 -0.12135692010E+02  0.13442614035E+02  0.51100000000E-03 0. -1.
        -11    1    3    3    0    0 -0.81673929541E+00 -0.14720086979E+02 -0.10247320411E+02  0.17954264107E+02  0.51100000000E-03 0.  1.
        -12    1    3    3    0    0  0.47398942794E+01  0.48227761486E+01 -0.17897118682E+02  0.19131979111E+02  0.00000000000E+00 0.  1.
</event>
<event>
 7    1  0.5525118E-011  0.5052886E+02  0.7816164E-02  0.1300439E+00
        -11   -1    0    0    0    0  0.00000000000E+00  0.00000000000E+00  0.45593999997E+02  0.45594000000E+02  0.51100000000E-03 0. -1.
         11   -1    0    0    0    0 -0.00000000000E+00 -0.00000000000E+00 -0.45593999997E+02  0.45594000000E+02  0.51100000000E-03 0.  1.
    9900012    2    1    2    0    0 -0.38570457059E+02 -0.21219328428E+01  0.12687908133E+02  0.50528858721E+02  0.29999996569E+02 0.  0.
        -12    1    1    2    0    0  0.38570457059E+02  0.21219328428E+01 -0.12687908133E+02  0.40659141279E+02  0.00000000000E+00 0.  1.
         11    1    3    3    0    0 -0.23456635380E+02 -0.82606658680E+01  0.11698956141E+02  0.27483047847E+02  0.51100000000E-03 0. -1.
        -11    1    3    3    0    0 -0.13228006526E+02  0.63836492690E+01 -0.59528367393E+01  0.15848261739E+02  0.51100000000E-03 0.  1.
        -12    1    3    3    0    0 -0.18858151530E+01 -0.24491624372E+00  0.69417887309E+01  0.71975491344E+01  0.00000000000E+00 0.  1.
</event>
<event>
 7    1  0.5525118E-011  0.5052886E+02  0.7816164E-02  0.1300439E+00
        -11   -1    0    0    0    0  0.00000000000E+00  0.00000000000E+00  0.45593999997E+02  0.45594000000E+02  0.51100000000E-03 0.  1.
         11   -1    0    0    0    0 -0.00000000000E+00 -0.00000000000E+00 -0.45593999997E+02  0.45594000000E+02  0.51100000000E-03 0. -1.
    9900012    2    1    2    0    0 -0.26638007808E+02 -0.23566451493E+02 -0.19702914754E+02  0.50528856554E+02  0.29999989983E+02 0.  0.
        -12    1    1    2    0    0  0.26638007808E+02  0.23566451493E+02  0.19702914754E+02  0.40659143446E+02  0.00000000000E+00 0.  1.
         11    1    3    3    0    0 -0.25494161990E+02 -0.14535623612E+02 -0.15029242897E+02  0.32971423865E+02  0.51100000000E-03 0. -1.
        -11    1    3    3    0    0  0.53815846123E+01 -0.15559733126E+01  0.15901071252E+01  0.58233106408E+01  0.51100000000E-03 0.  1.
        -12    1    3    3    0    0 -0.65254304299E+01 -0.74748545676E+01 -0.62637789824E+01  0.11734122048E+02  0.00000000000E+00 0.  1.
</event>
<event>
 7    1  0.5525118E-011  0.5052886E+02  0.7816164E-02  0.1300439E+00
        -11   -1    0    0    0    0  0.00000000000E+00  0.00000000000E+00  0.45593999997E+02  0.45594000000E+02  0.51100000000E-03 0. -1.
         11   -1    0    0    0    0 -0.00000000000E+00 -0.00000000000E+00 -0.45593999997E+02  0.45594000000E+02  0.51100000000E-03 0.  1.
    9900012    2    1    2    0    0  0.35971461811E+02  0.14219026256E+02 -0.12531501801E+02  0.50528864374E+02  0.30000013750E+02 0.  0.
        -12    1    1    2    0    0 -0.35971461811E+02 -0.14219026256E+02  0.12531501801E+02  0.40659135626E+02  0.00000000000E+00 0.  1.
         11    1    3    3    0    0  0.11198827960E+02  0.41797918824E+01  0.54788644186E+01  0.13149234329E+02  0.51100000000E-03 0. -1.
        -11    1    3    3    0    0  0.22577935421E+02  0.99653473658E+01 -0.21846339303E+02  0.32959579142E+02  0.51100000000E-03 0.  1.
        -12    1    3    3    0    0  0.21946984309E+01  0.73887007522E-01  0.38359730833E+01  0.44200509033E+01  0.00000000000E+00 0.  1.
</event>
<event>
 7    1  0.5525118E-011  0.5052885E+02  0.7816164E-02  0.1300439E+00
        -11   -1    0    0    0    0  0.00000000000E+00  0.00000000000E+00  0.45593999997E+02  0.45594000000E+02  0.51100000000E-03 0.  1.
         11   -1    0    0    0    0 -0.00000000000E+00 -0.00000000000E+00 -0.45593999997E+02  0.45594000000E+02  0.51100000000E-03 0. -1.
    9900012    2    1    2    0    0 -0.30491600646E+01  0.12966948298E+02 -0.38415201280E+02  0.50528845869E+02  0.29999957503E+02 0.  0.
        -12    1    1    2    0    0  0.30491600646E+01 -0.12966948298E+02  0.38415201280E+02  0.40659154131E+02  0.00000000000E+00 0.  1.
         11    1    3    3    0    0  0.31230516035E+01  0.21708863755E+02 -0.24469550328E+02  0.32860114278E+02  0.51100000000E-03 0. -1.
        -11    1    3    3    0    0 -0.40452275191E+01 -0.47227934663E+01 -0.69581078078E+01  0.93318759279E+01  0.51100000000E-03 0.  1.
         12    1    3    3    0    0 -0.21269841490E+01 -0.40191219911E+01 -0.69875431449E+01  0.83368556633E+01  0.00000000000E+00 0. -1.
</event>
<event>
 7    1  0.5525118E-011  0.5052883E+02  0.7816164E-02  0.1300439E+00
        -11   -1    0    0    0    0  0.00000000000E+00  0.00000000000E+00  0.45593999997E+02  0.45594000000E+02  0.51100000000E-03 0.  1.
         11   -1    0    0    0    0 -0.00000000000E+00 -0.00000000000E+00 -0.45593999997E+02  0.45594000000E+02  0.51100000000E-03 0. -1.
    9900012    2    1    2    0    0 -0.28193818944E+02 -0.12849886094E+02 -0.26327884069E+02  0.50528825404E+02  0.29999895298E+02 0.  0.
        -12    1    1    2    0    0  0.28193818944E+02  0.12849886094E+02  0.26327884069E+02  0.40659174596E+02  0.00000000000E+00 0.  1.
         11    1    3    3    0    0 -0.16666649189E+02 -0.18676246379E+01 -0.35380497583E+01  0.17140099572E+02  0.51100000000E-03 0. -1.
        -11    1    3    3    0    0 -0.27558255124E+01 -0.14635944672E+02 -0.13538342516E+02  0.20126901626E+02  0.51100000000E-03 0.  1.
        -12    1    3    3    0    0 -0.87713442427E+01  0.36536832162E+01 -0.92514917941E+01  0.13261824207E+02  0.00000000000E+00 0.  1.
</event>
<event>
 7    1  0.5525118E-011  0.5052886E+02  0.7816164E-02  0.1300439E+00
        -11   -1    0    0    0    0  0.00000000000E+00  0.00000000000E+00  0.45593999997E+02  0.45594000000E+02  0.51100000000E-03 0. -1.
         11   -1    0    0    0    0 -0.00000000000E+00 -0.00000000000E+00 -0.45593999997E+02  0.45594000000E+02  0.51100000000E-03 0.  1.
    9900012    2    1    2    0    0 -0.19803599843E+02  0.14120005117E+02  0.32582337205E+02  0.50528858237E+02  0.29999995096E+02 0.  0.
        -12    1    1    2    0    0  0.19803599843E+02 -0.14120005117E+02 -0.32582337205E+02  0.40659141763E+02  0.00000000000E+00 0.  1.
         11    1    3    3    0    0 -0.12005176794E+02  0.14302834878E+02  0.17294882393E+02  0.25452078749E+02  0.51100000000E-03 0. -1.
        -11    1    3    3    0    0  0.36753843737E+01 -0.28449735437E+00  0.12820976863E+02  0.13340421171E+02  0.51100000000E-03 0.  1.
         12    1    3    3    0    0 -0.11473807422E+02  0.10166759267E+00  0.24664779487E+01  0.11736358316E+02  0.00000000000E+00 0. -1.
</event>
<event>
 7    1  0.5525118E-011  0.5052899E+02  0.7816164E-02  0.1300438E+00
        -11   -1    0    0    0    0  0.00000000000E+00  0.00000000000E+00  0.45593999997E+02  0.45594000000E+02  0.51100000000E-03 0.  1.
         11   -1    0    0    0    0 -0.00000000000E+00 -0.00000000000E+00 -0.45593999997E+02  0.45594000000E+02  0.51100000000E-03 0. -1.
    9900012    2    1    2    0    0  0.32287841777E+02  0.89270460133E+01 -0.23042523914E+02  0.50528993796E+02  0.30000407141E+02 0.  0.
        -12    1    1    2    0    0 -0.32287841777E+02 -0.89270460133E+01  0.23042523914E+02  0.40659006204E+02  0.00000000000E+00 0.  1.
         11    1    3    3    0    0  0.10432056223E+01  0.83629763238E+01 -0.57670683013E+01  0.10212087349E+02  0.51100000000E-03 0. -1.
        -11    1    3    3    0    0  0.27305303013E+02 -0.12636733515E+01 -0.21099400314E+02  0.34530582631E+02  0.51100000000E-03 0.  1.
        -12    1    3    3    0    0  0.39393331417E+01  0.18277430410E+01  0.38239447018E+01  0.57863238163E+01  0.00000000000E+00 0.  1.
</event>
<event>
 7    1  0.5525118E-011  0.5052886E+02  0.7816164E-02  0.1300439E+00
        -11   -1    0    0    0    0  0.00000000000E+00  0.00000000000E+00  0.45593999997E+02  0.45594000000E+02  0.51100000000E-03 0.  1.
         11   -1    0    0    0    0 -0.00000000000E+00 -0.00000000000E+00 -0.45593999997E+02  0.45594000000E+02  0.51100000000E-03 0. -1.
    9900012    2    1    2    0    0  0.31666581399E+02 -0.93592741697E+01 -0.23723341177E+02  0.50528864408E+02  0.30000013854E+02 0.  0.
        -12    1    1    2    0    0 -0.31666581399E+02  0.93592741697E+01  0.23723341177E+02  0.40659135592E+02  0.00000000000E+00 0.  1.
         11    1    3    3    0    0  0.24486926460E+02 -0.11548781147E+02 -0.23168654465E+02  0.35633838741E+02  0.51100000000E-03 0. -1.
        -11    1    3    3    0    0  0.76566544019E+01 -0.31362301819E+01  0.26169875420E+01  0.86780712397E+01  0.51100000000E-03 0.  1.
         12    1    3    3    0    0 -0.47699946236E+00  0.53257371596E+01 -0.31716742542E+01  0.62169544276E+01  0.00000000000E+00 0. -1.
</event>
<event>
 7    1  0.5525118E-011  0.5052886E+02  0.7816164E-02  0.1300439E+00
        -11   -1    0    0    0    0  0.00000000000E+00  0.00000000000E+00  0.45593999997E+02  0.45594000000E+02  0.51100000000E-03 0.  1.
         11   -1    0    0    0    0 -0.00000000000E+00 -0.00000000000E+00 -0.45593999997E+02  0.45594000000E+02  0.51100000000E-03 0. -1.
    9900012    2    1    2    0    0  0.31773590150E+02  0.25358591417E+02 -0.73913961335E+00  0.50528861826E+02  0.30000006006E+02 0.  0.
        -12    1    1    2    0    0 -0.31773590150E+02 -0.25358591417E+02  0.73913961335E+00  0.40659138174E+02  0.00000000000E+00 0.  1.
         11    1    3    3    0    0  0.58730327144E+00  0.14422911128E+02  0.38938277585E+01  0.14950825576E+02  0.51100000000E-03 0. -1.
        -11    1    3    3    0    0  0.30698855952E+02  0.73319621434E+01 -0.48607550324E+01  0.31934375920E+02  0.51100000000E-03 0.  1.
        -12    1    3    3    0    0  0.48743092637E+00  0.36037181452E+01  0.22778766052E+00  0.36436603295E+01  0.00000000000E+00 0.  1.
</event>
<event>
 7    1  0.5525118E-011  0.5052886E+02  0.7816164E-02  0.1300439E+00
        -11   -1    0    0    0    0  0.00000000000E+00  0.00000000000E+00  0.45593999997E+02  0.45594000000E+02  0.51100000000E-03 0.  1.
         11   -1    0    0    0    0 -0.00000000000E+00 -0.00000000000E+00 -0.45593999997E+02  0.45594000000E+02  0.51100000000E-03 0. -1.
    9900012    2    1    2    0    0 -0.13101734979E+02  0.33082673949E+02 -0.19673499833E+02  0.50528863625E+02  0.30000011475E+02 0.  0.
        -12    1    1    2    0    0  0.13101734979E+02 -0.33082673949E+02  0.19673499833E+02  0.40659136375E+02  0.00000000000E+00 0.  1.
         11    1    3    3    0    0 -0.81283648162E+01  0.29502008628E+02 -0.14770079529E+02  0.33979318375E+02  0.51100000000E-03 0. -1.
        -11    1    3    3    0    0 -0.76356756040E+01 -0.45408656675E+00 -0.77914083252E+01  0.10918597918E+02  0.51100000000E-03 0.  1.
        -12    1    3    3    0    0  0.26623054410E+01  0.40347518870E+01  0.28879880206E+01  0.56309473322E+01  0.00000000000E+00 0.  1.
</event>
<event>
 7    1  0.5525118E-011  0.5052886E+02  0.7816164E-02  0.1300439E+00
        -11   -1    0    0    0    0  0.00000000000E+00  0.00000000000E+00  0.45593999997E+02  0.45594000000E+02  0.51100000000E-03 0.  1.
         11   -1    0    0    0    0 -0.00000000000E+00 -0.00000000000E+00 -0.45593999997E+02  0.45594000000E+02  0.51100000000E-03 0. -1.
    9900012    2    1    2    0    0 -0.24675010118E+02  0.91616083367E+01 -0.30989913581E+02  0.50528856682E+02  0.29999990370E+02 0.  0.
        -12    1    1    2    0    0  0.24675010118E+02 -0.91616083367E+01  0.30989913581E+02  0.40659143318E+02  0.00000000000E+00 0.  1.
         11    1    3    3    0    0 -0.83144454431E+01  0.35667080036E+01 -0.36994753259E+01  0.97743300005E+01  0.51100000000E-03 0. -1.
        -11    1    3    3    0    0 -0.15897722915E+02  0.13596898555E+01 -0.31154570775E+02  0.35002766045E+02  0.51100000000E-03 0.  1.
        -12    1    3    3    0    0 -0.46284175989E+00  0.42352104777E+01  0.38641325200E+01  0.57517606363E+01  0.00000000000E+00 0.  1.
</event>
<event>
 7    1  0.5525118E-011  0.5052886E+02  0.7816164E-02  0.1300439E+00
        -11   -1    0    0    0    0  0.00000000000E+00  0.00000000000E+00  0.45593999997E+02  0.45594000000E+02  0.51100000000E-03 0.  1.
         11   -1    0    0    0    0 -0.00000000000E+00 -0.00000000000E+00 -0.45593999997E+02  0.45594000000E+02  0.51100000000E-03 0. -1.
    9900012    2    1    2    0    0  0.31777006769E+02  0.25235927917E+02  0.25564268883E+01  0.50528861600E+02  0.30000005318E+02 0.  0.
        -12    1    1    2    0    0 -0.31777006769E+02 -0.25235927917E+02 -0.25564268883E+01  0.40659138400E+02  0.00000000000E+00 0.  1.
         11    1    3    3    0    0  0.15704769720E+02  0.23115496042E+02 -0.93534687785E+01  0.29469532193E+02  0.51100000000E-03 0. -1.
        -11    1    3    3    0    0  0.62312625955E+01  0.15071214113E+01  0.84566942239E+01  0.10612055689E+02  0.51100000000E-03 0.  1.
         12    1    3    3    0    0  0.98409744542E+01  0.61331046313E+00  0.34532014429E+01  0.10447273718E+02  0.00000000000E+00 0. -1.
</event>
<event>
 7    1  0.5525118E-011  0.5052885E+02  0.7816164E-02  0.1300439E+00
        -11   -1    0    0    0    0  0.00000000000E+00  0.00000000000E+00  0.45593999997E+02  0.45594000000E+02  0.51100000000E-03 0. -1.
         11   -1    0    0    0    0 -0.00000000000E+00 -0.00000000000E+00 -0.45593999997E+02  0.45594000000E+02  0.51100000000E-03 0.  1.
    9900012    2    1    2    0    0 -0.24986620234E+02 -0.12984943648E+02  0.29329614037E+02  0.50528853282E+02  0.29999980037E+02 0.  0.
        -12    1    1    2    0    0  0.24986620234E+02  0.12984943648E+02 -0.29329614037E+02  0.40659146718E+02  0.00000000000E+00 0.  1.
         11    1    3    3    0    0 -0.45391663871E+01 -0.33459183736E+01  0.76339697855E+01  0.94908743643E+01  0.51100000000E-03 0. -1.
        -11    1    3    3    0    0 -0.13318231646E+01 -0.50966501109E+01 -0.54160744496E+01  0.75553595546E+01  0.51100000000E-03 0.  1.
        -12    1    3    3    0    0 -0.19115630682E+02 -0.45423751631E+01  0.27111718701E+02  0.33482619363E+02  0.00000000000E+00 0.  1.
</event>
<event>
 7    1  0.5525118E-011  0.5052886E+02  0.7816164E-02  0.1300439E+00
        -11   -1    0    0    0    0  0.00000000000E+00  0.00000000000E+00  0.45593999997E+02  0.45594000000E+02  0.51100000000E-03 0.  1.
         11   -1    0    0    0    0 -0.00000000000E+00 -0.00000000000E+00 -0.45593999997E+02  0.45594000000E+02  0.51100000000E-03 0. -1.
    9900012    2    1    2    0    0  0.20782734731E+02 -0.16527048004E+02 -0.30791234574E+02  0.50528861972E+02  0.30000006450E+02 0.  0.
        -12    1    1    2    0    0 -0.20782734731E+02  0.16527048004E+02  0.30791234574E+02  0.40659138028E+02  0.00000000000E+00 0.  1.
         11    1    3    3    0    0  0.26682612029E+01 -0.17804186459E+02 -0.20050776140E+02  0.26947027617E+02  0.51100000000E-03 0. -1.
        -11    1    3    3    0    0  0.87625461318E+01  0.31126507335E+01 -0.10296191711E+00  0.92995381991E+01  0.51100000000E-03 0.  1.
        -12    1    3    3    0    0  0.93519273959E+01 -0.18355122789E+01 -0.10637496516E+02  0.14282296156E+02  0.00000000000E+00 0.  1.
</event>
<event>
 7    1  0.5525118E-011  0.5052884E+02  0.7816164E-02  0.1300439E+00
        -11   -1    0    0    0    0  0.00000000000E+00  0.00000000000E+00  0.45593999997E+02  0.45594000000E+02  0.51100000000E-03 0.  1.
         11   -1    0    0    0    0 -0.00000000000E+00 -0.00000000000E+00 -0.45593999997E+02  0.45594000000E+02  0.51100000000E-03 0. -1.
    9900012    2    1    2    0    0  0.10466976472E+02  0.31946243134E+02 -0.22870217426E+02  0.50528844918E+02  0.29999954613E+02 0.  0.
        -12    1    1    2    0    0 -0.10466976472E+02 -0.31946243134E+02  0.22870217426E+02  0.40659155082E+02  0.00000000000E+00 0.  1.
         11    1    3    3    0    0  0.10138190037E+02  0.15147625661E+02 -0.16460315817E+02  0.24559630645E+02  0.51100000000E-03 0. -1.
        -11    1    3    3    0    0 -0.35146546429E+01  0.19911022746E+02 -0.52531301226E+01  0.20890117290E+02  0.51100000000E-03 0.  1.
        -12    1    3    3    0    0  0.38434410774E+01 -0.31124052718E+01 -0.11567714869E+01  0.50790969831E+01  0.00000000000E+00 0.  1.
</event>
<event>
 7    1  0.5525118E-011  0.5052880E+02  0.7816164E-02  0.1300439E+00
        -11   -1    0    0    0    0  0.00000000000E+00  0.00000000000E+00  0.45593999997E+02  0.45594000000E+02  0.51100000000E-03 0.  1.
         11   -1    0    0    0    0 -0.00000000000E+00 -0.00000000000E+00 -0.45593999997E+02  0.45594000000E+02  0.51100000000E-03 0. -1.
    9900012    2    1    2    0    0 -0.23299728849E+02 -0.32336645511E+02 -0.80395743891E+01  0.50528797306E+02  0.29999809891E+02 0.  0.
        -12    1    1    2    0    0  0.23299728849E+02  0.32336645511E+02  0.80395743891E+01  0.40659202694E+02  0.00000000000E+00 0.  1.
         11    1    3    3    0    0 -0.25542649131E+01 -0.64987001447E+01 -0.22558382767E+01  0.73379955988E+01  0.51100000000E-03 0. -1.
        -11    1    3    3    0    0  0.24780983859E+01 -0.16416890072E+01 -0.90199115056E+01  0.94971005174E+01  0.51100000000E-03 0.  1.
        -12    1    3    3    0    0 -0.23223562322E+02 -0.24196256359E+02  0.32361753932E+01  0.33693701190E+02  0.00000000000E+00 0.  1.
</event>
<event>
 7    1  0.5525118E-011  0.5052889E+02  0.7816164E-02  0.1300439E+00
        -11   -1    0    0    0    0  0.00000000000E+00  0.00000000000E+00  0.45593999997E+02  0.45594000000E+02  0.51100000000E-03 0. -1.
         11   -1    0    0    0    0 -0.00000000000E+00 -0.00000000000E+00 -0.45593999997E+02  0.45594000000E+02  0.51100000000E-03 0.  1.
    9900012    2    1    2    0    0  0.26698140193E+02  0.14166668796E+02  0.27197029374E+02  0.50528885385E+02  0.30000077615E+02 0.  0.
        -12    1    1    2    0    0 -0.26698140193E+02 -0.14166668796E+02 -0.27197029374E+02  0.40659114615E+02  0.00000000000E+00 0.  1.
         11    1    3    3    0    0  0.22020010544E+02  0.15047393051E+02  0.29247692817E+02  0.39581971115E+02  0.51100000000E-03 0. -1.
        -11    1    3    3    0    0  0.64307923688E+01 -0.37092594087E+01 -0.15068592836E+01  0.75752439573E+01  0.51100000000E-03 0.  1.
        -12    1    3    3    0    0 -0.17526627203E+01  0.28285351545E+01 -0.54380415907E+00  0.33716703123E+01  0.00000000000E+00 0.  1.
</event>
<event>
 7    1  0.5525118E-011  0.5052888E+02  0.7816164E-02  0.1300439E+00
        -11   -1    0    0    0    0  0.00000000000E+00  0.00000000000E+00  0.45593999997E+02  0.45594000000E+02  0.51100000000E-03 0.  1.
         11   -1    0    0    0    0 -0.00000000000E+00 -0.00000000000E+00 -0.45593999997E+02  0.45594000000E+02  0.51100000000E-03 0. -1.
    9900012    2    1    2    0    0  0.16008119158E+02 -0.30232915294E+02 -0.21974425316E+02  0.50528875389E+02  0.30000047234E+02 0.  0.
        -12    1    1    2    0    0 -0.16008119158E+02  0.30232915294E+02  0.21974425316E+02  0.40659124611E+02  0.00000000000E+00 0.  1.
         11    1    3    3    0    0  0.85284316361E+01 -0.33799952908E+02 -0.20534111155E+02  0.40457640613E+02  0.51100000000E-03 0. -1.
        -11    1    3    3    0    0  0.49135393604E+01  0.51522802322E+00  0.14473248846E+01  0.51481140765E+01  0.51100000000E-03 0.  1.
         12    1    3    3    0    0  0.25661481615E+01  0.30518095914E+01 -0.28876390453E+01  0.49231206998E+01  0.00000000000E+00 0. -1.
</event>
<event>
 7    1  0.5525118E-011  0.5052888E+02  0.7816164E-02  0.1300439E+00
        -11   -1    0    0    0    0  0.00000000000E+00  0.00000000000E+00  0.45593999997E+02  0.45594000000E+02  0.51100000000E-03 0.  1.
         11   -1    0    0    0    0 -0.00000000000E+00 -0.00000000000E+00 -0.45593999997E+02  0.45594000000E+02  0.51100000000E-03 0. -1.
    9900012    2    1    2    0    0  0.17367761676E+02  0.22801973809E+02 -0.28837384095E+02  0.50528881998E+02  0.30000067322E+02 0.  0.
        -12    1    1    2    0    0 -0.17367761676E+02 -0.22801973809E+02  0.28837384095E+02  0.40659118002E+02  0.00000000000E+00 0.  1.
         11    1    3    3    0    0  0.21245218903E+01  0.87870327345E+01 -0.11375339335E+02  0.14530102642E+02  0.51100000000E-03 0. -1.
        -11    1    3    3    0    0  0.17206383884E+02  0.27308820614E+00 -0.12451254138E+02  0.21240714521E+02  0.51100000000E-03 0.  1.
        -12    1    3    3    0    0 -0.19631440983E+01  0.13741852869E+02 -0.50107906233E+01  0.14758064835E+02  0.00000000000E+00 0.  1.
</event>
<event>
 7    1  0.5525118E-011  0.5052888E+02  0.7816164E-02  0.1300439E+00
        -11   -1    0    0    0    0  0.00000000000E+00  0.00000000000E+00  0.45593999997E+02  0.45594000000E+02  0.51100000000E-03 0. -1.
         11   -1    0    0    0    0 -0.00000000000E+00 -0.00000000000E+00 -0.45593999997E+02  0.45594000000E+02  0.51100000000E-03 0.  1.
    9900012    2    1    2    0    0 -0.19250779750E+00  0.27885187986E+02  0.29589587033E+02  0.50528875206E+02  0.30000046675E+02 0.  0.
        -12    1    1    2    0    0  0.19250779750E+00 -0.27885187986E+02 -0.29589587033E+02  0.40659124794E+02  0.00000000000E+00 0.  1.
         11    1    3    3    0    0 -0.62110776352E+01  0.26626835198E+02  0.20250424785E+02  0.34024190546E+02  0.51100000000E-03 0. -1.
        -11    1    3    3    0    0  0.57347878118E+01  0.46622729157E+01  0.95607341930E+00  0.74524262245E+01  0.51100000000E-03 0.  1.
         12    1    3    3    0    0  0.28378202587E+00 -0.34039201278E+01  0.83830888286E+01  0.90522584355E+01  0.00000000000E+00 0. -1.
</event>
<event>
 7    1  0.5525118E-011  0.5052886E+02  0.7816164E-02  0.1300439E+00
        -11   -1    0    0    0    0  0.00000000000E+00  0.00000000000E+00  0.45593999997E+02  0.45594000000E+02  0.51100000000E-03 0.  1.
         11   -1    0    0    0    0 -0.00000000000E+00 -0.00000000000E+00 -0.45593999997E+02  0.45594000000E+02  0.51100000000E-03 0. -1.
    9900012    2    1    2    0    0  0.23450835343E+02 -0.16869546491E+02 -0.28611928391E+02  0.50528859289E+02  0.29999998295E+02 0.  0.
        -12    1    1    2    0    0 -0.23450835343E+02  0.16869546491E+02  0.28611928391E+02  0.40659140711E+02  0.00000000000E+00 0.  1.
         11    1    3    3    0    0  0.14845045938E+02 -0.11041116733E+02 -0.28658848462E+02  0.34111746408E+02  0.51100000000E-03 0. -1.
        -11    1    3    3    0    0  0.11038277510E+02 -0.30030661049E+01 -0.27391742729E+01  0.11762867523E+02  0.51100000000E-03 0.  1.
         12    1    3    3    0    0 -0.24324881049E+01 -0.28253636534E+01  0.27860943437E+01  0.46542453573E+01  0.00000000000E+00 0. -1.
</event>
<event>
 7    1  0.5525118E-011  0.5052887E+02  0.7816164E-02  0.1300439E+00
        -11   -1    0    0    0    0  0.00000000000E+00  0.00000000000E+00  0.45593999997E+02  0.45594000000E+02  0.51100000000E-03 0. -1.
         11   -1    0    0    0    0 -0.00000000000E+00 -0.00000000000E+00 -0.45593999997E+02  0.45594000000E+02  0.51100000000E-03 0.  1.
    9900012    2    1    2    0    0  0.39118069869E+02 -0.11063193729E+02  0.73964947424E+00  0.50528871540E+02  0.30000035534E+02 0.  0.
        -12    1    1    2    0    0 -0.39118069869E+02  0.11063193729E+02 -0.73964947424E+00  0.40659128460E+02  0.00000000000E+00 0.  1.
         11    1    3    3    0    0  0.28001456270E+02 -0.36238439567E+01  0.61560449854E+01  0.28898281755E+02  0.51100000000E-03 0. -1.
        -11    1    3    3    0    0  0.55173555103E+01  0.31092817841E+01 -0.71626814597E+01  0.95610067982E+01  0.51100000000E-03 0.  1.
         12    1    3    3    0    0  0.55992580882E+01 -0.10548631557E+02  0.17462859486E+01  0.12069582987E+02  0.00000000000E+00 0. -1.
</event>
<event>
 7    1  0.5525118E-011  0.5052886E+02  0.7816164E-02  0.1300439E+00
        -11   -1    0    0    0    0  0.00000000000E+00  0.00000000000E+00  0.45593999997E+02  0.45594000000E+02  0.51100000000E-03 0.  1.
         11   -1    0    0    0    0 -0.00000000000E+00 -0.00000000000E+00 -0.45593999997E+02  0.45594000000E+02  0.51100000000E-03 0. -1.
    9900012    2    1    2    0    0  0.11092143323E+02  0.38092025659E+02 -0.88953643467E+01  0.50528861185E+02  0.30000004057E+02 0.  0.
        -12    1    1    2    0    0 -0.11092143323E+02 -0.38092025659E+02  0.88953643467E+01  0.40659138815E+02  0.00000000000E+00 0.  1.
         11    1    3    3    0    0  0.71146559240E+01 -0.75892196725E+00  0.24287148663E+01  0.75559875352E+01  0.51100000000E-03 0.  1.
        -11    1    3    3    0    0  0.73588568566E+01  0.29376855268E+02 -0.12661793861E+02  0.32824890308E+02  0.51100000000E-03 0. -1.
        -12    1    3    3    0    0 -0.33813694573E+01  0.94740923587E+01  0.13377146478E+01  0.10147983342E+02  0.00000000000E+00 0.  1.
</event>
<event>
 7    1  0.5525118E-011  0.5052886E+02  0.7816164E-02  0.1300439E+00
        -11   -1    0    0    0    0  0.00000000000E+00  0.00000000000E+00  0.45593999997E+02  0.45594000000E+02  0.51100000000E-03 0. -1.
         11   -1    0    0    0    0 -0.00000000000E+00 -0.00000000000E+00 -0.45593999997E+02  0.45594000000E+02  0.51100000000E-03 0.  1.
    9900012    2    1    2    0    0 -0.80044631660E+01 -0.35095672245E+02  0.18904713207E+02  0.50528858072E+02  0.29999994594E+02 0.  0.
        -12    1    1    2    0    0  0.80044631660E+01  0.35095672245E+02 -0.18904713207E+02  0.40659141928E+02  0.00000000000E+00 0.  1.
         11    1    3    3    0    0 -0.52450273847E+01 -0.79814452526E+01 -0.40778395045E+01  0.10384727049E+02  0.51100000000E-03 0. -1.
        -11    1    3    3    0    0  0.72236633731E+01 -0.17864860797E+02  0.12553963296E+02  0.22998620796E+02  0.51100000000E-03 0.  1.
        -12    1    3    3    0    0 -0.99830991544E+01 -0.92493661958E+01  0.10428589416E+02  0.17145510228E+02  0.00000000000E+00 0.  1.
</event>
<event>
 7    1  0.5525118E-011  0.5052886E+02  0.7816164E-02  0.1300439E+00
        -11   -1    0    0    0    0  0.00000000000E+00  0.00000000000E+00  0.45593999997E+02  0.45594000000E+02  0.51100000000E-03 0.  1.
         11   -1    0    0    0    0 -0.00000000000E+00 -0.00000000000E+00 -0.45593999997E+02  0.45594000000E+02  0.51100000000E-03 0. -1.
    9900012    2    1    2    0    0 -0.93301327043E+01  0.27767777433E+02 -0.28196899069E+02  0.50528856416E+02  0.29999989563E+02 0.  0.
        -12    1    1    2    0    0  0.93301327043E+01 -0.27767777433E+02  0.28196899069E+02  0.40659143584E+02  0.00000000000E+00 0.  1.
         11    1    3    3    0    0 -0.62103135920E+01  0.86481869056E+01 -0.53085861758E+01  0.11897067669E+02  0.51100000000E-03 0. -1.
        -11    1    3    3    0    0  0.65270009108E+01  0.11371944304E+02 -0.22750143736E+02  0.26258177744E+02  0.51100000000E-03 0.  1.
        -12    1    3    3    0    0 -0.96468200231E+01  0.77476462235E+01 -0.13816915698E+00  0.12373611004E+02  0.00000000000E+00 0.  1.
</event>
<event>
 7    1  0.5525118E-011  0.5052886E+02  0.7816164E-02  0.1300439E+00
        -11   -1    0    0    0    0  0.00000000000E+00  0.00000000000E+00  0.45593999997E+02  0.45594000000E+02  0.51100000000E-03 0.  1.
         11   -1    0    0    0    0 -0.00000000000E+00 -0.00000000000E+00 -0.45593999997E+02  0.45594000000E+02  0.51100000000E-03 0. -1.
    9900012    2    1    2    0    0 -0.20455399409E+02  0.35120443052E+02 -0.11386815495E+01  0.50528862272E+02  0.30000007361E+02 0.  0.
        -12    1    1    2    0    0  0.20455399409E+02 -0.35120443052E+02  0.11386815495E+01  0.40659137728E+02  0.00000000000E+00 0.  1.
         11    1    3    3    0    0 -0.11369157008E+02  0.25273988487E+02  0.75546961944E+01  0.28724652477E+02  0.51100000000E-03 0. -1.
        -11    1    3    3    0    0 -0.35455123364E+00 -0.26035801885E+01 -0.57406437032E+01  0.63134243294E+01  0.51100000000E-03 0.  1.
        -12    1    3    3    0    0 -0.87316911675E+01  0.12450034754E+02 -0.29527340408E+01  0.15490785465E+02  0.00000000000E+00 0.  1.
</event>
<event>
 7    1  0.5525118E-011  0.5052886E+02  0.7816164E-02  0.1300439E+00
        -11   -1    0    0    0    0  0.00000000000E+00  0.00000000000E+00  0.45593999997E+02  0.45594000000E+02  0.51100000000E-03 0.  1.
         11   -1    0    0    0    0 -0.00000000000E+00 -0.00000000000E+00 -0.45593999997E+02  0.45594000000E+02  0.51100000000E-03 0. -1.
    9900012    2    1    2    0    0 -0.58118094364E+01  0.34325687857E+02 -0.21003233595E+02  0.50528858380E+02  0.29999995533E+02 0.  0.
        -12    1    1    2    0    0  0.58118094364E+01 -0.34325687857E+02  0.21003233595E+02  0.40659141620E+02  0.00000000000E+00 0.  1.
         11    1    3    3    0    0 -0.86870148633E+01  0.24597021781E+02 -0.18069541848E+02  0.31733043512E+02  0.51100000000E-03 0. -1.
        -11    1    3    3    0    0  0.10352086455E+00 -0.42678790289E+01 -0.11125804318E+01  0.44117279441E+01  0.51100000000E-03 0.  1.
        -12    1    3    3    0    0  0.27716845624E+01  0.13996545106E+02 -0.18211113151E+01  0.14384086924E+02  0.00000000000E+00 0.  1.
</event>
<event>
 7    1  0.5525118E-011  0.5052891E+02  0.7816164E-02  0.1300439E+00
        -11   -1    0    0    0    0  0.00000000000E+00  0.00000000000E+00  0.45593999997E+02  0.45594000000E+02  0.51100000000E-03 0.  1.
         11   -1    0    0    0    0 -0.00000000000E+00 -0.00000000000E+00 -0.45593999997E+02  0.45594000000E+02  0.51100000000E-03 0. -1.
    9900012    2    1    2    0    0 -0.16255868449E+02 -0.11539192522E+02 -0.35436636547E+02  0.50528912051E+02  0.30000158670E+02 0.  0.
        -12    1    1    2    0    0  0.16255868449E+02  0.11539192522E+02  0.35436636547E+02  0.40659087949E+02  0.00000000000E+00 0.  1.
         11    1    3    3    0    0 -0.27388155127E+01 -0.65184129713E+01 -0.28537067763E+02  0.29399915898E+02  0.51100000000E-03 0. -1.
        -11    1    3    3    0    0 -0.21305574967E+01 -0.61687907673E+01  0.17810771106E+01  0.67650196387E+01  0.51100000000E-03 0.  1.
         12    1    3    3    0    0 -0.11386495439E+02  0.11480112163E+01 -0.86806458948E+01  0.14363976514E+02  0.00000000000E+00 0. -1.
</event>
<event>
 7    1  0.5525118E-011  0.5052886E+02  0.7816164E-02  0.1300439E+00
        -11   -1    0    0    0    0  0.00000000000E+00  0.00000000000E+00  0.45593999997E+02  0.45594000000E+02  0.51100000000E-03 0.  1.
         11   -1    0    0    0    0 -0.00000000000E+00 -0.00000000000E+00 -0.45593999997E+02  0.45594000000E+02  0.51100000000E-03 0. -1.
    9900012    2    1    2    0    0 -0.35992899084E+02  0.53380765569E+01 -0.18143373783E+02  0.50528857633E+02  0.29999993260E+02 0.  0.
        -12    1    1    2    0    0  0.35992899084E+02 -0.53380765569E+01  0.18143373783E+02  0.40659142367E+02  0.00000000000E+00 0.  1.
         11    1    3    3    0    0 -0.16849094809E+02 -0.56440541785E+01 -0.35406055766E+01  0.18118588012E+02  0.51100000000E-03 0. -1.
        -11    1    3    3    0    0 -0.86511353327E+01  0.97834073467E+01  0.15080477764E+01  0.13146536054E+02  0.51100000000E-03 0.  1.
        -12    1    3    3    0    0 -0.10492668943E+02  0.11987233887E+01 -0.16110815982E+02  0.19263733566E+02  0.00000000000E+00 0.  1.
</event>
<event>
 7    1  0.5525118E-011  0.5052885E+02  0.7816164E-02  0.1300439E+00
        -11   -1    0    0    0    0  0.00000000000E+00  0.00000000000E+00  0.45593999997E+02  0.45594000000E+02  0.51100000000E-03 0.  1.
         11   -1    0    0    0    0 -0.00000000000E+00 -0.00000000000E+00 -0.45593999997E+02  0.45594000000E+02  0.51100000000E-03 0. -1.
    9900012    2    1    2    0    0  0.55201764545E+01  0.38164044057E+02 -0.12891846614E+02  0.50528852001E+02  0.29999976143E+02 0.  0.
        -12    1    1    2    0    0 -0.55201764545E+01 -0.38164044057E+02  0.12891846614E+02  0.40659147999E+02  0.00000000000E+00 0.  1.
         11    1    3    3    0    0 -0.26532674137E+01  0.30626200611E+02 -0.13941122403E+02  0.33754390617E+02  0.51100000000E-03 0. -1.
        -11    1    3    3    0    0  0.10597797861E+02  0.89461509891E+01  0.14407223692E+01  0.13943551134E+02  0.51100000000E-03 0.  1.
         12    1    3    3    0    0 -0.24243539927E+01 -0.14083075433E+01 -0.39144658071E+00  0.28309102501E+01  0.00000000000E+00 0. -1.
</event>
<event>
 7    1  0.5525118E-011  0.5052886E+02  0.7816164E-02  0.1300439E+00
        -11   -1    0    0    0    0  0.00000000000E+00  0.00000000000E+00  0.45593999997E+02  0.45594000000E+02  0.51100000000E-03 0.  1.
         11   -1    0    0    0    0 -0.00000000000E+00 -0.00000000000E+00 -0.45593999997E+02  0.45594000000E+02  0.51100000000E-03 0. -1.
    9900012    2    1    2    0    0 -0.25995315954E+01  0.63259030791E+01 -0.40079813432E+02  0.50528855161E+02  0.29999985748E+02 0.  0.
        -12    1    1    2    0    0  0.25995315954E+01 -0.63259030791E+01  0.40079813432E+02  0.40659144839E+02  0.00000000000E+00 0.  1.
         11    1    3    3    0    0 -0.60499473960E+01  0.69093028274E+01 -0.41043766235E+02  0.42058662319E+02  0.51100000000E-03 0. -1.
        -11    1    3    3    0    0  0.29403547569E+01 -0.38297428872E+01 -0.53583126165E+00  0.48579555454E+01  0.51100000000E-03 0.  1.
         12    1    3    3    0    0  0.51006104366E+00  0.32463431389E+01  0.14997840650E+01  0.36122372964E+01  0.00000000000E+00 0. -1.
</event>
<event>
 7    1  0.5525118E-011  0.5052886E+02  0.7816164E-02  0.1300439E+00
        -11   -1    0    0    0    0  0.00000000000E+00  0.00000000000E+00  0.45593999997E+02  0.45594000000E+02  0.51100000000E-03 0.  1.
         11   -1    0    0    0    0 -0.00000000000E+00 -0.00000000000E+00 -0.45593999997E+02  0.45594000000E+02  0.51100000000E-03 0. -1.
    9900012    2    1    2    0    0 -0.24569395606E+02  0.19633133949E+02 -0.25769180028E+02  0.50528858488E+02  0.29999995861E+02 0.  0.
        -12    1    1    2    0    0  0.24569395606E+02 -0.19633133949E+02  0.25769180028E+02  0.40659141512E+02  0.00000000000E+00 0.  1.
         11    1    3    3    0    0 -0.69007908281E+01  0.96201843896E+01 -0.20550591630E+02  0.23716991343E+02  0.51100000000E-03 0. -1.
        -11    1    3    3    0    0 -0.46780301616E+01 -0.39633694155E+01  0.19417974777E+01  0.64313949515E+01  0.51100000000E-03 0.  1.
        -12    1    3    3    0    0 -0.12990574617E+02  0.13976318975E+02 -0.71603858758E+01  0.20380472194E+02  0.00000000000E+00 0.  1.
</event>
<event>
 7    1  0.5525118E-011  0.5052892E+02  0.7816164E-02  0.1300439E+00
        -11   -1    0    0    0    0  0.00000000000E+00  0.00000000000E+00  0.45593999997E+02  0.45594000000E+02  0.51100000000E-03 0. -1.
         11   -1    0    0    0    0 -0.00000000000E+00 -0.00000000000E+00 -0.45593999997E+02  0.45594000000E+02  0.51100000000E-03 0.  1.
    9900012    2    1    2    0    0 -0.73560572878E+01  0.16587661782E+02  0.36385419855E+02  0.50528918846E+02  0.30000179325E+02 0.  0.
        -12    1    1    2    0    0  0.73560572878E+01 -0.16587661782E+02 -0.36385419855E+02  0.40659081154E+02  0.00000000000E+00 0.  1.
         11    1    3    3    0    0 -0.12559821144E+02  0.62849584460E+01  0.29112415850E+02  0.32323096490E+02  0.51100000000E-03 0. -1.
        -11    1    3    3    0    0  0.50659910896E+01 -0.46197379523E+00 -0.21603216824E+00  0.50915965734E+01  0.51100000000E-03 0.  1.
         12    1    3    3    0    0  0.13777276656E+00  0.10764677131E+02  0.74890361741E+01  0.13114225783E+02  0.00000000000E+00 0. -1.
</event>
<event>
 7    1  0.5525118E-011  0.5052887E+02  0.7816164E-02  0.1300439E+00
        -11   -1    0    0    0    0  0.00000000000E+00  0.00000000000E+00  0.45593999997E+02  0.45594000000E+02  0.51100000000E-03 0.  1.
         11   -1    0    0    0    0 -0.00000000000E+00 -0.00000000000E+00 -0.45593999997E+02  0.45594000000E+02  0.51100000000E-03 0. -1.
    9900012    2    1    2    0    0  0.14436991786E+02 -0.35830775280E+02 -0.12684393935E+02  0.50528867711E+02  0.30000023896E+02 0.  0.
        -12    1    1    2    0    0 -0.14436991786E+02  0.35830775280E+02  0.12684393935E+02  0.40659132289E+02  0.00000000000E+00 0.  1.
         11    1    3    3    0    0  0.89604987268E+01 -0.12719775942E+02 -0.98759656403E+01  0.18428725812E+02  0.51100000000E-03 0. -1.
        -11    1    3    3    0    0  0.11072279246E+02 -0.12722373520E+02  0.54192607802E+01  0.17715037210E+02  0.51100000000E-03 0.  1.
        -12    1    3    3    0    0 -0.55957861870E+01 -0.10388625817E+02 -0.82276890748E+01  0.14385104689E+02  0.00000000000E+00 0.  1.
</event>
<event>
 7    1  0.5525118E-011  0.5052885E+02  0.7816164E-02  0.1300439E+00
        -11   -1    0    0    0    0  0.00000000000E+00  0.00000000000E+00  0.45593999997E+02  0.45594000000E+02  0.51100000000E-03 0.  1.
         11   -1    0    0    0    0 -0.00000000000E+00 -0.00000000000E+00 -0.45593999997E+02  0.45594000000E+02  0.51100000000E-03 0. -1.
    9900012    2    1    2    0    0  0.10168467729E+02 -0.33237358119E+01 -0.39226538123E+02  0.50528852827E+02  0.29999978654E+02 0.  0.
        -12    1    1    2    0    0 -0.10168467729E+02  0.33237358119E+01  0.39226538123E+02  0.40659147173E+02  0.00000000000E+00 0.  1.
         11    1    3    3    0    0  0.10862592027E+02 -0.13311393002E+02 -0.23357815570E+02  0.28996148670E+02  0.51100000000E-03 0. -1.
        -11    1    3    3    0    0 -0.30500963056E+01 -0.24561461527E+00 -0.79445006793E+00  0.31614182236E+01  0.51100000000E-03 0.  1.
         12    1    3    3    0    0  0.23559720076E+01  0.10233271805E+02 -0.15074272485E+02  0.18371285934E+02  0.00000000000E+00 0. -1.
</event>
<event>
 7    1  0.5525118E-011  0.5052886E+02  0.7816164E-02  0.1300439E+00
        -11   -1    0    0    0    0  0.00000000000E+00  0.00000000000E+00  0.45593999997E+02  0.45594000000E+02  0.51100000000E-03 0.  1.
         11   -1    0    0    0    0 -0.00000000000E+00 -0.00000000000E+00 -0.45593999997E+02  0.45594000000E+02  0.51100000000E-03 0. -1.
    9900012    2    1    2    0    0  0.18287568039E+02 -0.36272690345E+02 -0.17386169758E+01  0.50528855904E+02  0.29999988006E+02 0.  0.
        -12    1    1    2    0    0 -0.18287568039E+02  0.36272690345E+02  0.17386169758E+01  0.40659144096E+02  0.00000000000E+00 0.  1.
         11    1    3    3    0    0  0.21674374659E+02 -0.25582197580E+02 -0.42527067587E+01  0.33798119251E+02  0.51100000000E-03 0. -1.
        -11    1    3    3    0    0 -0.79923390904E+01 -0.70787488546E+01  0.19217481266E+01  0.10848008370E+02  0.51100000000E-03 0.  1.
        -12    1    3    3    0    0  0.46055324705E+01 -0.36117439098E+01  0.59234165631E+00  0.58827282824E+01  0.00000000000E+00 0.  1.
</event>
<event>
 7    1  0.5525118E-011  0.5052887E+02  0.7816164E-02  0.1300439E+00
        -11   -1    0    0    0    0  0.00000000000E+00  0.00000000000E+00  0.45593999997E+02  0.45594000000E+02  0.51100000000E-03 0. -1.
         11   -1    0    0    0    0 -0.00000000000E+00 -0.00000000000E+00 -0.45593999997E+02  0.45594000000E+02  0.51100000000E-03 0.  1.
    9900012    2    1    2    0    0 -0.37853117339E+02 -0.11514689037E+02 -0.93658044502E+01  0.50528870042E+02  0.30000030981E+02 0.  0.
        -12    1    1    2    0    0  0.37853117339E+02  0.11514689037E+02  0.93658044502E+01  0.40659129958E+02  0.00000000000E+00 0.  1.
         11    1    3    3    0    0 -0.10715966145E+02  0.22651421728E+01 -0.90851985862E+01  0.14230377124E+02  0.51100000000E-03 0.  1.
        -11    1    3    3    0    0 -0.14352035830E+02 -0.94203657379E+01  0.95006275120E+01  0.19621063847E+02  0.51100000000E-03 0. -1.
         12    1    3    3    0    0 -0.12785115364E+02 -0.43594654714E+01 -0.97812333760E+01  0.16677429071E+02  0.00000000000E+00 0. -1.
</event>
<event>
 7    1  0.5525118E-011  0.5052886E+02  0.7816164E-02  0.1300439E+00
        -11   -1    0    0    0    0  0.00000000000E+00  0.00000000000E+00  0.45593999997E+02  0.45594000000E+02  0.51100000000E-03 0. -1.
         11   -1    0    0    0    0 -0.00000000000E+00 -0.00000000000E+00 -0.45593999997E+02  0.45594000000E+02  0.51100000000E-03 0.  1.
    9900012    2    1    2    0    0 -0.30561399142E+02 -0.12637111044E+02  0.23653113178E+02  0.50528862576E+02  0.30000008286E+02 0.  0.
        -12    1    1    2    0    0  0.30561399142E+02  0.12637111044E+02 -0.23653113178E+02  0.40659137424E+02  0.00000000000E+00 0.  1.
         11    1    3    3    0    0 -0.39637522593E+01 -0.39728432038E+01  0.86663591858E+01  0.10324756505E+02  0.51100000000E-03 0. -1.
        -11    1    3    3    0    0 -0.30109270438E+02 -0.11340201131E+02  0.10340813499E+02  0.33794981167E+02  0.51100000000E-03 0.  1.
        -12    1    3    3    0    0  0.35116235551E+01  0.26759332904E+01  0.46459404928E+01  0.64091249036E+01  0.00000000000E+00 0.  1.
</event>
<event>
 7    1  0.5525118E-011  0.5052886E+02  0.7816164E-02  0.1300439E+00
        -11   -1    0    0    0    0  0.00000000000E+00  0.00000000000E+00  0.45593999997E+02  0.45594000000E+02  0.51100000000E-03 0. -1.
         11   -1    0    0    0    0 -0.00000000000E+00 -0.00000000000E+00 -0.45593999997E+02  0.45594000000E+02  0.51100000000E-03 0.  1.
    9900012    2    1    2    0    0 -0.30705133801E+02  0.15500049435E+02  0.21681985670E+02  0.50528864780E+02  0.30000014985E+02 0.  0.
        -12    1    1    2    0    0  0.30705133801E+02 -0.15500049435E+02 -0.21681985670E+02  0.40659135220E+02  0.00000000000E+00 0.  1.
         11    1    3    3    0    0  0.70706822639E+00  0.11002680980E+02  0.10491017722E+02  0.15219079713E+02  0.51100000000E-03 0. -1.
        -11    1    3    3    0    0 -0.48362498661E+01 -0.21495906229E+01 -0.89502390345E+00  0.53675991526E+01  0.51100000000E-03 0.  1.
         12    1    3    3    0    0 -0.26575952162E+02  0.66469590785E+01  0.12085991852E+02  0.29942185914E+02  0.00000000000E+00 0. -1.
</event>
<event>
 7    1  0.5525118E-011  0.5052887E+02  0.7816164E-02  0.1300439E+00
        -11   -1    0    0    0    0  0.00000000000E+00  0.00000000000E+00  0.45593999997E+02  0.45594000000E+02  0.51100000000E-03 0.  1.
         11   -1    0    0    0    0 -0.00000000000E+00 -0.00000000000E+00 -0.45593999997E+02  0.45594000000E+02  0.51100000000E-03 0. -1.
    9900012    2    1    2    0    0  0.27218338704E+02 -0.29042917678E+00 -0.30203351162E+02  0.50528871476E+02  0.30000035340E+02 0.  0.
        -12    1    1    2    0    0 -0.27218338704E+02  0.29042917678E+00  0.30203351162E+02  0.40659128524E+02  0.00000000000E+00 0.  1.
         11    1    3    3    0    0  0.13314227626E+02  0.50183052899E+01 -0.17934387531E+02  0.22893105985E+02  0.51100000000E-03 0. -1.
        -11    1    3    3    0    0  0.13860553419E+02 -0.63834976751E+01  0.59968779254E-01  0.15259999350E+02  0.51100000000E-03 0.  1.
        -12    1    3    3    0    0  0.43557658752E-01  0.10747632084E+01 -0.12328932410E+02  0.12375766142E+02  0.00000000000E+00 0.  1.
</event>
<event>
 7    1  0.5525118E-011  0.5052882E+02  0.7816164E-02  0.1300439E+00
        -11   -1    0    0    0    0  0.00000000000E+00  0.00000000000E+00  0.45593999997E+02  0.45594000000E+02  0.51100000000E-03 0.  1.
         11   -1    0    0    0    0 -0.00000000000E+00 -0.00000000000E+00 -0.45593999997E+02  0.45594000000E+02  0.51100000000E-03 0. -1.
    9900012    2    1    2    0    0  0.18889074608E+02 -0.26149115631E+02 -0.24750665180E+02  0.50528821274E+02  0.29999882743E+02 0.  0.
        -12    1    1    2    0    0 -0.18889074608E+02  0.26149115631E+02  0.24750665180E+02  0.40659178726E+02  0.00000000000E+00 0.  1.
         11    1    3    3    0    0  0.54622316905E+01 -0.22382058269E+02 -0.24284340730E+02  0.33474194723E+02  0.51100000000E-03 0. -1.
        -11    1    3    3    0    0  0.18534559668E+01 -0.46942844140E+01  0.15300514556E+01  0.52737712216E+01  0.51100000000E-03 0.  1.
         12    1    3    3    0    0  0.11573386951E+02  0.92722705237E+00 -0.19963759060E+01  0.11780855329E+02  0.00000000000E+00 0. -1.
</event>
<event>
 7    1  0.5525118E-011  0.5052886E+02  0.7816164E-02  0.1300439E+00
        -11   -1    0    0    0    0  0.00000000000E+00  0.00000000000E+00  0.45593999997E+02  0.45594000000E+02  0.51100000000E-03 0.  1.
         11   -1    0    0    0    0 -0.00000000000E+00 -0.00000000000E+00 -0.45593999997E+02  0.45594000000E+02  0.51100000000E-03 0. -1.
    9900012    2    1    2    0    0  0.13553125772E+02  0.14306086695E+01 -0.38307075364E+02  0.50528857335E+02  0.29999992355E+02 0.  0.
        -12    1    1    2    0    0 -0.13553125772E+02 -0.14306086695E+01  0.38307075364E+02  0.40659142665E+02  0.00000000000E+00 0.  1.
         11    1    3    3    0    0  0.18949660534E+02  0.37319739372E+01 -0.35726867908E+02  0.40613130323E+02  0.51100000000E-03 0. -1.
        -11    1    3    3    0    0 -0.65075321231E+01 -0.28202959290E+01 -0.39166433414E+01  0.81019836327E+01  0.51100000000E-03 0.  1.
        -12    1    3    3    0    0  0.11109973616E+01  0.51893066123E+00  0.13364358861E+01  0.18137433794E+01  0.00000000000E+00 0.  1.
</event>
<event>
 7    1  0.5525118E-011  0.5052882E+02  0.7816164E-02  0.1300439E+00
        -11   -1    0    0    0    0  0.00000000000E+00  0.00000000000E+00  0.45593999997E+02  0.45594000000E+02  0.51100000000E-03 0.  1.
         11   -1    0    0    0    0 -0.00000000000E+00 -0.00000000000E+00 -0.45593999997E+02  0.45594000000E+02  0.51100000000E-03 0. -1.
    9900012    2    1    2    0    0  0.20766256153E+02 -0.27757921674E+02 -0.21246857228E+02  0.50528824500E+02  0.29999892550E+02 0.  0.
        -12    1    1    2    0    0 -0.20766256153E+02  0.27757921674E+02  0.21246857228E+02  0.40659175500E+02  0.00000000000E+00 0.  1.
         11    1    3    3    0    0  0.42570002865E+01 -0.15033176818E+02 -0.15030646904E+02  0.21680378301E+02  0.51100000000E-03 0. -1.
        -11    1    3    3    0    0  0.85477498844E+01  0.20023172902E+01 -0.81711413475E+01  0.11993367075E+02  0.51100000000E-03 0.  1.
        -12    1    3    3    0    0  0.79615059818E+01 -0.14727062146E+02  0.19549310232E+01  0.16855079124E+02  0.00000000000E+00 0.  1.
</event>
<event>
 7    1  0.5525118E-011  0.5052886E+02  0.7816164E-02  0.1300439E+00
        -11   -1    0    0    0    0  0.00000000000E+00  0.00000000000E+00  0.45593999997E+02  0.45594000000E+02  0.51100000000E-03 0. -1.
         11   -1    0    0    0    0 -0.00000000000E+00 -0.00000000000E+00 -0.45593999997E+02  0.45594000000E+02  0.51100000000E-03 0.  1.
    9900012    2    1    2    0    0 -0.39463185348E+02  0.73439370695E+01 -0.64721705217E+01  0.50528863256E+02  0.30000010353E+02 0.  0.
        -12    1    1    2    0    0  0.39463185348E+02 -0.73439370695E+01  0.64721705217E+01  0.40659136744E+02  0.00000000000E+00 0.  1.
         11    1    3    3    0    0 -0.90140013465E+01  0.58618894564E+01  0.23417228336E+01  0.11004437031E+02  0.51100000000E-03 0. -1.
        -11    1    3    3    0    0 -0.26575995851E+02 -0.83523454118E+01 -0.50952038430E+01  0.28319716309E+02  0.51100000000E-03 0.  1.
        -12    1    3    3    0    0 -0.38731881503E+01  0.98343930248E+01 -0.37186895123E+01  0.11204709916E+02  0.00000000000E+00 0.  1.
</event>
<event>
 7    1  0.5525118E-011  0.5052884E+02  0.7816164E-02  0.1300439E+00
        -11   -1    0    0    0    0  0.00000000000E+00  0.00000000000E+00  0.45593999997E+02  0.45594000000E+02  0.51100000000E-03 0. -1.
         11   -1    0    0    0    0 -0.00000000000E+00 -0.00000000000E+00 -0.45593999997E+02  0.45594000000E+02  0.51100000000E-03 0.  1.
    9900012    2    1    2    0    0 -0.25354264111E+01  0.24907890114E+02  0.32036473631E+02  0.50528843347E+02  0.29999949837E+02 0.  0.
        -12    1    1    2    0    0  0.25354264111E+01 -0.24907890114E+02 -0.32036473631E+02  0.40659156653E+02  0.00000000000E+00 0.  1.
         11    1    3    3    0    0  0.12261578947E+02  0.99131962951E+01  0.19067165367E+02  0.24742161879E+02  0.51100000000E-03 0. -1.
        -11    1    3    3    0    0 -0.66946825395E+01  0.48149117781E+01  0.13762016946E+01  0.83603876167E+01  0.51100000000E-03 0.  1.
         12    1    3    3    0    0 -0.81023228185E+01  0.10179782041E+02  0.11593106569E+02  0.17426293851E+02  0.00000000000E+00 0. -1.
</event>
<event>
 7    1  0.5525118E-011  0.5052883E+02  0.7816164E-02  0.1300439E+00
        -11   -1    0    0    0    0  0.00000000000E+00  0.00000000000E+00  0.45593999997E+02  0.45594000000E+02  0.51100000000E-03 0.  1.
         11   -1    0    0    0    0 -0.00000000000E+00 -0.00000000000E+00 -0.45593999997E+02  0.45594000000E+02  0.51100000000E-03 0. -1.
    9900012    2    1    2    0    0  0.17213508516E+02  0.22469070156E+02 -0.29189103567E+02  0.50528834290E+02  0.29999922309E+02 0.  0.
        -12    1    1    2    0    0 -0.17213508516E+02 -0.22469070156E+02  0.29189103567E+02  0.40659165710E+02  0.00000000000E+00 0.  1.
         11    1    3    3    0    0  0.15985636698E+02 -0.14107700475E+01 -0.10011753821E+02  0.18914705063E+02  0.51100000000E-03 0.  1.
        -11    1    3    3    0    0 -0.15800056020E+01  0.19068619894E+02 -0.12227596427E+02  0.22707329147E+02  0.51100000000E-03 0. -1.
        -12    1    3    3    0    0  0.28078774200E+01  0.48112203100E+01 -0.69497533189E+01  0.89068000803E+01  0.00000000000E+00 0.  1.
</event>
<event>
 7    1  0.5525118E-011  0.5052885E+02  0.7816164E-02  0.1300439E+00
        -11   -1    0    0    0    0  0.00000000000E+00  0.00000000000E+00  0.45593999997E+02  0.45594000000E+02  0.51100000000E-03 0.  1.
         11   -1    0    0    0    0 -0.00000000000E+00 -0.00000000000E+00 -0.45593999997E+02  0.45594000000E+02  0.51100000000E-03 0. -1.
    9900012    2    1    2    0    0 -0.15609717961E+01 -0.26858456483E+02 -0.30485300274E+02  0.50528845430E+02  0.29999956168E+02 0.  0.
        -12    1    1    2    0    0  0.15609717961E+01  0.26858456483E+02  0.30485300274E+02  0.40659154570E+02  0.00000000000E+00 0.  1.
         11    1    3    3    0    0  0.10147103266E+01 -0.20493057595E+02 -0.31910760081E+02  0.37937997521E+02  0.51100000000E-03 0. -1.
        -11    1    3    3    0    0  0.37774569755E+01 -0.11438966184E+01 -0.89325208322E+00  0.40466752057E+01  0.51100000000E-03 0.  1.
         12    1    3    3    0    0 -0.63531390982E+01 -0.52215022694E+01  0.23187118910E+01  0.85441727033E+01  0.00000000000E+00 0. -1.
</event>
<event>
 7    1  0.5525118E-011  0.5052885E+02  0.7816164E-02  0.1300439E+00
        -11   -1    0    0    0    0  0.00000000000E+00  0.00000000000E+00  0.45593999997E+02  0.45594000000E+02  0.51100000000E-03 0.  1.
         11   -1    0    0    0    0 -0.00000000000E+00 -0.00000000000E+00 -0.45593999997E+02  0.45594000000E+02  0.51100000000E-03 0. -1.
    9900012    2    1    2    0    0  0.55564772698E+01 -0.38946782043E+02 -0.10268400918E+02  0.50528851846E+02  0.29999975672E+02 0.  0.
        -12    1    1    2    0    0 -0.55564772698E+01  0.38946782043E+02  0.10268400918E+02  0.40659148154E+02  0.00000000000E+00 0.  1.
         11    1    3    3    0    0  0.66241603753E+01 -0.54394337415E+01  0.31768789373E+01  0.91410885648E+01  0.51100000000E-03 0. -1.
        -11    1    3    3    0    0 -0.10285981823E+02 -0.20298684224E+02 -0.10289433533E+02  0.24974195602E+02  0.51100000000E-03 0.  1.
        -12    1    3    3    0    0  0.92182987171E+01 -0.13208664078E+02 -0.31558463222E+01  0.16413567679E+02  0.00000000000E+00 0.  1.
</event>
<event>
 7    1  0.5525118E-011  0.5052887E+02  0.7816164E-02  0.1300439E+00
        -11   -1    0    0    0    0  0.00000000000E+00  0.00000000000E+00  0.45593999997E+02  0.45594000000E+02  0.51100000000E-03 0.  1.
         11   -1    0    0    0    0 -0.00000000000E+00 -0.00000000000E+00 -0.45593999997E+02  0.45594000000E+02  0.51100000000E-03 0. -1.
    9900012    2    1    2    0    0 -0.36861422543E+02 -0.10286420045E+02 -0.13732791750E+02  0.50528874598E+02  0.30000044828E+02 0.  0.
        -12    1    1    2    0    0  0.36861422543E+02  0.10286420045E+02  0.13732791750E+02  0.40659125402E+02  0.00000000000E+00 0.  1.
         11    1    3    3    0    0 -0.91178862056E+01  0.43336547780E+00  0.32386517812E+01  0.96856863524E+01  0.51100000000E-03 0. -1.
        -11    1    3    3    0    0 -0.14968387995E+02  0.68585780458E+00 -0.18316457557E+02  0.23664649961E+02  0.51100000000E-03 0.  1.
        -12    1    3    3    0    0 -0.12775148342E+02 -0.11405643327E+02  0.13450140254E+01  0.17178538285E+02  0.00000000000E+00 0.  1.
</event>
<event>
 7    1  0.5525118E-011  0.5052886E+02  0.7816164E-02  0.1300439E+00
        -11   -1    0    0    0    0  0.00000000000E+00  0.00000000000E+00  0.45593999997E+02  0.45594000000E+02  0.51100000000E-03 0.  1.
         11   -1    0    0    0    0 -0.00000000000E+00 -0.00000000000E+00 -0.45593999997E+02  0.45594000000E+02  0.51100000000E-03 0. -1.
    9900012    2    1    2    0    0  0.17305258542E+02 -0.30631467105E+02 -0.20381539011E+02  0.50528857330E+02  0.29999992341E+02 0.  0.
        -12    1    1    2    0    0 -0.17305258542E+02  0.30631467105E+02  0.20381539011E+02  0.40659142670E+02  0.00000000000E+00 0.  1.
         11    1    3    3    0    0  0.18710212774E+01 -0.65943121760E+00 -0.10628524732E+01  0.22506056501E+01  0.51100000000E-03 0. -1.
        -11    1    3    3    0    0  0.18839708458E+02 -0.62610236408E+01 -0.12143953649E+02  0.23272529779E+02  0.51100000000E-03 0.  1.
        -12    1    3    3    0    0 -0.34054711935E+01 -0.23711012246E+02 -0.71747328891E+01  0.25005721901E+02  0.00000000000E+00 0.  1.
</event>
<event>
 7    1  0.5525118E-011  0.5052886E+02  0.7816164E-02  0.1300439E+00
        -11   -1    0    0    0    0  0.00000000000E+00  0.00000000000E+00  0.45593999997E+02  0.45594000000E+02  0.51100000000E-03 0. -1.
         11   -1    0    0    0    0 -0.00000000000E+00 -0.00000000000E+00 -0.45593999997E+02  0.45594000000E+02  0.51100000000E-03 0.  1.
    9900012    2    1    2    0    0  0.34477379059E+02  0.20789821678E+02 -0.56797413321E+01  0.50528858177E+02  0.29999994916E+02 0.  0.
        -12    1    1    2    0    0 -0.34477379059E+02 -0.20789821678E+02  0.56797413321E+01  0.40659141823E+02  0.00000000000E+00 0.  1.
         11    1    3    3    0    0  0.15803306285E+02  0.24652113757E+01 -0.49152377247E+00  0.16001979644E+02  0.51100000000E-03 0. -1.
        -11    1    3    3    0    0 -0.39360460190E+01  0.19059872086E+00  0.23377796401E+01  0.45819209991E+01  0.51100000000E-03 0.  1.
        -12    1    3    3    0    0  0.22610118793E+02  0.18134011581E+02 -0.75259971997E+01  0.29944957534E+02  0.00000000000E+00 0.  1.
</event>
<event>
 7    1  0.5525118E-011  0.5052886E+02  0.7816164E-02  0.1300439E+00
        -11   -1    0    0    0    0  0.00000000000E+00  0.00000000000E+00  0.45593999997E+02  0.45594000000E+02  0.51100000000E-03 0. -1.
         11   -1    0    0    0    0 -0.00000000000E+00 -0.00000000000E+00 -0.45593999997E+02  0.45594000000E+02  0.51100000000E-03 0.  1.
    9900012    2    1    2    0    0 -0.18538292339E+02 -0.24977802032E+02 -0.26184097649E+02  0.50528857770E+02  0.29999993678E+02 0.  0.
        -12    1    1    2    0    0  0.18538292339E+02  0.24977802032E+02  0.26184097649E+02  0.40659142230E+02  0.00000000000E+00 0.  1.
         11    1    3    3    0    0 -0.17129133405E+02 -0.28738996423E+02 -0.19992996154E+02  0.38975082067E+02  0.51100000000E-03 0. -1.
        -11    1    3    3    0    0  0.34879215276E+01  0.15158831853E+01 -0.45330854691E+01  0.59171245167E+01  0.51100000000E-03 0.  1.
         12    1    3    3    0    0 -0.48970804613E+01  0.22453112063E+01 -0.16580160260E+01  0.56366511867E+01  0.00000000000E+00 0. -1.
</event>
<event>
 7    1  0.5525118E-011  0.5052886E+02  0.7816164E-02  0.1300439E+00
        -11   -1    0    0    0    0  0.00000000000E+00  0.00000000000E+00  0.45593999997E+02  0.45594000000E+02  0.51100000000E-03 0.  1.
         11   -1    0    0    0    0 -0.00000000000E+00 -0.00000000000E+00 -0.45593999997E+02  0.45594000000E+02  0.51100000000E-03 0. -1.
    9900012    2    1    2    0    0  0.34998320882E+02  0.11319948547E+02 -0.17324608549E+02  0.50528858825E+02  0.29999996885E+02 0.  0.
        -12    1    1    2    0    0 -0.34998320882E+02 -0.11319948547E+02  0.17324608549E+02  0.40659141175E+02  0.00000000000E+00 0.  1.
         11    1    3    3    0    0  0.17487263845E+02 -0.15719137954E+01 -0.12442993400E+02  0.21519837239E+02  0.51100000000E-03 0. -1.
        -11    1    3    3    0    0 -0.38347126998E+01  0.25828718068E+01  0.64578712917E+00  0.46683283451E+01  0.51100000000E-03 0.  1.
         12    1    3    3    0    0  0.21345769737E+02  0.10308990536E+02 -0.55274022780E+01  0.24340693241E+02  0.00000000000E+00 0. -1.
</event>
<event>
 7    1  0.5525118E-011  0.5052873E+02  0.7816164E-02  0.1300439E+00
        -11   -1    0    0    0    0  0.00000000000E+00  0.00000000000E+00  0.45593999997E+02  0.45594000000E+02  0.51100000000E-03 0.  1.
         11   -1    0    0    0    0 -0.00000000000E+00 -0.00000000000E+00 -0.45593999997E+02  0.45594000000E+02  0.51100000000E-03 0. -1.
    9900012    2    1    2    0    0  0.23963521153E+02 -0.28764156369E+02 -0.15860309201E+02  0.50528727434E+02  0.29999597505E+02 0.  0.
        -12    1    1    2    0    0 -0.23963521153E+02  0.28764156369E+02  0.15860309201E+02  0.40659272566E+02  0.00000000000E+00 0.  1.
         11    1    3    3    0    0  0.23177584975E+01  0.13508243139E+01 -0.78624562555E+01  0.83075236629E+01  0.51100000000E-03 0. -1.
        -11    1    3    3    0    0  0.11436142200E+01 -0.15024785381E+02  0.12889929037E+01  0.15123277825E+02  0.51100000000E-03 0.  1.
        -12    1    3    3    0    0  0.20502148435E+02 -0.15090195302E+02 -0.92868458492E+01  0.27097925946E+02  0.00000000000E+00 0.  1.
</event>
<event>
 7    1  0.5525118E-011  0.5052885E+02  0.7816164E-02  0.1300439E+00
        -11   -1    0    0    0    0  0.00000000000E+00  0.00000000000E+00  0.45593999997E+02  0.45594000000E+02  0.51100000000E-03 0. -1.
         11   -1    0    0    0    0 -0.00000000000E+00 -0.00000000000E+00 -0.45593999997E+02  0.45594000000E+02  0.51100000000E-03 0.  1.
    9900012    2    1    2    0    0 -0.12280358640E+02 -0.15180720298E+02  0.35663775814E+02  0.50528851185E+02  0.29999973662E+02 0.  0.
        -12    1    1    2    0    0  0.12280358640E+02  0.15180720298E+02 -0.35663775814E+02  0.40659148815E+02  0.00000000000E+00 0.  1.
         11    1    3    3    0    0 -0.65995041355E+01 -0.23058287880E+02  0.27615386545E+02  0.36576600021E+02  0.51100000000E-03 0. -1.
        -11    1    3    3    0    0 -0.22890170052E+01  0.68467756019E+01  0.74190299512E+01  0.10351808570E+02  0.51100000000E-03 0.  1.
         12    1    3    3    0    0 -0.33918374988E+01  0.10307919797E+01  0.62935931727E+00  0.36004425942E+01  0.00000000000E+00 0. -1.
</event>
<event>
 7    1  0.5525118E-011  0.5052886E+02  0.7816164E-02  0.1300439E+00
        -11   -1    0    0    0    0  0.00000000000E+00  0.00000000000E+00  0.45593999997E+02  0.45594000000E+02  0.51100000000E-03 0.  1.
         11   -1    0    0    0    0 -0.00000000000E+00 -0.00000000000E+00 -0.45593999997E+02  0.45594000000E+02  0.51100000000E-03 0. -1.
    9900012    2    1    2    0    0  0.17456564069E+02 -0.20779075807E+02 -0.30276459412E+02  0.50528860621E+02  0.30000002344E+02 0.  0.
        -12    1    1    2    0    0 -0.17456564069E+02  0.20779075807E+02  0.30276459412E+02  0.40659139379E+02  0.00000000000E+00 0.  1.
         11    1    3    3    0    0  0.80175888481E+01 -0.74615092040E+01 -0.10436996257E+02  0.15129003327E+02  0.51100000000E-03 0. -1.
        -11    1    3    3    0    0 -0.31050509078E+01  0.56488121566E+01 -0.30331891090E+01  0.71239494912E+01  0.51100000000E-03 0.  1.
        -12    1    3    3    0    0  0.12544026129E+02 -0.18966378760E+02 -0.16806274046E+02  0.28275907803E+02  0.00000000000E+00 0.  1.
</event>
<event>
 7    1  0.5525118E-011  0.5052888E+02  0.7816164E-02  0.1300439E+00
        -11   -1    0    0    0    0  0.00000000000E+00  0.00000000000E+00  0.45593999997E+02  0.45594000000E+02  0.51100000000E-03 0. -1.
         11   -1    0    0    0    0 -0.00000000000E+00 -0.00000000000E+00 -0.45593999997E+02  0.45594000000E+02  0.51100000000E-03 0.  1.
    9900012    2    1    2    0    0  0.25068292954E+02  0.14192943844E+00  0.32011324367E+02  0.50528876260E+02  0.30000049880E+02 0.  0.
        -12    1    1    2    0    0 -0.25068292954E+02 -0.14192943844E+00 -0.32011324367E+02  0.40659123740E+02  0.00000000000E+00 0.  1.
         11    1    3    3    0    0  0.18694058394E+02 -0.51682626245E+01  0.77562629857E+01  0.20888714024E+02  0.51100000000E-03 0. -1.
        -11    1    3    3    0    0  0.10576365286E+02  0.67548828962E+01  0.18811083168E+02  0.22612934259E+02  0.51100000000E-03 0.  1.
        -12    1    3    3    0    0 -0.42021307270E+01 -0.14446908333E+01  0.54439782132E+01  0.70272279767E+01  0.00000000000E+00 0.  1.
</event>
<event>
 7    1  0.5525118E-011  0.5052885E+02  0.7816164E-02  0.1300439E+00
        -11   -1    0    0    0    0  0.00000000000E+00  0.00000000000E+00  0.45593999997E+02  0.45594000000E+02  0.51100000000E-03 0.  1.
         11   -1    0    0    0    0 -0.00000000000E+00 -0.00000000000E+00 -0.45593999997E+02  0.45594000000E+02  0.51100000000E-03 0. -1.
    9900012    2    1    2    0    0  0.45719270249E+01 -0.23566875946E+02 -0.32815636609E+02  0.50528853863E+02  0.29999981801E+02 0.  0.
        -12    1    1    2    0    0 -0.45719270249E+01  0.23566875946E+02  0.32815636609E+02  0.40659146137E+02  0.00000000000E+00 0.  1.
         11    1    3    3    0    0 -0.71580286553E+01 -0.11474025588E+02 -0.14301529158E+02  0.19683098688E+02  0.51100000000E-03 0. -1.
        -11    1    3    3    0    0  0.82085152642E+01 -0.95953138500E+01 -0.84357947950E+00  0.12655488822E+02  0.51100000000E-03 0.  1.
        -12    1    3    3    0    0  0.35214404159E+01 -0.24975365075E+01 -0.17670527971E+02  0.18190266353E+02  0.00000000000E+00 0.  1.
</event>
<event>
 7    1  0.5525118E-011  0.5052886E+02  0.7816164E-02  0.1300439E+00
        -11   -1    0    0    0    0  0.00000000000E+00  0.00000000000E+00  0.45593999997E+02  0.45594000000E+02  0.51100000000E-03 0. -1.
         11   -1    0    0    0    0 -0.00000000000E+00 -0.00000000000E+00 -0.45593999997E+02  0.45594000000E+02  0.51100000000E-03 0.  1.
    9900012    2    1    2    0    0  0.40419917007E+02  0.44039816270E+01  0.33461337457E-01  0.50528857551E+02  0.29999993012E+02 0.  0.
        -12    1    1    2    0    0 -0.40419917007E+02 -0.44039816270E+01 -0.33461337457E-01  0.40659142449E+02  0.00000000000E+00 0.  1.
         11    1    3    3    0    0  0.18729133817E+02 -0.71949299637E+01  0.63640549355E+01  0.21048721249E+02  0.51100000000E-03 0.  1.
        -11    1    3    3    0    0  0.56251630654E+00  0.71604701713E+01 -0.11018550992E+01  0.72665564464E+01  0.51100000000E-03 0. -1.
        -12    1    3    3    0    0  0.21128266883E+02  0.44384414194E+01 -0.52287384988E+01  0.22213579856E+02  0.00000000000E+00 0.  1.
</event>
<event>
 7    1  0.5525118E-011  0.5052886E+02  0.7816164E-02  0.1300439E+00
        -11   -1    0    0    0    0  0.00000000000E+00  0.00000000000E+00  0.45593999997E+02  0.45594000000E+02  0.51100000000E-03 0. -1.
         11   -1    0    0    0    0 -0.00000000000E+00 -0.00000000000E+00 -0.45593999997E+02  0.45594000000E+02  0.51100000000E-03 0.  1.
    9900012    2    1    2    0    0  0.91151383304E+01  0.37000691763E+02 -0.14178451425E+02  0.50528862988E+02  0.30000009538E+02 0.  0.
        -12    1    1    2    0    0 -0.91151383304E+01 -0.37000691763E+02  0.14178451425E+02  0.40659137012E+02  0.00000000000E+00 0.  1.
         11    1    3    3    0    0 -0.17135333636E+01  0.35141150301E+01  0.66280067229E+01  0.76951721496E+01  0.51100000000E-03 0. -1.
        -11    1    3    3    0    0  0.47070205036E+01  0.93911566334E+01 -0.13129068390E+02  0.16814348099E+02  0.51100000000E-03 0.  1.
         12    1    3    3    0    0  0.61216511904E+01  0.24095420100E+02 -0.76773897580E+01  0.26019342739E+02  0.00000000000E+00 0. -1.
</event>
<event>
 7    1  0.5525118E-011  0.5052886E+02  0.7816164E-02  0.1300439E+00
        -11   -1    0    0    0    0  0.00000000000E+00  0.00000000000E+00  0.45593999997E+02  0.45594000000E+02  0.51100000000E-03 0.  1.
         11   -1    0    0    0    0 -0.00000000000E+00 -0.00000000000E+00 -0.45593999997E+02  0.45594000000E+02  0.51100000000E-03 0. -1.
    9900012    2    1    2    0    0  0.93739700158E+01 -0.23365779474E+02 -0.31927019686E+02  0.50528861417E+02  0.30000004762E+02 0.  0.
        -12    1    1    2    0    0 -0.93739700158E+01  0.23365779474E+02  0.31927019686E+02  0.40659138583E+02  0.00000000000E+00 0.  1.
         11    1    3    3    0    0  0.69367909682E+01 -0.21401391972E+02 -0.10851056364E+02  0.24977671464E+02  0.51100000000E-03 0. -1.
        -11    1    3    3    0    0  0.70399051123E+01  0.13460536405E+01 -0.56822100294E+01  0.91465641348E+01  0.51100000000E-03 0.  1.
         12    1    3    3    0    0 -0.46027260647E+01 -0.33104411425E+01 -0.15393753293E+02  0.16404625818E+02  0.00000000000E+00 0. -1.
</event>
<event>
 7    1  0.5525118E-011  0.5052886E+02  0.7816164E-02  0.1300439E+00
        -11   -1    0    0    0    0  0.00000000000E+00  0.00000000000E+00  0.45593999997E+02  0.45594000000E+02  0.51100000000E-03 0. -1.
         11   -1    0    0    0    0 -0.00000000000E+00 -0.00000000000E+00 -0.45593999997E+02  0.45594000000E+02  0.51100000000E-03 0.  1.
    9900012    2    1    2    0    0  0.27488406207E+02 -0.15686249185E+02  0.25524401405E+02  0.50528856424E+02  0.29999989586E+02 0.  0.
        -12    1    1    2    0    0 -0.27488406207E+02  0.15686249185E+02 -0.25524401405E+02  0.40659143576E+02  0.00000000000E+00 0.  1.
         11    1    3    3    0    0 -0.70898271932E+00 -0.14607306760E+02  0.11610860480E+02  0.18673193316E+02  0.51100000000E-03 0. -1.
        -11    1    3    3    0    0  0.16002506522E+02  0.17487062812E+01  0.69862326171E+01  0.17548379842E+02  0.51100000000E-03 0.  1.
         12    1    3    3    0    0  0.12194882404E+02 -0.28276487065E+01  0.69273083082E+01  0.14307283266E+02  0.00000000000E+00 0. -1.
</event>
<event>
 7    1  0.5525118E-011  0.5052886E+02  0.7816164E-02  0.1300439E+00
        -11   -1    0    0    0    0  0.00000000000E+00  0.00000000000E+00  0.45593999997E+02  0.45594000000E+02  0.51100000000E-03 0. -1.
         11   -1    0    0    0    0 -0.00000000000E+00 -0.00000000000E+00 -0.45593999997E+02  0.45594000000E+02  0.51100000000E-03 0.  1.
    9900012    2    1    2    0    0 -0.34884928756E+02  0.20885570399E+02  0.17951020120E-01  0.50528860469E+02  0.30000001881E+02 0.  0.
        -12    1    1    2    0    0  0.34884928756E+02 -0.20885570399E+02 -0.17951020120E-01  0.40659139531E+02  0.00000000000E+00 0.  1.
         11    1    3    3    0    0 -0.18689225536E+02  0.12293717506E+02  0.10002263931E+02  0.24504447051E+02  0.51100000000E-03 0. -1.
        -11    1    3    3    0    0 -0.99991934701E+01 -0.27939813863E+01 -0.75447153820E+01  0.12834053627E+02  0.51100000000E-03 0.  1.
         12    1    3    3    0    0 -0.61965097492E+01  0.11385834279E+02 -0.24395975292E+01  0.13190359791E+02  0.00000000000E+00 0. -1.
</event>
<event>
 7    1  0.5525118E-011  0.5052886E+02  0.7816164E-02  0.1300439E+00
        -11   -1    0    0    0    0  0.00000000000E+00  0.00000000000E+00  0.45593999997E+02  0.45594000000E+02  0.51100000000E-03 0. -1.
         11   -1    0    0    0    0 -0.00000000000E+00 -0.00000000000E+00 -0.45593999997E+02  0.45594000000E+02  0.51100000000E-03 0.  1.
    9900012    2    1    2    0    0  0.71338907787E+01  0.85845029717E-01  0.40028315590E+02  0.50528858150E+02  0.29999994833E+02 0.  0.
        -12    1    1    2    0    0 -0.71338907787E+01 -0.85845029717E-01 -0.40028315590E+02  0.40659141850E+02  0.00000000000E+00 0.  1.
         11    1    3    3    0    0  0.48559762303E+01 -0.12226879244E+02  0.19126920443E+02  0.23214567993E+02  0.51100000000E-03 0. -1.
        -11    1    3    3    0    0 -0.50610561597E+01  0.46473287001E+01  0.68128720836E+01  0.96761138783E+01  0.51100000000E-03 0.  1.
         12    1    3    3    0    0  0.73389707081E+01  0.76653955735E+01  0.14088523063E+02  0.17638176279E+02  0.00000000000E+00 0. -1.
</event>
<event>
 7    1  0.5525118E-011  0.5052886E+02  0.7816164E-02  0.1300439E+00
        -11   -1    0    0    0    0  0.00000000000E+00  0.00000000000E+00  0.45593999997E+02  0.45594000000E+02  0.51100000000E-03 0. -1.
         11   -1    0    0    0    0 -0.00000000000E+00 -0.00000000000E+00 -0.45593999997E+02  0.45594000000E+02  0.51100000000E-03 0.  1.
    9900012    2    1    2    0    0 -0.22855278839E+02 -0.30987517008E+02  0.13060452299E+02  0.50528863322E+02  0.30000010554E+02 0.  0.
        -12    1    1    2    0    0  0.22855278839E+02  0.30987517008E+02 -0.13060452299E+02  0.40659136678E+02  0.00000000000E+00 0.  1.
         11    1    3    3    0    0 -0.10356943269E+02 -0.13746640147E+02  0.21344020495E+02  0.27419037189E+02  0.51100000000E-03 0. -1.
        -11    1    3    3    0    0 -0.45858242140E+01 -0.89471137214E+01 -0.30301394167E+01  0.10500589165E+02  0.51100000000E-03 0.  1.
         12    1    3    3    0    0 -0.79125113559E+01 -0.82937631394E+01 -0.52534287794E+01  0.12609236968E+02  0.00000000000E+00 0. -1.
</event>
<event>
 7    1  0.5525118E-011  0.5052887E+02  0.7816164E-02  0.1300439E+00
        -11   -1    0    0    0    0  0.00000000000E+00  0.00000000000E+00  0.45593999997E+02  0.45594000000E+02  0.51100000000E-03 0.  1.
         11   -1    0    0    0    0 -0.00000000000E+00 -0.00000000000E+00 -0.45593999997E+02  0.45594000000E+02  0.51100000000E-03 0. -1.
    9900012    2    1    2    0    0 -0.22839347210E+01  0.20951012602E+02 -0.34770723592E+02  0.50528874260E+02  0.30000043800E+02 0.  0.
        -12    1    1    2    0    0  0.22839347210E+01 -0.20951012602E+02  0.34770723592E+02  0.40659125740E+02  0.00000000000E+00 0.  1.
         11    1    3    3    0    0  0.56875016396E+01 -0.33235992727E+01 -0.39180900831E+01  0.76645559028E+01  0.51100000000E-03 0. -1.
        -11    1    3    3    0    0 -0.66055477100E+01  0.24665654420E+02 -0.32069502337E+02  0.40993667181E+02  0.51100000000E-03 0.  1.
        -12    1    3    3    0    0 -0.13658886507E+01 -0.39104254549E+00  0.12168688281E+01  0.18706511763E+01  0.00000000000E+00 0.  1.
</event>
<event>
 7    1  0.5525118E-011  0.5052887E+02  0.7816164E-02  0.1300439E+00
        -11   -1    0    0    0    0  0.00000000000E+00  0.00000000000E+00  0.45593999997E+02  0.45594000000E+02  0.51100000000E-03 0.  1.
         11   -1    0    0    0    0 -0.00000000000E+00 -0.00000000000E+00 -0.45593999997E+02  0.45594000000E+02  0.51100000000E-03 0. -1.
    9900012    2    1    2    0    0  0.24376020508E+02 -0.27897259632E+02 -0.16754626685E+02  0.50528868355E+02  0.30000025852E+02 0.  0.
        -12    1    1    2    0    0 -0.24376020508E+02  0.27897259632E+02  0.16754626685E+02  0.40659131645E+02  0.00000000000E+00 0.  1.
         11    1    3    3    0    0  0.21769230548E+02 -0.87723271411E+01 -0.98151282713E+01  0.25439926599E+02  0.51100000000E-03 0. -1.
        -11    1    3    3    0    0 -0.40231808808E+01 -0.28012803307E+01  0.20448835094E+01  0.53117515679E+01  0.51100000000E-03 0.  1.
         12    1    3    3    0    0  0.66299708403E+01 -0.16323652160E+02 -0.89843819227E+01  0.19777190188E+02  0.00000000000E+00 0. -1.
</event>
<event>
 7    1  0.5525118E-011  0.5052884E+02  0.7816164E-02  0.1300439E+00
        -11   -1    0    0    0    0  0.00000000000E+00  0.00000000000E+00  0.45593999997E+02  0.45594000000E+02  0.51100000000E-03 0. -1.
         11   -1    0    0    0    0 -0.00000000000E+00 -0.00000000000E+00 -0.45593999997E+02  0.45594000000E+02  0.51100000000E-03 0.  1.
    9900012    2    1    2    0    0  0.30515723982E+02 -0.26680423161E+02  0.31800380406E+01  0.50528843194E+02  0.29999949374E+02 0.  0.
        -12    1    1    2    0    0 -0.30515723982E+02  0.26680423161E+02 -0.31800380406E+01  0.40659156806E+02  0.00000000000E+00 0.  1.
         11    1    3    3    0    0  0.29695375338E+02 -0.12578917673E+02 -0.11170916082E+01  0.32269062277E+02  0.51100000000E-03 0. -1.
        -11    1    3    3    0    0  0.12036983388E+01 -0.67128360579E+01 -0.33681976930E+01  0.76063009138E+01  0.51100000000E-03 0.  1.
         12    1    3    3    0    0 -0.38334969477E+00 -0.73886694302E+01  0.76653273418E+01  0.10653480004E+02  0.00000000000E+00 0. -1.
</event>
<event>
 7    1  0.5525118E-011  0.5052886E+02  0.7816164E-02  0.1300439E+00
        -11   -1    0    0    0    0  0.00000000000E+00  0.00000000000E+00  0.45593999997E+02  0.45594000000E+02  0.51100000000E-03 0.  1.
         11   -1    0    0    0    0 -0.00000000000E+00 -0.00000000000E+00 -0.45593999997E+02  0.45594000000E+02  0.51100000000E-03 0. -1.
    9900012    2    1    2    0    0  0.33504703444E+02 -0.12474623305E+02 -0.19364514419E+02  0.50528858369E+02  0.29999995499E+02 0.  0.
        -12    1    1    2    0    0 -0.33504703444E+02  0.12474623305E+02  0.19364514419E+02  0.40659141631E+02  0.00000000000E+00 0.  1.
         11    1    3    3    0    0  0.22526710364E+02 -0.28626205814E+01 -0.24105436940E+02  0.33116753566E+02  0.51100000000E-03 0. -1.
        -11    1    3    3    0    0  0.43712016922E+01 -0.91194147550E+01  0.24890009450E+01  0.10414713423E+02  0.51100000000E-03 0.  1.
         12    1    3    3    0    0  0.66067913880E+01 -0.49258796902E+00  0.22519215760E+01  0.69973913808E+01  0.00000000000E+00 0. -1.
</event>
<event>
 7    1  0.5525118E-011  0.5052887E+02  0.7816164E-02  0.1300439E+00
        -11   -1    0    0    0    0  0.00000000000E+00  0.00000000000E+00  0.45593999997E+02  0.45594000000E+02  0.51100000000E-03 0.  1.
         11   -1    0    0    0    0 -0.00000000000E+00 -0.00000000000E+00 -0.45593999997E+02  0.45594000000E+02  0.51100000000E-03 0. -1.
    9900012    2    1    2    0    0 -0.26673626149E+02  0.30552359851E+02  0.28698500010E+01  0.50528867404E+02  0.30000022961E+02 0.  0.
        -12    1    1    2    0    0  0.26673626149E+02 -0.30552359851E+02 -0.28698500010E+01  0.40659132596E+02  0.00000000000E+00 0.  1.
         11    1    3    3    0    0 -0.23754132023E+02  0.14912314568E+02 -0.98521468135E+01  0.29727103980E+02  0.51100000000E-03 0. -1.
        -11    1    3    3    0    0 -0.60001425880E+00  0.10345759817E+02  0.61542665827E+01  0.12052790579E+02  0.51100000000E-03 0.  1.
         12    1    3    3    0    0 -0.23194798675E+01  0.52942854659E+01  0.65677302317E+01  0.87489728452E+01  0.00000000000E+00 0. -1.
</event>
<event>
 7    1  0.5525118E-011  0.5052888E+02  0.7816164E-02  0.1300439E+00
        -11   -1    0    0    0    0  0.00000000000E+00  0.00000000000E+00  0.45593999997E+02  0.45594000000E+02  0.51100000000E-03 0.  1.
         11   -1    0    0    0    0 -0.00000000000E+00 -0.00000000000E+00 -0.45593999997E+02  0.45594000000E+02  0.51100000000E-03 0. -1.
    9900012    2    1    2    0    0  0.29751517049E+02 -0.18377656762E+02 -0.20743017828E+02  0.50528882653E+02  0.30000069312E+02 0.  0.
        -12    1    1    2    0    0 -0.29751517049E+02  0.18377656762E+02  0.20743017828E+02  0.40659117347E+02  0.00000000000E+00 0.  1.
         11    1    3    3    0    0  0.23866625323E+02 -0.10498258161E+02 -0.16637381898E+02  0.30929463387E+02  0.51100000000E-03 0. -1.
        -11    1    3    3    0    0 -0.31014791208E+01  0.24470882280E+01  0.22065888913E+01  0.45250909747E+01  0.51100000000E-03 0.  1.
        -12    1    3    3    0    0  0.89863708470E+01 -0.10326486829E+02 -0.63122248215E+01  0.15074328291E+02  0.00000000000E+00 0.  1.
</event>
<event>
 7    1  0.5525118E-011  0.5052886E+02  0.7816164E-02  0.1300439E+00
        -11   -1    0    0    0    0  0.00000000000E+00  0.00000000000E+00  0.45593999997E+02  0.45594000000E+02  0.51100000000E-03 0.  1.
         11   -1    0    0    0    0 -0.00000000000E+00 -0.00000000000E+00 -0.45593999997E+02  0.45594000000E+02  0.51100000000E-03 0. -1.
    9900012    2    1    2    0    0  0.25537224653E+00 -0.16670379503E+02 -0.37083673555E+02  0.50528860658E+02  0.30000002455E+02 0.  0.
        -12    1    1    2    0    0 -0.25537224653E+00  0.16670379503E+02  0.37083673555E+02  0.40659139342E+02  0.00000000000E+00 0.  1.
         11    1    3    3    0    0  0.74616720321E+01 -0.18268882809E+02 -0.15382406634E+02  0.25020932491E+02  0.51100000000E-03 0. -1.
        -11    1    3    3    0    0 -0.10857787956E+01  0.19435088855E+01  0.65966519756E+00  0.23219174867E+01  0.51100000000E-03 0.  1.
         12    1    3    3    0    0 -0.61205209899E+01 -0.34500557901E+00 -0.22360932119E+02  0.23186010680E+02  0.00000000000E+00 0. -1.
</event>
<event>
 7    1  0.5525118E-011  0.5052886E+02  0.7816164E-02  0.1300439E+00
        -11   -1    0    0    0    0  0.00000000000E+00  0.00000000000E+00  0.45593999997E+02  0.45594000000E+02  0.51100000000E-03 0. -1.
         11   -1    0    0    0    0 -0.00000000000E+00 -0.00000000000E+00 -0.45593999997E+02  0.45594000000E+02  0.51100000000E-03 0.  1.
    9900012    2    1    2    0    0 -0.23223399405E+02 -0.32125977522E+02  0.90421723999E+01  0.50528860888E+02  0.30000003154E+02 0.  0.
        -12    1    1    2    0    0  0.23223399405E+02  0.32125977522E+02 -0.90421723999E+01  0.40659139112E+02  0.00000000000E+00 0.  1.
         11    1    3    3    0    0  0.16806894161E+01 -0.12507101369E+02  0.13457799394E+02  0.18448974670E+02  0.51100000000E-03 0. -1.
        -11    1    3    3    0    0 -0.16069285760E+02 -0.12823717897E+02 -0.38756897492E+01  0.20921057737E+02  0.51100000000E-03 0.  1.
         12    1    3    3    0    0 -0.88348030606E+01 -0.67951582559E+01 -0.53993724459E+00  0.11158828481E+02  0.00000000000E+00 0. -1.
</event>
<event>
 7    1  0.5525118E-011  0.5052887E+02  0.7816164E-02  0.1300439E+00
        -11   -1    0    0    0    0  0.00000000000E+00  0.00000000000E+00  0.45593999997E+02  0.45594000000E+02  0.51100000000E-03 0. -1.
         11   -1    0    0    0    0 -0.00000000000E+00 -0.00000000000E+00 -0.45593999997E+02  0.45594000000E+02  0.51100000000E-03 0.  1.
    9900012    2    1    2    0    0  0.35222379972E+02 -0.32150057640E+01  0.20055242313E+02  0.50528867481E+02  0.30000023196E+02 0.  0.
        -12    1    1    2    0    0 -0.35222379972E+02  0.32150057640E+01 -0.20055242313E+02  0.40659132519E+02  0.00000000000E+00 0.  1.
         11    1    3    3    0    0  0.21084237449E+02 -0.16425167914E+01  0.14755434716E+01  0.21199532048E+02  0.51100000000E-03 0. -1.
        -11    1    3    3    0    0  0.46758771119E+01  0.41681407274E+01  0.17040503147E+02  0.18155329016E+02  0.51100000000E-03 0.  1.
        -12    1    3    3    0    0  0.94622654105E+01 -0.57406297000E+01  0.15391956940E+01  0.11174006418E+02  0.00000000000E+00 0.  1.
</event>
<event>
 7    1  0.5525118E-011  0.5052886E+02  0.7816164E-02  0.1300439E+00
        -11   -1    0    0    0    0  0.00000000000E+00  0.00000000000E+00  0.45593999997E+02  0.45594000000E+02  0.51100000000E-03 0. -1.
         11   -1    0    0    0    0 -0.00000000000E+00 -0.00000000000E+00 -0.45593999997E+02  0.45594000000E+02  0.51100000000E-03 0.  1.
    9900012    2    1    2    0    0  0.24988711061E+01  0.35743425259E+02  0.19217922563E+02  0.50528863835E+02  0.30000012114E+02 0.  0.
        -12    1    1    2    0    0 -0.24988711061E+01 -0.35743425259E+02 -0.19217922563E+02  0.40659136165E+02  0.00000000000E+00 0.  1.
         11    1    3    3    0    0 -0.52184992577E+01  0.73490382663E+01 -0.62821485821E+01  0.10986650491E+02  0.51100000000E-03 0. -1.
        -11    1    3    3    0    0  0.65588014052E+00  0.43527131891E+01  0.10345012955E+01  0.45217788598E+01  0.51100000000E-03 0.  1.
         12    1    3    3    0    0  0.70614902233E+01  0.24041673803E+02  0.24465569849E+02  0.35020434485E+02  0.00000000000E+00 0. -1.
</event>
<event>
 7    1  0.5525118E-011  0.5052886E+02  0.7816164E-02  0.1300439E+00
        -11   -1    0    0    0    0  0.00000000000E+00  0.00000000000E+00  0.45593999997E+02  0.45594000000E+02  0.51100000000E-03 0.  1.
         11   -1    0    0    0    0 -0.00000000000E+00 -0.00000000000E+00 -0.45593999997E+02  0.45594000000E+02  0.51100000000E-03 0. -1.
    9900012    2    1    2    0    0  0.11024928117E+02 -0.13540762380E+02 -0.36718724675E+02  0.50528855548E+02  0.29999986924E+02 0.  0.
        -12    1    1    2    0    0 -0.11024928117E+02  0.13540762380E+02  0.36718724675E+02  0.40659144452E+02  0.00000000000E+00 0.  1.
         11    1    3    3    0    0  0.14311637730E+02 -0.67077298988E+01 -0.20379285635E+02  0.25790151185E+02  0.51100000000E-03 0. -1.
        -11    1    3    3    0    0 -0.76154423872E+01 -0.97570981142E+01 -0.14798710482E+02  0.19292427492E+02  0.51100000000E-03 0.  1.
        -12    1    3    3    0    0  0.43287327744E+01  0.29240656335E+01 -0.15407285589E+01  0.54462768707E+01  0.00000000000E+00 0.  1.
</event>
<event>
 7    1  0.5525118E-011  0.5052886E+02  0.7816164E-02  0.1300439E+00
        -11   -1    0    0    0    0  0.00000000000E+00  0.00000000000E+00  0.45593999997E+02  0.45594000000E+02  0.51100000000E-03 0.  1.
         11   -1    0    0    0    0 -0.00000000000E+00 -0.00000000000E+00 -0.45593999997E+02  0.45594000000E+02  0.51100000000E-03 0. -1.
    9900012    2    1    2    0    0 -0.19015334309E+02  0.31409229744E+01 -0.35801078599E+02  0.50528861238E+02  0.30000004220E+02 0.  0.
        -12    1    1    2    0    0  0.19015334309E+02 -0.31409229744E+01  0.35801078599E+02  0.40659138762E+02  0.00000000000E+00 0.  1.
         11    1    3    3    0    0  0.33433753715E+01 -0.12661334701E+01 -0.15325112207E+02  0.15736591666E+02  0.51100000000E-03 0. -1.
        -11    1    3    3    0    0 -0.21101761660E+02  0.34682270400E+01 -0.23260058977E+02  0.31596570824E+02  0.51100000000E-03 0.  1.
         12    1    3    3    0    0 -0.12569480201E+01  0.93882940445E+00  0.27840925846E+01  0.31956987492E+01  0.00000000000E+00 0. -1.
</event>
<event>
 7    1  0.5525118E-011  0.5052887E+02  0.7816164E-02  0.1300439E+00
        -11   -1    0    0    0    0  0.00000000000E+00  0.00000000000E+00  0.45593999997E+02  0.45594000000E+02  0.51100000000E-03 0. -1.
         11   -1    0    0    0    0 -0.00000000000E+00 -0.00000000000E+00 -0.45593999997E+02  0.45594000000E+02  0.51100000000E-03 0.  1.
    9900012    2    1    2    0    0 -0.13012530967E+02  0.24187797222E+02  0.29979821492E+02  0.50528865807E+02  0.30000018107E+02 0.  0.
        -12    1    1    2    0    0  0.13012530967E+02 -0.24187797222E+02 -0.29979821492E+02  0.40659134193E+02  0.00000000000E+00 0.  1.
         11    1    3    3    0    0 -0.15650267544E+02  0.42983311507E+01  0.16399521582E+02  0.23072729211E+02  0.51100000000E-03 0. -1.
        -11    1    3    3    0    0  0.59861769555E+01  0.74513274484E+01  0.12761186427E+01  0.96428768703E+01  0.51100000000E-03 0.  1.
         12    1    3    3    0    0 -0.33484403785E+01  0.12438138623E+02  0.12304181267E+02  0.17813259725E+02  0.00000000000E+00 0. -1.
</event>
<event>
 7    1  0.5525118E-011  0.5052886E+02  0.7816164E-02  0.1300439E+00
        -11   -1    0    0    0    0  0.00000000000E+00  0.00000000000E+00  0.45593999997E+02  0.45594000000E+02  0.51100000000E-03 0.  1.
         11   -1    0    0    0    0 -0.00000000000E+00 -0.00000000000E+00 -0.45593999997E+02  0.45594000000E+02  0.51100000000E-03 0. -1.
    9900012    2    1    2    0    0 -0.27707624140E+02 -0.46261686276E+01 -0.29394756450E+02  0.50528861072E+02  0.30000003713E+02 0.  0.
        -12    1    1    2    0    0  0.27707624140E+02  0.46261686276E+01  0.29394756450E+02  0.40659138928E+02  0.00000000000E+00 0.  1.
         11    1    3    3    0    0 -0.11528389629E+02  0.10944255040E+02 -0.18192302202E+02  0.24158649496E+02  0.51100000000E-03 0. -1.
        -11    1    3    3    0    0 -0.16406535758E+01 -0.37778562756E+01  0.71277479326E+00  0.41799510000E+01  0.51100000000E-03 0.  1.
         12    1    3    3    0    0 -0.14538580935E+02 -0.11792567392E+02 -0.11915229041E+02  0.22190260576E+02  0.00000000000E+00 0. -1.
</event>
<event>
 7    1  0.5525118E-011  0.5052886E+02  0.7816164E-02  0.1300439E+00
        -11   -1    0    0    0    0  0.00000000000E+00  0.00000000000E+00  0.45593999997E+02  0.45594000000E+02  0.51100000000E-03 0. -1.
         11   -1    0    0    0    0 -0.00000000000E+00 -0.00000000000E+00 -0.45593999997E+02  0.45594000000E+02  0.51100000000E-03 0.  1.
    9900012    2    1    2    0    0 -0.31320598330E+02  0.18206468945E+02  0.18458334930E+02  0.50528861795E+02  0.30000005912E+02 0.  0.
        -12    1    1    2    0    0  0.31320598330E+02 -0.18206468945E+02 -0.18458334930E+02  0.40659138205E+02  0.00000000000E+00 0.  1.
         11    1    3    3    0    0 -0.17507784619E+02 -0.38020403282E+01 -0.65456717798E-01  0.17915979398E+02  0.51100000000E-03 0. -1.
        -11    1    3    3    0    0 -0.60810735206E+01  0.15774426143E+02  0.11408870571E+02  0.20395448102E+02  0.51100000000E-03 0.  1.
         12    1    3    3    0    0 -0.77317401904E+01  0.62340831303E+01  0.71149210763E+01  0.12217434296E+02  0.00000000000E+00 0. -1.
</event>
<event>
 7    1  0.5525118E-011  0.5052886E+02  0.7816164E-02  0.1300439E+00
        -11   -1    0    0    0    0  0.00000000000E+00  0.00000000000E+00  0.45593999997E+02  0.45594000000E+02  0.51100000000E-03 0. -1.
         11   -1    0    0    0    0 -0.00000000000E+00 -0.00000000000E+00 -0.45593999997E+02  0.45594000000E+02  0.51100000000E-03 0.  1.
    9900012    2    1    2    0    0  0.11906563504E+02 -0.33772739651E+02  0.19256212530E+02  0.50528856883E+02  0.29999990983E+02 0.  0.
        -12    1    1    2    0    0 -0.11906563504E+02  0.33772739651E+02 -0.19256212530E+02  0.40659143117E+02  0.00000000000E+00 0.  1.
         11    1    3    3    0    0  0.90149102392E+01 -0.14951281322E+02  0.10388169552E+02  0.20315597128E+02  0.51100000000E-03 0. -1.
        -11    1    3    3    0    0 -0.84365074774E+01 -0.79579526263E+01 -0.10529959414E+01  0.11645276688E+02  0.51100000000E-03 0.  1.
        -12    1    3    3    0    0  0.11328160742E+02 -0.10863505703E+02  0.99210389190E+01  0.18567983067E+02  0.00000000000E+00 0.  1.
</event>
<event>
 7    1  0.5525118E-011  0.5052886E+02  0.7816164E-02  0.1300439E+00
        -11   -1    0    0    0    0  0.00000000000E+00  0.00000000000E+00  0.45593999997E+02  0.45594000000E+02  0.51100000000E-03 0. -1.
         11   -1    0    0    0    0 -0.00000000000E+00 -0.00000000000E+00 -0.45593999997E+02  0.45594000000E+02  0.51100000000E-03 0.  1.
    9900012    2    1    2    0    0 -0.17955620253E+02  0.30190944697E+02  0.20476050050E+02  0.50528855075E+02  0.29999985486E+02 0.  0.
        -12    1    1    2    0    0  0.17955620253E+02 -0.30190944697E+02 -0.20476050050E+02  0.40659144925E+02  0.00000000000E+00 0.  1.
         11    1    3    3    0    0 -0.16070242508E+02  0.15070636863E+02  0.12166361612E+02  0.25167382559E+02  0.51100000000E-03 0. -1.
        -11    1    3    3    0    0 -0.27916903486E+01  0.14292949526E+01 -0.52213698803E+01  0.60909049206E+01  0.51100000000E-03 0.  1.
         12    1    3    3    0    0  0.90631260279E+00  0.13691012882E+02  0.13531058318E+02  0.19270567596E+02  0.00000000000E+00 0. -1.
</event>
<event>
 7    1  0.5525118E-011  0.5052883E+02  0.7816164E-02  0.1300439E+00
        -11   -1    0    0    0    0  0.00000000000E+00  0.00000000000E+00  0.45593999997E+02  0.45594000000E+02  0.51100000000E-03 0.  1.
         11   -1    0    0    0    0 -0.00000000000E+00 -0.00000000000E+00 -0.45593999997E+02  0.45594000000E+02  0.51100000000E-03 0. -1.
    9900012    2    1    2    0    0 -0.36667401328E+02  0.11301905333E+02 -0.13451268694E+02  0.50528831123E+02  0.29999912681E+02 0.  0.
        -12    1    1    2    0    0  0.36667401328E+02 -0.11301905333E+02  0.13451268694E+02  0.40659168877E+02  0.00000000000E+00 0.  1.
         11    1    3    3    0    0 -0.52058387270E+01 -0.13181100073E-01 -0.69216275355E+01  0.86608232053E+01  0.51100000000E-03 0. -1.
        -11    1    3    3    0    0 -0.55787107416E+01  0.96948964153E+01  0.64032948548E+01  0.12888569172E+02  0.51100000000E-03 0.  1.
        -12    1    3    3    0    0 -0.25882851860E+02  0.16201900173E+01 -0.12932936013E+02  0.28979438745E+02  0.00000000000E+00 0.  1.
</event>
<event>
 7    1  0.5525118E-011  0.5052886E+02  0.7816164E-02  0.1300439E+00
        -11   -1    0    0    0    0  0.00000000000E+00  0.00000000000E+00  0.45593999997E+02  0.45594000000E+02  0.51100000000E-03 0.  1.
         11   -1    0    0    0    0 -0.00000000000E+00 -0.00000000000E+00 -0.45593999997E+02  0.45594000000E+02  0.51100000000E-03 0. -1.
    9900012    2    1    2    0    0 -0.16770558138E+02 -0.21486168313E+00 -0.37038731451E+02  0.50528863102E+02  0.30000009884E+02 0.  0.
        -12    1    1    2    0    0  0.16770558138E+02  0.21486168313E+00  0.37038731451E+02  0.40659136898E+02  0.00000000000E+00 0.  1.
         11    1    3    3    0    0 -0.97474018047E+00  0.78271494403E+01 -0.17082013537E+02  0.18815142134E+02  0.51100000000E-03 0. -1.
        -11    1    3    3    0    0 -0.15375897760E+02 -0.79797200521E+01 -0.68947955111E+01  0.18644901969E+02  0.51100000000E-03 0.  1.
        -12    1    3    3    0    0 -0.41992019715E+00 -0.62291071322E-01 -0.13061922403E+02  0.13068818998E+02  0.00000000000E+00 0.  1.
</event>
<event>
 7    1  0.5525118E-011  0.5052884E+02  0.7816164E-02  0.1300439E+00
        -11   -1    0    0    0    0  0.00000000000E+00  0.00000000000E+00  0.45593999997E+02  0.45594000000E+02  0.51100000000E-03 0.  1.
         11   -1    0    0    0    0 -0.00000000000E+00 -0.00000000000E+00 -0.45593999997E+02  0.45594000000E+02  0.51100000000E-03 0. -1.
    9900012    2    1    2    0    0 -0.25760063767E+02  0.23764026945E+02 -0.20612064594E+02  0.50528842744E+02  0.29999948006E+02 0.  0.
        -12    1    1    2    0    0  0.25760063767E+02 -0.23764026945E+02  0.20612064594E+02  0.40659157256E+02  0.00000000000E+00 0.  1.
         11    1    3    3    0    0 -0.10044716122E+02  0.76887272257E+01  0.51484866769E+01  0.13657223863E+02  0.51100000000E-03 0.  1.
        -11    1    3    3    0    0 -0.95034389295E+01  0.17414137561E+02 -0.21300736377E+02  0.29108227512E+02  0.51100000000E-03 0. -1.
         12    1    3    3    0    0 -0.62119087155E+01 -0.13388378415E+01 -0.44598148946E+01  0.77633913691E+01  0.00000000000E+00 0. -1.
</event>
<event>
 7    1  0.5525118E-011  0.5052885E+02  0.7816164E-02  0.1300439E+00
        -11   -1    0    0    0    0  0.00000000000E+00  0.00000000000E+00  0.45593999997E+02  0.45594000000E+02  0.51100000000E-03 0.  1.
         11   -1    0    0    0    0 -0.00000000000E+00 -0.00000000000E+00 -0.45593999997E+02  0.45594000000E+02  0.51100000000E-03 0. -1.
    9900012    2    1    2    0    0  0.14512023072E+02 -0.23124414205E+02 -0.30130198795E+02  0.50528853115E+02  0.29999979528E+02 0.  0.
        -12    1    1    2    0    0 -0.14512023072E+02  0.23124414205E+02  0.30130198795E+02  0.40659146885E+02  0.00000000000E+00 0.  1.
         11    1    3    3    0    0  0.50741664443E+01  0.11923426433E+01 -0.19857320453E+01  0.55778112285E+01  0.51100000000E-03 0. -1.
        -11    1    3    3    0    0 -0.45560179459E+00 -0.15670806740E+02 -0.27670968736E+02  0.31803526030E+02  0.51100000000E-03 0.  1.
        -12    1    3    3    0    0  0.98934584224E+01 -0.86459501084E+01 -0.47349801425E+00  0.13147515857E+02  0.00000000000E+00 0.  1.
</event>
<event>
 7    1  0.5525118E-011  0.5052886E+02  0.7816164E-02  0.1300439E+00
        -11   -1    0    0    0    0  0.00000000000E+00  0.00000000000E+00  0.45593999997E+02  0.45594000000E+02  0.51100000000E-03 0. -1.
         11   -1    0    0    0    0 -0.00000000000E+00 -0.00000000000E+00 -0.45593999997E+02  0.45594000000E+02  0.51100000000E-03 0.  1.
    9900012    2    1    2    0    0 -0.39093472589E+02  0.73656277122E+01  0.84031985052E+01  0.50528858153E+02  0.29999994841E+02 0.  0.
        -12    1    1    2    0    0  0.39093472589E+02 -0.73656277122E+01 -0.84031985052E+01  0.40659141847E+02  0.00000000000E+00 0.  1.
         11    1    3    3    0    0 -0.76183898434E+01 -0.38173499118E+01 -0.37784646946E+01  0.93214172670E+01  0.51100000000E-03 0. -1.
        -11    1    3    3    0    0 -0.32591551765E+02  0.48861048090E+01  0.10616697119E+02  0.34623655564E+02  0.51100000000E-03 0.  1.
        -12    1    3    3    0    0  0.11164690200E+01  0.62968728151E+01  0.15649660813E+01  0.65837853213E+01  0.00000000000E+00 0.  1.
</event>
<event>
 7    1  0.5525118E-011  0.5052886E+02  0.7816164E-02  0.1300439E+00
        -11   -1    0    0    0    0  0.00000000000E+00  0.00000000000E+00  0.45593999997E+02  0.45594000000E+02  0.51100000000E-03 0.  1.
         11   -1    0    0    0    0 -0.00000000000E+00 -0.00000000000E+00 -0.45593999997E+02  0.45594000000E+02  0.51100000000E-03 0. -1.
    9900012    2    1    2    0    0  0.10360115499E+02  0.54883856905E+00 -0.39313260962E+02  0.50528859522E+02  0.29999999003E+02 0.  0.
        -12    1    1    2    0    0 -0.10360115499E+02 -0.54883856905E+00  0.39313260962E+02  0.40659140478E+02  0.00000000000E+00 0.  1.
         11    1    3    3    0    0  0.37093989369E+01 -0.37061596398E+01 -0.32847264462E+02  0.33263163449E+02  0.51100000000E-03 0. -1.
        -11    1    3    3    0    0  0.60501200517E+01 -0.38262757719E+01 -0.44909389544E+00  0.71725884108E+01  0.51100000000E-03 0.  1.
         12    1    3    3    0    0  0.60059651088E+00  0.80812739808E+01 -0.60169026045E+01  0.10093107662E+02  0.00000000000E+00 0. -1.
</event>
<event>
 7    1  0.5525118E-011  0.5052886E+02  0.7816164E-02  0.1300439E+00
        -11   -1    0    0    0    0  0.00000000000E+00  0.00000000000E+00  0.45593999997E+02  0.45594000000E+02  0.51100000000E-03 0. -1.
         11   -1    0    0    0    0 -0.00000000000E+00 -0.00000000000E+00 -0.45593999997E+02  0.45594000000E+02  0.51100000000E-03 0.  1.
    9900012    2    1    2    0    0 -0.24335235651E+02 -0.15744049777E+02  0.28514681654E+02  0.50528857518E+02  0.29999992910E+02 0.  0.
        -12    1    1    2    0    0  0.24335235651E+02  0.15744049777E+02 -0.28514681654E+02  0.40659142482E+02  0.00000000000E+00 0.  1.
         11    1    3    3    0    0 -0.23951506285E+02  0.54864765433E+00  0.21239154518E+02  0.32016829207E+02  0.51100000000E-03 0. -1.
        -11    1    3    3    0    0 -0.21825621460E+01 -0.13481600495E+02  0.62607526776E+01  0.15023786267E+02  0.51100000000E-03 0.  1.
         12    1    3    3    0    0  0.17988327799E+01 -0.28110969366E+01  0.10147744586E+01  0.34882420442E+01  0.00000000000E+00 0. -1.
</event>
<event>
 7    1  0.5525118E-011  0.5052886E+02  0.7816164E-02  0.1300439E+00
        -11   -1    0    0    0    0  0.00000000000E+00  0.00000000000E+00  0.45593999997E+02  0.45594000000E+02  0.51100000000E-03 0.  1.
         11   -1    0    0    0    0 -0.00000000000E+00 -0.00000000000E+00 -0.45593999997E+02  0.45594000000E+02  0.51100000000E-03 0. -1.
    9900012    2    1    2    0    0 -0.16937278337E+02 -0.53992391476E+01 -0.36566956603E+02  0.50528862084E+02  0.30000006792E+02 0.  0.
        -12    1    1    2    0    0  0.16937278337E+02  0.53992391476E+01  0.36566956603E+02  0.40659137916E+02  0.00000000000E+00 0.  1.
         11    1    3    3    0    0 -0.19695063298E+02  0.71238495125E+00 -0.28698493786E+02  0.34813884536E+02  0.51100000000E-03 0. -1.
        -11    1    3    3    0    0  0.61279110397E+01 -0.28612754597E+01 -0.24371499446E+00  0.67673915378E+01  0.51100000000E-03 0.  1.
         12    1    3    3    0    0 -0.33701260784E+01 -0.32503486391E+01 -0.76247478221E+01  0.89475860102E+01  0.00000000000E+00 0. -1.
</event>
<event>
 7    1  0.5525118E-011  0.5052887E+02  0.7816164E-02  0.1300439E+00
        -11   -1    0    0    0    0  0.00000000000E+00  0.00000000000E+00  0.45593999997E+02  0.45594000000E+02  0.51100000000E-03 0. -1.
         11   -1    0    0    0    0 -0.00000000000E+00 -0.00000000000E+00 -0.45593999997E+02  0.45594000000E+02  0.51100000000E-03 0.  1.
    9900012    2    1    2    0    0  0.10813780612E+02  0.12168095420E+02  0.37258077902E+02  0.50528871060E+02  0.30000034073E+02 0.  0.
        -12    1    1    2    0    0 -0.10813780612E+02 -0.12168095420E+02 -0.37258077902E+02  0.40659128940E+02  0.00000000000E+00 0.  1.
         11    1    3    3    0    0  0.12194010180E+02  0.11359532753E+02  0.36354899368E+02  0.39992644035E+02  0.51100000000E-03 0. -1.
        -11    1    3    3    0    0  0.27560102481E+01 -0.11459869349E+01 -0.32106964810E+01  0.43837712870E+01  0.51100000000E-03 0.  1.
         12    1    3    3    0    0 -0.41362398159E+01  0.19545496026E+01  0.41138750147E+01  0.61524557374E+01  0.00000000000E+00 0. -1.
</event>
<event>
 7    1  0.5525118E-011  0.5052887E+02  0.7816164E-02  0.1300439E+00
        -11   -1    0    0    0    0  0.00000000000E+00  0.00000000000E+00  0.45593999997E+02  0.45594000000E+02  0.51100000000E-03 0.  1.
         11   -1    0    0    0    0 -0.00000000000E+00 -0.00000000000E+00 -0.45593999997E+02  0.45594000000E+02  0.51100000000E-03 0. -1.
    9900012    2    1    2    0    0  0.81700149944E+01  0.37815403815E+02 -0.12506449796E+02  0.50528865760E+02  0.30000017963E+02 0.  0.
        -12    1    1    2    0    0 -0.81700149944E+01 -0.37815403815E+02  0.12506449796E+02  0.40659134240E+02  0.00000000000E+00 0.  1.
         11    1    3    3    0    0  0.58833692527E+01  0.36966145940E+02 -0.11184443150E+02  0.39066632159E+02  0.51100000000E-03 0. -1.
        -11    1    3    3    0    0 -0.30417945714E+01  0.34524800974E+01  0.15732891512E+01  0.48628563676E+01  0.51100000000E-03 0.  1.
         12    1    3    3    0    0  0.53284403132E+01 -0.26032222226E+01 -0.28952957973E+01  0.65993772331E+01  0.00000000000E+00 0. -1.
</event>
<event>
 7    1  0.5525118E-011  0.5052887E+02  0.7816164E-02  0.1300439E+00
        -11   -1    0    0    0    0  0.00000000000E+00  0.00000000000E+00  0.45593999997E+02  0.45594000000E+02  0.51100000000E-03 0.  1.
         11   -1    0    0    0    0 -0.00000000000E+00 -0.00000000000E+00 -0.45593999997E+02  0.45594000000E+02  0.51100000000E-03 0. -1.
    9900012    2    1    2    0    0  0.18455985654E+02 -0.20348724320E+02 -0.29974504111E+02  0.50528869603E+02  0.30000029646E+02 0.  0.
        -12    1    1    2    0    0 -0.18455985654E+02  0.20348724320E+02  0.29974504111E+02  0.40659130397E+02  0.00000000000E+00 0.  1.
         11    1    3    3    0    0  0.80046932431E+01 -0.14108619763E+02  0.13358165436E+01  0.16276138105E+02  0.51100000000E-03 0.  1.
        -11    1    3    3    0    0  0.58977656512E+01  0.22494617704E-01 -0.16808942308E+02  0.17813609613E+02  0.51100000000E-03 0. -1.
         12    1    3    3    0    0  0.45535267595E+01 -0.62625991756E+01 -0.14501378347E+02  0.16439121885E+02  0.00000000000E+00 0. -1.
</event>
<event>
 7    1  0.5525118E-011  0.5052886E+02  0.7816164E-02  0.1300439E+00
        -11   -1    0    0    0    0  0.00000000000E+00  0.00000000000E+00  0.45593999997E+02  0.45594000000E+02  0.51100000000E-03 0.  1.
         11   -1    0    0    0    0 -0.00000000000E+00 -0.00000000000E+00 -0.45593999997E+02  0.45594000000E+02  0.51100000000E-03 0. -1.
    9900012    2    1    2    0    0 -0.24189735604E+02 -0.39209230958E+01 -0.32444550204E+02  0.50528858537E+02  0.29999996011E+02 0.  0.
        -12    1    1    2    0    0  0.24189735604E+02  0.39209230958E+01  0.32444550204E+02  0.40659141463E+02  0.00000000000E+00 0.  1.
         11    1    3    3    0    0 -0.26667493700E+02 -0.61795781456E+01 -0.32030956605E+02  0.42134600835E+02  0.51100000000E-03 0. -1.
        -11    1    3    3    0    0  0.45172136066E+01 -0.48231520064E+00 -0.15401087686E+01  0.47968512589E+01  0.51100000000E-03 0.  1.
         12    1    3    3    0    0 -0.20394555104E+01  0.27409702504E+01  0.11265151687E+01  0.35974064432E+01  0.00000000000E+00 0. -1.
</event>
<event>
 7    1  0.5525118E-011  0.5052887E+02  0.7816164E-02  0.1300439E+00
        -11   -1    0    0    0    0  0.00000000000E+00  0.00000000000E+00  0.45593999997E+02  0.45594000000E+02  0.51100000000E-03 0.  1.
         11   -1    0    0    0    0 -0.00000000000E+00 -0.00000000000E+00 -0.45593999997E+02  0.45594000000E+02  0.51100000000E-03 0. -1.
    9900012    2    1    2    0    0 -0.12598262530E+02  0.18740073045E+02 -0.33812101445E+02  0.50528871128E+02  0.30000034281E+02 0.  0.
        -12    1    1    2    0    0  0.12598262530E+02 -0.18740073045E+02  0.33812101445E+02  0.40659128872E+02  0.00000000000E+00 0.  1.
         11    1    3    3    0    0 -0.15972116754E+01  0.14350595065E+02 -0.29737282866E+02  0.33057475045E+02  0.51100000000E-03 0. -1.
        -11    1    3    3    0    0 -0.12631357112E+02  0.10354512027E+01 -0.11382630114E+01  0.12724739078E+02  0.51100000000E-03 0.  1.
        -12    1    3    3    0    0  0.16303062570E+01  0.33540267773E+01 -0.29365555676E+01  0.47466570042E+01  0.00000000000E+00 0.  1.
</event>
<event>
 7    1  0.5525118E-011  0.5052883E+02  0.7816164E-02  0.1300439E+00
        -11   -1    0    0    0    0  0.00000000000E+00  0.00000000000E+00  0.45593999997E+02  0.45594000000E+02  0.51100000000E-03 0.  1.
         11   -1    0    0    0    0 -0.00000000000E+00 -0.00000000000E+00 -0.45593999997E+02  0.45594000000E+02  0.51100000000E-03 0. -1.
    9900012    2    1    2    0    0  0.36382483116E+02  0.16459935421E+02  0.76520445247E+01  0.50528827147E+02  0.29999900594E+02 0.  0.
        -12    1    1    2    0    0 -0.36382483116E+02 -0.16459935421E+02 -0.76520445247E+01  0.40659172853E+02  0.00000000000E+00 0.  1.
         11    1    3    3    0    0  0.70837633853E+01  0.14362111806E+02 -0.59421493783E+01  0.17080957196E+02  0.51100000000E-03 0.  1.
        -11    1    3    3    0    0  0.28176375597E+02  0.21223157396E+01  0.10479245937E+02  0.30136804103E+02  0.51100000000E-03 0. -1.
         12    1    3    3    0    0  0.11223441336E+01 -0.24492124786E-01  0.31149479658E+01  0.33110658477E+01  0.00000000000E+00 0. -1.
</event>
<event>
 7    1  0.5525118E-011  0.5052884E+02  0.7816164E-02  0.1300439E+00
        -11   -1    0    0    0    0  0.00000000000E+00  0.00000000000E+00  0.45593999997E+02  0.45594000000E+02  0.51100000000E-03 0.  1.
         11   -1    0    0    0    0 -0.00000000000E+00 -0.00000000000E+00 -0.45593999997E+02  0.45594000000E+02  0.51100000000E-03 0. -1.
    9900012    2    1    2    0    0 -0.31929246877E+01 -0.33878118715E+02 -0.22254116012E+02  0.50528838976E+02  0.29999936551E+02 0.  0.
        -12    1    1    2    0    0  0.31929246877E+01  0.33878118715E+02  0.22254116012E+02  0.40659161024E+02  0.00000000000E+00 0.  1.
         11    1    3    3    0    0 -0.50879521915E+01 -0.59621656236E+01 -0.15118414711E+02  0.17029419839E+02  0.51100000000E-03 0. -1.
        -11    1    3    3    0    0  0.88552446234E+01 -0.95788574360E+01 -0.39418140297E+01  0.13627463639E+02  0.51100000000E-03 0.  1.
         12    1    3    3    0    0 -0.69602171197E+01 -0.18337095655E+02 -0.31938872716E+01  0.19871955498E+02  0.00000000000E+00 0. -1.
</event>
<event>
 7    1  0.5525118E-011  0.5052887E+02  0.7816164E-02  0.1300439E+00
        -11   -1    0    0    0    0  0.00000000000E+00  0.00000000000E+00  0.45593999997E+02  0.45594000000E+02  0.51100000000E-03 0.  1.
         11   -1    0    0    0    0 -0.00000000000E+00 -0.00000000000E+00 -0.45593999997E+02  0.45594000000E+02  0.51100000000E-03 0. -1.
    9900012    2    1    2    0    0  0.22907963459E+02 -0.32894229359E+02  0.68087731050E+01  0.50528874257E+02  0.30000043792E+02 0.  0.
        -12    1    1    2    0    0 -0.22907963459E+02  0.32894229359E+02 -0.68087731050E+01  0.40659125743E+02  0.00000000000E+00 0.  1.
         11    1    3    3    0    0  0.18685303163E+02 -0.17034955671E+02  0.67596806696E+01  0.26172954591E+02  0.51100000000E-03 0. -1.
        -11    1    3    3    0    0 -0.42466327907E+01 -0.14240655285E+02  0.31539580763E+01  0.15191366127E+02  0.51100000000E-03 0.  1.
        -12    1    3    3    0    0  0.84692930868E+01 -0.16186184035E+01 -0.31048656409E+01  0.91645535393E+01  0.00000000000E+00 0.  1.
</event>
<event>
 7    1  0.5525118E-011  0.5052887E+02  0.7816164E-02  0.1300439E+00
        -11   -1    0    0    0    0  0.00000000000E+00  0.00000000000E+00  0.45593999997E+02  0.45594000000E+02  0.51100000000E-03 0.  1.
         11   -1    0    0    0    0 -0.00000000000E+00 -0.00000000000E+00 -0.45593999997E+02  0.45594000000E+02  0.51100000000E-03 0. -1.
    9900012    2    1    2    0    0 -0.10707119125E+02 -0.24747167752E+02 -0.30431898446E+02  0.50528866282E+02  0.30000019551E+02 0.  0.
        -12    1    1    2    0    0  0.10707119125E+02  0.24747167752E+02  0.30431898446E+02  0.40659133718E+02  0.00000000000E+00 0.  1.
         11    1    3    3    0    0 -0.40672933724E+01 -0.99327175720E+01 -0.60448012714E+01  0.12318334969E+02  0.51100000000E-03 0. -1.
        -11    1    3    3    0    0  0.92537199097E+01 -0.53358770853E+01 -0.11269279794E+02  0.15527381743E+02  0.51100000000E-03 0.  1.
        -12    1    3    3    0    0 -0.15893545662E+02 -0.94785730947E+01 -0.13117817380E+02  0.22683149570E+02  0.00000000000E+00 0.  1.
</event>
<event>
 7    1  0.5525118E-011  0.5052887E+02  0.7816164E-02  0.1300439E+00
        -11   -1    0    0    0    0  0.00000000000E+00  0.00000000000E+00  0.45593999997E+02  0.45594000000E+02  0.51100000000E-03 0.  1.
         11   -1    0    0    0    0 -0.00000000000E+00 -0.00000000000E+00 -0.45593999997E+02  0.45594000000E+02  0.51100000000E-03 0. -1.
    9900012    2    1    2    0    0  0.31135524104E+02  0.18918084106E+02  0.18051327069E+02  0.50528866015E+02  0.30000018739E+02 0.  0.
        -12    1    1    2    0    0 -0.31135524104E+02 -0.18918084106E+02 -0.18051327069E+02  0.40659133985E+02  0.00000000000E+00 0.  1.
         11    1    3    3    0    0  0.57120477415E+01 -0.46188325189E+01 -0.41546924392E+01  0.84393467025E+01  0.51100000000E-03 0. -1.
        -11    1    3    3    0    0  0.25567083581E+02  0.24080497720E+02  0.21473897154E+02  0.41166423120E+02  0.51100000000E-03 0.  1.
        -12    1    3    3    0    0 -0.14360721837E+00 -0.54358109457E+00  0.73212235367E+00  0.92309619232E+00  0.00000000000E+00 0.  1.
</event>
<event>
 7    1  0.5525118E-011  0.5052889E+02  0.7816164E-02  0.1300439E+00
        -11   -1    0    0    0    0  0.00000000000E+00  0.00000000000E+00  0.45593999997E+02  0.45594000000E+02  0.51100000000E-03 0. -1.
         11   -1    0    0    0    0 -0.00000000000E+00 -0.00000000000E+00 -0.45593999997E+02  0.45594000000E+02  0.51100000000E-03 0.  1.
    9900012    2    1    2    0    0 -0.22174043051E+02  0.14352319157E+02  0.30910939687E+02  0.50528887335E+02  0.30000083544E+02 0.  0.
        -12    1    1    2    0    0  0.22174043051E+02 -0.14352319157E+02 -0.30910939687E+02  0.40659112665E+02  0.00000000000E+00 0.  1.
         11    1    3    3    0    0 -0.74620131640E+01  0.46554957082E+00  0.29003468145E+02  0.29951620016E+02  0.51100000000E-03 0. -1.
        -11    1    3    3    0    0 -0.29082212621E+01  0.26223062722E+01 -0.90839421296E+00  0.40198782819E+01  0.51100000000E-03 0.  1.
         12    1    3    3    0    0 -0.11803808625E+02  0.11264463314E+02  0.28158657546E+01  0.16557389038E+02  0.00000000000E+00 0. -1.
</event>
<event>
 7    1  0.5525118E-011  0.5052886E+02  0.7816164E-02  0.1300439E+00
        -11   -1    0    0    0    0  0.00000000000E+00  0.00000000000E+00  0.45593999997E+02  0.45594000000E+02  0.51100000000E-03 0.  1.
         11   -1    0    0    0    0 -0.00000000000E+00 -0.00000000000E+00 -0.45593999997E+02  0.45594000000E+02  0.51100000000E-03 0. -1.
    9900012    2    1    2    0    0  0.23165847377E+02  0.30353501406E+02 -0.13970477255E+02  0.50528858752E+02  0.29999996662E+02 0.  0.
        -12    1    1    2    0    0 -0.23165847377E+02 -0.30353501406E+02  0.13970477255E+02  0.40659141248E+02  0.00000000000E+00 0.  1.
         11    1    3    3    0    0  0.21273012498E+02  0.18451793688E+02 -0.45337097545E+01  0.28523048145E+02  0.51100000000E-03 0. -1.
        -11    1    3    3    0    0 -0.68234211357E+00 -0.27537093805E+01  0.17998725979E+01  0.33597690013E+01  0.51100000000E-03 0.  1.
         12    1    3    3    0    0  0.25751769927E+01  0.14655417098E+02 -0.11236640099E+02  0.18646041606E+02  0.00000000000E+00 0. -1.
</event>
<event>
 7    1  0.5525118E-011  0.5052895E+02  0.7816164E-02  0.1300438E+00
        -11   -1    0    0    0    0  0.00000000000E+00  0.00000000000E+00  0.45593999997E+02  0.45594000000E+02  0.51100000000E-03 0. -1.
         11   -1    0    0    0    0 -0.00000000000E+00 -0.00000000000E+00 -0.45593999997E+02  0.45594000000E+02  0.51100000000E-03 0.  1.
    9900012    2    1    2    0    0  0.26064688489E+02 -0.42327119412E+01 -0.30917217991E+02  0.50528951749E+02  0.30000279334E+02 0.  0.
        -12    1    1    2    0    0 -0.26064688489E+02  0.42327119412E+01  0.30917217991E+02  0.40659048251E+02  0.00000000000E+00 0.  1.
         11    1    3    3    0    0  0.18934464115E+02 -0.76306965488E+01 -0.51245265769E+01  0.21047618251E+02  0.51100000000E-03 0. -1.
        -11    1    3    3    0    0 -0.22994378658E+01  0.42160321066E+01 -0.92465880999E+01  0.10419296184E+02  0.51100000000E-03 0.  1.
        -12    1    3    3    0    0  0.94296622395E+01 -0.81804749906E+00 -0.16546103314E+02  0.19062037314E+02  0.00000000000E+00 0.  1.
</event>
<event>
 7    1  0.5525118E-011  0.5052888E+02  0.7816164E-02  0.1300439E+00
        -11   -1    0    0    0    0  0.00000000000E+00  0.00000000000E+00  0.45593999997E+02  0.45594000000E+02  0.51100000000E-03 0.  1.
         11   -1    0    0    0    0 -0.00000000000E+00 -0.00000000000E+00 -0.45593999997E+02  0.45594000000E+02  0.51100000000E-03 0. -1.
    9900012    2    1    2    0    0  0.34612068468E+02  0.20191210107E+02 -0.68908770505E+01  0.50528875123E+02  0.30000046425E+02 0.  0.
        -12    1    1    2    0    0 -0.34612068468E+02 -0.20191210107E+02  0.68908770505E+01  0.40659124877E+02  0.00000000000E+00 0.  1.
         11    1    3    3    0    0  0.99120832392E+01  0.19051995985E+02 -0.17118559147E+01  0.21544335592E+02  0.51100000000E-03 0. -1.
        -11    1    3    3    0    0  0.20134459881E+02  0.59733549949E+01 -0.78876888664E+00  0.21016650571E+02  0.51100000000E-03 0.  1.
         12    1    3    3    0    0  0.45655253479E+01 -0.48341408733E+01 -0.43902522492E+01  0.79678889611E+01  0.00000000000E+00 0. -1.
</event>
<event>
 7    1  0.5525118E-011  0.5052887E+02  0.7816164E-02  0.1300439E+00
        -11   -1    0    0    0    0  0.00000000000E+00  0.00000000000E+00  0.45593999997E+02  0.45594000000E+02  0.51100000000E-03 0.  1.
         11   -1    0    0    0    0 -0.00000000000E+00 -0.00000000000E+00 -0.45593999997E+02  0.45594000000E+02  0.51100000000E-03 0. -1.
    9900012    2    1    2    0    0  0.19620946707E+02  0.91413743094E+01 -0.34418293629E+02  0.50528865598E+02  0.30000017473E+02 0.  0.
        -12    1    1    2    0    0 -0.19620946707E+02 -0.91413743094E+01  0.34418293629E+02  0.40659134402E+02  0.00000000000E+00 0.  1.
         11    1    3    3    0    0  0.11767082104E+02  0.19206388687E+02 -0.28194101603E+02  0.36086797490E+02  0.51100000000E-03 0.  1.
        -11    1    3    3    0    0  0.68445852295E+01 -0.69797143040E+01 -0.44244091463E+01  0.10730338079E+02  0.51100000000E-03 0. -1.
        -12    1    3    3    0    0  0.10092793738E+01 -0.30853000736E+01 -0.17997828802E+01  0.37117300298E+01  0.00000000000E+00 0.  1.
</event>
<event>
 7    1  0.5525118E-011  0.5052886E+02  0.7816164E-02  0.1300439E+00
        -11   -1    0    0    0    0  0.00000000000E+00  0.00000000000E+00  0.45593999997E+02  0.45594000000E+02  0.51100000000E-03 0.  1.
         11   -1    0    0    0    0 -0.00000000000E+00 -0.00000000000E+00 -0.45593999997E+02  0.45594000000E+02  0.51100000000E-03 0. -1.
    9900012    2    1    2    0    0 -0.32208481490E+01  0.75242803071E+01 -0.39826836194E+02  0.50528861566E+02  0.30000005216E+02 0.  0.
        -12    1    1    2    0    0  0.32208481490E+01 -0.75242803071E+01  0.39826836194E+02  0.40659138434E+02  0.00000000000E+00 0.  1.
         11    1    3    3    0    0 -0.11430774439E+02  0.73764994738E+01 -0.22985102133E+02  0.26709366692E+02  0.51100000000E-03 0. -1.
        -11    1    3    3    0    0  0.68034042315E+01 -0.28646984117E+01 -0.78656755698E+00  0.74237116667E+01  0.51100000000E-03 0.  1.
         12    1    3    3    0    0  0.14065220586E+01  0.30124792450E+01 -0.16055166504E+02  0.16395783207E+02  0.00000000000E+00 0. -1.
</event>
<event>
 7    1  0.5525118E-011  0.5052886E+02  0.7816164E-02  0.1300439E+00
        -11   -1    0    0    0    0  0.00000000000E+00  0.00000000000E+00  0.45593999997E+02  0.45594000000E+02  0.51100000000E-03 0.  1.
         11   -1    0    0    0    0 -0.00000000000E+00 -0.00000000000E+00 -0.45593999997E+02  0.45594000000E+02  0.51100000000E-03 0. -1.
    9900012    2    1    2    0    0 -0.20264725692E+02 -0.28421568344E+02 -0.20849961824E+02  0.50528861266E+02  0.30000004305E+02 0.  0.
        -12    1    1    2    0    0  0.20264725692E+02  0.28421568344E+02  0.20849961824E+02  0.40659138734E+02  0.00000000000E+00 0.  1.
         11    1    3    3    0    0 -0.27137295795E+01  0.56950383392E+01 -0.37418562731E+01  0.73347991483E+01  0.51100000000E-03 0. -1.
        -11    1    3    3    0    0 -0.53215019663E+01 -0.15450570496E+02 -0.12073523597E+02  0.20317688947E+02  0.51100000000E-03 0.  1.
        -12    1    3    3    0    0 -0.12229494146E+02 -0.18666036188E+02 -0.50345819530E+01  0.22876373171E+02  0.00000000000E+00 0.  1.
</event>
<event>
 7    1  0.5525118E-011  0.5052886E+02  0.7816164E-02  0.1300439E+00
        -11   -1    0    0    0    0  0.00000000000E+00  0.00000000000E+00  0.45593999997E+02  0.45594000000E+02  0.51100000000E-03 0. -1.
         11   -1    0    0    0    0 -0.00000000000E+00 -0.00000000000E+00 -0.45593999997E+02  0.45594000000E+02  0.51100000000E-03 0.  1.
    9900012    2    1    2    0    0 -0.19591130089E+02 -0.35527182085E+02  0.26782002612E+01  0.50528858325E+02  0.29999995366E+02 0.  0.
        -12    1    1    2    0    0  0.19591130089E+02  0.35527182085E+02 -0.26782002612E+01  0.40659141675E+02  0.00000000000E+00 0.  1.
         11    1    3    3    0    0 -0.97470422323E+01 -0.26902237184E+02 -0.22714366577E+01  0.28703564631E+02  0.51100000000E-03 0. -1.
        -11    1    3    3    0    0  0.35188368850E+01 -0.33927997612E+01  0.56332058820E+01  0.74583049021E+01  0.51100000000E-03 0.  1.
        -12    1    3    3    0    0 -0.13362924742E+02 -0.52321451398E+01 -0.68356896307E+00  0.14366988792E+02  0.00000000000E+00 0.  1.
</event>
<event>
 7    1  0.5525118E-011  0.5052887E+02  0.7816164E-02  0.1300439E+00
        -11   -1    0    0    0    0  0.00000000000E+00  0.00000000000E+00  0.45593999997E+02  0.45594000000E+02  0.51100000000E-03 0.  1.
         11   -1    0    0    0    0 -0.00000000000E+00 -0.00000000000E+00 -0.45593999997E+02  0.45594000000E+02  0.51100000000E-03 0. -1.
    9900012    2    1    2    0    0  0.98465249105E+01  0.29504277563E+02 -0.26186041907E+02  0.50528865257E+02  0.30000016434E+02 0.  0.
        -12    1    1    2    0    0 -0.98465249105E+01 -0.29504277563E+02  0.26186041907E+02  0.40659134743E+02  0.00000000000E+00 0.  1.
         11    1    3    3    0    0  0.97211155797E+01  0.18078488197E+02 -0.24809957440E+02  0.32200400806E+02  0.51100000000E-03 0. -1.
        -11    1    3    3    0    0 -0.12384813709E+01  0.96954958401E+01  0.54253825740E+01  0.11179054165E+02  0.51100000000E-03 0.  1.
         12    1    3    3    0    0  0.13638907016E+01  0.17302935264E+01 -0.68014670404E+01  0.71494102858E+01  0.00000000000E+00 0. -1.
</event>
<event>
 7    1  0.5525118E-011  0.5052886E+02  0.7816164E-02  0.1300439E+00
        -11   -1    0    0    0    0  0.00000000000E+00  0.00000000000E+00  0.45593999997E+02  0.45594000000E+02  0.51100000000E-03 0.  1.
         11   -1    0    0    0    0 -0.00000000000E+00 -0.00000000000E+00 -0.45593999997E+02  0.45594000000E+02  0.51100000000E-03 0. -1.
    9900012    2    1    2    0    0  0.63493029591E+01  0.20702090746E+01 -0.40106930582E+02  0.50528864564E+02  0.30000014329E+02 0.  0.
        -12    1    1    2    0    0 -0.63493029591E+01 -0.20702090746E+01  0.40106930582E+02  0.40659135436E+02  0.00000000000E+00 0.  1.
         11    1    3    3    0    0 -0.55711252878E+01  0.16048234006E+01 -0.18982411192E+02  0.19848043482E+02  0.51100000000E-03 0. -1.
        -11    1    3    3    0    0  0.91071777958E+01  0.87516200784E+01 -0.16511850704E+02  0.20788765123E+02  0.51100000000E-03 0.  1.
        -12    1    3    3    0    0  0.28132504511E+01 -0.82862344045E+01 -0.46126686860E+01  0.98920559599E+01  0.00000000000E+00 0.  1.
</event>
<event>
 7    1  0.5525118E-011  0.5052886E+02  0.7816164E-02  0.1300439E+00
        -11   -1    0    0    0    0  0.00000000000E+00  0.00000000000E+00  0.45593999997E+02  0.45594000000E+02  0.51100000000E-03 0.  1.
         11   -1    0    0    0    0 -0.00000000000E+00 -0.00000000000E+00 -0.45593999997E+02  0.45594000000E+02  0.51100000000E-03 0. -1.
    9900012    2    1    2    0    0  0.31435065123E+02  0.15256940125E+02 -0.20790105778E+02  0.50528855400E+02  0.29999986475E+02 0.  0.
        -12    1    1    2    0    0 -0.31435065123E+02 -0.15256940125E+02  0.20790105778E+02  0.40659144600E+02  0.00000000000E+00 0.  1.
         11    1    3    3    0    0  0.79272612812E+00 -0.29789001944E+01 -0.10916886203E+02  0.11343750073E+02  0.51100000000E-03 0. -1.
        -11    1    3    3    0    0  0.26406678188E+02  0.20193676137E+02 -0.83370163511E+01  0.34272482413E+02  0.51100000000E-03 0.  1.
        -12    1    3    3    0    0  0.42356608069E+01 -0.19578358167E+01 -0.15362032237E+01  0.49126229146E+01  0.00000000000E+00 0.  1.
</event>
<event>
 7    1  0.5525118E-011  0.5052886E+02  0.7816164E-02  0.1300439E+00
        -11   -1    0    0    0    0  0.00000000000E+00  0.00000000000E+00  0.45593999997E+02  0.45594000000E+02  0.51100000000E-03 0.  1.
         11   -1    0    0    0    0 -0.00000000000E+00 -0.00000000000E+00 -0.45593999997E+02  0.45594000000E+02  0.51100000000E-03 0. -1.
    9900012    2    1    2    0    0  0.14570033472E+02 -0.12291242534E+02 -0.35913859267E+02  0.50528858275E+02  0.29999995212E+02 0.  0.
        -12    1    1    2    0    0 -0.14570033472E+02  0.12291242534E+02  0.35913859267E+02  0.40659141725E+02  0.00000000000E+00 0.  1.
         11    1    3    3    0    0  0.17164164511E+02 -0.30159769071E+00 -0.28662762754E+02  0.33410379727E+02  0.51100000000E-03 0. -1.
        -11    1    3    3    0    0 -0.30585421027E+01 -0.11577374636E+02 -0.23810523560E+01  0.12209000526E+02  0.51100000000E-03 0.  1.
        -12    1    3    3    0    0  0.46441106339E+00 -0.41227020697E+00 -0.48700441565E+01  0.49094780217E+01  0.00000000000E+00 0.  1.
</event>
<event>
 7    1  0.5525118E-011  0.5052886E+02  0.7816164E-02  0.1300439E+00
        -11   -1    0    0    0    0  0.00000000000E+00  0.00000000000E+00  0.45593999997E+02  0.45594000000E+02  0.51100000000E-03 0. -1.
         11   -1    0    0    0    0 -0.00000000000E+00 -0.00000000000E+00 -0.45593999997E+02  0.45594000000E+02  0.51100000000E-03 0.  1.
    9900012    2    1    2    0    0  0.14661902353E+02  0.33668372736E+02  0.17453789771E+02  0.50528862273E+02  0.30000007365E+02 0.  0.
        -12    1    1    2    0    0 -0.14661902353E+02 -0.33668372736E+02 -0.17453789771E+02  0.40659137727E+02  0.00000000000E+00 0.  1.
         11    1    3    3    0    0  0.13589868038E+02  0.75764473360E+01  0.18078399106E+02  0.23851951325E+02  0.51100000000E-03 0. -1.
        -11    1    3    3    0    0  0.25290963770E+01  0.10619013432E+02 -0.19123884176E+01  0.11082283360E+02  0.51100000000E-03 0.  1.
         12    1    3    3    0    0 -0.14570620618E+01  0.15472911968E+02  0.12877790829E+01  0.15594627588E+02  0.00000000000E+00 0. -1.
</event>
<event>
 7    1  0.5525118E-011  0.5052886E+02  0.7816164E-02  0.1300439E+00
        -11   -1    0    0    0    0  0.00000000000E+00  0.00000000000E+00  0.45593999997E+02  0.45594000000E+02  0.51100000000E-03 0. -1.
         11   -1    0    0    0    0 -0.00000000000E+00 -0.00000000000E+00 -0.45593999997E+02  0.45594000000E+02  0.51100000000E-03 0.  1.
    9900012    2    1    2    0    0  0.14756269788E+01 -0.37381712311E+02  0.15924693970E+02  0.50528858736E+02  0.29999996614E+02 0.  0.
        -12    1    1    2    0    0 -0.14756269788E+01  0.37381712311E+02 -0.15924693970E+02  0.40659141264E+02  0.00000000000E+00 0.  1.
         11    1    3    3    0    0 -0.19235380851E+01 -0.18835397865E+02  0.12898134844E+02  0.22909257828E+02  0.51100000000E-03 0. -1.
        -11    1    3    3    0    0  0.53493093285E+01 -0.58029574483E+01 -0.75668831156E+01  0.10933761740E+02  0.51100000000E-03 0.  1.
        -12    1    3    3    0    0 -0.19501442647E+01 -0.12743356998E+02  0.10593442241E+02  0.16685839168E+02  0.00000000000E+00 0.  1.
</event>
<event>
 7    1  0.5525118E-011  0.5052887E+02  0.7816164E-02  0.1300439E+00
        -11   -1    0    0    0    0  0.00000000000E+00  0.00000000000E+00  0.45593999997E+02  0.45594000000E+02  0.51100000000E-03 0. -1.
         11   -1    0    0    0    0 -0.00000000000E+00 -0.00000000000E+00 -0.45593999997E+02  0.45594000000E+02  0.51100000000E-03 0.  1.
    9900012    2    1    2    0    0 -0.17605581767E+02 -0.32087922974E+02  0.17708012123E+02  0.50528868141E+02  0.30000025202E+02 0.  0.
        -12    1    1    2    0    0  0.17605581767E+02  0.32087922974E+02 -0.17708012123E+02  0.40659131859E+02  0.00000000000E+00 0.  1.
         11    1    3    3    0    0  0.37000555769E+01 -0.16465385392E+02 -0.11275918369E+01  0.16913627375E+02  0.51100000000E-03 0. -1.
        -11    1    3    3    0    0 -0.18655389647E+02 -0.16615586438E+02  0.17377372557E+02  0.30431469777E+02  0.51100000000E-03 0.  1.
        -12    1    3    3    0    0 -0.26502476967E+01  0.99304885552E+00  0.14582314028E+01  0.31837709885E+01  0.00000000000E+00 0.  1.
</event>
<event>
 7    1  0.5525118E-011  0.5052885E+02  0.7816164E-02  0.1300439E+00
        -11   -1    0    0    0    0  0.00000000000E+00  0.00000000000E+00  0.45593999997E+02  0.45594000000E+02  0.51100000000E-03 0.  1.
         11   -1    0    0    0    0 -0.00000000000E+00 -0.00000000000E+00 -0.45593999997E+02  0.45594000000E+02  0.51100000000E-03 0. -1.
    9900012    2    1    2    0    0 -0.25755724770E+02 -0.15903945965E+02 -0.27145408851E+02  0.50528854935E+02  0.29999985061E+02 0.  0.
        -12    1    1    2    0    0  0.25755724770E+02  0.15903945965E+02  0.27145408851E+02  0.40659145065E+02  0.00000000000E+00 0.  1.
         11    1    3    3    0    0 -0.20263437857E+01 -0.28019125629E+01 -0.85272164154E+01  0.92016413320E+01  0.51100000000E-03 0. -1.
        -11    1    3    3    0    0 -0.17242122952E+02 -0.63182036908E+01  0.21963006687E+01  0.18494167693E+02  0.51100000000E-03 0.  1.
        -12    1    3    3    0    0 -0.64872580325E+01 -0.67838297117E+01 -0.20814493104E+02  0.22833045910E+02  0.00000000000E+00 0.  1.
</event>
<event>
 7    1  0.5525118E-011  0.5052886E+02  0.7816164E-02  0.1300439E+00
        -11   -1    0    0    0    0  0.00000000000E+00  0.00000000000E+00  0.45593999997E+02  0.45594000000E+02  0.51100000000E-03 0.  1.
         11   -1    0    0    0    0 -0.00000000000E+00 -0.00000000000E+00 -0.45593999997E+02  0.45594000000E+02  0.51100000000E-03 0. -1.
    9900012    2    1    2    0    0  0.81832014044E+01  0.25487608382E+02 -0.30603636718E+02  0.50528861463E+02  0.30000004903E+02 0.  0.
        -12    1    1    2    0    0 -0.81832014044E+01 -0.25487608382E+02  0.30603636718E+02  0.40659138537E+02  0.00000000000E+00 0.  1.
         11    1    3    3    0    0  0.17276126589E+01  0.80047128434E+01 -0.27260512244E+02  0.28463935098E+02  0.51100000000E-03 0. -1.
        -11    1    3    3    0    0  0.84252034788E+01  0.13819946880E+02 -0.58482596405E+01  0.17209797399E+02  0.51100000000E-03 0.  1.
         12    1    3    3    0    0 -0.19696147333E+01  0.36629486582E+01  0.25051351670E+01  0.48551289659E+01  0.00000000000E+00 0. -1.
</event>
<event>
 7    1  0.5525118E-011  0.5052887E+02  0.7816164E-02  0.1300439E+00
        -11   -1    0    0    0    0  0.00000000000E+00  0.00000000000E+00  0.45593999997E+02  0.45594000000E+02  0.51100000000E-03 0.  1.
         11   -1    0    0    0    0 -0.00000000000E+00 -0.00000000000E+00 -0.45593999997E+02  0.45594000000E+02  0.51100000000E-03 0. -1.
    9900012    2    1    2    0    0  0.15288366208E+02  0.19188822058E+02 -0.32422517766E+02  0.50528871977E+02  0.30000036861E+02 0.  0.
        -12    1    1    2    0    0 -0.15288366208E+02 -0.19188822058E+02  0.32422517766E+02  0.40659128023E+02  0.00000000000E+00 0.  1.
         11    1    3    3    0    0  0.19888034617E+01  0.16461904284E+02 -0.38919968454E+01  0.17032242118E+02  0.51100000000E-03 0. -1.
        -11    1    3    3    0    0  0.21005540001E+01 -0.50258089552E+00 -0.16877416802E+02  0.17015055475E+02  0.51100000000E-03 0.  1.
        -12    1    3    3    0    0  0.11199008747E+02  0.32294986694E+01 -0.11653104119E+02  0.16481574384E+02  0.00000000000E+00 0.  1.
</event>
<event>
 7    1  0.5525118E-011  0.5052885E+02  0.7816164E-02  0.1300439E+00
        -11   -1    0    0    0    0  0.00000000000E+00  0.00000000000E+00  0.45593999997E+02  0.45594000000E+02  0.51100000000E-03 0.  1.
         11   -1    0    0    0    0 -0.00000000000E+00 -0.00000000000E+00 -0.45593999997E+02  0.45594000000E+02  0.51100000000E-03 0. -1.
    9900012    2    1    2    0    0  0.11138635288E+02  0.38159525311E+02  0.85409468616E+01  0.50528851690E+02  0.29999975196E+02 0.  0.
        -12    1    1    2    0    0 -0.11138635288E+02 -0.38159525311E+02 -0.85409468616E+01  0.40659148310E+02  0.00000000000E+00 0.  1.
         11    1    3    3    0    0  0.14169236490E+01  0.16912502015E+02  0.67044803704E+00  0.16984990370E+02  0.51100000000E-03 0. -1.
        -11    1    3    3    0    0  0.43388872327E+01  0.56580779519E+01  0.14191402200E+02  0.15881929517E+02  0.51100000000E-03 0.  1.
        -12    1    3    3    0    0  0.53828244059E+01  0.15588945344E+02 -0.63209033751E+01  0.17661931803E+02  0.00000000000E+00 0.  1.
</event>
<event>
 7    1  0.5525118E-011  0.5052887E+02  0.7816164E-02  0.1300439E+00
        -11   -1    0    0    0    0  0.00000000000E+00  0.00000000000E+00  0.45593999997E+02  0.45594000000E+02  0.51100000000E-03 0. -1.
         11   -1    0    0    0    0 -0.00000000000E+00 -0.00000000000E+00 -0.45593999997E+02  0.45594000000E+02  0.51100000000E-03 0.  1.
    9900012    2    1    2    0    0  0.40652432906E+02 -0.50306627735E-01  0.73634910329E+00  0.50528867669E+02  0.30000023767E+02 0.  0.
        -12    1    1    2    0    0 -0.40652432906E+02  0.50306627735E-01 -0.73634910329E+00  0.40659132331E+02  0.00000000000E+00 0.  1.
         11    1    3    3    0    0  0.36192642392E+02 -0.68130299036E+01  0.67986820832E+01  0.37450591692E+02  0.51100000000E-03 0. -1.
        -11    1    3    3    0    0  0.57438646969E+01  0.55319621912E+01 -0.73793853214E+01  0.10865077787E+02  0.51100000000E-03 0.  1.
        -12    1    3    3    0    0 -0.12840741833E+01  0.12307610847E+01  0.13170523415E+01  0.22131981895E+01  0.00000000000E+00 0.  1.
</event>
<event>
 7    1  0.5525118E-011  0.5052884E+02  0.7816164E-02  0.1300439E+00
        -11   -1    0    0    0    0  0.00000000000E+00  0.00000000000E+00  0.45593999997E+02  0.45594000000E+02  0.51100000000E-03 0. -1.
         11   -1    0    0    0    0 -0.00000000000E+00 -0.00000000000E+00 -0.45593999997E+02  0.45594000000E+02  0.51100000000E-03 0.  1.
    9900012    2    1    2    0    0  0.29779387601E+02 -0.27676189971E+02 -0.61960202062E+00  0.50528839607E+02  0.29999938469E+02 0.  0.
        -12    1    1    2    0    0 -0.29779387601E+02  0.27676189971E+02  0.61960202062E+00  0.40659160393E+02  0.00000000000E+00 0.  1.
         11    1    3    3    0    0  0.16920817751E+02 -0.10522865384E+02  0.48035461021E+01  0.20496800352E+02  0.51100000000E-03 0. -1.
        -11    1    3    3    0    0  0.48645424072E+01 -0.14556652101E+02 -0.11900010896E+02  0.19420869002E+02  0.51100000000E-03 0.  1.
         12    1    3    3    0    0  0.79940274428E+01 -0.25966724867E+01  0.64768627728E+01  0.10611170253E+02  0.00000000000E+00 0. -1.
</event>
<event>
 7    1  0.5525118E-011  0.5052887E+02  0.7816164E-02  0.1300439E+00
        -11   -1    0    0    0    0  0.00000000000E+00  0.00000000000E+00  0.45593999997E+02  0.45594000000E+02  0.51100000000E-03 0.  1.
         11   -1    0    0    0    0 -0.00000000000E+00 -0.00000000000E+00 -0.45593999997E+02  0.45594000000E+02  0.51100000000E-03 0. -1.
    9900012    2    1    2    0    0 -0.18458136736E+02  0.27273317142E+02 -0.23845934560E+02  0.50528865297E+02  0.30000016558E+02 0.  0.
        -12    1    1    2    0    0  0.18458136736E+02 -0.27273317142E+02  0.23845934560E+02  0.40659134703E+02  0.00000000000E+00 0.  1.
         11    1    3    3    0    0 -0.75714899423E+01  0.15232818847E+02 -0.18790904773E+02  0.25346880132E+02  0.51100000000E-03 0. -1.
        -11    1    3    3    0    0  0.20814640968E+01 -0.17845732370E+01  0.34493779927E+01  0.44062913229E+01  0.51100000000E-03 0.  1.
        -12    1    3    3    0    0 -0.12968110890E+02  0.13825071532E+02 -0.85044077797E+01  0.20775693842E+02  0.00000000000E+00 0.  1.
</event>
<event>
 7    1  0.5525118E-011  0.5052886E+02  0.7816164E-02  0.1300439E+00
        -11   -1    0    0    0    0  0.00000000000E+00  0.00000000000E+00  0.45593999997E+02  0.45594000000E+02  0.51100000000E-03 0.  1.
         11   -1    0    0    0    0 -0.00000000000E+00 -0.00000000000E+00 -0.45593999997E+02  0.45594000000E+02  0.51100000000E-03 0. -1.
    9900012    2    1    2    0    0 -0.13187733587E+02 -0.14011054453E+02 -0.35818147022E+02  0.50528860558E+02  0.30000002152E+02 0.  0.
        -12    1    1    2    0    0  0.13187733587E+02  0.14011054453E+02  0.35818147022E+02  0.40659139442E+02  0.00000000000E+00 0.  1.
         11    1    3    3    0    0 -0.10142105204E+02 -0.12657908137E+01 -0.35263486210E+01  0.10812014576E+02  0.51100000000E-03 0. -1.
        -11    1    3    3    0    0  0.63823859499E+01 -0.12010853340E+02 -0.17567998578E+02  0.22217786178E+02  0.51100000000E-03 0.  1.
        -12    1    3    3    0    0 -0.94280143329E+01 -0.73441029936E+00 -0.14723799824E+02  0.17499059803E+02  0.00000000000E+00 0.  1.
</event>
<event>
 7    1  0.5525118E-011  0.5052888E+02  0.7816164E-02  0.1300439E+00
        -11   -1    0    0    0    0  0.00000000000E+00  0.00000000000E+00  0.45593999997E+02  0.45594000000E+02  0.51100000000E-03 0.  1.
         11   -1    0    0    0    0 -0.00000000000E+00 -0.00000000000E+00 -0.45593999997E+02  0.45594000000E+02  0.51100000000E-03 0. -1.
    9900012    2    1    2    0    0 -0.24244997468E+02 -0.24569573695E+02 -0.21486744826E+02  0.50528879781E+02  0.30000060581E+02 0.  0.
        -12    1    1    2    0    0  0.24244997468E+02  0.24569573695E+02  0.21486744826E+02  0.40659120219E+02  0.00000000000E+00 0.  1.
         11    1    3    3    0    0 -0.25746023775E+02 -0.22679167959E+02 -0.18350709818E+02  0.38909522621E+02  0.51100000000E-03 0. -1.
        -11    1    3    3    0    0  0.35492615913E+01 -0.14257690104E+00  0.31709990682E+01  0.47615986147E+01  0.51100000000E-03 0.  1.
         12    1    3    3    0    0 -0.20482352844E+01 -0.17478288354E+01 -0.63070340767E+01  0.68577585451E+01  0.00000000000E+00 0. -1.
</event>
<event>
 7    1  0.5525118E-011  0.5052886E+02  0.7816164E-02  0.1300439E+00
        -11   -1    0    0    0    0  0.00000000000E+00  0.00000000000E+00  0.45593999997E+02  0.45594000000E+02  0.51100000000E-03 0.  1.
         11   -1    0    0    0    0 -0.00000000000E+00 -0.00000000000E+00 -0.45593999997E+02  0.45594000000E+02  0.51100000000E-03 0. -1.
    9900012    2    1    2    0    0 -0.12825388596E+02 -0.35467953838E+02 -0.15188790143E+02  0.50528859723E+02  0.29999999614E+02 0.  0.
        -12    1    1    2    0    0  0.12825388596E+02  0.35467953838E+02  0.15188790143E+02  0.40659140277E+02  0.00000000000E+00 0.  1.
         11    1    3    3    0    0 -0.19506861742E+02 -0.34362934372E+02 -0.15814881647E+02  0.42561007923E+02  0.51100000000E-03 0. -1.
        -11    1    3    3    0    0  0.18510922903E+01  0.15165949842E+01 -0.23623746966E+00  0.24046645123E+01  0.51100000000E-03 0.  1.
         12    1    3    3    0    0  0.48303808558E+01 -0.26216144495E+01  0.86232897344E+00  0.55631872872E+01  0.00000000000E+00 0. -1.
</event>
<event>
 7    1  0.5525118E-011  0.5052885E+02  0.7816164E-02  0.1300439E+00
        -11   -1    0    0    0    0  0.00000000000E+00  0.00000000000E+00  0.45593999997E+02  0.45594000000E+02  0.51100000000E-03 0.  1.
         11   -1    0    0    0    0 -0.00000000000E+00 -0.00000000000E+00 -0.45593999997E+02  0.45594000000E+02  0.51100000000E-03 0. -1.
    9900012    2    1    2    0    0 -0.37484827006E+02  0.12150698893E+02 -0.10020720789E+02  0.50528848700E+02  0.29999966110E+02 0.  0.
        -12    1    1    2    0    0  0.37484827006E+02 -0.12150698893E+02  0.10020720789E+02  0.40659151300E+02  0.00000000000E+00 0.  1.
         11    1    3    3    0    0 -0.15416398175E+02  0.14341368502E+02 -0.76081904595E+01  0.22388049167E+02  0.51100000000E-03 0. -1.
        -11    1    3    3    0    0 -0.97802813722E+01 -0.17318498119E+01  0.74186758698E+01  0.12397175461E+02  0.51100000000E-03 0.  1.
         12    1    3    3    0    0 -0.12288147459E+02 -0.45881979698E+00 -0.98312061996E+01  0.15743624072E+02  0.00000000000E+00 0. -1.
</event>
<event>
 7    1  0.5525118E-011  0.5052883E+02  0.7816164E-02  0.1300439E+00
        -11   -1    0    0    0    0  0.00000000000E+00  0.00000000000E+00  0.45593999997E+02  0.45594000000E+02  0.51100000000E-03 0. -1.
         11   -1    0    0    0    0 -0.00000000000E+00 -0.00000000000E+00 -0.45593999997E+02  0.45594000000E+02  0.51100000000E-03 0.  1.
    9900012    2    1    2    0    0 -0.29771905107E+02 -0.12086177351E+02 -0.24914369012E+02  0.50528833753E+02  0.29999920676E+02 0.  0.
        -12    1    1    2    0    0  0.29771905107E+02  0.12086177351E+02  0.24914369012E+02  0.40659166247E+02  0.00000000000E+00 0.  1.
         11    1    3    3    0    0 -0.12412229836E+02  0.40388022354E+01 -0.17668831303E+02  0.21967316015E+02  0.51100000000E-03 0. -1.
        -11    1    3    3    0    0 -0.47400540767E+01 -0.11655889087E+02  0.13453703213E+01  0.12654559835E+02  0.51100000000E-03 0.  1.
        -12    1    3    3    0    0 -0.12619621194E+02 -0.44690904986E+01 -0.85909080295E+01  0.15906957903E+02  0.00000000000E+00 0.  1.
</event>
<event>
 7    1  0.5525118E-011  0.5052885E+02  0.7816164E-02  0.1300439E+00
        -11   -1    0    0    0    0  0.00000000000E+00  0.00000000000E+00  0.45593999997E+02  0.45594000000E+02  0.51100000000E-03 0.  1.
         11   -1    0    0    0    0 -0.00000000000E+00 -0.00000000000E+00 -0.45593999997E+02  0.45594000000E+02  0.51100000000E-03 0. -1.
    9900012    2    1    2    0    0  0.27062879375E+02 -0.27444376879E+02  0.12944995208E+02  0.50528853879E+02  0.29999981852E+02 0.  0.
        -12    1    1    2    0    0 -0.27062879375E+02  0.27444376879E+02 -0.12944995208E+02  0.40659146121E+02  0.00000000000E+00 0.  1.
         11    1    3    3    0    0  0.13441728758E+02 -0.16259766844E+02  0.11451906997E+02  0.24004296781E+02  0.51100000000E-03 0. -1.
        -11    1    3    3    0    0  0.12111482613E+02 -0.91523128809E+01 -0.76769816123E+01  0.17011434069E+02  0.51100000000E-03 0.  1.
        -12    1    3    3    0    0  0.15096680039E+01 -0.20322971534E+01  0.91700698231E+01  0.95131230288E+01  0.00000000000E+00 0.  1.
</event>
<event>
 7    1  0.5525118E-011  0.5052886E+02  0.7816164E-02  0.1300439E+00
        -11   -1    0    0    0    0  0.00000000000E+00  0.00000000000E+00  0.45593999997E+02  0.45594000000E+02  0.51100000000E-03 0.  1.
         11   -1    0    0    0    0 -0.00000000000E+00 -0.00000000000E+00 -0.45593999997E+02  0.45594000000E+02  0.51100000000E-03 0. -1.
    9900012    2    1    2    0    0  0.29746516293E+02  0.21702259257E+02 -0.17243049323E+02  0.50528855414E+02  0.29999986517E+02 0.  0.
        -12    1    1    2    0    0 -0.29746516293E+02 -0.21702259257E+02  0.17243049323E+02  0.40659144586E+02  0.00000000000E+00 0.  1.
         11    1    3    3    0    0  0.26718497990E+02  0.34069758882E+01 -0.13171435288E+02  0.29982867230E+02  0.51100000000E-03 0. -1.
        -11    1    3    3    0    0  0.54733713267E+00  0.63454949054E+01  0.23083369844E+01  0.67744596409E+01  0.51100000000E-03 0.  1.
         12    1    3    3    0    0  0.24806811706E+01  0.11949788464E+02 -0.63799510202E+01  0.13771528543E+02  0.00000000000E+00 0. -1.
</event>
<event>
 7    1  0.5525118E-011  0.5052886E+02  0.7816164E-02  0.1300439E+00
        -11   -1    0    0    0    0  0.00000000000E+00  0.00000000000E+00  0.45593999997E+02  0.45594000000E+02  0.51100000000E-03 0.  1.
         11   -1    0    0    0    0 -0.00000000000E+00 -0.00000000000E+00 -0.45593999997E+02  0.45594000000E+02  0.51100000000E-03 0. -1.
    9900012    2    1    2    0    0  0.20872134838E+02  0.34826195334E+02 -0.21577116667E+01  0.50528860636E+02  0.30000002390E+02 0.  0.
        -12    1    1    2    0    0 -0.20872134838E+02 -0.34826195334E+02  0.21577116667E+01  0.40659139364E+02  0.00000000000E+00 0.  1.
         11    1    3    3    0    0  0.29637199956E+01  0.17644603188E+02  0.66715226292E+01  0.19095153111E+02  0.51100000000E-03 0. -1.
        -11    1    3    3    0    0  0.10939507910E+02 -0.89798292491E-02 -0.65353298106E+01  0.12742976495E+02  0.51100000000E-03 0.  1.
        -12    1    3    3    0    0  0.69689069325E+01  0.17190571975E+02 -0.22939044854E+01  0.18690731031E+02  0.00000000000E+00 0.  1.
</event>
<event>
 7    1  0.5525118E-011  0.5052886E+02  0.7816164E-02  0.1300439E+00
        -11   -1    0    0    0    0  0.00000000000E+00  0.00000000000E+00  0.45593999997E+02  0.45594000000E+02  0.51100000000E-03 0. -1.
         11   -1    0    0    0    0 -0.00000000000E+00 -0.00000000000E+00 -0.45593999997E+02  0.45594000000E+02  0.51100000000E-03 0.  1.
    9900012    2    1    2    0    0  0.27151016008E+01  0.29247420483E+02  0.28113743890E+02  0.50528856168E+02  0.29999988810E+02 0.  0.
        -12    1    1    2    0    0 -0.27151016008E+01 -0.29247420483E+02 -0.28113743890E+02  0.40659143832E+02  0.00000000000E+00 0.  1.
         11    1    3    3    0    0  0.18507944008E+01  0.22579655802E+01  0.51861083372E+00  0.29652665872E+01  0.51100000000E-03 0.  1.
        -11    1    3    3    0    0 -0.52945451812E+01  0.13430936036E+02 -0.18617893694E+01  0.14556390741E+02  0.51100000000E-03 0. -1.
        -12    1    3    3    0    0  0.61588523811E+01  0.13558518867E+02  0.29456922426E+02  0.33007198841E+02  0.00000000000E+00 0.  1.
</event>
<event>
 7    1  0.5525118E-011  0.5052886E+02  0.7816164E-02  0.1300439E+00
        -11   -1    0    0    0    0  0.00000000000E+00  0.00000000000E+00  0.45593999997E+02  0.45594000000E+02  0.51100000000E-03 0.  1.
         11   -1    0    0    0    0 -0.00000000000E+00 -0.00000000000E+00 -0.45593999997E+02  0.45594000000E+02  0.51100000000E-03 0. -1.
    9900012    2    1    2    0    0  0.39010301888E+02 -0.50443332106E+01 -0.10291594063E+02  0.50528857617E+02  0.29999993213E+02 0.  0.
        -12    1    1    2    0    0 -0.39010301888E+02  0.50443332106E+01  0.10291594063E+02  0.40659142383E+02  0.00000000000E+00 0.  1.
         11    1    3    3    0    0  0.26963952225E+02 -0.41414904361E+01 -0.19853043261E+01  0.27352295994E+02  0.51100000000E-03 0. -1.
        -11    1    3    3    0    0  0.52105864126E+01  0.50737699642E+01 -0.11452714458E+02  0.13566798485E+02  0.51100000000E-03 0.  1.
        -12    1    3    3    0    0  0.68357632506E+01 -0.59766127387E+01  0.31464247209E+01  0.96097631381E+01  0.00000000000E+00 0.  1.
</event>
<event>
 7    1  0.5525118E-011  0.5052883E+02  0.7816164E-02  0.1300439E+00
        -11   -1    0    0    0    0  0.00000000000E+00  0.00000000000E+00  0.45593999997E+02  0.45594000000E+02  0.51100000000E-03 0.  1.
         11   -1    0    0    0    0 -0.00000000000E+00 -0.00000000000E+00 -0.45593999997E+02  0.45594000000E+02  0.51100000000E-03 0. -1.
    9900012    2    1    2    0    0 -0.13090053301E+02  0.37383610013E+02 -0.91806365668E+01  0.50528832758E+02  0.29999917653E+02 0.  0.
        -12    1    1    2    0    0  0.13090053301E+02 -0.37383610013E+02  0.91806365668E+01  0.40659167242E+02  0.00000000000E+00 0.  1.
         11    1    3    3    0    0 -0.50107029949E+01  0.16930594592E+02 -0.16464893343E+02  0.24142180738E+02  0.51100000000E-03 0. -1.
        -11    1    3    3    0    0  0.40725374372E+00  0.13194319095E+01  0.51673214292E+01  0.53486416210E+01  0.51100000000E-03 0.  1.
         12    1    3    3    0    0 -0.84866040500E+01  0.19133583512E+02  0.21169353475E+01  0.21038010399E+02  0.00000000000E+00 0. -1.
</event>
<event>
 7    1  0.5525118E-011  0.5052884E+02  0.7816164E-02  0.1300439E+00
        -11   -1    0    0    0    0  0.00000000000E+00  0.00000000000E+00  0.45593999997E+02  0.45594000000E+02  0.51100000000E-03 0.  1.
         11   -1    0    0    0    0 -0.00000000000E+00 -0.00000000000E+00 -0.45593999997E+02  0.45594000000E+02  0.51100000000E-03 0. -1.
    9900012    2    1    2    0    0  0.22260277301E+02 -0.28981955965E+02 -0.17823968860E+02  0.50528836420E+02  0.29999928783E+02 0.  0.
        -12    1    1    2    0    0 -0.22260277301E+02  0.28981955965E+02  0.17823968860E+02  0.40659163580E+02  0.00000000000E+00 0.  1.
         11    1    3    3    0    0 -0.18502943634E+01  0.12363500599E+01  0.15942825222E+01  0.27374966162E+01  0.51100000000E-03 0.  1.
        -11    1    3    3    0    0  0.21064174929E+02 -0.29654879631E+02 -0.23015075571E+02  0.43044222088E+02  0.51100000000E-03 0. -1.
         12    1    3    3    0    0  0.30463967356E+01 -0.56342639390E+00  0.35968241880E+01  0.47471177162E+01  0.00000000000E+00 0. -1.
</event>
<event>
 7    1  0.5525118E-011  0.5052887E+02  0.7816164E-02  0.1300439E+00
        -11   -1    0    0    0    0  0.00000000000E+00  0.00000000000E+00  0.45593999997E+02  0.45594000000E+02  0.51100000000E-03 0.  1.
         11   -1    0    0    0    0 -0.00000000000E+00 -0.00000000000E+00 -0.45593999997E+02  0.45594000000E+02  0.51100000000E-03 0. -1.
    9900012    2    1    2    0    0  0.24492526475E+02  0.11939413558E+02 -0.30178323119E+02  0.50528872666E+02  0.30000038957E+02 0.  0.
        -12    1    1    2    0    0 -0.24492526475E+02 -0.11939413558E+02  0.30178323119E+02  0.40659127334E+02  0.00000000000E+00 0.  1.
         11    1    3    3    0    0  0.60339709895E+01  0.41351929029E+00 -0.23627971628E+02  0.24389769323E+02  0.51100000000E-03 0. -1.
        -11    1    3    3    0    0  0.10175264090E+02  0.57581310844E+01  0.31829655207E+01  0.12117068237E+02  0.51100000000E-03 0.  1.
        -12    1    3    3    0    0  0.82832913955E+01  0.57677631835E+01 -0.97333170120E+01  0.14022035107E+02  0.00000000000E+00 0.  1.
</event>
<event>
 7    1  0.5525118E-011  0.5052885E+02  0.7816164E-02  0.1300439E+00
        -11   -1    0    0    0    0  0.00000000000E+00  0.00000000000E+00  0.45593999997E+02  0.45594000000E+02  0.51100000000E-03 0.  1.
         11   -1    0    0    0    0 -0.00000000000E+00 -0.00000000000E+00 -0.45593999997E+02  0.45594000000E+02  0.51100000000E-03 0. -1.
    9900012    2    1    2    0    0  0.27726484845E+02 -0.18238994174E+02 -0.23489305847E+02  0.50528851467E+02  0.29999974518E+02 0.  0.
        -12    1    1    2    0    0 -0.27726484845E+02  0.18238994174E+02  0.23489305847E+02  0.40659148533E+02  0.00000000000E+00 0.  1.
         11    1    3    3    0    0  0.86279282597E+01 -0.84925454134E+01  0.18682276298E+01  0.12249683604E+02  0.51100000000E-03 0. -1.
        -11    1    3    3    0    0  0.78833313640E+00 -0.27044042362E+01 -0.16527456975E+02  0.16765801673E+02  0.51100000000E-03 0.  1.
        -12    1    3    3    0    0  0.18310223449E+02 -0.70420445240E+01 -0.88300765016E+01  0.21513366190E+02  0.00000000000E+00 0.  1.
</event>
<event>
 7    1  0.5525118E-011  0.5052887E+02  0.7816164E-02  0.1300439E+00
        -11   -1    0    0    0    0  0.00000000000E+00  0.00000000000E+00  0.45593999997E+02  0.45594000000E+02  0.51100000000E-03 0.  1.
         11   -1    0    0    0    0 -0.00000000000E+00 -0.00000000000E+00 -0.45593999997E+02  0.45594000000E+02  0.51100000000E-03 0. -1.
    9900012    2    1    2    0    0  0.14194382012E+02  0.35298148782E+02 -0.14343115471E+02  0.50528871264E+02  0.30000034694E+02 0.  0.
        -12    1    1    2    0    0 -0.14194382012E+02 -0.35298148782E+02  0.14343115471E+02  0.40659128736E+02  0.00000000000E+00 0.  1.
         11    1    3    3    0    0  0.10011232380E+02  0.30103580635E+02 -0.15676118363E+02  0.35386311309E+02  0.51100000000E-03 0. -1.
        -11    1    3    3    0    0  0.84777219601E+01  0.58943728291E+01 -0.68087535120E+00  0.10347897960E+02  0.51100000000E-03 0.  1.
         12    1    3    3    0    0 -0.42945723274E+01 -0.69980468211E+00  0.20138782440E+01  0.47946619954E+01  0.00000000000E+00 0. -1.
</event>
<event>
 7    1  0.5525118E-011  0.5052886E+02  0.7816164E-02  0.1300439E+00
        -11   -1    0    0    0    0  0.00000000000E+00  0.00000000000E+00  0.45593999997E+02  0.45594000000E+02  0.51100000000E-03 0.  1.
         11   -1    0    0    0    0 -0.00000000000E+00 -0.00000000000E+00 -0.45593999997E+02  0.45594000000E+02  0.51100000000E-03 0. -1.
    9900012    2    1    2    0    0 -0.19930530895E+02 -0.28095449015E+02 -0.21600589732E+02  0.50528858422E+02  0.29999995659E+02 0.  0.
        -12    1    1    2    0    0  0.19930530895E+02  0.28095449015E+02  0.21600589732E+02  0.40659141578E+02  0.00000000000E+00 0.  1.
         11    1    3    3    0    0 -0.19400123774E+02 -0.77852895852E+01 -0.11782220614E+02  0.23995755025E+02  0.51100000000E-03 0. -1.
        -11    1    3    3    0    0  0.92543415756E+00 -0.20278213081E+02 -0.12242445625E+02  0.23705270074E+02  0.51100000000E-03 0.  1.
         12    1    3    3    0    0 -0.14558412777E+01 -0.31946348964E-01  0.24240765058E+01  0.28278333227E+01  0.00000000000E+00 0. -1.
</event>
<event>
 7    1  0.5525118E-011  0.5052886E+02  0.7816164E-02  0.1300439E+00
        -11   -1    0    0    0    0  0.00000000000E+00  0.00000000000E+00  0.45593999997E+02  0.45594000000E+02  0.51100000000E-03 0.  1.
         11   -1    0    0    0    0 -0.00000000000E+00 -0.00000000000E+00 -0.45593999997E+02  0.45594000000E+02  0.51100000000E-03 0. -1.
    9900012    2    1    2    0    0 -0.14154283403E+02 -0.12027478964E+02 -0.36168518566E+02  0.50528859280E+02  0.29999998268E+02 0.  0.
        -12    1    1    2    0    0  0.14154283403E+02  0.12027478964E+02  0.36168518566E+02  0.40659140720E+02  0.00000000000E+00 0.  1.
         11    1    3    3    0    0 -0.14625199408E+02 -0.20054312897E+02 -0.23432446587E+02  0.34134315239E+02  0.51100000000E-03 0. -1.
        -11    1    3    3    0    0  0.34252001480E+01  0.51404956771E+01 -0.71799666467E+01  0.94714630955E+01  0.51100000000E-03 0.  1.
        -12    1    3    3    0    0 -0.29542841422E+01  0.28863382564E+01 -0.55561053319E+01  0.69230809458E+01  0.00000000000E+00 0.  1.
</event>
<event>
 7    1  0.5525118E-011  0.5052888E+02  0.7816164E-02  0.1300439E+00
        -11   -1    0    0    0    0  0.00000000000E+00  0.00000000000E+00  0.45593999997E+02  0.45594000000E+02  0.51100000000E-03 0.  1.
         11   -1    0    0    0    0 -0.00000000000E+00 -0.00000000000E+00 -0.45593999997E+02  0.45594000000E+02  0.51100000000E-03 0. -1.
    9900012    2    1    2    0    0 -0.12899314709E+02  0.23928356678E+02 -0.30235836281E+02  0.50528875946E+02  0.30000048925E+02 0.  0.
        -12    1    1    2    0    0  0.12899314709E+02 -0.23928356678E+02  0.30235836281E+02  0.40659124054E+02  0.00000000000E+00 0.  1.
         11    1    3    3    0    0 -0.12099389278E+02  0.17696149487E+01 -0.11135979123E+01  0.12278715672E+02  0.51100000000E-03 0. -1.
        -11    1    3    3    0    0  0.35435466415E+01  0.19188203797E+02 -0.23606436980E+02  0.30626912265E+02  0.51100000000E-03 0.  1.
         12    1    3    3    0    0 -0.43434720728E+01  0.29705379319E+01 -0.55158013886E+01  0.76232480093E+01  0.00000000000E+00 0. -1.
</event>
<event>
 7    1  0.5525118E-011  0.5052886E+02  0.7816164E-02  0.1300439E+00
        -11   -1    0    0    0    0  0.00000000000E+00  0.00000000000E+00  0.45593999997E+02  0.45594000000E+02  0.51100000000E-03 0.  1.
         11   -1    0    0    0    0 -0.00000000000E+00 -0.00000000000E+00 -0.45593999997E+02  0.45594000000E+02  0.51100000000E-03 0. -1.
    9900012    2    1    2    0    0 -0.84278994289E+01 -0.38353811365E+02 -0.10541401037E+02  0.50528862394E+02  0.30000007734E+02 0.  0.
        -12    1    1    2    0    0  0.84278994289E+01  0.38353811365E+02  0.10541401037E+02  0.40659137606E+02  0.00000000000E+00 0.  1.
         11    1    3    3    0    0  0.27267985923E+01 -0.10161096380E+02  0.54147910401E+01  0.11832297853E+02  0.51100000000E-03 0.  1.
        -11    1    3    3    0    0 -0.15705336384E+02 -0.23652067502E+02 -0.10520645867E+02  0.30278075860E+02  0.51100000000E-03 0. -1.
         12    1    3    3    0    0  0.45506383633E+01 -0.45406474834E+01 -0.54355462100E+01  0.84184886816E+01  0.00000000000E+00 0. -1.
</event>
<event>
 7    1  0.5525118E-011  0.5052885E+02  0.7816164E-02  0.1300439E+00
        -11   -1    0    0    0    0  0.00000000000E+00  0.00000000000E+00  0.45593999997E+02  0.45594000000E+02  0.51100000000E-03 0.  1.
         11   -1    0    0    0    0 -0.00000000000E+00 -0.00000000000E+00 -0.45593999997E+02  0.45594000000E+02  0.51100000000E-03 0. -1.
    9900012    2    1    2    0    0  0.33187706256E+02  0.10159601737E+02  0.21178420891E+02  0.50528845245E+02  0.29999955606E+02 0.  0.
        -12    1    1    2    0    0 -0.33187706256E+02 -0.10159601737E+02 -0.21178420891E+02  0.40659154755E+02  0.00000000000E+00 0.  1.
         11    1    3    3    0    0  0.12326711108E+02  0.47892724100E+00 -0.55284475945E+01  0.13518169666E+02  0.51100000000E-03 0. -1.
        -11    1    3    3    0    0  0.14662645179E+02  0.74361589657E+01  0.10482066933E+02  0.19497778111E+02  0.51100000000E-03 0.  1.
         12    1    3    3    0    0  0.61983499684E+01  0.22445155304E+01  0.16224801553E+02  0.17512897468E+02  0.00000000000E+00 0. -1.
</event>
<event>
 7    1  0.5525118E-011  0.5052885E+02  0.7816164E-02  0.1300439E+00
        -11   -1    0    0    0    0  0.00000000000E+00  0.00000000000E+00  0.45593999997E+02  0.45594000000E+02  0.51100000000E-03 0. -1.
         11   -1    0    0    0    0 -0.00000000000E+00 -0.00000000000E+00 -0.45593999997E+02  0.45594000000E+02  0.51100000000E-03 0.  1.
    9900012    2    1    2    0    0  0.35845990135E+02  0.16003972073E+02 -0.10587928630E+02  0.50528851416E+02  0.29999974363E+02 0.  0.
        -12    1    1    2    0    0 -0.35845990135E+02 -0.16003972073E+02  0.10587928630E+02  0.40659148584E+02  0.00000000000E+00 0.  1.
         11    1    3    3    0    0  0.87108323899E+01 -0.41073837465E+01  0.27989612590E+00  0.96347051988E+01  0.51100000000E-03 0. -1.
        -11    1    3    3    0    0  0.30185582180E+02  0.20241514426E+02 -0.10420128725E+02  0.37808297512E+02  0.51100000000E-03 0.  1.
        -12    1    3    3    0    0 -0.30504244347E+01 -0.13015860622E+00 -0.44769603109E+00  0.30858487051E+01  0.00000000000E+00 0.  1.
</event>
<event>
 7    1  0.5525118E-011  0.5052893E+02  0.7816164E-02  0.1300439E+00
        -11   -1    0    0    0    0  0.00000000000E+00  0.00000000000E+00  0.45593999997E+02  0.45594000000E+02  0.51100000000E-03 0. -1.
         11   -1    0    0    0    0 -0.00000000000E+00 -0.00000000000E+00 -0.45593999997E+02  0.45594000000E+02  0.51100000000E-03 0.  1.
    9900012    2    1    2    0    0 -0.20608120689E+02 -0.33495191183E+02 -0.10321699150E+02  0.50528930359E+02  0.30000214319E+02 0.  0.
        -12    1    1    2    0    0  0.20608120689E+02  0.33495191183E+02  0.10321699150E+02  0.40659069641E+02  0.00000000000E+00 0.  1.
         11    1    3    3    0    0 -0.19727980814E+02 -0.23617186209E+02  0.30129842662E+01  0.30919941557E+02  0.51100000000E-03 0. -1.
        -11    1    3    3    0    0 -0.26198821161E+01 -0.95347695853E+01 -0.49860880044E+01  0.11074144987E+02  0.51100000000E-03 0.  1.
         12    1    3    3    0    0  0.17397422412E+01 -0.34323538864E+00 -0.83485954120E+01  0.85348438153E+01  0.00000000000E+00 0. -1.
</event>
<event>
 7    1  0.5525118E-011  0.5052888E+02  0.7816164E-02  0.1300439E+00
        -11   -1    0    0    0    0  0.00000000000E+00  0.00000000000E+00  0.45593999997E+02  0.45594000000E+02  0.51100000000E-03 0. -1.
         11   -1    0    0    0    0 -0.00000000000E+00 -0.00000000000E+00 -0.45593999997E+02  0.45594000000E+02  0.51100000000E-03 0.  1.
    9900012    2    1    2    0    0 -0.36935666092E+02  0.15892544769E+02  0.60289279406E+01  0.50528875797E+02  0.30000048472E+02 0.  0.
        -12    1    1    2    0    0  0.36935666092E+02 -0.15892544769E+02 -0.60289279406E+01  0.40659124203E+02  0.00000000000E+00 0.  1.
         11    1    3    3    0    0 -0.21698512466E+01 -0.57401680349E+01 -0.10368103544E+01  0.62235648525E+01  0.51100000000E-03 0. -1.
        -11    1    3    3    0    0 -0.32437887957E+02  0.20649294159E+02  0.10667927350E+02  0.39905069835E+02  0.51100000000E-03 0.  1.
        -12    1    3    3    0    0 -0.23279268883E+01  0.98341864499E+00 -0.36021890553E+01  0.44002411092E+01  0.00000000000E+00 0.  1.
</event>
<event>
 7    1  0.5525118E-011  0.5052885E+02  0.7816164E-02  0.1300439E+00
        -11   -1    0    0    0    0  0.00000000000E+00  0.00000000000E+00  0.45593999997E+02  0.45594000000E+02  0.51100000000E-03 0. -1.
         11   -1    0    0    0    0 -0.00000000000E+00 -0.00000000000E+00 -0.45593999997E+02  0.45594000000E+02  0.51100000000E-03 0.  1.
    9900012    2    1    2    0    0 -0.29594798804E+02 -0.17878981901E+02  0.21392913726E+02  0.50528845216E+02  0.29999955519E+02 0.  0.
        -12    1    1    2    0    0  0.29594798804E+02  0.17878981901E+02 -0.21392913726E+02  0.40659154784E+02  0.00000000000E+00 0.  1.
         11    1    3    3    0    0 -0.12615316210E+02 -0.19332448137E+02  0.11370906270E+01  0.23112393416E+02  0.51100000000E-03 0. -1.
        -11    1    3    3    0    0 -0.77933200295E+00  0.29418220967E-01  0.51882880742E+01  0.52465757600E+01  0.51100000000E-03 0.  1.
         12    1    3    3    0    0 -0.16200150591E+02  0.14240480158E+01  0.15067535024E+02  0.22169876040E+02  0.00000000000E+00 0. -1.
</event>
<event>
 7    1  0.5525118E-011  0.5052886E+02  0.7816164E-02  0.1300439E+00
        -11   -1    0    0    0    0  0.00000000000E+00  0.00000000000E+00  0.45593999997E+02  0.45594000000E+02  0.51100000000E-03 0.  1.
         11   -1    0    0    0    0 -0.00000000000E+00 -0.00000000000E+00 -0.45593999997E+02  0.45594000000E+02  0.51100000000E-03 0. -1.
    9900012    2    1    2    0    0 -0.59852839988E+01  0.90330409613E+01 -0.39188602006E+02  0.50528856124E+02  0.29999988673E+02 0.  0.
        -12    1    1    2    0    0  0.59852839988E+01 -0.90330409613E+01  0.39188602006E+02  0.40659143876E+02  0.00000000000E+00 0.  1.
         11    1    3    3    0    0 -0.15877716652E+01  0.64164789201E+01 -0.32516639209E+02  0.33181682391E+02  0.51100000000E-03 0. -1.
        -11    1    3    3    0    0  0.56316565282E+01 -0.31519912074E-01 -0.20842076021E+01  0.60050370812E+01  0.51100000000E-03 0.  1.
         12    1    3    3    0    0 -0.10029168862E+02  0.26480819533E+01 -0.45877551955E+01  0.11342136652E+02  0.00000000000E+00 0. -1.
</event>
<event>
 7    1  0.5525118E-011  0.5052885E+02  0.7816164E-02  0.1300439E+00
        -11   -1    0    0    0    0  0.00000000000E+00  0.00000000000E+00  0.45593999997E+02  0.45594000000E+02  0.51100000000E-03 0.  1.
         11   -1    0    0    0    0 -0.00000000000E+00 -0.00000000000E+00 -0.45593999997E+02  0.45594000000E+02  0.51100000000E-03 0. -1.
    9900012    2    1    2    0    0  0.36561121871E+02 -0.70837323589E+01  0.16317827288E+02  0.50528851165E+02  0.29999973601E+02 0.  0.
        -12    1    1    2    0    0 -0.36561121871E+02  0.70837323589E+01 -0.16317827288E+02  0.40659148835E+02  0.00000000000E+00 0.  1.
         11    1    3    3    0    0  0.23707122415E+02 -0.18659858244E+01  0.24081398724E+01  0.23902064643E+02  0.51100000000E-03 0. -1.
        -11    1    3    3    0    0  0.51781235968E+01 -0.11109584730E+02  0.11136785986E+02  0.16560912995E+02  0.51100000000E-03 0.  1.
         12    1    3    3    0    0  0.76758758587E+01  0.58918381954E+01  0.27729014298E+01  0.10065873527E+02  0.00000000000E+00 0. -1.
</event>
<event>
 7    1  0.5525118E-011  0.5052886E+02  0.7816164E-02  0.1300439E+00
        -11   -1    0    0    0    0  0.00000000000E+00  0.00000000000E+00  0.45593999997E+02  0.45594000000E+02  0.51100000000E-03 0.  1.
         11   -1    0    0    0    0 -0.00000000000E+00 -0.00000000000E+00 -0.45593999997E+02  0.45594000000E+02  0.51100000000E-03 0. -1.
    9900012    2    1    2    0    0  0.33995932151E+02  0.16511960524E+02 -0.14993234950E+02  0.50528864035E+02  0.30000012720E+02 0.  0.
        -12    1    1    2    0    0 -0.33995932151E+02 -0.16511960524E+02  0.14993234950E+02  0.40659135965E+02  0.00000000000E+00 0.  1.
         11    1    3    3    0    0  0.13366939285E+02 -0.40459006896E+01 -0.96511213762E+01  0.16976116232E+02  0.51100000000E-03 0.  1.
        -11    1    3    3    0    0  0.20608540394E+02  0.22266113153E+02 -0.70383530564E+01  0.31145306968E+02  0.51100000000E-03 0. -1.
        -12    1    3    3    0    0  0.20452471708E-01 -0.17082519394E+01  0.16962394822E+01  0.24074408348E+01  0.00000000000E+00 0.  1.
</event>
<event>
 7    1  0.5525118E-011  0.5052885E+02  0.7816164E-02  0.1300439E+00
        -11   -1    0    0    0    0  0.00000000000E+00  0.00000000000E+00  0.45593999997E+02  0.45594000000E+02  0.51100000000E-03 0.  1.
         11   -1    0    0    0    0 -0.00000000000E+00 -0.00000000000E+00 -0.45593999997E+02  0.45594000000E+02  0.51100000000E-03 0. -1.
    9900012    2    1    2    0    0 -0.39183774155E+02 -0.10300210696E+02  0.34211624393E+01  0.50528845436E+02  0.29999956187E+02 0.  0.
        -12    1    1    2    0    0  0.39183774155E+02  0.10300210696E+02 -0.34211624393E+01  0.40659154564E+02  0.00000000000E+00 0.  1.
         11    1    3    3    0    0 -0.23314016519E+02  0.74697451675E+01  0.54599606650E+01  0.25082895165E+02  0.51100000000E-03 0. -1.
        -11    1    3    3    0    0 -0.24645143702E+01 -0.61819579973E+01  0.25744913320E+01  0.71357159165E+01  0.51100000000E-03 0.  1.
         12    1    3    3    0    0 -0.13405243266E+02 -0.11587997866E+02 -0.46132895577E+01  0.18310234354E+02  0.00000000000E+00 0. -1.
</event>
<event>
 7    1  0.5525118E-011  0.5052885E+02  0.7816164E-02  0.1300439E+00
        -11   -1    0    0    0    0  0.00000000000E+00  0.00000000000E+00  0.45593999997E+02  0.45594000000E+02  0.51100000000E-03 0.  1.
         11   -1    0    0    0    0 -0.00000000000E+00 -0.00000000000E+00 -0.45593999997E+02  0.45594000000E+02  0.51100000000E-03 0. -1.
    9900012    2    1    2    0    0  0.34849521397E+02  0.71684053601E+01 -0.19679711503E+02  0.50528853159E+02  0.29999979661E+02 0.  0.
        -12    1    1    2    0    0 -0.34849521397E+02 -0.71684053601E+01  0.19679711503E+02  0.40659146841E+02  0.00000000000E+00 0.  1.
         11    1    3    3    0    0  0.13422393630E+02  0.12554622575E+02 -0.11697336583E+02  0.21785474109E+02  0.51100000000E-03 0. -1.
        -11    1    3    3    0    0  0.23859125366E+02 -0.63853854333E+01 -0.83853549839E+01  0.26083427475E+02  0.51100000000E-03 0.  1.
        -12    1    3    3    0    0 -0.24319975985E+01  0.99916821808E+00  0.40298006370E+00  0.26599515746E+01  0.00000000000E+00 0.  1.
</event>
<event>
 7    1  0.5525118E-011  0.5052886E+02  0.7816164E-02  0.1300439E+00
        -11   -1    0    0    0    0  0.00000000000E+00  0.00000000000E+00  0.45593999997E+02  0.45594000000E+02  0.51100000000E-03 0.  1.
         11   -1    0    0    0    0 -0.00000000000E+00 -0.00000000000E+00 -0.45593999997E+02  0.45594000000E+02  0.51100000000E-03 0. -1.
    9900012    2    1    2    0    0 -0.36332488452E+02  0.12386314198E+02 -0.13405033218E+02  0.50528863116E+02  0.30000009928E+02 0.  0.
        -12    1    1    2    0    0  0.36332488452E+02 -0.12386314198E+02  0.13405033218E+02  0.40659136884E+02  0.00000000000E+00 0.  1.
         11    1    3    3    0    0 -0.10765165477E+02 -0.26053859612E+01 -0.12148792988E+02  0.16439890361E+02  0.51100000000E-03 0. -1.
        -11    1    3    3    0    0 -0.17245995855E+02  0.17637025191E+02 -0.38817057313E+01  0.24971116721E+02  0.51100000000E-03 0.  1.
        -12    1    3    3    0    0 -0.83213271203E+01 -0.26453250320E+01  0.26254655015E+01  0.91178560346E+01  0.00000000000E+00 0.  1.
</event>
<event>
 7    1  0.5525118E-011  0.5052882E+02  0.7816164E-02  0.1300439E+00
        -11   -1    0    0    0    0  0.00000000000E+00  0.00000000000E+00  0.45593999997E+02  0.45594000000E+02  0.51100000000E-03 0.  1.
         11   -1    0    0    0    0 -0.00000000000E+00 -0.00000000000E+00 -0.45593999997E+02  0.45594000000E+02  0.51100000000E-03 0. -1.
    9900012    2    1    2    0    0  0.17788955276E+02  0.24181891402E+02 -0.27421859621E+02  0.50528816700E+02  0.29999868841E+02 0.  0.
        -12    1    1    2    0    0 -0.17788955276E+02 -0.24181891402E+02  0.27421859621E+02  0.40659183300E+02  0.00000000000E+00 0.  1.
         11    1    3    3    0    0  0.69637675886E+01  0.27326283199E+02 -0.24959079790E+02  0.37658670671E+02  0.51100000000E-03 0. -1.
        -11    1    3    3    0    0  0.40718149675E+01 -0.27712307961E+01  0.13483943562E+01  0.51066197093E+01  0.51100000000E-03 0.  1.
         12    1    3    3    0    0  0.67533727197E+01 -0.37316100180E+00 -0.38111741871E+01  0.77635263192E+01  0.00000000000E+00 0. -1.
</event>
<event>
 7    1  0.5525118E-011  0.5052886E+02  0.7816164E-02  0.1300439E+00
        -11   -1    0    0    0    0  0.00000000000E+00  0.00000000000E+00  0.45593999997E+02  0.45594000000E+02  0.51100000000E-03 0.  1.
         11   -1    0    0    0    0 -0.00000000000E+00 -0.00000000000E+00 -0.45593999997E+02  0.45594000000E+02  0.51100000000E-03 0. -1.
    9900012    2    1    2    0    0  0.15222112896E+02  0.18600687395E+02 -0.32794316427E+02  0.50528862251E+02  0.30000007298E+02 0.  0.
        -12    1    1    2    0    0 -0.15222112896E+02 -0.18600687395E+02  0.32794316427E+02  0.40659137749E+02  0.00000000000E+00 0.  1.
         11    1    3    3    0    0  0.10247264261E+02  0.11372439374E+02 -0.21420032204E+02  0.26327867023E+02  0.51100000000E-03 0. -1.
        -11    1    3    3    0    0 -0.54868043897E+01  0.28796396129E+00 -0.10207728304E+02  0.11592483041E+02  0.51100000000E-03 0.  1.
        -12    1    3    3    0    0  0.10461653025E+02  0.69402840602E+01 -0.11665559188E+01  0.12608512187E+02  0.00000000000E+00 0.  1.
</event>
<event>
 7    1  0.5525118E-011  0.5052888E+02  0.7816164E-02  0.1300439E+00
        -11   -1    0    0    0    0  0.00000000000E+00  0.00000000000E+00  0.45593999997E+02  0.45594000000E+02  0.51100000000E-03 0. -1.
         11   -1    0    0    0    0 -0.00000000000E+00 -0.00000000000E+00 -0.45593999997E+02  0.45594000000E+02  0.51100000000E-03 0.  1.
    9900012    2    1    2    0    0 -0.40158159347E+02 -0.28788290332E+01 -0.56743981270E+01  0.50528877864E+02  0.30000054756E+02 0.  0.
        -12    1    1    2    0    0  0.40158159347E+02  0.28788290332E+01  0.56743981270E+01  0.40659122136E+02  0.00000000000E+00 0.  1.
         11    1    3    3    0    0 -0.19127367012E+02  0.20742454548E+01  0.74065003343E+01  0.20615889757E+02  0.51100000000E-03 0. -1.
        -11    1    3    3    0    0  0.12457400570E+01 -0.35908429339E+01 -0.47666563274E+01  0.60964771852E+01  0.51100000000E-03 0.  1.
        -12    1    3    3    0    0 -0.22276532392E+02 -0.13622315542E+01 -0.83142421339E+01  0.23816510922E+02  0.00000000000E+00 0.  1.
</event>
<event>
 7    1  0.5525118E-011  0.5052884E+02  0.7816164E-02  0.1300439E+00
        -11   -1    0    0    0    0  0.00000000000E+00  0.00000000000E+00  0.45593999997E+02  0.45594000000E+02  0.51100000000E-03 0.  1.
         11   -1    0    0    0    0 -0.00000000000E+00 -0.00000000000E+00 -0.45593999997E+02  0.45594000000E+02  0.51100000000E-03 0. -1.
    9900012    2    1    2    0    0 -0.28517712186E+02 -0.19629611529E+02 -0.21321021249E+02  0.50528837389E+02  0.29999931729E+02 0.  0.
        -12    1    1    2    0    0  0.28517712186E+02  0.19629611529E+02  0.21321021249E+02  0.40659162611E+02  0.00000000000E+00 0.  1.
         11    1    3    3    0    0 -0.13485784948E+02 -0.96362636018E+01 -0.18195709207E+01  0.16674375864E+02  0.51100000000E-03 0. -1.
        -11    1    3    3    0    0 -0.16735894663E+02 -0.19424501344E+01 -0.19304606864E+02  0.25622863406E+02  0.51100000000E-03 0.  1.
        -12    1    3    3    0    0  0.17039674248E+01 -0.80508977926E+01 -0.19684346483E+00  0.82315981196E+01  0.00000000000E+00 0.  1.
</event>
<event>
 7    1  0.5525118E-011  0.5052887E+02  0.7816164E-02  0.1300439E+00
        -11   -1    0    0    0    0  0.00000000000E+00  0.00000000000E+00  0.45593999997E+02  0.45594000000E+02  0.51100000000E-03 0.  1.
         11   -1    0    0    0    0 -0.00000000000E+00 -0.00000000000E+00 -0.45593999997E+02  0.45594000000E+02  0.51100000000E-03 0. -1.
    9900012    2    1    2    0    0 -0.34575346943E+02  0.14473932404E+02 -0.15754863420E+02  0.50528867485E+02  0.30000023209E+02 0.  0.
        -12    1    1    2    0    0  0.34575346943E+02 -0.14473932404E+02  0.15754863420E+02  0.40659132515E+02  0.00000000000E+00 0.  1.
         11    1    3    3    0    0 -0.39524819412E+01 -0.28161682734E+01 -0.29145573440E+01  0.56610566163E+01  0.51100000000E-03 0. -1.
        -11    1    3    3    0    0 -0.79822450778E+01  0.15557038185E+02  0.22123550776E+01  0.17624760674E+02  0.51100000000E-03 0.  1.
        -12    1    3    3    0    0 -0.22640619924E+02  0.17330624926E+01 -0.15052661154E+02  0.27243050195E+02  0.00000000000E+00 0.  1.
</event>
<event>
 7    1  0.5525118E-011  0.5052886E+02  0.7816164E-02  0.1300439E+00
        -11   -1    0    0    0    0  0.00000000000E+00  0.00000000000E+00  0.45593999997E+02  0.45594000000E+02  0.51100000000E-03 0.  1.
         11   -1    0    0    0    0 -0.00000000000E+00 -0.00000000000E+00 -0.45593999997E+02  0.45594000000E+02  0.51100000000E-03 0. -1.
    9900012    2    1    2    0    0 -0.32627470680E+02  0.11134753052E+02 -0.21555309408E+02  0.50528856721E+02  0.29999990489E+02 0.  0.
        -12    1    1    2    0    0  0.32627470680E+02 -0.11134753052E+02  0.21555309408E+02  0.40659143279E+02  0.00000000000E+00 0.  1.
         11    1    3    3    0    0 -0.45243031943E+01  0.10365968545E+02 -0.16818729542E+02  0.20268011421E+02  0.51100000000E-03 0. -1.
        -11    1    3    3    0    0 -0.40909358554E+01 -0.10446003117E+01  0.27553462149E+01  0.50417138960E+01  0.51100000000E-03 0.  1.
         12    1    3    3    0    0 -0.24012231631E+02  0.18133848184E+01 -0.74919260809E+01  0.25219131404E+02  0.00000000000E+00 0. -1.
</event>
<event>
 7    1  0.5525118E-011  0.5052886E+02  0.7816164E-02  0.1300439E+00
        -11   -1    0    0    0    0  0.00000000000E+00  0.00000000000E+00  0.45593999997E+02  0.45594000000E+02  0.51100000000E-03 0.  1.
         11   -1    0    0    0    0 -0.00000000000E+00 -0.00000000000E+00 -0.45593999997E+02  0.45594000000E+02  0.51100000000E-03 0. -1.
    9900012    2    1    2    0    0  0.39599756796E+02  0.85156094339E+01  0.35368211598E+01  0.50528862697E+02  0.30000008653E+02 0.  0.
        -12    1    1    2    0    0 -0.39599756796E+02 -0.85156094339E+01 -0.35368211598E+01  0.40659137303E+02  0.00000000000E+00 0.  1.
         11    1    3    3    0    0  0.12753121105E+02  0.13015028064E+02  0.37274258506E+01  0.18599106354E+02  0.51100000000E-03 0. -1.
        -11    1    3    3    0    0  0.71820771696E+01 -0.92092450000E+01 -0.73379021339E+00  0.11701746634E+02  0.51100000000E-03 0.  1.
        -12    1    3    3    0    0  0.19664558521E+02  0.47098263695E+01  0.54318552261E+00  0.20228009709E+02  0.00000000000E+00 0.  1.
</event>
<event>
 7    1  0.5525118E-011  0.5052886E+02  0.7816164E-02  0.1300439E+00
        -11   -1    0    0    0    0  0.00000000000E+00  0.00000000000E+00  0.45593999997E+02  0.45594000000E+02  0.51100000000E-03 0.  1.
         11   -1    0    0    0    0 -0.00000000000E+00 -0.00000000000E+00 -0.45593999997E+02  0.45594000000E+02  0.51100000000E-03 0. -1.
    9900012    2    1    2    0    0 -0.12563314547E+02 -0.15795253218E+02 -0.35296447048E+02  0.50528855016E+02  0.29999985307E+02 0.  0.
        -12    1    1    2    0    0  0.12563314547E+02  0.15795253218E+02  0.35296447048E+02  0.40659144984E+02  0.00000000000E+00 0.  1.
         11    1    3    3    0    0 -0.14488758691E+02  0.30250050456E+01 -0.12154983424E+02  0.19152503915E+02  0.51100000000E-03 0. -1.
        -11    1    3    3    0    0  0.22224505046E+01 -0.75360813639E+01 -0.32447551670E+01  0.85006026212E+01  0.51100000000E-03 0.  1.
         12    1    3    3    0    0 -0.29700636026E+00 -0.11284176900E+02 -0.19896708457E+02  0.22875748480E+02  0.00000000000E+00 0. -1.
</event>
<event>
 7    1  0.5525118E-011  0.5052884E+02  0.7816164E-02  0.1300439E+00
        -11   -1    0    0    0    0  0.00000000000E+00  0.00000000000E+00  0.45593999997E+02  0.45594000000E+02  0.51100000000E-03 0.  1.
         11   -1    0    0    0    0 -0.00000000000E+00 -0.00000000000E+00 -0.45593999997E+02  0.45594000000E+02  0.51100000000E-03 0. -1.
    9900012    2    1    2    0    0 -0.36134391842E+02  0.22373692960E+01 -0.18505878483E+02  0.50528835798E+02  0.29999926891E+02 0.  0.
        -12    1    1    2    0    0  0.36134391842E+02 -0.22373692960E+01  0.18505878483E+02  0.40659164202E+02  0.00000000000E+00 0.  1.
         11    1    3    3    0    0 -0.24482464816E+02  0.10301541739E+02 -0.11082729892E+02  0.28780892061E+02  0.51100000000E-03 0. -1.
        -11    1    3    3    0    0 -0.97803890463E+01 -0.93358113796E+01  0.47789566163E+00  0.13529292980E+02  0.51100000000E-03 0.  1.
        -12    1    3    3    0    0 -0.18715379797E+01  0.12716389368E+01 -0.79010442523E+01  0.82186507574E+01  0.00000000000E+00 0.  1.
</event>
<event>
 7    1  0.5525118E-011  0.5052886E+02  0.7816164E-02  0.1300439E+00
        -11   -1    0    0    0    0  0.00000000000E+00  0.00000000000E+00  0.45593999997E+02  0.45594000000E+02  0.51100000000E-03 0.  1.
         11   -1    0    0    0    0 -0.00000000000E+00 -0.00000000000E+00 -0.45593999997E+02  0.45594000000E+02  0.51100000000E-03 0. -1.
    9900012    2    1    2    0    0  0.19638542436E+02  0.18525178337E+02 -0.30402489715E+02  0.50528856351E+02  0.29999989363E+02 0.  0.
        -12    1    1    2    0    0 -0.19638542436E+02 -0.18525178337E+02  0.30402489715E+02  0.40659143649E+02  0.00000000000E+00 0.  1.
         11    1    3    3    0    0  0.17948562752E+02  0.47288683142E+01 -0.53698900755E+01  0.19322236415E+02  0.51100000000E-03 0.  1.
        -11    1    3    3    0    0  0.61799456199E+01  0.12522363096E+02 -0.18542756388E+02  0.23212822321E+02  0.51100000000E-03 0. -1.
        -12    1    3    3    0    0 -0.44899659358E+01  0.12739469263E+01 -0.64898432518E+01  0.79937976149E+01  0.00000000000E+00 0.  1.
</event>
<event>
 7    1  0.5525118E-011  0.5052887E+02  0.7816164E-02  0.1300439E+00
        -11   -1    0    0    0    0  0.00000000000E+00  0.00000000000E+00  0.45593999997E+02  0.45594000000E+02  0.51100000000E-03 0. -1.
         11   -1    0    0    0    0 -0.00000000000E+00 -0.00000000000E+00 -0.45593999997E+02  0.45594000000E+02  0.51100000000E-03 0.  1.
    9900012    2    1    2    0    0  0.30494997438E+02 -0.26677394012E+02  0.33966016329E+01  0.50528866676E+02  0.30000020747E+02 0.  0.
        -12    1    1    2    0    0 -0.30494997438E+02  0.26677394012E+02 -0.33966016329E+01  0.40659133324E+02  0.00000000000E+00 0.  1.
         11    1    3    3    0    0  0.21676899798E+02 -0.19707293996E+02 -0.22072958237E+01  0.29379203130E+02  0.51100000000E-03 0. -1.
        -11    1    3    3    0    0  0.78309081272E+01 -0.58316836723E+01  0.11487435110E+02  0.15076233688E+02  0.51100000000E-03 0.  1.
        -12    1    3    3    0    0  0.98718951363E+00 -0.11384163439E+01 -0.58835376535E+01  0.60734298570E+01  0.00000000000E+00 0.  1.
</event>
<event>
 7    1  0.5525118E-011  0.5052885E+02  0.7816164E-02  0.1300439E+00
        -11   -1    0    0    0    0  0.00000000000E+00  0.00000000000E+00  0.45593999997E+02  0.45594000000E+02  0.51100000000E-03 0.  1.
         11   -1    0    0    0    0 -0.00000000000E+00 -0.00000000000E+00 -0.45593999997E+02  0.45594000000E+02  0.51100000000E-03 0. -1.
    9900012    2    1    2    0    0  0.45538089268E+01 -0.28867069131E+02 -0.28268738693E+02  0.50528850436E+02  0.29999971386E+02 0.  0.
        -12    1    1    2    0    0 -0.45538089268E+01  0.28867069131E+02  0.28268738693E+02  0.40659149564E+02  0.00000000000E+00 0.  1.
         11    1    3    3    0    0  0.10245229350E+02 -0.18026205606E+02 -0.31534857205E+02  0.37740641650E+02  0.51100000000E-03 0. -1.
        -11    1    3    3    0    0 -0.26284687096E+01 -0.55956962116E+01  0.24897401963E+01  0.66647933468E+01  0.51100000000E-03 0.  1.
         12    1    3    3    0    0 -0.30629517139E+01 -0.52451673138E+01  0.77637831590E+00  0.61234154392E+01  0.00000000000E+00 0. -1.
</event>
<event>
 7    1  0.5525118E-011  0.5052887E+02  0.7816164E-02  0.1300439E+00
        -11   -1    0    0    0    0  0.00000000000E+00  0.00000000000E+00  0.45593999997E+02  0.45594000000E+02  0.51100000000E-03 0.  1.
         11   -1    0    0    0    0 -0.00000000000E+00 -0.00000000000E+00 -0.45593999997E+02  0.45594000000E+02  0.51100000000E-03 0. -1.
    9900012    2    1    2    0    0 -0.27011653266E+02 -0.30244326633E+02  0.29692233893E+01  0.50528868268E+02  0.30000025587E+02 0.  0.
        -12    1    1    2    0    0  0.27011653266E+02  0.30244326633E+02 -0.29692233893E+01  0.40659131732E+02  0.00000000000E+00 0.  1.
         11    1    3    3    0    0  0.45582355508E+01 -0.12907616156E+02  0.17514404532E+01  0.13800420649E+02  0.51100000000E-03 0. -1.
        -11    1    3    3    0    0 -0.16387553222E+02 -0.77309819703E+01  0.39797043916E+01  0.18551496708E+02  0.51100000000E-03 0.  1.
         12    1    3    3    0    0 -0.15182335596E+02 -0.96057285067E+01 -0.27619214555E+01  0.18176950911E+02  0.00000000000E+00 0. -1.
</event>
<event>
 7    1  0.5525118E-011  0.5052885E+02  0.7816164E-02  0.1300439E+00
        -11   -1    0    0    0    0  0.00000000000E+00  0.00000000000E+00  0.45593999997E+02  0.45594000000E+02  0.51100000000E-03 0.  1.
         11   -1    0    0    0    0 -0.00000000000E+00 -0.00000000000E+00 -0.45593999997E+02  0.45594000000E+02  0.51100000000E-03 0. -1.
    9900012    2    1    2    0    0 -0.49221832356E+01  0.10041969718E+02 -0.39090889947E+02  0.50528847027E+02  0.29999961022E+02 0.  0.
        -12    1    1    2    0    0  0.49221832356E+01 -0.10041969718E+02  0.39090889947E+02  0.40659152973E+02  0.00000000000E+00 0.  1.
         11    1    3    3    0    0 -0.33212908068E+01  0.13028540736E+02 -0.11089877471E+02  0.17428689822E+02  0.51100000000E-03 0. -1.
        -11    1    3    3    0    0 -0.28927179208E+01 -0.88640248994E+01 -0.82405100447E+01  0.12443663466E+02  0.51100000000E-03 0.  1.
         12    1    3    3    0    0  0.12918254919E+01  0.58774538819E+01 -0.19760502432E+02  0.20656493739E+02  0.00000000000E+00 0. -1.
</event>
<event>
 7    1  0.5525118E-011  0.5052886E+02  0.7816164E-02  0.1300439E+00
        -11   -1    0    0    0    0  0.00000000000E+00  0.00000000000E+00  0.45593999997E+02  0.45594000000E+02  0.51100000000E-03 0.  1.
         11   -1    0    0    0    0 -0.00000000000E+00 -0.00000000000E+00 -0.45593999997E+02  0.45594000000E+02  0.51100000000E-03 0. -1.
    9900012    2    1    2    0    0 -0.67644344791E+01  0.39548117136E+02 -0.65844346047E+01  0.50528856848E+02  0.29999990875E+02 0.  0.
        -12    1    1    2    0    0  0.67644344791E+01 -0.39548117136E+02  0.65844346047E+01  0.40659143152E+02  0.00000000000E+00 0.  1.
         11    1    3    3    0    0 -0.12001769720E+02  0.18428138139E+02  0.44127484245E+00  0.21996215025E+02  0.51100000000E-03 0. -1.
        -11    1    3    3    0    0 -0.44228705360E+00  0.52849095207E+01 -0.10122048863E+02  0.11427237633E+02  0.51100000000E-03 0.  1.
        -12    1    3    3    0    0  0.56796222945E+01  0.15835069476E+02  0.30963394159E+01  0.17105404189E+02  0.00000000000E+00 0.  1.
</event>
<event>
 7    1  0.5525118E-011  0.5052886E+02  0.7816164E-02  0.1300439E+00
        -11   -1    0    0    0    0  0.00000000000E+00  0.00000000000E+00  0.45593999997E+02  0.45594000000E+02  0.51100000000E-03 0. -1.
         11   -1    0    0    0    0 -0.00000000000E+00 -0.00000000000E+00 -0.45593999997E+02  0.45594000000E+02  0.51100000000E-03 0.  1.
    9900012    2    1    2    0    0 -0.36437911017E+02 -0.35939102439E+01  0.17678454509E+02  0.50528864447E+02  0.30000013972E+02 0.  0.
        -12    1    1    2    0    0  0.36437911017E+02  0.35939102439E+01 -0.17678454509E+02  0.40659135553E+02  0.00000000000E+00 0.  1.
         11    1    3    3    0    0 -0.34305894883E+02 -0.62091098339E+01  0.24361549901E+02  0.42531548085E+02  0.51100000000E-03 0. -1.
        -11    1    3    3    0    0 -0.20185516663E+01  0.21677398760E+01 -0.27646772310E+01  0.40518005198E+01  0.51100000000E-03 0.  1.
         12    1    3    3    0    0 -0.11346446750E+00  0.44745971397E+00 -0.39184181604E+01  0.39455158422E+01  0.00000000000E+00 0. -1.
</event>
<event>
 7    1  0.5525118E-011  0.5052886E+02  0.7816164E-02  0.1300439E+00
        -11   -1    0    0    0    0  0.00000000000E+00  0.00000000000E+00  0.45593999997E+02  0.45594000000E+02  0.51100000000E-03 0. -1.
         11   -1    0    0    0    0 -0.00000000000E+00 -0.00000000000E+00 -0.45593999997E+02  0.45594000000E+02  0.51100000000E-03 0.  1.
    9900012    2    1    2    0    0  0.28975287641E+02 -0.21078407578E+02  0.19217155023E+02  0.50528860719E+02  0.30000002640E+02 0.  0.
        -12    1    1    2    0    0 -0.28975287641E+02  0.21078407578E+02 -0.19217155023E+02  0.40659139281E+02  0.00000000000E+00 0.  1.
         11    1    3    3    0    0  0.22200419719E+02 -0.19667019654E+02  0.16437083891E+02  0.33909114186E+02  0.51100000000E-03 0. -1.
        -11    1    3    3    0    0  0.33474744791E+01 -0.13866939484E+01 -0.61034620172E+01  0.70979401484E+01  0.51100000000E-03 0.  1.
        -12    1    3    3    0    0  0.34273934431E+01 -0.24693976165E-01  0.88835331494E+01  0.95218063845E+01  0.00000000000E+00 0.  1.
</event>
<event>
 7    1  0.5525118E-011  0.5052885E+02  0.7816164E-02  0.1300439E+00
        -11   -1    0    0    0    0  0.00000000000E+00  0.00000000000E+00  0.45593999997E+02  0.45594000000E+02  0.51100000000E-03 0.  1.
         11   -1    0    0    0    0 -0.00000000000E+00 -0.00000000000E+00 -0.45593999997E+02  0.45594000000E+02  0.51100000000E-03 0. -1.
    9900012    2    1    2    0    0  0.38670619014E+02 -0.10634601902E+02 -0.66824158304E+01  0.50528853257E+02  0.29999979960E+02 0.  0.
        -12    1    1    2    0    0 -0.38670619014E+02  0.10634601902E+02  0.66824158304E+01  0.40659146743E+02  0.00000000000E+00 0.  1.
         11    1    3    3    0    0  0.65650378254E+01 -0.11241981192E+02 -0.75376449799E+01  0.15043202946E+02  0.51100000000E-03 0. -1.
        -11    1    3    3    0    0  0.19460877906E+02  0.68572662233E+01  0.40404254028E+01  0.21025529877E+02  0.51100000000E-03 0.  1.
         12    1    3    3    0    0  0.12644703283E+02 -0.62498869333E+01 -0.31851962532E+01  0.14460120434E+02  0.00000000000E+00 0. -1.
</event>
<event>
 7    1  0.5525118E-011  0.5052886E+02  0.7816164E-02  0.1300439E+00
        -11   -1    0    0    0    0  0.00000000000E+00  0.00000000000E+00  0.45593999997E+02  0.45594000000E+02  0.51100000000E-03 0.  1.
         11   -1    0    0    0    0 -0.00000000000E+00 -0.00000000000E+00 -0.45593999997E+02  0.45594000000E+02  0.51100000000E-03 0. -1.
    9900012    2    1    2    0    0  0.31924231446E+02  0.12179660800E+02 -0.22037800367E+02  0.50528864057E+02  0.30000012788E+02 0.  0.
        -12    1    1    2    0    0 -0.31924231446E+02 -0.12179660800E+02  0.22037800367E+02  0.40659135943E+02  0.00000000000E+00 0.  1.
         11    1    3    3    0    0  0.19873867411E+02  0.13463417644E+02 -0.24841588275E+02  0.34544735182E+02  0.51100000000E-03 0. -1.
        -11    1    3    3    0    0  0.89296008254E+01  0.48743928391E+00  0.63274234963E+01  0.10954983173E+02  0.51100000000E-03 0.  1.
        -12    1    3    3    0    0  0.31207632097E+01 -0.17711961278E+01 -0.35236355878E+01  0.50291457018E+01  0.00000000000E+00 0.  1.
</event>
<event>
 7    1  0.5525118E-011  0.5052887E+02  0.7816164E-02  0.1300439E+00
        -11   -1    0    0    0    0  0.00000000000E+00  0.00000000000E+00  0.45593999997E+02  0.45594000000E+02  0.51100000000E-03 0. -1.
         11   -1    0    0    0    0 -0.00000000000E+00 -0.00000000000E+00 -0.45593999997E+02  0.45594000000E+02  0.51100000000E-03 0.  1.
    9900012    2    1    2    0    0 -0.38495598975E+02  0.80020155908E+01  0.10354795739E+02  0.50528865863E+02  0.30000018277E+02 0.  0.
        -12    1    1    2    0    0  0.38495598975E+02 -0.80020155908E+01 -0.10354795739E+02  0.40659134137E+02  0.00000000000E+00 0.  1.
         11    1    3    3    0    0 -0.28154437736E+01 -0.51272880354E+01  0.10201190713E+02  0.11759255864E+02  0.51100000000E-03 0. -1.
        -11    1    3    3    0    0 -0.15148643770E+02  0.91725106543E+01  0.17726384189E+01  0.17797713533E+02  0.51100000000E-03 0.  1.
         12    1    3    3    0    0 -0.20531511432E+02  0.39567929719E+01 -0.16190333925E+01  0.20971896467E+02  0.00000000000E+00 0. -1.
</event>
<event>
 7    1  0.5525118E-011  0.5052886E+02  0.7816164E-02  0.1300439E+00
        -11   -1    0    0    0    0  0.00000000000E+00  0.00000000000E+00  0.45593999997E+02  0.45594000000E+02  0.51100000000E-03 0.  1.
         11   -1    0    0    0    0 -0.00000000000E+00 -0.00000000000E+00 -0.45593999997E+02  0.45594000000E+02  0.51100000000E-03 0. -1.
    9900012    2    1    2    0    0  0.99765282982E+01 -0.62386217457E+01 -0.38919329669E+02  0.50528859083E+02  0.29999997670E+02 0.  0.
        -12    1    1    2    0    0 -0.99765282982E+01  0.62386217457E+01  0.38919329669E+02  0.40659140917E+02  0.00000000000E+00 0.  1.
         11    1    3    3    0    0 -0.33009125722E+01 -0.48861367714E+01  0.23218015402E+01  0.63372800957E+01  0.51100000000E-03 0.  1.
        -11    1    3    3    0    0  0.65689411605E+01 -0.16907167998E+01 -0.32321839544E+02  0.33025911389E+02  0.51100000000E-03 0. -1.
        -12    1    3    3    0    0  0.67084997099E+01  0.33823182554E+00 -0.89192916650E+01  0.11165667599E+02  0.00000000000E+00 0.  1.
</event>
<event>
 7    1  0.5525118E-011  0.5052886E+02  0.7816164E-02  0.1300439E+00
        -11   -1    0    0    0    0  0.00000000000E+00  0.00000000000E+00  0.45593999997E+02  0.45594000000E+02  0.51100000000E-03 0.  1.
         11   -1    0    0    0    0 -0.00000000000E+00 -0.00000000000E+00 -0.45593999997E+02  0.45594000000E+02  0.51100000000E-03 0. -1.
    9900012    2    1    2    0    0 -0.43889978626E+01 -0.16667860878E+02 -0.36825056786E+02  0.50528859628E+02  0.29999999326E+02 0.  0.
        -12    1    1    2    0    0  0.43889978626E+01  0.16667860878E+02  0.36825056786E+02  0.40659140372E+02  0.00000000000E+00 0.  1.
         11    1    3    3    0    0  0.51665380899E+01 -0.15053139284E+02 -0.12168423765E+02  0.20033987504E+02  0.51100000000E-03 0. -1.
        -11    1    3    3    0    0 -0.20934458846E+01  0.56723779913E+01 -0.37064126730E+01  0.70919590320E+01  0.51100000000E-03 0.  1.
         12    1    3    3    0    0 -0.74620900679E+01 -0.72870995848E+01 -0.20950220348E+02  0.23402913092E+02  0.00000000000E+00 0. -1.
</event>
<event>
 7    1  0.5525118E-011  0.5052885E+02  0.7816164E-02  0.1300439E+00
        -11   -1    0    0    0    0  0.00000000000E+00  0.00000000000E+00  0.45593999997E+02  0.45594000000E+02  0.51100000000E-03 0. -1.
         11   -1    0    0    0    0 -0.00000000000E+00 -0.00000000000E+00 -0.45593999997E+02  0.45594000000E+02  0.51100000000E-03 0.  1.
    9900012    2    1    2    0    0 -0.28526643840E+02  0.27806235159E+02  0.81369591058E+01  0.50528853108E+02  0.29999979506E+02 0.  0.
        -12    1    1    2    0    0  0.28526643840E+02 -0.27806235159E+02 -0.81369591058E+01  0.40659146892E+02  0.00000000000E+00 0.  1.
         11    1    3    3    0    0 -0.71132390655E+00  0.64247565574E+01 -0.22986949094E+01  0.68605741064E+01  0.51100000000E-03 0. -1.
        -11    1    3    3    0    0 -0.16950710361E+02  0.43871270314E+01  0.14921651107E+02  0.23004980707E+02  0.51100000000E-03 0.  1.
        -12    1    3    3    0    0 -0.10864609573E+02  0.16994351571E+02 -0.44859970917E+01  0.20663298294E+02  0.00000000000E+00 0.  1.
</event>
<event>
 7    1  0.5525118E-011  0.5052887E+02  0.7816164E-02  0.1300439E+00
        -11   -1    0    0    0    0  0.00000000000E+00  0.00000000000E+00  0.45593999997E+02  0.45594000000E+02  0.51100000000E-03 0.  1.
         11   -1    0    0    0    0 -0.00000000000E+00 -0.00000000000E+00 -0.45593999997E+02  0.45594000000E+02  0.51100000000E-03 0. -1.
    9900012    2    1    2    0    0  0.23889080756E+02  0.11078815588E+02 -0.30979616503E+02  0.50528868518E+02  0.30000026347E+02 0.  0.
        -12    1    1    2    0    0 -0.23889080756E+02 -0.11078815588E+02  0.30979616503E+02  0.40659131482E+02  0.00000000000E+00 0.  1.
         11    1    3    3    0    0  0.31976217413E+01  0.13886620641E+02 -0.51387431409E+01  0.15148257291E+02  0.51100000000E-03 0. -1.
        -11    1    3    3    0    0  0.18386823468E+02  0.10204142577E+01 -0.15335557574E+02  0.23964470552E+02  0.51100000000E-03 0.  1.
         12    1    3    3    0    0  0.23046355466E+01 -0.38282193102E+01 -0.10505315789E+02  0.11416140675E+02  0.00000000000E+00 0. -1.
</event>
<event>
 7    1  0.5525118E-011  0.5052884E+02  0.7816164E-02  0.1300439E+00
        -11   -1    0    0    0    0  0.00000000000E+00  0.00000000000E+00  0.45593999997E+02  0.45594000000E+02  0.51100000000E-03 0.  1.
         11   -1    0    0    0    0 -0.00000000000E+00 -0.00000000000E+00 -0.45593999997E+02  0.45594000000E+02  0.51100000000E-03 0. -1.
    9900012    2    1    2    0    0  0.28800782538E+02 -0.28581352570E+02 -0.26054324241E+01  0.50528842758E+02  0.29999948046E+02 0.  0.
        -12    1    1    2    0    0 -0.28800782538E+02  0.28581352570E+02  0.26054324241E+01  0.40659157242E+02  0.00000000000E+00 0.  1.
         11    1    3    3    0    0  0.22992552010E+02 -0.10901772125E+02 -0.11798317537E+02  0.28048286585E+02  0.51100000000E-03 0. -1.
        -11    1    3    3    0    0 -0.89630377731E+00 -0.35821859201E+01 -0.10140389234E+01  0.38293199953E+01  0.51100000000E-03 0.  1.
         12    1    3    3    0    0  0.67045343053E+01 -0.14097394525E+02  0.10206924036E+02  0.18651236177E+02  0.00000000000E+00 0. -1.
</event>
<event>
 7    1  0.5525118E-011  0.5052887E+02  0.7816164E-02  0.1300439E+00
        -11   -1    0    0    0    0  0.00000000000E+00  0.00000000000E+00  0.45593999997E+02  0.45594000000E+02  0.51100000000E-03 0. -1.
         11   -1    0    0    0    0 -0.00000000000E+00 -0.00000000000E+00 -0.45593999997E+02  0.45594000000E+02  0.51100000000E-03 0.  1.
    9900012    2    1    2    0    0 -0.44644764312E+01 -0.37373182222E+02  0.15377861180E+02  0.50528869246E+02  0.30000028559E+02 0.  0.
        -12    1    1    2    0    0  0.44644764312E+01  0.37373182222E+02 -0.15377861180E+02  0.40659130754E+02  0.00000000000E+00 0.  1.
         11    1    3    3    0    0  0.58946445756E+01 -0.12639203067E+02  0.90597467386E+01  0.16630553210E+02  0.51100000000E-03 0. -1.
        -11    1    3    3    0    0 -0.68592254910E+01 -0.94619662674E+01 -0.67499540721E+01  0.13495912723E+02  0.51100000000E-03 0.  1.
        -12    1    3    3    0    0 -0.34998955157E+01 -0.15272012888E+02  0.13068068514E+02  0.20402403313E+02  0.00000000000E+00 0.  1.
</event>
<event>
 7    1  0.5525118E-011  0.5052886E+02  0.7816164E-02  0.1300439E+00
        -11   -1    0    0    0    0  0.00000000000E+00  0.00000000000E+00  0.45593999997E+02  0.45594000000E+02  0.51100000000E-03 0.  1.
         11   -1    0    0    0    0 -0.00000000000E+00 -0.00000000000E+00 -0.45593999997E+02  0.45594000000E+02  0.51100000000E-03 0. -1.
    9900012    2    1    2    0    0  0.74397753530E+01 -0.34210654228E+02 -0.20674776795E+02  0.50528861845E+02  0.30000006064E+02 0.  0.
        -12    1    1    2    0    0 -0.74397753530E+01  0.34210654228E+02  0.20674776795E+02  0.40659138155E+02  0.00000000000E+00 0.  1.
         11    1    3    3    0    0  0.11502726481E+02 -0.35274896895E+01 -0.65906338789E+01  0.13718321880E+02  0.51100000000E-03 0. -1.
        -11    1    3    3    0    0 -0.66507044164E+01 -0.25860167618E+02 -0.65415865910E+01  0.27491316699E+02  0.51100000000E-03 0.  1.
         12    1    3    3    0    0  0.25877532885E+01 -0.48229969204E+01 -0.75425563250E+01  0.93192232666E+01  0.00000000000E+00 0. -1.
</event>
<event>
 7    1  0.5525118E-011  0.5052887E+02  0.7816164E-02  0.1300439E+00
        -11   -1    0    0    0    0  0.00000000000E+00  0.00000000000E+00  0.45593999997E+02  0.45594000000E+02  0.51100000000E-03 0.  1.
         11   -1    0    0    0    0 -0.00000000000E+00 -0.00000000000E+00 -0.45593999997E+02  0.45594000000E+02  0.51100000000E-03 0. -1.
    9900012    2    1    2    0    0  0.47196486462E+01  0.14942753301E+02 -0.37518049205E+02  0.50528868483E+02  0.30000026240E+02 0.  0.
        -12    1    1    2    0    0 -0.47196486462E+01 -0.14942753301E+02  0.37518049205E+02  0.40659131517E+02  0.00000000000E+00 0.  1.
         11    1    3    3    0    0 -0.18296550130E+01 -0.27249253839E+01 -0.69983102830E+01  0.77297608561E+01  0.51100000000E-03 0. -1.
        -11    1    3    3    0    0  0.89356700143E+01  0.12350710759E+02 -0.41583774734E+01  0.15801213825E+02  0.51100000000E-03 0.  1.
        -12    1    3    3    0    0 -0.23863663550E+01  0.53169679262E+01 -0.26361361449E+02  0.26997893802E+02  0.00000000000E+00 0.  1.
</event>
<event>
 7    1  0.5525118E-011  0.5052886E+02  0.7816164E-02  0.1300439E+00
        -11   -1    0    0    0    0  0.00000000000E+00  0.00000000000E+00  0.45593999997E+02  0.45594000000E+02  0.51100000000E-03 0.  1.
         11   -1    0    0    0    0 -0.00000000000E+00 -0.00000000000E+00 -0.45593999997E+02  0.45594000000E+02  0.51100000000E-03 0. -1.
    9900012    2    1    2    0    0  0.61384247950E+01 -0.33908601995E+02 -0.21579893024E+02  0.50528864112E+02  0.30000012954E+02 0.  0.
        -12    1    1    2    0    0 -0.61384247950E+01  0.33908601995E+02  0.21579893024E+02  0.40659135888E+02  0.00000000000E+00 0.  1.
         11    1    3    3    0    0  0.11068332486E+02 -0.14744867435E+02 -0.14540752103E+02  0.23480898017E+02  0.51100000000E-03 0. -1.
        -11    1    3    3    0    0 -0.77130601922E+01 -0.11623396964E+01 -0.10342228857E+01  0.78684146013E+01  0.51100000000E-03 0.  1.
         12    1    3    3    0    0  0.27831525013E+01 -0.18001394864E+02 -0.60049180354E+01  0.19179551494E+02  0.00000000000E+00 0. -1.
</event>
<event>
 7    1  0.5525118E-011  0.5052886E+02  0.7816164E-02  0.1300439E+00
        -11   -1    0    0    0    0  0.00000000000E+00  0.00000000000E+00  0.45593999997E+02  0.45594000000E+02  0.51100000000E-03 0.  1.
         11   -1    0    0    0    0 -0.00000000000E+00 -0.00000000000E+00 -0.45593999997E+02  0.45594000000E+02  0.51100000000E-03 0. -1.
    9900012    2    1    2    0    0 -0.34197672894E+02  0.15758920428E+02 -0.15340830014E+02  0.50528862405E+02  0.30000007768E+02 0.  0.
        -12    1    1    2    0    0  0.34197672894E+02 -0.15758920428E+02  0.15340830014E+02  0.40659137595E+02  0.00000000000E+00 0.  1.
         11    1    3    3    0    0 -0.69234363782E+01  0.44557786092E+01  0.74368160101E+01  0.11094781067E+02  0.51100000000E-03 0. -1.
        -11    1    3    3    0    0 -0.21488724130E+01  0.55826482952E+01 -0.70473436248E+01  0.92438448203E+01  0.51100000000E-03 0.  1.
         12    1    3    3    0    0 -0.25125364103E+02  0.57204935234E+01 -0.15730302399E+02  0.30190236518E+02  0.00000000000E+00 0. -1.
</event>
<event>
 7    1  0.5525118E-011  0.5052888E+02  0.7816164E-02  0.1300439E+00
        -11   -1    0    0    0    0  0.00000000000E+00  0.00000000000E+00  0.45593999997E+02  0.45594000000E+02  0.51100000000E-03 0.  1.
         11   -1    0    0    0    0 -0.00000000000E+00 -0.00000000000E+00 -0.45593999997E+02  0.45594000000E+02  0.51100000000E-03 0. -1.
    9900012    2    1    2    0    0 -0.10171631368E+02  0.86513162485E+01 -0.38403858295E+02  0.50528884301E+02  0.30000074320E+02 0.  0.
        -12    1    1    2    0    0  0.10171631368E+02 -0.86513162485E+01  0.38403858295E+02  0.40659115699E+02  0.00000000000E+00 0.  1.
         11    1    3    3    0    0 -0.78132414425E+01  0.50668982128E+01 -0.14671902682E+02  0.17377713541E+02  0.51100000000E-03 0. -1.
        -11    1    3    3    0    0  0.10120091356E+02 -0.11486751844E+00 -0.10894896813E+02  0.14870380642E+02  0.51100000000E-03 0.  1.
        -12    1    3    3    0    0 -0.12478481282E+02  0.36992855541E+01 -0.12837058800E+02  0.18280790118E+02  0.00000000000E+00 0.  1.
</event>
<event>
 7    1  0.5525118E-011  0.5052885E+02  0.7816164E-02  0.1300439E+00
        -11   -1    0    0    0    0  0.00000000000E+00  0.00000000000E+00  0.45593999997E+02  0.45594000000E+02  0.51100000000E-03 0. -1.
         11   -1    0    0    0    0 -0.00000000000E+00 -0.00000000000E+00 -0.45593999997E+02  0.45594000000E+02  0.51100000000E-03 0.  1.
    9900012    2    1    2    0    0  0.34794384833E+02  0.20181413143E+02 -0.59352836285E+01  0.50528852886E+02  0.29999978831E+02 0.  0.
        -12    1    1    2    0    0 -0.34794384833E+02 -0.20181413143E+02  0.59352836285E+01  0.40659147114E+02  0.00000000000E+00 0.  1.
         11    1    3    3    0    0  0.16504254287E+02  0.18174884483E+02 -0.21574529687E+01  0.24644906961E+02  0.51100000000E-03 0. -1.
        -11    1    3    3    0    0  0.21789927178E+02  0.80670027162E+00 -0.24024092306E+01  0.21936801548E+02  0.51100000000E-03 0.  1.
        -12    1    3    3    0    0 -0.34997966321E+01  0.11998283876E+01 -0.13754214293E+01  0.39471443771E+01  0.00000000000E+00 0.  1.
</event>
<event>
 7    1  0.5525118E-011  0.5052887E+02  0.7816164E-02  0.1300439E+00
        -11   -1    0    0    0    0  0.00000000000E+00  0.00000000000E+00  0.45593999997E+02  0.45594000000E+02  0.51100000000E-03 0.  1.
         11   -1    0    0    0    0 -0.00000000000E+00 -0.00000000000E+00 -0.45593999997E+02  0.45594000000E+02  0.51100000000E-03 0. -1.
    9900012    2    1    2    0    0  0.17566729716E+00  0.33745823970E+02 -0.22679361721E+02  0.50528868892E+02  0.30000027484E+02 0.  0.
        -12    1    1    2    0    0 -0.17566729716E+00 -0.33745823970E+02  0.22679361721E+02  0.40659131108E+02  0.00000000000E+00 0.  1.
         11    1    3    3    0    0 -0.70819993769E+00  0.22677269587E+01 -0.29790156096E+01  0.38103368584E+01  0.51100000000E-03 0. -1.
        -11    1    3    3    0    0 -0.12733885558E+02  0.22095388131E+02 -0.14730378795E+02  0.29450671941E+02  0.51100000000E-03 0.  1.
        -12    1    3    3    0    0  0.13617752793E+02  0.93827088794E+01 -0.49699673167E+01  0.17267860092E+02  0.00000000000E+00 0.  1.
</event>
<event>
 7    1  0.5525118E-011  0.5052886E+02  0.7816164E-02  0.1300439E+00
        -11   -1    0    0    0    0  0.00000000000E+00  0.00000000000E+00  0.45593999997E+02  0.45594000000E+02  0.51100000000E-03 0. -1.
         11   -1    0    0    0    0 -0.00000000000E+00 -0.00000000000E+00 -0.45593999997E+02  0.45594000000E+02  0.51100000000E-03 0.  1.
    9900012    2    1    2    0    0 -0.19041291510E+02 -0.31875973923E+02  0.16568563700E+02  0.50528858359E+02  0.29999995467E+02 0.  0.
        -12    1    1    2    0    0  0.19041291510E+02  0.31875973923E+02 -0.16568563700E+02  0.40659141641E+02  0.00000000000E+00 0.  1.
         11    1    3    3    0    0 -0.21855288979E+02 -0.93157781692E+01  0.88075521543E+01  0.25337923247E+02  0.51100000000E-03 0. -1.
        -11    1    3    3    0    0 -0.27710207963E+00 -0.62848925870E+01 -0.11267872157E+01  0.63911118034E+01  0.51100000000E-03 0.  1.
         12    1    3    3    0    0  0.30910995484E+01 -0.16275303167E+02  0.88877987616E+01  0.18799823308E+02  0.00000000000E+00 0. -1.
</event>
<event>
 7    1  0.5525118E-011  0.5052886E+02  0.7816164E-02  0.1300439E+00
        -11   -1    0    0    0    0  0.00000000000E+00  0.00000000000E+00  0.45593999997E+02  0.45594000000E+02  0.51100000000E-03 0. -1.
         11   -1    0    0    0    0 -0.00000000000E+00 -0.00000000000E+00 -0.45593999997E+02  0.45594000000E+02  0.51100000000E-03 0.  1.
    9900012    2    1    2    0    0  0.26729966576E+02 -0.29036214561E+02  0.97761438909E+01  0.50528857626E+02  0.29999993240E+02 0.  0.
        -12    1    1    2    0    0 -0.26729966576E+02  0.29036214561E+02 -0.97761438909E+01  0.40659142374E+02  0.00000000000E+00 0.  1.
         11    1    3    3    0    0  0.66109196335E+01 -0.75108069210E+01  0.45482782869E+01  0.10991056120E+02  0.51100000000E-03 0. -1.
        -11    1    3    3    0    0  0.10261433396E+02 -0.11672930921E+02 -0.10321070698E+02  0.18656870912E+02  0.51100000000E-03 0.  1.
        -12    1    3    3    0    0  0.98576135470E+01 -0.98524767193E+01  0.15548936302E+02  0.20880930594E+02  0.00000000000E+00 0.  1.
</event>
<event>
 7    1  0.5525118E-011  0.5052875E+02  0.7816164E-02  0.1300439E+00
        -11   -1    0    0    0    0  0.00000000000E+00  0.00000000000E+00  0.45593999997E+02  0.45594000000E+02  0.51100000000E-03 0. -1.
         11   -1    0    0    0    0 -0.00000000000E+00 -0.00000000000E+00 -0.45593999997E+02  0.45594000000E+02  0.51100000000E-03 0.  1.
    9900012    2    1    2    0    0 -0.16167253761E+02  0.67328638051E+01  0.36694178923E+02  0.50528753622E+02  0.29999677108E+02 0.  0.
        -12    1    1    2    0    0  0.16167253761E+02 -0.67328638051E+01 -0.36694178923E+02  0.40659246378E+02  0.00000000000E+00 0.  1.
         11    1    3    3    0    0 -0.20958824915E+00 -0.59026165228E+01  0.63087508161E+00  0.59399337269E+01  0.51100000000E-03 0.  1.
        -11    1    3    3    0    0 -0.19220234991E+02  0.10300774187E+02  0.27217146289E+02  0.34875441708E+02  0.51100000000E-03 0. -1.
        -12    1    3    3    0    0  0.32625694785E+01  0.23347061410E+01  0.88461575519E+01  0.97133781868E+01  0.00000000000E+00 0.  1.
</event>
<event>
 7    1  0.5525118E-011  0.5052887E+02  0.7816164E-02  0.1300439E+00
        -11   -1    0    0    0    0  0.00000000000E+00  0.00000000000E+00  0.45593999997E+02  0.45594000000E+02  0.51100000000E-03 0. -1.
         11   -1    0    0    0    0 -0.00000000000E+00 -0.00000000000E+00 -0.45593999997E+02  0.45594000000E+02  0.51100000000E-03 0.  1.
    9900012    2    1    2    0    0  0.88520509202E+01  0.13662692147E+02  0.37257712940E+02  0.50528866515E+02  0.30000020260E+02 0.  0.
        -12    1    1    2    0    0 -0.88520509202E+01 -0.13662692147E+02 -0.37257712940E+02  0.40659133485E+02  0.00000000000E+00 0.  1.
         11    1    3    3    0    0 -0.15911867641E+01  0.16553316892E+02  0.31646947835E+02  0.35750153608E+02  0.51100000000E-03 0. -1.
        -11    1    3    3    0    0 -0.13741525673E+01 -0.15553150896E+00 -0.69773816014E-01  0.13846855148E+01  0.51100000000E-03 0.  1.
         12    1    3    3    0    0  0.11817390252E+02 -0.27350932356E+01  0.56805389205E+01  0.13394027393E+02  0.00000000000E+00 0. -1.
</event>
<event>
 7    1  0.5525118E-011  0.5052885E+02  0.7816164E-02  0.1300439E+00
        -11   -1    0    0    0    0  0.00000000000E+00  0.00000000000E+00  0.45593999997E+02  0.45594000000E+02  0.51100000000E-03 0. -1.
         11   -1    0    0    0    0 -0.00000000000E+00 -0.00000000000E+00 -0.45593999997E+02  0.45594000000E+02  0.51100000000E-03 0.  1.
    9900012    2    1    2    0    0 -0.85961324652E+01 -0.29768151576E+02  0.26327361178E+02  0.50528852343E+02  0.29999977181E+02 0.  0.
        -12    1    1    2    0    0  0.85961324652E+01  0.29768151576E+02 -0.26327361178E+02  0.40659147657E+02  0.00000000000E+00 0.  1.
         11    1    3    3    0    0 -0.88107186044E+01 -0.23045321630E+02  0.20475347317E+02  0.32061744484E+02  0.51100000000E-03 0. -1.
        -11    1    3    3    0    0  0.18987198597E+01  0.46412646613E+01  0.47819365340E+01  0.69291696499E+01  0.51100000000E-03 0.  1.
        -12    1    3    3    0    0 -0.16841337205E+01 -0.11364094607E+02  0.10700773276E+01  0.11537938209E+02  0.00000000000E+00 0.  1.
</event>
<event>
 7    1  0.5525118E-011  0.5052883E+02  0.7816164E-02  0.1300439E+00
        -11   -1    0    0    0    0  0.00000000000E+00  0.00000000000E+00  0.45593999997E+02  0.45594000000E+02  0.51100000000E-03 0.  1.
         11   -1    0    0    0    0 -0.00000000000E+00 -0.00000000000E+00 -0.45593999997E+02  0.45594000000E+02  0.51100000000E-03 0. -1.
    9900012    2    1    2    0    0 -0.77469989517E+00  0.30645141245E+02 -0.26710359583E+02  0.50528829437E+02  0.29999907556E+02 0.  0.
        -12    1    1    2    0    0  0.77469989517E+00 -0.30645141245E+02  0.26710359583E+02  0.40659170563E+02  0.00000000000E+00 0.  1.
         11    1    3    3    0    0 -0.81556874468E+01  0.12014170262E+01  0.17227103934E+01  0.84217796196E+01  0.51100000000E-03 0. -1.
        -11    1    3    3    0    0  0.35261168147E+01  0.23372571819E+02 -0.23852806203E+02  0.33580753077E+02  0.51100000000E-03 0.  1.
        -12    1    3    3    0    0  0.38548707370E+01  0.60711523994E+01 -0.45802637736E+01  0.85262967396E+01  0.00000000000E+00 0.  1.
</event>
<event>
 7    1  0.5525118E-011  0.5052885E+02  0.7816164E-02  0.1300439E+00
        -11   -1    0    0    0    0  0.00000000000E+00  0.00000000000E+00  0.45593999997E+02  0.45594000000E+02  0.51100000000E-03 0.  1.
         11   -1    0    0    0    0 -0.00000000000E+00 -0.00000000000E+00 -0.45593999997E+02  0.45594000000E+02  0.51100000000E-03 0. -1.
    9900012    2    1    2    0    0 -0.64777052946E+01 -0.36745532780E+02 -0.16154607061E+02  0.50528853741E+02  0.29999981432E+02 0.  0.
        -12    1    1    2    0    0  0.64777052946E+01  0.36745532780E+02  0.16154607061E+02  0.40659146259E+02  0.00000000000E+00 0.  1.
         11    1    3    3    0    0 -0.74088136608E+01 -0.30624794487E+02 -0.12375612524E+02  0.33851504292E+02  0.51100000000E-03 0. -1.
        -11    1    3    3    0    0 -0.28177426633E+01  0.26349974187E+01  0.30829725599E+01  0.49383808257E+01  0.51100000000E-03 0.  1.
        -12    1    3    3    0    0  0.37488510295E+01 -0.87557357120E+01 -0.68619670971E+01  0.11738968623E+02  0.00000000000E+00 0.  1.
</event>
<event>
 7    1  0.5525118E-011  0.5052886E+02  0.7816164E-02  0.1300439E+00
        -11   -1    0    0    0    0  0.00000000000E+00  0.00000000000E+00  0.45593999997E+02  0.45594000000E+02  0.51100000000E-03 0. -1.
         11   -1    0    0    0    0 -0.00000000000E+00 -0.00000000000E+00 -0.45593999997E+02  0.45594000000E+02  0.51100000000E-03 0.  1.
    9900012    2    1    2    0    0 -0.17607971980E+02  0.31297391161E+02  0.19068256939E+02  0.50528858427E+02  0.29999995675E+02 0.  0.
        -12    1    1    2    0    0  0.17607971980E+02 -0.31297391161E+02 -0.19068256939E+02  0.40659141573E+02  0.00000000000E+00 0.  1.
         11    1    3    3    0    0 -0.27188930297E+01  0.18594934621E+02  0.10343322702E+02  0.21451067518E+02  0.51100000000E-03 0. -1.
        -11    1    3    3    0    0 -0.18931065875E+02  0.13924595960E+02  0.77319390800E+01  0.24739897130E+02  0.51100000000E-03 0.  1.
        -12    1    3    3    0    0  0.40419869248E+01 -0.12221394197E+01  0.99299515739E+00  0.43378937797E+01  0.00000000000E+00 0.  1.
</event>
<event>
 7    1  0.5525118E-011  0.5052885E+02  0.7816164E-02  0.1300439E+00
        -11   -1    0    0    0    0  0.00000000000E+00  0.00000000000E+00  0.45593999997E+02  0.45594000000E+02  0.51100000000E-03 0.  1.
         11   -1    0    0    0    0 -0.00000000000E+00 -0.00000000000E+00 -0.45593999997E+02  0.45594000000E+02  0.51100000000E-03 0. -1.
    9900012    2    1    2    0    0  0.35980139724E+02 -0.10512299070E+02 -0.15750785464E+02  0.50528854300E+02  0.29999983132E+02 0.  0.
        -12    1    1    2    0    0 -0.35980139724E+02  0.10512299070E+02  0.15750785464E+02  0.40659145700E+02  0.00000000000E+00 0.  1.
         11    1    3    3    0    0  0.24054419576E+02 -0.17945215158E+01 -0.76757799472E+01  0.25313099508E+02  0.51100000000E-03 0. -1.
        -11    1    3    3    0    0  0.41455732080E+01 -0.57731451399E+01 -0.13519377614E+02  0.15273786477E+02  0.51100000000E-03 0.  1.
        -12    1    3    3    0    0  0.77801469394E+01 -0.29446324147E+01  0.54443720970E+01  0.99419683155E+01  0.00000000000E+00 0.  1.
</event>
<event>
 7    1  0.5525118E-011  0.5052886E+02  0.7816164E-02  0.1300439E+00
        -11   -1    0    0    0    0  0.00000000000E+00  0.00000000000E+00  0.45593999997E+02  0.45594000000E+02  0.51100000000E-03 0.  1.
         11   -1    0    0    0    0 -0.00000000000E+00 -0.00000000000E+00 -0.45593999997E+02  0.45594000000E+02  0.51100000000E-03 0. -1.
    9900012    2    1    2    0    0  0.63050984494E+01 -0.26836650652E+02 -0.29886546771E+02  0.50528858807E+02  0.29999996829E+02 0.  0.
        -12    1    1    2    0    0 -0.63050984494E+01  0.26836650652E+02  0.29886546771E+02  0.40659141193E+02  0.00000000000E+00 0.  1.
         11    1    3    3    0    0 -0.10667498188E+01  0.66770580349E+00  0.49841585261E+01  0.51405858315E+01  0.51100000000E-03 0. -1.
        -11    1    3    3    0    0 -0.23564280805E+00 -0.83622724376E+00 -0.30869486843E+01  0.32068763582E+01  0.51100000000E-03 0.  1.
         12    1    3    3    0    0  0.76074910763E+01 -0.26668129212E+02 -0.31783756613E+02  0.42181396617E+02  0.00000000000E+00 0. -1.
</event>
<event>
 7    1  0.5525118E-011  0.5052886E+02  0.7816164E-02  0.1300439E+00
        -11   -1    0    0    0    0  0.00000000000E+00  0.00000000000E+00  0.45593999997E+02  0.45594000000E+02  0.51100000000E-03 0.  1.
         11   -1    0    0    0    0 -0.00000000000E+00 -0.00000000000E+00 -0.45593999997E+02  0.45594000000E+02  0.51100000000E-03 0. -1.
    9900012    2    1    2    0    0  0.96970612327E+01 -0.28820876906E+02 -0.26990554907E+02  0.50528855932E+02  0.29999988091E+02 0.  0.
        -12    1    1    2    0    0 -0.96970612327E+01  0.28820876906E+02  0.26990554907E+02  0.40659144068E+02  0.00000000000E+00 0.  1.
         11    1    3    3    0    0 -0.47005270610E+01 -0.14493052679E+02 -0.14323157387E+02  0.20911632371E+02  0.51100000000E-03 0. -1.
        -11    1    3    3    0    0  0.98497736703E+01 -0.16238605463E+02 -0.36517222350E+01  0.19340253987E+02  0.51100000000E-03 0.  1.
        -12    1    3    3    0    0  0.45478146234E+01  0.19107812369E+01 -0.90156752846E+01  0.10276969574E+02  0.00000000000E+00 0.  1.
</event>
<event>
 7    1  0.5525118E-011  0.5052884E+02  0.7816164E-02  0.1300439E+00
        -11   -1    0    0    0    0  0.00000000000E+00  0.00000000000E+00  0.45593999997E+02  0.45594000000E+02  0.51100000000E-03 0.  1.
         11   -1    0    0    0    0 -0.00000000000E+00 -0.00000000000E+00 -0.45593999997E+02  0.45594000000E+02  0.51100000000E-03 0. -1.
    9900012    2    1    2    0    0 -0.35201851246E+02  0.12719875650E+02 -0.15880855624E+02  0.50528841830E+02  0.29999945227E+02 0.  0.
        -12    1    1    2    0    0  0.35201851246E+02 -0.12719875650E+02  0.15880855624E+02  0.40659158170E+02  0.00000000000E+00 0.  1.
         11    1    3    3    0    0  0.15386974366E+01  0.41994775731E+01 -0.86503927766E+01  0.97381978383E+01  0.51100000000E-03 0. -1.
        -11    1    3    3    0    0 -0.22661184308E+02  0.10552539110E+02 -0.87490663808E+01  0.26484552454E+02  0.51100000000E-03 0.  1.
         12    1    3    3    0    0 -0.14079364375E+02 -0.20321410335E+01  0.15186035332E+01  0.14306091537E+02  0.00000000000E+00 0. -1.
</event>
<event>
 7    1  0.5525118E-011  0.5052883E+02  0.7816164E-02  0.1300439E+00
        -11   -1    0    0    0    0  0.00000000000E+00  0.00000000000E+00  0.45593999997E+02  0.45594000000E+02  0.51100000000E-03 0.  1.
         11   -1    0    0    0    0 -0.00000000000E+00 -0.00000000000E+00 -0.45593999997E+02  0.45594000000E+02  0.51100000000E-03 0. -1.
    9900012    2    1    2    0    0  0.68703740110E+01  0.13943306487E+02 -0.37570602510E+02  0.50528831196E+02  0.29999912903E+02 0.  0.
        -12    1    1    2    0    0 -0.68703740110E+01 -0.13943306487E+02  0.37570602510E+02  0.40659168804E+02  0.00000000000E+00 0.  1.
         11    1    3    3    0    0  0.11864442894E+02  0.25028267418E+01 -0.53183756685E+01  0.13240629399E+02  0.51100000000E-03 0. -1.
        -11    1    3    3    0    0 -0.41651773946E+01  0.77418668031E+01 -0.32322998113E+02  0.33497185130E+02  0.51100000000E-03 0.  1.
        -12    1    3    3    0    0 -0.82889148824E+00  0.36986129422E+01  0.70771271216E-01  0.37910166669E+01  0.00000000000E+00 0.  1.
</event>
<event>
 7    1  0.5525118E-011  0.5052890E+02  0.7816164E-02  0.1300439E+00
        -11   -1    0    0    0    0  0.00000000000E+00  0.00000000000E+00  0.45593999997E+02  0.45594000000E+02  0.51100000000E-03 0.  1.
         11   -1    0    0    0    0 -0.00000000000E+00 -0.00000000000E+00 -0.45593999997E+02  0.45594000000E+02  0.51100000000E-03 0. -1.
    9900012    2    1    2    0    0  0.84806707988E+01 -0.11973402544E+02 -0.37919362726E+02  0.50528902430E+02  0.30000129426E+02 0.  0.
        -12    1    1    2    0    0 -0.84806707988E+01  0.11973402544E+02  0.37919362726E+02  0.40659097570E+02  0.00000000000E+00 0.  1.
         11    1    3    3    0    0  0.10046636233E+02 -0.13933931526E+02 -0.11184432826E+02  0.20498314206E+02  0.51100000000E-03 0. -1.
        -11    1    3    3    0    0 -0.35318498486E+01  0.44681059260E+01 -0.37347475982E+01  0.68107469343E+01  0.51100000000E-03 0.  1.
        -12    1    3    3    0    0  0.19658844145E+01 -0.25075769443E+01 -0.23000182301E+02  0.23219841290E+02  0.00000000000E+00 0.  1.
</event>
<event>
 7    1  0.5525118E-011  0.5052886E+02  0.7816164E-02  0.1300439E+00
        -11   -1    0    0    0    0  0.00000000000E+00  0.00000000000E+00  0.45593999997E+02  0.45594000000E+02  0.51100000000E-03 0.  1.
         11   -1    0    0    0    0 -0.00000000000E+00 -0.00000000000E+00 -0.45593999997E+02  0.45594000000E+02  0.51100000000E-03 0. -1.
    9900012    2    1    2    0    0  0.63815378309E+01 -0.39792940238E+02 -0.53817902503E+01  0.50528858541E+02  0.29999996022E+02 0.  0.
        -12    1    1    2    0    0 -0.63815378309E+01  0.39792940238E+02  0.53817902503E+01  0.40659141459E+02  0.00000000000E+00 0.  1.
         11    1    3    3    0    0  0.15622572328E+01 -0.84583520416E+01 -0.72367182432E+00  0.86318056102E+01  0.51100000000E-03 0. -1.
        -11    1    3    3    0    0 -0.36911977265E+01 -0.57351633138E+01 -0.12119857552E+02  0.13907119984E+02  0.51100000000E-03 0.  1.
        -12    1    3    3    0    0  0.85104783247E+01 -0.25599424882E+02  0.74617391262E+01  0.27989932948E+02  0.00000000000E+00 0.  1.
</event>
<event>
 7    1  0.5525118E-011  0.5052885E+02  0.7816164E-02  0.1300439E+00
        -11   -1    0    0    0    0  0.00000000000E+00  0.00000000000E+00  0.45593999997E+02  0.45594000000E+02  0.51100000000E-03 0.  1.
         11   -1    0    0    0    0 -0.00000000000E+00 -0.00000000000E+00 -0.45593999997E+02  0.45594000000E+02  0.51100000000E-03 0. -1.
    9900012    2    1    2    0    0 -0.11135504913E+02 -0.19495504964E+02 -0.33898263736E+02  0.50528850134E+02  0.29999970468E+02 0.  0.
        -12    1    1    2    0    0  0.11135504913E+02  0.19495504964E+02  0.33898263736E+02  0.40659149866E+02  0.00000000000E+00 0.  1.
         11    1    3    3    0    0 -0.30991009393E+01 -0.93615959073E+00 -0.47215440582E+01  0.57248406061E+01  0.51100000000E-03 0. -1.
        -11    1    3    3    0    0 -0.11932948568E+02 -0.12854128183E+01 -0.17090439902E+01  0.12123051565E+02  0.51100000000E-03 0.  1.
        -12    1    3    3    0    0  0.38965445938E+01 -0.17273932554E+02 -0.27467675688E+02  0.32680957963E+02  0.00000000000E+00 0.  1.
</event>
<event>
 7    1  0.5525118E-011  0.5052885E+02  0.7816164E-02  0.1300439E+00
        -11   -1    0    0    0    0  0.00000000000E+00  0.00000000000E+00  0.45593999997E+02  0.45594000000E+02  0.51100000000E-03 0.  1.
         11   -1    0    0    0    0 -0.00000000000E+00 -0.00000000000E+00 -0.45593999997E+02  0.45594000000E+02  0.51100000000E-03 0. -1.
    9900012    2    1    2    0    0  0.30264640108E+01  0.76378872356E+01 -0.39820463966E+02  0.50528853965E+02  0.29999982111E+02 0.  0.
        -12    1    1    2    0    0 -0.30264640108E+01 -0.76378872356E+01  0.39820463966E+02  0.40659146035E+02  0.00000000000E+00 0.  1.
         11    1    3    3    0    0  0.26521563163E+01 -0.84937752223E+01 -0.14394004298E+02  0.16922337624E+02  0.51100000000E-03 0. -1.
        -11    1    3    3    0    0  0.48519007064E+01  0.92531359739E+01 -0.49798750486E+01  0.11574135889E+02  0.51100000000E-03 0.  1.
        -12    1    3    3    0    0 -0.44775930119E+01  0.68785264841E+01 -0.20446584619E+02  0.22032380452E+02  0.00000000000E+00 0.  1.
</event>
<event>
 7    1  0.5525118E-011  0.5052886E+02  0.7816164E-02  0.1300439E+00
        -11   -1    0    0    0    0  0.00000000000E+00  0.00000000000E+00  0.45593999997E+02  0.45594000000E+02  0.51100000000E-03 0. -1.
         11   -1    0    0    0    0 -0.00000000000E+00 -0.00000000000E+00 -0.45593999997E+02  0.45594000000E+02  0.51100000000E-03 0.  1.
    9900012    2    1    2    0    0 -0.31257808482E+02 -0.24280629331E+02  0.93040854779E+01  0.50528861318E+02  0.30000004462E+02 0.  0.
        -12    1    1    2    0    0  0.31257808482E+02  0.24280629331E+02 -0.93040854779E+01  0.40659138682E+02  0.00000000000E+00 0.  1.
         11    1    3    3    0    0 -0.22186579729E+02 -0.22187123043E+02  0.68057934944E+01  0.32106565907E+02  0.51100000000E-03 0. -1.
        -11    1    3    3    0    0 -0.80687766427E+01  0.55857559470E+01 -0.11145056810E+01  0.98766365319E+01  0.51100000000E-03 0.  1.
        -12    1    3    3    0    0 -0.10024521100E+01 -0.76792622353E+01  0.36127976645E+01  0.85456588790E+01  0.00000000000E+00 0.  1.
</event>
<event>
 7    1  0.5525118E-011  0.5052886E+02  0.7816164E-02  0.1300439E+00
        -11   -1    0    0    0    0  0.00000000000E+00  0.00000000000E+00  0.45593999997E+02  0.45594000000E+02  0.51100000000E-03 0.  1.
         11   -1    0    0    0    0 -0.00000000000E+00 -0.00000000000E+00 -0.45593999997E+02  0.45594000000E+02  0.51100000000E-03 0. -1.
    9900012    2    1    2    0    0 -0.14557520758E+02  0.85162711219E+01 -0.36996178855E+02  0.50528861614E+02  0.30000005361E+02 0.  0.
        -12    1    1    2    0    0  0.14557520758E+02 -0.85162711219E+01  0.36996178855E+02  0.40659138386E+02  0.00000000000E+00 0.  1.
         11    1    3    3    0    0  0.12452873480E+01 -0.46990481267E+01 -0.21605738830E+02  0.22145874210E+02  0.51100000000E-03 0.  1.
        -11    1    3    3    0    0 -0.14001700834E+02  0.53264431746E+01 -0.64090718317E+01  0.16294011941E+02  0.51100000000E-03 0. -1.
        -12    1    3    3    0    0 -0.18011072723E+01  0.78888760740E+01 -0.89813681931E+01  0.12088975463E+02  0.00000000000E+00 0.  1.
</event>
<event>
 7    1  0.5525118E-011  0.5052886E+02  0.7816164E-02  0.1300439E+00
        -11   -1    0    0    0    0  0.00000000000E+00  0.00000000000E+00  0.45593999997E+02  0.45594000000E+02  0.51100000000E-03 0.  1.
         11   -1    0    0    0    0 -0.00000000000E+00 -0.00000000000E+00 -0.45593999997E+02  0.45594000000E+02  0.51100000000E-03 0. -1.
    9900012    2    1    2    0    0  0.23070239646E+02  0.27280501179E+02 -0.19408873281E+02  0.50528855101E+02  0.29999985564E+02 0.  0.
        -12    1    1    2    0    0 -0.23070239646E+02 -0.27280501179E+02  0.19408873281E+02  0.40659144899E+02  0.00000000000E+00 0.  1.
         11    1    3    3    0    0  0.45060769712E+01  0.91226873067E+01 -0.13173240388E+02  0.16645191977E+02  0.51100000000E-03 0. -1.
        -11    1    3    3    0    0  0.55232650892E+01 -0.25332294348E+01  0.41013897549E+01  0.73311054281E+01  0.51100000000E-03 0.  1.
        -12    1    3    3    0    0  0.13040897586E+02  0.20691043307E+02 -0.10337022648E+02  0.26552557696E+02  0.00000000000E+00 0.  1.
</event>
<event>
 7    1  0.5525118E-011  0.5052887E+02  0.7816164E-02  0.1300439E+00
        -11   -1    0    0    0    0  0.00000000000E+00  0.00000000000E+00  0.45593999997E+02  0.45594000000E+02  0.51100000000E-03 0.  1.
         11   -1    0    0    0    0 -0.00000000000E+00 -0.00000000000E+00 -0.45593999997E+02  0.45594000000E+02  0.51100000000E-03 0. -1.
    9900012    2    1    2    0    0  0.37276413743E+02 -0.73128107521E+01  0.14496792776E+02  0.50528865437E+02  0.30000016982E+02 0.  0.
        -12    1    1    2    0    0 -0.37276413743E+02  0.73128107521E+01 -0.14496792776E+02  0.40659134563E+02  0.00000000000E+00 0.  1.
         11    1    3    3    0    0 -0.16062746827E+01  0.40012678235E+00 -0.53610385778E+01  0.56107891328E+01  0.51100000000E-03 0.  1.
        -11    1    3    3    0    0  0.17646249757E+02 -0.70950809568E+01  0.85819210358E+01  0.20865753597E+02  0.51100000000E-03 0. -1.
         12    1    3    3    0    0  0.21236438669E+02 -0.61785657764E+00  0.11275910318E+02  0.24052322707E+02  0.00000000000E+00 0. -1.
</event>
<event>
 7    1  0.5525118E-011  0.5052886E+02  0.7816164E-02  0.1300439E+00
        -11   -1    0    0    0    0  0.00000000000E+00  0.00000000000E+00  0.45593999997E+02  0.45594000000E+02  0.51100000000E-03 0. -1.
         11   -1    0    0    0    0 -0.00000000000E+00 -0.00000000000E+00 -0.45593999997E+02  0.45594000000E+02  0.51100000000E-03 0.  1.
    9900012    2    1    2    0    0 -0.83202745451E+01 -0.10112418937E+02  0.38492561967E+02  0.50528864347E+02  0.30000013670E+02 0.  0.
        -12    1    1    2    0    0  0.83202745451E+01  0.10112418937E+02 -0.38492561967E+02  0.40659135653E+02  0.00000000000E+00 0.  1.
         11    1    3    3    0    0 -0.14747522746E+02 -0.83555223298E+01  0.10844014016E+02  0.20122048126E+02  0.51100000000E-03 0.  1.
        -11    1    3    3    0    0  0.35710878380E+01  0.44736781231E+01  0.14255709401E+02  0.15362021842E+02  0.51100000000E-03 0. -1.
        -12    1    3    3    0    0  0.28561603630E+01 -0.62305747308E+01  0.13392838549E+02  0.15044794379E+02  0.00000000000E+00 0.  1.
</event>
<event>
 7    1  0.5525118E-011  0.5052886E+02  0.7816164E-02  0.1300439E+00
        -11   -1    0    0    0    0  0.00000000000E+00  0.00000000000E+00  0.45593999997E+02  0.45594000000E+02  0.51100000000E-03 0.  1.
         11   -1    0    0    0    0 -0.00000000000E+00 -0.00000000000E+00 -0.45593999997E+02  0.45594000000E+02  0.51100000000E-03 0. -1.
    9900012    2    1    2    0    0 -0.35139668304E-01 -0.15391007811E+02 -0.37633515634E+02  0.50528857668E+02  0.29999993367E+02 0.  0.
        -12    1    1    2    0    0  0.35139668304E-01  0.15391007811E+02  0.37633515634E+02  0.40659142332E+02  0.00000000000E+00 0.  1.
         11    1    3    3    0    0 -0.71784623264E+01 -0.55914347198E+01 -0.37979111791E+01  0.98599489443E+01  0.51100000000E-03 0. -1.
        -11    1    3    3    0    0  0.12173572787E+02 -0.10352448980E+02 -0.18126572499E+02  0.24164885788E+02  0.51100000000E-03 0.  1.
        -12    1    3    3    0    0 -0.50302501291E+01  0.55287588814E+00 -0.15709031955E+02  0.16504022936E+02  0.00000000000E+00 0.  1.
</event>
<event>
 7    1  0.5525118E-011  0.5052885E+02  0.7816164E-02  0.1300439E+00
        -11   -1    0    0    0    0  0.00000000000E+00  0.00000000000E+00  0.45593999997E+02  0.45594000000E+02  0.51100000000E-03 0.  1.
         11   -1    0    0    0    0 -0.00000000000E+00 -0.00000000000E+00 -0.45593999997E+02  0.45594000000E+02  0.51100000000E-03 0. -1.
    9900012    2    1    2    0    0 -0.97788236208E+00 -0.26166625286E+02 -0.31104956148E+02  0.50528845684E+02  0.29999956940E+02 0.  0.
        -12    1    1    2    0    0  0.97788236208E+00  0.26166625286E+02  0.31104956148E+02  0.40659154316E+02  0.00000000000E+00 0.  1.
         11    1    3    3    0    0 -0.64645573372E+00 -0.30179590304E+02 -0.25862880677E+02  0.39750649971E+02  0.51100000000E-03 0. -1.
        -11    1    3    3    0    0 -0.10089850413E+01  0.48147425815E+01 -0.71038585415E+01  0.86408682075E+01  0.51100000000E-03 0.  1.
        -12    1    3    3    0    0  0.67755841298E+00 -0.80177756336E+00  0.18617830706E+01  0.21373275055E+01  0.00000000000E+00 0.  1.
</event>
<event>
 7    1  0.5525118E-011  0.5052886E+02  0.7816164E-02  0.1300439E+00
        -11   -1    0    0    0    0  0.00000000000E+00  0.00000000000E+00  0.45593999997E+02  0.45594000000E+02  0.51100000000E-03 0.  1.
         11   -1    0    0    0    0 -0.00000000000E+00 -0.00000000000E+00 -0.45593999997E+02  0.45594000000E+02  0.51100000000E-03 0. -1.
    9900012    2    1    2    0    0 -0.35279915105E+01 -0.19875518561E+02 -0.35294232264E+02  0.50528858429E+02  0.29999995681E+02 0.  0.
        -12    1    1    2    0    0  0.35279915105E+01  0.19875518561E+02  0.35294232264E+02  0.40659141571E+02  0.00000000000E+00 0.  1.
         11    1    3    3    0    0  0.46617656366E+01 -0.14254857162E+02 -0.20099513960E+02  0.25078346701E+02  0.51100000000E-03 0. -1.
        -11    1    3    3    0    0 -0.13355158750E+02 -0.23172697378E+01 -0.71175623784E+01  0.15309790944E+02  0.51100000000E-03 0.  1.
        -12    1    3    3    0    0  0.51654016027E+01 -0.33033916614E+01 -0.80771559250E+01  0.10140720784E+02  0.00000000000E+00 0.  1.
</event>
<event>
 7    1  0.5525118E-011  0.5052886E+02  0.7816164E-02  0.1300439E+00
        -11   -1    0    0    0    0  0.00000000000E+00  0.00000000000E+00  0.45593999997E+02  0.45594000000E+02  0.51100000000E-03 0.  1.
         11   -1    0    0    0    0 -0.00000000000E+00 -0.00000000000E+00 -0.45593999997E+02  0.45594000000E+02  0.51100000000E-03 0. -1.
    9900012    2    1    2    0    0  0.24014159503E+01 -0.25991838494E+02 -0.31174075655E+02  0.50528862530E+02  0.30000008147E+02 0.  0.
        -12    1    1    2    0    0 -0.24014159503E+01  0.25991838494E+02  0.31174075655E+02  0.40659137470E+02  0.00000000000E+00 0.  1.
         11    1    3    3    0    0  0.67812787754E+01 -0.16199014690E+02 -0.35106875864E+01  0.17908622123E+02  0.51100000000E-03 0. -1.
        -11    1    3    3    0    0  0.21945965325E+01  0.24968418116E+01 -0.46674641187E+01  0.57302438459E+01  0.51100000000E-03 0.  1.
         12    1    3    3    0    0 -0.65744593576E+01 -0.12289665615E+02 -0.22995923950E+02  0.26889996562E+02  0.00000000000E+00 0. -1.
</event>
<event>
 7    1  0.5525118E-011  0.5052885E+02  0.7816164E-02  0.1300439E+00
        -11   -1    0    0    0    0  0.00000000000E+00  0.00000000000E+00  0.45593999997E+02  0.45594000000E+02  0.51100000000E-03 0.  1.
         11   -1    0    0    0    0 -0.00000000000E+00 -0.00000000000E+00 -0.45593999997E+02  0.45594000000E+02  0.51100000000E-03 0. -1.
    9900012    2    1    2    0    0  0.21187460390E+02  0.26655166839E+02 -0.22220704538E+02  0.50528854570E+02  0.29999983950E+02 0.  0.
        -12    1    1    2    0    0 -0.21187460390E+02 -0.26655166839E+02  0.22220704538E+02  0.40659145430E+02  0.00000000000E+00 0.  1.
         11    1    3    3    0    0  0.19325026533E+02  0.17125625743E+02 -0.14145265348E+02  0.29442014871E+02  0.51100000000E-03 0. -1.
        -11    1    3    3    0    0  0.35911731115E+01 -0.34154140779E+01 -0.61300975605E+01  0.78828721925E+01  0.51100000000E-03 0.  1.
        -12    1    3    3    0    0 -0.17287392548E+01  0.12944955174E+02 -0.19453416286E+01  0.13203967506E+02  0.00000000000E+00 0.  1.
</event>
<event>
 7    1  0.5525118E-011  0.5052884E+02  0.7816164E-02  0.1300439E+00
        -11   -1    0    0    0    0  0.00000000000E+00  0.00000000000E+00  0.45593999997E+02  0.45594000000E+02  0.51100000000E-03 0.  1.
         11   -1    0    0    0    0 -0.00000000000E+00 -0.00000000000E+00 -0.45593999997E+02  0.45594000000E+02  0.51100000000E-03 0. -1.
    9900012    2    1    2    0    0 -0.22975853828E+02  0.19685837020E+01 -0.33487342309E+02  0.50528840198E+02  0.29999940265E+02 0.  0.
        -12    1    1    2    0    0  0.22975853828E+02 -0.19685837020E+01  0.33487342309E+02  0.40659159802E+02  0.00000000000E+00 0.  1.
         11    1    3    3    0    0 -0.41459105005E+01  0.83462414896E+01 -0.11811336163E+02  0.15045131541E+02  0.51100000000E-03 0. -1.
        -11    1    3    3    0    0 -0.12256044717E+02 -0.11041425599E+02 -0.21903182466E+02  0.27420304772E+02  0.51100000000E-03 0.  1.
        -12    1    3    3    0    0 -0.65738986099E+01  0.46637678113E+01  0.22717631967E+00  0.80634038849E+01  0.00000000000E+00 0.  1.
</event>
<event>
 7    1  0.5525118E-011  0.5052886E+02  0.7816164E-02  0.1300439E+00
        -11   -1    0    0    0    0  0.00000000000E+00  0.00000000000E+00  0.45593999997E+02  0.45594000000E+02  0.51100000000E-03 0. -1.
         11   -1    0    0    0    0 -0.00000000000E+00 -0.00000000000E+00 -0.45593999997E+02  0.45594000000E+02  0.51100000000E-03 0.  1.
    9900012    2    1    2    0    0  0.27524304560E+01 -0.20785741797E+02  0.34835938236E+02  0.50528861688E+02  0.30000005588E+02 0.  0.
        -12    1    1    2    0    0 -0.27524304560E+01  0.20785741797E+02 -0.34835938236E+02  0.40659138312E+02  0.00000000000E+00 0.  1.
         11    1    3    3    0    0 -0.15468986942E+01 -0.13242358878E+02  0.13469878640E+02  0.18952324266E+02  0.51100000000E-03 0. -1.
        -11    1    3    3    0    0  0.66841189766E+01  0.61500707986E+01  0.61587517966E+01  0.10974107767E+02  0.51100000000E-03 0.  1.
        -12    1    3    3    0    0 -0.23847898264E+01 -0.13693453717E+02  0.15207307800E+02  0.20602429656E+02  0.00000000000E+00 0.  1.
</event>
<event>
 7    1  0.5525118E-011  0.5052887E+02  0.7816164E-02  0.1300439E+00
        -11   -1    0    0    0    0  0.00000000000E+00  0.00000000000E+00  0.45593999997E+02  0.45594000000E+02  0.51100000000E-03 0.  1.
         11   -1    0    0    0    0 -0.00000000000E+00 -0.00000000000E+00 -0.45593999997E+02  0.45594000000E+02  0.51100000000E-03 0. -1.
    9900012    2    1    2    0    0  0.26703427389E+02  0.25391635772E+02 -0.17185946173E+02  0.50528868831E+02  0.30000027299E+02 0.  0.
        -12    1    1    2    0    0 -0.26703427389E+02 -0.25391635772E+02  0.17185946173E+02  0.40659131169E+02  0.00000000000E+00 0.  1.
         11    1    3    3    0    0  0.33014752143E+01  0.70250251918E+01 -0.78793844104E+01  0.11060534186E+02  0.51100000000E-03 0. -1.
        -11    1    3    3    0    0  0.16519081235E+02  0.13373000415E+02  0.58897361675E+01  0.22054618050E+02  0.51100000000E-03 0.  1.
        -12    1    3    3    0    0  0.68828709407E+01  0.49936101653E+01 -0.15196297930E+02  0.17413716595E+02  0.00000000000E+00 0.  1.
</event>
<event>
 7    1  0.5525118E-011  0.5052886E+02  0.7816164E-02  0.1300439E+00
        -11   -1    0    0    0    0  0.00000000000E+00  0.00000000000E+00  0.45593999997E+02  0.45594000000E+02  0.51100000000E-03 0. -1.
         11   -1    0    0    0    0 -0.00000000000E+00 -0.00000000000E+00 -0.45593999997E+02  0.45594000000E+02  0.51100000000E-03 0.  1.
    9900012    2    1    2    0    0  0.38466631396E+02  0.11819414698E+02 -0.58125024095E+01  0.50528862294E+02  0.30000007428E+02 0.  0.
        -12    1    1    2    0    0 -0.38466631396E+02 -0.11819414698E+02  0.58125024095E+01  0.40659137706E+02  0.00000000000E+00 0.  1.
         11    1    3    3    0    0 -0.26813703265E+01  0.16977254146E+01 -0.68846694754E+01  0.75809427156E+01  0.51100000000E-03 0. -1.
        -11    1    3    3    0    0  0.17528130321E+02  0.11492322635E+01 -0.10160783655E+01  0.17595127247E+02  0.51100000000E-03 0.  1.
         12    1    3    3    0    0  0.23619871401E+02  0.89724570198E+01  0.20882454314E+01  0.25352792331E+02  0.00000000000E+00 0. -1.
</event>
<event>
 7    1  0.5525118E-011  0.5052886E+02  0.7816164E-02  0.1300439E+00
        -11   -1    0    0    0    0  0.00000000000E+00  0.00000000000E+00  0.45593999997E+02  0.45594000000E+02  0.51100000000E-03 0. -1.
         11   -1    0    0    0    0 -0.00000000000E+00 -0.00000000000E+00 -0.45593999997E+02  0.45594000000E+02  0.51100000000E-03 0.  1.
    9900012    2    1    2    0    0 -0.73815652293E+01  0.36508382147E+02  0.16303860619E+02  0.50528863962E+02  0.30000012500E+02 0.  0.
        -12    1    1    2    0    0  0.73815652293E+01 -0.36508382147E+02 -0.16303860619E+02  0.40659136038E+02  0.00000000000E+00 0.  1.
         11    1    3    3    0    0 -0.10977411862E+02  0.11846183698E+02  0.14579416923E+02  0.21757643197E+02  0.51100000000E-03 0. -1.
        -11    1    3    3    0    0  0.69981022373E+01  0.14647210905E+02 -0.40358448478E+01  0.16727291057E+02  0.51100000000E-03 0.  1.
        -12    1    3    3    0    0 -0.34022556042E+01  0.10014987544E+02  0.57602885442E+01  0.12043929708E+02  0.00000000000E+00 0.  1.
</event>
<event>
 7    1  0.5525118E-011  0.5052877E+02  0.7816164E-02  0.1300439E+00
        -11   -1    0    0    0    0  0.00000000000E+00  0.00000000000E+00  0.45593999997E+02  0.45594000000E+02  0.51100000000E-03 0. -1.
         11   -1    0    0    0    0 -0.00000000000E+00 -0.00000000000E+00 -0.45593999997E+02  0.45594000000E+02  0.51100000000E-03 0.  1.
    9900012    2    1    2    0    0 -0.22875923385E+02 -0.27930407216E+02  0.18701809264E+02  0.50528767497E+02  0.29999719284E+02 0.  0.
        -12    1    1    2    0    0  0.22875923385E+02  0.27930407216E+02 -0.18701809264E+02  0.40659232503E+02  0.00000000000E+00 0.  1.
         11    1    3    3    0    0 -0.39588649846E+01  0.18650857545E+01 -0.35234789147E+01  0.56183681582E+01  0.51100000000E-03 0. -1.
        -11    1    3    3    0    0 -0.16409787652E+02 -0.19234513569E+02  0.22793485501E+02  0.34041013859E+02  0.51100000000E-03 0.  1.
        -12    1    3    3    0    0 -0.25072707477E+01 -0.10560979401E+02 -0.56819732164E+00  0.10869385480E+02  0.00000000000E+00 0.  1.
</event>
<event>
 7    1  0.5525118E-011  0.5052886E+02  0.7816164E-02  0.1300439E+00
        -11   -1    0    0    0    0  0.00000000000E+00  0.00000000000E+00  0.45593999997E+02  0.45594000000E+02  0.51100000000E-03 0.  1.
         11   -1    0    0    0    0 -0.00000000000E+00 -0.00000000000E+00 -0.45593999997E+02  0.45594000000E+02  0.51100000000E-03 0. -1.
    9900012    2    1    2    0    0  0.19708537685E+02 -0.15010801899E+02 -0.32239961502E+02  0.50528858974E+02  0.29999997337E+02 0.  0.
        -12    1    1    2    0    0 -0.19708537685E+02  0.15010801899E+02  0.32239961502E+02  0.40659141026E+02  0.00000000000E+00 0.  1.
         11    1    3    3    0    0  0.49698782385E+01  0.22921993075E+01  0.23115112453E+01  0.59411237884E+01  0.51100000000E-03 0. -1.
        -11    1    3    3    0    0 -0.12044716628E+01 -0.10872190268E+02 -0.14778997803E+02  0.18386790082E+02  0.51100000000E-03 0.  1.
         12    1    3    3    0    0  0.15943131109E+02 -0.64308109390E+01 -0.19772474944E+02  0.26200945103E+02  0.00000000000E+00 0. -1.
</event>
<event>
 7    1  0.5525118E-011  0.5052886E+02  0.7816164E-02  0.1300439E+00
        -11   -1    0    0    0    0  0.00000000000E+00  0.00000000000E+00  0.45593999997E+02  0.45594000000E+02  0.51100000000E-03 0.  1.
         11   -1    0    0    0    0 -0.00000000000E+00 -0.00000000000E+00 -0.45593999997E+02  0.45594000000E+02  0.51100000000E-03 0. -1.
    9900012    2    1    2    0    0  0.11163270583E+02  0.37797182470E+02 -0.99960023970E+01  0.50528859863E+02  0.30000000040E+02 0.  0.
        -12    1    1    2    0    0 -0.11163270583E+02 -0.37797182470E+02  0.99960023970E+01  0.40659140137E+02  0.00000000000E+00 0.  1.
         11    1    3    3    0    0  0.93205294647E+01  0.12485913022E+02  0.29303765524E+01  0.15854254965E+02  0.51100000000E-03 0. -1.
        -11    1    3    3    0    0  0.36873285733E+01  0.70631903430E+01 -0.14207120876E+02  0.16288871468E+02  0.51100000000E-03 0.  1.
        -12    1    3    3    0    0 -0.18445874554E+01  0.18248079105E+02  0.12807419271E+01  0.18385733431E+02  0.00000000000E+00 0.  1.
</event>
<event>
 7    1  0.5525118E-011  0.5052887E+02  0.7816164E-02  0.1300439E+00
        -11   -1    0    0    0    0  0.00000000000E+00  0.00000000000E+00  0.45593999997E+02  0.45594000000E+02  0.51100000000E-03 0.  1.
         11   -1    0    0    0    0 -0.00000000000E+00 -0.00000000000E+00 -0.45593999997E+02  0.45594000000E+02  0.51100000000E-03 0. -1.
    9900012    2    1    2    0    0  0.15680101949E+02 -0.12571761141E+02 -0.35344735846E+02  0.50528866619E+02  0.30000020575E+02 0.  0.
        -12    1    1    2    0    0 -0.15680101949E+02  0.12571761141E+02  0.35344735846E+02  0.40659133381E+02  0.00000000000E+00 0.  1.
         11    1    3    3    0    0  0.85294957261E+01 -0.96266139962E+01 -0.99736196811E+01  0.16275659255E+02  0.51100000000E-03 0. -1.
        -11    1    3    3    0    0  0.34144302764E+01  0.77174767297E+01 -0.25954356832E+01  0.88291600865E+01  0.51100000000E-03 0.  1.
        -12    1    3    3    0    0  0.37361759461E+01 -0.10662623874E+02 -0.22775680481E+02  0.25424047278E+02  0.00000000000E+00 0.  1.
</event>
<event>
 7    1  0.5525118E-011  0.5052887E+02  0.7816164E-02  0.1300439E+00
        -11   -1    0    0    0    0  0.00000000000E+00  0.00000000000E+00  0.45593999997E+02  0.45594000000E+02  0.51100000000E-03 0.  1.
         11   -1    0    0    0    0 -0.00000000000E+00 -0.00000000000E+00 -0.45593999997E+02  0.45594000000E+02  0.51100000000E-03 0. -1.
    9900012    2    1    2    0    0  0.13921545302E+02 -0.60543504842E+01 -0.37718704345E+02  0.50528865222E+02  0.30000016330E+02 0.  0.
        -12    1    1    2    0    0 -0.13921545302E+02  0.60543504842E+01  0.37718704345E+02  0.40659134778E+02  0.00000000000E+00 0.  1.
         11    1    3    3    0    0  0.13381837708E+02 -0.10516994800E+02 -0.12234735088E+02  0.20961142694E+02  0.51100000000E-03 0. -1.
        -11    1    3    3    0    0  0.26373932800E+01  0.87506077433E+01 -0.21457386729E+02  0.23322701916E+02  0.51100000000E-03 0.  1.
         12    1    3    3    0    0 -0.20976856863E+01 -0.42879634274E+01 -0.40265825284E+01  0.62450206126E+01  0.00000000000E+00 0. -1.
</event>
<event>
 7    1  0.5525118E-011  0.5052886E+02  0.7816164E-02  0.1300439E+00
        -11   -1    0    0    0    0  0.00000000000E+00  0.00000000000E+00  0.45593999997E+02  0.45594000000E+02  0.51100000000E-03 0.  1.
         11   -1    0    0    0    0 -0.00000000000E+00 -0.00000000000E+00 -0.45593999997E+02  0.45594000000E+02  0.51100000000E-03 0. -1.
    9900012    2    1    2    0    0 -0.35848284440E+02 -0.17954419246E+02 -0.67605455207E+01  0.50528860271E+02  0.30000001281E+02 0.  0.
        -12    1    1    2    0    0  0.35848284440E+02  0.17954419246E+02  0.67605455207E+01  0.40659139729E+02  0.00000000000E+00 0.  1.
         11    1    3    3    0    0 -0.18593332871E+02 -0.30950395539E+01  0.13671923214E+01  0.18898690753E+02  0.51100000000E-03 0. -1.
        -11    1    3    3    0    0  0.23353041468E+01 -0.93310903558E+01  0.24032835287E+00  0.96218839457E+01  0.51100000000E-03 0.  1.
        -12    1    3    3    0    0 -0.19590255716E+02 -0.55282893361E+01 -0.83680661950E+01  0.22008285572E+02  0.00000000000E+00 0.  1.
</event>
<event>
 7    1  0.5525118E-011  0.5052885E+02  0.7816164E-02  0.1300439E+00
        -11   -1    0    0    0    0  0.00000000000E+00  0.00000000000E+00  0.45593999997E+02  0.45594000000E+02  0.51100000000E-03 0.  1.
         11   -1    0    0    0    0 -0.00000000000E+00 -0.00000000000E+00 -0.45593999997E+02  0.45594000000E+02  0.51100000000E-03 0. -1.
    9900012    2    1    2    0    0 -0.80897590006E+01 -0.23810011823E+02 -0.31950046022E+02  0.50528852142E+02  0.29999976572E+02 0.  0.
        -12    1    1    2    0    0  0.80897590006E+01  0.23810011823E+02  0.31950046022E+02  0.40659147858E+02  0.00000000000E+00 0.  1.
         11    1    3    3    0    0 -0.81066129262E+01 -0.17874444025E+02 -0.27211496083E+02  0.33551131749E+02  0.51100000000E-03 0. -1.
        -11    1    3    3    0    0 -0.12491633856E+00 -0.38107820752E+01  0.54041885203E+01  0.66138429026E+01  0.51100000000E-03 0.  1.
        -12    1    3    3    0    0  0.14177026418E+00 -0.21247857235E+01 -0.10142738460E+02  0.10363877491E+02  0.00000000000E+00 0.  1.
</event>
<event>
 7    1  0.5525118E-011  0.5052886E+02  0.7816164E-02  0.1300439E+00
        -11   -1    0    0    0    0  0.00000000000E+00  0.00000000000E+00  0.45593999997E+02  0.45594000000E+02  0.51100000000E-03 0. -1.
         11   -1    0    0    0    0 -0.00000000000E+00 -0.00000000000E+00 -0.45593999997E+02  0.45594000000E+02  0.51100000000E-03 0.  1.
    9900012    2    1    2    0    0 -0.38680377006E+02  0.10557605350E+02 -0.67476972132E+01  0.50528855718E+02  0.29999987439E+02 0.  0.
        -12    1    1    2    0    0  0.38680377006E+02 -0.10557605350E+02  0.67476972132E+01  0.40659144282E+02  0.00000000000E+00 0.  1.
         11    1    3    3    0    0 -0.28429195977E+02  0.68702595020E+01  0.71044540329E+01  0.30098055035E+02  0.51100000000E-03 0. -1.
        -11    1    3    3    0    0 -0.20430279627E+01  0.51217735977E+01 -0.18431133892E+01  0.58140859358E+01  0.51100000000E-03 0.  1.
         12    1    3    3    0    0 -0.82081530663E+01 -0.14344277492E+01 -0.12009037857E+02  0.14616714746E+02  0.00000000000E+00 0. -1.
</event>
<event>
 7    1  0.5525118E-011  0.5052886E+02  0.7816164E-02  0.1300439E+00
        -11   -1    0    0    0    0  0.00000000000E+00  0.00000000000E+00  0.45593999997E+02  0.45594000000E+02  0.51100000000E-03 0.  1.
         11   -1    0    0    0    0 -0.00000000000E+00 -0.00000000000E+00 -0.45593999997E+02  0.45594000000E+02  0.51100000000E-03 0. -1.
    9900012    2    1    2    0    0 -0.24191896396E+02 -0.31557483882E+02 -0.84878388284E+01  0.50528855295E+02  0.29999986153E+02 0.  0.
        -12    1    1    2    0    0  0.24191896396E+02  0.31557483882E+02  0.84878388284E+01  0.40659144705E+02  0.00000000000E+00 0.  1.
         11    1    3    3    0    0  0.26943058234E+01 -0.41360475874E+01 -0.57326526034E+01  0.75650168306E+01  0.51100000000E-03 0.  1.
        -11    1    3    3    0    0 -0.27630659051E+02 -0.23354539354E+02  0.25144857788E+01  0.36265830572E+02  0.51100000000E-03 0. -1.
         12    1    3    3    0    0  0.74445683175E+00 -0.40668969403E+01 -0.52696720038E+01  0.66980078923E+01  0.00000000000E+00 0. -1.
</event>
<event>
 7    1  0.5525118E-011  0.5052886E+02  0.7816164E-02  0.1300439E+00
        -11   -1    0    0    0    0  0.00000000000E+00  0.00000000000E+00  0.45593999997E+02  0.45594000000E+02  0.51100000000E-03 0. -1.
         11   -1    0    0    0    0 -0.00000000000E+00 -0.00000000000E+00 -0.45593999997E+02  0.45594000000E+02  0.51100000000E-03 0.  1.
    9900012    2    1    2    0    0 -0.20135228411E+02 -0.30589288982E+02  0.17664484082E+02  0.50528855623E+02  0.29999987152E+02 0.  0.
        -12    1    1    2    0    0  0.20135228411E+02  0.30589288982E+02 -0.17664484082E+02  0.40659144377E+02  0.00000000000E+00 0.  1.
         11    1    3    3    0    0 -0.90653343609E+01 -0.19458758440E+02  0.81269034457E+01  0.22953651713E+02  0.51100000000E-03 0. -1.
        -11    1    3    3    0    0 -0.70233917951E+01  0.48953768062E+01  0.65479105923E+01  0.10778120419E+02  0.51100000000E-03 0.  1.
        -12    1    3    3    0    0 -0.40465022548E+01 -0.16025907348E+02  0.29896700440E+01  0.16797083491E+02  0.00000000000E+00 0.  1.
</event>
<event>
 7    1  0.5525118E-011  0.5052886E+02  0.7816164E-02  0.1300439E+00
        -11   -1    0    0    0    0  0.00000000000E+00  0.00000000000E+00  0.45593999997E+02  0.45594000000E+02  0.51100000000E-03 0.  1.
         11   -1    0    0    0    0 -0.00000000000E+00 -0.00000000000E+00 -0.45593999997E+02  0.45594000000E+02  0.51100000000E-03 0. -1.
    9900012    2    1    2    0    0 -0.68254299885E+01  0.66726986655E+00 -0.40076603194E+02  0.50528857521E+02  0.29999992920E+02 0.  0.
        -12    1    1    2    0    0  0.68254299885E+01 -0.66726986655E+00  0.40076603194E+02  0.40659142479E+02  0.00000000000E+00 0.  1.
         11    1    3    3    0    0 -0.10024104320E+02  0.22997295597E+00 -0.25110889919E+02  0.27038719418E+02  0.51100000000E-03 0. -1.
        -11    1    3    3    0    0  0.73553907435E+01  0.54027161681E+01 -0.25318891467E+01  0.94710916950E+01  0.51100000000E-03 0.  1.
         12    1    3    3    0    0 -0.41567164117E+01 -0.49654192575E+01 -0.12433824128E+02  0.14019046408E+02  0.00000000000E+00 0. -1.
</event>
<event>
 7    1  0.5525118E-011  0.5052887E+02  0.7816164E-02  0.1300439E+00
        -11   -1    0    0    0    0  0.00000000000E+00  0.00000000000E+00  0.45593999997E+02  0.45594000000E+02  0.51100000000E-03 0.  1.
         11   -1    0    0    0    0 -0.00000000000E+00 -0.00000000000E+00 -0.45593999997E+02  0.45594000000E+02  0.51100000000E-03 0. -1.
    9900012    2    1    2    0    0  0.65826348182E+01  0.28208876593E+02 -0.28532320418E+02  0.50528866854E+02  0.30000021288E+02 0.  0.
        -12    1    1    2    0    0 -0.65826348182E+01 -0.28208876593E+02  0.28532320418E+02  0.40659133146E+02  0.00000000000E+00 0.  1.
         11    1    3    3    0    0  0.58823467353E+01  0.17434721264E+02 -0.12065465293E+02  0.22003339785E+02  0.51100000000E-03 0. -1.
        -11    1    3    3    0    0 -0.72886006901E+01 -0.30611093949E+00 -0.21876945412E+00  0.72983055747E+01  0.51100000000E-03 0.  1.
         12    1    3    3    0    0  0.79888887730E+01  0.11080266268E+02 -0.16248085671E+02  0.21227221494E+02  0.00000000000E+00 0. -1.
</event>
<event>
 7    1  0.5525118E-011  0.5052886E+02  0.7816164E-02  0.1300439E+00
        -11   -1    0    0    0    0  0.00000000000E+00  0.00000000000E+00  0.45593999997E+02  0.45594000000E+02  0.51100000000E-03 0. -1.
         11   -1    0    0    0    0 -0.00000000000E+00 -0.00000000000E+00 -0.45593999997E+02  0.45594000000E+02  0.51100000000E-03 0.  1.
    9900012    2    1    2    0    0  0.71914842738E+01 -0.30200316630E+02  0.26256214022E+02  0.50528863937E+02  0.30000012422E+02 0.  0.
        -12    1    1    2    0    0 -0.71914842738E+01  0.30200316630E+02 -0.26256214022E+02  0.40659136063E+02  0.00000000000E+00 0.  1.
         11    1    3    3    0    0  0.16819182249E+01 -0.92056034322E+01  0.92119941436E+01  0.13131367782E+02  0.51100000000E-03 0. -1.
        -11    1    3    3    0    0  0.32562760814E+01  0.34008564019E+01  0.11288468787E+02  0.12231054165E+02  0.51100000000E-03 0.  1.
        -12    1    3    3    0    0  0.22532899675E+01 -0.24395569600E+02  0.57557510922E+01  0.25166441989E+02  0.00000000000E+00 0.  1.
</event>
<event>
 7    1  0.5525118E-011  0.5052884E+02  0.7816164E-02  0.1300439E+00
        -11   -1    0    0    0    0  0.00000000000E+00  0.00000000000E+00  0.45593999997E+02  0.45594000000E+02  0.51100000000E-03 0. -1.
         11   -1    0    0    0    0 -0.00000000000E+00 -0.00000000000E+00 -0.45593999997E+02  0.45594000000E+02  0.51100000000E-03 0.  1.
    9900012    2    1    2    0    0 -0.38113369841E+02 -0.12635385351E+02  0.63941961204E+01  0.50528835380E+02  0.29999925620E+02 0.  0.
        -12    1    1    2    0    0  0.38113369841E+02  0.12635385351E+02 -0.63941961204E+01  0.40659164620E+02  0.00000000000E+00 0.  1.
         11    1    3    3    0    0 -0.61892506182E+01  0.26246197280E+01  0.87549552692E+00  0.67795239221E+01  0.51100000000E-03 0. -1.
        -11    1    3    3    0    0 -0.22106110785E+02 -0.20037626873E+02  0.10656752111E+02  0.31682061022E+02  0.51100000000E-03 0.  1.
        -12    1    3    3    0    0 -0.98180084373E+01  0.47776217942E+01 -0.51380515176E+01  0.12067250436E+02  0.00000000000E+00 0.  1.
</event>
<event>
 7    1  0.5525118E-011  0.5052886E+02  0.7816164E-02  0.1300439E+00
        -11   -1    0    0    0    0  0.00000000000E+00  0.00000000000E+00  0.45593999997E+02  0.45594000000E+02  0.51100000000E-03 0.  1.
         11   -1    0    0    0    0 -0.00000000000E+00 -0.00000000000E+00 -0.45593999997E+02  0.45594000000E+02  0.51100000000E-03 0. -1.
    9900012    2    1    2    0    0  0.22001439276E+02  0.31184994335E+02 -0.14021367990E+02  0.50528856351E+02  0.29999989365E+02 0.  0.
        -12    1    1    2    0    0 -0.22001439276E+02 -0.31184994335E+02  0.14021367990E+02  0.40659143649E+02  0.00000000000E+00 0.  1.
         11    1    3    3    0    0  0.20336093944E+01  0.11858083016E+01 -0.25909263351E+01  0.35006582284E+01  0.51100000000E-03 0. -1.
        -11    1    3    3    0    0  0.22317779414E+02  0.32744506486E+02 -0.14590593398E+02  0.42227614176E+02  0.51100000000E-03 0.  1.
        -12    1    3    3    0    0 -0.23499495326E+01 -0.27453204526E+01  0.31601517428E+01  0.48005839468E+01  0.00000000000E+00 0.  1.
</event>
<event>
 7    1  0.5525118E-011  0.5052886E+02  0.7816164E-02  0.1300439E+00
        -11   -1    0    0    0    0  0.00000000000E+00  0.00000000000E+00  0.45593999997E+02  0.45594000000E+02  0.51100000000E-03 0. -1.
         11   -1    0    0    0    0 -0.00000000000E+00 -0.00000000000E+00 -0.45593999997E+02  0.45594000000E+02  0.51100000000E-03 0.  1.
    9900012    2    1    2    0    0 -0.19742153843E+01 -0.29605997162E+02  0.27798443725E+02  0.50528855053E+02  0.29999985418E+02 0.  0.
        -12    1    1    2    0    0  0.19742153843E+01  0.29605997162E+02 -0.27798443725E+02  0.40659144947E+02  0.00000000000E+00 0.  1.
         11    1    3    3    0    0 -0.13514449812E+02 -0.11815658866E+02  0.11241950709E+02  0.21180925479E+02  0.51100000000E-03 0. -1.
        -11    1    3    3    0    0  0.11387962359E+02 -0.16003196505E+02  0.18300803495E+02  0.26845994001E+02  0.51100000000E-03 0.  1.
        -12    1    3    3    0    0  0.15227206831E+00 -0.17871417907E+01 -0.17443104792E+01  0.25019355729E+01  0.00000000000E+00 0.  1.
</event>
<event>
 7    1  0.5525118E-011  0.5052887E+02  0.7816164E-02  0.1300439E+00
        -11   -1    0    0    0    0  0.00000000000E+00  0.00000000000E+00  0.45593999997E+02  0.45594000000E+02  0.51100000000E-03 0. -1.
         11   -1    0    0    0    0 -0.00000000000E+00 -0.00000000000E+00 -0.45593999997E+02  0.45594000000E+02  0.51100000000E-03 0.  1.
    9900012    2    1    2    0    0  0.38964961366E+02  0.14771947406E+01  0.11520185251E+02  0.50528868347E+02  0.30000025828E+02 0.  0.
        -12    1    1    2    0    0 -0.38964961366E+02 -0.14771947406E+01 -0.11520185251E+02  0.40659131653E+02  0.00000000000E+00 0.  1.
         11    1    3    3    0    0  0.22947033435E+02  0.48947082928E+01  0.16954590977E+02  0.28947930292E+02  0.51100000000E-03 0. -1.
        -11    1    3    3    0    0  0.99940976196E+01 -0.84035263346E+01 -0.36918269839E+01  0.13569481524E+02  0.51100000000E-03 0.  1.
         12    1    3    3    0    0  0.60238303111E+01  0.49860127825E+01 -0.17425787414E+01  0.80114565314E+01  0.00000000000E+00 0. -1.
</event>
<event>
 7    1  0.5525118E-011  0.5052886E+02  0.7816164E-02  0.1300439E+00
        -11   -1    0    0    0    0  0.00000000000E+00  0.00000000000E+00  0.45593999997E+02  0.45594000000E+02  0.51100000000E-03 0.  1.
         11   -1    0    0    0    0 -0.00000000000E+00 -0.00000000000E+00 -0.45593999997E+02  0.45594000000E+02  0.51100000000E-03 0. -1.
    9900012    2    1    2    0    0 -0.10814569779E+02 -0.60925741224E+01 -0.38718100997E+02  0.50528859284E+02  0.29999998280E+02 0.  0.
        -12    1    1    2    0    0  0.10814569779E+02  0.60925741224E+01  0.38718100997E+02  0.40659140716E+02  0.00000000000E+00 0.  1.
         11    1    3    3    0    0  0.63618051249E+01  0.31791136228E+01 -0.21480290646E+02  0.22627023984E+02  0.51100000000E-03 0. -1.
        -11    1    3    3    0    0 -0.13713736020E+02 -0.23593259845E+01 -0.88325186595E+01  0.16481697754E+02  0.51100000000E-03 0.  1.
        -12    1    3    3    0    0 -0.34626388833E+01 -0.69123617608E+01 -0.84052916920E+01  0.11420137546E+02  0.00000000000E+00 0.  1.
</event>
<event>
 7    1  0.5525118E-011  0.5052886E+02  0.7816164E-02  0.1300439E+00
        -11   -1    0    0    0    0  0.00000000000E+00  0.00000000000E+00  0.45593999997E+02  0.45594000000E+02  0.51100000000E-03 0. -1.
         11   -1    0    0    0    0 -0.00000000000E+00 -0.00000000000E+00 -0.45593999997E+02  0.45594000000E+02  0.51100000000E-03 0.  1.
    9900012    2    1    2    0    0  0.38289621096E+02  0.38693719885E+01  0.13118636886E+02  0.50528858875E+02  0.29999997038E+02 0.  0.
        -12    1    1    2    0    0 -0.38289621096E+02 -0.38693719885E+01 -0.13118636886E+02  0.40659141125E+02  0.00000000000E+00 0.  1.
         11    1    3    3    0    0  0.80133275824E+01  0.45420325314E+01  0.18620389141E+00  0.92129338763E+01  0.51100000000E-03 0. -1.
        -11    1    3    3    0    0  0.30854896469E+02 -0.65160039806E+01  0.57780289756E+01  0.32060389316E+02  0.51100000000E-03 0.  1.
        -12    1    3    3    0    0 -0.57860295602E+00  0.58433434377E+01  0.71544040187E+01  0.92555356828E+01  0.00000000000E+00 0.  1.
</event>
<event>
 7    1  0.5525118E-011  0.5052885E+02  0.7816164E-02  0.1300439E+00
        -11   -1    0    0    0    0  0.00000000000E+00  0.00000000000E+00  0.45593999997E+02  0.45594000000E+02  0.51100000000E-03 0.  1.
         11   -1    0    0    0    0 -0.00000000000E+00 -0.00000000000E+00 -0.45593999997E+02  0.45594000000E+02  0.51100000000E-03 0. -1.
    9900012    2    1    2    0    0 -0.25201994338E+02  0.27031275934E+01 -0.31791806595E+02  0.50528851165E+02  0.29999973601E+02 0.  0.
        -12    1    1    2    0    0  0.25201994338E+02 -0.27031275934E+01  0.31791806595E+02  0.40659148835E+02  0.00000000000E+00 0.  1.
         11    1    3    3    0    0 -0.78367482306E+01  0.17474273318E+01 -0.33710637316E+01  0.87081683523E+01  0.51100000000E-03 0. -1.
        -11    1    3    3    0    0  0.63248890254E+01  0.91533885403E-01 -0.28071278270E+01  0.69204455444E+01  0.51100000000E-03 0.  1.
        -12    1    3    3    0    0 -0.23690135133E+02  0.86416637620E+00 -0.25613615037E+02  0.34900237268E+02  0.00000000000E+00 0.  1.
</event>
<event>
 7    1  0.5525118E-011  0.5052886E+02  0.7816164E-02  0.1300439E+00
        -11   -1    0    0    0    0  0.00000000000E+00  0.00000000000E+00  0.45593999997E+02  0.45594000000E+02  0.51100000000E-03 0. -1.
         11   -1    0    0    0    0 -0.00000000000E+00 -0.00000000000E+00 -0.45593999997E+02  0.45594000000E+02  0.51100000000E-03 0.  1.
    9900012    2    1    2    0    0 -0.23644130294E+02  0.16342180718E+02  0.28758544923E+02  0.50528859895E+02  0.30000000137E+02 0.  0.
        -12    1    1    2    0    0  0.23644130294E+02 -0.16342180718E+02 -0.28758544923E+02  0.40659140105E+02  0.00000000000E+00 0.  1.
         11    1    3    3    0    0 -0.39234417454E+01  0.10761087764E+02 -0.12943379569E+01  0.11526912683E+02  0.51100000000E-03 0. -1.
        -11    1    3    3    0    0 -0.12564948639E+02 -0.33586903111E+01  0.12464979778E+02  0.18014839884E+02  0.51100000000E-03 0.  1.
        -12    1    3    3    0    0 -0.71557399092E+01  0.89397832652E+01  0.17587903101E+02  0.20987107328E+02  0.00000000000E+00 0.  1.
</event>
<event>
 7    1  0.5525118E-011  0.5052886E+02  0.7816164E-02  0.1300439E+00
        -11   -1    0    0    0    0  0.00000000000E+00  0.00000000000E+00  0.45593999997E+02  0.45594000000E+02  0.51100000000E-03 0. -1.
         11   -1    0    0    0    0 -0.00000000000E+00 -0.00000000000E+00 -0.45593999997E+02  0.45594000000E+02  0.51100000000E-03 0.  1.
    9900012    2    1    2    0    0 -0.19051499796E+02  0.27170882584E+02  0.23493596672E+02  0.50528860936E+02  0.30000003300E+02 0.  0.
        -12    1    1    2    0    0  0.19051499796E+02 -0.27170882584E+02 -0.23493596672E+02  0.40659139064E+02  0.00000000000E+00 0.  1.
         11    1    3    3    0    0 -0.95661663016E+01  0.62102007527E+01  0.15724575603E+02  0.19425251846E+02  0.51100000000E-03 0. -1.
        -11    1    3    3    0    0  0.14946990644E+01  0.18830511122E+02  0.56820074055E+01  0.19725807533E+02  0.51100000000E-03 0.  1.
         12    1    3    3    0    0 -0.10980032559E+02  0.21301707099E+01  0.20870136628E+01  0.11377801557E+02  0.00000000000E+00 0. -1.
</event>
<event>
 7    1  0.5525118E-011  0.5052883E+02  0.7816164E-02  0.1300439E+00
        -11   -1    0    0    0    0  0.00000000000E+00  0.00000000000E+00  0.45593999997E+02  0.45594000000E+02  0.51100000000E-03 0.  1.
         11   -1    0    0    0    0 -0.00000000000E+00 -0.00000000000E+00 -0.45593999997E+02  0.45594000000E+02  0.51100000000E-03 0. -1.
    9900012    2    1    2    0    0  0.30558027640E+02  0.25421208093E+02  0.85520536430E+01  0.50528825197E+02  0.29999894669E+02 0.  0.
        -12    1    1    2    0    0 -0.30558027640E+02 -0.25421208093E+02 -0.85520536430E+01  0.40659174803E+02  0.00000000000E+00 0.  1.
         11    1    3    3    0    0  0.27389280315E+02  0.11801572761E+02  0.15559531128E+02  0.33638501824E+02  0.51100000000E-03 0. -1.
        -11    1    3    3    0    0  0.26607757692E+01  0.30905405106E+01 -0.44642196136E+01  0.60465217573E+01  0.51100000000E-03 0.  1.
         12    1    3    3    0    0  0.50797155560E+00  0.10529094822E+02 -0.25432578717E+01  0.10843801616E+02  0.00000000000E+00 0. -1.
</event>
<event>
 7    1  0.5525118E-011  0.5052886E+02  0.7816164E-02  0.1300439E+00
        -11   -1    0    0    0    0  0.00000000000E+00  0.00000000000E+00  0.45593999997E+02  0.45594000000E+02  0.51100000000E-03 0.  1.
         11   -1    0    0    0    0 -0.00000000000E+00 -0.00000000000E+00 -0.45593999997E+02  0.45594000000E+02  0.51100000000E-03 0. -1.
    9900012    2    1    2    0    0 -0.16717744010E+02 -0.16229049895E+01 -0.37027672830E+02  0.50528863995E+02  0.30000012601E+02 0.  0.
        -12    1    1    2    0    0  0.16717744010E+02  0.16229049895E+01  0.37027672830E+02  0.40659136005E+02  0.00000000000E+00 0.  1.
         11    1    3    3    0    0 -0.14980769764E+02  0.52822080567E+01 -0.21166725261E+02  0.26464229503E+02  0.51100000000E-03 0. -1.
        -11    1    3    3    0    0  0.62503474468E+01  0.15520526095E+01 -0.62646771797E+01  0.89845362115E+01  0.51100000000E-03 0.  1.
         12    1    3    3    0    0 -0.79873216935E+01 -0.84571656557E+01 -0.95962703899E+01  0.15080098281E+02  0.00000000000E+00 0. -1.
</event>
<event>
 7    1  0.5525118E-011  0.5052886E+02  0.7816164E-02  0.1300439E+00
        -11   -1    0    0    0    0  0.00000000000E+00  0.00000000000E+00  0.45593999997E+02  0.45594000000E+02  0.51100000000E-03 0.  1.
         11   -1    0    0    0    0 -0.00000000000E+00 -0.00000000000E+00 -0.45593999997E+02  0.45594000000E+02  0.51100000000E-03 0. -1.
    9900012    2    1    2    0    0 -0.32535723950E+02 -0.18193352113E+02 -0.16235598335E+02  0.50528855304E+02  0.29999986183E+02 0.  0.
        -12    1    1    2    0    0  0.32535723950E+02  0.18193352113E+02  0.16235598335E+02  0.40659144696E+02  0.00000000000E+00 0.  1.
         11    1    3    3    0    0 -0.24974082552E+02 -0.59065846199E+01 -0.10941580996E+02  0.27898221021E+02  0.51100000000E-03 0. -1.
        -11    1    3    3    0    0 -0.70016361021E+01 -0.15671616067E+02 -0.10826877325E+01  0.17198682253E+02  0.51100000000E-03 0.  1.
         12    1    3    3    0    0 -0.56000529642E+00  0.33848485742E+01 -0.42113296066E+01  0.54319520301E+01  0.00000000000E+00 0. -1.
</event>
<event>
 7    1  0.5525118E-011  0.5052886E+02  0.7816164E-02  0.1300439E+00
        -11   -1    0    0    0    0  0.00000000000E+00  0.00000000000E+00  0.45593999997E+02  0.45594000000E+02  0.51100000000E-03 0.  1.
         11   -1    0    0    0    0 -0.00000000000E+00 -0.00000000000E+00 -0.45593999997E+02  0.45594000000E+02  0.51100000000E-03 0. -1.
    9900012    2    1    2    0    0  0.26417597902E+02 -0.27948321256E+02 -0.13197240643E+02  0.50528864489E+02  0.30000014099E+02 0.  0.
        -12    1    1    2    0    0 -0.26417597902E+02  0.27948321256E+02  0.13197240643E+02  0.40659135511E+02  0.00000000000E+00 0.  1.
         11    1    3    3    0    0  0.25150291036E+02 -0.16134885699E+02 -0.12407434186E+02  0.32354537534E+02  0.51100000000E-03 0. -1.
        -11    1    3    3    0    0 -0.37096379708E+01 -0.38525220866E+01 -0.54989939083E+01  0.76708718258E+01  0.51100000000E-03 0.  1.
         12    1    3    3    0    0  0.49769448377E+01 -0.79609134702E+01  0.47091874511E+01  0.10503455129E+02  0.00000000000E+00 0. -1.
</event>
<event>
 7    1  0.5525118E-011  0.5052883E+02  0.7816164E-02  0.1300439E+00
        -11   -1    0    0    0    0  0.00000000000E+00  0.00000000000E+00  0.45593999997E+02  0.45594000000E+02  0.51100000000E-03 0. -1.
         11   -1    0    0    0    0 -0.00000000000E+00 -0.00000000000E+00 -0.45593999997E+02  0.45594000000E+02  0.51100000000E-03 0.  1.
    9900012    2    1    2    0    0  0.19937777174E+02  0.30435416097E+02  0.18147681976E+02  0.50528832858E+02  0.29999917954E+02 0.  0.
        -12    1    1    2    0    0 -0.19937777174E+02 -0.30435416097E+02 -0.18147681976E+02  0.40659167142E+02  0.00000000000E+00 0.  1.
         11    1    3    3    0    0  0.81630264238E+00  0.20549771417E+01  0.12472029074E+02  0.12666522433E+02  0.51100000000E-03 0. -1.
        -11    1    3    3    0    0  0.16977193647E+02  0.30185098066E+02  0.52590955348E+01  0.35028892867E+02  0.51100000000E-03 0.  1.
         12    1    3    3    0    0  0.21442808838E+01 -0.18046591113E+01  0.41655736750E+00  0.28334175578E+01  0.00000000000E+00 0. -1.
</event>
<event>
 7    1  0.5525118E-011  0.5052885E+02  0.7816164E-02  0.1300439E+00
        -11   -1    0    0    0    0  0.00000000000E+00  0.00000000000E+00  0.45593999997E+02  0.45594000000E+02  0.51100000000E-03 0.  1.
         11   -1    0    0    0    0 -0.00000000000E+00 -0.00000000000E+00 -0.45593999997E+02  0.45594000000E+02  0.51100000000E-03 0. -1.
    9900012    2    1    2    0    0 -0.19584795795E+01  0.83817353471E+01 -0.39737603169E+02  0.50528852994E+02  0.29999979159E+02 0.  0.
        -12    1    1    2    0    0  0.19584795795E+01 -0.83817353471E+01  0.39737603169E+02  0.40659147006E+02  0.00000000000E+00 0.  1.
         11    1    3    3    0    0 -0.27488323964E+01  0.30087271548E+01 -0.12221657772E+02  0.12883223106E+02  0.51100000000E-03 0. -1.
        -11    1    3    3    0    0  0.36878333314E+01  0.13826166171E+02 -0.85227713668E+01  0.16655348021E+02  0.51100000000E-03 0.  1.
        -12    1    3    3    0    0 -0.28974805145E+01 -0.84531579782E+01 -0.18993174030E+02  0.20990281867E+02  0.00000000000E+00 0.  1.
</event>
<event>
 7    1  0.5525118E-011  0.5052885E+02  0.7816164E-02  0.1300439E+00
        -11   -1    0    0    0    0  0.00000000000E+00  0.00000000000E+00  0.45593999997E+02  0.45594000000E+02  0.51100000000E-03 0.  1.
         11   -1    0    0    0    0 -0.00000000000E+00 -0.00000000000E+00 -0.45593999997E+02  0.45594000000E+02  0.51100000000E-03 0. -1.
    9900012    2    1    2    0    0  0.20398586759E+02 -0.11672221366E+02 -0.33178658283E+02  0.50528850245E+02  0.29999970803E+02 0.  0.
        -12    1    1    2    0    0 -0.20398586759E+02  0.11672221366E+02  0.33178658283E+02  0.40659149755E+02  0.00000000000E+00 0.  1.
         11    1    3    3    0    0  0.87700312342E+01 -0.44498450798E+01 -0.19722895717E+02  0.22038765501E+02  0.51100000000E-03 0. -1.
        -11    1    3    3    0    0  0.75575992044E+01 -0.13932870053E+02 -0.42858135356E+01  0.16419816429E+02  0.51100000000E-03 0.  1.
        -12    1    3    3    0    0  0.40709563209E+01  0.67104937669E+01 -0.91699490303E+01  0.12070268314E+02  0.00000000000E+00 0.  1.
</event>
<event>
 7    1  0.5525118E-011  0.5052886E+02  0.7816164E-02  0.1300439E+00
        -11   -1    0    0    0    0  0.00000000000E+00  0.00000000000E+00  0.45593999997E+02  0.45594000000E+02  0.51100000000E-03 0. -1.
         11   -1    0    0    0    0 -0.00000000000E+00 -0.00000000000E+00 -0.45593999997E+02  0.45594000000E+02  0.51100000000E-03 0.  1.
    9900012    2    1    2    0    0 -0.21652269073E+02  0.32776858800E+02  0.10489147572E+02  0.50528862704E+02  0.30000008675E+02 0.  0.
        -12    1    1    2    0    0  0.21652269073E+02 -0.32776858800E+02 -0.10489147572E+02  0.40659137296E+02  0.00000000000E+00 0.  1.
         11    1    3    3    0    0  0.14396787655E+01  0.19202105011E+02  0.80407104374E+01  0.20867355760E+02  0.51100000000E-03 0. -1.
        -11    1    3    3    0    0 -0.15611415751E+02  0.74173516007E+01  0.73756531176E+01  0.18791851044E+02  0.51100000000E-03 0.  1.
         12    1    3    3    0    0 -0.74805320885E+01  0.61574021884E+01 -0.49272159827E+01  0.10869655900E+02  0.00000000000E+00 0. -1.
</event>
<event>
 7    1  0.5525118E-011  0.5052886E+02  0.7816164E-02  0.1300439E+00
        -11   -1    0    0    0    0  0.00000000000E+00  0.00000000000E+00  0.45593999997E+02  0.45594000000E+02  0.51100000000E-03 0. -1.
         11   -1    0    0    0    0 -0.00000000000E+00 -0.00000000000E+00 -0.45593999997E+02  0.45594000000E+02  0.51100000000E-03 0.  1.
    9900012    2    1    2    0    0 -0.21127658452E+02 -0.20667851562E+02  0.27921810104E+02  0.50528861798E+02  0.30000005921E+02 0.  0.
        -12    1    1    2    0    0  0.21127658452E+02  0.20667851562E+02 -0.27921810104E+02  0.40659138202E+02  0.00000000000E+00 0.  1.
         11    1    3    3    0    0 -0.24941963681E+02 -0.12587205038E+02  0.18285533556E+02  0.33390118607E+02  0.51100000000E-03 0. -1.
        -11    1    3    3    0    0  0.52263123881E-01 -0.59739990125E+01 -0.62652096574E+00  0.60069896302E+01  0.51100000000E-03 0.  1.
         12    1    3    3    0    0  0.37620421044E+01 -0.21066475119E+01  0.10262797513E+02  0.11131753561E+02  0.00000000000E+00 0. -1.
</event>
<event>
 7    1  0.5525118E-011  0.5052886E+02  0.7816164E-02  0.1300439E+00
        -11   -1    0    0    0    0  0.00000000000E+00  0.00000000000E+00  0.45593999997E+02  0.45594000000E+02  0.51100000000E-03 0.  1.
         11   -1    0    0    0    0 -0.00000000000E+00 -0.00000000000E+00 -0.45593999997E+02  0.45594000000E+02  0.51100000000E-03 0. -1.
    9900012    2    1    2    0    0 -0.25517388011E+01  0.39793561234E+02 -0.79452493658E+01  0.50528857436E+02  0.29999992662E+02 0.  0.
        -12    1    1    2    0    0  0.25517388011E+01 -0.39793561234E+02  0.79452493658E+01  0.40659142564E+02  0.00000000000E+00 0.  1.
         11    1    3    3    0    0  0.74462764747E+01  0.32200978195E+02  0.31799568292E+01  0.33203345550E+02  0.51100000000E-03 0. -1.
        -11    1    3    3    0    0 -0.70418193243E+01  0.38988647564E+01 -0.91830908653E+01  0.12211368633E+02  0.51100000000E-03 0.  1.
         12    1    3    3    0    0 -0.29561959515E+01  0.36937182828E+01 -0.19421153297E+01  0.51141432528E+01  0.00000000000E+00 0. -1.
</event>
<event>
 7    1  0.5525118E-011  0.5052886E+02  0.7816164E-02  0.1300439E+00
        -11   -1    0    0    0    0  0.00000000000E+00  0.00000000000E+00  0.45593999997E+02  0.45594000000E+02  0.51100000000E-03 0.  1.
         11   -1    0    0    0    0 -0.00000000000E+00 -0.00000000000E+00 -0.45593999997E+02  0.45594000000E+02  0.51100000000E-03 0. -1.
    9900012    2    1    2    0    0 -0.29579383830E+02  0.27749590364E+02 -0.28611598742E+01  0.50528856515E+02  0.29999989863E+02 0.  0.
        -12    1    1    2    0    0  0.29579383830E+02 -0.27749590364E+02  0.28611598742E+01  0.40659143485E+02  0.00000000000E+00 0.  1.
         11    1    3    3    0    0 -0.15795446641E+02  0.24372418474E+02 -0.11701935732E+01  0.29066824218E+02  0.51100000000E-03 0. -1.
        -11    1    3    3    0    0 -0.23564166781E+01 -0.13689506265E+01  0.62093990281E+01  0.67811032974E+01  0.51100000000E-03 0.  1.
         12    1    3    3    0    0 -0.11427520510E+02  0.47461225166E+01 -0.79003653291E+01  0.14680928999E+02  0.00000000000E+00 0. -1.
</event>
<event>
 7    1  0.5525118E-011  0.5052886E+02  0.7816164E-02  0.1300439E+00
        -11   -1    0    0    0    0  0.00000000000E+00  0.00000000000E+00  0.45593999997E+02  0.45594000000E+02  0.51100000000E-03 0.  1.
         11   -1    0    0    0    0 -0.00000000000E+00 -0.00000000000E+00 -0.45593999997E+02  0.45594000000E+02  0.51100000000E-03 0. -1.
    9900012    2    1    2    0    0 -0.14272814630E+02  0.22534642988E+02 -0.30686192424E+02  0.50528858622E+02  0.29999996268E+02 0.  0.
        -12    1    1    2    0    0  0.14272814630E+02 -0.22534642988E+02  0.30686192424E+02  0.40659141378E+02  0.00000000000E+00 0.  1.
         11    1    3    3    0    0 -0.93352319825E+01 -0.18960373427E+01 -0.54264124342E+01  0.10963004421E+02  0.51100000000E-03 0. -1.
        -11    1    3    3    0    0 -0.10398146162E+02  0.17310261311E+02 -0.11796829769E+02  0.23386572710E+02  0.51100000000E-03 0.  1.
        -12    1    3    3    0    0  0.54605635140E+01  0.71204190199E+01 -0.13462950221E+02  0.16179281491E+02  0.00000000000E+00 0.  1.
</event>
<event>
 7    1  0.5525118E-011  0.5052883E+02  0.7816164E-02  0.1300439E+00
        -11   -1    0    0    0    0  0.00000000000E+00  0.00000000000E+00  0.45593999997E+02  0.45594000000E+02  0.51100000000E-03 0.  1.
         11   -1    0    0    0    0 -0.00000000000E+00 -0.00000000000E+00 -0.45593999997E+02  0.45594000000E+02  0.51100000000E-03 0. -1.
    9900012    2    1    2    0    0 -0.11073926249E+02 -0.17377811024E+02 -0.35050648357E+02  0.50528829954E+02  0.29999909129E+02 0.  0.
        -12    1    1    2    0    0  0.11073926249E+02  0.17377811024E+02  0.35050648357E+02  0.40659170046E+02  0.00000000000E+00 0.  1.
         11    1    3    3    0    0 -0.13605918988E+02 -0.21421446806E+02 -0.32775105360E+02  0.41451259889E+02  0.51100000000E-03 0. -1.
        -11    1    3    3    0    0  0.31389845311E+00 -0.57539804371E+00  0.21867722288E+01  0.22828903148E+01  0.51100000000E-03 0.  1.
         12    1    3    3    0    0  0.22180942857E+01  0.46190338254E+01 -0.44623152254E+01  0.67946797505E+01  0.00000000000E+00 0. -1.
</event>
<event>
 7    1  0.5525118E-011  0.5052882E+02  0.7816164E-02  0.1300439E+00
        -11   -1    0    0    0    0  0.00000000000E+00  0.00000000000E+00  0.45593999997E+02  0.45594000000E+02  0.51100000000E-03 0. -1.
         11   -1    0    0    0    0 -0.00000000000E+00 -0.00000000000E+00 -0.45593999997E+02  0.45594000000E+02  0.51100000000E-03 0.  1.
    9900012    2    1    2    0    0 -0.15279816170E+02 -0.35629619952E+02  0.12256699793E+02  0.50528815429E+02  0.29999864979E+02 0.  0.
        -12    1    1    2    0    0  0.15279816170E+02  0.35629619952E+02 -0.12256699793E+02  0.40659184571E+02  0.00000000000E+00 0.  1.
         11    1    3    3    0    0 -0.19241443635E+02 -0.20268441408E+02  0.10442435787E+02  0.29834331494E+02  0.51100000000E-03 0. -1.
        -11    1    3    3    0    0  0.79259494816E+01 -0.50045992832E+01  0.20807755836E+01  0.96018912961E+01  0.51100000000E-03 0.  1.
        -12    1    3    3    0    0 -0.39643220173E+01 -0.10356579261E+02 -0.26651157817E+00  0.11092592639E+02  0.00000000000E+00 0.  1.
</event>
<event>
 7    1  0.5525118E-011  0.5052887E+02  0.7816164E-02  0.1300439E+00
        -11   -1    0    0    0    0  0.00000000000E+00  0.00000000000E+00  0.45593999997E+02  0.45594000000E+02  0.51100000000E-03 0. -1.
         11   -1    0    0    0    0 -0.00000000000E+00 -0.00000000000E+00 -0.45593999997E+02  0.45594000000E+02  0.51100000000E-03 0.  1.
    9900012    2    1    2    0    0 -0.11542567463E+02 -0.16299960536E+02  0.35415328536E+02  0.50528867293E+02  0.30000022625E+02 0.  0.
        -12    1    1    2    0    0  0.11542567463E+02  0.16299960536E+02 -0.35415328536E+02  0.40659132707E+02  0.00000000000E+00 0.  1.
         11    1    3    3    0    0 -0.17042819374E+00 -0.14663301601E+02  0.12878473095E+02  0.19516570629E+02  0.51100000000E-03 0. -1.
        -11    1    3    3    0    0  0.39150503619E+01  0.34162078317E+01  0.51552401912E+01  0.73194669871E+01  0.51100000000E-03 0.  1.
        -12    1    3    3    0    0 -0.15287189631E+02 -0.50528667667E+01  0.17381615250E+02  0.23692829677E+02  0.00000000000E+00 0.  1.
</event>
<event>
 7    1  0.5525118E-011  0.5052885E+02  0.7816164E-02  0.1300439E+00
        -11   -1    0    0    0    0  0.00000000000E+00  0.00000000000E+00  0.45593999997E+02  0.45594000000E+02  0.51100000000E-03 0. -1.
         11   -1    0    0    0    0 -0.00000000000E+00 -0.00000000000E+00 -0.45593999997E+02  0.45594000000E+02  0.51100000000E-03 0.  1.
    9900012    2    1    2    0    0  0.18972643050E+02 -0.35340499439E+02 -0.66524060330E+01  0.50528848620E+02  0.29999965865E+02 0.  0.
        -12    1    1    2    0    0 -0.18972643050E+02  0.35340499439E+02  0.66524060330E+01  0.40659151380E+02  0.00000000000E+00 0.  1.
         11    1    3    3    0    0  0.14786677415E+02 -0.85918288403E+01  0.21421375892E+01  0.17235257628E+02  0.51100000000E-03 0. -1.
        -11    1    3    3    0    0 -0.50589418667E+01 -0.35614247252E+01  0.13775042464E+01  0.63383086935E+01  0.51100000000E-03 0.  1.
         12    1    3    3    0    0  0.92449075020E+01 -0.23187245874E+02 -0.10172047869E+02  0.26955282298E+02  0.00000000000E+00 0. -1.
</event>
<event>
 7    1  0.5525118E-011  0.5052885E+02  0.7816164E-02  0.1300439E+00
        -11   -1    0    0    0    0  0.00000000000E+00  0.00000000000E+00  0.45593999997E+02  0.45594000000E+02  0.51100000000E-03 0. -1.
         11   -1    0    0    0    0 -0.00000000000E+00 -0.00000000000E+00 -0.45593999997E+02  0.45594000000E+02  0.51100000000E-03 0.  1.
    9900012    2    1    2    0    0  0.38552095283E+02 -0.12176119755E+02  0.43179667953E+01  0.50528846292E+02  0.29999958788E+02 0.  0.
        -12    1    1    2    0    0 -0.38552095283E+02  0.12176119755E+02 -0.43179667953E+01  0.40659153708E+02  0.00000000000E+00 0.  1.
         11    1    3    3    0    0  0.32092509318E+02 -0.17268930837E+02  0.11006842405E+02  0.38069616580E+02  0.51100000000E-03 0. -1.
        -11    1    3    3    0    0  0.27857630944E+01  0.10294929372E+01 -0.63031116651E+01  0.69677506162E+01  0.51100000000E-03 0.  1.
         12    1    3    3    0    0  0.36738228714E+01  0.40633181444E+01 -0.38576394485E+00  0.54914790953E+01  0.00000000000E+00 0. -1.
</event>
<event>
 7    1  0.5525118E-011  0.5052884E+02  0.7816164E-02  0.1300439E+00
        -11   -1    0    0    0    0  0.00000000000E+00  0.00000000000E+00  0.45593999997E+02  0.45594000000E+02  0.51100000000E-03 0. -1.
         11   -1    0    0    0    0 -0.00000000000E+00 -0.00000000000E+00 -0.45593999997E+02  0.45594000000E+02  0.51100000000E-03 0.  1.
    9900012    2    1    2    0    0 -0.96886175546E+01  0.39355126698E+02 -0.32359870866E+01  0.50528844574E+02  0.29999953568E+02 0.  0.
        -12    1    1    2    0    0  0.96886175546E+01 -0.39355126698E+02  0.32359870866E+01  0.40659155426E+02  0.00000000000E+00 0.  1.
         11    1    3    3    0    0  0.40859224034E+01  0.21563595309E+01 -0.55925954527E+01  0.72540866049E+01  0.51100000000E-03 0. -1.
        -11    1    3    3    0    0 -0.45529451714E+01  0.27385960058E+02 -0.45641882682E+01  0.28134532746E+02  0.51100000000E-03 0.  1.
         12    1    3    3    0    0 -0.92215947866E+01  0.98128071091E+01  0.69207966342E+01  0.15140225224E+02  0.00000000000E+00 0. -1.
</event>
<event>
 7    1  0.5525118E-011  0.5052882E+02  0.7816164E-02  0.1300439E+00
        -11   -1    0    0    0    0  0.00000000000E+00  0.00000000000E+00  0.45593999997E+02  0.45594000000E+02  0.51100000000E-03 0.  1.
         11   -1    0    0    0    0 -0.00000000000E+00 -0.00000000000E+00 -0.45593999997E+02  0.45594000000E+02  0.51100000000E-03 0. -1.
    9900012    2    1    2    0    0 -0.91484707740E+01  0.23682523813E+02 -0.31758659099E+02  0.50528820478E+02  0.29999880323E+02 0.  0.
        -12    1    1    2    0    0  0.91484707740E+01 -0.23682523813E+02  0.31758659099E+02  0.40659179522E+02  0.00000000000E+00 0.  1.
         11    1    3    3    0    0 -0.78223592443E+01  0.63099293965E+01 -0.19418791757E+02  0.21865360429E+02  0.51100000000E-03 0. -1.
        -11    1    3    3    0    0  0.40212396334E+01  0.19431618636E+02 -0.76796680668E+01  0.21277581463E+02  0.51100000000E-03 0.  1.
        -12    1    3    3    0    0 -0.53473511631E+01 -0.20590242198E+01 -0.46601992757E+01  0.73858785860E+01  0.00000000000E+00 0.  1.
</event>
<event>
 7    1  0.5525118E-011  0.5052890E+02  0.7816164E-02  0.1300439E+00
        -11   -1    0    0    0    0  0.00000000000E+00  0.00000000000E+00  0.45593999997E+02  0.45594000000E+02  0.51100000000E-03 0. -1.
         11   -1    0    0    0    0 -0.00000000000E+00 -0.00000000000E+00 -0.45593999997E+02  0.45594000000E+02  0.51100000000E-03 0.  1.
    9900012    2    1    2    0    0  0.11297052477E+02  0.20168417620E+02  0.33448081331E+02  0.50528897591E+02  0.30000114718E+02 0.  0.
        -12    1    1    2    0    0 -0.11297052477E+02 -0.20168417620E+02 -0.33448081331E+02  0.40659102409E+02  0.00000000000E+00 0.  1.
         11    1    3    3    0    0 -0.19795870285E+01  0.16772840015E+02  0.77575863074E+01  0.18585668472E+02  0.51100000000E-03 0. -1.
        -11    1    3    3    0    0  0.11892871767E+02  0.65410124370E+01  0.24987202246E+02  0.28435638184E+02  0.51100000000E-03 0.  1.
        -12    1    3    3    0    0  0.13837677387E+01 -0.31454348322E+01  0.70329277740E+00  0.35075909352E+01  0.00000000000E+00 0.  1.
</event>
<event>
 7    1  0.5525118E-011  0.5052886E+02  0.7816164E-02  0.1300439E+00
        -11   -1    0    0    0    0  0.00000000000E+00  0.00000000000E+00  0.45593999997E+02  0.45594000000E+02  0.51100000000E-03 0. -1.
         11   -1    0    0    0    0 -0.00000000000E+00 -0.00000000000E+00 -0.45593999997E+02  0.45594000000E+02  0.51100000000E-03 0.  1.
    9900012    2    1    2    0    0  0.12525039345E+02  0.32547465032E+02 -0.20903388934E+02  0.50528858844E+02  0.29999996942E+02 0.  0.
        -12    1    1    2    0    0 -0.12525039345E+02 -0.32547465032E+02  0.20903388934E+02  0.40659141156E+02  0.00000000000E+00 0.  1.
         11    1    3    3    0    0  0.17294821894E+02  0.10975552295E+02 -0.14271681954E+02  0.24965065964E+02  0.51100000000E-03 0. -1.
        -11    1    3    3    0    0 -0.51866361818E+01  0.21664079609E+02 -0.83525936659E+01  0.23790741085E+02  0.51100000000E-03 0.  1.
        -12    1    3    3    0    0  0.41685363255E+00 -0.92166870860E-01  0.17208866856E+01  0.17730517950E+01  0.00000000000E+00 0.  1.
</event>
<event>
 7    1  0.6097757E-011  0.5052884E+02  0.7816164E-02  0.1300439E+00
        -11   -1    0    0    0    0  0.00000000000E+00  0.00000000000E+00  0.45593999997E+02  0.45594000000E+02  0.51100000000E-03 0.  1.
         11   -1    0    0    0    0 -0.00000000000E+00 -0.00000000000E+00 -0.45593999997E+02  0.45594000000E+02  0.51100000000E-03 0. -1.
    9900012    2    1    2    0    0 -0.10106017076E+02  0.36080845522E+02 -0.15786339221E+02  0.50528837432E+02  0.29999931859E+02 0.  0.
        -12    1    1    2    0    0  0.10106017076E+02 -0.36080845522E+02  0.15786339221E+02  0.40659162568E+02  0.00000000000E+00 0.  1.
         11    1    3    3    0    0 -0.84035659894E+01  0.34944918458E+02 -0.15448093992E+02  0.39120465943E+02  0.51100000000E-03 0. -1.
        -11    1    3    3    0    0  0.12846294080E+01  0.12795467347E+01  0.49839606376E+01  0.53035249090E+01  0.51100000000E-03 0.  1.
        -12    1    3    3    0    0 -0.29870804944E+01 -0.14361967006E+00 -0.53222058658E+01  0.61048465802E+01  0.00000000000E+00 0.  1.
</event>
<event>
 7    1  0.5525118E-011  0.5052886E+02  0.7816164E-02  0.1300439E+00
        -11   -1    0    0    0    0  0.00000000000E+00  0.00000000000E+00  0.45593999997E+02  0.45594000000E+02  0.51100000000E-03 0. -1.
         11   -1    0    0    0    0 -0.00000000000E+00 -0.00000000000E+00 -0.45593999997E+02  0.45594000000E+02  0.51100000000E-03 0.  1.
    9900012    2    1    2    0    0  0.26136799302E+02  0.12992569395E+02  0.28305942528E+02  0.50528861795E+02  0.30000005911E+02 0.  0.
        -12    1    1    2    0    0 -0.26136799302E+02 -0.12992569395E+02 -0.28305942528E+02  0.40659138205E+02  0.00000000000E+00 0.  1.
         11    1    3    3    0    0  0.15107242623E+02  0.28406233628E+01  0.61303641496E+01  0.16549298645E+02  0.51100000000E-03 0. -1.
        -11    1    3    3    0    0  0.23321963921E+00  0.94630691248E+01  0.18016754502E+00  0.94676570104E+01  0.51100000000E-03 0.  1.
        -12    1    3    3    0    0  0.10796337039E+02  0.68887690692E+00  0.21995410833E+02  0.24511906140E+02  0.00000000000E+00 0.  1.
</event>
<event>
 7    1  0.5525118E-011  0.5052886E+02  0.7816164E-02  0.1300439E+00
        -11   -1    0    0    0    0  0.00000000000E+00  0.00000000000E+00  0.45593999997E+02  0.45594000000E+02  0.51100000000E-03 0. -1.
         11   -1    0    0    0    0 -0.00000000000E+00 -0.00000000000E+00 -0.45593999997E+02  0.45594000000E+02  0.51100000000E-03 0.  1.
    9900012    2    1    2    0    0 -0.26275610230E+02  0.31021808495E+00  0.31026792023E+02  0.50528858943E+02  0.29999997244E+02 0.  0.
        -12    1    1    2    0    0  0.26275610230E+02 -0.31021808495E+00 -0.31026792023E+02  0.40659141057E+02  0.00000000000E+00 0.  1.
         11    1    3    3    0    0  0.29013464190E+01 -0.73795313995E+01  0.28221860901E+01  0.84166519060E+01  0.51100000000E-03 0. -1.
        -11    1    3    3    0    0 -0.83315354910E+01 -0.13537772078E+01  0.61245167348E+01  0.10428657721E+02  0.51100000000E-03 0.  1.
         12    1    3    3    0    0 -0.20845421158E+02  0.90435266922E+01  0.22080089198E+02  0.31683549316E+02  0.00000000000E+00 0. -1.
</event>
<event>
 7    1  0.5525118E-011  0.5052879E+02  0.7816164E-02  0.1300439E+00
        -11   -1    0    0    0    0  0.00000000000E+00  0.00000000000E+00  0.45593999997E+02  0.45594000000E+02  0.51100000000E-03 0. -1.
         11   -1    0    0    0    0 -0.00000000000E+00 -0.00000000000E+00 -0.45593999997E+02  0.45594000000E+02  0.51100000000E-03 0.  1.
    9900012    2    1    2    0    0 -0.36693170657E+02 -0.10360477710E+02 -0.14122430952E+02  0.50528790376E+02  0.29999788825E+02 0.  0.
        -12    1    1    2    0    0  0.36693170657E+02  0.10360477710E+02  0.14122430952E+02  0.40659209624E+02  0.00000000000E+00 0.  1.
         11    1    3    3    0    0 -0.10610726827E+02  0.21049456993E+01 -0.39360396444E+01  0.11511330441E+02  0.51100000000E-03 0. -1.
        -11    1    3    3    0    0 -0.28685762086E+01 -0.59859179296E+01 -0.13154348673E+02  0.14734206195E+02  0.51100000000E-03 0.  1.
        -12    1    3    3    0    0 -0.23213867622E+02 -0.64795054796E+01  0.29679573652E+01  0.24283253739E+02  0.00000000000E+00 0.  1.
</event>
<event>
 7    1  0.5525118E-011  0.5052886E+02  0.7816164E-02  0.1300439E+00
        -11   -1    0    0    0    0  0.00000000000E+00  0.00000000000E+00  0.45593999997E+02  0.45594000000E+02  0.51100000000E-03 0. -1.
         11   -1    0    0    0    0 -0.00000000000E+00 -0.00000000000E+00 -0.45593999997E+02  0.45594000000E+02  0.51100000000E-03 0.  1.
    9900012    2    1    2    0    0  0.26260447753E+01 -0.32665685624E+02  0.24067043786E+02  0.50528859268E+02  0.29999998230E+02 0.  0.
        -12    1    1    2    0    0 -0.26260447753E+01  0.32665685624E+02 -0.24067043786E+02  0.40659140732E+02  0.00000000000E+00 0.  1.
         11    1    3    3    0    0 -0.79130552755E+01 -0.13217745524E+02  0.90470855343E+01  0.17865469416E+02  0.51100000000E-03 0. -1.
        -11    1    3    3    0    0  0.15951343809E+02 -0.15305569040E+02  0.10409327856E+02  0.24434809588E+02  0.51100000000E-03 0.  1.
        -12    1    3    3    0    0 -0.54122437583E+01 -0.41423710609E+01  0.46106303958E+01  0.82285802634E+01  0.00000000000E+00 0.  1.
</event>
<event>
 7    1  0.5525118E-011  0.5052886E+02  0.7816164E-02  0.1300439E+00
        -11   -1    0    0    0    0  0.00000000000E+00  0.00000000000E+00  0.45593999997E+02  0.45594000000E+02  0.51100000000E-03 0.  1.
         11   -1    0    0    0    0 -0.00000000000E+00 -0.00000000000E+00 -0.45593999997E+02  0.45594000000E+02  0.51100000000E-03 0. -1.
    9900012    2    1    2    0    0 -0.39417007389E+02  0.85446765606E+01 -0.51433360944E+01  0.50528857422E+02  0.29999992618E+02 0.  0.
        -12    1    1    2    0    0  0.39417007389E+02 -0.85446765606E+01  0.51433360944E+01  0.40659142578E+02  0.00000000000E+00 0.  1.
         11    1    3    3    0    0 -0.24415350806E+02  0.16118967987E+02  0.10569657110E+01  0.29275376355E+02  0.51100000000E-03 0. -1.
        -11    1    3    3    0    0  0.18161558992E+01  0.48114860193E-01 -0.15016593791E+00  0.18229885792E+01  0.51100000000E-03 0.  1.
         12    1    3    3    0    0 -0.16817812482E+02 -0.76224062866E+01 -0.60501358675E+01  0.19430492487E+02  0.00000000000E+00 0. -1.
</event>
<event>
 7    1  0.5525118E-011  0.5052886E+02  0.7816164E-02  0.1300439E+00
        -11   -1    0    0    0    0  0.00000000000E+00  0.00000000000E+00  0.45593999997E+02  0.45594000000E+02  0.51100000000E-03 0. -1.
         11   -1    0    0    0    0 -0.00000000000E+00 -0.00000000000E+00 -0.45593999997E+02  0.45594000000E+02  0.51100000000E-03 0.  1.
    9900012    2    1    2    0    0  0.30245513846E+02 -0.39845218652E+01  0.26879318711E+02  0.50528864536E+02  0.30000014245E+02 0.  0.
        -12    1    1    2    0    0 -0.30245513846E+02  0.39845218652E+01 -0.26879318711E+02  0.40659135464E+02  0.00000000000E+00 0.  1.
         11    1    3    3    0    0  0.30934192872E+02 -0.81644886456E+01  0.16389434558E+02  0.35947137979E+02  0.51100000000E-03 0. -1.
        -11    1    3    3    0    0 -0.45178181085E+01  0.12112900738E+01  0.76471926083E+01  0.89642322122E+01  0.51100000000E-03 0.  1.
         12    1    3    3    0    0  0.38291390823E+01  0.29686767066E+01  0.28426915451E+01  0.56174943454E+01  0.00000000000E+00 0. -1.
</event>
<event>
 7    1  0.5636731E-011  0.5052886E+02  0.7816164E-02  0.1300439E+00
        -11   -1    0    0    0    0  0.00000000000E+00  0.00000000000E+00  0.45593999997E+02  0.45594000000E+02  0.51100000000E-03 0. -1.
         11   -1    0    0    0    0 -0.00000000000E+00 -0.00000000000E+00 -0.45593999997E+02  0.45594000000E+02  0.51100000000E-03 0.  1.
    9900012    2    1    2    0    0  0.51491947153E+01  0.28151240574E+02  0.28881811097E+02  0.50528861245E+02  0.30000004239E+02 0.  0.
        -12    1    1    2    0    0 -0.51491947153E+01 -0.28151240574E+02 -0.28881811097E+02  0.40659138755E+02  0.00000000000E+00 0.  1.
         11    1    3    3    0    0 -0.60521885453E+01  0.17171428813E+02  0.21838583060E+02  0.28432563444E+02  0.51100000000E-03 0. -1.
        -11    1    3    3    0    0  0.69378603218E+01 -0.18951602589E+01  0.38713242647E+01  0.81677836698E+01  0.51100000000E-03 0.  1.
        -12    1    3    3    0    0  0.42635229387E+01  0.12874972020E+02  0.31719037726E+01  0.13928514131E+02  0.00000000000E+00 0.  1.
</event>
<event>
 7    1  0.5525118E-011  0.5052890E+02  0.7816164E-02  0.1300439E+00
        -11   -1    0    0    0    0  0.00000000000E+00  0.00000000000E+00  0.45593999997E+02  0.45594000000E+02  0.51100000000E-03 0.  1.
         11   -1    0    0    0    0 -0.00000000000E+00 -0.00000000000E+00 -0.45593999997E+02  0.45594000000E+02  0.51100000000E-03 0. -1.
    9900012    2    1    2    0    0  0.23521549797E+02  0.30743594027E+01 -0.33021917265E+02  0.50528904948E+02  0.30000137080E+02 0.  0.
        -12    1    1    2    0    0 -0.23521549797E+02 -0.30743594027E+01  0.33021917265E+02  0.40659095052E+02  0.00000000000E+00 0.  1.
         11    1    3    3    0    0  0.82950368334E+01  0.21506783601E+01 -0.33658989551E+02  0.34732702620E+02  0.51100000000E-03 0. -1.
        -11    1    3    3    0    0  0.14370217506E+02 -0.12085920988E+00  0.97544677226E+00  0.14403793069E+02  0.51100000000E-03 0.  1.
         12    1    3    3    0    0  0.85629545780E+00  0.10445402524E+01 -0.33837448648E+00  0.13924092585E+01  0.00000000000E+00 0. -1.
</event>
<event>
 7    1  0.5525118E-011  0.5052886E+02  0.7816164E-02  0.1300439E+00
        -11   -1    0    0    0    0  0.00000000000E+00  0.00000000000E+00  0.45593999997E+02  0.45594000000E+02  0.51100000000E-03 0.  1.
         11   -1    0    0    0    0 -0.00000000000E+00 -0.00000000000E+00 -0.45593999997E+02  0.45594000000E+02  0.51100000000E-03 0. -1.
    9900012    2    1    2    0    0 -0.15108538057E+02  0.22955142515E+02 -0.29965967009E+02  0.50528859959E+02  0.30000000330E+02 0.  0.
        -12    1    1    2    0    0  0.15108538057E+02 -0.22955142515E+02  0.29965967009E+02  0.40659140041E+02  0.00000000000E+00 0.  1.
         11    1    3    3    0    0 -0.89438807150E+00  0.90705806162E+01 -0.15312962835E+02  0.17820274796E+02  0.51100000000E-03 0. -1.
        -11    1    3    3    0    0 -0.62556846651E+01  0.50755619958E+01  0.51918404004E+01  0.95838472028E+01  0.51100000000E-03 0.  1.
        -12    1    3    3    0    0 -0.79584653204E+01  0.88089999030E+01 -0.19844844574E+02  0.23124737960E+02  0.00000000000E+00 0.  1.
</event>
<event>
 7    1  0.5525118E-011  0.5052886E+02  0.7816164E-02  0.1300439E+00
        -11   -1    0    0    0    0  0.00000000000E+00  0.00000000000E+00  0.45593999997E+02  0.45594000000E+02  0.51100000000E-03 0.  1.
         11   -1    0    0    0    0 -0.00000000000E+00 -0.00000000000E+00 -0.45593999997E+02  0.45594000000E+02  0.51100000000E-03 0. -1.
    9900012    2    1    2    0    0 -0.10889891291E+02  0.25853710016E+02 -0.29430630446E+02  0.50528855120E+02  0.29999985623E+02 0.  0.
        -12    1    1    2    0    0  0.10889891291E+02 -0.25853710016E+02  0.29430630446E+02  0.40659144880E+02  0.00000000000E+00 0.  1.
         11    1    3    3    0    0  0.14889616196E+01  0.14309641270E+02 -0.26241253902E+02  0.29926347031E+02  0.51100000000E-03 0. -1.
        -11    1    3    3    0    0 -0.66618325953E+01  0.12847960293E+02 -0.18768491545E+01  0.14593582844E+02  0.51100000000E-03 0.  1.
         12    1    3    3    0    0 -0.57170203158E+01 -0.13038915468E+01 -0.13125273890E+01  0.60089252453E+01  0.00000000000E+00 0. -1.
</event>
<event>
 7    1  0.5525118E-011  0.5052886E+02  0.7816164E-02  0.1300439E+00
        -11   -1    0    0    0    0  0.00000000000E+00  0.00000000000E+00  0.45593999997E+02  0.45594000000E+02  0.51100000000E-03 0. -1.
         11   -1    0    0    0    0 -0.00000000000E+00 -0.00000000000E+00 -0.45593999997E+02  0.45594000000E+02  0.51100000000E-03 0.  1.
    9900012    2    1    2    0    0 -0.33743063688E+02 -0.18735976025E+02  0.12788067761E+02  0.50528858080E+02  0.29999994619E+02 0.  0.
        -12    1    1    2    0    0  0.33743063688E+02  0.18735976025E+02 -0.12788067761E+02  0.40659141920E+02  0.00000000000E+00 0.  1.
         11    1    3    3    0    0 -0.30688708667E+02 -0.20646835342E+02  0.11441324253E+02  0.38716825157E+02  0.51100000000E-03 0. -1.
        -11    1    3    3    0    0 -0.40768691779E+01  0.59606770459E+01 -0.51316982218E+00  0.72397428592E+01  0.51100000000E-03 0.  1.
         12    1    3    3    0    0  0.10225141569E+01 -0.40498177283E+01  0.18599133302E+01  0.45722900640E+01  0.00000000000E+00 0. -1.
</event>
<event>
 7    1  0.5525118E-011  0.5052887E+02  0.7816164E-02  0.1300439E+00
        -11   -1    0    0    0    0  0.00000000000E+00  0.00000000000E+00  0.45593999997E+02  0.45594000000E+02  0.51100000000E-03 0.  1.
         11   -1    0    0    0    0 -0.00000000000E+00 -0.00000000000E+00 -0.45593999997E+02  0.45594000000E+02  0.51100000000E-03 0. -1.
    9900012    2    1    2    0    0  0.32175785378E+01  0.39829407929E+02 -0.75120295352E+01  0.50528866519E+02  0.30000020272E+02 0.  0.
        -12    1    1    2    0    0 -0.32175785378E+01 -0.39829407929E+02  0.75120295352E+01  0.40659133481E+02  0.00000000000E+00 0.  1.
         11    1    3    3    0    0 -0.20168587084E+01  0.17031534674E+02 -0.44615835411E+01  0.17721360567E+02  0.51100000000E-03 0. -1.
        -11    1    3    3    0    0  0.76554706122E+01 -0.17862634511E+01  0.36434427809E+00  0.78695434699E+01  0.51100000000E-03 0.  1.
        -12    1    3    3    0    0 -0.24210333660E+01  0.24584136707E+02 -0.34147902722E+01  0.24937962483E+02  0.00000000000E+00 0.  1.
</event>
<event>
 7    1  0.5525118E-011  0.5052887E+02  0.7816164E-02  0.1300439E+00
        -11   -1    0    0    0    0  0.00000000000E+00  0.00000000000E+00  0.45593999997E+02  0.45594000000E+02  0.51100000000E-03 0. -1.
         11   -1    0    0    0    0 -0.00000000000E+00 -0.00000000000E+00 -0.45593999997E+02  0.45594000000E+02  0.51100000000E-03 0.  1.
    9900012    2    1    2    0    0 -0.35371083674E+02  0.19529985983E+02 -0.45420918396E+01  0.50528874197E+02  0.30000043608E+02 0.  0.
        -12    1    1    2    0    0  0.35371083674E+02 -0.19529985983E+02  0.45420918396E+01  0.40659125803E+02  0.00000000000E+00 0.  1.
         11    1    3    3    0    0 -0.23958170609E+02  0.13778124200E+02  0.39485007259E+01  0.27918117838E+02  0.51100000000E-03 0. -1.
        -11    1    3    3    0    0 -0.58575568806E+01  0.26784148468E+01 -0.13212264077E+02  0.14698598607E+02  0.51100000000E-03 0.  1.
         12    1    3    3    0    0 -0.55553561853E+01  0.30734469364E+01  0.47216715117E+01  0.79121577513E+01  0.00000000000E+00 0. -1.
</event>
<event>
 7    1  0.5525118E-011  0.5052886E+02  0.7816164E-02  0.1300439E+00
        -11   -1    0    0    0    0  0.00000000000E+00  0.00000000000E+00  0.45593999997E+02  0.45594000000E+02  0.51100000000E-03 0.  1.
         11   -1    0    0    0    0 -0.00000000000E+00 -0.00000000000E+00 -0.45593999997E+02  0.45594000000E+02  0.51100000000E-03 0. -1.
    9900012    2    1    2    0    0 -0.46996729700E+01 -0.30621733371E+02 -0.26332267218E+02  0.50528858623E+02  0.29999996272E+02 0.  0.
        -12    1    1    2    0    0  0.46996729700E+01  0.30621733371E+02  0.26332267218E+02  0.40659141377E+02  0.00000000000E+00 0.  1.
         11    1    3    3    0    0  0.77083192992E+01 -0.87595933749E+01 -0.74886747114E+01  0.13864664140E+02  0.51100000000E-03 0. -1.
        -11    1    3    3    0    0 -0.14231351334E+02 -0.59405428292E+01 -0.95383338949E+01  0.18132876872E+02  0.51100000000E-03 0.  1.
        -12    1    3    3    0    0  0.18233590646E+01 -0.15921597166E+02 -0.93052586117E+01  0.18531317612E+02  0.00000000000E+00 0.  1.
</event>
<event>
 7    1  0.5525118E-011  0.5052888E+02  0.7816164E-02  0.1300439E+00
        -11   -1    0    0    0    0  0.00000000000E+00  0.00000000000E+00  0.45593999997E+02  0.45594000000E+02  0.51100000000E-03 0.  1.
         11   -1    0    0    0    0 -0.00000000000E+00 -0.00000000000E+00 -0.45593999997E+02  0.45594000000E+02  0.51100000000E-03 0. -1.
    9900012    2    1    2    0    0  0.41356350327E+01  0.17599752568E+02 -0.36418532033E+02  0.50528877493E+02  0.30000053628E+02 0.  0.
        -12    1    1    2    0    0 -0.41356350327E+01 -0.17599752568E+02  0.36418532033E+02  0.40659122507E+02  0.00000000000E+00 0.  1.
         11    1    3    3    0    0 -0.46906141109E+01 -0.23918556465E+00 -0.65760616235E+01  0.80810678261E+01  0.51100000000E-03 0. -1.
        -11    1    3    3    0    0  0.14549895934E+02  0.18774232579E+02 -0.20127355764E+02  0.31133289754E+02  0.51100000000E-03 0.  1.
        -12    1    3    3    0    0 -0.57236467905E+01 -0.93529444581E+00 -0.97151146456E+01  0.11314519913E+02  0.00000000000E+00 0.  1.
</event>
<event>
 7    1  0.5525118E-011  0.5052886E+02  0.7816164E-02  0.1300439E+00
        -11   -1    0    0    0    0  0.00000000000E+00  0.00000000000E+00  0.45593999997E+02  0.45594000000E+02  0.51100000000E-03 0.  1.
         11   -1    0    0    0    0 -0.00000000000E+00 -0.00000000000E+00 -0.45593999997E+02  0.45594000000E+02  0.51100000000E-03 0. -1.
    9900012    2    1    2    0    0  0.27403336457E+02 -0.26561920788E+02 -0.14024510522E+02  0.50528863508E+02  0.30000011118E+02 0.  0.
        -12    1    1    2    0    0 -0.27403336457E+02  0.26561920788E+02  0.14024510522E+02  0.40659136492E+02  0.00000000000E+00 0.  1.
         11    1    3    3    0    0  0.80863333391E+01 -0.39287371256E+01 -0.10245011627E+02  0.13630261398E+02  0.51100000000E-03 0. -1.
        -11    1    3    3    0    0  0.91141004760E+00 -0.17461298010E+02 -0.31724597407E+01  0.17770540159E+02  0.51100000000E-03 0.  1.
        -12    1    3    3    0    0  0.18405593070E+02 -0.51718856522E+01 -0.60703915412E+00  0.19128061951E+02  0.00000000000E+00 0.  1.
</event>
<event>
 7    1  0.5525118E-011  0.5052880E+02  0.7816164E-02  0.1300439E+00
        -11   -1    0    0    0    0  0.00000000000E+00  0.00000000000E+00  0.45593999997E+02  0.45594000000E+02  0.51100000000E-03 0.  1.
         11   -1    0    0    0    0 -0.00000000000E+00 -0.00000000000E+00 -0.45593999997E+02  0.45594000000E+02  0.51100000000E-03 0. -1.
    9900012    2    1    2    0    0  0.18103801162E+02 -0.97991922431E+00 -0.36393168529E+02  0.50528799641E+02  0.29999816989E+02 0.  0.
        -12    1    1    2    0    0 -0.18103801162E+02  0.97991922431E+00  0.36393168529E+02  0.40659200359E+02  0.00000000000E+00 0.  1.
         11    1    3    3    0    0  0.13014377050E+01 -0.50240739327E+01 -0.74206958764E+01  0.90554837824E+01  0.51100000000E-03 0. -1.
        -11    1    3    3    0    0  0.19444479875E+02  0.51186003929E+00 -0.97629713105E+01  0.21763855526E+02  0.51100000000E-03 0.  1.
        -12    1    3    3    0    0 -0.26421164171E+01  0.35322946691E+01 -0.19209501342E+02  0.19709460333E+02  0.00000000000E+00 0.  1.
</event>
<event>
 7    1  0.6520512E-011  0.5052884E+02  0.7816164E-02  0.1300439E+00
        -11   -1    0    0    0    0  0.00000000000E+00  0.00000000000E+00  0.45593999997E+02  0.45594000000E+02  0.51100000000E-03 0.  1.
         11   -1    0    0    0    0 -0.00000000000E+00 -0.00000000000E+00 -0.45593999997E+02  0.45594000000E+02  0.51100000000E-03 0. -1.
    9900012    2    1    2    0    0 -0.38715086436E+02 -0.59768059463E+01 -0.10889779900E+02  0.50528838260E+02  0.29999934376E+02 0.  0.
        -12    1    1    2    0    0  0.38715086436E+02  0.59768059463E+01  0.10889779900E+02  0.40659161740E+02  0.00000000000E+00 0.  1.
         11    1    3    3    0    0 -0.15887806430E+02 -0.16562860987E+01 -0.55162007599E+01  0.16899530996E+02  0.51100000000E-03 0. -1.
        -11    1    3    3    0    0 -0.11419791441E+01  0.12423360763E+01 -0.10522864791E+02  0.10657307303E+02  0.51100000000E-03 0.  1.
        -12    1    3    3    0    0 -0.21685300862E+02 -0.55628559239E+01  0.51492856501E+01  0.22971999961E+02  0.00000000000E+00 0.  1.
</event>
<event>
 7    1  0.5525118E-011  0.5052886E+02  0.7816164E-02  0.1300439E+00
        -11   -1    0    0    0    0  0.00000000000E+00  0.00000000000E+00  0.45593999997E+02  0.45594000000E+02  0.51100000000E-03 0.  1.
         11   -1    0    0    0    0 -0.00000000000E+00 -0.00000000000E+00 -0.45593999997E+02  0.45594000000E+02  0.51100000000E-03 0. -1.
    9900012    2    1    2    0    0 -0.30681897014E+02  0.19817494344E+02 -0.17862073554E+02  0.50528861321E+02  0.30000004472E+02 0.  0.
        -12    1    1    2    0    0  0.30681897014E+02 -0.19817494344E+02  0.17862073554E+02  0.40659138679E+02  0.00000000000E+00 0.  1.
         11    1    3    3    0    0 -0.25443959036E+02  0.99108808778E+01 -0.54580560742E+00  0.27311508842E+02  0.51100000000E-03 0. -1.
        -11    1    3    3    0    0 -0.47853545200E+01 -0.69427826544E+00 -0.59745327637E+01  0.76861357130E+01  0.51100000000E-03 0.  1.
         12    1    3    3    0    0 -0.45258345802E+00  0.10600891731E+02 -0.11341735183E+02  0.15531216766E+02  0.00000000000E+00 0. -1.
</event>
<event>
 7    1  0.5556235E-011  0.5052887E+02  0.7816164E-02  0.1300439E+00
        -11   -1    0    0    0    0  0.00000000000E+00  0.00000000000E+00  0.45593999997E+02  0.45594000000E+02  0.51100000000E-03 0. -1.
         11   -1    0    0    0    0 -0.00000000000E+00 -0.00000000000E+00 -0.45593999997E+02  0.45594000000E+02  0.51100000000E-03 0.  1.
    9900012    2    1    2    0    0  0.37641020671E+02  0.15365503080E+02  0.46880880244E+00  0.50528869368E+02  0.30000028931E+02 0.  0.
        -12    1    1    2    0    0 -0.37641020671E+02 -0.15365503080E+02 -0.46880880244E+00  0.40659130632E+02  0.00000000000E+00 0.  1.
         11    1    3    3    0    0  0.27669214600E+02  0.66560467707E+01  0.78391954598E+01  0.29518492186E+02  0.51100000000E-03 0. -1.
        -11    1    3    3    0    0  0.10600237612E+02  0.89139450096E+01 -0.10771522734E+02  0.17545630663E+02  0.51100000000E-03 0.  1.
        -12    1    3    3    0    0 -0.62843154144E+00 -0.20448870014E+00  0.34011360772E+01  0.34647465198E+01  0.00000000000E+00 0.  1.
</event>
<event>
 7    1  0.5525118E-011  0.5052886E+02  0.7816164E-02  0.1300439E+00
        -11   -1    0    0    0    0  0.00000000000E+00  0.00000000000E+00  0.45593999997E+02  0.45594000000E+02  0.51100000000E-03 0. -1.
         11   -1    0    0    0    0 -0.00000000000E+00 -0.00000000000E+00 -0.45593999997E+02  0.45594000000E+02  0.51100000000E-03 0.  1.
    9900012    2    1    2    0    0  0.36125342664E+02 -0.69263290275E+01  0.17324866766E+02  0.50528862960E+02  0.30000009454E+02 0.  0.
        -12    1    1    2    0    0 -0.36125342664E+02  0.69263290275E+01 -0.17324866766E+02  0.40659137040E+02  0.00000000000E+00 0.  1.
         11    1    3    3    0    0  0.31261816686E+02 -0.16810250767E+01  0.65830786100E+01  0.31991623155E+02  0.51100000000E-03 0. -1.
        -11    1    3    3    0    0  0.79822860967E+00  0.33018276202E+01  0.79876891480E+01  0.86800007335E+01  0.51100000000E-03 0.  1.
         12    1    3    3    0    0  0.40652973674E+01 -0.85471315710E+01  0.27540990076E+01  0.98572390719E+01  0.00000000000E+00 0. -1.
</event>
<event>
 7    1  0.5525118E-011  0.5052886E+02  0.7816164E-02  0.1300439E+00
        -11   -1    0    0    0    0  0.00000000000E+00  0.00000000000E+00  0.45593999997E+02  0.45594000000E+02  0.51100000000E-03 0.  1.
         11   -1    0    0    0    0 -0.00000000000E+00 -0.00000000000E+00 -0.45593999997E+02  0.45594000000E+02  0.51100000000E-03 0. -1.
    9900012    2    1    2    0    0  0.88959656259E+01  0.23532036856E+02 -0.31941676481E+02  0.50528860075E+02  0.30000000685E+02 0.  0.
        -12    1    1    2    0    0 -0.88959656259E+01 -0.23532036856E+02  0.31941676481E+02  0.40659139925E+02  0.00000000000E+00 0.  1.
         11    1    3    3    0    0  0.12079878948E+02  0.14023140661E+02 -0.25835616348E+02  0.31781299875E+02  0.51100000000E-03 0. -1.
        -11    1    3    3    0    0  0.27971927822E+01  0.48968029157E+01  0.34163352616E+01  0.65935053755E+01  0.51100000000E-03 0.  1.
         12    1    3    3    0    0 -0.59811061042E+01  0.46120932791E+01 -0.95223953943E+01  0.12154054825E+02  0.00000000000E+00 0. -1.
</event>
<event>
 7    1  0.5525118E-011  0.5052886E+02  0.7816164E-02  0.1300439E+00
        -11   -1    0    0    0    0  0.00000000000E+00  0.00000000000E+00  0.45593999997E+02  0.45594000000E+02  0.51100000000E-03 0.  1.
         11   -1    0    0    0    0 -0.00000000000E+00 -0.00000000000E+00 -0.45593999997E+02  0.45594000000E+02  0.51100000000E-03 0. -1.
    9900012    2    1    2    0    0  0.35461047683E+02 -0.19766135598E+02 -0.22315016077E+01  0.50528860576E+02  0.30000002208E+02 0.  0.
        -12    1    1    2    0    0 -0.35461047683E+02  0.19766135598E+02  0.22315016077E+01  0.40659139424E+02  0.00000000000E+00 0.  1.
         11    1    3    3    0    0  0.38523767627E+01  0.37874533637E+01 -0.54822571922E+01  0.76968015361E+01  0.51100000000E-03 0. -1.
        -11    1    3    3    0    0  0.14687980360E+02 -0.12939875083E+02  0.96950065491E+01  0.21844227761E+02  0.51100000000E-03 0.  1.
        -12    1    3    3    0    0  0.16920690560E+02 -0.10613713879E+02 -0.64442509646E+01  0.20987831279E+02  0.00000000000E+00 0.  1.
</event>
<event>
 7    1  0.5525118E-011  0.5052886E+02  0.7816164E-02  0.1300439E+00
        -11   -1    0    0    0    0  0.00000000000E+00  0.00000000000E+00  0.45593999997E+02  0.45594000000E+02  0.51100000000E-03 0.  1.
         11   -1    0    0    0    0 -0.00000000000E+00 -0.00000000000E+00 -0.45593999997E+02  0.45594000000E+02  0.51100000000E-03 0. -1.
    9900012    2    1    2    0    0 -0.24030494091E+02  0.25903806938E+02 -0.20117000956E+02  0.50528860958E+02  0.30000003369E+02 0.  0.
        -12    1    1    2    0    0  0.24030494091E+02 -0.25903806938E+02  0.20117000956E+02  0.40659139042E+02  0.00000000000E+00 0.  1.
         11    1    3    3    0    0 -0.10262693530E+02  0.11780473785E+02 -0.12480083133E+02  0.19996372580E+02  0.51100000000E-03 0. -1.
        -11    1    3    3    0    0  0.13310638152E+01  0.29387032772E+01  0.63402645666E+01  0.71138360163E+01  0.51100000000E-03 0.  1.
        -12    1    3    3    0    0 -0.15098864376E+02  0.11184629875E+02 -0.13977182390E+02  0.23418652362E+02  0.00000000000E+00 0.  1.
</event>
<event>
 7    1  0.5525118E-011  0.5052885E+02  0.7816164E-02  0.1300439E+00
        -11   -1    0    0    0    0  0.00000000000E+00  0.00000000000E+00  0.45593999997E+02  0.45594000000E+02  0.51100000000E-03 0.  1.
         11   -1    0    0    0    0 -0.00000000000E+00 -0.00000000000E+00 -0.45593999997E+02  0.45594000000E+02  0.51100000000E-03 0. -1.
    9900012    2    1    2    0    0  0.27382607139E+02  0.26922116002E+02 -0.13362595430E+02  0.50528850226E+02  0.29999970746E+02 0.  0.
        -12    1    1    2    0    0 -0.27382607139E+02 -0.26922116002E+02  0.13362595430E+02  0.40659149774E+02  0.00000000000E+00 0.  1.
         11    1    3    3    0    0  0.18719431682E+02  0.58403961819E+01 -0.42846247783E+01  0.20072004379E+02  0.51100000000E-03 0.  1.
        -11    1    3    3    0    0  0.26388649977E+01  0.19806112861E+02 -0.61493749394E+00  0.19990594376E+02  0.51100000000E-03 0. -1.
         12    1    3    3    0    0  0.60243104591E+01  0.12756069598E+01 -0.84630331574E+01  0.10466251471E+02  0.00000000000E+00 0. -1.
</event>
<event>
 7    1  0.5525118E-011  0.5052889E+02  0.7816164E-02  0.1300439E+00
        -11   -1    0    0    0    0  0.00000000000E+00  0.00000000000E+00  0.45593999997E+02  0.45594000000E+02  0.51100000000E-03 0. -1.
         11   -1    0    0    0    0 -0.00000000000E+00 -0.00000000000E+00 -0.45593999997E+02  0.45594000000E+02  0.51100000000E-03 0.  1.
    9900012    2    1    2    0    0 -0.23458659888E+02 -0.27812508220E+02  0.18147136898E+02  0.50528893827E+02  0.30000103276E+02 0.  0.
        -12    1    1    2    0    0  0.23458659888E+02  0.27812508220E+02 -0.18147136898E+02  0.40659106173E+02  0.00000000000E+00 0.  1.
         11    1    3    3    0    0 -0.24468310352E+02 -0.18306948692E+02  0.14502393120E+02  0.33825463609E+02  0.51100000000E-03 0. -1.
        -11    1    3    3    0    0  0.26767933800E+01 -0.92436815638E+01 -0.28151341103E+01  0.10026756802E+02  0.51100000000E-03 0.  1.
        -12    1    3    3    0    0 -0.16671429154E+01 -0.26187796424E+00  0.64598778879E+01  0.66766734153E+01  0.00000000000E+00 0.  1.
</event>
<event>
 7    1  0.5525118E-011  0.5052886E+02  0.7816164E-02  0.1300439E+00
        -11   -1    0    0    0    0  0.00000000000E+00  0.00000000000E+00  0.45593999997E+02  0.45594000000E+02  0.51100000000E-03 0.  1.
         11   -1    0    0    0    0 -0.00000000000E+00 -0.00000000000E+00 -0.45593999997E+02  0.45594000000E+02  0.51100000000E-03 0. -1.
    9900012    2    1    2    0    0 -0.33108864303E+02  0.18492657746E+02 -0.14662554171E+02  0.50528858583E+02  0.29999996148E+02 0.  0.
        -12    1    1    2    0    0  0.33108864303E+02 -0.18492657746E+02  0.14662554171E+02  0.40659141417E+02  0.00000000000E+00 0.  1.
         11    1    3    3    0    0 -0.36705602611E+01  0.40755050774E+01 -0.22310366134E+01  0.59211720881E+01  0.51100000000E-03 0. -1.
        -11    1    3    3    0    0 -0.66040717245E+01  0.94867551950E+01 -0.17241002710E+02  0.20757274921E+02  0.51100000000E-03 0.  1.
        -12    1    3    3    0    0 -0.22834232318E+02  0.49303974740E+01  0.48094851517E+01  0.23850411573E+02  0.00000000000E+00 0.  1.
</event>
<event>
 7    1  0.5525118E-011  0.5052886E+02  0.7816164E-02  0.1300439E+00
        -11   -1    0    0    0    0  0.00000000000E+00  0.00000000000E+00  0.45593999997E+02  0.45594000000E+02  0.51100000000E-03 0. -1.
         11   -1    0    0    0    0 -0.00000000000E+00 -0.00000000000E+00 -0.45593999997E+02  0.45594000000E+02  0.51100000000E-03 0.  1.
    9900012    2    1    2    0    0 -0.35981738338E+02 -0.15830330221E+01  0.18867273212E+02  0.50528862210E+02  0.30000007173E+02 0.  0.
        -12    1    1    2    0    0  0.35981738338E+02  0.15830330221E+01 -0.18867273212E+02  0.40659137790E+02  0.00000000000E+00 0.  1.
         11    1    3    3    0    0 -0.16473198076E+02  0.13889424961E+01  0.14708268157E+02  0.22127552249E+02  0.51100000000E-03 0. -1.
        -11    1    3    3    0    0 -0.76428582774E+01 -0.11101730816E+02  0.18746151789E+00  0.13479497462E+02  0.51100000000E-03 0.  1.
        -12    1    3    3    0    0 -0.11865681985E+02  0.81297552976E+01  0.39715435366E+01  0.14921812498E+02  0.00000000000E+00 0.  1.
</event>
<event>
 7    1  0.5525118E-011  0.5052886E+02  0.7816164E-02  0.1300439E+00
        -11   -1    0    0    0    0  0.00000000000E+00  0.00000000000E+00  0.45593999997E+02  0.45594000000E+02  0.51100000000E-03 0. -1.
         11   -1    0    0    0    0 -0.00000000000E+00 -0.00000000000E+00 -0.45593999997E+02  0.45594000000E+02  0.51100000000E-03 0.  1.
    9900012    2    1    2    0    0 -0.21745876598E+02 -0.16114446784E+02  0.30341504017E+02  0.50528863140E+02  0.30000010001E+02 0.  0.
        -12    1    1    2    0    0  0.21745876598E+02  0.16114446784E+02 -0.30341504017E+02  0.40659136860E+02  0.00000000000E+00 0.  1.
         11    1    3    3    0    0 -0.30553019055E+00  0.28360130635E+01  0.47298300998E+01  0.55233696081E+01  0.51100000000E-03 0.  1.
        -11    1    3    3    0    0 -0.18523101179E+02 -0.22535535674E+02  0.27426839595E+02  0.40039819878E+02  0.51100000000E-03 0. -1.
        -12    1    3    3    0    0 -0.29172452283E+01  0.35850758267E+01 -0.18151656775E+01  0.49656736544E+01  0.00000000000E+00 0.  1.
</event>
<event>
 7    1  0.5525118E-011  0.5052887E+02  0.7816164E-02  0.1300439E+00
        -11   -1    0    0    0    0  0.00000000000E+00  0.00000000000E+00  0.45593999997E+02  0.45594000000E+02  0.51100000000E-03 0.  1.
         11   -1    0    0    0    0 -0.00000000000E+00 -0.00000000000E+00 -0.45593999997E+02  0.45594000000E+02  0.51100000000E-03 0. -1.
    9900012    2    1    2    0    0 -0.22656167113E+02 -0.13588363125E+02 -0.30906618860E+02  0.50528872980E+02  0.30000039911E+02 0.  0.
        -12    1    1    2    0    0  0.22656167113E+02  0.13588363125E+02  0.30906618860E+02  0.40659127020E+02  0.00000000000E+00 0.  1.
         11    1    3    3    0    0 -0.25686727738E+02 -0.54620147732E+01 -0.16831134850E+02  0.31191804819E+02  0.51100000000E-03 0. -1.
        -11    1    3    3    0    0  0.24318367831E+01 -0.94029031212E+01 -0.66305386770E+01  0.11759781488E+02  0.51100000000E-03 0.  1.
        -12    1    3    3    0    0  0.59872384170E+00  0.12765547697E+01 -0.74449453326E+01  0.75772866729E+01  0.00000000000E+00 0.  1.
</event>
<event>
 7    1  0.5525118E-011  0.5052885E+02  0.7816164E-02  0.1300439E+00
        -11   -1    0    0    0    0  0.00000000000E+00  0.00000000000E+00  0.45593999997E+02  0.45594000000E+02  0.51100000000E-03 0.  1.
         11   -1    0    0    0    0 -0.00000000000E+00 -0.00000000000E+00 -0.45593999997E+02  0.45594000000E+02  0.51100000000E-03 0. -1.
    9900012    2    1    2    0    0  0.18089431450E+02 -0.28320249754E+02 -0.22888907428E+02  0.50528853924E+02  0.29999981989E+02 0.  0.
        -12    1    1    2    0    0 -0.18089431450E+02  0.28320249754E+02  0.22888907428E+02  0.40659146076E+02  0.00000000000E+00 0.  1.
         11    1    3    3    0    0  0.16903877051E+02 -0.98843563696E+01 -0.14090957302E+02  0.24124606487E+02  0.51100000000E-03 0. -1.
        -11    1    3    3    0    0 -0.41811161904E+01 -0.10154746362E+02  0.26431131580E+01  0.11295426229E+02  0.51100000000E-03 0.  1.
         12    1    3    3    0    0  0.53666705889E+01 -0.82811470229E+01 -0.11441063285E+02  0.15108821209E+02  0.00000000000E+00 0. -1.
</event>
<event>
 7    1  0.5525118E-011  0.5052886E+02  0.7816164E-02  0.1300439E+00
        -11   -1    0    0    0    0  0.00000000000E+00  0.00000000000E+00  0.45593999997E+02  0.45594000000E+02  0.51100000000E-03 0.  1.
         11   -1    0    0    0    0 -0.00000000000E+00 -0.00000000000E+00 -0.45593999997E+02  0.45594000000E+02  0.51100000000E-03 0. -1.
    9900012    2    1    2    0    0 -0.18116767816E+02 -0.28301857920E+02 -0.22890018285E+02  0.50528863574E+02  0.30000011319E+02 0.  0.
        -12    1    1    2    0    0  0.18116767816E+02  0.28301857920E+02  0.22890018285E+02  0.40659136426E+02  0.00000000000E+00 0.  1.
         11    1    3    3    0    0 -0.18261379283E+02 -0.10210823848E+02 -0.18783473356E+02  0.28116859151E+02  0.51100000000E-03 0. -1.
        -11    1    3    3    0    0 -0.18816112628E+01  0.89058222008E+00 -0.25026589385E+01  0.32552879533E+01  0.51100000000E-03 0.  1.
         12    1    3    3    0    0  0.20262227299E+01 -0.18981616292E+02 -0.16038859910E+01  0.19156716469E+02  0.00000000000E+00 0. -1.
</event>
<event>
 7    1  0.5525118E-011  0.5052886E+02  0.7816164E-02  0.1300439E+00
        -11   -1    0    0    0    0  0.00000000000E+00  0.00000000000E+00  0.45593999997E+02  0.45594000000E+02  0.51100000000E-03 0. -1.
         11   -1    0    0    0    0 -0.00000000000E+00 -0.00000000000E+00 -0.45593999997E+02  0.45594000000E+02  0.51100000000E-03 0.  1.
    9900012    2    1    2    0    0  0.17015654813E+02 -0.18063839874E+02  0.32207623559E+02  0.50528857915E+02  0.29999994119E+02 0.  0.
        -12    1    1    2    0    0 -0.17015654813E+02  0.18063839874E+02 -0.32207623559E+02  0.40659142085E+02  0.00000000000E+00 0.  1.
         11    1    3    3    0    0  0.61206012393E+01 -0.10224338396E+02  0.53944420442E+01  0.13080476306E+02  0.51100000000E-03 0. -1.
        -11    1    3    3    0    0  0.10767478429E+02  0.40050631663E+01  0.48001793939E+01  0.12450736732E+02  0.51100000000E-03 0.  1.
        -12    1    3    3    0    0  0.12757514501E+00 -0.11844564645E+02  0.22013002121E+02  0.24997644878E+02  0.00000000000E+00 0.  1.
</event>
<event>
 7    1  0.5525118E-011  0.5052886E+02  0.7816164E-02  0.1300439E+00
        -11   -1    0    0    0    0  0.00000000000E+00  0.00000000000E+00  0.45593999997E+02  0.45594000000E+02  0.51100000000E-03 0.  1.
         11   -1    0    0    0    0 -0.00000000000E+00 -0.00000000000E+00 -0.45593999997E+02  0.45594000000E+02  0.51100000000E-03 0. -1.
    9900012    2    1    2    0    0 -0.15700166955E+02  0.26035848929E+02 -0.26996382842E+02  0.50528863777E+02  0.30000011937E+02 0.  0.
        -12    1    1    2    0    0  0.15700166955E+02 -0.26035848929E+02  0.26996382842E+02  0.40659136223E+02  0.00000000000E+00 0.  1.
         11    1    3    3    0    0 -0.37249701539E+00  0.13375300691E+02  0.23172545227E+01  0.13579657263E+02  0.51100000000E-03 0. -1.
        -11    1    3    3    0    0 -0.86448158051E+01  0.12033060080E+01 -0.79677270799E+01  0.11818014247E+02  0.51100000000E-03 0.  1.
         12    1    3    3    0    0 -0.66828541341E+01  0.11457242230E+02 -0.21345910284E+02  0.25131192267E+02  0.00000000000E+00 0. -1.
</event>
<event>
 7    1  0.5525118E-011  0.5052886E+02  0.7816164E-02  0.1300439E+00
        -11   -1    0    0    0    0  0.00000000000E+00  0.00000000000E+00  0.45593999997E+02  0.45594000000E+02  0.51100000000E-03 0.  1.
         11   -1    0    0    0    0 -0.00000000000E+00 -0.00000000000E+00 -0.45593999997E+02  0.45594000000E+02  0.51100000000E-03 0. -1.
    9900012    2    1    2    0    0 -0.99767501607E+01  0.71018111126E+01 -0.38771050409E+02  0.50528860626E+02  0.30000002358E+02 0.  0.
        -12    1    1    2    0    0  0.99767501607E+01 -0.71018111126E+01  0.38771050409E+02  0.40659139374E+02  0.00000000000E+00 0.  1.
         11    1    3    3    0    0 -0.39813726161E+01  0.17796398037E+02 -0.14423211344E+02  0.23250637341E+02  0.51100000000E-03 0. -1.
        -11    1    3    3    0    0 -0.16360307939E+01 -0.32895375779E+01 -0.82320569824E+01  0.90146778455E+01  0.51100000000E-03 0.  1.
         12    1    3    3    0    0 -0.43593467508E+01 -0.74050493464E+01 -0.16115782082E+02  0.18263545440E+02  0.00000000000E+00 0. -1.
</event>
<event>
 7    1  0.5525118E-011  0.5052885E+02  0.7816164E-02  0.1300439E+00
        -11   -1    0    0    0    0  0.00000000000E+00  0.00000000000E+00  0.45593999997E+02  0.45594000000E+02  0.51100000000E-03 0.  1.
         11   -1    0    0    0    0 -0.00000000000E+00 -0.00000000000E+00 -0.45593999997E+02  0.45594000000E+02  0.51100000000E-03 0. -1.
    9900012    2    1    2    0    0 -0.38216320415E+02 -0.12233970065E+02  0.65581328310E+01  0.50528852495E+02  0.29999977644E+02 0.  0.
        -12    1    1    2    0    0  0.38216320415E+02  0.12233970065E+02 -0.65581328310E+01  0.40659147505E+02  0.00000000000E+00 0.  1.
         11    1    3    3    0    0 -0.15159227734E+02 -0.91841886933E+00  0.32147590905E+01  0.15523541960E+02  0.51100000000E-03 0. -1.
        -11    1    3    3    0    0 -0.17259508723E+02 -0.17110138825E+02 -0.32052721338E+01  0.24513695391E+02  0.51100000000E-03 0.  1.
        -12    1    3    3    0    0 -0.57975839580E+01  0.57945876301E+01  0.65486458743E+01  0.10491615144E+02  0.00000000000E+00 0.  1.
</event>
<event>
 7    1  0.5525118E-011  0.5052886E+02  0.7816164E-02  0.1300439E+00
        -11   -1    0    0    0    0  0.00000000000E+00  0.00000000000E+00  0.45593999997E+02  0.45594000000E+02  0.51100000000E-03 0.  1.
         11   -1    0    0    0    0 -0.00000000000E+00 -0.00000000000E+00 -0.45593999997E+02  0.45594000000E+02  0.51100000000E-03 0. -1.
    9900012    2    1    2    0    0  0.74876273660E+00 -0.10042436504E+02 -0.39392317487E+02  0.50528857687E+02  0.29999993427E+02 0.  0.
        -12    1    1    2    0    0 -0.74876273660E+00  0.10042436504E+02  0.39392317487E+02  0.40659142313E+02  0.00000000000E+00 0.  1.
         11    1    3    3    0    0  0.11783992545E+02 -0.13007026462E+02 -0.18229656348E+02  0.25305445827E+02  0.51100000000E-03 0. -1.
        -11    1    3    3    0    0 -0.77940634198E+01  0.43082575097E+01 -0.94003402584E+01  0.12948934497E+02  0.51100000000E-03 0.  1.
         12    1    3    3    0    0 -0.32411663886E+01 -0.13436675521E+01 -0.11762320881E+02  0.12274477364E+02  0.00000000000E+00 0. -1.
</event>
<event>
 7    1  0.5525118E-011  0.5052886E+02  0.7816164E-02  0.1300439E+00
        -11   -1    0    0    0    0  0.00000000000E+00  0.00000000000E+00  0.45593999997E+02  0.45594000000E+02  0.51100000000E-03 0.  1.
         11   -1    0    0    0    0 -0.00000000000E+00 -0.00000000000E+00 -0.45593999997E+02  0.45594000000E+02  0.51100000000E-03 0. -1.
    9900012    2    1    2    0    0 -0.19362676049E+02  0.32853428597E+02 -0.14103346343E+02  0.50528863604E+02  0.30000011412E+02 0.  0.
        -12    1    1    2    0    0  0.19362676049E+02 -0.32853428597E+02  0.14103346343E+02  0.40659136396E+02  0.00000000000E+00 0.  1.
         11    1    3    3    0    0 -0.16092648188E+02  0.10277961375E+02 -0.27059406867E+01  0.19285536834E+02  0.51100000000E-03 0. -1.
        -11    1    3    3    0    0  0.31304420446E+01  0.83555166477E+01  0.35871218312E+01  0.96167442067E+01  0.51100000000E-03 0.  1.
        -12    1    3    3    0    0 -0.64004699056E+01  0.14219950574E+02 -0.14984527488E+02  0.21626582563E+02  0.00000000000E+00 0.  1.
</event>
<event>
 7    1  0.5525118E-011  0.5052886E+02  0.7816164E-02  0.1300439E+00
        -11   -1    0    0    0    0  0.00000000000E+00  0.00000000000E+00  0.45593999997E+02  0.45594000000E+02  0.51100000000E-03 0. -1.
         11   -1    0    0    0    0 -0.00000000000E+00 -0.00000000000E+00 -0.45593999997E+02  0.45594000000E+02  0.51100000000E-03 0.  1.
    9900012    2    1    2    0    0 -0.10048127161E+02 -0.24336419541E+02  0.30982896255E+02  0.50528855446E+02  0.29999986612E+02 0.  0.
        -12    1    1    2    0    0  0.10048127161E+02  0.24336419541E+02 -0.30982896255E+02  0.40659144554E+02  0.00000000000E+00 0.  1.
         11    1    3    3    0    0 -0.40270539917E+01 -0.17858411018E+02  0.83269568680E+01  0.20111643863E+02  0.51100000000E-03 0. -1.
        -11    1    3    3    0    0 -0.10645222834E+02 -0.12269723356E+01  0.20438752270E+02  0.23077452739E+02  0.51100000000E-03 0.  1.
        -12    1    3    3    0    0  0.46241496647E+01 -0.52510361875E+01  0.22171871174E+01  0.73397588433E+01  0.00000000000E+00 0.  1.
</event>
<event>
 7    1  0.5525118E-011  0.5052885E+02  0.7816164E-02  0.1300439E+00
        -11   -1    0    0    0    0  0.00000000000E+00  0.00000000000E+00  0.45593999997E+02  0.45594000000E+02  0.51100000000E-03 0.  1.
         11   -1    0    0    0    0 -0.00000000000E+00 -0.00000000000E+00 -0.45593999997E+02  0.45594000000E+02  0.51100000000E-03 0. -1.
    9900012    2    1    2    0    0  0.35743328287E+02  0.14439259733E+02 -0.12926284514E+02  0.50528848877E+02  0.29999966646E+02 0.  0.
        -12    1    1    2    0    0 -0.35743328287E+02 -0.14439259733E+02  0.12926284514E+02  0.40659151123E+02  0.00000000000E+00 0.  1.
         11    1    3    3    0    0  0.20982330831E+02 -0.48117789594E+01  0.14886818227E+01  0.21578405819E+02  0.51100000000E-03 0. -1.
        -11    1    3    3    0    0  0.51310477335E+01  0.53499126162E+01 -0.12458070394E+01  0.75167314230E+01  0.51100000000E-03 0.  1.
         12    1    3    3    0    0  0.96299497230E+01  0.13901126076E+02 -0.13169159298E+02  0.21433711635E+02  0.00000000000E+00 0. -1.
</event>
<event>
 7    1  0.5525118E-011  0.5052886E+02  0.7816164E-02  0.1300439E+00
        -11   -1    0    0    0    0  0.00000000000E+00  0.00000000000E+00  0.45593999997E+02  0.45594000000E+02  0.51100000000E-03 0.  1.
         11   -1    0    0    0    0 -0.00000000000E+00 -0.00000000000E+00 -0.45593999997E+02  0.45594000000E+02  0.51100000000E-03 0. -1.
    9900012    2    1    2    0    0  0.38466976720E+02 -0.97550152107E+01  0.88485639499E+01  0.50528859530E+02  0.29999999028E+02 0.  0.
        -12    1    1    2    0    0 -0.38466976720E+02  0.97550152107E+01 -0.88485639499E+01  0.40659140470E+02  0.00000000000E+00 0.  1.
         11    1    3    3    0    0  0.13290804185E+02 -0.16261258858E+02  0.94525582813E+01  0.23030954688E+02  0.51100000000E-03 0. -1.
        -11    1    3    3    0    0  0.10113781517E+02  0.39850443344E+01  0.39427721254E+01  0.11563503241E+02  0.51100000000E-03 0.  1.
         12    1    3    3    0    0  0.15062391018E+02  0.25211993126E+01 -0.45467664568E+01  0.15934401601E+02  0.00000000000E+00 0. -1.
</event>
<event>
 7    1  0.5525118E-011  0.5052875E+02  0.7816164E-02  0.1300439E+00
        -11   -1    0    0    0    0  0.00000000000E+00  0.00000000000E+00  0.45593999997E+02  0.45594000000E+02  0.51100000000E-03 0.  1.
         11   -1    0    0    0    0 -0.00000000000E+00 -0.00000000000E+00 -0.45593999997E+02  0.45594000000E+02  0.51100000000E-03 0. -1.
    9900012    2    1    2    0    0 -0.15602065058E+02 -0.26560226667E+02 -0.26538741664E+02  0.50528746641E+02  0.29999655887E+02 0.  0.
        -12    1    1    2    0    0  0.15602065058E+02  0.26560226667E+02  0.26538741664E+02  0.40659253359E+02  0.00000000000E+00 0.  1.
         11    1    3    3    0    0 -0.34586051850E+01 -0.58565339600E+01 -0.17105986815E+00  0.68036902920E+01  0.51100000000E-03 0. -1.
        -11    1    3    3    0    0 -0.17517973886E+02 -0.57183689845E+01 -0.17913052022E+02  0.25699349912E+02  0.51100000000E-03 0.  1.
        -12    1    3    3    0    0  0.53745140133E+01 -0.14985323722E+02 -0.84546297738E+01  0.18025706437E+02  0.00000000000E+00 0.  1.
</event>
<event>
 7    1  0.5525118E-011  0.5052886E+02  0.7816164E-02  0.1300439E+00
        -11   -1    0    0    0    0  0.00000000000E+00  0.00000000000E+00  0.45593999997E+02  0.45594000000E+02  0.51100000000E-03 0.  1.
         11   -1    0    0    0    0 -0.00000000000E+00 -0.00000000000E+00 -0.45593999997E+02  0.45594000000E+02  0.51100000000E-03 0. -1.
    9900012    2    1    2    0    0  0.75035112155E+01  0.43001403297E+01 -0.39728728027E+02  0.50528859354E+02  0.29999998492E+02 0.  0.
        -12    1    1    2    0    0 -0.75035112155E+01 -0.43001403297E+01  0.39728728027E+02  0.40659140646E+02  0.00000000000E+00 0.  1.
         11    1    3    3    0    0 -0.25339690696E+01  0.12094206965E+02 -0.12115812093E+02  0.17305598640E+02  0.51100000000E-03 0. -1.
        -11    1    3    3    0    0  0.23955975655E+01 -0.95026863115E+01 -0.10275544707E+02  0.14199533588E+02  0.51100000000E-03 0.  1.
         12    1    3    3    0    0  0.76418827196E+01  0.17086196764E+01 -0.17337371227E+02  0.19023727126E+02  0.00000000000E+00 0. -1.
</event>
<event>
 7    1  0.5525118E-011  0.5052875E+02  0.7816164E-02  0.1300439E+00
        -11   -1    0    0    0    0  0.00000000000E+00  0.00000000000E+00  0.45593999997E+02  0.45594000000E+02  0.51100000000E-03 0.  1.
         11   -1    0    0    0    0 -0.00000000000E+00 -0.00000000000E+00 -0.45593999997E+02  0.45594000000E+02  0.51100000000E-03 0. -1.
    9900012    2    1    2    0    0 -0.20952827588E+02 -0.73124906760E+01 -0.34068769479E+02  0.50528750651E+02  0.29999668077E+02 0.  0.
        -12    1    1    2    0    0  0.20952827588E+02  0.73124906760E+01  0.34068769479E+02  0.40659249349E+02  0.00000000000E+00 0.  1.
         11    1    3    3    0    0  0.12956289426E+01 -0.64784675457E+00 -0.19538516305E+02  0.19592140757E+02  0.51100000000E-03 0. -1.
        -11    1    3    3    0    0 -0.16664390358E+02  0.11975268292E+01 -0.51488471594E+01  0.17482751609E+02  0.51100000000E-03 0.  1.
        -12    1    3    3    0    0 -0.55840661728E+01 -0.78621707506E+01 -0.93814060145E+01  0.13453858285E+02  0.00000000000E+00 0.  1.
</event>
<event>
 7    1  0.5525118E-011  0.5052884E+02  0.7816164E-02  0.1300439E+00
        -11   -1    0    0    0    0  0.00000000000E+00  0.00000000000E+00  0.45593999997E+02  0.45594000000E+02  0.51100000000E-03 0.  1.
         11   -1    0    0    0    0 -0.00000000000E+00 -0.00000000000E+00 -0.45593999997E+02  0.45594000000E+02  0.51100000000E-03 0. -1.
    9900012    2    1    2    0    0  0.80007799539E+00  0.15294923288E+02 -0.37664206297E+02  0.50528840648E+02  0.29999941634E+02 0.  0.
        -12    1    1    2    0    0 -0.80007799539E+00 -0.15294923288E+02  0.37664206297E+02  0.40659159352E+02  0.00000000000E+00 0.  1.
         11    1    3    3    0    0  0.70122241905E+01  0.72952887267E+01 -0.33943809022E+02  0.35419975958E+02  0.51100000000E-03 0. -1.
        -11    1    3    3    0    0 -0.32083357900E+01 -0.15316094880E+01 -0.36780563078E+01  0.51154026850E+01  0.51100000000E-03 0.  1.
         12    1    3    3    0    0 -0.30038104051E+01  0.95312440496E+01 -0.42340967703E-01  0.99934620048E+01  0.00000000000E+00 0. -1.
</event>
<event>
 7    1  0.5525118E-011  0.5052886E+02  0.7816164E-02  0.1300439E+00
        -11   -1    0    0    0    0  0.00000000000E+00  0.00000000000E+00  0.45593999997E+02  0.45594000000E+02  0.51100000000E-03 0. -1.
         11   -1    0    0    0    0 -0.00000000000E+00 -0.00000000000E+00 -0.45593999997E+02  0.45594000000E+02  0.51100000000E-03 0.  1.
    9900012    2    1    2    0    0 -0.92590857170E+01 -0.15545861156E+02  0.36411002229E+02  0.50528861412E+02  0.30000004749E+02 0.  0.
        -12    1    1    2    0    0  0.92590857170E+01  0.15545861156E+02 -0.36411002229E+02  0.40659138588E+02  0.00000000000E+00 0.  1.
         11    1    3    3    0    0 -0.16777015049E+02 -0.14174538859E+02  0.25666234466E+02  0.33780784149E+02  0.51100000000E-03 0. -1.
        -11    1    3    3    0    0  0.80355754285E+01 -0.47095779937E+01  0.89746604852E+01  0.12934261805E+02  0.51100000000E-03 0.  1.
        -12    1    3    3    0    0 -0.51764609612E+00  0.33382556965E+01  0.17701072775E+01  0.38138154583E+01  0.00000000000E+00 0.  1.
</event>
<event>
 7    1  0.5525118E-011  0.5052886E+02  0.7816164E-02  0.1300439E+00
        -11   -1    0    0    0    0  0.00000000000E+00  0.00000000000E+00  0.45593999997E+02  0.45594000000E+02  0.51100000000E-03 0. -1.
         11   -1    0    0    0    0 -0.00000000000E+00 -0.00000000000E+00 -0.45593999997E+02  0.45594000000E+02  0.51100000000E-03 0.  1.
    9900012    2    1    2    0    0 -0.29039406599E+02  0.28350243268E+02 -0.24783117994E+01  0.50528862548E+02  0.30000008202E+02 0.  0.
        -12    1    1    2    0    0  0.29039406599E+02 -0.28350243268E+02  0.24783117994E+01  0.40659137452E+02  0.00000000000E+00 0.  1.
         11    1    3    3    0    0 -0.17246773884E+02  0.12852599785E+02  0.76040847735E+01  0.22813650215E+02  0.51100000000E-03 0. -1.
        -11    1    3    3    0    0  0.29819935657E+01  0.78680491015E+01 -0.66775827827E+01  0.10741908321E+02  0.51100000000E-03 0.  1.
        -12    1    3    3    0    0 -0.14774626281E+02  0.76295943809E+01 -0.34048137902E+01  0.16973304012E+02  0.00000000000E+00 0.  1.
</event>
<event>
 7    1  0.5525118E-011  0.5052880E+02  0.7816164E-02  0.1300439E+00
        -11   -1    0    0    0    0  0.00000000000E+00  0.00000000000E+00  0.45593999997E+02  0.45594000000E+02  0.51100000000E-03 0.  1.
         11   -1    0    0    0    0 -0.00000000000E+00 -0.00000000000E+00 -0.45593999997E+02  0.45594000000E+02  0.51100000000E-03 0. -1.
    9900012    2    1    2    0    0 -0.22866247110E+02 -0.11502619258E+02 -0.31591063869E+02  0.50528796576E+02  0.29999807671E+02 0.  0.
        -12    1    1    2    0    0  0.22866247110E+02  0.11502619258E+02  0.31591063869E+02  0.40659203424E+02  0.00000000000E+00 0.  1.
         11    1    3    3    0    0 -0.20169495151E+02 -0.10875547917E+02 -0.18801412810E+02  0.29640836713E+02  0.51100000000E-03 0. -1.
        -11    1    3    3    0    0  0.22433568703E+01  0.66731611320E+01 -0.86408195353E+01  0.11145738739E+02  0.51100000000E-03 0.  1.
        -12    1    3    3    0    0 -0.49401088296E+01 -0.73002324731E+01 -0.41488315238E+01  0.97422211237E+01  0.00000000000E+00 0.  1.
</event>
<event>
 7    1  0.5525118E-011  0.5052886E+02  0.7816164E-02  0.1300439E+00
        -11   -1    0    0    0    0  0.00000000000E+00  0.00000000000E+00  0.45593999997E+02  0.45594000000E+02  0.51100000000E-03 0.  1.
         11   -1    0    0    0    0 -0.00000000000E+00 -0.00000000000E+00 -0.45593999997E+02  0.45594000000E+02  0.51100000000E-03 0. -1.
    9900012    2    1    2    0    0 -0.85504778091E+01 -0.68999706793E+01 -0.39146464450E+02  0.50528856562E+02  0.29999990006E+02 0.  0.
        -12    1    1    2    0    0  0.85504778091E+01  0.68999706793E+01  0.39146464450E+02  0.40659143438E+02  0.00000000000E+00 0.  1.
         11    1    3    3    0    0 -0.17468780817E+01 -0.54796516205E+01 -0.36094409620E+02  0.36549754732E+02  0.51100000000E-03 0. -1.
        -11    1    3    3    0    0 -0.75431277829E+01 -0.53331851576E+01 -0.50455650674E+00  0.92518224261E+01  0.51100000000E-03 0.  1.
         12    1    3    3    0    0  0.73952805548E+00  0.39128660988E+01 -0.25474983234E+01  0.47272794036E+01  0.00000000000E+00 0. -1.
</event>
<event>
 7    1  0.5525118E-011  0.5052886E+02  0.7816164E-02  0.1300439E+00
        -11   -1    0    0    0    0  0.00000000000E+00  0.00000000000E+00  0.45593999997E+02  0.45594000000E+02  0.51100000000E-03 0.  1.
         11   -1    0    0    0    0 -0.00000000000E+00 -0.00000000000E+00 -0.45593999997E+02  0.45594000000E+02  0.51100000000E-03 0. -1.
    9900012    2    1    2    0    0  0.30500163069E+02  0.20996925915E+02 -0.16793894016E+02  0.50528859314E+02  0.29999998371E+02 0.  0.
        -12    1    1    2    0    0 -0.30500163069E+02 -0.20996925915E+02  0.16793894016E+02  0.40659140686E+02  0.00000000000E+00 0.  1.
         11    1    3    3    0    0  0.16535017259E+02  0.19800401847E+02 -0.18735185797E+02  0.31882125026E+02  0.51100000000E-03 0. -1.
        -11    1    3    3    0    0  0.93536500764E+01 -0.46235972746E+01 -0.13564121827E+01  0.10521800026E+02  0.51100000000E-03 0.  1.
         12    1    3    3    0    0  0.46114957334E+01  0.58201213428E+01  0.32977039630E+01  0.81249342626E+01  0.00000000000E+00 0. -1.
</event>
<event>
 7    1  0.5525118E-011  0.5052886E+02  0.7816164E-02  0.1300439E+00
        -11   -1    0    0    0    0  0.00000000000E+00  0.00000000000E+00  0.45593999997E+02  0.45594000000E+02  0.51100000000E-03 0. -1.
         11   -1    0    0    0    0 -0.00000000000E+00 -0.00000000000E+00 -0.45593999997E+02  0.45594000000E+02  0.51100000000E-03 0.  1.
    9900012    2    1    2    0    0 -0.12068766265E+02 -0.38811833329E+02 -0.10731975776E+01  0.50528864759E+02  0.30000014921E+02 0.  0.
        -12    1    1    2    0    0  0.12068766265E+02  0.38811833329E+02  0.10731975776E+01  0.40659135241E+02  0.00000000000E+00 0.  1.
         11    1    3    3    0    0  0.10476835950E+01 -0.12768980938E+02  0.10918063522E+02  0.16832962498E+02  0.51100000000E-03 0. -1.
        -11    1    3    3    0    0 -0.26057448680E+01 -0.60360567807E+01 -0.86278430169E+01  0.10847283677E+02  0.51100000000E-03 0.  1.
         12    1    3    3    0    0 -0.10510704992E+02 -0.20006795610E+02 -0.33634180827E+01  0.22848618584E+02  0.00000000000E+00 0. -1.
</event>
<event>
 7    1  0.5525118E-011  0.5052886E+02  0.7816164E-02  0.1300439E+00
        -11   -1    0    0    0    0  0.00000000000E+00  0.00000000000E+00  0.45593999997E+02  0.45594000000E+02  0.51100000000E-03 0.  1.
         11   -1    0    0    0    0 -0.00000000000E+00 -0.00000000000E+00 -0.45593999997E+02  0.45594000000E+02  0.51100000000E-03 0. -1.
    9900012    2    1    2    0    0 -0.25043319988E+02  0.27274196069E+02 -0.16796302903E+02  0.50528862793E+02  0.30000008944E+02 0.  0.
        -12    1    1    2    0    0  0.25043319988E+02 -0.27274196069E+02  0.16796302903E+02  0.40659137207E+02  0.00000000000E+00 0.  1.
         11    1    3    3    0    0 -0.14668013018E+02  0.19847789297E+02 -0.19188874221E+02  0.31261769624E+02  0.51100000000E-03 0. -1.
        -11    1    3    3    0    0 -0.79116830038E+01 -0.24730243951E+01  0.35159879822E+01  0.90040407242E+01  0.51100000000E-03 0.  1.
         12    1    3    3    0    0 -0.24636239661E+01  0.98994311672E+01 -0.11234166645E+01  0.10263052445E+02  0.00000000000E+00 0. -1.
</event>
<event>
 7    1  0.5525118E-011  0.5052886E+02  0.7816164E-02  0.1300439E+00
        -11   -1    0    0    0    0  0.00000000000E+00  0.00000000000E+00  0.45593999997E+02  0.45594000000E+02  0.51100000000E-03 0.  1.
         11   -1    0    0    0    0 -0.00000000000E+00 -0.00000000000E+00 -0.45593999997E+02  0.45594000000E+02  0.51100000000E-03 0. -1.
    9900012    2    1    2    0    0 -0.14440140566E+02 -0.97442589121E+01 -0.36738231566E+02  0.50528857118E+02  0.29999991697E+02 0.  0.
        -12    1    1    2    0    0  0.14440140566E+02  0.97442589121E+01  0.36738231566E+02  0.40659142882E+02  0.00000000000E+00 0.  1.
         11    1    3    3    0    0 -0.31456934705E+01  0.83941053029E+01 -0.18968071864E+02  0.20979612526E+02  0.51100000000E-03 0. -1.
        -11    1    3    3    0    0  0.13676575007E+01 -0.55698926853E+01 -0.36681554506E+01  0.68080508397E+01  0.51100000000E-03 0.  1.
         12    1    3    3    0    0 -0.12662104596E+02 -0.12568471530E+02 -0.14102004251E+02  0.22741193753E+02  0.00000000000E+00 0. -1.
</event>
<event>
 7    1  0.5525118E-011  0.5052886E+02  0.7816164E-02  0.1300439E+00
        -11   -1    0    0    0    0  0.00000000000E+00  0.00000000000E+00  0.45593999997E+02  0.45594000000E+02  0.51100000000E-03 0.  1.
         11   -1    0    0    0    0 -0.00000000000E+00 -0.00000000000E+00 -0.45593999997E+02  0.45594000000E+02  0.51100000000E-03 0. -1.
    9900012    2    1    2    0    0 -0.63867355408E-01 -0.13696239079E+02 -0.38282825955E+02  0.50528858260E+02  0.29999995167E+02 0.  0.
        -12    1    1    2    0    0  0.63867355408E-01  0.13696239079E+02  0.38282825955E+02  0.40659141740E+02  0.00000000000E+00 0.  1.
         11    1    3    3    0    0  0.23398257547E+01  0.48184458611E+01 -0.29086498308E+02  0.29575608010E+02  0.51100000000E-03 0. -1.
        -11    1    3    3    0    0 -0.13265494305E+01 -0.14511268653E+02 -0.61892796582E+01  0.15831735036E+02  0.51100000000E-03 0.  1.
         12    1    3    3    0    0 -0.10771436796E+01 -0.40034162870E+01 -0.30070479885E+01  0.51215152131E+01  0.00000000000E+00 0. -1.
</event>
<event>
 7    1  0.5525118E-011  0.5052886E+02  0.7816164E-02  0.1300439E+00
        -11   -1    0    0    0    0  0.00000000000E+00  0.00000000000E+00  0.45593999997E+02  0.45594000000E+02  0.51100000000E-03 0.  1.
         11   -1    0    0    0    0 -0.00000000000E+00 -0.00000000000E+00 -0.45593999997E+02  0.45594000000E+02  0.51100000000E-03 0. -1.
    9900012    2    1    2    0    0 -0.27590546742E+02 -0.29160775567E+02  0.64480126754E+01  0.50528856272E+02  0.29999989125E+02 0.  0.
        -12    1    1    2    0    0  0.27590546742E+02  0.29160775567E+02 -0.64480126754E+01  0.40659143728E+02  0.00000000000E+00 0.  1.
         11    1    3    3    0    0 -0.76281349477E+01 -0.20614264089E+02 -0.69327230270E+01  0.23047754241E+02  0.51100000000E-03 0. -1.
        -11    1    3    3    0    0 -0.61255450063E+00 -0.34443687044E+01  0.41950159892E+01  0.54623308393E+01  0.51100000000E-03 0.  1.
         12    1    3    3    0    0 -0.19349857294E+02 -0.51021427740E+01  0.91857197132E+01  0.22018771192E+02  0.00000000000E+00 0. -1.
</event>
<event>
 7    1  0.5525118E-011  0.5052886E+02  0.7816164E-02  0.1300439E+00
        -11   -1    0    0    0    0  0.00000000000E+00  0.00000000000E+00  0.45593999997E+02  0.45594000000E+02  0.51100000000E-03 0.  1.
         11   -1    0    0    0    0 -0.00000000000E+00 -0.00000000000E+00 -0.45593999997E+02  0.45594000000E+02  0.51100000000E-03 0. -1.
    9900012    2    1    2    0    0 -0.64594412164E+01  0.25525336167E+02 -0.30982225382E+02  0.50528862566E+02  0.30000008254E+02 0.  0.
        -12    1    1    2    0    0  0.64594412164E+01 -0.25525336167E+02  0.30982225382E+02  0.40659137434E+02  0.00000000000E+00 0.  1.
         11    1    3    3    0    0  0.26162850978E+01  0.26321866161E+02 -0.18546256915E+02  0.32305560384E+02  0.51100000000E-03 0. -1.
        -11    1    3    3    0    0 -0.45429986008E+01 -0.27786155484E+01 -0.12152414370E+02  0.13268033612E+02  0.51100000000E-03 0.  1.
         12    1    3    3    0    0 -0.45327277134E+01  0.19820855546E+01 -0.28355409753E+00  0.49552685695E+01  0.00000000000E+00 0. -1.
</event>
<event>
 7    1  0.5525118E-011  0.5052887E+02  0.7816164E-02  0.1300439E+00
        -11   -1    0    0    0    0  0.00000000000E+00  0.00000000000E+00  0.45593999997E+02  0.45594000000E+02  0.51100000000E-03 0. -1.
         11   -1    0    0    0    0 -0.00000000000E+00 -0.00000000000E+00 -0.45593999997E+02  0.45594000000E+02  0.51100000000E-03 0.  1.
    9900012    2    1    2    0    0  0.10804899580E+02  0.37322993333E+02  0.11975533304E+02  0.50528867149E+02  0.30000022186E+02 0.  0.
        -12    1    1    2    0    0 -0.10804899580E+02 -0.37322993333E+02 -0.11975533304E+02  0.40659132851E+02  0.00000000000E+00 0.  1.
         11    1    3    3    0    0 -0.16198046805E+01  0.63041975997E+01  0.37098161257E+01  0.74919563885E+01  0.51100000000E-03 0. -1.
        -11    1    3    3    0    0  0.13733372173E+02  0.24371050101E+02 -0.47393378483E+01  0.28372784808E+02  0.51100000000E-03 0.  1.
        -12    1    3    3    0    0 -0.13086679122E+01  0.66477456322E+01  0.13005055026E+02  0.14664125952E+02  0.00000000000E+00 0.  1.
</event>
<event>
 7    1  0.5525118E-011  0.5052886E+02  0.7816164E-02  0.1300439E+00
        -11   -1    0    0    0    0  0.00000000000E+00  0.00000000000E+00  0.45593999997E+02  0.45594000000E+02  0.51100000000E-03 0.  1.
         11   -1    0    0    0    0 -0.00000000000E+00 -0.00000000000E+00 -0.45593999997E+02  0.45594000000E+02  0.51100000000E-03 0. -1.
    9900012    2    1    2    0    0  0.21410698488E+02  0.22484457638E+02 -0.26252557475E+02  0.50528860572E+02  0.30000002195E+02 0.  0.
        -12    1    1    2    0    0 -0.21410698488E+02 -0.22484457638E+02  0.26252557475E+02  0.40659139428E+02  0.00000000000E+00 0.  1.
         11    1    3    3    0    0 -0.41657058820E+01  0.11284277740E-01 -0.33144773494E+01  0.53234380987E+01  0.51100000000E-03 0.  1.
        -11    1    3    3    0    0  0.23802097285E+02  0.24781969259E+02 -0.24204348990E+02  0.42030183747E+02  0.51100000000E-03 0. -1.
         12    1    3    3    0    0  0.17743070853E+01 -0.23087958988E+01  0.12662688642E+01  0.31752387268E+01  0.00000000000E+00 0. -1.
</event>
<event>
 7    1  0.5525118E-011  0.5052886E+02  0.7816164E-02  0.1300439E+00
        -11   -1    0    0    0    0  0.00000000000E+00  0.00000000000E+00  0.45593999997E+02  0.45594000000E+02  0.51100000000E-03 0.  1.
         11   -1    0    0    0    0 -0.00000000000E+00 -0.00000000000E+00 -0.45593999997E+02  0.45594000000E+02  0.51100000000E-03 0. -1.
    9900012    2    1    2    0    0 -0.15929042304E+02  0.18155139624E+02 -0.32708142410E+02  0.50528855107E+02  0.29999985584E+02 0.  0.
        -12    1    1    2    0    0  0.15929042304E+02 -0.18155139624E+02  0.32708142410E+02  0.40659144893E+02  0.00000000000E+00 0.  1.
         11    1    3    3    0    0 -0.20333380597E+02  0.18338702814E+02 -0.20956773218E+02  0.34481019871E+02  0.51100000000E-03 0. -1.
        -11    1    3    3    0    0  0.69593160606E+01 -0.69190921384E+00 -0.44344651557E+01  0.82810204606E+01  0.51100000000E-03 0.  1.
        -12    1    3    3    0    0 -0.25549777682E+01  0.50834602329E+00 -0.73169040363E+01  0.77668147752E+01  0.00000000000E+00 0.  1.
</event>
<event>
 7    1  0.5525118E-011  0.5052886E+02  0.7816164E-02  0.1300439E+00
        -11   -1    0    0    0    0  0.00000000000E+00  0.00000000000E+00  0.45593999997E+02  0.45594000000E+02  0.51100000000E-03 0. -1.
         11   -1    0    0    0    0 -0.00000000000E+00 -0.00000000000E+00 -0.45593999997E+02  0.45594000000E+02  0.51100000000E-03 0.  1.
    9900012    2    1    2    0    0 -0.79247853350E-02  0.40265633237E+02 -0.56431000551E+01  0.50528857596E+02  0.29999993149E+02 0.  0.
        -12    1    1    2    0    0  0.79247853350E-02 -0.40265633237E+02  0.56431000551E+01  0.40659142404E+02  0.00000000000E+00 0.  1.
         11    1    3    3    0    0 -0.66256196762E+01  0.22983070699E+01  0.34439643023E+00  0.70213717067E+01  0.51100000000E-03 0. -1.
        -11    1    3    3    0    0  0.57724514269E+00  0.17186583027E+02 -0.12092044622E+02  0.21022116722E+02  0.51100000000E-03 0.  1.
         12    1    3    3    0    0  0.60404497482E+01  0.20780743140E+02  0.61045481364E+01  0.22485369167E+02  0.00000000000E+00 0. -1.
</event>
<event>
 7    1  0.5525118E-011  0.5052886E+02  0.7816164E-02  0.1300439E+00
        -11   -1    0    0    0    0  0.00000000000E+00  0.00000000000E+00  0.45593999997E+02  0.45594000000E+02  0.51100000000E-03 0. -1.
         11   -1    0    0    0    0 -0.00000000000E+00 -0.00000000000E+00 -0.45593999997E+02  0.45594000000E+02  0.51100000000E-03 0.  1.
    9900012    2    1    2    0    0  0.22142395155E+02 -0.33662769903E+02  0.54495943027E+01  0.50528858115E+02  0.29999994728E+02 0.  0.
        -12    1    1    2    0    0 -0.22142395155E+02  0.33662769903E+02 -0.54495943027E+01  0.40659141885E+02  0.00000000000E+00 0.  1.
         11    1    3    3    0    0  0.96572987705E+01 -0.16328764154E+02  0.25372774754E+01  0.19139742307E+02  0.51100000000E-03 0. -1.
        -11    1    3    3    0    0  0.11390668563E+02  0.18225633091E+01 -0.16857271705E+01  0.11658076329E+02  0.51100000000E-03 0.  1.
        -12    1    3    3    0    0  0.10944278209E+01 -0.19156569058E+02  0.45980439978E+01  0.19731039480E+02  0.00000000000E+00 0.  1.
</event>
<event>
 7    1  0.5525118E-011  0.5052888E+02  0.7816164E-02  0.1300439E+00
        -11   -1    0    0    0    0  0.00000000000E+00  0.00000000000E+00  0.45593999997E+02  0.45594000000E+02  0.51100000000E-03 0. -1.
         11   -1    0    0    0    0 -0.00000000000E+00 -0.00000000000E+00 -0.45593999997E+02  0.45594000000E+02  0.51100000000E-03 0.  1.
    9900012    2    1    2    0    0  0.86374129362E+01 -0.29396552437E+02  0.26728301231E+02  0.50528876989E+02  0.30000052094E+02 0.  0.
        -12    1    1    2    0    0 -0.86374129362E+01  0.29396552437E+02 -0.26728301231E+02  0.40659123011E+02  0.00000000000E+00 0.  1.
         11    1    3    3    0    0  0.23321853811E+01  0.40331582838E+01  0.93850050973E+01  0.10477775304E+02  0.51100000000E-03 0. -1.
        -11    1    3    3    0    0  0.49591885466E+01 -0.23995359737E+02  0.59819394322E+01  0.25222102204E+02  0.51100000000E-03 0.  1.
         12    1    3    3    0    0  0.13460390085E+01 -0.94343509830E+01  0.11361356701E+02  0.14828999480E+02  0.00000000000E+00 0. -1.
</event>
<event>
 7    1  0.5525118E-011  0.5052886E+02  0.7816164E-02  0.1300439E+00
        -11   -1    0    0    0    0  0.00000000000E+00  0.00000000000E+00  0.45593999997E+02  0.45594000000E+02  0.51100000000E-03 0.  1.
         11   -1    0    0    0    0 -0.00000000000E+00 -0.00000000000E+00 -0.45593999997E+02  0.45594000000E+02  0.51100000000E-03 0. -1.
    9900012    2    1    2    0    0 -0.18369824889E+02 -0.26002515236E+02 -0.25290002992E+02  0.50528861834E+02  0.30000006031E+02 0.  0.
        -12    1    1    2    0    0  0.18369824889E+02  0.26002515236E+02  0.25290002992E+02  0.40659138166E+02  0.00000000000E+00 0.  1.
         11    1    3    3    0    0 -0.10785223900E+02 -0.94238745622E+01 -0.20230754272E+02  0.24787373500E+02  0.51100000000E-03 0. -1.
        -11    1    3    3    0    0 -0.33675767303E+01 -0.15642918205E+02  0.32945868504E+01  0.16336944812E+02  0.51100000000E-03 0.  1.
        -12    1    3    3    0    0 -0.42170242593E+01 -0.93572246913E+00 -0.83538355697E+01  0.94045435226E+01  0.00000000000E+00 0.  1.
</event>
<event>
 7    1  0.5525118E-011  0.5052885E+02  0.7816164E-02  0.1300439E+00
        -11   -1    0    0    0    0  0.00000000000E+00  0.00000000000E+00  0.45593999997E+02  0.45594000000E+02  0.51100000000E-03 0. -1.
         11   -1    0    0    0    0 -0.00000000000E+00 -0.00000000000E+00 -0.45593999997E+02  0.45594000000E+02  0.51100000000E-03 0.  1.
    9900012    2    1    2    0    0  0.29409729941E+02 -0.27681338884E+02  0.46880227168E+01  0.50528852264E+02  0.29999976941E+02 0.  0.
        -12    1    1    2    0    0 -0.29409729941E+02  0.27681338884E+02 -0.46880227168E+01  0.40659147736E+02  0.00000000000E+00 0.  1.
         11    1    3    3    0    0  0.98866895339E+01 -0.14354662648E+02  0.14952250400E+02  0.22964598015E+02  0.51100000000E-03 0. -1.
        -11    1    3    3    0    0  0.51813502003E+01 -0.17780273449E+01 -0.69592057913E+01  0.88565408961E+01  0.51100000000E-03 0.  1.
        -12    1    3    3    0    0  0.14341690207E+02 -0.11548648891E+02 -0.33050218920E+01  0.18707713353E+02  0.00000000000E+00 0.  1.
</event>
<event>
 7    1  0.5525118E-011  0.5052887E+02  0.7816164E-02  0.1300439E+00
        -11   -1    0    0    0    0  0.00000000000E+00  0.00000000000E+00  0.45593999997E+02  0.45594000000E+02  0.51100000000E-03 0.  1.
         11   -1    0    0    0    0 -0.00000000000E+00 -0.00000000000E+00 -0.45593999997E+02  0.45594000000E+02  0.51100000000E-03 0. -1.
    9900012    2    1    2    0    0  0.15806851297E+02 -0.26086007149E+02 -0.26885473713E+02  0.50528868017E+02  0.30000024823E+02 0.  0.
        -12    1    1    2    0    0 -0.15806851297E+02  0.26086007149E+02  0.26885473713E+02  0.40659131983E+02  0.00000000000E+00 0.  1.
         11    1    3    3    0    0  0.15333730822E+02 -0.25390797174E+02 -0.25738969470E+02  0.39272260334E+02  0.51100000000E-03 0. -1.
        -11    1    3    3    0    0 -0.45903138549E+01 -0.31395749407E+01 -0.85359099219E+00  0.56264135947E+01  0.51100000000E-03 0.  1.
         12    1    3    3    0    0  0.50634343298E+01  0.24443649661E+01 -0.29291325038E+00  0.56301940883E+01  0.00000000000E+00 0. -1.
</event>
<event>
 7    1  0.5525118E-011  0.5052885E+02  0.7816164E-02  0.1300439E+00
        -11   -1    0    0    0    0  0.00000000000E+00  0.00000000000E+00  0.45593999997E+02  0.45594000000E+02  0.51100000000E-03 0. -1.
         11   -1    0    0    0    0 -0.00000000000E+00 -0.00000000000E+00 -0.45593999997E+02  0.45594000000E+02  0.51100000000E-03 0.  1.
    9900012    2    1    2    0    0  0.39050106798E+01 -0.28111570462E+02  0.29114544144E+02  0.50528853637E+02  0.29999981115E+02 0.  0.
        -12    1    1    2    0    0 -0.39050106798E+01  0.28111570462E+02 -0.29114544144E+02  0.40659146363E+02  0.00000000000E+00 0.  1.
         11    1    3    3    0    0 -0.87170692673E+01 -0.86574979633E+01  0.13654932998E+02  0.18368363102E+02  0.51100000000E-03 0. -1.
        -11    1    3    3    0    0  0.95203164805E+01 -0.62156769904E+01 -0.26460911905E+00  0.11372822191E+02  0.51100000000E-03 0.  1.
        -12    1    3    3    0    0  0.31017634666E+01 -0.13238395508E+02  0.15724220266E+02  0.20787668344E+02  0.00000000000E+00 0.  1.
</event>
<event>
 7    1  0.5525118E-011  0.5052886E+02  0.7816164E-02  0.1300439E+00
        -11   -1    0    0    0    0  0.00000000000E+00  0.00000000000E+00  0.45593999997E+02  0.45594000000E+02  0.51100000000E-03 0.  1.
         11   -1    0    0    0    0 -0.00000000000E+00 -0.00000000000E+00 -0.45593999997E+02  0.45594000000E+02  0.51100000000E-03 0. -1.
    9900012    2    1    2    0    0 -0.68553909460E+01 -0.28396541216E+02 -0.28280835319E+02  0.50528860998E+02  0.30000003489E+02 0.  0.
        -12    1    1    2    0    0  0.68553909460E+01  0.28396541216E+02  0.28280835319E+02  0.40659139002E+02  0.00000000000E+00 0.  1.
         11    1    3    3    0    0  0.58555539801E+01 -0.14401818288E+02 -0.22263553759E+02  0.27154478612E+02  0.51100000000E-03 0. -1.
        -11    1    3    3    0    0 -0.10958700985E+02 -0.86608253690E+01 -0.93844944251E+01  0.16827708080E+02  0.51100000000E-03 0.  1.
         12    1    3    3    0    0 -0.17522439412E+01 -0.53338975586E+01  0.33672128650E+01  0.65466743063E+01  0.00000000000E+00 0. -1.
</event>
<event>
 7    1  0.5525118E-011  0.5052886E+02  0.7816164E-02  0.1300439E+00
        -11   -1    0    0    0    0  0.00000000000E+00  0.00000000000E+00  0.45593999997E+02  0.45594000000E+02  0.51100000000E-03 0.  1.
         11   -1    0    0    0    0 -0.00000000000E+00 -0.00000000000E+00 -0.45593999997E+02  0.45594000000E+02  0.51100000000E-03 0. -1.
    9900012    2    1    2    0    0  0.39493779529E+02 -0.77133598791E+01 -0.58233212721E+01  0.50528860650E+02  0.30000002431E+02 0.  0.
        -12    1    1    2    0    0 -0.39493779529E+02  0.77133598791E+01  0.58233212721E+01  0.40659139350E+02  0.00000000000E+00 0.  1.
         11    1    3    3    0    0 -0.39064329539E+00 -0.73374242988E+01 -0.61641080070E+01  0.95909658173E+01  0.51100000000E-03 0. -1.
        -11    1    3    3    0    0  0.77525859901E+01  0.25316102488E+01  0.26944326881E+01  0.85890399788E+01  0.51100000000E-03 0.  1.
         12    1    3    3    0    0  0.32131836834E+02 -0.29075458292E+01 -0.23536459532E+01  0.32348854854E+02  0.00000000000E+00 0. -1.
</event>
<event>
 7    1  0.5525118E-011  0.5052887E+02  0.7816164E-02  0.1300439E+00
        -11   -1    0    0    0    0  0.00000000000E+00  0.00000000000E+00  0.45593999997E+02  0.45594000000E+02  0.51100000000E-03 0. -1.
         11   -1    0    0    0    0 -0.00000000000E+00 -0.00000000000E+00 -0.45593999997E+02  0.45594000000E+02  0.51100000000E-03 0.  1.
    9900012    2    1    2    0    0  0.66580682455E+01 -0.38725006926E+02  0.10450313784E+02  0.50528867049E+02  0.30000021882E+02 0.  0.
        -12    1    1    2    0    0 -0.66580682455E+01  0.38725006926E+02 -0.10450313784E+02  0.40659132951E+02  0.00000000000E+00 0.  1.
         11    1    3    3    0    0  0.45815564197E+01 -0.27757023914E+02  0.19963935952E+02  0.34496402345E+02  0.51100000000E-03 0. -1.
        -11    1    3    3    0    0  0.22185407223E+01 -0.93683055305E+01 -0.10421338027E+02  0.14187718561E+02  0.51100000000E-03 0.  1.
        -12    1    3    3    0    0 -0.14202889645E+00 -0.15996774809E+01  0.90771585832E+00  0.18447461424E+01  0.00000000000E+00 0.  1.
</event>
<event>
 7    1  0.5525118E-011  0.5052885E+02  0.7816164E-02  0.1300439E+00
        -11   -1    0    0    0    0  0.00000000000E+00  0.00000000000E+00  0.45593999997E+02  0.45594000000E+02  0.51100000000E-03 0.  1.
         11   -1    0    0    0    0 -0.00000000000E+00 -0.00000000000E+00 -0.45593999997E+02  0.45594000000E+02  0.51100000000E-03 0. -1.
    9900012    2    1    2    0    0  0.39970862299E+02 -0.74442903152E+01  0.28121755773E+00  0.50528851281E+02  0.29999973955E+02 0.  0.
        -12    1    1    2    0    0 -0.39970862299E+02  0.74442903152E+01 -0.28121755773E+00  0.40659148719E+02  0.00000000000E+00 0.  1.
         11    1    3    3    0    0  0.14668563160E+02 -0.31381980708E+01 -0.84962257481E+01  0.17239515206E+02  0.51100000000E-03 0. -1.
        -11    1    3    3    0    0 -0.64739364360E+00 -0.15873257795E+01  0.69226712299E+01  0.71317668833E+01  0.51100000000E-03 0.  1.
         12    1    3    3    0    0  0.25949692782E+02 -0.27187664648E+01  0.18547720759E+01  0.26157569192E+02  0.00000000000E+00 0. -1.
</event>
<event>
 7    1  0.5525118E-011  0.5052887E+02  0.7816164E-02  0.1300439E+00
        -11   -1    0    0    0    0  0.00000000000E+00  0.00000000000E+00  0.45593999997E+02  0.45594000000E+02  0.51100000000E-03 0.  1.
         11   -1    0    0    0    0 -0.00000000000E+00 -0.00000000000E+00 -0.45593999997E+02  0.45594000000E+02  0.51100000000E-03 0. -1.
    9900012    2    1    2    0    0  0.14625382998E+02  0.15122574086E+02 -0.34793256330E+02  0.50528871125E+02  0.30000034272E+02 0.  0.
        -12    1    1    2    0    0 -0.14625382998E+02 -0.15122574086E+02  0.34793256330E+02  0.40659128875E+02  0.00000000000E+00 0.  1.
         11    1    3    3    0    0  0.12160578285E+02  0.92799027816E+01 -0.11261467557E+02  0.18995181275E+02  0.51100000000E-03 0. -1.
        -11    1    3    3    0    0 -0.12431277541E+01  0.84858066631E+01 -0.25249976465E+02  0.26666750704E+02  0.51100000000E-03 0.  1.
        -12    1    3    3    0    0  0.37079324669E+01 -0.26431353590E+01  0.17181876928E+01  0.48669391461E+01  0.00000000000E+00 0.  1.
</event>
<event>
 7    1  0.5525118E-011  0.5052884E+02  0.7816164E-02  0.1300439E+00
        -11   -1    0    0    0    0  0.00000000000E+00  0.00000000000E+00  0.45593999997E+02  0.45594000000E+02  0.51100000000E-03 0.  1.
         11   -1    0    0    0    0 -0.00000000000E+00 -0.00000000000E+00 -0.45593999997E+02  0.45594000000E+02  0.51100000000E-03 0. -1.
    9900012    2    1    2    0    0 -0.50102011731E+01  0.19420187242E+00 -0.40348825636E+02  0.50528836699E+02  0.29999929629E+02 0.  0.
        -12    1    1    2    0    0  0.50102011731E+01 -0.19420187242E+00  0.40348825636E+02  0.40659163301E+02  0.00000000000E+00 0.  1.
         11    1    3    3    0    0 -0.14695979832E+02  0.86541942930E-01 -0.21636666063E+02  0.26155776251E+02  0.51100000000E-03 0. -1.
        -11    1    3    3    0    0  0.71562676553E+01 -0.28610679164E+00 -0.19584930290E+01  0.74249389934E+01  0.51100000000E-03 0.  1.
         12    1    3    3    0    0  0.25295110034E+01  0.39376672113E+00 -0.16753666544E+02  0.16948121454E+02  0.00000000000E+00 0. -1.
</event>
<event>
 7    1  0.5525118E-011  0.5052885E+02  0.7816164E-02  0.1300439E+00
        -11   -1    0    0    0    0  0.00000000000E+00  0.00000000000E+00  0.45593999997E+02  0.45594000000E+02  0.51100000000E-03 0.  1.
         11   -1    0    0    0    0 -0.00000000000E+00 -0.00000000000E+00 -0.45593999997E+02  0.45594000000E+02  0.51100000000E-03 0. -1.
    9900012    2    1    2    0    0 -0.24190105974E+02  0.31970740179E+02 -0.67732558853E+01  0.50528850354E+02  0.29999971136E+02 0.  0.
        -12    1    1    2    0    0  0.24190105974E+02 -0.31970740179E+02  0.67732558853E+01  0.40659149646E+02  0.00000000000E+00 0.  1.
         11    1    3    3    0    0  0.22495440659E+01  0.59433056050E+01 -0.44636355222E+01  0.77657821470E+01  0.51100000000E-03 0. -1.
        -11    1    3    3    0    0 -0.21926003557E+02  0.28626246499E+02  0.18376450810E+01  0.36105242837E+02  0.51100000000E-03 0.  1.
        -12    1    3    3    0    0 -0.45136464823E+01 -0.25988119251E+01 -0.41472654440E+01  0.66578253697E+01  0.00000000000E+00 0.  1.
</event>
<event>
 7    1  0.5525118E-011  0.5052886E+02  0.7816164E-02  0.1300439E+00
        -11   -1    0    0    0    0  0.00000000000E+00  0.00000000000E+00  0.45593999997E+02  0.45594000000E+02  0.51100000000E-03 0.  1.
         11   -1    0    0    0    0 -0.00000000000E+00 -0.00000000000E+00 -0.45593999997E+02  0.45594000000E+02  0.51100000000E-03 0. -1.
    9900012    2    1    2    0    0 -0.31755269827E+01  0.15173453720E+02 -0.37587867347E+02  0.50528862760E+02  0.30000008845E+02 0.  0.
        -12    1    1    2    0    0  0.31755269827E+01 -0.15173453720E+02  0.37587867347E+02  0.40659137240E+02  0.00000000000E+00 0.  1.
         11    1    3    3    0    0 -0.95644569538E+00  0.22226489316E+02 -0.27951360344E+02  0.35724083767E+02  0.51100000000E-03 0. -1.
        -11    1    3    3    0    0 -0.29138425121E+01 -0.46661432598E+01 -0.10753852659E+02  0.12079268123E+02  0.51100000000E-03 0.  1.
         12    1    3    3    0    0  0.69476122483E+00 -0.23868923369E+01  0.11173456557E+01  0.27255108699E+01  0.00000000000E+00 0. -1.
</event>
<event>
 7    1  0.5525118E-011  0.5052886E+02  0.7816164E-02  0.1300439E+00
        -11   -1    0    0    0    0  0.00000000000E+00  0.00000000000E+00  0.45593999997E+02  0.45594000000E+02  0.51100000000E-03 0.  1.
         11   -1    0    0    0    0 -0.00000000000E+00 -0.00000000000E+00 -0.45593999997E+02  0.45594000000E+02  0.51100000000E-03 0. -1.
    9900012    2    1    2    0    0  0.33923063423E+02 -0.19121429387E+02 -0.11694559036E+02  0.50528855827E+02  0.29999987773E+02 0.  0.
        -12    1    1    2    0    0 -0.33923063423E+02  0.19121429387E+02  0.11694559036E+02  0.40659144173E+02  0.00000000000E+00 0.  1.
         11    1    3    3    0    0  0.16528376580E+02 -0.18697659472E+02  0.36254339423E+01  0.25217721420E+02  0.51100000000E-03 0. -1.
        -11    1    3    3    0    0  0.10234646445E+02  0.32720736372E+01 -0.41066457095E+01  0.11502999304E+02  0.51100000000E-03 0.  1.
         12    1    3    3    0    0  0.71600403979E+01 -0.36958435527E+01 -0.11213347269E+02  0.13808135103E+02  0.00000000000E+00 0. -1.
</event>
<event>
 7    1  0.5525118E-011  0.5052886E+02  0.7816164E-02  0.1300439E+00
        -11   -1    0    0    0    0  0.00000000000E+00  0.00000000000E+00  0.45593999997E+02  0.45594000000E+02  0.51100000000E-03 0. -1.
         11   -1    0    0    0    0 -0.00000000000E+00 -0.00000000000E+00 -0.45593999997E+02  0.45594000000E+02  0.51100000000E-03 0.  1.
    9900012    2    1    2    0    0  0.35206229732E+02 -0.11769869960E+02  0.16587862787E+02  0.50528860282E+02  0.30000001313E+02 0.  0.
        -12    1    1    2    0    0 -0.35206229732E+02  0.11769869960E+02 -0.16587862787E+02  0.40659139718E+02  0.00000000000E+00 0.  1.
         11    1    3    3    0    0  0.29286205521E+02 -0.20393010470E+02  0.17907236262E+02  0.39927757521E+02  0.51100000000E-03 0. -1.
        -11    1    3    3    0    0  0.22233925171E+01  0.42116548743E+01 -0.65492470391E+00  0.48073316605E+01  0.51100000000E-03 0.  1.
         12    1    3    3    0    0  0.36966316935E+01  0.44114856359E+01 -0.66444877125E+00  0.57937711003E+01  0.00000000000E+00 0. -1.
</event>
<event>
 7    1  0.5525118E-011  0.5052889E+02  0.7816164E-02  0.1300439E+00
        -11   -1    0    0    0    0  0.00000000000E+00  0.00000000000E+00  0.45593999997E+02  0.45594000000E+02  0.51100000000E-03 0. -1.
         11   -1    0    0    0    0 -0.00000000000E+00 -0.00000000000E+00 -0.45593999997E+02  0.45594000000E+02  0.51100000000E-03 0.  1.
    9900012    2    1    2    0    0 -0.15636384993E+02  0.15049221263E+02  0.34382954319E+02  0.50528891009E+02  0.30000094709E+02 0.  0.
        -12    1    1    2    0    0  0.15636384993E+02 -0.15049221263E+02 -0.34382954319E+02  0.40659108991E+02  0.00000000000E+00 0.  1.
         11    1    3    3    0    0 -0.60705213738E+01  0.18535542011E+02  0.14427452594E+02  0.24260439733E+02  0.51100000000E-03 0. -1.
        -11    1    3    3    0    0 -0.10206337995E+02 -0.29468450122E+01  0.21795649577E+02  0.24246722903E+02  0.51100000000E-03 0.  1.
        -12    1    3    3    0    0  0.64047437616E+00 -0.53947573549E+00 -0.18401478522E+01  0.20217283729E+01  0.00000000000E+00 0.  1.
</event>
<event>
 7    1  0.5525118E-011  0.5052883E+02  0.7816164E-02  0.1300439E+00
        -11   -1    0    0    0    0  0.00000000000E+00  0.00000000000E+00  0.45593999997E+02  0.45594000000E+02  0.51100000000E-03 0.  1.
         11   -1    0    0    0    0 -0.00000000000E+00 -0.00000000000E+00 -0.45593999997E+02  0.45594000000E+02  0.51100000000E-03 0. -1.
    9900012    2    1    2    0    0 -0.21679362912E+02  0.34220744293E+02  0.34805710896E+01  0.50528825250E+02  0.29999894828E+02 0.  0.
        -12    1    1    2    0    0  0.21679362912E+02 -0.34220744293E+02 -0.34805710896E+01  0.40659174750E+02  0.00000000000E+00 0.  1.
         11    1    3    3    0    0 -0.19532088013E+02  0.20141029727E+02  0.10129030492E+02  0.29828858503E+02  0.51100000000E-03 0. -1.
        -11    1    3    3    0    0 -0.12646138390E+01  0.15729264713E+02 -0.22750175638E+01  0.15943171634E+02  0.51100000000E-03 0.  1.
         12    1    3    3    0    0 -0.88266105976E+00 -0.16495501462E+01 -0.43734418385E+01  0.47567951129E+01  0.00000000000E+00 0. -1.
</event>
<event>
 7    1  0.5525118E-011  0.5052884E+02  0.7816164E-02  0.1300439E+00
        -11   -1    0    0    0    0  0.00000000000E+00  0.00000000000E+00  0.45593999997E+02  0.45594000000E+02  0.51100000000E-03 0. -1.
         11   -1    0    0    0    0 -0.00000000000E+00 -0.00000000000E+00 -0.45593999997E+02  0.45594000000E+02  0.51100000000E-03 0.  1.
    9900012    2    1    2    0    0  0.61274497718E+01 -0.27369934905E+02  0.29436514410E+02  0.50528839187E+02  0.29999937193E+02 0.  0.
        -12    1    1    2    0    0 -0.61274497718E+01  0.27369934905E+02 -0.29436514410E+02  0.40659160813E+02  0.00000000000E+00 0.  1.
         11    1    3    3    0    0 -0.60500948766E+01 -0.17183006173E+02  0.49168554824E+01  0.18868884897E+02  0.51100000000E-03 0. -1.
        -11    1    3    3    0    0  0.10818104596E+02 -0.12306993546E+02  0.24044668810E+02  0.29097071600E+02  0.51100000000E-03 0.  1.
         12    1    3    3    0    0  0.13594400519E+01  0.21200648149E+01  0.47499011712E+00  0.25628826905E+01  0.00000000000E+00 0. -1.
</event>
<event>
 7    1  0.5525118E-011  0.5052885E+02  0.7816164E-02  0.1300439E+00
        -11   -1    0    0    0    0  0.00000000000E+00  0.00000000000E+00  0.45593999997E+02  0.45594000000E+02  0.51100000000E-03 0.  1.
         11   -1    0    0    0    0 -0.00000000000E+00 -0.00000000000E+00 -0.45593999997E+02  0.45594000000E+02  0.51100000000E-03 0. -1.
    9900012    2    1    2    0    0 -0.23777759589E+02  0.28671683804E+02 -0.16300885451E+02  0.50528853800E+02  0.29999981610E+02 0.  0.
        -12    1    1    2    0    0  0.23777759589E+02 -0.28671683804E+02  0.16300885451E+02  0.40659146200E+02  0.00000000000E+00 0.  1.
         11    1    3    3    0    0 -0.86623289708E+01  0.94859130504E+00 -0.13052356587E+02  0.15693940913E+02  0.51100000000E-03 0. -1.
        -11    1    3    3    0    0 -0.87120376527E+01  0.23229574316E+02 -0.75171217990E+01  0.25923345528E+02  0.51100000000E-03 0.  1.
         12    1    3    3    0    0 -0.64033929658E+01  0.44935181827E+01  0.42685929351E+01  0.89115673581E+01  0.00000000000E+00 0. -1.
</event>
<event>
 7    1  0.5525118E-011  0.5052887E+02  0.7816164E-02  0.1300439E+00
        -11   -1    0    0    0    0  0.00000000000E+00  0.00000000000E+00  0.45593999997E+02  0.45594000000E+02  0.51100000000E-03 0. -1.
         11   -1    0    0    0    0 -0.00000000000E+00 -0.00000000000E+00 -0.45593999997E+02  0.45594000000E+02  0.51100000000E-03 0.  1.
    9900012    2    1    2    0    0 -0.57887977650E+01  0.36945798898E+02  0.15958145287E+02  0.50528872651E+02  0.30000038910E+02 0.  0.
        -12    1    1    2    0    0  0.57887977650E+01 -0.36945798898E+02 -0.15958145287E+02  0.40659127349E+02  0.00000000000E+00 0.  1.
         11    1    3    3    0    0 -0.68273471759E+01  0.12051554174E+01  0.11720909659E+02  0.13617811592E+02  0.51100000000E-03 0. -1.
        -11    1    3    3    0    0 -0.13854298803E+01  0.14000807632E+02 -0.18875133701E+01  0.14195236429E+02  0.51100000000E-03 0.  1.
         12    1    3    3    0    0  0.24239792913E+01  0.21739835849E+02  0.61247489982E+01  0.22715824630E+02  0.00000000000E+00 0. -1.
</event>
<event>
 7    1  0.5525118E-011  0.5052886E+02  0.7816164E-02  0.1300439E+00
        -11   -1    0    0    0    0  0.00000000000E+00  0.00000000000E+00  0.45593999997E+02  0.45594000000E+02  0.51100000000E-03 0.  1.
         11   -1    0    0    0    0 -0.00000000000E+00 -0.00000000000E+00 -0.45593999997E+02  0.45594000000E+02  0.51100000000E-03 0. -1.
    9900012    2    1    2    0    0 -0.31438076602E+01  0.13589792719E+02 -0.38191619578E+02  0.50528858362E+02  0.29999995478E+02 0.  0.
        -12    1    1    2    0    0  0.31438076602E+01 -0.13589792719E+02  0.38191619578E+02  0.40659141638E+02  0.00000000000E+00 0.  1.
         11    1    3    3    0    0 -0.73801697040E+01  0.46636755114E+01 -0.28235793558E+02  0.29554641129E+02  0.51100000000E-03 0. -1.
        -11    1    3    3    0    0  0.66621966997E+01 -0.82619645576E+00  0.15995867346E+00  0.67151360736E+01  0.51100000000E-03 0.  1.
         12    1    3    3    0    0 -0.24258346559E+01  0.97523136635E+01 -0.10115784693E+02  0.14259081160E+02  0.00000000000E+00 0. -1.
</event>
<event>
 7    1  0.5525118E-011  0.5052886E+02  0.7816164E-02  0.1300439E+00
        -11   -1    0    0    0    0  0.00000000000E+00  0.00000000000E+00  0.45593999997E+02  0.45594000000E+02  0.51100000000E-03 0.  1.
         11   -1    0    0    0    0 -0.00000000000E+00 -0.00000000000E+00 -0.45593999997E+02  0.45594000000E+02  0.51100000000E-03 0. -1.
    9900012    2    1    2    0    0  0.23632164652E+02 -0.55371012214E+01 -0.32619427553E+02  0.50528858962E+02  0.29999997300E+02 0.  0.
        -12    1    1    2    0    0 -0.23632164652E+02  0.55371012214E+01  0.32619427553E+02  0.40659141038E+02  0.00000000000E+00 0.  1.
         11    1    3    3    0    0  0.13227611172E+02  0.33806002688E+01 -0.17682785000E+02  0.22340077017E+02  0.51100000000E-03 0. -1.
        -11    1    3    3    0    0  0.94032894157E+01 -0.75077541312E+01  0.10780492460E+01  0.12080993931E+02  0.51100000000E-03 0.  1.
        -12    1    3    3    0    0  0.10012640642E+01 -0.14099473590E+01 -0.16014691798E+02  0.16107788013E+02  0.00000000000E+00 0.  1.
</event>
<event>
 7    1  0.5525118E-011  0.5052885E+02  0.7816164E-02  0.1300439E+00
        -11   -1    0    0    0    0  0.00000000000E+00  0.00000000000E+00  0.45593999997E+02  0.45594000000E+02  0.51100000000E-03 0.  1.
         11   -1    0    0    0    0 -0.00000000000E+00 -0.00000000000E+00 -0.45593999997E+02  0.45594000000E+02  0.51100000000E-03 0. -1.
    9900012    2    1    2    0    0  0.26253014356E+02 -0.24554110132E+02  0.19001083709E+02  0.50528852576E+02  0.29999977890E+02 0.  0.
        -12    1    1    2    0    0 -0.26253014356E+02  0.24554110132E+02 -0.19001083709E+02  0.40659147424E+02  0.00000000000E+00 0.  1.
         11    1    3    3    0    0 -0.17132553555E+01 -0.14212638367E+02  0.85570049635E+01  0.16678029484E+02  0.51100000000E-03 0. -1.
        -11    1    3    3    0    0  0.10870077525E+02  0.12748003244E+01  0.67366938714E+01  0.12851721513E+02  0.51100000000E-03 0.  1.
         12    1    3    3    0    0  0.17096192186E+02 -0.11616272090E+02  0.37073848740E+01  0.20999101579E+02  0.00000000000E+00 0. -1.
</event>
<event>
 7    1  0.5525118E-011  0.5052885E+02  0.7816164E-02  0.1300439E+00
        -11   -1    0    0    0    0  0.00000000000E+00  0.00000000000E+00  0.45593999997E+02  0.45594000000E+02  0.51100000000E-03 0. -1.
         11   -1    0    0    0    0 -0.00000000000E+00 -0.00000000000E+00 -0.45593999997E+02  0.45594000000E+02  0.51100000000E-03 0.  1.
    9900012    2    1    2    0    0  0.28360606595E+01  0.32526280031E+02  0.24231467055E+02  0.50528854309E+02  0.29999983156E+02 0.  0.
        -12    1    1    2    0    0 -0.28360606595E+01 -0.32526280031E+02 -0.24231467055E+02  0.40659145691E+02  0.00000000000E+00 0.  1.
         11    1    3    3    0    0  0.76484335673E+01  0.15692257772E+02 -0.11432127325E+01  0.17494354107E+02  0.51100000000E-03 0. -1.
        -11    1    3    3    0    0  0.35898306074E+01  0.52180367224E+01  0.11242146849E+02  0.12903513361E+02  0.51100000000E-03 0.  1.
         12    1    3    3    0    0 -0.84022035152E+01  0.11615985536E+02  0.14132532939E+02  0.20130986840E+02  0.00000000000E+00 0. -1.
</event>
<event>
 7    1  0.5525118E-011  0.5052887E+02  0.7816164E-02  0.1300439E+00
        -11   -1    0    0    0    0  0.00000000000E+00  0.00000000000E+00  0.45593999997E+02  0.45594000000E+02  0.51100000000E-03 0.  1.
         11   -1    0    0    0    0 -0.00000000000E+00 -0.00000000000E+00 -0.45593999997E+02  0.45594000000E+02  0.51100000000E-03 0. -1.
    9900012    2    1    2    0    0  0.17563883131E+02 -0.29152117115E+02 -0.22244741862E+02  0.50528874783E+02  0.30000045389E+02 0.  0.
        -12    1    1    2    0    0 -0.17563883131E+02  0.29152117115E+02  0.22244741862E+02  0.40659125217E+02  0.00000000000E+00 0.  1.
         11    1    3    3    0    0  0.68088014625E+01 -0.14675229001E+02 -0.18363079798E+02  0.24472940639E+02  0.51100000000E-03 0. -1.
        -11    1    3    3    0    0  0.27847650847E+01 -0.42957670944E+01  0.73309147610E+01  0.89415235280E+01  0.51100000000E-03 0.  1.
        -12    1    3    3    0    0  0.79703165841E+01 -0.10181121019E+02 -0.11212576825E+02  0.17114410616E+02  0.00000000000E+00 0.  1.
</event>
<event>
 7    1  0.5525118E-011  0.5052886E+02  0.7816164E-02  0.1300439E+00
        -11   -1    0    0    0    0  0.00000000000E+00  0.00000000000E+00  0.45593999997E+02  0.45594000000E+02  0.51100000000E-03 0. -1.
         11   -1    0    0    0    0 -0.00000000000E+00 -0.00000000000E+00 -0.45593999997E+02  0.45594000000E+02  0.51100000000E-03 0.  1.
    9900012    2    1    2    0    0 -0.33607206745E+02 -0.21702719928E+02 -0.72603963424E+01  0.50528858930E+02  0.29999997205E+02 0.  0.
        -12    1    1    2    0    0  0.33607206745E+02  0.21702719928E+02  0.72603963424E+01  0.40659141070E+02  0.00000000000E+00 0.  1.
         11    1    3    3    0    0 -0.25816379429E+02 -0.15866100794E+01 -0.64327143672E+01  0.26653003448E+02  0.51100000000E-03 0. -1.
        -11    1    3    3    0    0 -0.45469281212E+00 -0.13983713248E+02  0.13912714316E+01  0.14060107333E+02  0.51100000000E-03 0.  1.
         12    1    3    3    0    0 -0.73361345036E+01 -0.61323966004E+01 -0.22189534068E+01  0.98157481498E+01  0.00000000000E+00 0. -1.
</event>
<event>
 7    1  0.5525118E-011  0.5052886E+02  0.7816164E-02  0.1300439E+00
        -11   -1    0    0    0    0  0.00000000000E+00  0.00000000000E+00  0.45593999997E+02  0.45594000000E+02  0.51100000000E-03 0.  1.
         11   -1    0    0    0    0 -0.00000000000E+00 -0.00000000000E+00 -0.45593999997E+02  0.45594000000E+02  0.51100000000E-03 0. -1.
    9900012    2    1    2    0    0 -0.11564440881E+02  0.23104782426E+02 -0.31394243180E+02  0.50528858731E+02  0.29999996599E+02 0.  0.
        -12    1    1    2    0    0  0.11564440881E+02 -0.23104782426E+02  0.31394243180E+02  0.40659141269E+02  0.00000000000E+00 0.  1.
         11    1    3    3    0    0  0.65109603368E+01  0.10043154819E+02 -0.35387515318E+01  0.12481198896E+02  0.51100000000E-03 0. -1.
        -11    1    3    3    0    0 -0.16662690994E+02  0.12585390557E+02 -0.29294878423E+02  0.35975369751E+02  0.51100000000E-03 0.  1.
        -12    1    3    3    0    0 -0.14127102242E+01  0.47623705032E+00  0.14393867745E+01  0.20722900840E+01  0.00000000000E+00 0.  1.
</event>
<event>
 7    1  0.5525118E-011  0.5052889E+02  0.7816164E-02  0.1300439E+00
        -11   -1    0    0    0    0  0.00000000000E+00  0.00000000000E+00  0.45593999997E+02  0.45594000000E+02  0.51100000000E-03 0. -1.
         11   -1    0    0    0    0 -0.00000000000E+00 -0.00000000000E+00 -0.45593999997E+02  0.45594000000E+02  0.51100000000E-03 0.  1.
    9900012    2    1    2    0    0 -0.13239350624E+01 -0.17862850977E+02  0.36501079366E+02  0.50528892238E+02  0.30000098447E+02 0.  0.
        -12    1    1    2    0    0  0.13239350624E+01  0.17862850977E+02 -0.36501079366E+02  0.40659107762E+02  0.00000000000E+00 0.  1.
         11    1    3    3    0    0 -0.23160754804E+01 -0.41992322244E+01  0.28671206476E+02  0.29069500133E+02  0.51100000000E-03 0. -1.
        -11    1    3    3    0    0  0.61632750394E+01 -0.13284087709E+01  0.81818545345E+00  0.63576769949E+01  0.51100000000E-03 0.  1.
         12    1    3    3    0    0 -0.51711346214E+01 -0.12335209982E+02  0.70116874366E+01  0.15101715110E+02  0.00000000000E+00 0. -1.
</event>
<event>
 7    1  0.5525118E-011  0.5052886E+02  0.7816164E-02  0.1300439E+00
        -11   -1    0    0    0    0  0.00000000000E+00  0.00000000000E+00  0.45593999997E+02  0.45594000000E+02  0.51100000000E-03 0.  1.
         11   -1    0    0    0    0 -0.00000000000E+00 -0.00000000000E+00 -0.45593999997E+02  0.45594000000E+02  0.51100000000E-03 0. -1.
    9900012    2    1    2    0    0 -0.12276020204E+02  0.31726717438E+02 -0.22268370399E+02  0.50528860908E+02  0.30000003217E+02 0.  0.
        -12    1    1    2    0    0  0.12276020204E+02 -0.31726717438E+02  0.22268370399E+02  0.40659139092E+02  0.00000000000E+00 0.  1.
         11    1    3    3    0    0  0.55082001388E+01  0.25631709992E+02 -0.15348393971E+02  0.30379236719E+02  0.51100000000E-03 0. -1.
        -11    1    3    3    0    0 -0.73807925150E+01  0.14116485045E+01 -0.26747417257E+01  0.79764085408E+01  0.51100000000E-03 0.  1.
         12    1    3    3    0    0 -0.10403427828E+02  0.46833589419E+01 -0.42452347026E+01  0.12173215649E+02  0.00000000000E+00 0. -1.
</event>
<event>
 7    1  0.5525118E-011  0.5052887E+02  0.7816164E-02  0.1300439E+00
        -11   -1    0    0    0    0  0.00000000000E+00  0.00000000000E+00  0.45593999997E+02  0.45594000000E+02  0.51100000000E-03 0.  1.
         11   -1    0    0    0    0 -0.00000000000E+00 -0.00000000000E+00 -0.45593999997E+02  0.45594000000E+02  0.51100000000E-03 0. -1.
    9900012    2    1    2    0    0  0.34861820510E+02  0.10928315103E+02 -0.17843492614E+02  0.50528870288E+02  0.30000031728E+02 0.  0.
        -12    1    1    2    0    0 -0.34861820510E+02 -0.10928315103E+02  0.17843492614E+02  0.40659129712E+02  0.00000000000E+00 0.  1.
         11    1    3    3    0    0  0.11093509573E+02  0.11703753281E+02 -0.54518821419E+01  0.17022538432E+02  0.51100000000E-03 0. -1.
        -11    1    3    3    0    0  0.23697037030E+02 -0.56889177620E+01 -0.14275446635E+02  0.28243613901E+02  0.51100000000E-03 0.  1.
        -12    1    3    3    0    0  0.71273907461E-01  0.49134795841E+01  0.18838361627E+01  0.52627179557E+01  0.00000000000E+00 0.  1.
</event>
<event>
 7    1  0.5525118E-011  0.5052886E+02  0.7816164E-02  0.1300439E+00
        -11   -1    0    0    0    0  0.00000000000E+00  0.00000000000E+00  0.45593999997E+02  0.45594000000E+02  0.51100000000E-03 0.  1.
         11   -1    0    0    0    0 -0.00000000000E+00 -0.00000000000E+00 -0.45593999997E+02  0.45594000000E+02  0.51100000000E-03 0. -1.
    9900012    2    1    2    0    0 -0.10731518679E+02 -0.39189362043E+02 -0.14813272709E+01  0.50528856859E+02  0.29999990908E+02 0.  0.
        -12    1    1    2    0    0  0.10731518679E+02  0.39189362043E+02  0.14813272709E+01  0.40659143141E+02  0.00000000000E+00 0.  1.
         11    1    3    3    0    0  0.39999135168E-01 -0.20280936016E+02 -0.83600968351E+01  0.21936480688E+02  0.51100000000E-03 0. -1.
        -11    1    3    3    0    0 -0.14968127330E+02 -0.11439849293E+02  0.26043247508E+01  0.19018346281E+02  0.51100000000E-03 0.  1.
         12    1    3    3    0    0  0.41966095159E+01 -0.74685767348E+01  0.42744448134E+01  0.95740298900E+01  0.00000000000E+00 0. -1.
</event>
<event>
 7    1  0.5525118E-011  0.5052886E+02  0.7816164E-02  0.1300439E+00
        -11   -1    0    0    0    0  0.00000000000E+00  0.00000000000E+00  0.45593999997E+02  0.45594000000E+02  0.51100000000E-03 0. -1.
         11   -1    0    0    0    0 -0.00000000000E+00 -0.00000000000E+00 -0.45593999997E+02  0.45594000000E+02  0.51100000000E-03 0.  1.
    9900012    2    1    2    0    0 -0.12169954996E+02 -0.22273319301E+02  0.31764085592E+02  0.50528859690E+02  0.29999999512E+02 0.  0.
        -12    1    1    2    0    0  0.12169954996E+02  0.22273319301E+02 -0.31764085592E+02  0.40659140310E+02  0.00000000000E+00 0.  1.
         11    1    3    3    0    0 -0.11957417637E+02 -0.28199185087E+02  0.19921062630E+02  0.36537961255E+02  0.51100000000E-03 0. -1.
        -11    1    3    3    0    0  0.26216161202E+00  0.50007745919E+01  0.50254044797E+01  0.70944461148E+01  0.51100000000E-03 0.  1.
         12    1    3    3    0    0 -0.47469897119E+00  0.92509119364E+00  0.68176184820E+01  0.68964523195E+01  0.00000000000E+00 0. -1.
</event>
<event>
 7    1  0.5525118E-011  0.5052885E+02  0.7816164E-02  0.1300439E+00
        -11   -1    0    0    0    0  0.00000000000E+00  0.00000000000E+00  0.45593999997E+02  0.45594000000E+02  0.51100000000E-03 0.  1.
         11   -1    0    0    0    0 -0.00000000000E+00 -0.00000000000E+00 -0.45593999997E+02  0.45594000000E+02  0.51100000000E-03 0. -1.
    9900012    2    1    2    0    0 -0.10559344015E+02  0.29062640330E+02 -0.26401316175E+02  0.50528852140E+02  0.29999976564E+02 0.  0.
        -12    1    1    2    0    0  0.10559344015E+02 -0.29062640330E+02  0.26401316175E+02  0.40659147860E+02  0.00000000000E+00 0.  1.
         11    1    3    3    0    0 -0.10668348313E+02  0.28043567156E+02 -0.20762511445E+02  0.36487493697E+02  0.51100000000E-03 0. -1.
        -11    1    3    3    0    0 -0.37588640581E-01 -0.45687610464E+00 -0.97035940063E+01  0.97144163788E+01  0.51100000000E-03 0.  1.
         12    1    3    3    0    0  0.14659293843E+00  0.14759492787E+01  0.40647892762E+01  0.43269420637E+01  0.00000000000E+00 0. -1.
</event>
<event>
 7    1  0.5525118E-011  0.5052887E+02  0.7816164E-02  0.1300439E+00
        -11   -1    0    0    0    0  0.00000000000E+00  0.00000000000E+00  0.45593999997E+02  0.45594000000E+02  0.51100000000E-03 0.  1.
         11   -1    0    0    0    0 -0.00000000000E+00 -0.00000000000E+00 -0.45593999997E+02  0.45594000000E+02  0.51100000000E-03 0. -1.
    9900012    2    1    2    0    0 -0.29823891366E+02  0.23987022308E+02 -0.13723082160E+02  0.50528871635E+02  0.30000035823E+02 0.  0.
        -12    1    1    2    0    0  0.29823891366E+02 -0.23987022308E+02  0.13723082160E+02  0.40659128365E+02  0.00000000000E+00 0.  1.
         11    1    3    3    0    0 -0.62106129784E+01  0.57553736803E+01 -0.20052031902E+01  0.87015446825E+01  0.51100000000E-03 0. -1.
        -11    1    3    3    0    0 -0.57823596583E+01 -0.63439469482E+01 -0.70498972152E+01  0.11107762921E+02  0.51100000000E-03 0.  1.
        -12    1    3    3    0    0 -0.17830918729E+02  0.24575595576E+02 -0.46679817541E+01  0.30719564032E+02  0.00000000000E+00 0.  1.
</event>
<event>
 7    1  0.5525118E-011  0.5052885E+02  0.7816164E-02  0.1300439E+00
        -11   -1    0    0    0    0  0.00000000000E+00  0.00000000000E+00  0.45593999997E+02  0.45594000000E+02  0.51100000000E-03 0.  1.
         11   -1    0    0    0    0 -0.00000000000E+00 -0.00000000000E+00 -0.45593999997E+02  0.45594000000E+02  0.51100000000E-03 0. -1.
    9900012    2    1    2    0    0  0.15781272636E+02  0.87661796799E+01 -0.36431744768E+02  0.50528849750E+02  0.29999969301E+02 0.  0.
        -12    1    1    2    0    0 -0.15781272636E+02 -0.87661796799E+01  0.36431744768E+02  0.40659150250E+02  0.00000000000E+00 0.  1.
         11    1    3    3    0    0  0.41504937162E+01 -0.56009015134E+01  0.17406546470E+01  0.71851635132E+01  0.51100000000E-03 0. -1.
        -11    1    3    3    0    0  0.17808676519E+01  0.61222795442E+01 -0.62261505861E+01  0.89117196877E+01  0.51100000000E-03 0.  1.
         12    1    3    3    0    0  0.98499112678E+01  0.82448016491E+01 -0.31946248829E+02  0.34431966549E+02  0.00000000000E+00 0. -1.
</event>
<event>
 7    1  0.5525118E-011  0.5052883E+02  0.7816164E-02  0.1300439E+00
        -11   -1    0    0    0    0  0.00000000000E+00  0.00000000000E+00  0.45593999997E+02  0.45594000000E+02  0.51100000000E-03 0. -1.
         11   -1    0    0    0    0 -0.00000000000E+00 -0.00000000000E+00 -0.45593999997E+02  0.45594000000E+02  0.51100000000E-03 0.  1.
    9900012    2    1    2    0    0 -0.66929135942E+01  0.37608228443E+02  0.13928172326E+02  0.50528832234E+02  0.29999916060E+02 0.  0.
        -12    1    1    2    0    0  0.66929135942E+01 -0.37608228443E+02 -0.13928172326E+02  0.40659167766E+02  0.00000000000E+00 0.  1.
         11    1    3    3    0    0 -0.25598199793E+01  0.88397362922E+01  0.12650875711E+02  0.15644113032E+02  0.51100000000E-03 0. -1.
        -11    1    3    3    0    0 -0.52611890283E+01  0.22833212014E+02 -0.71657746665E+01  0.24502734699E+02  0.51100000000E-03 0.  1.
        -12    1    3    3    0    0  0.11280954134E+01  0.59352801371E+01  0.84430712820E+01  0.10381984504E+02  0.00000000000E+00 0.  1.
</event>
<event>
 7    1  0.5525118E-011  0.5052889E+02  0.7816164E-02  0.1300439E+00
        -11   -1    0    0    0    0  0.00000000000E+00  0.00000000000E+00  0.45593999997E+02  0.45594000000E+02  0.51100000000E-03 0. -1.
         11   -1    0    0    0    0 -0.00000000000E+00 -0.00000000000E+00 -0.45593999997E+02  0.45594000000E+02  0.51100000000E-03 0.  1.
    9900012    2    1    2    0    0  0.29596628241E+02 -0.13255494244E+02  0.24525394174E+02  0.50528886749E+02  0.30000081763E+02 0.  0.
        -12    1    1    2    0    0 -0.29596628241E+02  0.13255494244E+02 -0.24525394174E+02  0.40659113251E+02  0.00000000000E+00 0.  1.
         11    1    3    3    0    0  0.19771504494E+02 -0.31701069880E+01  0.24167146100E+02  0.31384915471E+02  0.51100000000E-03 0. -1.
        -11    1    3    3    0    0  0.12669802684E+02 -0.85106124607E+01  0.21786960347E+01  0.15417559508E+02  0.51100000000E-03 0.  1.
         12    1    3    3    0    0 -0.28446789367E+01 -0.15747747955E+01 -0.18204479597E+01  0.37264117705E+01  0.00000000000E+00 0. -1.
</event>
<event>
 7    1  0.5525118E-011  0.5052884E+02  0.7816164E-02  0.1300439E+00
        -11   -1    0    0    0    0  0.00000000000E+00  0.00000000000E+00  0.45593999997E+02  0.45594000000E+02  0.51100000000E-03 0. -1.
         11   -1    0    0    0    0 -0.00000000000E+00 -0.00000000000E+00 -0.45593999997E+02  0.45594000000E+02  0.51100000000E-03 0.  1.
    9900012    2    1    2    0    0 -0.35649203153E+02 -0.16882680944E+02  0.98628923973E+01  0.50528840543E+02  0.29999941314E+02 0.  0.
        -12    1    1    2    0    0  0.35649203153E+02  0.16882680944E+02 -0.98628923973E+01  0.40659159457E+02  0.00000000000E+00 0.  1.
         11    1    3    3    0    0 -0.13298870857E+02 -0.68429435501E+01 -0.27900315960E+01  0.15214142075E+02  0.51100000000E-03 0. -1.
        -11    1    3    3    0    0 -0.63988306974E+01 -0.86033442886E+01  0.15699477387E+02  0.19011474370E+02  0.51100000000E-03 0.  1.
        -12    1    3    3    0    0 -0.15951501599E+02 -0.14363931051E+01 -0.30465533937E+01  0.16303224098E+02  0.00000000000E+00 0.  1.
</event>
<event>
 7    1  0.5525118E-011  0.5052885E+02  0.7816164E-02  0.1300439E+00
        -11   -1    0    0    0    0  0.00000000000E+00  0.00000000000E+00  0.45593999997E+02  0.45594000000E+02  0.51100000000E-03 0.  1.
         11   -1    0    0    0    0 -0.00000000000E+00 -0.00000000000E+00 -0.45593999997E+02  0.45594000000E+02  0.51100000000E-03 0. -1.
    9900012    2    1    2    0    0  0.10182112398E+01 -0.70395914554E+01 -0.40032158457E+02  0.50528852042E+02  0.29999976267E+02 0.  0.
        -12    1    1    2    0    0 -0.10182112398E+01  0.70395914554E+01  0.40032158457E+02  0.40659147958E+02  0.00000000000E+00 0.  1.
         11    1    3    3    0    0 -0.20779308479E+01 -0.30105042479E+01 -0.40374139606E+02  0.40539512597E+02  0.51100000000E-03 0. -1.
        -11    1    3    3    0    0 -0.19794716171E+00  0.13909666267E+01  0.28432138421E+01  0.31714092212E+01  0.51100000000E-03 0.  1.
         12    1    3    3    0    0  0.32940892494E+01 -0.54200538342E+01 -0.25012326925E+01  0.68179302234E+01  0.00000000000E+00 0. -1.
</event>
<event>
 7    1  0.5525118E-011  0.5052886E+02  0.7816164E-02  0.1300439E+00
        -11   -1    0    0    0    0  0.00000000000E+00  0.00000000000E+00  0.45593999997E+02  0.45594000000E+02  0.51100000000E-03 0. -1.
         11   -1    0    0    0    0 -0.00000000000E+00 -0.00000000000E+00 -0.45593999997E+02  0.45594000000E+02  0.51100000000E-03 0.  1.
    9900012    2    1    2    0    0 -0.21340915353E+02  0.18824161466E+02  0.29041035656E+02  0.50528862344E+02  0.30000007581E+02 0.  0.
        -12    1    1    2    0    0  0.21340915353E+02 -0.18824161466E+02 -0.29041035656E+02  0.40659137656E+02  0.00000000000E+00 0.  1.
         11    1    3    3    0    0 -0.95441771423E+01  0.19198794152E+02  0.63400825344E+01  0.22358033478E+02  0.51100000000E-03 0. -1.
        -11    1    3    3    0    0  0.21978000625E+01 -0.18627992258E+00  0.59311986541E+01  0.63280441734E+01  0.51100000000E-03 0.  1.
         12    1    3    3    0    0 -0.13994538273E+02 -0.18835276333E+00  0.16769754467E+02  0.21842784693E+02  0.00000000000E+00 0. -1.
</event>
<event>
 7    1  0.5525118E-011  0.5052885E+02  0.7816164E-02  0.1300439E+00
        -11   -1    0    0    0    0  0.00000000000E+00  0.00000000000E+00  0.45593999997E+02  0.45594000000E+02  0.51100000000E-03 0.  1.
         11   -1    0    0    0    0 -0.00000000000E+00 -0.00000000000E+00 -0.45593999997E+02  0.45594000000E+02  0.51100000000E-03 0. -1.
    9900012    2    1    2    0    0  0.32695408752E+02  0.19533070129E+02 -0.14235027201E+02  0.50528848735E+02  0.29999966216E+02 0.  0.
        -12    1    1    2    0    0 -0.32695408752E+02 -0.19533070129E+02  0.14235027201E+02  0.40659151265E+02  0.00000000000E+00 0.  1.
         11    1    3    3    0    0  0.52485728619E+01  0.13755116421E+02  0.85233480690E+00  0.14747108860E+02  0.51100000000E-03 0. -1.
        -11    1    3    3    0    0  0.24454603744E+02  0.78235522978E+01 -0.65367688668E+01  0.26494621384E+02  0.51100000000E-03 0.  1.
         12    1    3    3    0    0  0.29922321469E+01 -0.20455985897E+01 -0.85505931410E+01  0.92871184914E+01  0.00000000000E+00 0. -1.
</event>
<event>
 7    1  0.5525118E-011  0.5052885E+02  0.7816164E-02  0.1300439E+00
        -11   -1    0    0    0    0  0.00000000000E+00  0.00000000000E+00  0.45593999997E+02  0.45594000000E+02  0.51100000000E-03 0. -1.
         11   -1    0    0    0    0 -0.00000000000E+00 -0.00000000000E+00 -0.45593999997E+02  0.45594000000E+02  0.51100000000E-03 0.  1.
    9900012    2    1    2    0    0 -0.69181449722E+00  0.20657985343E+01  0.40600745784E+02  0.50528847413E+02  0.29999962196E+02 0.  0.
        -12    1    1    2    0    0  0.69181449722E+00 -0.20657985343E+01 -0.40600745784E+02  0.40659152587E+02  0.00000000000E+00 0.  1.
         11    1    3    3    0    0  0.54352205170E+01 -0.54623358246E+01  0.21169994491E+02  0.22528812702E+02  0.51100000000E-03 0. -1.
        -11    1    3    3    0    0 -0.79232254119E+01 -0.93121153265E+00  0.15347055933E+01  0.81240370116E+01  0.51100000000E-03 0.  1.
        -12    1    3    3    0    0  0.17961903977E+01  0.84593458916E+01  0.17896045699E+02  0.19875997699E+02  0.00000000000E+00 0.  1.
</event>
<event>
 7    1  0.1289675E-010  0.5052885E+02  0.7816164E-02  0.1300439E+00
        -11   -1    0    0    0    0  0.00000000000E+00  0.00000000000E+00  0.45593999997E+02  0.45594000000E+02  0.51100000000E-03 0. -1.
         11   -1    0    0    0    0 -0.00000000000E+00 -0.00000000000E+00 -0.45593999997E+02  0.45594000000E+02  0.51100000000E-03 0.  1.
    9900012    2    1    2    0    0  0.16571600612E+02 -0.14996888401E+02  0.33965299180E+02  0.50528853957E+02  0.29999982089E+02 0.  0.
        -12    1    1    2    0    0 -0.16571600612E+02  0.14996888401E+02 -0.33965299180E+02  0.40659146043E+02  0.00000000000E+00 0.  1.
         11    1    3    3    0    0  0.56498883172E+01 -0.14621908864E+02  0.28240940243E+02  0.32299723883E+02  0.51100000000E-03 0. -1.
        -11    1    3    3    0    0  0.10895199896E+02  0.41839061172E+01  0.68507991823E+01  0.13533066943E+02  0.51100000000E-03 0.  1.
        -12    1    3    3    0    0  0.26512398600E-01 -0.45588856537E+01 -0.11264402460E+01  0.46960631319E+01  0.00000000000E+00 0.  1.
</event>
<event>
 7    1  0.5525118E-011  0.5052886E+02  0.7816164E-02  0.1300439E+00
        -11   -1    0    0    0    0  0.00000000000E+00  0.00000000000E+00  0.45593999997E+02  0.45594000000E+02  0.51100000000E-03 0. -1.
         11   -1    0    0    0    0 -0.00000000000E+00 -0.00000000000E+00 -0.45593999997E+02  0.45594000000E+02  0.51100000000E-03 0.  1.
    9900012    2    1    2    0    0 -0.31674564135E+02 -0.10379957141E+02  0.23283982548E+02  0.50528863675E+02  0.30000011627E+02 0.  0.
        -12    1    1    2    0    0  0.31674564135E+02  0.10379957141E+02 -0.23283982548E+02  0.40659136325E+02  0.00000000000E+00 0.  1.
         11    1    3    3    0    0 -0.22955664843E+02 -0.93152729096E+01  0.46845571381E+01  0.25212733561E+02  0.51100000000E-03 0. -1.
        -11    1    3    3    0    0 -0.10719899609E+01  0.53452236460E+01  0.12460275144E+02  0.13600699806E+02  0.51100000000E-03 0.  1.
        -12    1    3    3    0    0 -0.76469093310E+01 -0.64099078770E+01  0.61391502663E+01  0.11715430308E+02  0.00000000000E+00 0.  1.
</event>
<event>
 7    1  0.5525118E-011  0.5052886E+02  0.7816164E-02  0.1300439E+00
        -11   -1    0    0    0    0  0.00000000000E+00  0.00000000000E+00  0.45593999997E+02  0.45594000000E+02  0.51100000000E-03 0.  1.
         11   -1    0    0    0    0 -0.00000000000E+00 -0.00000000000E+00 -0.45593999997E+02  0.45594000000E+02  0.51100000000E-03 0. -1.
    9900012    2    1    2    0    0 -0.78362060101E+01  0.19818169278E+02 -0.34626573516E+02  0.50528861401E+02  0.30000004715E+02 0.  0.
        -12    1    1    2    0    0  0.78362060101E+01 -0.19818169278E+02  0.34626573516E+02  0.40659138599E+02  0.00000000000E+00 0.  1.
         11    1    3    3    0    0  0.58574283872E+01  0.11229574809E+02 -0.40831775687E+01  0.13307334708E+02  0.51100000000E-03 0. -1.
        -11    1    3    3    0    0 -0.48239819956E+01 -0.31338653786E+01 -0.44518770289E+01  0.72740032889E+01  0.51100000000E-03 0.  1.
         12    1    3    3    0    0 -0.88696524017E+01  0.11722459848E+02 -0.26091518918E+02  0.29947523404E+02  0.00000000000E+00 0. -1.
</event>
<event>
 7    1  0.5525118E-011  0.5052886E+02  0.7816164E-02  0.1300439E+00
        -11   -1    0    0    0    0  0.00000000000E+00  0.00000000000E+00  0.45593999997E+02  0.45594000000E+02  0.51100000000E-03 0.  1.
         11   -1    0    0    0    0 -0.00000000000E+00 -0.00000000000E+00 -0.45593999997E+02  0.45594000000E+02  0.51100000000E-03 0. -1.
    9900012    2    1    2    0    0  0.40092226507E+01  0.38606727584E+02 -0.12108365236E+02  0.50528858474E+02  0.29999995816E+02 0.  0.
        -12    1    1    2    0    0 -0.40092226507E+01 -0.38606727584E+02  0.12108365236E+02  0.40659141526E+02  0.00000000000E+00 0.  1.
         11    1    3    3    0    0  0.86456775416E+01  0.76920449201E+01 -0.11888267326E+02  0.16590545364E+02  0.51100000000E-03 0. -1.
        -11    1    3    3    0    0 -0.88377575323E+01  0.25774649386E+02  0.56411424059E+00  0.27253563699E+02  0.51100000000E-03 0.  1.
        -12    1    3    3    0    0  0.42013026414E+01  0.51400332776E+01 -0.78421215018E+00  0.66847494101E+01  0.00000000000E+00 0.  1.
</event>
<event>
 7    1  0.5525118E-011  0.5052887E+02  0.7816164E-02  0.1300439E+00
        -11   -1    0    0    0    0  0.00000000000E+00  0.00000000000E+00  0.45593999997E+02  0.45594000000E+02  0.51100000000E-03 0.  1.
         11   -1    0    0    0    0 -0.00000000000E+00 -0.00000000000E+00 -0.45593999997E+02  0.45594000000E+02  0.51100000000E-03 0. -1.
    9900012    2    1    2    0    0  0.11598242388E+02 -0.38324289990E+02  0.70636223675E+01  0.50528865840E+02  0.30000018206E+02 0.  0.
        -12    1    1    2    0    0 -0.11598242388E+02  0.38324289990E+02 -0.70636223675E+01  0.40659134160E+02  0.00000000000E+00 0.  1.
         11    1    3    3    0    0 -0.27979816689E+01 -0.42478101230E+01 -0.10108455172E+01  0.51859812169E+01  0.51100000000E-03 0. -1.
        -11    1    3    3    0    0  0.21095145840E+02 -0.28643423112E+02  0.89255302383E+01  0.36675822497E+02  0.51100000000E-03 0.  1.
        -12    1    3    3    0    0 -0.66989217826E+01 -0.54330567550E+01 -0.85106235359E+00  0.86670621252E+01  0.00000000000E+00 0.  1.
</event>
<event>
 7    1  0.5525118E-011  0.5052885E+02  0.7816164E-02  0.1300439E+00
        -11   -1    0    0    0    0  0.00000000000E+00  0.00000000000E+00  0.45593999997E+02  0.45594000000E+02  0.51100000000E-03 0.  1.
         11   -1    0    0    0    0 -0.00000000000E+00 -0.00000000000E+00 -0.45593999997E+02  0.45594000000E+02  0.51100000000E-03 0. -1.
    9900012    2    1    2    0    0  0.24809785894E+02  0.24846429867E+02  0.20501110229E+02  0.50528854979E+02  0.29999985195E+02 0.  0.
        -12    1    1    2    0    0 -0.24809785894E+02 -0.24846429867E+02 -0.20501110229E+02  0.40659145021E+02  0.00000000000E+00 0.  1.
         11    1    3    3    0    0  0.61073635707E+01  0.56837252423E+01  0.78728324259E+01  0.11471099035E+02  0.51100000000E-03 0. -1.
        -11    1    3    3    0    0  0.51160776769E+01  0.19167033625E+02 -0.93495265424E+00  0.19860099836E+02  0.51100000000E-03 0.  1.
        -12    1    3    3    0    0  0.13586344646E+02 -0.43290007829E-02  0.13563230457E+02  0.19197656108E+02  0.00000000000E+00 0.  1.
</event>
<event>
 7    1  0.8268847E-011  0.5052886E+02  0.7816164E-02  0.1300439E+00
        -11   -1    0    0    0    0  0.00000000000E+00  0.00000000000E+00  0.45593999997E+02  0.45594000000E+02  0.51100000000E-03 0. -1.
         11   -1    0    0    0    0 -0.00000000000E+00 -0.00000000000E+00 -0.45593999997E+02  0.45594000000E+02  0.51100000000E-03 0.  1.
    9900012    2    1    2    0    0 -0.18625729383E+02  0.58752805013E+01  0.35661312142E+02  0.50528857121E+02  0.29999991704E+02 0.  0.
        -12    1    1    2    0    0  0.18625729383E+02 -0.58752805013E+01 -0.35661312142E+02  0.40659142879E+02  0.00000000000E+00 0.  1.
         11    1    3    3    0    0 -0.87275520012E+01  0.65011958831E+01  0.32005783472E+02  0.33805412108E+02  0.51100000000E-03 0. -1.
        -11    1    3    3    0    0 -0.47161266365E+01  0.45724936451E+01 -0.26144126502E+01  0.70699860221E+01  0.51100000000E-03 0.  1.
        -12    1    3    3    0    0 -0.51820507452E+01 -0.51984090268E+01  0.62699413197E+01  0.96534589909E+01  0.00000000000E+00 0.  1.
</event>
<event>
 7    1  0.5525118E-011  0.5052887E+02  0.7816164E-02  0.1300439E+00
        -11   -1    0    0    0    0  0.00000000000E+00  0.00000000000E+00  0.45593999997E+02  0.45594000000E+02  0.51100000000E-03 0.  1.
         11   -1    0    0    0    0 -0.00000000000E+00 -0.00000000000E+00 -0.45593999997E+02  0.45594000000E+02  0.51100000000E-03 0. -1.
    9900012    2    1    2    0    0 -0.35863415670E+02 -0.60291242883E+01 -0.18183231199E+02  0.50528870398E+02  0.30000032061E+02 0.  0.
        -12    1    1    2    0    0  0.35863415670E+02  0.60291242883E+01  0.18183231199E+02  0.40659129602E+02  0.00000000000E+00 0.  1.
         11    1    3    3    0    0 -0.28768960004E+02 -0.12687924526E+02 -0.23110617175E+02  0.39022264349E+02  0.51100000000E-03 0. -1.
        -11    1    3    3    0    0 -0.60198979161E+01  0.33506869999E+01  0.28544610577E+01  0.74574943837E+01  0.51100000000E-03 0.  1.
         12    1    3    3    0    0 -0.10745577499E+01  0.33081132380E+01  0.20729249186E+01  0.40491116645E+01  0.00000000000E+00 0. -1.
</event>
<event>
 7    1  0.5525118E-011  0.5052885E+02  0.7816164E-02  0.1300439E+00
        -11   -1    0    0    0    0  0.00000000000E+00  0.00000000000E+00  0.45593999997E+02  0.45594000000E+02  0.51100000000E-03 0.  1.
         11   -1    0    0    0    0 -0.00000000000E+00 -0.00000000000E+00 -0.45593999997E+02  0.45594000000E+02  0.51100000000E-03 0. -1.
    9900012    2    1    2    0    0  0.12666473286E+02 -0.86387466658E+01 -0.37657649981E+02  0.50528854761E+02  0.29999984531E+02 0.  0.
        -12    1    1    2    0    0 -0.12666473286E+02  0.86387466658E+01  0.37657649981E+02  0.40659145239E+02  0.00000000000E+00 0.  1.
         11    1    3    3    0    0 -0.49178335564E+01  0.28461832477E+01 -0.12734052517E+02  0.13944243965E+02  0.51100000000E-03 0. -1.
        -11    1    3    3    0    0  0.15433497866E+02 -0.39579318559E+01 -0.77644648569E+01  0.17724135966E+02  0.51100000000E-03 0.  1.
         12    1    3    3    0    0  0.21508089768E+01 -0.75269980576E+01 -0.17159132607E+02  0.18860474831E+02  0.00000000000E+00 0. -1.
</event>
<event>
 7    1  0.5525118E-011  0.5052885E+02  0.7816164E-02  0.1300439E+00
        -11   -1    0    0    0    0  0.00000000000E+00  0.00000000000E+00  0.45593999997E+02  0.45594000000E+02  0.51100000000E-03 0. -1.
         11   -1    0    0    0    0 -0.00000000000E+00 -0.00000000000E+00 -0.45593999997E+02  0.45594000000E+02  0.51100000000E-03 0.  1.
    9900012    2    1    2    0    0 -0.80740904210E+01 -0.21741002404E+02  0.33396178705E+02  0.50528845142E+02  0.29999955295E+02 0.  0.
        -12    1    1    2    0    0  0.80740904210E+01  0.21741002404E+02 -0.33396178705E+02  0.40659154858E+02  0.00000000000E+00 0.  1.
         11    1    3    3    0    0 -0.10910539204E+02  0.29613290596E+01  0.11399308739E+02  0.16054705713E+02  0.51100000000E-03 0. -1.
        -11    1    3    3    0    0 -0.51387311978E+00 -0.14778821474E+02  0.74761346730E+01  0.16570160520E+02  0.51100000000E-03 0.  1.
         12    1    3    3    0    0  0.33503219029E+01 -0.99235099899E+01  0.14520735292E+02  0.17903978910E+02  0.00000000000E+00 0. -1.
</event>
<event>
 7    1  0.5525118E-011  0.5052883E+02  0.7816164E-02  0.1300439E+00
        -11   -1    0    0    0    0  0.00000000000E+00  0.00000000000E+00  0.45593999997E+02  0.45594000000E+02  0.51100000000E-03 0.  1.
         11   -1    0    0    0    0 -0.00000000000E+00 -0.00000000000E+00 -0.45593999997E+02  0.45594000000E+02  0.51100000000E-03 0. -1.
    9900012    2    1    2    0    0  0.12902757804E+02 -0.85501720363E-01 -0.38557485027E+02  0.50528829804E+02  0.29999908671E+02 0.  0.
        -12    1    1    2    0    0 -0.12902757804E+02  0.85501720363E-01  0.38557485027E+02  0.40659170196E+02  0.00000000000E+00 0.  1.
         11    1    3    3    0    0  0.21686740483E+02 -0.11350903039E+01 -0.33923832313E+02  0.40279393514E+02  0.51100000000E-03 0. -1.
        -11    1    3    3    0    0 -0.64066026024E+01 -0.26082003594E+00 -0.35267655687E+01  0.73178316210E+01  0.51100000000E-03 0.  1.
         12    1    3    3    0    0 -0.23773800773E+01  0.13104086194E+01 -0.11068871447E+01  0.29316046686E+01  0.00000000000E+00 0. -1.
</event>
<event>
 7    1  0.5525118E-011  0.5052886E+02  0.7816164E-02  0.1300439E+00
        -11   -1    0    0    0    0  0.00000000000E+00  0.00000000000E+00  0.45593999997E+02  0.45594000000E+02  0.51100000000E-03 0.  1.
         11   -1    0    0    0    0 -0.00000000000E+00 -0.00000000000E+00 -0.45593999997E+02  0.45594000000E+02  0.51100000000E-03 0. -1.
    9900012    2    1    2    0    0 -0.21386936661E+02 -0.30621049993E+02 -0.16065980412E+02  0.50528862170E+02  0.30000007053E+02 0.  0.
        -12    1    1    2    0    0  0.21386936661E+02  0.30621049993E+02  0.16065980412E+02  0.40659137830E+02  0.00000000000E+00 0.  1.
         11    1    3    3    0    0 -0.66504610299E+01 -0.24326326832E+01 -0.85011699721E+01  0.11064186587E+02  0.51100000000E-03 0. -1.
        -11    1    3    3    0    0 -0.18977496614E+02 -0.23934272463E+02 -0.99292354579E+00  0.30561097386E+02  0.51100000000E-03 0.  1.
        -12    1    3    3    0    0  0.42410209820E+01 -0.42541448476E+01 -0.65718868940E+01  0.89035781965E+01  0.00000000000E+00 0.  1.
</event>
<event>
 7    1  0.5525118E-011  0.5052888E+02  0.7816164E-02  0.1300439E+00
        -11   -1    0    0    0    0  0.00000000000E+00  0.00000000000E+00  0.45593999997E+02  0.45594000000E+02  0.51100000000E-03 0.  1.
         11   -1    0    0    0    0 -0.00000000000E+00 -0.00000000000E+00 -0.45593999997E+02  0.45594000000E+02  0.51100000000E-03 0. -1.
    9900012    2    1    2    0    0  0.39589170418E+02 -0.67456243150E+01 -0.63527959133E+01  0.50528881986E+02  0.30000067284E+02 0.  0.
        -12    1    1    2    0    0 -0.39589170418E+02  0.67456243150E+01  0.63527959133E+01  0.40659118014E+02  0.00000000000E+00 0.  1.
         11    1    3    3    0    0  0.21610411898E+02  0.85556381446E+01  0.44465471903E+01  0.23663909834E+02  0.51100000000E-03 0.  1.
        -11    1    3    3    0    0  0.11873222406E+02 -0.11248692117E+02 -0.39311705935E+01  0.16821432375E+02  0.51100000000E-03 0. -1.
         12    1    3    3    0    0  0.61055361142E+01 -0.40525703425E+01 -0.68681725100E+01  0.10043539777E+02  0.00000000000E+00 0. -1.
</event>
<event>
 7    1  0.5525118E-011  0.5052886E+02  0.7816164E-02  0.1300439E+00
        -11   -1    0    0    0    0  0.00000000000E+00  0.00000000000E+00  0.45593999997E+02  0.45594000000E+02  0.51100000000E-03 0.  1.
         11   -1    0    0    0    0 -0.00000000000E+00 -0.00000000000E+00 -0.45593999997E+02  0.45594000000E+02  0.51100000000E-03 0. -1.
    9900012    2    1    2    0    0  0.17443420376E+02 -0.70429064477E+01 -0.36045669402E+02  0.50528859229E+02  0.29999998111E+02 0.  0.
        -12    1    1    2    0    0 -0.17443420376E+02  0.70429064477E+01  0.36045669402E+02  0.40659140771E+02  0.00000000000E+00 0.  1.
         11    1    3    3    0    0  0.19444671836E+01  0.48391629869E+00 -0.13009117248E+02  0.13162532410E+02  0.51100000000E-03 0. -1.
        -11    1    3    3    0    0  0.10901570913E+01  0.49613775208E+01  0.23660651070E+01  0.56037464021E+01  0.51100000000E-03 0.  1.
        -12    1    3    3    0    0  0.14408796101E+02 -0.12488200267E+02 -0.25402617261E+02  0.31762580416E+02  0.00000000000E+00 0.  1.
</event>
<event>
 7    1  0.5525118E-011  0.5052886E+02  0.7816164E-02  0.1300439E+00
        -11   -1    0    0    0    0  0.00000000000E+00  0.00000000000E+00  0.45593999997E+02  0.45594000000E+02  0.51100000000E-03 0.  1.
         11   -1    0    0    0    0 -0.00000000000E+00 -0.00000000000E+00 -0.45593999997E+02  0.45594000000E+02  0.51100000000E-03 0. -1.
    9900012    2    1    2    0    0 -0.16706935708E+02 -0.18360719189E+02 -0.32201366288E+02  0.50528859567E+02  0.29999999140E+02 0.  0.
        -12    1    1    2    0    0  0.16706935708E+02  0.18360719189E+02  0.32201366288E+02  0.40659140433E+02  0.00000000000E+00 0.  1.
         11    1    3    3    0    0 -0.15683963407E+02 -0.38263058785E+01 -0.30145111912E+02  0.34195834502E+02  0.51100000000E-03 0. -1.
        -11    1    3    3    0    0  0.16047938806E+01 -0.20409590097E+01  0.16040473342E+01  0.30518593005E+01  0.51100000000E-03 0.  1.
         12    1    3    3    0    0 -0.26277661818E+01 -0.12493454301E+02 -0.36603017111E+01  0.13281165765E+02  0.00000000000E+00 0. -1.
</event>
<event>
 7    1  0.5525118E-011  0.5052886E+02  0.7816164E-02  0.1300439E+00
        -11   -1    0    0    0    0  0.00000000000E+00  0.00000000000E+00  0.45593999997E+02  0.45594000000E+02  0.51100000000E-03 0. -1.
         11   -1    0    0    0    0 -0.00000000000E+00 -0.00000000000E+00 -0.45593999997E+02  0.45594000000E+02  0.51100000000E-03 0.  1.
    9900012    2    1    2    0    0 -0.24354252097E+02  0.74592494889E+01  0.31692203256E+02  0.50528859019E+02  0.29999997474E+02 0.  0.
        -12    1    1    2    0    0  0.24354252097E+02 -0.74592494889E+01 -0.31692203256E+02  0.40659140981E+02  0.00000000000E+00 0.  1.
         11    1    3    3    0    0 -0.74831909581E+00  0.22259158170E+01  0.23795462157E+02  0.23911058157E+02  0.51100000000E-03 0. -1.
        -11    1    3    3    0    0 -0.13641179430E+02  0.69470598722E+01  0.47982228971E+01  0.16042641938E+02  0.51100000000E-03 0.  1.
         12    1    3    3    0    0 -0.99647535704E+01 -0.17137262003E+01  0.30985182017E+01  0.10575158923E+02  0.00000000000E+00 0. -1.
</event>
<event>
 7    1  0.5525118E-011  0.5052885E+02  0.7816164E-02  0.1300439E+00
        -11   -1    0    0    0    0  0.00000000000E+00  0.00000000000E+00  0.45593999997E+02  0.45594000000E+02  0.51100000000E-03 0.  1.
         11   -1    0    0    0    0 -0.00000000000E+00 -0.00000000000E+00 -0.45593999997E+02  0.45594000000E+02  0.51100000000E-03 0. -1.
    9900012    2    1    2    0    0 -0.22573275424E+01  0.11473493918E+01 -0.40580223320E+02  0.50528850193E+02  0.29999970648E+02 0.  0.
        -12    1    1    2    0    0  0.22573275424E+01 -0.11473493918E+01  0.40580223320E+02  0.40659149807E+02  0.00000000000E+00 0.  1.
         11    1    3    3    0    0 -0.36313278295E+01 -0.59330629272E+01 -0.21160196635E+02  0.22274238470E+02  0.51100000000E-03 0. -1.
        -11    1    3    3    0    0 -0.57953374614E+01  0.93239956027E+01 -0.51460850256E+01  0.12124562740E+02  0.51100000000E-03 0.  1.
        -12    1    3    3    0    0  0.71693377484E+01 -0.22435832837E+01 -0.14273941660E+02  0.16130048983E+02  0.00000000000E+00 0.  1.
</event>
<event>
 7    1  0.5525118E-011  0.5052885E+02  0.7816164E-02  0.1300439E+00
        -11   -1    0    0    0    0  0.00000000000E+00  0.00000000000E+00  0.45593999997E+02  0.45594000000E+02  0.51100000000E-03 0. -1.
         11   -1    0    0    0    0 -0.00000000000E+00 -0.00000000000E+00 -0.45593999997E+02  0.45594000000E+02  0.51100000000E-03 0.  1.
    9900012    2    1    2    0    0  0.39325127963E+02  0.76588493961E+01  0.69313025111E+01  0.50528848288E+02  0.29999964857E+02 0.  0.
        -12    1    1    2    0    0 -0.39325127963E+02 -0.76588493961E+01 -0.69313025111E+01  0.40659151712E+02  0.00000000000E+00 0.  1.
         11    1    3    3    0    0  0.25551157467E+01  0.18415952669E+01  0.54227084513E+01  0.62710331537E+01  0.51100000000E-03 0. -1.
        -11    1    3    3    0    0  0.39131835029E+02  0.14549198836E+01  0.33539211388E+00  0.39160308894E+02  0.51100000000E-03 0.  1.
        -12    1    3    3    0    0 -0.23618228119E+01  0.43623342456E+01  0.11732019459E+01  0.50975062404E+01  0.00000000000E+00 0.  1.
</event>
<event>
 7    1  0.5525118E-011  0.5052887E+02  0.7816164E-02  0.1300439E+00
        -11   -1    0    0    0    0  0.00000000000E+00  0.00000000000E+00  0.45593999997E+02  0.45594000000E+02  0.51100000000E-03 0.  1.
         11   -1    0    0    0    0 -0.00000000000E+00 -0.00000000000E+00 -0.45593999997E+02  0.45594000000E+02  0.51100000000E-03 0. -1.
    9900012    2    1    2    0    0  0.15832403881E+02 -0.71874974895E+01 -0.36753768793E+02  0.50528872448E+02  0.30000038292E+02 0.  0.
        -12    1    1    2    0    0 -0.15832403881E+02  0.71874974895E+01  0.36753768793E+02  0.40659127552E+02  0.00000000000E+00 0.  1.
         11    1    3    3    0    0 -0.34423442723E+01 -0.12686476347E+02 -0.10290717938E+02  0.16694169405E+02  0.51100000000E-03 0. -1.
        -11    1    3    3    0    0  0.14083150514E+02  0.14040700982E+01 -0.15159686425E+02  0.20739398111E+02  0.51100000000E-03 0.  1.
         12    1    3    3    0    0  0.51915976395E+01  0.40949087597E+01 -0.11303364431E+02  0.13095304932E+02  0.00000000000E+00 0. -1.
</event>
<event>
 7    1  0.5525118E-011  0.5052886E+02  0.7816164E-02  0.1300439E+00
        -11   -1    0    0    0    0  0.00000000000E+00  0.00000000000E+00  0.45593999997E+02  0.45594000000E+02  0.51100000000E-03 0.  1.
         11   -1    0    0    0    0 -0.00000000000E+00 -0.00000000000E+00 -0.45593999997E+02  0.45594000000E+02  0.51100000000E-03 0. -1.
    9900012    2    1    2    0    0  0.89048152439E+01  0.39508648062E+02  0.35967351520E+01  0.50528861913E+02  0.30000006272E+02 0.  0.
        -12    1    1    2    0    0 -0.89048152439E+01 -0.39508648062E+02 -0.35967351520E+01  0.40659138087E+02  0.00000000000E+00 0.  1.
         11    1    3    3    0    0 -0.41072989363E+01  0.15860148660E+02 -0.28672980425E+01  0.16632366590E+02  0.51100000000E-03 0. -1.
        -11    1    3    3    0    0  0.94820812636E+01  0.10600613420E+02  0.12647185365E+02  0.19032450391E+02  0.51100000000E-03 0.  1.
        -12    1    3    3    0    0  0.35300329166E+01  0.13047885982E+02 -0.61831521701E+01  0.14864044932E+02  0.00000000000E+00 0.  1.
</event>
<event>
 7    1  0.5525118E-011  0.5052887E+02  0.7816164E-02  0.1300439E+00
        -11   -1    0    0    0    0  0.00000000000E+00  0.00000000000E+00  0.45593999997E+02  0.45594000000E+02  0.51100000000E-03 0.  1.
         11   -1    0    0    0    0 -0.00000000000E+00 -0.00000000000E+00 -0.45593999997E+02  0.45594000000E+02  0.51100000000E-03 0. -1.
    9900012    2    1    2    0    0 -0.22849805249E+02  0.29005705366E+02 -0.17021172892E+02  0.50528869779E+02  0.30000030180E+02 0.  0.
        -12    1    1    2    0    0  0.22849805249E+02 -0.29005705366E+02  0.17021172892E+02  0.40659130221E+02  0.00000000000E+00 0.  1.
         11    1    3    3    0    0 -0.42459533231E+01  0.24139235434E+02 -0.41734185465E+01  0.24862586945E+02  0.51100000000E-03 0. -1.
        -11    1    3    3    0    0 -0.47621249589E+01 -0.28837196663E+00 -0.93356222737E+01  0.10484027662E+02  0.51100000000E-03 0.  1.
         12    1    3    3    0    0 -0.13841726967E+02  0.51548418990E+01 -0.35121320714E+01  0.15182255172E+02  0.00000000000E+00 0. -1.
</event>
<event>
 7    1  0.5525118E-011  0.5052886E+02  0.7816164E-02  0.1300439E+00
        -11   -1    0    0    0    0  0.00000000000E+00  0.00000000000E+00  0.45593999997E+02  0.45594000000E+02  0.51100000000E-03 0.  1.
         11   -1    0    0    0    0 -0.00000000000E+00 -0.00000000000E+00 -0.45593999997E+02  0.45594000000E+02  0.51100000000E-03 0. -1.
    9900012    2    1    2    0    0 -0.28517853303E+02 -0.27450977040E+02 -0.92920370498E+01  0.50528855272E+02  0.29999986085E+02 0.  0.
        -12    1    1    2    0    0  0.28517853303E+02  0.27450977040E+02  0.92920370498E+01  0.40659144728E+02  0.00000000000E+00 0.  1.
         11    1    3    3    0    0 -0.23640946312E+02 -0.85921360733E+01 -0.67119624236E+01  0.26034008233E+02  0.51100000000E-03 0. -1.
        -11    1    3    3    0    0  0.26980898889E+01 -0.66889270461E+01  0.45057858474E+01  0.85043248080E+01  0.51100000000E-03 0.  1.
         12    1    3    3    0    0 -0.75749968794E+01 -0.12169913921E+02 -0.70858604736E+01  0.15990522231E+02  0.00000000000E+00 0. -1.
</event>
<event>
 7    1  0.5525118E-011  0.5052886E+02  0.7816164E-02  0.1300439E+00
        -11   -1    0    0    0    0  0.00000000000E+00  0.00000000000E+00  0.45593999997E+02  0.45594000000E+02  0.51100000000E-03 0.  1.
         11   -1    0    0    0    0 -0.00000000000E+00 -0.00000000000E+00 -0.45593999997E+02  0.45594000000E+02  0.51100000000E-03 0. -1.
    9900012    2    1    2    0    0  0.20574324476E+02  0.79023661739E+01 -0.34167457834E+02  0.50528863343E+02  0.30000010618E+02 0.  0.
        -12    1    1    2    0    0 -0.20574324476E+02 -0.79023661739E+01  0.34167457834E+02  0.40659136657E+02  0.00000000000E+00 0.  1.
         11    1    3    3    0    0  0.22514322372E+02  0.10406267712E+02 -0.21412189737E+02  0.32766858091E+02  0.51100000000E-03 0. -1.
        -11    1    3    3    0    0 -0.46563216774E+01 -0.34645302025E+01 -0.13577381915E+02  0.14765825443E+02  0.51100000000E-03 0.  1.
        -12    1    3    3    0    0  0.27163237816E+01  0.96062866454E+00  0.82211381801E+00  0.29961798090E+01  0.00000000000E+00 0.  1.
</event>
<event>
 7    1  0.5525118E-011  0.5052883E+02  0.7816164E-02  0.1300439E+00
        -11   -1    0    0    0    0  0.00000000000E+00  0.00000000000E+00  0.45593999997E+02  0.45594000000E+02  0.51100000000E-03 0. -1.
         11   -1    0    0    0    0 -0.00000000000E+00 -0.00000000000E+00 -0.45593999997E+02  0.45594000000E+02  0.51100000000E-03 0.  1.
    9900012    2    1    2    0    0  0.17035323043E+02 -0.29425802116E+02  0.22295465537E+02  0.50528833200E+02  0.29999918994E+02 0.  0.
        -12    1    1    2    0    0 -0.17035323043E+02  0.29425802116E+02 -0.22295465537E+02  0.40659166800E+02  0.00000000000E+00 0.  1.
         11    1    3    3    0    0  0.12680081214E+02 -0.58690627793E+01  0.47984911104E+01  0.14773485530E+02  0.51100000000E-03 0. -1.
        -11    1    3    3    0    0 -0.68889286920E+01 -0.75550567434E+01  0.11301886623E+02  0.15240369497E+02  0.51100000000E-03 0.  1.
        -12    1    3    3    0    0  0.11244170521E+02 -0.16001682593E+02  0.61950878043E+01  0.20514978173E+02  0.00000000000E+00 0.  1.
</event>
<event>
 7    1  0.6780275E-011  0.5052886E+02  0.7816164E-02  0.1300439E+00
        -11   -1    0    0    0    0  0.00000000000E+00  0.00000000000E+00  0.45593999997E+02  0.45594000000E+02  0.51100000000E-03 0.  1.
         11   -1    0    0    0    0 -0.00000000000E+00 -0.00000000000E+00 -0.45593999997E+02  0.45594000000E+02  0.51100000000E-03 0. -1.
    9900012    2    1    2    0    0  0.19758592065E+02  0.22101100491E+02 -0.27826331547E+02  0.50528864118E+02  0.30000012973E+02 0.  0.
        -12    1    1    2    0    0 -0.19758592065E+02 -0.22101100491E+02  0.27826331547E+02  0.40659135882E+02  0.00000000000E+00 0.  1.
         11    1    3    3    0    0  0.17979934543E+02  0.15454133634E+02 -0.23773693740E+02  0.33575240980E+02  0.51100000000E-03 0. -1.
        -11    1    3    3    0    0  0.38036121857E+01  0.30328324775E+01  0.50135371724E+01  0.69857779621E+01  0.51100000000E-03 0.  1.
        -12    1    3    3    0    0 -0.20249546637E+01  0.36141343799E+01 -0.90661749793E+01  0.99678451764E+01  0.00000000000E+00 0.  1.
</event>
<event>
 7    1  0.5525118E-011  0.5052885E+02  0.7816164E-02  0.1300439E+00
        -11   -1    0    0    0    0  0.00000000000E+00  0.00000000000E+00  0.45593999997E+02  0.45594000000E+02  0.51100000000E-03 0.  1.
         11   -1    0    0    0    0 -0.00000000000E+00 -0.00000000000E+00 -0.45593999997E+02  0.45594000000E+02  0.51100000000E-03 0. -1.
    9900012    2    1    2    0    0  0.92388639046E+01 -0.12751387892E+02 -0.37486151891E+02  0.50528854866E+02  0.29999984852E+02 0.  0.
        -12    1    1    2    0    0 -0.92388639046E+01  0.12751387892E+02  0.37486151891E+02  0.40659145134E+02  0.00000000000E+00 0.  1.
         11    1    3    3    0    0  0.74782548251E+01 -0.17817824000E+02 -0.30435841891E+02  0.36051901741E+02  0.51100000000E-03 0. -1.
        -11    1    3    3    0    0  0.55212322300E+01  0.44088426088E+01 -0.74334669669E+00  0.71045382017E+01  0.51100000000E-03 0.  1.
         12    1    3    3    0    0 -0.37606231504E+01  0.65759349891E+00 -0.63069633033E+01  0.73724149231E+01  0.00000000000E+00 0. -1.
</event>
<event>
 7    1  0.5525118E-011  0.5052884E+02  0.7816164E-02  0.1300439E+00
        -11   -1    0    0    0    0  0.00000000000E+00  0.00000000000E+00  0.45593999997E+02  0.45594000000E+02  0.51100000000E-03 0.  1.
         11   -1    0    0    0    0 -0.00000000000E+00 -0.00000000000E+00 -0.45593999997E+02  0.45594000000E+02  0.51100000000E-03 0. -1.
    9900012    2    1    2    0    0  0.30417914076E+01  0.39436328220E+02  0.94175796982E+01  0.50528840075E+02  0.29999939893E+02 0.  0.
        -12    1    1    2    0    0 -0.30417914076E+01 -0.39436328220E+02 -0.94175796982E+01  0.40659159925E+02  0.00000000000E+00 0.  1.
         11    1    3    3    0    0  0.68536515931E+01  0.34376084088E+02 -0.23978003271E+00  0.35053461913E+02  0.51100000000E-03 0. -1.
        -11    1    3    3    0    0  0.16678372590E+01 -0.21034419014E+00  0.73355808083E+01  0.75257339746E+01  0.51100000000E-03 0.  1.
         12    1    3    3    0    0 -0.54796974446E+01  0.52705883222E+01  0.23217789227E+01  0.79496441877E+01  0.00000000000E+00 0. -1.
</event>
<event>
 7    1  0.5525118E-011  0.5052886E+02  0.7816164E-02  0.1300439E+00
        -11   -1    0    0    0    0  0.00000000000E+00  0.00000000000E+00  0.45593999997E+02  0.45594000000E+02  0.51100000000E-03 0.  1.
         11   -1    0    0    0    0 -0.00000000000E+00 -0.00000000000E+00 -0.45593999997E+02  0.45594000000E+02  0.51100000000E-03 0. -1.
    9900012    2    1    2    0    0  0.15969529445E+02 -0.39171029099E+01 -0.37185961380E+02  0.50528864622E+02  0.30000014506E+02 0.  0.
        -12    1    1    2    0    0 -0.15969529445E+02  0.39171029099E+01  0.37185961380E+02  0.40659135378E+02  0.00000000000E+00 0.  1.
         11    1    3    3    0    0  0.21468467971E+01 -0.77467810047E+01 -0.75723764745E+00  0.80743406060E+01  0.51100000000E-03 0. -1.
        -11    1    3    3    0    0  0.13146011037E+02 -0.37962014276E+01 -0.18960220373E+02  0.23382016772E+02  0.51100000000E-03 0.  1.
         12    1    3    3    0    0  0.67667161036E+00  0.76258795224E+01 -0.17468503360E+02  0.19072507244E+02  0.00000000000E+00 0. -1.
</event>
<event>
 7    1  0.5525118E-011  0.5052885E+02  0.7816164E-02  0.1300439E+00
        -11   -1    0    0    0    0  0.00000000000E+00  0.00000000000E+00  0.45593999997E+02  0.45594000000E+02  0.51100000000E-03 0. -1.
         11   -1    0    0    0    0 -0.00000000000E+00 -0.00000000000E+00 -0.45593999997E+02  0.45594000000E+02  0.51100000000E-03 0.  1.
    9900012    2    1    2    0    0 -0.17280154002E+02  0.13556364981E+02 -0.34216778574E+02  0.50528847405E+02  0.29999962171E+02 0.  0.
        -12    1    1    2    0    0  0.17280154002E+02 -0.13556364981E+02  0.34216778574E+02  0.40659152595E+02  0.00000000000E+00 0.  1.
         11    1    3    3    0    0 -0.23887273595E+02  0.11130656637E+02 -0.24632844413E+02  0.36073125470E+02  0.51100000000E-03 0. -1.
        -11    1    3    3    0    0  0.61947275126E+01  0.51182519011E+01 -0.78059949743E+01  0.11202888435E+02  0.51100000000E-03 0.  1.
         12    1    3    3    0    0  0.41239208111E+00 -0.26925435566E+01 -0.17779391859E+01  0.32528335005E+01  0.00000000000E+00 0. -1.
</event>
<event>
 7    1  0.5525118E-011  0.5052885E+02  0.7816164E-02  0.1300439E+00
        -11   -1    0    0    0    0  0.00000000000E+00  0.00000000000E+00  0.45593999997E+02  0.45594000000E+02  0.51100000000E-03 0. -1.
         11   -1    0    0    0    0 -0.00000000000E+00 -0.00000000000E+00 -0.45593999997E+02  0.45594000000E+02  0.51100000000E-03 0.  1.
    9900012    2    1    2    0    0 -0.30590972359E+02  0.24056792515E+02  0.11774092731E+02  0.50528854465E+02  0.29999983632E+02 0.  0.
        -12    1    1    2    0    0  0.30590972359E+02 -0.24056792515E+02 -0.11774092731E+02  0.40659145535E+02  0.00000000000E+00 0.  1.
         11    1    3    3    0    0 -0.24261449415E+02  0.23859255487E+02  0.23834376015E+01  0.34111035973E+02  0.51100000000E-03 0. -1.
        -11    1    3    3    0    0 -0.23075001614E+01 -0.38241372254E+01 -0.99574544860E+00  0.45760345031E+01  0.51100000000E-03 0.  1.
         12    1    3    3    0    0 -0.40220227829E+01  0.40216742530E+01  0.10386400578E+02  0.11841783989E+02  0.00000000000E+00 0. -1.
</event>
<event>
 7    1  0.5525118E-011  0.5052886E+02  0.7816164E-02  0.1300439E+00
        -11   -1    0    0    0    0  0.00000000000E+00  0.00000000000E+00  0.45593999997E+02  0.45594000000E+02  0.51100000000E-03 0.  1.
         11   -1    0    0    0    0 -0.00000000000E+00 -0.00000000000E+00 -0.45593999997E+02  0.45594000000E+02  0.51100000000E-03 0. -1.
    9900012    2    1    2    0    0 -0.26103664374E+02  0.29958079524E+02  0.86184617967E+01  0.50528859500E+02  0.29999998935E+02 0.  0.
        -12    1    1    2    0    0  0.26103664374E+02 -0.29958079524E+02 -0.86184617967E+01  0.40659140500E+02  0.00000000000E+00 0.  1.
         11    1    3    3    0    0 -0.21825165244E+01  0.58458511830E+01 -0.68541095082E+01  0.92690976824E+01  0.51100000000E-03 0. -1.
        -11    1    3    3    0    0 -0.18326235499E+02  0.92575243596E+01  0.14913566959E+02  0.25376507729E+02  0.51100000000E-03 0.  1.
        -12    1    3    3    0    0 -0.55949123504E+01  0.14854703981E+02  0.55900434620E+00  0.15883254088E+02  0.00000000000E+00 0.  1.
</event>
<event>
 7    1  0.5525118E-011  0.5052886E+02  0.7816164E-02  0.1300439E+00
        -11   -1    0    0    0    0  0.00000000000E+00  0.00000000000E+00  0.45593999997E+02  0.45594000000E+02  0.51100000000E-03 0.  1.
         11   -1    0    0    0    0 -0.00000000000E+00 -0.00000000000E+00 -0.45593999997E+02  0.45594000000E+02  0.51100000000E-03 0. -1.
    9900012    2    1    2    0    0 -0.48385069859E+00 -0.17282850613E+02 -0.36799931477E+02  0.50528855966E+02  0.29999988195E+02 0.  0.
        -12    1    1    2    0    0  0.48385069859E+00  0.17282850613E+02  0.36799931477E+02  0.40659144034E+02  0.00000000000E+00 0.  1.
         11    1    3    3    0    0  0.42417486691E+01  0.15769255587E+01 -0.22480746402E+02  0.22931704800E+02  0.51100000000E-03 0. -1.
        -11    1    3    3    0    0 -0.15752621184E+00 -0.17406503569E+02 -0.14706322312E+02  0.22787871713E+02  0.51100000000E-03 0.  1.
        -12    1    3    3    0    0 -0.45680731559E+01 -0.14532726034E+01  0.38713723711E+00  0.48092794531E+01  0.00000000000E+00 0.  1.
</event>
<event>
 7    1  0.5525118E-011  0.5052886E+02  0.7816164E-02  0.1300439E+00
        -11   -1    0    0    0    0  0.00000000000E+00  0.00000000000E+00  0.45593999997E+02  0.45594000000E+02  0.51100000000E-03 0. -1.
         11   -1    0    0    0    0 -0.00000000000E+00 -0.00000000000E+00 -0.45593999997E+02  0.45594000000E+02  0.51100000000E-03 0.  1.
    9900012    2    1    2    0    0 -0.18442543689E+02  0.33669057250E+02  0.13395247437E+02  0.50528862186E+02  0.30000007101E+02 0.  0.
        -12    1    1    2    0    0  0.18442543689E+02 -0.33669057250E+02 -0.13395247437E+02  0.40659137814E+02  0.00000000000E+00 0.  1.
         11    1    3    3    0    0 -0.99084691931E+01  0.97356290094E+01 -0.10029506116E+01  0.13927172870E+02  0.51100000000E-03 0. -1.
        -11    1    3    3    0    0  0.41131480883E+01 -0.18217825472E+01  0.41881584235E+01  0.61463444490E+01  0.51100000000E-03 0.  1.
        -12    1    3    3    0    0 -0.12647222584E+02  0.25755210788E+02  0.10210039625E+02  0.30455344867E+02  0.00000000000E+00 0.  1.
</event>
<event>
 7    1  0.5525118E-011  0.5052885E+02  0.7816164E-02  0.1300439E+00
        -11   -1    0    0    0    0  0.00000000000E+00  0.00000000000E+00  0.45593999997E+02  0.45594000000E+02  0.51100000000E-03 0.  1.
         11   -1    0    0    0    0 -0.00000000000E+00 -0.00000000000E+00 -0.45593999997E+02  0.45594000000E+02  0.51100000000E-03 0. -1.
    9900012    2    1    2    0    0 -0.35359879101E+02 -0.19096295722E+02  0.61787577082E+01  0.50528848420E+02  0.29999965259E+02 0.  0.
        -12    1    1    2    0    0  0.35359879101E+02  0.19096295722E+02 -0.61787577082E+01  0.40659151580E+02  0.00000000000E+00 0.  1.
         11    1    3    3    0    0 -0.27026162495E+01 -0.35036947802E+01 -0.76588461493E+01  0.88452210998E+01  0.51100000000E-03 0. -1.
        -11    1    3    3    0    0 -0.15515892386E+02 -0.75392274184E+01  0.14787043388E+02  0.22720904890E+02  0.51100000000E-03 0.  1.
         12    1    3    3    0    0 -0.17141370466E+02 -0.80533735235E+01 -0.94943953077E+00  0.18962722430E+02  0.00000000000E+00 0. -1.
</event>
<event>
 7    1  0.5525118E-011  0.5052884E+02  0.7816164E-02  0.1300439E+00
        -11   -1    0    0    0    0  0.00000000000E+00  0.00000000000E+00  0.45593999997E+02  0.45594000000E+02  0.51100000000E-03 0.  1.
         11   -1    0    0    0    0 -0.00000000000E+00 -0.00000000000E+00 -0.45593999997E+02  0.45594000000E+02  0.51100000000E-03 0. -1.
    9900012    2    1    2    0    0  0.27423554414E+02 -0.74955411123E+01 -0.29067734011E+02  0.50528835796E+02  0.29999926884E+02 0.  0.
        -12    1    1    2    0    0 -0.27423554414E+02  0.74955411123E+01  0.29067734011E+02  0.40659164204E+02  0.00000000000E+00 0.  1.
         11    1    3    3    0    0  0.23638333827E+02 -0.98939895679E+01 -0.11146908655E+02  0.27944864081E+02  0.51100000000E-03 0.  1.
        -11    1    3    3    0    0 -0.24270005161E+01  0.57170828859E+01 -0.11418130427E+02  0.12998041042E+02  0.51100000000E-03 0. -1.
         12    1    3    3    0    0  0.62122211033E+01 -0.33186344303E+01 -0.65026949286E+01  0.95859306722E+01  0.00000000000E+00 0. -1.
</event>
<event>
 7    1  0.5525118E-011  0.5052884E+02  0.7816164E-02  0.1300439E+00
        -11   -1    0    0    0    0  0.00000000000E+00  0.00000000000E+00  0.45593999997E+02  0.45594000000E+02  0.51100000000E-03 0.  1.
         11   -1    0    0    0    0 -0.00000000000E+00 -0.00000000000E+00 -0.45593999997E+02  0.45594000000E+02  0.51100000000E-03 0. -1.
    9900012    2    1    2    0    0  0.16312629375E+02  0.35694205603E+02 -0.10629628390E+02  0.50528841247E+02  0.29999943456E+02 0.  0.
        -12    1    1    2    0    0 -0.16312629375E+02 -0.35694205603E+02  0.10629628390E+02  0.40659158753E+02  0.00000000000E+00 0.  1.
         11    1    3    3    0    0  0.82460779586E+01 -0.54504681833E+00 -0.76483017913E+01  0.11260168661E+02  0.51100000000E-03 0. -1.
        -11    1    3    3    0    0 -0.29677410686E+01  0.58963373638E+01 -0.22480607523E+01  0.69733821611E+01  0.51100000000E-03 0.  1.
         12    1    3    3    0    0  0.11034292485E+02  0.30342915057E+02 -0.73326584675E+00  0.32295290425E+02  0.00000000000E+00 0. -1.
</event>
<event>
 7    1  0.5525118E-011  0.5052886E+02  0.7816164E-02  0.1300439E+00
        -11   -1    0    0    0    0  0.00000000000E+00  0.00000000000E+00  0.45593999997E+02  0.45594000000E+02  0.51100000000E-03 0.  1.
         11   -1    0    0    0    0 -0.00000000000E+00 -0.00000000000E+00 -0.45593999997E+02  0.45594000000E+02  0.51100000000E-03 0. -1.
    9900012    2    1    2    0    0 -0.13267907121E+02  0.10825418825E+02 -0.36877346924E+02  0.50528858737E+02  0.29999996616E+02 0.  0.
        -12    1    1    2    0    0  0.13267907121E+02 -0.10825418825E+02  0.36877346924E+02  0.40659141263E+02  0.00000000000E+00 0.  1.
         11    1    3    3    0    0  0.58934252133E+01  0.24167890163E+01 -0.17879061401E+02  0.18979835793E+02  0.51100000000E-03 0. -1.
        -11    1    3    3    0    0 -0.20036771743E+02  0.38067664347E+01 -0.14259217688E+02  0.24885517513E+02  0.51100000000E-03 0.  1.
         12    1    3    3    0    0  0.87543940837E+00  0.46018633742E+01 -0.47390678351E+01  0.66635054302E+01  0.00000000000E+00 0. -1.
</event>
<event>
 7    1  0.5525118E-011  0.5052887E+02  0.7816164E-02  0.1300439E+00
        -11   -1    0    0    0    0  0.00000000000E+00  0.00000000000E+00  0.45593999997E+02  0.45594000000E+02  0.51100000000E-03 0. -1.
         11   -1    0    0    0    0 -0.00000000000E+00 -0.00000000000E+00 -0.45593999997E+02  0.45594000000E+02  0.51100000000E-03 0.  1.
    9900012    2    1    2    0    0 -0.20922089575E+02 -0.25861735027E+02  0.23379521276E+02  0.50528865898E+02  0.30000018384E+02 0.  0.
        -12    1    1    2    0    0  0.20922089575E+02  0.25861735027E+02 -0.23379521276E+02  0.40659134102E+02  0.00000000000E+00 0.  1.
         11    1    3    3    0    0 -0.17379119025E+02 -0.13220980711E+02  0.18807322176E+02  0.28819151215E+02  0.51100000000E-03 0. -1.
        -11    1    3    3    0    0  0.54660176430E+01 -0.10552044864E+02  0.15718458008E+01  0.11987230671E+02  0.51100000000E-03 0.  1.
        -12    1    3    3    0    0 -0.90089881935E+01 -0.20887094529E+01  0.30003532992E+01  0.97224840122E+01  0.00000000000E+00 0.  1.
</event>
<event>
 7    1  0.5525118E-011  0.5052886E+02  0.7816164E-02  0.1300439E+00
        -11   -1    0    0    0    0  0.00000000000E+00  0.00000000000E+00  0.45593999997E+02  0.45594000000E+02  0.51100000000E-03 0.  1.
         11   -1    0    0    0    0 -0.00000000000E+00 -0.00000000000E+00 -0.45593999997E+02  0.45594000000E+02  0.51100000000E-03 0. -1.
    9900012    2    1    2    0    0 -0.83411300999E+01 -0.19228012965E+02 -0.34840710537E+02  0.50528855338E+02  0.29999986286E+02 0.  0.
        -12    1    1    2    0    0  0.83411300999E+01  0.19228012965E+02  0.34840710537E+02  0.40659144662E+02  0.00000000000E+00 0.  1.
         11    1    3    3    0    0 -0.75058284499E+01 -0.21184433282E+02 -0.21641416208E+02  0.31200457849E+02  0.51100000000E-03 0. -1.
        -11    1    3    3    0    0  0.23401563826E+01 -0.18169015109E+01  0.18491889249E+01  0.34924150579E+01  0.51100000000E-03 0.  1.
         12    1    3    3    0    0 -0.31754580325E+01  0.37733218282E+01 -0.15048483254E+02  0.15835982432E+02  0.00000000000E+00 0. -1.
</event>
<event>
 7    1  0.5525118E-011  0.5052886E+02  0.7816164E-02  0.1300439E+00
        -11   -1    0    0    0    0  0.00000000000E+00  0.00000000000E+00  0.45593999997E+02  0.45594000000E+02  0.51100000000E-03 0. -1.
         11   -1    0    0    0    0 -0.00000000000E+00 -0.00000000000E+00 -0.45593999997E+02  0.45594000000E+02  0.51100000000E-03 0.  1.
    9900012    2    1    2    0    0 -0.56860935012E+01  0.22932884915E+02  0.33089522764E+02  0.50528863430E+02  0.30000010883E+02 0.  0.
        -12    1    1    2    0    0  0.56860935012E+01 -0.22932884915E+02 -0.33089522764E+02  0.40659136570E+02  0.00000000000E+00 0.  1.
         11    1    3    3    0    0 -0.12278551602E+02  0.69904539045E+01  0.32445927183E+01  0.14496780932E+02  0.51100000000E-03 0. -1.
        -11    1    3    3    0    0  0.11702120342E+01  0.32771994433E+01  0.16459262514E+02  0.16823101830E+02  0.51100000000E-03 0.  1.
         12    1    3    3    0    0  0.54222460663E+01  0.12665231567E+02  0.13385667532E+02  0.19208980669E+02  0.00000000000E+00 0. -1.
</event>
<event>
 7    1  0.5525118E-011  0.5052886E+02  0.7816164E-02  0.1300439E+00
        -11   -1    0    0    0    0  0.00000000000E+00  0.00000000000E+00  0.45593999997E+02  0.45594000000E+02  0.51100000000E-03 0.  1.
         11   -1    0    0    0    0 -0.00000000000E+00 -0.00000000000E+00 -0.45593999997E+02  0.45594000000E+02  0.51100000000E-03 0. -1.
    9900012    2    1    2    0    0 -0.29329398174E+02  0.79052076949E+01 -0.27027020252E+02  0.50528859212E+02  0.29999998061E+02 0.  0.
        -12    1    1    2    0    0  0.29329398174E+02 -0.79052076949E+01  0.27027020252E+02  0.40659140788E+02  0.00000000000E+00 0.  1.
         11    1    3    3    0    0 -0.17649588299E+02  0.73463965159E+01 -0.83985220109E+01  0.20880916674E+02  0.51100000000E-03 0. -1.
        -11    1    3    3    0    0  0.25483585052E+01  0.63106759408E+01 -0.98355640244E+01  0.11960647217E+02  0.51100000000E-03 0.  1.
        -12    1    3    3    0    0 -0.14228168379E+02 -0.57518647618E+01 -0.87929342163E+01  0.17687295322E+02  0.00000000000E+00 0.  1.
</event>
<event>
 7    1  0.5525118E-011  0.5052887E+02  0.7816164E-02  0.1300439E+00
        -11   -1    0    0    0    0  0.00000000000E+00  0.00000000000E+00  0.45593999997E+02  0.45594000000E+02  0.51100000000E-03 0.  1.
         11   -1    0    0    0    0 -0.00000000000E+00 -0.00000000000E+00 -0.45593999997E+02  0.45594000000E+02  0.51100000000E-03 0. -1.
    9900012    2    1    2    0    0 -0.24541364258E+02  0.31977238460E+02 -0.53238019383E+01  0.50528865648E+02  0.30000017625E+02 0.  0.
        -12    1    1    2    0    0  0.24541364258E+02 -0.31977238460E+02  0.53238019383E+01  0.40659134352E+02  0.00000000000E+00 0.  1.
         11    1    3    3    0    0 -0.89601431963E+01  0.20682447795E+02 -0.11883052362E+02  0.25480477754E+02  0.51100000000E-03 0. -1.
        -11    1    3    3    0    0 -0.16649384906E+02  0.56662680740E+01  0.77134082209E+01  0.19204303639E+02  0.51100000000E-03 0.  1.
        -12    1    3    3    0    0  0.10681638444E+01  0.56285225911E+01 -0.11541577975E+01  0.58440842550E+01  0.00000000000E+00 0.  1.
</event>
<event>
 7    1  0.5525118E-011  0.5052882E+02  0.7816164E-02  0.1300439E+00
        -11   -1    0    0    0    0  0.00000000000E+00  0.00000000000E+00  0.45593999997E+02  0.45594000000E+02  0.51100000000E-03 0. -1.
         11   -1    0    0    0    0 -0.00000000000E+00 -0.00000000000E+00 -0.45593999997E+02  0.45594000000E+02  0.51100000000E-03 0.  1.
    9900012    2    1    2    0    0 -0.36508684870E+02 -0.12681317595E+02  0.12628118373E+02  0.50528815791E+02  0.29999866078E+02 0.  0.
        -12    1    1    2    0    0  0.36508684870E+02  0.12681317595E+02 -0.12628118373E+02  0.40659184209E+02  0.00000000000E+00 0.  1.
         11    1    3    3    0    0 -0.11878638619E+02 -0.14445110503E+02  0.16999843508E+02  0.25273661240E+02  0.51100000000E-03 0. -1.
        -11    1    3    3    0    0 -0.66714839541E+01  0.16268227876E+01 -0.51228547557E+00  0.68860501887E+01  0.51100000000E-03 0.  1.
         12    1    3    3    0    0 -0.17958562297E+02  0.13697012076E+00 -0.38594396594E+01  0.18369104363E+02  0.00000000000E+00 0. -1.
</event>
<event>
 7    1  0.5525118E-011  0.5052888E+02  0.7816164E-02  0.1300439E+00
        -11   -1    0    0    0    0  0.00000000000E+00  0.00000000000E+00  0.45593999997E+02  0.45594000000E+02  0.51100000000E-03 0.  1.
         11   -1    0    0    0    0 -0.00000000000E+00 -0.00000000000E+00 -0.45593999997E+02  0.45594000000E+02  0.51100000000E-03 0. -1.
    9900012    2    1    2    0    0 -0.16602626647E+02 -0.24071971034E+02 -0.28249897219E+02  0.50528884246E+02  0.30000074154E+02 0.  0.
        -12    1    1    2    0    0  0.16602626647E+02  0.24071971034E+02  0.28249897219E+02  0.40659115754E+02  0.00000000000E+00 0.  1.
         11    1    3    3    0    0 -0.10040440115E+01 -0.41782760853E+01  0.54709081943E+01  0.69567903629E+01  0.51100000000E-03 0.  1.
        -11    1    3    3    0    0 -0.79577925793E+01 -0.11353349972E+02 -0.95885247060E+01  0.16857189108E+02  0.51100000000E-03 0. -1.
         12    1    3    3    0    0 -0.76407900561E+01 -0.85403449764E+01 -0.24132280707E+02  0.26714904775E+02  0.00000000000E+00 0. -1.
</event>
<event>
 7    1  0.5525118E-011  0.5052886E+02  0.7816164E-02  0.1300439E+00
        -11   -1    0    0    0    0  0.00000000000E+00  0.00000000000E+00  0.45593999997E+02  0.45594000000E+02  0.51100000000E-03 0. -1.
         11   -1    0    0    0    0 -0.00000000000E+00 -0.00000000000E+00 -0.45593999997E+02  0.45594000000E+02  0.51100000000E-03 0.  1.
    9900012    2    1    2    0    0 -0.28364574333E+02 -0.21076331414E+01  0.29054680164E+02  0.50528860388E+02  0.30000001635E+02 0.  0.
        -12    1    1    2    0    0  0.28364574333E+02  0.21076331414E+01 -0.29054680164E+02  0.40659139612E+02  0.00000000000E+00 0.  1.
         11    1    3    3    0    0 -0.92652771676E+01  0.71333603488E+01  0.16908320854E+02  0.20557760219E+02  0.51100000000E-03 0. -1.
        -11    1    3    3    0    0 -0.13614024128E+02 -0.13304924881E+02  0.41975028200E+01  0.19493119536E+02  0.51100000000E-03 0.  1.
        -12    1    3    3    0    0 -0.54852730377E+01  0.40639313912E+01  0.79488564899E+01  0.10477980633E+02  0.00000000000E+00 0.  1.
</event>
<event>
 7    1  0.5525118E-011  0.5052884E+02  0.7816164E-02  0.1300439E+00
        -11   -1    0    0    0    0  0.00000000000E+00  0.00000000000E+00  0.45593999997E+02  0.45594000000E+02  0.51100000000E-03 0.  1.
         11   -1    0    0    0    0 -0.00000000000E+00 -0.00000000000E+00 -0.45593999997E+02  0.45594000000E+02  0.51100000000E-03 0. -1.
    9900012    2    1    2    0    0  0.30254057977E+01 -0.63614902771E+01 -0.40044291403E+02  0.50528844663E+02  0.29999953836E+02 0.  0.
        -12    1    1    2    0    0 -0.30254057977E+01  0.63614902771E+01  0.40044291403E+02  0.40659155337E+02  0.00000000000E+00 0.  1.
         11    1    3    3    0    0  0.10213094978E+02  0.36701540370E+01 -0.11462476024E+02  0.15784983261E+02  0.51100000000E-03 0.  1.
        -11    1    3    3    0    0 -0.79248492443E+01  0.15237149309E+01 -0.10005382545E+02  0.12854284222E+02  0.51100000000E-03 0. -1.
         12    1    3    3    0    0  0.73716006355E+00 -0.11555359245E+02 -0.18576432834E+02  0.21889577179E+02  0.00000000000E+00 0. -1.
</event>
<event>
 7    1  0.5525118E-011  0.5052887E+02  0.7816164E-02  0.1300439E+00
        -11   -1    0    0    0    0  0.00000000000E+00  0.00000000000E+00  0.45593999997E+02  0.45594000000E+02  0.51100000000E-03 0.  1.
         11   -1    0    0    0    0 -0.00000000000E+00 -0.00000000000E+00 -0.45593999997E+02  0.45594000000E+02  0.51100000000E-03 0. -1.
    9900012    2    1    2    0    0 -0.36081627005E+02  0.26612900828E+01 -0.18552595621E+02  0.50528867244E+02  0.30000022474E+02 0.  0.
        -12    1    1    2    0    0  0.36081627005E+02 -0.26612900828E+01  0.18552595621E+02  0.40659132756E+02  0.00000000000E+00 0.  1.
         11    1    3    3    0    0 -0.31906670360E+02 -0.53746243621E+01 -0.88855384236E+01  0.33554060765E+02  0.51100000000E-03 0. -1.
        -11    1    3    3    0    0 -0.50466758062E+01  0.67033944966E+01 -0.11696728198E+02  0.14395064615E+02  0.51100000000E-03 0.  1.
         12    1    3    3    0    0  0.87171916175E+00  0.13325199483E+01  0.20296710007E+01  0.25797418632E+01  0.00000000000E+00 0. -1.
</event>
<event>
 7    1  0.5525118E-011  0.5052884E+02  0.7816164E-02  0.1300439E+00
        -11   -1    0    0    0    0  0.00000000000E+00  0.00000000000E+00  0.45593999997E+02  0.45594000000E+02  0.51100000000E-03 0.  1.
         11   -1    0    0    0    0 -0.00000000000E+00 -0.00000000000E+00 -0.45593999997E+02  0.45594000000E+02  0.51100000000E-03 0. -1.
    9900012    2    1    2    0    0 -0.23305634477E+02 -0.50214164405E+00 -0.33313100013E+02  0.50528838953E+02  0.29999936481E+02 0.  0.
        -12    1    1    2    0    0  0.23305634477E+02  0.50214164405E+00  0.33313100013E+02  0.40659161047E+02  0.00000000000E+00 0.  1.
         11    1    3    3    0    0 -0.12400493677E+02 -0.13778013682E+02 -0.14751749074E+02  0.23690082428E+02  0.51100000000E-03 0. -1.
        -11    1    3    3    0    0  0.75049379576E+00  0.34290292416E+01 -0.11637374581E+01  0.36980762038E+01  0.51100000000E-03 0.  1.
         12    1    3    3    0    0 -0.11655634596E+02  0.98468427961E+01 -0.17397613481E+02  0.23140680321E+02  0.00000000000E+00 0. -1.
</event>
<event>
 7    1  0.5525118E-011  0.5052886E+02  0.7816164E-02  0.1300439E+00
        -11   -1    0    0    0    0  0.00000000000E+00  0.00000000000E+00  0.45593999997E+02  0.45594000000E+02  0.51100000000E-03 0.  1.
         11   -1    0    0    0    0 -0.00000000000E+00 -0.00000000000E+00 -0.45593999997E+02  0.45594000000E+02  0.51100000000E-03 0. -1.
    9900012    2    1    2    0    0  0.32294825775E+02  0.10231233276E+02  0.22484026694E+02  0.50528863726E+02  0.30000011782E+02 0.  0.
        -12    1    1    2    0    0 -0.32294825775E+02 -0.10231233276E+02 -0.22484026694E+02  0.40659136274E+02  0.00000000000E+00 0.  1.
         11    1    3    3    0    0  0.15329997636E+01  0.84929094684E+01 -0.73830077108E+00  0.86616792715E+01  0.51100000000E-03 0. -1.
        -11    1    3    3    0    0  0.30798566274E+02 -0.22128460411E+01  0.20313246711E+02  0.36960470294E+02  0.51100000000E-03 0.  1.
        -12    1    3    3    0    0 -0.36740262927E-01  0.39511698488E+01  0.29090807539E+01  0.49067141606E+01  0.00000000000E+00 0.  1.
</event>
<event>
 7    1  0.5525118E-011  0.5052891E+02  0.7816164E-02  0.1300439E+00
        -11   -1    0    0    0    0  0.00000000000E+00  0.00000000000E+00  0.45593999997E+02  0.45594000000E+02  0.51100000000E-03 0.  1.
         11   -1    0    0    0    0 -0.00000000000E+00 -0.00000000000E+00 -0.45593999997E+02  0.45594000000E+02  0.51100000000E-03 0. -1.
    9900012    2    1    2    0    0  0.27204052810E+02 -0.22647376869E+02 -0.20004944463E+02  0.50528905430E+02  0.30000138544E+02 0.  0.
        -12    1    1    2    0    0 -0.27204052810E+02  0.22647376869E+02  0.20004944463E+02  0.40659094570E+02  0.00000000000E+00 0.  1.
         11    1    3    3    0    0  0.28877845481E+01 -0.18096455088E+02 -0.11663044454E+02  0.21722053138E+02  0.51100000000E-03 0. -1.
        -11    1    3    3    0    0  0.14016849997E+02  0.35424178005E+01 -0.48690031618E+01  0.15255425256E+02  0.51100000000E-03 0.  1.
         12    1    3    3    0    0  0.10299418265E+02 -0.80933395811E+01 -0.34728968472E+01  0.13551427035E+02  0.00000000000E+00 0. -1.
</event>
<event>
 7    1  0.5525118E-011  0.5052886E+02  0.7816164E-02  0.1300439E+00
        -11   -1    0    0    0    0  0.00000000000E+00  0.00000000000E+00  0.45593999997E+02  0.45594000000E+02  0.51100000000E-03 0. -1.
         11   -1    0    0    0    0 -0.00000000000E+00 -0.00000000000E+00 -0.45593999997E+02  0.45594000000E+02  0.51100000000E-03 0.  1.
    9900012    2    1    2    0    0  0.39693571873E+02  0.83110864727E+01  0.29174872820E+01  0.50528861564E+02  0.30000005209E+02 0.  0.
        -12    1    1    2    0    0 -0.39693571873E+02 -0.83110864727E+01 -0.29174872820E+01  0.40659138436E+02  0.00000000000E+00 0.  1.
         11    1    3    3    0    0  0.10485422598E+02  0.61000089409E+01  0.28599562487E+01  0.12463287935E+02  0.51100000000E-03 0. -1.
        -11    1    3    3    0    0  0.23045235363E+02 -0.86383238107E+01  0.40983789595E+01  0.24949954340E+02  0.51100000000E-03 0.  1.
        -12    1    3    3    0    0  0.61629139112E+01  0.10849401342E+02 -0.40408479262E+01  0.13115619289E+02  0.00000000000E+00 0.  1.
</event>
<event>
 7    1  0.5525118E-011  0.5052886E+02  0.7816164E-02  0.1300439E+00
        -11   -1    0    0    0    0  0.00000000000E+00  0.00000000000E+00  0.45593999997E+02  0.45594000000E+02  0.51100000000E-03 0.  1.
         11   -1    0    0    0    0 -0.00000000000E+00 -0.00000000000E+00 -0.45593999997E+02  0.45594000000E+02  0.51100000000E-03 0. -1.
    9900012    2    1    2    0    0 -0.20174971573E+02  0.45893898282E+01 -0.35001048392E+02  0.50528863689E+02  0.30000011670E+02 0.  0.
        -12    1    1    2    0    0  0.20174971573E+02 -0.45893898282E+01  0.35001048392E+02  0.40659136311E+02  0.00000000000E+00 0.  1.
         11    1    3    3    0    0 -0.11509473024E+01  0.61844662667E+01 -0.69222514729E+01  0.93536018951E+01  0.51100000000E-03 0. -1.
        -11    1    3    3    0    0 -0.18699761584E+02 -0.46333036516E+01 -0.79915797371E+01  0.20856987630E+02  0.51100000000E-03 0.  1.
        -12    1    3    3    0    0 -0.32426268667E+00  0.30382272131E+01 -0.20087217182E+02  0.20318274164E+02  0.00000000000E+00 0.  1.
</event>
<event>
 7    1  0.5525118E-011  0.5052887E+02  0.7816164E-02  0.1300439E+00
        -11   -1    0    0    0    0  0.00000000000E+00  0.00000000000E+00  0.45593999997E+02  0.45594000000E+02  0.51100000000E-03 0.  1.
         11   -1    0    0    0    0 -0.00000000000E+00 -0.00000000000E+00 -0.45593999997E+02  0.45594000000E+02  0.51100000000E-03 0. -1.
    9900012    2    1    2    0    0  0.17177969666E+01  0.34553357570E+02 -0.21360693068E+02  0.50528873668E+02  0.30000042000E+02 0.  0.
        -12    1    1    2    0    0 -0.17177969666E+01 -0.34553357570E+02  0.21360693068E+02  0.40659126332E+02  0.00000000000E+00 0.  1.
         11    1    3    3    0    0 -0.11625590448E+02  0.12078334044E+02 -0.14913231337E+02  0.22437579542E+02  0.51100000000E-03 0. -1.
        -11    1    3    3    0    0  0.10815213089E+02  0.14251114993E+02 -0.10213886315E+01  0.17919440497E+02  0.51100000000E-03 0.  1.
        -12    1    3    3    0    0  0.25281743252E+01  0.82239085325E+01 -0.54260730995E+01  0.10171853629E+02  0.00000000000E+00 0.  1.
</event>
<event>
 7    1  0.5525118E-011  0.5052886E+02  0.7816164E-02  0.1300439E+00
        -11   -1    0    0    0    0  0.00000000000E+00  0.00000000000E+00  0.45593999997E+02  0.45594000000E+02  0.51100000000E-03 0.  1.
         11   -1    0    0    0    0 -0.00000000000E+00 -0.00000000000E+00 -0.45593999997E+02  0.45594000000E+02  0.51100000000E-03 0. -1.
    9900012    2    1    2    0    0 -0.18837831457E+02 -0.11821116560E+02 -0.34037667000E+02  0.50528862459E+02  0.30000007932E+02 0.  0.
        -12    1    1    2    0    0  0.18837831457E+02  0.11821116560E+02  0.34037667000E+02  0.40659137541E+02  0.00000000000E+00 0.  1.
         11    1    3    3    0    0 -0.11180360675E+02  0.67231510107E+01 -0.77274948939E+01  0.15162961516E+02  0.51100000000E-03 0. -1.
        -11    1    3    3    0    0  0.11491232976E+01 -0.12242490430E+02 -0.10315686890E+02  0.16050310045E+02  0.51100000000E-03 0.  1.
         12    1    3    3    0    0 -0.88065940791E+01 -0.63017771415E+01 -0.15994485217E+02  0.19315590899E+02  0.00000000000E+00 0. -1.
</event>
<event>
 7    1  0.5525118E-011  0.5052886E+02  0.7816164E-02  0.1300439E+00
        -11   -1    0    0    0    0  0.00000000000E+00  0.00000000000E+00  0.45593999997E+02  0.45594000000E+02  0.51100000000E-03 0.  1.
         11   -1    0    0    0    0 -0.00000000000E+00 -0.00000000000E+00 -0.45593999997E+02  0.45594000000E+02  0.51100000000E-03 0. -1.
    9900012    2    1    2    0    0 -0.37455875640E+02  0.22107073453E+01  0.15663208449E+02  0.50528856553E+02  0.29999989979E+02 0.  0.
        -12    1    1    2    0    0  0.37455875640E+02 -0.22107073453E+01 -0.15663208449E+02  0.40659143447E+02  0.00000000000E+00 0.  1.
         11    1    3    3    0    0 -0.32365394266E+02  0.39861080591E+01  0.23771422463E+02  0.40354532950E+02  0.51100000000E-03 0. -1.
        -11    1    3    3    0    0  0.15713141609E+00 -0.20595503589E+00 -0.18063337528E+01  0.18248149623E+01  0.51100000000E-03 0.  1.
         12    1    3    3    0    0 -0.52476127892E+01 -0.15694456778E+01 -0.63018802605E+01  0.83495086406E+01  0.00000000000E+00 0. -1.
</event>
<event>
 7    1  0.5525118E-011  0.5052885E+02  0.7816164E-02  0.1300439E+00
        -11   -1    0    0    0    0  0.00000000000E+00  0.00000000000E+00  0.45593999997E+02  0.45594000000E+02  0.51100000000E-03 0.  1.
         11   -1    0    0    0    0 -0.00000000000E+00 -0.00000000000E+00 -0.45593999997E+02  0.45594000000E+02  0.51100000000E-03 0. -1.
    9900012    2    1    2    0    0 -0.42466492323E+01  0.30843348514E+01 -0.40318965109E+02  0.50528854674E+02  0.29999984268E+02 0.  0.
        -12    1    1    2    0    0  0.42466492323E+01 -0.30843348514E+01  0.40318965109E+02  0.40659145326E+02  0.00000000000E+00 0.  1.
         11    1    3    3    0    0  0.33189798311E+00  0.51401337367E+01 -0.33444680826E+02  0.33838998314E+02  0.51100000000E-03 0. -1.
        -11    1    3    3    0    0 -0.16105579713E+01 -0.76000547025E+01 -0.57701270953E+00  0.77902292898E+01  0.51100000000E-03 0.  1.
        -12    1    3    3    0    0 -0.29679892441E+01  0.55442558172E+01 -0.62972715732E+01  0.88996270701E+01  0.00000000000E+00 0.  1.
</event>
<event>
 7    1  0.5525118E-011  0.5052886E+02  0.7816164E-02  0.1300439E+00
        -11   -1    0    0    0    0  0.00000000000E+00  0.00000000000E+00  0.45593999997E+02  0.45594000000E+02  0.51100000000E-03 0.  1.
         11   -1    0    0    0    0 -0.00000000000E+00 -0.00000000000E+00 -0.45593999997E+02  0.45594000000E+02  0.51100000000E-03 0. -1.
    9900012    2    1    2    0    0  0.25505759238E+02 -0.27049070811E+02 -0.16461146944E+02  0.50528863944E+02  0.30000012445E+02 0.  0.
        -12    1    1    2    0    0 -0.25505759238E+02  0.27049070811E+02  0.16461146944E+02  0.40659136056E+02  0.00000000000E+00 0.  1.
         11    1    3    3    0    0  0.14953123839E+02 -0.26174002161E+02 -0.21332383080E+02  0.36928916444E+02  0.51100000000E-03 0. -1.
        -11    1    3    3    0    0  0.79589658320E+01 -0.31029878999E+01  0.12738985826E+01  0.86369258931E+01  0.51100000000E-03 0.  1.
         12    1    3    3    0    0  0.25936695671E+01  0.22279192494E+01  0.35973375524E+01  0.49630216069E+01  0.00000000000E+00 0. -1.
</event>
<event>
 7    1  0.5525118E-011  0.5052884E+02  0.7816164E-02  0.1300439E+00
        -11   -1    0    0    0    0  0.00000000000E+00  0.00000000000E+00  0.45593999997E+02  0.45594000000E+02  0.51100000000E-03 0. -1.
         11   -1    0    0    0    0 -0.00000000000E+00 -0.00000000000E+00 -0.45593999997E+02  0.45594000000E+02  0.51100000000E-03 0.  1.
    9900012    2    1    2    0    0 -0.35294546223E+01  0.27007623820E+02  0.30187724420E+02  0.50528837441E+02  0.29999931887E+02 0.  0.
        -12    1    1    2    0    0  0.35294546223E+01 -0.27007623820E+02 -0.30187724420E+02  0.40659162559E+02  0.00000000000E+00 0.  1.
         11    1    3    3    0    0 -0.17827419433E+00  0.24921524577E+02  0.25305507876E+02  0.35517360517E+02  0.51100000000E-03 0. -1.
        -11    1    3    3    0    0  0.30158573726E+00  0.64324034284E+01 -0.13515920697E+01  0.65797848906E+01  0.51100000000E-03 0.  1.
         12    1    3    3    0    0 -0.36527661652E+01 -0.43463041855E+01  0.62338086130E+01  0.84316920339E+01  0.00000000000E+00 0. -1.
</event>
<event>
 7    1  0.5525118E-011  0.5052886E+02  0.7816164E-02  0.1300439E+00
        -11   -1    0    0    0    0  0.00000000000E+00  0.00000000000E+00  0.45593999997E+02  0.45594000000E+02  0.51100000000E-03 0. -1.
         11   -1    0    0    0    0 -0.00000000000E+00 -0.00000000000E+00 -0.45593999997E+02  0.45594000000E+02  0.51100000000E-03 0.  1.
    9900012    2    1    2    0    0  0.38363679187E+02 -0.10289035650E+02 -0.86907942062E+01  0.50528855404E+02  0.29999986485E+02 0.  0.
        -12    1    1    2    0    0 -0.38363679187E+02  0.10289035650E+02  0.86907942062E+01  0.40659144596E+02  0.00000000000E+00 0.  1.
         11    1    3    3    0    0  0.12747547369E+02 -0.10689957177E+02  0.72345250630E+00  0.16652283091E+02  0.51100000000E-03 0. -1.
        -11    1    3    3    0    0  0.10682232553E+02  0.86085001110E+01  0.12468018820E+01  0.13775735250E+02  0.51100000000E-03 0.  1.
        -12    1    3    3    0    0  0.14933899266E+02 -0.82075785835E+01 -0.10661048595E+02  0.20100837063E+02  0.00000000000E+00 0.  1.
</event>
<event>
 7    1  0.5525118E-011  0.5052882E+02  0.7816164E-02  0.1300439E+00
        -11   -1    0    0    0    0  0.00000000000E+00  0.00000000000E+00  0.45593999997E+02  0.45594000000E+02  0.51100000000E-03 0.  1.
         11   -1    0    0    0    0 -0.00000000000E+00 -0.00000000000E+00 -0.45593999997E+02  0.45594000000E+02  0.51100000000E-03 0. -1.
    9900012    2    1    2    0    0 -0.87196752594E+01  0.48245832182E+01 -0.39419023754E+02  0.50528821779E+02  0.29999884279E+02 0.  0.
        -12    1    1    2    0    0  0.87196752594E+01 -0.48245832182E+01  0.39419023754E+02  0.40659178221E+02  0.00000000000E+00 0.  1.
         11    1    3    3    0    0 -0.81196334330E-01  0.71936630547E+01 -0.79716194740E+01  0.10737881462E+02  0.51100000000E-03 0. -1.
        -11    1    3    3    0    0 -0.73782298115E+01 -0.12106796750E+02 -0.21947259825E+02  0.26128433110E+02  0.51100000000E-03 0.  1.
        -12    1    3    3    0    0 -0.12602491136E+01  0.97377169135E+01 -0.95001444556E+01  0.13662507207E+02  0.00000000000E+00 0.  1.
</event>
<event>
 7    1  0.5525118E-011  0.5052886E+02  0.7816164E-02  0.1300439E+00
        -11   -1    0    0    0    0  0.00000000000E+00  0.00000000000E+00  0.45593999997E+02  0.45594000000E+02  0.51100000000E-03 0.  1.
         11   -1    0    0    0    0 -0.00000000000E+00 -0.00000000000E+00 -0.45593999997E+02  0.45594000000E+02  0.51100000000E-03 0. -1.
    9900012    2    1    2    0    0 -0.17313457941E+02  0.11978488567E+02 -0.34783987580E+02  0.50528858270E+02  0.29999995198E+02 0.  0.
        -12    1    1    2    0    0  0.17313457941E+02 -0.11978488567E+02  0.34783987580E+02  0.40659141730E+02  0.00000000000E+00 0.  1.
         11    1    3    3    0    0 -0.15366905970E+02  0.58338522455E+01 -0.27347348180E+02  0.31906944132E+02  0.51100000000E-03 0. -1.
        -11    1    3    3    0    0  0.54672881441E+01  0.65061428011E+00 -0.76096913508E+01  0.93926535818E+01  0.51100000000E-03 0.  1.
        -12    1    3    3    0    0 -0.74138401151E+01  0.54940220412E+01  0.17305194996E+00  0.92292605565E+01  0.00000000000E+00 0.  1.
</event>
<event>
 7    1  0.5525118E-011  0.5052886E+02  0.7816164E-02  0.1300439E+00
        -11   -1    0    0    0    0  0.00000000000E+00  0.00000000000E+00  0.45593999997E+02  0.45594000000E+02  0.51100000000E-03 0. -1.
         11   -1    0    0    0    0 -0.00000000000E+00 -0.00000000000E+00 -0.45593999997E+02  0.45594000000E+02  0.51100000000E-03 0.  1.
    9900012    2    1    2    0    0 -0.48929848405E+01  0.39991864865E+02 -0.54658119215E+01  0.50528860118E+02  0.30000000813E+02 0.  0.
        -12    1    1    2    0    0  0.48929848405E+01 -0.39991864865E+02  0.54658119215E+01  0.40659139882E+02  0.00000000000E+00 0.  1.
         11    1    3    3    0    0  0.19108277678E+01  0.34266991130E+02 -0.12863790560E+02  0.36651808300E+02  0.51100000000E-03 0.  1.
        -11    1    3    3    0    0 -0.74996173478E+01  0.66144352790E+01  0.49002504336E+01  0.11135864088E+02  0.51100000000E-03 0. -1.
        -12    1    3    3    0    0  0.69580473950E+00 -0.88956154406E+00  0.24977282053E+01  0.27411877287E+01  0.00000000000E+00 0.  1.
</event>
<event>
 7    1  0.5525118E-011  0.5052887E+02  0.7816164E-02  0.1300439E+00
        -11   -1    0    0    0    0  0.00000000000E+00  0.00000000000E+00  0.45593999997E+02  0.45594000000E+02  0.51100000000E-03 0.  1.
         11   -1    0    0    0    0 -0.00000000000E+00 -0.00000000000E+00 -0.45593999997E+02  0.45594000000E+02  0.51100000000E-03 0. -1.
    9900012    2    1    2    0    0  0.28043106660E+02  0.37412564682E+01 -0.29201913991E+02  0.50528872958E+02  0.30000039842E+02 0.  0.
        -12    1    1    2    0    0 -0.28043106660E+02 -0.37412564682E+01  0.29201913991E+02  0.40659127042E+02  0.00000000000E+00 0.  1.
         11    1    3    3    0    0  0.93903699333E+01  0.60468651832E+01 -0.73109710745E+01  0.13348929708E+02  0.51100000000E-03 0. -1.
        -11    1    3    3    0    0 -0.18555036004E+00 -0.97815758879E+01 -0.69604566849E+01  0.12006732000E+02  0.51100000000E-03 0.  1.
        -12    1    3    3    0    0  0.18838287087E+02  0.74759671729E+01 -0.14930486232E+02  0.25173211250E+02  0.00000000000E+00 0.  1.
</event>
<event>
 7    1  0.5525118E-011  0.5052889E+02  0.7816164E-02  0.1300439E+00
        -11   -1    0    0    0    0  0.00000000000E+00  0.00000000000E+00  0.45593999997E+02  0.45594000000E+02  0.51100000000E-03 0. -1.
         11   -1    0    0    0    0 -0.00000000000E+00 -0.00000000000E+00 -0.45593999997E+02  0.45594000000E+02  0.51100000000E-03 0.  1.
    9900012    2    1    2    0    0 -0.63714286894E+01 -0.25778531573E+02  0.30790189099E+02  0.50528886159E+02  0.30000079968E+02 0.  0.
        -12    1    1    2    0    0  0.63714286894E+01  0.25778531573E+02 -0.30790189099E+02  0.40659113841E+02  0.00000000000E+00 0.  1.
         11    1    3    3    0    0  0.43540993516E+01 -0.17819588569E+02  0.21706197155E+01  0.18471803056E+02  0.51100000000E-03 0. -1.
        -11    1    3    3    0    0 -0.24820557728E+01  0.56497179439E+00  0.42116594620E+01  0.49211654791E+01  0.51100000000E-03 0.  1.
         12    1    3    3    0    0 -0.82434722682E+01 -0.85239147980E+01  0.24407909921E+02  0.27135917623E+02  0.00000000000E+00 0. -1.
</event>
<event>
 7    1  0.5525118E-011  0.5052886E+02  0.7816164E-02  0.1300439E+00
        -11   -1    0    0    0    0  0.00000000000E+00  0.00000000000E+00  0.45593999997E+02  0.45594000000E+02  0.51100000000E-03 0.  1.
         11   -1    0    0    0    0 -0.00000000000E+00 -0.00000000000E+00 -0.45593999997E+02  0.45594000000E+02  0.51100000000E-03 0. -1.
    9900012    2    1    2    0    0  0.22151579399E+02  0.33581439650E+02 -0.58957774916E+01  0.50528858948E+02  0.29999997259E+02 0.  0.
        -12    1    1    2    0    0 -0.22151579399E+02 -0.33581439650E+02  0.58957774916E+01  0.40659141052E+02  0.00000000000E+00 0.  1.
         11    1    3    3    0    0  0.94217876285E+01  0.13413326510E+02  0.40135803107E+01  0.16875907008E+02  0.51100000000E-03 0.  1.
        -11    1    3    3    0    0 -0.54161696162E+01  0.21045326129E+01 -0.48163245711E+01  0.75472467474E+01  0.51100000000E-03 0. -1.
        -12    1    3    3    0    0  0.18145961387E+02  0.18063580527E+02 -0.50930332312E+01  0.26105705193E+02  0.00000000000E+00 0.  1.
</event>
<event>
 7    1  0.5525118E-011  0.5052886E+02  0.7816164E-02  0.1300439E+00
        -11   -1    0    0    0    0  0.00000000000E+00  0.00000000000E+00  0.45593999997E+02  0.45594000000E+02  0.51100000000E-03 0.  1.
         11   -1    0    0    0    0 -0.00000000000E+00 -0.00000000000E+00 -0.45593999997E+02  0.45594000000E+02  0.51100000000E-03 0. -1.
    9900012    2    1    2    0    0  0.12272265261E+02  0.29807038688E+02 -0.24780993374E+02  0.50528859791E+02  0.29999999820E+02 0.  0.
        -12    1    1    2    0    0 -0.12272265261E+02 -0.29807038688E+02  0.24780993374E+02  0.40659140209E+02  0.00000000000E+00 0.  1.
         11    1    3    3    0    0  0.58646799783E+01 -0.19930571270E+01  0.21447520414E+01  0.65548996590E+01  0.51100000000E-03 0. -1.
        -11    1    3    3    0    0  0.57109098038E+00  0.21429758746E+02 -0.23004329175E+02  0.31444552245E+02  0.51100000000E-03 0.  1.
         12    1    3    3    0    0  0.58364943026E+01  0.10370337069E+02 -0.39214162396E+01  0.12529407887E+02  0.00000000000E+00 0. -1.
</event>
<event>
 7    1  0.5525118E-011  0.5052888E+02  0.7816164E-02  0.1300439E+00
        -11   -1    0    0    0    0  0.00000000000E+00  0.00000000000E+00  0.45593999997E+02  0.45594000000E+02  0.51100000000E-03 0. -1.
         11   -1    0    0    0    0 -0.00000000000E+00 -0.00000000000E+00 -0.45593999997E+02  0.45594000000E+02  0.51100000000E-03 0.  1.
    9900012    2    1    2    0    0  0.43230953360E+01  0.16194783144E+02  0.37043271479E+02  0.50528879053E+02  0.30000058368E+02 0.  0.
        -12    1    1    2    0    0 -0.43230953360E+01 -0.16194783144E+02 -0.37043271479E+02  0.40659120947E+02  0.00000000000E+00 0.  1.
         11    1    3    3    0    0 -0.85269276979E+01  0.21211546573E+01  0.36094523402E+01  0.94992599450E+01  0.51100000000E-03 0.  1.
        -11    1    3    3    0    0  0.15922581695E+02  0.10858895855E+02  0.28274997289E+02  0.34218703935E+02  0.51100000000E-03 0. -1.
         12    1    3    3    0    0 -0.30725586607E+01  0.32147326317E+01  0.51588218492E+01  0.68109151726E+01  0.00000000000E+00 0. -1.
</event>
<event>
 7    1  0.5525118E-011  0.5052887E+02  0.7816164E-02  0.1300439E+00
        -11   -1    0    0    0    0  0.00000000000E+00  0.00000000000E+00  0.45593999997E+02  0.45594000000E+02  0.51100000000E-03 0.  1.
         11   -1    0    0    0    0 -0.00000000000E+00 -0.00000000000E+00 -0.45593999997E+02  0.45594000000E+02  0.51100000000E-03 0. -1.
    9900012    2    1    2    0    0 -0.14713126787E+02 -0.28768297308E+02 -0.24679424883E+02  0.50528867663E+02  0.30000023748E+02 0.  0.
        -12    1    1    2    0    0  0.14713126787E+02  0.28768297308E+02  0.24679424883E+02  0.40659132337E+02  0.00000000000E+00 0.  1.
         11    1    3    3    0    0 -0.72116614932E+01 -0.18910584577E+02 -0.24535612249E+02  0.31805888437E+02  0.51100000000E-03 0. -1.
        -11    1    3    3    0    0  0.34690103264E+01 -0.33021012345E+01  0.28821152021E+01  0.55896774063E+01  0.51100000000E-03 0.  1.
         12    1    3    3    0    0 -0.10970475620E+02 -0.65556114964E+01 -0.30259278358E+01  0.13133301820E+02  0.00000000000E+00 0. -1.
</event>
<event>
 7    1  0.5525118E-011  0.5052887E+02  0.7816164E-02  0.1300439E+00
        -11   -1    0    0    0    0  0.00000000000E+00  0.00000000000E+00  0.45593999997E+02  0.45594000000E+02  0.51100000000E-03 0. -1.
         11   -1    0    0    0    0 -0.00000000000E+00 -0.00000000000E+00 -0.45593999997E+02  0.45594000000E+02  0.51100000000E-03 0.  1.
    9900012    2    1    2    0    0 -0.35318936815E+02  0.72845517048E+01  0.18779591920E+02  0.50528867398E+02  0.30000022943E+02 0.  0.
        -12    1    1    2    0    0  0.35318936815E+02 -0.72845517048E+01 -0.18779591920E+02  0.40659132602E+02  0.00000000000E+00 0.  1.
         11    1    3    3    0    0 -0.11598397465E+02 -0.53055390198E+01  0.55964286467E+01  0.13928086082E+02  0.51100000000E-03 0. -1.
        -11    1    3    3    0    0 -0.95229911169E+01  0.78921379590E+01  0.17135315389E+02  0.21132729003E+02  0.51100000000E-03 0.  1.
        -12    1    3    3    0    0 -0.14197548233E+02  0.46979527656E+01 -0.39521521157E+01  0.15468052313E+02  0.00000000000E+00 0.  1.
</event>
<event>
 7    1  0.5525118E-011  0.5052891E+02  0.7816164E-02  0.1300439E+00
        -11   -1    0    0    0    0  0.00000000000E+00  0.00000000000E+00  0.45593999997E+02  0.45594000000E+02  0.51100000000E-03 0.  1.
         11   -1    0    0    0    0 -0.00000000000E+00 -0.00000000000E+00 -0.45593999997E+02  0.45594000000E+02  0.51100000000E-03 0. -1.
    9900012    2    1    2    0    0  0.35968486098E+02  0.18680908037E+02  0.32332001425E+01  0.50528906301E+02  0.30000141193E+02 0.  0.
        -12    1    1    2    0    0 -0.35968486098E+02 -0.18680908037E+02 -0.32332001425E+01  0.40659093699E+02  0.00000000000E+00 0.  1.
         11    1    3    3    0    0  0.15387468549E+02  0.18106653668E+02  0.59537462178E+00  0.23769298824E+02  0.51100000000E-03 0. -1.
        -11    1    3    3    0    0  0.14376786968E+02 -0.69946017734E+01 -0.16536793301E+01  0.16073304361E+02  0.51100000000E-03 0.  1.
        -12    1    3    3    0    0  0.62042305812E+01  0.75688561426E+01  0.42915048508E+01  0.10686303116E+02  0.00000000000E+00 0.  1.
</event>
<event>
 7    1  0.5525118E-011  0.5052885E+02  0.7816164E-02  0.1300439E+00
        -11   -1    0    0    0    0  0.00000000000E+00  0.00000000000E+00  0.45593999997E+02  0.45594000000E+02  0.51100000000E-03 0. -1.
         11   -1    0    0    0    0 -0.00000000000E+00 -0.00000000000E+00 -0.45593999997E+02  0.45594000000E+02  0.51100000000E-03 0.  1.
    9900012    2    1    2    0    0  0.55174578291E+01 -0.29789404979E+02  0.27116700686E+02  0.50528850402E+02  0.29999971283E+02 0.  0.
        -12    1    1    2    0    0 -0.55174578291E+01  0.29789404979E+02 -0.27116700686E+02  0.40659149598E+02  0.00000000000E+00 0.  1.
         11    1    3    3    0    0  0.15812375565E+02 -0.16990215276E+02  0.19359357953E+02  0.30223887518E+02  0.51100000000E-03 0. -1.
        -11    1    3    3    0    0 -0.55801075656E+01 -0.72260324654E+01  0.90911062952E+01  0.12884151488E+02  0.51100000000E-03 0.  1.
         12    1    3    3    0    0 -0.47148101699E+01 -0.55731572380E+01 -0.13337635619E+01  0.74208113961E+01  0.00000000000E+00 0. -1.
</event>
<event>
 7    1  0.5525118E-011  0.5052885E+02  0.7816164E-02  0.1300439E+00
        -11   -1    0    0    0    0  0.00000000000E+00  0.00000000000E+00  0.45593999997E+02  0.45594000000E+02  0.51100000000E-03 0. -1.
         11   -1    0    0    0    0 -0.00000000000E+00 -0.00000000000E+00 -0.45593999997E+02  0.45594000000E+02  0.51100000000E-03 0.  1.
    9900012    2    1    2    0    0  0.40359222538E+02  0.27666014017E+01 -0.40799162766E+01  0.50528847967E+02  0.29999963880E+02 0.  0.
        -12    1    1    2    0    0 -0.40359222538E+02 -0.27666014017E+01  0.40799162766E+01  0.40659152033E+02  0.00000000000E+00 0.  1.
         11    1    3    3    0    0  0.39356523784E+02  0.72655691605E+01 -0.58066467184E+01  0.40440593541E+02  0.51100000000E-03 0.  1.
        -11    1    3    3    0    0  0.47054107380E+01 -0.17139062089E+01 -0.33077036982E+00  0.50187422732E+01  0.51100000000E-03 0. -1.
         12    1    3    3    0    0 -0.37027119839E+01 -0.27850615499E+01  0.20575008116E+01  0.50695121523E+01  0.00000000000E+00 0. -1.
</event>
<event>
 7    1  0.5525118E-011  0.5052886E+02  0.7816164E-02  0.1300439E+00
        -11   -1    0    0    0    0  0.00000000000E+00  0.00000000000E+00  0.45593999997E+02  0.45594000000E+02  0.51100000000E-03 0.  1.
         11   -1    0    0    0    0 -0.00000000000E+00 -0.00000000000E+00 -0.45593999997E+02  0.45594000000E+02  0.51100000000E-03 0. -1.
    9900012    2    1    2    0    0  0.25389848539E+02  0.13990677189E+02 -0.28509335080E+02  0.50528860268E+02  0.30000001270E+02 0.  0.
        -12    1    1    2    0    0 -0.25389848539E+02 -0.13990677189E+02  0.28509335080E+02  0.40659139732E+02  0.00000000000E+00 0.  1.
         11    1    3    3    0    0  0.47619047693E+01 -0.53129894085E+01 -0.15020723962E+02  0.16629063176E+02  0.51100000000E-03 0. -1.
        -11    1    3    3    0    0  0.14578363579E+02  0.16760098492E+02 -0.43278339962E+01  0.22630946367E+02  0.51100000000E-03 0.  1.
        -12    1    3    3    0    0  0.60495801904E+01  0.25435681051E+01 -0.91607771217E+01  0.11268850725E+02  0.00000000000E+00 0.  1.
</event>
<event>
 7    1  0.5525118E-011  0.5052885E+02  0.7816164E-02  0.1300439E+00
        -11   -1    0    0    0    0  0.00000000000E+00  0.00000000000E+00  0.45593999997E+02  0.45594000000E+02  0.51100000000E-03 0.  1.
         11   -1    0    0    0    0 -0.00000000000E+00 -0.00000000000E+00 -0.45593999997E+02  0.45594000000E+02  0.51100000000E-03 0. -1.
    9900012    2    1    2    0    0  0.21728235222E+02 -0.29903220353E+02 -0.16936568249E+02  0.50528854198E+02  0.29999982819E+02 0.  0.
        -12    1    1    2    0    0 -0.21728235222E+02  0.29903220353E+02  0.16936568249E+02  0.40659145802E+02  0.00000000000E+00 0.  1.
         11    1    3    3    0    0  0.16882647670E+02 -0.18002132857E+02 -0.52700251235E+00  0.24685589149E+02  0.51100000000E-03 0. -1.
        -11    1    3    3    0    0 -0.55742089803E+01 -0.36803998135E+01 -0.59399393540E+01  0.89386815769E+01  0.51100000000E-03 0.  1.
         12    1    3    3    0    0  0.10419796533E+02 -0.82206876822E+01 -0.10469626383E+02  0.16904583471E+02  0.00000000000E+00 0. -1.
</event>
<event>
 7    1  0.5525118E-011  0.5052886E+02  0.7816164E-02  0.1300439E+00
        -11   -1    0    0    0    0  0.00000000000E+00  0.00000000000E+00  0.45593999997E+02  0.45594000000E+02  0.51100000000E-03 0.  1.
         11   -1    0    0    0    0 -0.00000000000E+00 -0.00000000000E+00 -0.45593999997E+02  0.45594000000E+02  0.51100000000E-03 0. -1.
    9900012    2    1    2    0    0  0.24457387629E+02 -0.29983642624E+02 -0.12489312709E+02  0.50528861217E+02  0.30000004154E+02 0.  0.
        -12    1    1    2    0    0 -0.24457387629E+02  0.29983642624E+02  0.12489312709E+02  0.40659138783E+02  0.00000000000E+00 0.  1.
         11    1    3    3    0    0  0.19152050446E+02 -0.14414820165E+02 -0.14134470349E+02  0.27827528259E+02  0.51100000000E-03 0. -1.
        -11    1    3    3    0    0 -0.48100255644E+01 -0.10515871111E+01  0.79240742954E+00  0.49869921975E+01  0.51100000000E-03 0.  1.
        -12    1    3    3    0    0  0.10115362747E+02 -0.14517235348E+02  0.85275021049E+00  0.17714340760E+02  0.00000000000E+00 0.  1.
</event>
<event>
 7    1  0.5525118E-011  0.5052884E+02  0.7816164E-02  0.1300439E+00
        -11   -1    0    0    0    0  0.00000000000E+00  0.00000000000E+00  0.45593999997E+02  0.45594000000E+02  0.51100000000E-03 0.  1.
         11   -1    0    0    0    0 -0.00000000000E+00 -0.00000000000E+00 -0.45593999997E+02  0.45594000000E+02  0.51100000000E-03 0. -1.
    9900012    2    1    2    0    0 -0.40393391994E+02  0.29002623244E+01  0.36234577454E+01  0.50528842552E+02  0.29999947420E+02 0.  0.
        -12    1    1    2    0    0  0.40393391994E+02 -0.29002623244E+01 -0.36234577454E+01  0.40659157448E+02  0.00000000000E+00 0.  1.
         11    1    3    3    0    0 -0.31313415795E+02 -0.31821310441E+00 -0.18298302472E+01  0.31368448277E+02  0.51100000000E-03 0. -1.
        -11    1    3    3    0    0 -0.10444078199E+02  0.61482984822E+01  0.84329058212E+01  0.14764628153E+02  0.51100000000E-03 0.  1.
         12    1    3    3    0    0  0.13641019992E+01 -0.29298230534E+01 -0.29796178287E+01  0.43957661213E+01  0.00000000000E+00 0. -1.
</event>
<event>
 7    1  0.5525118E-011  0.5052886E+02  0.7816164E-02  0.1300439E+00
        -11   -1    0    0    0    0  0.00000000000E+00  0.00000000000E+00  0.45593999997E+02  0.45594000000E+02  0.51100000000E-03 0. -1.
         11   -1    0    0    0    0 -0.00000000000E+00 -0.00000000000E+00 -0.45593999997E+02  0.45594000000E+02  0.51100000000E-03 0.  1.
    9900012    2    1    2    0    0 -0.27241803467E+01 -0.39475924002E+02  0.93485699188E+01  0.50528862111E+02  0.30000006872E+02 0.  0.
        -12    1    1    2    0    0  0.27241803467E+01  0.39475924002E+02 -0.93485699188E+01  0.40659137889E+02  0.00000000000E+00 0.  1.
         11    1    3    3    0    0 -0.69544787764E+01 -0.31905153423E+02  0.44064908506E+01  0.32950276962E+02  0.51100000000E-03 0. -1.
        -11    1    3    3    0    0  0.35322707953E+01  0.33044754583E+01  0.46008024095E+01  0.66756181810E+01  0.51100000000E-03 0.  1.
        -12    1    3    3    0    0  0.69802763438E+00 -0.10875246037E+02  0.34127665872E+00  0.10902966968E+02  0.00000000000E+00 0.  1.
</event>
<event>
 7    1  0.5525118E-011  0.5052886E+02  0.7816164E-02  0.1300439E+00
        -11   -1    0    0    0    0  0.00000000000E+00  0.00000000000E+00  0.45593999997E+02  0.45594000000E+02  0.51100000000E-03 0. -1.
         11   -1    0    0    0    0 -0.00000000000E+00 -0.00000000000E+00 -0.45593999997E+02  0.45594000000E+02  0.51100000000E-03 0.  1.
    9900012    2    1    2    0    0  0.35481339543E+02  0.13191621233E+02  0.14839849662E+02  0.50528862472E+02  0.30000007970E+02 0.  0.
        -12    1    1    2    0    0 -0.35481339543E+02 -0.13191621233E+02 -0.14839849662E+02  0.40659137528E+02  0.00000000000E+00 0.  1.
         11    1    3    3    0    0  0.33563060070E+02  0.11441186574E+02  0.10021446751E+02  0.36848461932E+02  0.51100000000E-03 0. -1.
        -11    1    3    3    0    0  0.79217801163E+00  0.29571961118E+01 -0.38145071948E+01  0.48911164621E+01  0.51100000000E-03 0.  1.
         12    1    3    3    0    0  0.11261014608E+01 -0.12067614526E+01  0.86329101064E+01  0.87892840783E+01  0.00000000000E+00 0. -1.
</event>
<event>
 7    1  0.5525118E-011  0.5052886E+02  0.7816164E-02  0.1300439E+00
        -11   -1    0    0    0    0  0.00000000000E+00  0.00000000000E+00  0.45593999997E+02  0.45594000000E+02  0.51100000000E-03 0.  1.
         11   -1    0    0    0    0 -0.00000000000E+00 -0.00000000000E+00 -0.45593999997E+02  0.45594000000E+02  0.51100000000E-03 0. -1.
    9900012    2    1    2    0    0  0.21185430625E+02  0.29398899073E+02 -0.18440393317E+02  0.50528857816E+02  0.29999993816E+02 0.  0.
        -12    1    1    2    0    0 -0.21185430625E+02 -0.29398899073E+02  0.18440393317E+02  0.40659142184E+02  0.00000000000E+00 0.  1.
         11    1    3    3    0    0  0.16793094462E+02  0.10658076905E+01 -0.10448055542E+02  0.19806711805E+02  0.51100000000E-03 0. -1.
        -11    1    3    3    0    0  0.84554834343E-01  0.85738309815E+01 -0.58626466063E+01  0.10386931824E+02  0.51100000000E-03 0.  1.
         12    1    3    3    0    0  0.43077813290E+01  0.19759260401E+02 -0.21296911690E+01  0.20335214187E+02  0.00000000000E+00 0. -1.
</event>
<event>
 7    1  0.5525118E-011  0.5052887E+02  0.7816164E-02  0.1300439E+00
        -11   -1    0    0    0    0  0.00000000000E+00  0.00000000000E+00  0.45593999997E+02  0.45594000000E+02  0.51100000000E-03 0. -1.
         11   -1    0    0    0    0 -0.00000000000E+00 -0.00000000000E+00 -0.45593999997E+02  0.45594000000E+02  0.51100000000E-03 0.  1.
    9900012    2    1    2    0    0  0.69071198352E+01 -0.36718048626E+02  0.16038744811E+02  0.50528871450E+02  0.30000035260E+02 0.  0.
        -12    1    1    2    0    0 -0.69071198352E+01  0.36718048626E+02 -0.16038744811E+02  0.40659128550E+02  0.00000000000E+00 0.  1.
         11    1    3    3    0    0 -0.29407653081E+01 -0.24509119528E+02  0.54379036896E+01  0.25276784555E+02  0.51100000000E-03 0. -1.
        -11    1    3    3    0    0 -0.23256601679E+01  0.26763278106E+01  0.27276203487E+01  0.44734034911E+01  0.51100000000E-03 0.  1.
         12    1    3    3    0    0  0.12173545311E+02 -0.14885256909E+02  0.78732207729E+01  0.20778683404E+02  0.00000000000E+00 0. -1.
</event>
<event>
 7    1  0.5525118E-011  0.5052885E+02  0.7816164E-02  0.1300439E+00
        -11   -1    0    0    0    0  0.00000000000E+00  0.00000000000E+00  0.45593999997E+02  0.45594000000E+02  0.51100000000E-03 0.  1.
         11   -1    0    0    0    0 -0.00000000000E+00 -0.00000000000E+00 -0.45593999997E+02  0.45594000000E+02  0.51100000000E-03 0. -1.
    9900012    2    1    2    0    0  0.14496791474E+02  0.35450266004E+02 -0.13648730298E+02  0.50528853901E+02  0.29999981916E+02 0.  0.
        -12    1    1    2    0    0 -0.14496791474E+02 -0.35450266004E+02  0.13648730298E+02  0.40659146099E+02  0.00000000000E+00 0.  1.
         11    1    3    3    0    0  0.11592671952E+02  0.36090798368E+02 -0.19397465485E+02  0.42581656113E+02  0.51100000000E-03 0. -1.
        -11    1    3    3    0    0  0.38948133588E+01 -0.37034063348E+00  0.57072325791E+01  0.69194817189E+01  0.51100000000E-03 0.  1.
         12    1    3    3    0    0 -0.99069383752E+00 -0.27019173076E+00  0.41502607522E-01  0.10277160685E+01  0.00000000000E+00 0. -1.
</event>
<event>
 7    1  0.5525118E-011  0.5052886E+02  0.7816164E-02  0.1300439E+00
        -11   -1    0    0    0    0  0.00000000000E+00  0.00000000000E+00  0.45593999997E+02  0.45594000000E+02  0.51100000000E-03 0. -1.
         11   -1    0    0    0    0 -0.00000000000E+00 -0.00000000000E+00 -0.45593999997E+02  0.45594000000E+02  0.51100000000E-03 0.  1.
    9900012    2    1    2    0    0  0.38580784644E+02  0.11274531321E+02  0.61297179428E+01  0.50528862745E+02  0.30000008799E+02 0.  0.
        -12    1    1    2    0    0 -0.38580784644E+02 -0.11274531321E+02 -0.61297179428E+01  0.40659137255E+02  0.00000000000E+00 0.  1.
         11    1    3    3    0    0  0.24767763005E+02  0.19940343309E+02  0.63617525947E+00  0.31803523308E+02  0.51100000000E-03 0. -1.
        -11    1    3    3    0    0  0.30490054843E+01 -0.41189802491E+01  0.47972290846E+01  0.70196751981E+01  0.51100000000E-03 0.  1.
         12    1    3    3    0    0  0.10764016155E+02 -0.45468317387E+01  0.69631359872E+00  0.11705664239E+02  0.00000000000E+00 0. -1.
</event>
<event>
 7    1  0.5525118E-011  0.5052886E+02  0.7816164E-02  0.1300439E+00
        -11   -1    0    0    0    0  0.00000000000E+00  0.00000000000E+00  0.45593999997E+02  0.45594000000E+02  0.51100000000E-03 0.  1.
         11   -1    0    0    0    0 -0.00000000000E+00 -0.00000000000E+00 -0.45593999997E+02  0.45594000000E+02  0.51100000000E-03 0. -1.
    9900012    2    1    2    0    0  0.13928473479E+02  0.27212936480E+02 -0.26807074092E+02  0.50528861954E+02  0.30000006395E+02 0.  0.
        -12    1    1    2    0    0 -0.13928473479E+02 -0.27212936480E+02  0.26807074092E+02  0.40659138046E+02  0.00000000000E+00 0.  1.
         11    1    3    3    0    0  0.17155963154E+02  0.25089238414E+02 -0.89645145437E+01  0.31688475464E+02  0.51100000000E-03 0. -1.
        -11    1    3    3    0    0 -0.26004035168E+01  0.27142080770E+01 -0.17523060328E+02  0.17921681491E+02  0.51100000000E-03 0.  1.
         12    1    3    3    0    0 -0.62708615870E+00 -0.59051001143E+00 -0.31949922003E+00  0.91870499924E+00  0.00000000000E+00 0. -1.
</event>
<event>
 7    1  0.5525118E-011  0.5052886E+02  0.7816164E-02  0.1300439E+00
        -11   -1    0    0    0    0  0.00000000000E+00  0.00000000000E+00  0.45593999997E+02  0.45594000000E+02  0.51100000000E-03 0.  1.
         11   -1    0    0    0    0 -0.00000000000E+00 -0.00000000000E+00 -0.45593999997E+02  0.45594000000E+02  0.51100000000E-03 0. -1.
    9900012    2    1    2    0    0 -0.17909044703E+02  0.30678449497E+02 -0.19780413537E+02  0.50528857050E+02  0.29999991490E+02 0.  0.
        -12    1    1    2    0    0  0.17909044703E+02 -0.30678449497E+02  0.19780413537E+02  0.40659142950E+02  0.00000000000E+00 0.  1.
         11    1    3    3    0    0 -0.12660408637E+02  0.31171351710E+01 -0.92780404812E+01  0.16002640843E+02  0.51100000000E-03 0. -1.
        -11    1    3    3    0    0 -0.32068570255E+01  0.29171309455E+02 -0.70108368961E+01  0.30172853056E+02  0.51100000000E-03 0.  1.
        -12    1    3    3    0    0 -0.20417790409E+01 -0.16099951294E+01 -0.34915361594E+01  0.43533631506E+01  0.00000000000E+00 0.  1.
</event>
<event>
 7    1  0.5525118E-011  0.5052886E+02  0.7816164E-02  0.1300439E+00
        -11   -1    0    0    0    0  0.00000000000E+00  0.00000000000E+00  0.45593999997E+02  0.45594000000E+02  0.51100000000E-03 0.  1.
         11   -1    0    0    0    0 -0.00000000000E+00 -0.00000000000E+00 -0.45593999997E+02  0.45594000000E+02  0.51100000000E-03 0. -1.
    9900012    2    1    2    0    0 -0.49953909105E+01  0.26190443220E+02 -0.30696453276E+02  0.50528862157E+02  0.30000007014E+02 0.  0.
        -12    1    1    2    0    0  0.49953909105E+01 -0.26190443220E+02  0.30696453276E+02  0.40659137843E+02  0.00000000000E+00 0.  1.
         11    1    3    3    0    0 -0.98791767176E+01  0.29289052830E+02 -0.31558736443E+02  0.44174660094E+02  0.51100000000E-03 0. -1.
        -11    1    3    3    0    0  0.90146622643E+00 -0.15267821193E+01 -0.53274495841E+00  0.18513569211E+01  0.51100000000E-03 0.  1.
         12    1    3    3    0    0  0.39823195807E+01 -0.15718274903E+01  0.13950281262E+01  0.45028451422E+01  0.00000000000E+00 0. -1.
</event>
<event>
 7    1  0.5525118E-011  0.5052886E+02  0.7816164E-02  0.1300439E+00
        -11   -1    0    0    0    0  0.00000000000E+00  0.00000000000E+00  0.45593999997E+02  0.45594000000E+02  0.51100000000E-03 0.  1.
         11   -1    0    0    0    0 -0.00000000000E+00 -0.00000000000E+00 -0.45593999997E+02  0.45594000000E+02  0.51100000000E-03 0. -1.
    9900012    2    1    2    0    0  0.23695966742E+02  0.30507674941E+02  0.12686554334E+02  0.50528859195E+02  0.29999998008E+02 0.  0.
        -12    1    1    2    0    0 -0.23695966742E+02 -0.30507674941E+02 -0.12686554334E+02  0.40659140805E+02  0.00000000000E+00 0.  1.
         11    1    3    3    0    0  0.76371657523E+01  0.24174352317E+01 -0.22618845211E+01  0.83238462069E+01  0.51100000000E-03 0. -1.
        -11    1    3    3    0    0 -0.44522627695E+01  0.82402769884E+01  0.91195828150E+01  0.13072551381E+02  0.51100000000E-03 0.  1.
        -12    1    3    3    0    0  0.20511063759E+02  0.19849962721E+02  0.58288560400E+01  0.29132461607E+02  0.00000000000E+00 0.  1.
</event>
<event>
 7    1  0.5525118E-011  0.5052888E+02  0.7816164E-02  0.1300439E+00
        -11   -1    0    0    0    0  0.00000000000E+00  0.00000000000E+00  0.45593999997E+02  0.45594000000E+02  0.51100000000E-03 0.  1.
         11   -1    0    0    0    0 -0.00000000000E+00 -0.00000000000E+00 -0.45593999997E+02  0.45594000000E+02  0.51100000000E-03 0. -1.
    9900012    2    1    2    0    0  0.74993825351E+01 -0.27890266544E+02 -0.28619154957E+02  0.50528883719E+02  0.30000072553E+02 0.  0.
        -12    1    1    2    0    0 -0.74993825351E+01  0.27890266544E+02  0.28619154957E+02  0.40659116281E+02  0.00000000000E+00 0.  1.
         11    1    3    3    0    0 -0.23512672519E+01 -0.13682931603E+02  0.45378272417E+00  0.13890896082E+02  0.51100000000E-03 0. -1.
        -11    1    3    3    0    0  0.54429400445E+01  0.53550772876E+00 -0.14285941535E+02  0.15297074579E+02  0.51100000000E-03 0.  1.
         12    1    3    3    0    0  0.44077097425E+01 -0.14742842670E+02 -0.14786996146E+02  0.21340913059E+02  0.00000000000E+00 0. -1.
</event>
<event>
 7    1  0.5525118E-011  0.5052888E+02  0.7816164E-02  0.1300439E+00
        -11   -1    0    0    0    0  0.00000000000E+00  0.00000000000E+00  0.45593999997E+02  0.45594000000E+02  0.51100000000E-03 0.  1.
         11   -1    0    0    0    0 -0.00000000000E+00 -0.00000000000E+00 -0.45593999997E+02  0.45594000000E+02  0.51100000000E-03 0. -1.
    9900012    2    1    2    0    0  0.15048662851E+02 -0.35533559029E+02  0.12808900836E+02  0.50528880340E+02  0.30000062282E+02 0.  0.
        -12    1    1    2    0    0 -0.15048662851E+02  0.35533559029E+02 -0.12808900836E+02  0.40659119660E+02  0.00000000000E+00 0.  1.
         11    1    3    3    0    0  0.18415772643E+02 -0.27206068588E+02  0.16615924502E+01  0.32894858866E+02  0.51100000000E-03 0. -1.
        -11    1    3    3    0    0 -0.35346597061E+01  0.14385177295E+01  0.23022956798E+01  0.44568731365E+01  0.51100000000E-03 0.  1.
         12    1    3    3    0    0  0.16754991436E+00 -0.97660081705E+01  0.88450127057E+01  0.13177148338E+02  0.00000000000E+00 0. -1.
</event>
<event>
 7    1  0.5525118E-011  0.5052887E+02  0.7816164E-02  0.1300439E+00
        -11   -1    0    0    0    0  0.00000000000E+00  0.00000000000E+00  0.45593999997E+02  0.45594000000E+02  0.51100000000E-03 0. -1.
         11   -1    0    0    0    0 -0.00000000000E+00 -0.00000000000E+00 -0.45593999997E+02  0.45594000000E+02  0.51100000000E-03 0.  1.
    9900012    2    1    2    0    0 -0.33832988301E+02 -0.22212685230E+02 -0.38846377150E+01  0.50528869504E+02  0.30000029344E+02 0.  0.
        -12    1    1    2    0    0  0.33832988301E+02  0.22212685230E+02  0.38846377150E+01  0.40659130496E+02  0.00000000000E+00 0.  1.
         11    1    3    3    0    0 -0.43640638683E+01  0.45445512802E+01 -0.15474742070E+01  0.64878869031E+01  0.51100000000E-03 0. -1.
        -11    1    3    3    0    0 -0.26367985475E+02 -0.24202473655E+02  0.45378855403E+01  0.36078009847E+02  0.51100000000E-03 0.  1.
        -12    1    3    3    0    0 -0.31009389580E+01 -0.25547628548E+01 -0.68750490484E+01  0.79629727542E+01  0.00000000000E+00 0.  1.
</event>
<event>
 7    1  0.5525118E-011  0.5052887E+02  0.7816164E-02  0.1300439E+00
        -11   -1    0    0    0    0  0.00000000000E+00  0.00000000000E+00  0.45593999997E+02  0.45594000000E+02  0.51100000000E-03 0.  1.
         11   -1    0    0    0    0 -0.00000000000E+00 -0.00000000000E+00 -0.45593999997E+02  0.45594000000E+02  0.51100000000E-03 0. -1.
    9900012    2    1    2    0    0  0.27506816663E+02  0.16822717059E+02 -0.24769660491E+02  0.50528869992E+02  0.30000030826E+02 0.  0.
        -12    1    1    2    0    0 -0.27506816663E+02 -0.16822717059E+02  0.24769660491E+02  0.40659130008E+02  0.00000000000E+00 0.  1.
         11    1    3    3    0    0  0.80891936439E+01  0.14149992830E+02 -0.16496980213E+02  0.23190681476E+02  0.51100000000E-03 0. -1.
        -11    1    3    3    0    0  0.12577003593E+02 -0.29088837697E+01  0.27670828960E+01  0.13202248755E+02  0.51100000000E-03 0.  1.
        -12    1    3    3    0    0  0.68406194258E+01  0.55816079990E+01 -0.11039763174E+02  0.14135939761E+02  0.00000000000E+00 0.  1.
</event>
<event>
 7    1  0.5525118E-011  0.5052885E+02  0.7816164E-02  0.1300439E+00
        -11   -1    0    0    0    0  0.00000000000E+00  0.00000000000E+00  0.45593999997E+02  0.45594000000E+02  0.51100000000E-03 0.  1.
         11   -1    0    0    0    0 -0.00000000000E+00 -0.00000000000E+00 -0.45593999997E+02  0.45594000000E+02  0.51100000000E-03 0. -1.
    9900012    2    1    2    0    0  0.19942895838E+02  0.34807432709E+02  0.66249411429E+01  0.50528852058E+02  0.29999976315E+02 0.  0.
        -12    1    1    2    0    0 -0.19942895838E+02 -0.34807432709E+02 -0.66249411429E+01  0.40659147942E+02  0.00000000000E+00 0.  1.
         11    1    3    3    0    0  0.67985797195E+01  0.13293587537E+02 -0.98033282636E+01  0.17861842041E+02  0.51100000000E-03 0. -1.
        -11    1    3    3    0    0  0.53680788234E+01  0.14063724703E+01  0.75067905696E+01  0.93352053376E+01  0.51100000000E-03 0.  1.
         12    1    3    3    0    0  0.77762372953E+01  0.20107472702E+02  0.89214788369E+01  0.23331804679E+02  0.00000000000E+00 0. -1.
</event>
<event>
 7    1  0.5525118E-011  0.5052888E+02  0.7816164E-02  0.1300439E+00
        -11   -1    0    0    0    0  0.00000000000E+00  0.00000000000E+00  0.45593999997E+02  0.45594000000E+02  0.51100000000E-03 0. -1.
         11   -1    0    0    0    0 -0.00000000000E+00 -0.00000000000E+00 -0.45593999997E+02  0.45594000000E+02  0.51100000000E-03 0.  1.
    9900012    2    1    2    0    0  0.22561635126E+02 -0.33475344773E+02 -0.48516215091E+01  0.50528876565E+02  0.30000050807E+02 0.  0.
        -12    1    1    2    0    0 -0.22561635126E+02  0.33475344773E+02  0.48516215091E+01  0.40659123435E+02  0.00000000000E+00 0.  1.
         11    1    3    3    0    0  0.15351044336E+02 -0.22317746762E+02 -0.92487684224E+01  0.28622999500E+02  0.51100000000E-03 0. -1.
        -11    1    3    3    0    0  0.88962867504E+01 -0.16213317546E+01  0.74878222181E+01  0.11740533056E+02  0.51100000000E-03 0.  1.
        -12    1    3    3    0    0 -0.16856959614E+01 -0.95362662567E+01 -0.30906753048E+01  0.10165344010E+02  0.00000000000E+00 0.  1.
</event>
