<event>
 7    1  0.6061051E-012  0.5930195E+02  0.7816164E-02  0.1266605E+00
        -11   -1    0    0    0    0  0.00000000000E+00  0.00000000000E+00  0.45593999997E+02  0.45594000000E+02  0.51100000000E-03 0.  1.
         11   -1    0    0    0    0 -0.00000000000E+00 -0.00000000000E+00 -0.45593999997E+02  0.45594000000E+02  0.51100000000E-03 0. -1.
    9900012    2    1    2    0    0 -0.85878659870E+00  0.30808677075E+02  0.81736041880E+01  0.59301954416E+02  0.50000018946E+02 0.  0.
         12    1    1    2    0    0  0.85878659870E+00 -0.30808677075E+02 -0.81736041880E+01  0.31886045584E+02  0.00000000000E+00 0. -1.
         11    1    3    3    0    0 -0.49398332463E+01  0.33247743641E+01 -0.40150705987E+01  0.71817037844E+01  0.51100000000E-03 0. -1.
        -11    1    3    3    0    0 -0.12501966425E+02  0.25352360878E+02  0.19007729227E+02  0.34063692360E+02  0.51100000000E-03 0.  1.
         12    1    3    3    0    0  0.16583013072E+02  0.21315418330E+01 -0.68190544404E+01  0.18056558271E+02  0.00000000000E+00 0. -1.
</event>
<event>
 7    1  0.6061051E-012  0.5930194E+02  0.7816164E-02  0.1266605E+00
        -11   -1    0    0    0    0  0.00000000000E+00  0.00000000000E+00  0.45593999997E+02  0.45594000000E+02  0.51100000000E-03 0.  1.
         11   -1    0    0    0    0 -0.00000000000E+00 -0.00000000000E+00 -0.45593999997E+02  0.45594000000E+02  0.51100000000E-03 0. -1.
    9900012    2    1    2    0    0 -0.24960682324E+02  0.18295792005E+02  0.76778285140E+01  0.59301941638E+02  0.49999995642E+02 0.  0.
         12    1    1    2    0    0  0.24960682324E+02 -0.18295792005E+02 -0.76778285140E+01  0.31886058362E+02  0.00000000000E+00 0. -1.
         11    1    3    3    0    0  0.21584737348E+01  0.78359872047E+01 -0.58429240459E+00  0.81488098647E+01  0.51100000000E-03 0. -1.
        -11    1    3    3    0    0 -0.10606727336E+02 -0.49056475401E+01 -0.14824620230E+02  0.18876901435E+02  0.51100000000E-03 0.  1.
        -12    1    3    3    0    0 -0.16512428723E+02  0.15365452340E+02  0.23086741149E+02  0.32276230338E+02  0.00000000000E+00 0.  1.
</event>
<event>
 7    1  0.6061051E-012  0.5930196E+02  0.7816164E-02  0.1266605E+00
        -11   -1    0    0    0    0  0.00000000000E+00  0.00000000000E+00  0.45593999997E+02  0.45594000000E+02  0.51100000000E-03 0.  1.
         11   -1    0    0    0    0 -0.00000000000E+00 -0.00000000000E+00 -0.45593999997E+02  0.45594000000E+02  0.51100000000E-03 0. -1.
    9900012    2    1    2    0    0  0.18816947993E+02 -0.77000621419E+01  0.24563208989E+02  0.59301957213E+02  0.50000024047E+02 0.  0.
         12    1    1    2    0    0 -0.18816947993E+02  0.77000621419E+01 -0.24563208989E+02  0.31886042787E+02  0.00000000000E+00 0. -1.
         11    1    3    3    0    0  0.11810454622E+01 -0.28129990022E+01  0.13512141167E+02  0.13852284684E+02  0.51100000000E-03 0. -1.
        -11    1    3    3    0    0 -0.79808786032E+01  0.57920995480E+01  0.14444231596E+02  0.17489387271E+02  0.51100000000E-03 0.  1.
         12    1    3    3    0    0  0.25616781134E+02 -0.10679162688E+02 -0.33931637737E+01  0.27960285259E+02  0.00000000000E+00 0. -1.
</event>
<event>
 7    1  0.6061051E-012  0.5930188E+02  0.7816164E-02  0.1266605E+00
        -11   -1    0    0    0    0  0.00000000000E+00  0.00000000000E+00  0.45593999997E+02  0.45594000000E+02  0.51100000000E-03 0.  1.
         11   -1    0    0    0    0 -0.00000000000E+00 -0.00000000000E+00 -0.45593999997E+02  0.45594000000E+02  0.51100000000E-03 0. -1.
    9900012    2    1    2    0    0 -0.21132416721E+02 -0.11658225177E+02  0.20838220775E+02  0.59301879261E+02  0.49999881880E+02 0.  0.
         12    1    1    2    0    0  0.21132416721E+02  0.11658225177E+02 -0.20838220775E+02  0.31886120739E+02  0.00000000000E+00 0. -1.
         11    1    3    3    0    0 -0.23553871192E+02 -0.24649173390E+01  0.10025001392E+02  0.25716946140E+02  0.51100000000E-03 0. -1.
        -11    1    3    3    0    0 -0.58826709890E+01  0.24530814919E+01 -0.78239796175E+01  0.10091485722E+02  0.51100000000E-03 0.  1.
        -12    1    3    3    0    0  0.83041254597E+01 -0.11646389330E+02  0.18637199000E+02  0.23493447398E+02  0.00000000000E+00 0.  1.
</event>
<event>
 7    1  0.6061051E-012  0.5930197E+02  0.7816164E-02  0.1266605E+00
        -11   -1    0    0    0    0  0.00000000000E+00  0.00000000000E+00  0.45593999997E+02  0.45594000000E+02  0.51100000000E-03 0.  1.
         11   -1    0    0    0    0 -0.00000000000E+00 -0.00000000000E+00 -0.45593999997E+02  0.45594000000E+02  0.51100000000E-03 0. -1.
    9900012    2    1    2    0    0  0.65599730264E+01  0.15120239126E+02  0.27295866228E+02  0.59301965589E+02  0.50000039322E+02 0.  0.
         12    1    1    2    0    0 -0.65599730264E+01 -0.15120239126E+02 -0.27295866228E+02  0.31886034411E+02  0.00000000000E+00 0. -1.
         11    1    3    3    0    0  0.15765573121E+02  0.18810830544E+02  0.43772425808E+01  0.24931123009E+02  0.51100000000E-03 0. -1.
        -11    1    3    3    0    0  0.73937392111E+01  0.24319838501E+01  0.54052157327E+01  0.94761955630E+01  0.51100000000E-03 0.  1.
        -12    1    3    3    0    0 -0.16599339306E+02 -0.61225752688E+01  0.17513407915E+02  0.24894647017E+02  0.00000000000E+00 0.  1.
</event>
<event>
 7    1  0.6061051E-012  0.5930197E+02  0.7816164E-02  0.1266605E+00
        -11   -1    0    0    0    0  0.00000000000E+00  0.00000000000E+00  0.45593999997E+02  0.45594000000E+02  0.51100000000E-03 0.  1.
         11   -1    0    0    0    0 -0.00000000000E+00 -0.00000000000E+00 -0.45593999997E+02  0.45594000000E+02  0.51100000000E-03 0. -1.
    9900012    2    1    2    0    0 -0.30490618765E+02  0.87672911920E+01  0.31899104084E+01  0.59301972403E+02  0.50000051750E+02 0.  0.
         12    1    1    2    0    0  0.30490618765E+02 -0.87672911920E+01 -0.31899104084E+01  0.31886027597E+02  0.00000000000E+00 0. -1.
         11    1    3    3    0    0 -0.14898546749E+02  0.59393271484E+01 -0.96456919256E+01  0.18715813506E+02  0.51100000000E-03 0. -1.
        -11    1    3    3    0    0 -0.17662139895E+02 -0.70032694963E+01 -0.54119105498E+01  0.19755650973E+02  0.51100000000E-03 0.  1.
        -12    1    3    3    0    0  0.20700678793E+01  0.98312335398E+01  0.18247512884E+02  0.20830507924E+02  0.00000000000E+00 0.  1.
</event>
<event>
 7    1  0.6061051E-012  0.5930195E+02  0.7816164E-02  0.1266605E+00
        -11   -1    0    0    0    0  0.00000000000E+00  0.00000000000E+00  0.45593999997E+02  0.45594000000E+02  0.51100000000E-03 0.  1.
         11   -1    0    0    0    0 -0.00000000000E+00 -0.00000000000E+00 -0.45593999997E+02  0.45594000000E+02  0.51100000000E-03 0. -1.
    9900012    2    1    2    0    0  0.62373734884E+01 -0.13268742406E+02  0.28315292286E+02  0.59301950851E+02  0.50000012444E+02 0.  0.
         12    1    1    2    0    0 -0.62373734884E+01  0.13268742406E+02 -0.28315292286E+02  0.31886049149E+02  0.00000000000E+00 0. -1.
         11    1    3    3    0    0 -0.60281520202E+01  0.10740629109E+02  0.84291522360E+01  0.14924822884E+02  0.51100000000E-03 0. -1.
        -11    1    3    3    0    0 -0.32484922877E+01  0.35269137395E+01  0.10280609531E+02  0.11343842173E+02  0.51100000000E-03 0.  1.
        -12    1    3    3    0    0  0.15514017796E+02 -0.27536285254E+02  0.96055305199E+01  0.33033285794E+02  0.00000000000E+00 0.  1.
</event>
<event>
 7    1  0.6061051E-012  0.5930189E+02  0.7816164E-02  0.1266605E+00
        -11   -1    0    0    0    0  0.00000000000E+00  0.00000000000E+00  0.45593999997E+02  0.45594000000E+02  0.51100000000E-03 0.  1.
         11   -1    0    0    0    0 -0.00000000000E+00 -0.00000000000E+00 -0.45593999997E+02  0.45594000000E+02  0.51100000000E-03 0. -1.
    9900012    2    1    2    0    0  0.10186951842E+02 -0.25522205035E+02  0.16173026608E+02  0.59301894447E+02  0.49999909577E+02 0.  0.
         12    1    1    2    0    0 -0.10186951842E+02  0.25522205035E+02 -0.16173026608E+02  0.31886105553E+02  0.00000000000E+00 0. -1.
         11    1    3    3    0    0 -0.61553047012E+01 -0.16236034250E+01 -0.10582051774E+02  0.12349238197E+02  0.51100000000E-03 0. -1.
        -11    1    3    3    0    0 -0.18421354652E+01 -0.12313576261E+02 -0.17850948391E+00  0.12451886977E+02  0.51100000000E-03 0.  1.
        -12    1    3    3    0    0  0.18184392009E+02 -0.11585025349E+02  0.26933587866E+02  0.34500769272E+02  0.00000000000E+00 0.  1.
</event>
<event>
 7    1  0.6061051E-012  0.5930174E+02  0.7816164E-02  0.1266605E+00
        -11   -1    0    0    0    0  0.00000000000E+00  0.00000000000E+00  0.45593999997E+02  0.45594000000E+02  0.51100000000E-03 0.  1.
         11   -1    0    0    0    0 -0.00000000000E+00 -0.00000000000E+00 -0.45593999997E+02  0.45594000000E+02  0.51100000000E-03 0. -1.
    9900012    2    1    2    0    0  0.13071943061E+02  0.43985495441E+01  0.28749096056E+02  0.59301741871E+02  0.49999631312E+02 0.  0.
         12    1    1    2    0    0 -0.13071943061E+02 -0.43985495441E+01 -0.28749096056E+02  0.31886258129E+02  0.00000000000E+00 0. -1.
         11    1    3    3    0    0  0.91443396660E+01  0.17767308927E+02  0.35357081759E+01  0.20292792982E+02  0.51100000000E-03 0. -1.
        -11    1    3    3    0    0  0.27830146483E+01  0.60069502883E+01  0.16412376955E+02  0.17697308831E+02  0.51100000000E-03 0.  1.
        -12    1    3    3    0    0  0.11445887469E+01 -0.19375709671E+02  0.88010109251E+01  0.21311640058E+02  0.00000000000E+00 0.  1.
</event>
<event>
 7    1  0.6061051E-012  0.5930194E+02  0.7816164E-02  0.1266605E+00
        -11   -1    0    0    0    0  0.00000000000E+00  0.00000000000E+00  0.45593999997E+02  0.45594000000E+02  0.51100000000E-03 0. -1.
         11   -1    0    0    0    0 -0.00000000000E+00 -0.00000000000E+00 -0.45593999997E+02  0.45594000000E+02  0.51100000000E-03 0.  1.
    9900012    2    1    2    0    0 -0.30670096131E+02  0.67218464638E+01 -0.55572109866E+01  0.59301943321E+02  0.49999998711E+02 0.  0.
         12    1    1    2    0    0  0.30670096131E+02 -0.67218464638E+01  0.55572109866E+01  0.31886056679E+02  0.00000000000E+00 0. -1.
         11    1    3    3    0    0  0.19942055515E+01  0.16638029446E+02 -0.38765604966E+01  0.17199668635E+02  0.51100000000E-03 0. -1.
        -11    1    3    3    0    0 -0.29614229255E+02  0.20372552223E+01 -0.27000072916E+00  0.29685449026E+02  0.51100000000E-03 0.  1.
         12    1    3    3    0    0 -0.30500724275E+01 -0.11953438204E+02 -0.14106497609E+01  0.12416825660E+02  0.00000000000E+00 0. -1.
</event>
<event>
 7    1  0.6061051E-012  0.5930192E+02  0.7816164E-02  0.1266605E+00
        -11   -1    0    0    0    0  0.00000000000E+00  0.00000000000E+00  0.45593999997E+02  0.45594000000E+02  0.51100000000E-03 0.  1.
         11   -1    0    0    0    0 -0.00000000000E+00 -0.00000000000E+00 -0.45593999997E+02  0.45594000000E+02  0.51100000000E-03 0. -1.
    9900012    2    1    2    0    0 -0.25927399695E+01  0.12603999200E+02  0.29174282519E+02  0.59301923777E+02  0.49999963067E+02 0.  0.
         12    1    1    2    0    0  0.25927399695E+01 -0.12603999200E+02 -0.29174282519E+02  0.31886076223E+02  0.00000000000E+00 0. -1.
         11    1    3    3    0    0  0.25109554339E+01 -0.37322362843E+01 -0.47325716720E+01  0.65292970345E+01  0.51100000000E-03 0. -1.
        -11    1    3    3    0    0 -0.17045875630E+02  0.11696538720E+02  0.51706702309E+01  0.21309780030E+02  0.51100000000E-03 0.  1.
         12    1    3    3    0    0  0.11942180227E+02  0.46396967644E+01  0.28736183960E+02  0.31462846712E+02  0.00000000000E+00 0. -1.
</event>
<event>
 7    1  0.6061051E-012  0.5930191E+02  0.7816164E-02  0.1266605E+00
        -11   -1    0    0    0    0  0.00000000000E+00  0.00000000000E+00  0.45593999997E+02  0.45594000000E+02  0.51100000000E-03 0.  1.
         11   -1    0    0    0    0 -0.00000000000E+00 -0.00000000000E+00 -0.45593999997E+02  0.45594000000E+02  0.51100000000E-03 0. -1.
    9900012    2    1    2    0    0  0.28865238786E+02 -0.95636886534E+01  0.95946145802E+01  0.59301909305E+02  0.49999936674E+02 0.  0.
         12    1    1    2    0    0 -0.28865238786E+02  0.95636886534E+01 -0.95946145802E+01  0.31886090695E+02  0.00000000000E+00 0. -1.
         11    1    3    3    0    0  0.17767493374E+02 -0.29961245294E+01  0.42154647961E+01  0.18504883861E+02  0.51100000000E-03 0. -1.
        -11    1    3    3    0    0  0.19157483049E+02 -0.99717692633E+01  0.16115470463E+02  0.26947239701E+02  0.51100000000E-03 0.  1.
         12    1    3    3    0    0 -0.80597376369E+01  0.34042051393E+01 -0.10736320679E+02  0.13849785743E+02  0.00000000000E+00 0. -1.
</event>
<event>
 7    1  0.6061051E-012  0.5930195E+02  0.7816164E-02  0.1266605E+00
        -11   -1    0    0    0    0  0.00000000000E+00  0.00000000000E+00  0.45593999997E+02  0.45594000000E+02  0.51100000000E-03 0. -1.
         11   -1    0    0    0    0 -0.00000000000E+00 -0.00000000000E+00 -0.45593999997E+02  0.45594000000E+02  0.51100000000E-03 0.  1.
    9900012    2    1    2    0    0 -0.72653438074E+01 -0.30469034758E+02 -0.59642918659E+01  0.59301951685E+02  0.50000013964E+02 0.  0.
         12    1    1    2    0    0  0.72653438074E+01  0.30469034758E+02  0.59642918659E+01  0.31886048315E+02  0.00000000000E+00 0. -1.
         11    1    3    3    0    0  0.97442218195E+01 -0.77140342038E+01 -0.13350234990E+02  0.18239653426E+02  0.51100000000E-03 0. -1.
        -11    1    3    3    0    0 -0.10985437206E+02 -0.86066714844E+01 -0.10507627509E+02  0.17468968509E+02  0.51100000000E-03 0.  1.
        -12    1    3    3    0    0 -0.60241284209E+01 -0.14148329070E+02  0.17893570632E+02  0.23593329750E+02  0.00000000000E+00 0.  1.
</event>
<event>
 7    1  0.6061051E-012  0.5930193E+02  0.7816164E-02  0.1266605E+00
        -11   -1    0    0    0    0  0.00000000000E+00  0.00000000000E+00  0.45593999997E+02  0.45594000000E+02  0.51100000000E-03 0.  1.
         11   -1    0    0    0    0 -0.00000000000E+00 -0.00000000000E+00 -0.45593999997E+02  0.45594000000E+02  0.51100000000E-03 0. -1.
    9900012    2    1    2    0    0 -0.29480922342E+02 -0.11370081050E+02 -0.42799211564E+01  0.59301933289E+02  0.49999980415E+02 0.  0.
         12    1    1    2    0    0  0.29480922342E+02  0.11370081050E+02  0.42799211564E+01  0.31886066711E+02  0.00000000000E+00 0. -1.
         11    1    3    3    0    0 -0.24412213478E+02  0.39450459097E+01 -0.20713026819E+02  0.32257542287E+02  0.51100000000E-03 0. -1.
        -11    1    3    3    0    0 -0.46748215935E+01 -0.10340542040E+02  0.16820648220E+01  0.11472144915E+02  0.51100000000E-03 0.  1.
        -12    1    3    3    0    0 -0.39388727008E+00 -0.49745849195E+01  0.14751040841E+02  0.15572246087E+02  0.00000000000E+00 0.  1.
</event>
<event>
 7    1  0.6061051E-012  0.5930197E+02  0.7816164E-02  0.1266605E+00
        -11   -1    0    0    0    0  0.00000000000E+00  0.00000000000E+00  0.45593999997E+02  0.45594000000E+02  0.51100000000E-03 0.  1.
         11   -1    0    0    0    0 -0.00000000000E+00 -0.00000000000E+00 -0.45593999997E+02  0.45594000000E+02  0.51100000000E-03 0. -1.
    9900012    2    1    2    0    0 -0.20235995514E+02  0.23670992798E+02  0.68489225414E+01  0.59301966154E+02  0.50000040353E+02 0.  0.
         12    1    1    2    0    0  0.20235995514E+02 -0.23670992798E+02 -0.68489225414E+01  0.31886033846E+02  0.00000000000E+00 0. -1.
         11    1    3    3    0    0 -0.21668067520E+02  0.17914251693E+01  0.73756513938E+01  0.22958976196E+02  0.51100000000E-03 0. -1.
        -11    1    3    3    0    0 -0.78213849047E+01 -0.22074800051E+01  0.55406016179E+01  0.98359186836E+01  0.51100000000E-03 0.  1.
         12    1    3    3    0    0  0.92534569116E+01  0.24087047634E+02 -0.60673304703E+01  0.26507071275E+02  0.00000000000E+00 0. -1.
</event>
<event>
 7    1  0.6061051E-012  0.5930194E+02  0.7816164E-02  0.1266605E+00
        -11   -1    0    0    0    0  0.00000000000E+00  0.00000000000E+00  0.45593999997E+02  0.45594000000E+02  0.51100000000E-03 0.  1.
         11   -1    0    0    0    0 -0.00000000000E+00 -0.00000000000E+00 -0.45593999997E+02  0.45594000000E+02  0.51100000000E-03 0. -1.
    9900012    2    1    2    0    0  0.10747267741E+02  0.15090568689E+02  0.25951719346E+02  0.59301940910E+02  0.49999994315E+02 0.  0.
         12    1    1    2    0    0 -0.10747267741E+02 -0.15090568689E+02 -0.25951719346E+02  0.31886059090E+02  0.00000000000E+00 0. -1.
         11    1    3    3    0    0 -0.62661200793E+01 -0.11152941955E+02  0.18847807799E+02  0.22779206179E+02  0.51100000000E-03 0. -1.
        -11    1    3    3    0    0 -0.26003066712E+01  0.28111841233E+01  0.44189363005E+01  0.58473369365E+01  0.51100000000E-03 0.  1.
         12    1    3    3    0    0  0.19613694491E+02  0.23432326521E+02  0.26849752467E+01  0.30675397794E+02  0.00000000000E+00 0. -1.
</event>
<event>
 7    1  0.6061051E-012  0.5930196E+02  0.7816164E-02  0.1266605E+00
        -11   -1    0    0    0    0  0.00000000000E+00  0.00000000000E+00  0.45593999997E+02  0.45594000000E+02  0.51100000000E-03 0. -1.
         11   -1    0    0    0    0 -0.00000000000E+00 -0.00000000000E+00 -0.45593999997E+02  0.45594000000E+02  0.51100000000E-03 0.  1.
    9900012    2    1    2    0    0  0.64090094147E+01 -0.25068038833E+01 -0.31134548322E+02  0.59301959691E+02  0.50000028565E+02 0.  0.
         12    1    1    2    0    0 -0.64090094147E+01  0.25068038833E+01  0.31134548322E+02  0.31886040309E+02  0.00000000000E+00 0. -1.
         11    1    3    3    0    0 -0.75888102956E+01 -0.26867322895E+01  0.83395647089E+01  0.11591242897E+02  0.51100000000E-03 0. -1.
        -11    1    3    3    0    0  0.38441378382E+01 -0.72197429351E+01 -0.23381621625E+01  0.85070021939E+01  0.51100000000E-03 0.  1.
        -12    1    3    3    0    0  0.10153681872E+02  0.73996713413E+01 -0.37135950869E+02  0.39203714600E+02  0.00000000000E+00 0.  1.
</event>
<event>
 7    1  0.6061051E-012  0.5930193E+02  0.7816164E-02  0.1266605E+00
        -11   -1    0    0    0    0  0.00000000000E+00  0.00000000000E+00  0.45593999997E+02  0.45594000000E+02  0.51100000000E-03 0. -1.
         11   -1    0    0    0    0 -0.00000000000E+00 -0.00000000000E+00 -0.45593999997E+02  0.45594000000E+02  0.51100000000E-03 0.  1.
    9900012    2    1    2    0    0  0.10265315261E+02 -0.21351977397E+02 -0.21340985252E+02  0.59301932702E+02  0.49999979345E+02 0.  0.
         12    1    1    2    0    0 -0.10265315261E+02  0.21351977397E+02  0.21340985252E+02  0.31886067298E+02  0.00000000000E+00 0. -1.
         11    1    3    3    0    0  0.80560763812E+01 -0.19356199621E+02 -0.17512355243E+01  0.21038765566E+02  0.51100000000E-03 0. -1.
        -11    1    3    3    0    0 -0.93683905048E+01  0.12869026019E+01 -0.23723676346E+02  0.25538905196E+02  0.51100000000E-03 0.  1.
         12    1    3    3    0    0  0.11577629385E+02 -0.32826803782E+01  0.41339266189E+01  0.12724261940E+02  0.00000000000E+00 0. -1.
</event>
<event>
 7    1  0.6061051E-012  0.5930191E+02  0.7816164E-02  0.1266605E+00
        -11   -1    0    0    0    0  0.00000000000E+00  0.00000000000E+00  0.45593999997E+02  0.45594000000E+02  0.51100000000E-03 0.  1.
         11   -1    0    0    0    0 -0.00000000000E+00 -0.00000000000E+00 -0.45593999997E+02  0.45594000000E+02  0.51100000000E-03 0. -1.
    9900012    2    1    2    0    0 -0.16402751455E+02 -0.14588421352E+02  0.23126827870E+02  0.59301914317E+02  0.49999945814E+02 0.  0.
         12    1    1    2    0    0  0.16402751455E+02  0.14588421352E+02 -0.23126827870E+02  0.31886085683E+02  0.00000000000E+00 0. -1.
         11    1    3    3    0    0 -0.11833583005E+02 -0.36899941386E+01 -0.83460099897E+01  0.14943414151E+02  0.51100000000E-03 0. -1.
        -11    1    3    3    0    0  0.15490292393E+01 -0.92634906387E+01 -0.25653846192E+01  0.97361670540E+01  0.51100000000E-03 0.  1.
         12    1    3    3    0    0 -0.61181976897E+01 -0.16349365749E+01  0.34038222479E+02  0.34622333112E+02  0.00000000000E+00 0. -1.
</event>
<event>
 7    1  0.6061051E-012  0.5930193E+02  0.7816164E-02  0.1266605E+00
        -11   -1    0    0    0    0  0.00000000000E+00  0.00000000000E+00  0.45593999997E+02  0.45594000000E+02  0.51100000000E-03 0.  1.
         11   -1    0    0    0    0 -0.00000000000E+00 -0.00000000000E+00 -0.45593999997E+02  0.45594000000E+02  0.51100000000E-03 0. -1.
    9900012    2    1    2    0    0  0.23332335246E+02  0.18463478953E+02  0.11464005472E+02  0.59301931811E+02  0.49999977721E+02 0.  0.
         12    1    1    2    0    0 -0.23332335246E+02 -0.18463478953E+02 -0.11464005472E+02  0.31886068189E+02  0.00000000000E+00 0. -1.
         11    1    3    3    0    0  0.42422026461E+01  0.13791767399E+02  0.60573591040E+01  0.15649304484E+02  0.51100000000E-03 0. -1.
        -11    1    3    3    0    0 -0.11709751990E+02 -0.11107911915E+01  0.34305741742E+01  0.12252387040E+02  0.51100000000E-03 0.  1.
         12    1    3    3    0    0  0.30799884590E+02  0.57825027455E+01  0.19760721935E+01  0.31400240287E+02  0.00000000000E+00 0. -1.
</event>
<event>
 7    1  0.6061051E-012  0.5930193E+02  0.7816164E-02  0.1266605E+00
        -11   -1    0    0    0    0  0.00000000000E+00  0.00000000000E+00  0.45593999997E+02  0.45594000000E+02  0.51100000000E-03 0. -1.
         11   -1    0    0    0    0 -0.00000000000E+00 -0.00000000000E+00 -0.45593999997E+02  0.45594000000E+02  0.51100000000E-03 0.  1.
    9900012    2    1    2    0    0 -0.21267452397E+02 -0.16727860990E+02 -0.16869956787E+02  0.59301932404E+02  0.49999978801E+02 0.  0.
         12    1    1    2    0    0  0.21267452397E+02  0.16727860990E+02  0.16869956787E+02  0.31886067596E+02  0.00000000000E+00 0. -1.
         11    1    3    3    0    0 -0.27183113717E+01 -0.43553836109E+01  0.12837462935E+01  0.52921250853E+01  0.51100000000E-03 0. -1.
        -11    1    3    3    0    0 -0.72894057241E+01  0.13880031255E+02 -0.19967673078E+02  0.25386978392E+02  0.51100000000E-03 0.  1.
         12    1    3    3    0    0 -0.11259735301E+02 -0.26252508634E+02  0.18139699983E+01  0.28622828927E+02  0.00000000000E+00 0. -1.
</event>
<event>
 7    1  0.6061051E-012  0.5930193E+02  0.7816164E-02  0.1266605E+00
        -11   -1    0    0    0    0  0.00000000000E+00  0.00000000000E+00  0.45593999997E+02  0.45594000000E+02  0.51100000000E-03 0.  1.
         11   -1    0    0    0    0 -0.00000000000E+00 -0.00000000000E+00 -0.45593999997E+02  0.45594000000E+02  0.51100000000E-03 0. -1.
    9900012    2    1    2    0    0  0.61854283669E+01 -0.49355338477E+01  0.30888548055E+02  0.59301930637E+02  0.49999975579E+02 0.  0.
         12    1    1    2    0    0 -0.61854283669E+01  0.49355338477E+01 -0.30888548055E+02  0.31886069363E+02  0.00000000000E+00 0. -1.
         11    1    3    3    0    0  0.57390611406E+01  0.61581432117E+01  0.90645891455E+00  0.84664761629E+01  0.51100000000E-03 0. -1.
        -11    1    3    3    0    0  0.11516312095E+02  0.78955481569E+01  0.24471649895E+02  0.28174931656E+02  0.51100000000E-03 0.  1.
         12    1    3    3    0    0 -0.11069944869E+02 -0.18989225216E+02  0.55104392457E+01  0.22660522818E+02  0.00000000000E+00 0. -1.
</event>
<event>
 7    1  0.6061051E-012  0.5930193E+02  0.7816164E-02  0.1266605E+00
        -11   -1    0    0    0    0  0.00000000000E+00  0.00000000000E+00  0.45593999997E+02  0.45594000000E+02  0.51100000000E-03 0. -1.
         11   -1    0    0    0    0 -0.00000000000E+00 -0.00000000000E+00 -0.45593999997E+02  0.45594000000E+02  0.51100000000E-03 0.  1.
    9900012    2    1    2    0    0  0.29599473674E+01  0.31737212620E+02  0.84230434355E+00  0.59301930473E+02  0.49999975279E+02 0.  0.
         12    1    1    2    0    0 -0.29599473674E+01 -0.31737212620E+02 -0.84230434355E+00  0.31886069527E+02  0.00000000000E+00 0. -1.
         11    1    3    3    0    0 -0.69608297080E+00  0.31630600083E+02  0.14094859563E+02  0.34635883986E+02  0.51100000000E-03 0. -1.
        -11    1    3    3    0    0 -0.44070069944E+00  0.10044393013E+02 -0.64730195301E+01  0.11957592994E+02  0.51100000000E-03 0.  1.
        -12    1    3    3    0    0  0.40967310376E+01 -0.99377804771E+01 -0.67795356896E+01  0.12708453493E+02  0.00000000000E+00 0.  1.
</event>
<event>
 7    1  0.6061051E-012  0.5930193E+02  0.7816164E-02  0.1266605E+00
        -11   -1    0    0    0    0  0.00000000000E+00  0.00000000000E+00  0.45593999997E+02  0.45594000000E+02  0.51100000000E-03 0.  1.
         11   -1    0    0    0    0 -0.00000000000E+00 -0.00000000000E+00 -0.45593999997E+02  0.45594000000E+02  0.51100000000E-03 0. -1.
    9900012    2    1    2    0    0  0.31236254399E+02  0.30903488462E+01  0.56095797909E+01  0.59301933603E+02  0.49999980988E+02 0.  0.
         12    1    1    2    0    0 -0.31236254399E+02 -0.30903488462E+01 -0.56095797909E+01  0.31886066397E+02  0.00000000000E+00 0. -1.
         11    1    3    3    0    0  0.17592898917E+01 -0.19518673269E+02 -0.25379414678E+00  0.19599441799E+02  0.51100000000E-03 0. -1.
        -11    1    3    3    0    0  0.17154580011E+02  0.52280454796E+01  0.34234165858E+01  0.18257378132E+02  0.51100000000E-03 0.  1.
        -12    1    3    3    0    0  0.12322384496E+02  0.17380976636E+02  0.24399573518E+01  0.21445113671E+02  0.00000000000E+00 0.  1.
</event>
<event>
 7    1  0.6061051E-012  0.5930194E+02  0.7816164E-02  0.1266605E+00
        -11   -1    0    0    0    0  0.00000000000E+00  0.00000000000E+00  0.45593999997E+02  0.45594000000E+02  0.51100000000E-03 0.  1.
         11   -1    0    0    0    0 -0.00000000000E+00 -0.00000000000E+00 -0.45593999997E+02  0.45594000000E+02  0.51100000000E-03 0. -1.
    9900012    2    1    2    0    0 -0.17323931791E+02 -0.13701802929E+02  0.22997021535E+02  0.59301936968E+02  0.49999987124E+02 0.  0.
         12    1    1    2    0    0  0.17323931791E+02  0.13701802929E+02 -0.22997021535E+02  0.31886063032E+02  0.00000000000E+00 0. -1.
         11    1    3    3    0    0 -0.21461494236E+02 -0.38124606110E+01 -0.23039255164E+01  0.21918911100E+02  0.51100000000E-03 0. -1.
        -11    1    3    3    0    0  0.26490996248E+01  0.80268011778E+01  0.35598149603E+01  0.91716709918E+01  0.51100000000E-03 0.  1.
        -12    1    3    3    0    0  0.14884628202E+01 -0.17916143496E+02  0.21741132091E+02  0.28211354876E+02  0.00000000000E+00 0.  1.
</event>
<event>
 7    1  0.6061051E-012  0.5930188E+02  0.7816164E-02  0.1266605E+00
        -11   -1    0    0    0    0  0.00000000000E+00  0.00000000000E+00  0.45593999997E+02  0.45594000000E+02  0.51100000000E-03 0.  1.
         11   -1    0    0    0    0 -0.00000000000E+00 -0.00000000000E+00 -0.45593999997E+02  0.45594000000E+02  0.51100000000E-03 0. -1.
    9900012    2    1    2    0    0 -0.23164520863E+02  0.20037215165E+02  0.88679039711E+01  0.59301878580E+02  0.49999880639E+02 0.  0.
         12    1    1    2    0    0  0.23164520863E+02 -0.20037215165E+02 -0.88679039711E+01  0.31886121420E+02  0.00000000000E+00 0. -1.
         11    1    3    3    0    0 -0.18661974967E+01 -0.37790409674E+01 -0.52439833729E+01  0.67277935169E+01  0.51100000000E-03 0. -1.
        -11    1    3    3    0    0 -0.28414287283E+02  0.15610116568E+02 -0.27287588593E+01  0.32534498402E+02  0.51100000000E-03 0.  1.
        -12    1    3    3    0    0  0.71159639173E+01  0.82061395639E+01  0.16840646203E+02  0.20039586661E+02  0.00000000000E+00 0.  1.
</event>
<event>
 7    1  0.6061051E-012  0.5930193E+02  0.7816164E-02  0.1266605E+00
        -11   -1    0    0    0    0  0.00000000000E+00  0.00000000000E+00  0.45593999997E+02  0.45594000000E+02  0.51100000000E-03 0.  1.
         11   -1    0    0    0    0 -0.00000000000E+00 -0.00000000000E+00 -0.45593999997E+02  0.45594000000E+02  0.51100000000E-03 0. -1.
    9900012    2    1    2    0    0 -0.27403750419E+02  0.54858082296E+01 -0.15351274253E+02  0.59301933292E+02  0.49999980420E+02 0.  0.
         12    1    1    2    0    0  0.27403750419E+02 -0.54858082296E+01  0.15351274253E+02  0.31886066708E+02  0.00000000000E+00 0. -1.
         11    1    3    3    0    0 -0.15958680590E+01  0.11466981788E+02 -0.50386177784E+01  0.12626406281E+02  0.51100000000E-03 0. -1.
        -11    1    3    3    0    0 -0.19094676931E+02  0.13614181290E+02 -0.11103837126E+02  0.25947019452E+02  0.51100000000E-03 0.  1.
        -12    1    3    3    0    0 -0.67132054289E+01 -0.19595354849E+02  0.79118065111E+00  0.20728507558E+02  0.00000000000E+00 0.  1.
</event>
<event>
 7    1  0.6061051E-012  0.5930195E+02  0.7816164E-02  0.1266605E+00
        -11   -1    0    0    0    0  0.00000000000E+00  0.00000000000E+00  0.45593999997E+02  0.45594000000E+02  0.51100000000E-03 0. -1.
         11   -1    0    0    0    0 -0.00000000000E+00 -0.00000000000E+00 -0.45593999997E+02  0.45594000000E+02  0.51100000000E-03 0.  1.
    9900012    2    1    2    0    0 -0.29370741097E+02 -0.98393390623E+01 -0.75675043166E+01  0.59301950584E+02  0.50000011958E+02 0.  0.
         12    1    1    2    0    0  0.29370741097E+02  0.98393390623E+01  0.75675043166E+01  0.31886049416E+02  0.00000000000E+00 0. -1.
         11    1    3    3    0    0 -0.20109790369E+00  0.70134351649E+00 -0.11941099435E+02  0.11963368216E+02  0.51100000000E-03 0. -1.
        -11    1    3    3    0    0 -0.25954980031E+02 -0.80458911453E+01 -0.12550772004E+02  0.29931909911E+02  0.51100000000E-03 0.  1.
        -12    1    3    3    0    0 -0.32146631617E+01 -0.24947914335E+01  0.16924367123E+02  0.17406672457E+02  0.00000000000E+00 0.  1.
</event>
<event>
 7    1  0.6061051E-012  0.5930190E+02  0.7816164E-02  0.1266605E+00
        -11   -1    0    0    0    0  0.00000000000E+00  0.00000000000E+00  0.45593999997E+02  0.45594000000E+02  0.51100000000E-03 0.  1.
         11   -1    0    0    0    0 -0.00000000000E+00 -0.00000000000E+00 -0.45593999997E+02  0.45594000000E+02  0.51100000000E-03 0. -1.
    9900012    2    1    2    0    0 -0.21681171822E+02  0.19217927467E+02  0.13316209990E+02  0.59301899639E+02  0.49999919046E+02 0.  0.
         12    1    1    2    0    0  0.21681171822E+02 -0.19217927467E+02 -0.13316209990E+02  0.31886100361E+02  0.00000000000E+00 0. -1.
         11    1    3    3    0    0  0.48590412146E+01 -0.23105705827E+01 -0.14567234610E+01  0.55741422162E+01  0.51100000000E-03 0. -1.
        -11    1    3    3    0    0 -0.13568256254E+02 -0.93327507166E+01  0.11511460762E+02  0.20092574321E+02  0.51100000000E-03 0.  1.
         12    1    3    3    0    0 -0.12971956782E+02  0.30861248766E+02  0.32614726896E+01  0.33635183102E+02  0.00000000000E+00 0. -1.
</event>
<event>
 7    1  0.6061051E-012  0.5930194E+02  0.7816164E-02  0.1266605E+00
        -11   -1    0    0    0    0  0.00000000000E+00  0.00000000000E+00  0.45593999997E+02  0.45594000000E+02  0.51100000000E-03 0.  1.
         11   -1    0    0    0    0 -0.00000000000E+00 -0.00000000000E+00 -0.45593999997E+02  0.45594000000E+02  0.51100000000E-03 0. -1.
    9900012    2    1    2    0    0  0.27611209867E+02 -0.53279795938E+01 -0.15031791346E+02  0.59301936776E+02  0.49999986774E+02 0.  0.
         12    1    1    2    0    0 -0.27611209867E+02  0.53279795938E+01  0.15031791346E+02  0.31886063224E+02  0.00000000000E+00 0. -1.
         11    1    3    3    0    0 -0.36679014065E+01 -0.59786739007E+01 -0.24155658358E+01  0.74184230742E+01  0.51100000000E-03 0. -1.
        -11    1    3    3    0    0  0.27754525121E+02  0.17210650083E+01 -0.25959154974E+02  0.38041470223E+02  0.51100000000E-03 0.  1.
         12    1    3    3    0    0  0.35245861526E+01 -0.10703707014E+01  0.13342929464E+02  0.13842043479E+02  0.00000000000E+00 0. -1.
</event>
<event>
 7    1  0.6061051E-012  0.5930195E+02  0.7816164E-02  0.1266605E+00
        -11   -1    0    0    0    0  0.00000000000E+00  0.00000000000E+00  0.45593999997E+02  0.45594000000E+02  0.51100000000E-03 0.  1.
         11   -1    0    0    0    0 -0.00000000000E+00 -0.00000000000E+00 -0.45593999997E+02  0.45594000000E+02  0.51100000000E-03 0. -1.
    9900012    2    1    2    0    0 -0.10601078143E+02 -0.27980533338E+02  0.11019399929E+02  0.59301948529E+02  0.50000008209E+02 0.  0.
         12    1    1    2    0    0  0.10601078143E+02  0.27980533338E+02 -0.11019399929E+02  0.31886051471E+02  0.00000000000E+00 0. -1.
         11    1    3    3    0    0 -0.97202253285E+01 -0.24407213783E+00 -0.38099476259E+01  0.10443086365E+02  0.51100000000E-03 0. -1.
        -11    1    3    3    0    0 -0.14935857384E+02 -0.74889071291E+00 -0.12360708970E+00  0.14955131295E+02  0.51100000000E-03 0.  1.
         12    1    3    3    0    0  0.14055004569E+02 -0.26987570487E+02  0.14952954644E+02  0.33903730869E+02  0.00000000000E+00 0. -1.
</event>
<event>
 7    1  0.6061051E-012  0.5930193E+02  0.7816164E-02  0.1266605E+00
        -11   -1    0    0    0    0  0.00000000000E+00  0.00000000000E+00  0.45593999997E+02  0.45594000000E+02  0.51100000000E-03 0.  1.
         11   -1    0    0    0    0 -0.00000000000E+00 -0.00000000000E+00 -0.45593999997E+02  0.45594000000E+02  0.51100000000E-03 0. -1.
    9900012    2    1    2    0    0  0.17720144624E+02 -0.11191190705E+02  0.24030711026E+02  0.59301931767E+02  0.49999977640E+02 0.  0.
         12    1    1    2    0    0 -0.17720144624E+02  0.11191190705E+02 -0.24030711026E+02  0.31886068233E+02  0.00000000000E+00 0. -1.
         11    1    3    3    0    0  0.36387254461E+01  0.54857411189E+01  0.20168836890E+02  0.21215929399E+02  0.51100000000E-03 0. -1.
        -11    1    3    3    0    0 -0.25289212626E+01 -0.12937892444E+02  0.13210031968E+02  0.18662514528E+02  0.51100000000E-03 0.  1.
         12    1    3    3    0    0  0.16610340441E+02 -0.37390393802E+01 -0.93481578322E+01  0.19423487841E+02  0.00000000000E+00 0. -1.
</event>
<event>
 7    1  0.6061051E-012  0.5930190E+02  0.7816164E-02  0.1266605E+00
        -11   -1    0    0    0    0  0.00000000000E+00  0.00000000000E+00  0.45593999997E+02  0.45594000000E+02  0.51100000000E-03 0.  1.
         11   -1    0    0    0    0 -0.00000000000E+00 -0.00000000000E+00 -0.45593999997E+02  0.45594000000E+02  0.51100000000E-03 0. -1.
    9900012    2    1    2    0    0 -0.24075265911E+02 -0.72125344852E+01  0.19623556806E+02  0.59301904847E+02  0.49999928544E+02 0.  0.
         12    1    1    2    0    0  0.24075265911E+02  0.72125344852E+01 -0.19623556806E+02  0.31886095153E+02  0.00000000000E+00 0. -1.
         11    1    3    3    0    0  0.21791978956E+00 -0.28892973902E+01 -0.17006539515E+01  0.33597250733E+01  0.51100000000E-03 0. -1.
        -11    1    3    3    0    0 -0.24767800290E+02 -0.21285710361E+02  0.62622650037E+01  0.33252689515E+02  0.51100000000E-03 0.  1.
        -12    1    3    3    0    0  0.47461458925E+00  0.16962473266E+02  0.15061945754E+02  0.22689490259E+02  0.00000000000E+00 0.  1.
</event>
<event>
 7    1  0.6061051E-012  0.5930188E+02  0.7816164E-02  0.1266605E+00
        -11   -1    0    0    0    0  0.00000000000E+00  0.00000000000E+00  0.45593999997E+02  0.45594000000E+02  0.51100000000E-03 0.  1.
         11   -1    0    0    0    0 -0.00000000000E+00 -0.00000000000E+00 -0.45593999997E+02  0.45594000000E+02  0.51100000000E-03 0. -1.
    9900012    2    1    2    0    0 -0.70306022193E+01  0.23980963057E+02 -0.19804252699E+02  0.59301884186E+02  0.49999890863E+02 0.  0.
         12    1    1    2    0    0  0.70306022193E+01 -0.23980963057E+02  0.19804252699E+02  0.31886115814E+02  0.00000000000E+00 0. -1.
         11    1    3    3    0    0 -0.13746245242E+02  0.32246975095E+02 -0.85912301563E+01  0.36092047558E+02  0.51100000000E-03 0.  1.
        -11    1    3    3    0    0  0.14051305150E+01  0.49518011055E+01 -0.63139421849E+01  0.81462010857E+01  0.51100000000E-03 0. -1.
        -12    1    3    3    0    0  0.53105125081E+01 -0.13217813144E+02 -0.48990803582E+01  0.15063635543E+02  0.00000000000E+00 0.  1.
</event>
<event>
 7    1  0.6061051E-012  0.5930191E+02  0.7816164E-02  0.1266605E+00
        -11   -1    0    0    0    0  0.00000000000E+00  0.00000000000E+00  0.45593999997E+02  0.45594000000E+02  0.51100000000E-03 0. -1.
         11   -1    0    0    0    0 -0.00000000000E+00 -0.00000000000E+00 -0.45593999997E+02  0.45594000000E+02  0.51100000000E-03 0.  1.
    9900012    2    1    2    0    0  0.22618046870E+02 -0.13535515194E+02 -0.17942580961E+02  0.59301914832E+02  0.49999946754E+02 0.  0.
         12    1    1    2    0    0 -0.22618046870E+02  0.13535515194E+02  0.17942580961E+02  0.31886085168E+02  0.00000000000E+00 0. -1.
         11    1    3    3    0    0 -0.20311415802E+01  0.75754941578E+01 -0.11128840731E+02  0.13614872167E+02  0.51100000000E-03 0. -1.
        -11    1    3    3    0    0 -0.23129904859E+01 -0.17048428090E+02  0.12588676060E+01  0.17250610808E+02  0.51100000000E-03 0.  1.
        -12    1    3    3    0    0  0.26962178936E+02 -0.40625812623E+01 -0.80726078358E+01  0.28436431857E+02  0.00000000000E+00 0.  1.
</event>
<event>
 7    1  0.6061051E-012  0.5930194E+02  0.7816164E-02  0.1266605E+00
        -11   -1    0    0    0    0  0.00000000000E+00  0.00000000000E+00  0.45593999997E+02  0.45594000000E+02  0.51100000000E-03 0. -1.
         11   -1    0    0    0    0 -0.00000000000E+00 -0.00000000000E+00 -0.45593999997E+02  0.45594000000E+02  0.51100000000E-03 0.  1.
    9900012    2    1    2    0    0 -0.41080106284E+01  0.30925342772E+02  0.65930454999E+01  0.59301939944E+02  0.49999992553E+02 0.  0.
         12    1    1    2    0    0  0.41080106284E+01 -0.30925342772E+02 -0.65930454999E+01  0.31886060056E+02  0.00000000000E+00 0. -1.
         11    1    3    3    0    0  0.17288180371E+01 -0.74024148734E+01 -0.45802070517E+01  0.88748439232E+01  0.51100000000E-03 0. -1.
        -11    1    3    3    0    0 -0.40484591336E+01  0.26848883168E+01 -0.84153509594E+01  0.97168296610E+01  0.51100000000E-03 0.  1.
         12    1    3    3    0    0 -0.17883695320E+01  0.35642869329E+02  0.19588603511E+02  0.40710266360E+02  0.00000000000E+00 0. -1.
</event>
<event>
 7    1  0.6061051E-012  0.5930193E+02  0.7816164E-02  0.1266605E+00
        -11   -1    0    0    0    0  0.00000000000E+00  0.00000000000E+00  0.45593999997E+02  0.45594000000E+02  0.51100000000E-03 0. -1.
         11   -1    0    0    0    0 -0.00000000000E+00 -0.00000000000E+00 -0.45593999997E+02  0.45594000000E+02  0.51100000000E-03 0.  1.
    9900012    2    1    2    0    0 -0.25935504340E+02  0.18184022800E+02 -0.36622567839E+01  0.59301934151E+02  0.49999981988E+02 0.  0.
         12    1    1    2    0    0  0.25935504340E+02 -0.18184022800E+02  0.36622567839E+01  0.31886065849E+02  0.00000000000E+00 0. -1.
         11    1    3    3    0    0 -0.91251999138E+01  0.15025603224E+02 -0.11959357026E+02  0.21261802521E+02  0.51100000000E-03 0.  1.
        -11    1    3    3    0    0 -0.31361651894E+01  0.81362049360E+00 -0.12570572359E+02  0.12981402085E+02  0.51100000000E-03 0. -1.
         12    1    3    3    0    0 -0.13674139237E+02  0.23447990825E+01  0.20867672601E+02  0.25058729545E+02  0.00000000000E+00 0. -1.
</event>
<event>
 7    1  0.6061051E-012  0.5930193E+02  0.7816164E-02  0.1266605E+00
        -11   -1    0    0    0    0  0.00000000000E+00  0.00000000000E+00  0.45593999997E+02  0.45594000000E+02  0.51100000000E-03 0.  1.
         11   -1    0    0    0    0 -0.00000000000E+00 -0.00000000000E+00 -0.45593999997E+02  0.45594000000E+02  0.51100000000E-03 0. -1.
    9900012    2    1    2    0    0  0.18355452088E+02  0.28855480293E+01  0.25912785260E+02  0.59301930178E+02  0.49999974741E+02 0.  0.
         12    1    1    2    0    0 -0.18355452088E+02 -0.28855480293E+01 -0.25912785260E+02  0.31886069822E+02  0.00000000000E+00 0. -1.
         11    1    3    3    0    0 -0.86236757783E+01 -0.46389052785E+01 -0.39005116698E+01  0.10540456236E+02  0.51100000000E-03 0. -1.
        -11    1    3    3    0    0  0.23093672782E+02 -0.35670816102E+01  0.93605744513E+01  0.25172646823E+02  0.51100000000E-03 0.  1.
         12    1    3    3    0    0  0.38854550846E+01  0.11091534918E+02  0.20452722478E+02  0.23588827119E+02  0.00000000000E+00 0. -1.
</event>
<event>
 7    1  0.6061051E-012  0.5930191E+02  0.7816164E-02  0.1266605E+00
        -11   -1    0    0    0    0  0.00000000000E+00  0.00000000000E+00  0.45593999997E+02  0.45594000000E+02  0.51100000000E-03 0.  1.
         11   -1    0    0    0    0 -0.00000000000E+00 -0.00000000000E+00 -0.45593999997E+02  0.45594000000E+02  0.51100000000E-03 0. -1.
    9900012    2    1    2    0    0  0.29891492574E+02 -0.64429370034E+01  0.90393447278E+01  0.59301913401E+02  0.49999944144E+02 0.  0.
         12    1    1    2    0    0 -0.29891492574E+02  0.64429370034E+01 -0.90393447278E+01  0.31886086599E+02  0.00000000000E+00 0. -1.
         11    1    3    3    0    0  0.60869782343E+01  0.17971978685E+01 -0.50600112786E+01  0.81169537762E+01  0.51100000000E-03 0. -1.
        -11    1    3    3    0    0  0.32334254692E+02 -0.61337316821E+01 -0.18638398294E+01  0.32963625256E+02  0.51100000000E-03 0.  1.
         12    1    3    3    0    0 -0.85297403528E+01 -0.21064031898E+01  0.15963195836E+02  0.18221334369E+02  0.00000000000E+00 0. -1.
</event>
<event>
 7    1  0.6061051E-012  0.5930191E+02  0.7816164E-02  0.1266605E+00
        -11   -1    0    0    0    0  0.00000000000E+00  0.00000000000E+00  0.45593999997E+02  0.45594000000E+02  0.51100000000E-03 0. -1.
         11   -1    0    0    0    0 -0.00000000000E+00 -0.00000000000E+00 -0.45593999997E+02  0.45594000000E+02  0.51100000000E-03 0.  1.
    9900012    2    1    2    0    0  0.23525157459E+02 -0.20563023779E+02  0.63601762277E+01  0.59301908643E+02  0.49999935467E+02 0.  0.
         12    1    1    2    0    0 -0.23525157459E+02  0.20563023779E+02 -0.63601762277E+01  0.31886091357E+02  0.00000000000E+00 0. -1.
         11    1    3    3    0    0  0.37262706410E+01  0.12917094735E+02  0.11126142776E+02  0.17450715820E+02  0.51100000000E-03 0. -1.
        -11    1    3    3    0    0  0.24820783230E+01 -0.14980909130E+02 -0.63562753631E+01  0.16461791759E+02  0.51100000000E-03 0.  1.
        -12    1    3    3    0    0  0.17316808495E+02 -0.18499209384E+02  0.15903088148E+01  0.25389401064E+02  0.00000000000E+00 0.  1.
</event>
<event>
 7    1  0.6061051E-012  0.5930192E+02  0.7816164E-02  0.1266605E+00
        -11   -1    0    0    0    0  0.00000000000E+00  0.00000000000E+00  0.45593999997E+02  0.45594000000E+02  0.51100000000E-03 0.  1.
         11   -1    0    0    0    0 -0.00000000000E+00 -0.00000000000E+00 -0.45593999997E+02  0.45594000000E+02  0.51100000000E-03 0. -1.
    9900012    2    1    2    0    0  0.11616244829E+02 -0.26621029913E+02  0.13156966218E+02  0.59301919374E+02  0.49999955038E+02 0.  0.
         12    1    1    2    0    0 -0.11616244829E+02  0.26621029913E+02 -0.13156966218E+02  0.31886080626E+02  0.00000000000E+00 0. -1.
         11    1    3    3    0    0 -0.12687165305E+01 -0.24170249651E+01 -0.34632728688E+01  0.44097517551E+01  0.51100000000E-03 0. -1.
        -11    1    3    3    0    0  0.14542433473E+02 -0.35046752930E+02  0.39737939290E+01  0.38151648728E+02  0.51100000000E-03 0.  1.
        -12    1    3    3    0    0 -0.16574721128E+01  0.10842747981E+02  0.12646445158E+02  0.16740518891E+02  0.00000000000E+00 0.  1.
</event>
<event>
 7    1  0.6061051E-012  0.5930195E+02  0.7816164E-02  0.1266605E+00
        -11   -1    0    0    0    0  0.00000000000E+00  0.00000000000E+00  0.45593999997E+02  0.45594000000E+02  0.51100000000E-03 0.  1.
         11   -1    0    0    0    0 -0.00000000000E+00 -0.00000000000E+00 -0.45593999997E+02  0.45594000000E+02  0.51100000000E-03 0. -1.
    9900012    2    1    2    0    0 -0.28267903089E+02 -0.10885241278E+02  0.99577683697E+01  0.59301953308E+02  0.50000016925E+02 0.  0.
         12    1    1    2    0    0  0.28267903089E+02  0.10885241278E+02 -0.99577683697E+01  0.31886046692E+02  0.00000000000E+00 0. -1.
         11    1    3    3    0    0  0.58704215787E+01  0.38926112784E+00 -0.55770130978E+01  0.81065682685E+01  0.51100000000E-03 0. -1.
        -11    1    3    3    0    0 -0.34752133602E+01 -0.16599176705E+02  0.14084655998E+01  0.17017448422E+02  0.51100000000E-03 0.  1.
        -12    1    3    3    0    0 -0.30663111308E+02  0.53246742995E+01  0.14126315868E+02  0.34177936618E+02  0.00000000000E+00 0.  1.
</event>
<event>
 7    1  0.6061051E-012  0.5930189E+02  0.7816164E-02  0.1266605E+00
        -11   -1    0    0    0    0  0.00000000000E+00  0.00000000000E+00  0.45593999997E+02  0.45594000000E+02  0.51100000000E-03 0.  1.
         11   -1    0    0    0    0 -0.00000000000E+00 -0.00000000000E+00 -0.45593999997E+02  0.45594000000E+02  0.51100000000E-03 0. -1.
    9900012    2    1    2    0    0 -0.22891653692E+01 -0.27853712151E+02  0.15351035069E+02  0.59301892737E+02  0.49999906458E+02 0.  0.
         12    1    1    2    0    0  0.22891653692E+01  0.27853712151E+02 -0.15351035069E+02  0.31886107263E+02  0.00000000000E+00 0. -1.
         11    1    3    3    0    0 -0.17140900008E+01  0.50536879799E+01  0.91771731461E+01  0.10615949036E+02  0.51100000000E-03 0.  1.
        -11    1    3    3    0    0  0.85241395113E+00 -0.29681121498E+01 -0.12829641588E+02  0.13196060125E+02  0.51100000000E-03 0. -1.
         12    1    3    3    0    0 -0.14274893195E+01 -0.29939287981E+02  0.19003503511E+02  0.35489883576E+02  0.00000000000E+00 0. -1.
</event>
<event>
 7    1  0.6061051E-012  0.5930192E+02  0.7816164E-02  0.1266605E+00
        -11   -1    0    0    0    0  0.00000000000E+00  0.00000000000E+00  0.45593999997E+02  0.45594000000E+02  0.51100000000E-03 0.  1.
         11   -1    0    0    0    0 -0.00000000000E+00 -0.00000000000E+00 -0.45593999997E+02  0.45594000000E+02  0.51100000000E-03 0. -1.
    9900012    2    1    2    0    0  0.29834798748E+02 -0.21169129105E+00  0.11249984300E+02  0.59301918769E+02  0.49999953934E+02 0.  0.
         12    1    1    2    0    0 -0.29834798748E+02  0.21169129105E+00 -0.11249984300E+02  0.31886081231E+02  0.00000000000E+00 0. -1.
         11    1    3    3    0    0  0.10271463481E+02 -0.66477596788E+01 -0.76310681294E+01  0.14419738966E+02  0.51100000000E-03 0. -1.
        -11    1    3    3    0    0 -0.40043961060E+01  0.69352788096E+01 -0.64475372382E+01  0.10281245889E+02  0.51100000000E-03 0.  1.
        -12    1    3    3    0    0  0.23567731373E+02 -0.49921042176E+00  0.25328589668E+02  0.34600933913E+02  0.00000000000E+00 0.  1.
</event>
<event>
 7    1  0.6061051E-012  0.5930195E+02  0.7816164E-02  0.1266605E+00
        -11   -1    0    0    0    0  0.00000000000E+00  0.00000000000E+00  0.45593999997E+02  0.45594000000E+02  0.51100000000E-03 0.  1.
         11   -1    0    0    0    0 -0.00000000000E+00 -0.00000000000E+00 -0.45593999997E+02  0.45594000000E+02  0.51100000000E-03 0. -1.
    9900012    2    1    2    0    0  0.21657596419E+02 -0.11323035388E+02  0.20480657478E+02  0.59301953776E+02  0.50000017779E+02 0.  0.
         12    1    1    2    0    0 -0.21657596419E+02  0.11323035388E+02 -0.20480657478E+02  0.31886046224E+02  0.00000000000E+00 0. -1.
         11    1    3    3    0    0  0.13282742131E+01 -0.80249967377E+01 -0.55763561307E+01  0.98620805606E+01  0.51100000000E-03 0. -1.
        -11    1    3    3    0    0  0.12575855368E+02  0.16064904289E+02  0.17559103619E+02  0.26917566907E+02  0.51100000000E-03 0.  1.
         12    1    3    3    0    0  0.77534668380E+01 -0.19362942939E+02  0.84979099900E+01  0.22522306309E+02  0.00000000000E+00 0. -1.
</event>
<event>
 7    1  0.6061051E-012  0.5930193E+02  0.7816164E-02  0.1266605E+00
        -11   -1    0    0    0    0  0.00000000000E+00  0.00000000000E+00  0.45593999997E+02  0.45594000000E+02  0.51100000000E-03 0. -1.
         11   -1    0    0    0    0 -0.00000000000E+00 -0.00000000000E+00 -0.45593999997E+02  0.45594000000E+02  0.51100000000E-03 0.  1.
    9900012    2    1    2    0    0 -0.95984792932E+01 -0.97416408283E+01 -0.28804356460E+02  0.59301932167E+02  0.49999978369E+02 0.  0.
         12    1    1    2    0    0  0.95984792932E+01  0.97416408283E+01  0.28804356460E+02  0.31886067833E+02  0.00000000000E+00 0. -1.
         11    1    3    3    0    0  0.42850289285E-01  0.38377338904E+01 -0.22702048769E+02  0.23024184157E+02  0.51100000000E-03 0. -1.
        -11    1    3    3    0    0 -0.15086481808E+02  0.37758854756E+01 -0.88318837452E+01  0.17884669838E+02  0.51100000000E-03 0.  1.
         12    1    3    3    0    0  0.54451522258E+01 -0.17355260194E+02  0.27295760536E+01  0.18393078171E+02  0.00000000000E+00 0. -1.
</event>
<event>
 7    1  0.6061051E-012  0.5930196E+02  0.7816164E-02  0.1266605E+00
        -11   -1    0    0    0    0  0.00000000000E+00  0.00000000000E+00  0.45593999997E+02  0.45594000000E+02  0.51100000000E-03 0.  1.
         11   -1    0    0    0    0 -0.00000000000E+00 -0.00000000000E+00 -0.45593999997E+02  0.45594000000E+02  0.51100000000E-03 0. -1.
    9900012    2    1    2    0    0  0.28990636398E+02  0.80676047484E+01  0.10544014037E+02  0.59301961093E+02  0.50000031123E+02 0.  0.
         12    1    1    2    0    0 -0.28990636398E+02 -0.80676047484E+01 -0.10544014037E+02  0.31886038907E+02  0.00000000000E+00 0. -1.
         11    1    3    3    0    0  0.14095320079E+02 -0.79518590009E+01 -0.10005302825E+02  0.19026723170E+02  0.51100000000E-03 0. -1.
        -11    1    3    3    0    0 -0.20466382597E+01  0.44597256454E+01 -0.53361269436E+01  0.72492849315E+01  0.51100000000E-03 0.  1.
        -12    1    3    3    0    0  0.16941954579E+02  0.11559738104E+02  0.25885443806E+02  0.33025952992E+02  0.00000000000E+00 0.  1.
</event>
<event>
 7    1  0.6061051E-012  0.5930195E+02  0.7816164E-02  0.1266605E+00
        -11   -1    0    0    0    0  0.00000000000E+00  0.00000000000E+00  0.45593999997E+02  0.45594000000E+02  0.51100000000E-03 0.  1.
         11   -1    0    0    0    0 -0.00000000000E+00 -0.00000000000E+00 -0.45593999997E+02  0.45594000000E+02  0.51100000000E-03 0. -1.
    9900012    2    1    2    0    0  0.39548521815E+01 -0.27515880584E+02  0.15619075791E+02  0.59301951818E+02  0.50000014207E+02 0.  0.
         12    1    1    2    0    0 -0.39548521815E+01  0.27515880584E+02 -0.15619075791E+02  0.31886048182E+02  0.00000000000E+00 0. -1.
         11    1    3    3    0    0 -0.12321659433E+02 -0.12773309623E+02 -0.62532583093E+01  0.18817119058E+02  0.51100000000E-03 0. -1.
        -11    1    3    3    0    0 -0.66058678095E+01 -0.75553216009E+01  0.54910395725E+01  0.11439925256E+02  0.51100000000E-03 0.  1.
         12    1    3    3    0    0  0.22882379424E+02 -0.71872493605E+01  0.16381294528E+02  0.29044907504E+02  0.00000000000E+00 0. -1.
</event>
<event>
 7    1  0.6061051E-012  0.5930193E+02  0.7816164E-02  0.1266605E+00
        -11   -1    0    0    0    0  0.00000000000E+00  0.00000000000E+00  0.45593999997E+02  0.45594000000E+02  0.51100000000E-03 0.  1.
         11   -1    0    0    0    0 -0.00000000000E+00 -0.00000000000E+00 -0.45593999997E+02  0.45594000000E+02  0.51100000000E-03 0. -1.
    9900012    2    1    2    0    0  0.29251340508E+02 -0.12402351010E+02  0.26948839523E+01  0.59301927310E+02  0.49999969511E+02 0.  0.
         12    1    1    2    0    0 -0.29251340508E+02  0.12402351010E+02 -0.26948839523E+01  0.31886072690E+02  0.00000000000E+00 0. -1.
         11    1    3    3    0    0  0.24777680159E+02 -0.52720843403E+01 -0.16218356806E+01  0.25384220662E+02  0.51100000000E-03 0. -1.
        -11    1    3    3    0    0 -0.80797145469E+01  0.94588031610E+01 -0.89278873383E+00  0.12471881028E+02  0.51100000000E-03 0.  1.
         12    1    3    3    0    0  0.12553374895E+02 -0.16589069830E+02  0.52095083667E+01  0.21445825620E+02  0.00000000000E+00 0. -1.
</event>
<event>
 7    1  0.6061051E-012  0.5930192E+02  0.7816164E-02  0.1266605E+00
        -11   -1    0    0    0    0  0.00000000000E+00  0.00000000000E+00  0.45593999997E+02  0.45594000000E+02  0.51100000000E-03 0.  1.
         11   -1    0    0    0    0 -0.00000000000E+00 -0.00000000000E+00 -0.45593999997E+02  0.45594000000E+02  0.51100000000E-03 0. -1.
    9900012    2    1    2    0    0  0.22329786611E+02  0.22092455207E+02 -0.54796143074E+01  0.59301919649E+02  0.49999955539E+02 0.  0.
         12    1    1    2    0    0 -0.22329786611E+02 -0.22092455207E+02  0.54796143074E+01  0.31886080351E+02  0.00000000000E+00 0. -1.
         11    1    3    3    0    0  0.18952761723E+02  0.23818379581E+01  0.60317208220E+00  0.19111361694E+02  0.51100000000E-03 0.  1.
        -11    1    3    3    0    0  0.93423101029E+01  0.70702518357E+00 -0.15536666696E+02  0.18142950558E+02  0.51100000000E-03 0. -1.
         12    1    3    3    0    0 -0.59652852146E+01  0.19003592066E+02  0.94538803060E+01  0.22047607397E+02  0.00000000000E+00 0. -1.
</event>
<event>
 7    1  0.6061051E-012  0.5930193E+02  0.7816164E-02  0.1266605E+00
        -11   -1    0    0    0    0  0.00000000000E+00  0.00000000000E+00  0.45593999997E+02  0.45594000000E+02  0.51100000000E-03 0.  1.
         11   -1    0    0    0    0 -0.00000000000E+00 -0.00000000000E+00 -0.45593999997E+02  0.45594000000E+02  0.51100000000E-03 0. -1.
    9900012    2    1    2    0    0 -0.20895745679E+02 -0.12384912383E+02  0.20656800426E+02  0.59301927083E+02  0.49999969098E+02 0.  0.
         12    1    1    2    0    0  0.20895745679E+02  0.12384912383E+02 -0.20656800426E+02  0.31886072917E+02  0.00000000000E+00 0. -1.
         11    1    3    3    0    0 -0.87394893128E+01  0.24452073631E+01  0.11512130655E+02  0.14659019918E+02  0.51100000000E-03 0. -1.
        -11    1    3    3    0    0 -0.22543447261E+02 -0.18819469954E+02  0.13963826255E+02  0.32517194032E+02  0.51100000000E-03 0.  1.
         12    1    3    3    0    0  0.10387190895E+02  0.39893502071E+01 -0.48191564841E+01  0.12125713133E+02  0.00000000000E+00 0. -1.
</event>
<event>
 7    1  0.6061051E-012  0.5930196E+02  0.7816164E-02  0.1266605E+00
        -11   -1    0    0    0    0  0.00000000000E+00  0.00000000000E+00  0.45593999997E+02  0.45594000000E+02  0.51100000000E-03 0. -1.
         11   -1    0    0    0    0 -0.00000000000E+00 -0.00000000000E+00 -0.45593999997E+02  0.45594000000E+02  0.51100000000E-03 0.  1.
    9900012    2    1    2    0    0  0.32214345140E+01 -0.44081136124E+01 -0.31415134523E+02  0.59301956297E+02  0.50000022376E+02 0.  0.
         12    1    1    2    0    0 -0.32214345140E+01  0.44081136124E+01  0.31415134523E+02  0.31886043703E+02  0.00000000000E+00 0. -1.
         11    1    3    3    0    0 -0.42385825049E+01 -0.10161613686E+01 -0.66956091775E+00  0.44098160575E+01  0.51100000000E-03 0. -1.
        -11    1    3    3    0    0 -0.57163771400E+01 -0.17030540920E+02 -0.31110635957E+02  0.35924754161E+02  0.51100000000E-03 0.  1.
        -12    1    3    3    0    0  0.13176394159E+02  0.13638588676E+02  0.36506235125E+00  0.18967386078E+02  0.00000000000E+00 0.  1.
</event>
<event>
 7    1  0.6061051E-012  0.5930180E+02  0.7816164E-02  0.1266605E+00
        -11   -1    0    0    0    0  0.00000000000E+00  0.00000000000E+00  0.45593999997E+02  0.45594000000E+02  0.51100000000E-03 0.  1.
         11   -1    0    0    0    0 -0.00000000000E+00 -0.00000000000E+00 -0.45593999997E+02  0.45594000000E+02  0.51100000000E-03 0. -1.
    9900012    2    1    2    0    0 -0.86460440661E+01  0.27888470686E+02 -0.12814400120E+02  0.59301800389E+02  0.49999738036E+02 0.  0.
         12    1    1    2    0    0  0.86460440661E+01 -0.27888470686E+02  0.12814400120E+02  0.31886199611E+02  0.00000000000E+00 0. -1.
         11    1    3    3    0    0  0.13588520254E+02  0.10351587068E+02 -0.52725354390E+01  0.17877440190E+02  0.51100000000E-03 0. -1.
        -11    1    3    3    0    0 -0.60083052280E+01  0.98517307740E+01  0.10766186827E+02  0.15781860157E+02  0.51100000000E-03 0.  1.
         12    1    3    3    0    0 -0.16226259092E+02  0.76851528446E+01 -0.18308051508E+02  0.25642500042E+02  0.00000000000E+00 0. -1.
</event>
<event>
 7    1  0.6061051E-012  0.5930194E+02  0.7816164E-02  0.1266605E+00
        -11   -1    0    0    0    0  0.00000000000E+00  0.00000000000E+00  0.45593999997E+02  0.45594000000E+02  0.51100000000E-03 0. -1.
         11   -1    0    0    0    0 -0.00000000000E+00 -0.00000000000E+00 -0.45593999997E+02  0.45594000000E+02  0.51100000000E-03 0.  1.
    9900012    2    1    2    0    0  0.18829501142E+02  0.18703874849E+02 -0.17673015128E+02  0.59301944877E+02  0.50000001549E+02 0.  0.
         12    1    1    2    0    0 -0.18829501142E+02 -0.18703874849E+02  0.17673015128E+02  0.31886055123E+02  0.00000000000E+00 0. -1.
         11    1    3    3    0    0 -0.10365906771E+01  0.10824238557E+02 -0.45476507172E+01  0.11786423880E+02  0.51100000000E-03 0. -1.
        -11    1    3    3    0    0 -0.34923550106E+01 -0.24709113195E+00 -0.21209119137E+02  0.21496146919E+02  0.51100000000E-03 0.  1.
         12    1    3    3    0    0  0.23358446829E+02  0.81267274235E+01  0.80837547268E+01  0.26019374077E+02  0.00000000000E+00 0. -1.
</event>
<event>
 7    1  0.6061051E-012  0.5930194E+02  0.7816164E-02  0.1266605E+00
        -11   -1    0    0    0    0  0.00000000000E+00  0.00000000000E+00  0.45593999997E+02  0.45594000000E+02  0.51100000000E-03 0. -1.
         11   -1    0    0    0    0 -0.00000000000E+00 -0.00000000000E+00 -0.45593999997E+02  0.45594000000E+02  0.51100000000E-03 0.  1.
    9900012    2    1    2    0    0 -0.29425903602E+01  0.24421135643E+02 -0.20289662756E+02  0.59301935350E+02  0.49999984174E+02 0.  0.
         12    1    1    2    0    0  0.29425903602E+01 -0.24421135643E+02  0.20289662756E+02  0.31886064650E+02  0.00000000000E+00 0. -1.
         11    1    3    3    0    0 -0.15126012181E+02  0.20048124223E+02  0.50818821005E+01  0.25623213212E+02  0.51100000000E-03 0. -1.
        -11    1    3    3    0    0  0.27624577267E+01  0.99709860477E+01 -0.77488269657E+01  0.12926563931E+02  0.51100000000E-03 0.  1.
         12    1    3    3    0    0  0.94209640936E+01 -0.55979746279E+01 -0.17622717891E+02  0.20752158207E+02  0.00000000000E+00 0. -1.
</event>
<event>
 7    1  0.6061051E-012  0.5930194E+02  0.7816164E-02  0.1266605E+00
        -11   -1    0    0    0    0  0.00000000000E+00  0.00000000000E+00  0.45593999997E+02  0.45594000000E+02  0.51100000000E-03 0. -1.
         11   -1    0    0    0    0 -0.00000000000E+00 -0.00000000000E+00 -0.45593999997E+02  0.45594000000E+02  0.51100000000E-03 0.  1.
    9900012    2    1    2    0    0 -0.68849681165E+01 -0.13194094966E+01 -0.31105905315E+02  0.59301937640E+02  0.49999988350E+02 0.  0.
         12    1    1    2    0    0  0.68849681165E+01  0.13194094966E+01  0.31105905315E+02  0.31886062360E+02  0.00000000000E+00 0. -1.
         11    1    3    3    0    0  0.13635762474E+01 -0.20500915155E+01  0.25206943685E+01  0.35236509142E+01  0.51100000000E-03 0. -1.
        -11    1    3    3    0    0 -0.10749345942E+02  0.42822084312E+01 -0.43488860407E+02  0.45001852484E+02  0.51100000000E-03 0.  1.
         12    1    3    3    0    0  0.25008015784E+01 -0.35515264123E+01  0.98622607233E+01  0.10776434242E+02  0.00000000000E+00 0. -1.
</event>
<event>
 7    1  0.6061051E-012  0.5930194E+02  0.7816164E-02  0.1266605E+00
        -11   -1    0    0    0    0  0.00000000000E+00  0.00000000000E+00  0.45593999997E+02  0.45594000000E+02  0.51100000000E-03 0.  1.
         11   -1    0    0    0    0 -0.00000000000E+00 -0.00000000000E+00 -0.45593999997E+02  0.45594000000E+02  0.51100000000E-03 0. -1.
    9900012    2    1    2    0    0  0.19851545546E+02 -0.32823085269E+01  0.24735867968E+02  0.59301943895E+02  0.49999999757E+02 0.  0.
         12    1    1    2    0    0 -0.19851545546E+02  0.32823085269E+01 -0.24735867968E+02  0.31886056105E+02  0.00000000000E+00 0. -1.
         11    1    3    3    0    0  0.23336748932E+02  0.17266989930E+02  0.14549563641E+02  0.32472181854E+02  0.51100000000E-03 0. -1.
        -11    1    3    3    0    0 -0.47828974015E+01 -0.84496735740E+01  0.10952549177E+02  0.14636646637E+02  0.51100000000E-03 0.  1.
        -12    1    3    3    0    0  0.12976940148E+01 -0.12099624883E+02 -0.76624484932E+00  0.12193115403E+02  0.00000000000E+00 0.  1.
</event>
<event>
 7    1  0.6061051E-012  0.5930217E+02  0.7816164E-02  0.1266604E+00
        -11   -1    0    0    0    0  0.00000000000E+00  0.00000000000E+00  0.45593999997E+02  0.45594000000E+02  0.51100000000E-03 0. -1.
         11   -1    0    0    0    0 -0.00000000000E+00 -0.00000000000E+00 -0.45593999997E+02  0.45594000000E+02  0.51100000000E-03 0.  1.
    9900012    2    1    2    0    0 -0.18218867863E+02 -0.24530062219E+02  0.91134548743E+01  0.59302169943E+02  0.50000412014E+02 0.  0.
         12    1    1    2    0    0  0.18218867863E+02  0.24530062219E+02 -0.91134548743E+01  0.31885830057E+02  0.00000000000E+00 0. -1.
         11    1    3    3    0    0 -0.64902389674E+01  0.48667982166E+01  0.76583786416E+01  0.11156150340E+02  0.51100000000E-03 0. -1.
        -11    1    3    3    0    0  0.44606104472E+01 -0.30815794747E+01  0.13836776576E+02  0.14861008172E+02  0.51100000000E-03 0.  1.
        -12    1    3    3    0    0 -0.16189239343E+02 -0.26315280961E+02 -0.12381700343E+02  0.33285011431E+02  0.00000000000E+00 0.  1.
</event>
<event>
 7    1  0.6061051E-012  0.5930189E+02  0.7816164E-02  0.1266605E+00
        -11   -1    0    0    0    0  0.00000000000E+00  0.00000000000E+00  0.45593999997E+02  0.45594000000E+02  0.51100000000E-03 0. -1.
         11   -1    0    0    0    0 -0.00000000000E+00 -0.00000000000E+00 -0.45593999997E+02  0.45594000000E+02  0.51100000000E-03 0.  1.
    9900012    2    1    2    0    0 -0.14305066652E+02  0.80794187199E+01 -0.27327867163E+02  0.59301886056E+02  0.49999894273E+02 0.  0.
         12    1    1    2    0    0  0.14305066652E+02 -0.80794187199E+01  0.27327867163E+02  0.31886113944E+02  0.00000000000E+00 0. -1.
         11    1    3    3    0    0  0.46406733239E+01  0.73504234905E+01 -0.60801782538E+01  0.10608163943E+02  0.51100000000E-03 0. -1.
        -11    1    3    3    0    0 -0.24015309332E+01  0.37056807401E+01 -0.29596950748E+02  0.29924553704E+02  0.51100000000E-03 0.  1.
        -12    1    3    3    0    0 -0.16544209043E+02 -0.29766855106E+01  0.83492618388E+01  0.18769168408E+02  0.00000000000E+00 0.  1.
</event>
<event>
 7    1  0.6061051E-012  0.5930194E+02  0.7816164E-02  0.1266605E+00
        -11   -1    0    0    0    0  0.00000000000E+00  0.00000000000E+00  0.45593999997E+02  0.45594000000E+02  0.51100000000E-03 0.  1.
         11   -1    0    0    0    0 -0.00000000000E+00 -0.00000000000E+00 -0.45593999997E+02  0.45594000000E+02  0.51100000000E-03 0. -1.
    9900012    2    1    2    0    0 -0.51880615416E+01  0.15516546407E+02  0.27368622529E+02  0.59301942011E+02  0.49999996322E+02 0.  0.
         12    1    1    2    0    0  0.51880615416E+01 -0.15516546407E+02 -0.27368622529E+02  0.31886057989E+02  0.00000000000E+00 0. -1.
         11    1    3    3    0    0 -0.34246676947E+00  0.12174907136E+02 -0.15316934007E+01  0.12275656080E+02  0.51100000000E-03 0. -1.
        -11    1    3    3    0    0  0.13458941925E+02  0.10257536855E+02  0.92075654042E+01  0.19264979652E+02  0.51100000000E-03 0.  1.
         12    1    3    3    0    0 -0.18304536697E+02 -0.69158975831E+01  0.19692750525E+02  0.27761306279E+02  0.00000000000E+00 0. -1.
</event>
<event>
 7    1  0.6061051E-012  0.5930201E+02  0.7816164E-02  0.1266605E+00
        -11   -1    0    0    0    0  0.00000000000E+00  0.00000000000E+00  0.45593999997E+02  0.45594000000E+02  0.51100000000E-03 0.  1.
         11   -1    0    0    0    0 -0.00000000000E+00 -0.00000000000E+00 -0.45593999997E+02  0.45594000000E+02  0.51100000000E-03 0. -1.
    9900012    2    1    2    0    0 -0.21436992061E+02  0.13455848333E+02  0.19393603216E+02  0.59302010464E+02  0.50000121164E+02 0.  0.
         12    1    1    2    0    0  0.21436992061E+02 -0.13455848333E+02 -0.19393603216E+02  0.31885989536E+02  0.00000000000E+00 0. -1.
         11    1    3    3    0    0 -0.12920469239E+02  0.26198123775E+01 -0.12807715623E+01  0.13245464065E+02  0.51100000000E-03 0. -1.
        -11    1    3    3    0    0 -0.58857229562E+01 -0.83094784209E+01 -0.69607592442E+01  0.12334558600E+02  0.51100000000E-03 0.  1.
        -12    1    3    3    0    0 -0.26307998661E+01  0.19145514376E+02  0.27635134023E+02  0.33721987799E+02  0.00000000000E+00 0.  1.
</event>
<event>
 7    1  0.6061051E-012  0.5930230E+02  0.7816164E-02  0.1266604E+00
        -11   -1    0    0    0    0  0.00000000000E+00  0.00000000000E+00  0.45593999997E+02  0.45594000000E+02  0.51100000000E-03 0.  1.
         11   -1    0    0    0    0 -0.00000000000E+00 -0.00000000000E+00 -0.45593999997E+02  0.45594000000E+02  0.51100000000E-03 0. -1.
    9900012    2    1    2    0    0  0.10559790218E+02  0.55213008249E+01  0.29575396590E+02  0.59302297629E+02  0.50000644879E+02 0.  0.
         12    1    1    2    0    0 -0.10559790218E+02 -0.55213008249E+01 -0.29575396590E+02  0.31885702371E+02  0.00000000000E+00 0. -1.
         11    1    3    3    0    0  0.55901454850E+01  0.16422715472E+02  0.20637060260E+02  0.26960036469E+02  0.51100000000E-03 0.  1.
        -11    1    3    3    0    0 -0.11639725723E+02 -0.60940682190E+01  0.71523562637E+01  0.14959180551E+02  0.51100000000E-03 0. -1.
         12    1    3    3    0    0  0.16609370456E+02 -0.48073464278E+01  0.17859800671E+01  0.17383080608E+02  0.00000000000E+00 0. -1.
</event>
<event>
 7    1  0.6061051E-012  0.5930194E+02  0.7816164E-02  0.1266605E+00
        -11   -1    0    0    0    0  0.00000000000E+00  0.00000000000E+00  0.45593999997E+02  0.45594000000E+02  0.51100000000E-03 0.  1.
         11   -1    0    0    0    0 -0.00000000000E+00 -0.00000000000E+00 -0.45593999997E+02  0.45594000000E+02  0.51100000000E-03 0. -1.
    9900012    2    1    2    0    0  0.24792580593E+02 -0.69289466847E+01 -0.18815906014E+02  0.59301942330E+02  0.49999996904E+02 0.  0.
         12    1    1    2    0    0 -0.24792580593E+02  0.69289466847E+01  0.18815906014E+02  0.31886057670E+02  0.00000000000E+00 0. -1.
         11    1    3    3    0    0 -0.53051763174E+01  0.46575049752E+01 -0.79368987934E+01  0.10622222511E+02  0.51100000000E-03 0. -1.
        -11    1    3    3    0    0 -0.75222349154E+01 -0.54937914723E+01 -0.15306330319E+01  0.94397351977E+01  0.51100000000E-03 0.  1.
        -12    1    3    3    0    0  0.37619991826E+02 -0.60926601875E+01 -0.93483741886E+01  0.39239984621E+02  0.00000000000E+00 0.  1.
</event>
<event>
 7    1  0.6061051E-012  0.5930190E+02  0.7816164E-02  0.1266605E+00
        -11   -1    0    0    0    0  0.00000000000E+00  0.00000000000E+00  0.45593999997E+02  0.45594000000E+02  0.51100000000E-03 0.  1.
         11   -1    0    0    0    0 -0.00000000000E+00 -0.00000000000E+00 -0.45593999997E+02  0.45594000000E+02  0.51100000000E-03 0. -1.
    9900012    2    1    2    0    0  0.80010592039E+01 -0.27299465309E+02  0.14402981560E+02  0.59301895936E+02  0.49999912293E+02 0.  0.
         12    1    1    2    0    0 -0.80010592039E+01  0.27299465309E+02 -0.14402981560E+02  0.31886104064E+02  0.00000000000E+00 0. -1.
         11    1    3    3    0    0  0.78786248117E+01 -0.10127325537E-01 -0.54235069855E+01  0.95648972691E+01  0.51100000000E-03 0. -1.
        -11    1    3    3    0    0  0.16348920034E+02 -0.10224225152E+02  0.52593038591E+00  0.19289856642E+02  0.51100000000E-03 0.  1.
        -12    1    3    3    0    0 -0.16226485642E+02 -0.17065112831E+02  0.19300558160E+02  0.30447142025E+02  0.00000000000E+00 0.  1.
</event>
<event>
 7    1  0.6061051E-012  0.5930209E+02  0.7816164E-02  0.1266604E+00
        -11   -1    0    0    0    0  0.00000000000E+00  0.00000000000E+00  0.45593999997E+02  0.45594000000E+02  0.51100000000E-03 0.  1.
         11   -1    0    0    0    0 -0.00000000000E+00 -0.00000000000E+00 -0.45593999997E+02  0.45594000000E+02  0.51100000000E-03 0. -1.
    9900012    2    1    2    0    0 -0.17826583318E+02 -0.11221111231E+02  0.23937644153E+02  0.59302090610E+02  0.50000267330E+02 0.  0.
         12    1    1    2    0    0  0.17826583318E+02  0.11221111231E+02 -0.23937644153E+02  0.31885909390E+02  0.00000000000E+00 0. -1.
         11    1    3    3    0    0  0.47466787176E+01 -0.22856968710E+02  0.12680133802E+01  0.23379046937E+02  0.51100000000E-03 0. -1.
        -11    1    3    3    0    0 -0.11100816579E+02  0.66436942208E+01  0.41752081924E+01  0.13594085674E+02  0.51100000000E-03 0.  1.
        -12    1    3    3    0    0 -0.11472445457E+02  0.49921632581E+01  0.18494422580E+02  0.22328957999E+02  0.00000000000E+00 0.  1.
</event>
<event>
 7    1  0.6061051E-012  0.5930202E+02  0.7816164E-02  0.1266605E+00
        -11   -1    0    0    0    0  0.00000000000E+00  0.00000000000E+00  0.45593999997E+02  0.45594000000E+02  0.51100000000E-03 0. -1.
         11   -1    0    0    0    0 -0.00000000000E+00 -0.00000000000E+00 -0.45593999997E+02  0.45594000000E+02  0.51100000000E-03 0.  1.
    9900012    2    1    2    0    0 -0.92241429931E+01  0.10477772055E+02 -0.28667880376E+02  0.59302017399E+02  0.50000133811E+02 0.  0.
         12    1    1    2    0    0  0.92241429931E+01 -0.10477772055E+02  0.28667880376E+02  0.31885982601E+02  0.00000000000E+00 0. -1.
         11    1    3    3    0    0 -0.26329632592E+00 -0.46677267231E+01  0.80340608417E+01  0.92953284819E+01  0.51100000000E-03 0. -1.
        -11    1    3    3    0    0 -0.13693083192E+02 -0.16099434117E+01 -0.67243969106E+01  0.15339816139E+02  0.51100000000E-03 0.  1.
        -12    1    3    3    0    0  0.47322365251E+01  0.16755442190E+02 -0.29977544307E+02  0.34666872778E+02  0.00000000000E+00 0.  1.
</event>
<event>
 7    1  0.6061051E-012  0.5930197E+02  0.7816164E-02  0.1266605E+00
        -11   -1    0    0    0    0  0.00000000000E+00  0.00000000000E+00  0.45593999997E+02  0.45594000000E+02  0.51100000000E-03 0. -1.
         11   -1    0    0    0    0 -0.00000000000E+00 -0.00000000000E+00 -0.45593999997E+02  0.45594000000E+02  0.51100000000E-03 0.  1.
    9900012    2    1    2    0    0 -0.11799934494E+02  0.18597779045E+02 -0.23056523474E+02  0.59301966785E+02  0.50000041505E+02 0.  0.
         12    1    1    2    0    0  0.11799934494E+02 -0.18597779045E+02  0.23056523474E+02  0.31886033215E+02  0.00000000000E+00 0. -1.
         11    1    3    3    0    0 -0.71993509653E+01  0.16101328594E+02  0.91790051818E+01  0.19883097676E+02  0.51100000000E-03 0. -1.
        -11    1    3    3    0    0 -0.11303484362E+02  0.16512840682E+00 -0.72139284816E+01  0.13410324027E+02  0.51100000000E-03 0.  1.
        -12    1    3    3    0    0  0.67029008331E+01  0.23313220443E+01 -0.25021600174E+02  0.26008545082E+02  0.00000000000E+00 0.  1.
</event>
<event>
 7    1  0.6061051E-012  0.5930194E+02  0.7816164E-02  0.1266605E+00
        -11   -1    0    0    0    0  0.00000000000E+00  0.00000000000E+00  0.45593999997E+02  0.45594000000E+02  0.51100000000E-03 0.  1.
         11   -1    0    0    0    0 -0.00000000000E+00 -0.00000000000E+00 -0.45593999997E+02  0.45594000000E+02  0.51100000000E-03 0. -1.
    9900012    2    1    2    0    0  0.46442672306E+01  0.10430531252E+01  0.31528770658E+02  0.59301944158E+02  0.50000000238E+02 0.  0.
         12    1    1    2    0    0 -0.46442672306E+01 -0.10430531252E+01 -0.31528770658E+02  0.31886055842E+02  0.00000000000E+00 0. -1.
         11    1    3    3    0    0 -0.13376204441E+02  0.22818551684E+00  0.18450427325E+02  0.22790199267E+02  0.51100000000E-03 0. -1.
        -11    1    3    3    0    0 -0.77217699800E+01 -0.11107548831E+01  0.55712023994E+00  0.78211182869E+01  0.51100000000E-03 0.  1.
         12    1    3    3    0    0  0.25742241652E+02  0.19256224915E+01  0.12521223093E+02  0.28690626605E+02  0.00000000000E+00 0. -1.
</event>
<event>
 7    1  0.6061051E-012  0.5930191E+02  0.7816164E-02  0.1266605E+00
        -11   -1    0    0    0    0  0.00000000000E+00  0.00000000000E+00  0.45593999997E+02  0.45594000000E+02  0.51100000000E-03 0.  1.
         11   -1    0    0    0    0 -0.00000000000E+00 -0.00000000000E+00 -0.45593999997E+02  0.45594000000E+02  0.51100000000E-03 0. -1.
    9900012    2    1    2    0    0  0.22178002433E+02  0.19451955939E+02  0.12102912869E+02  0.59301907708E+02  0.49999933761E+02 0.  0.
         12    1    1    2    0    0 -0.22178002433E+02 -0.19451955939E+02 -0.12102912869E+02  0.31886092292E+02  0.00000000000E+00 0. -1.
         11    1    3    3    0    0  0.68820811634E+01  0.69581435108E+01 -0.38416820052E+00  0.97942017400E+01  0.51100000000E-03 0. -1.
        -11    1    3    3    0    0  0.25049538300E+02 -0.19653205564E+01  0.18342963264E+02  0.31109583017E+02  0.51100000000E-03 0.  1.
         12    1    3    3    0    0 -0.97536170306E+01  0.14459132985E+02 -0.58558821941E+01  0.18398122951E+02  0.00000000000E+00 0. -1.
</event>
<event>
 7    1  0.6061051E-012  0.5930197E+02  0.7816164E-02  0.1266605E+00
        -11   -1    0    0    0    0  0.00000000000E+00  0.00000000000E+00  0.45593999997E+02  0.45594000000E+02  0.51100000000E-03 0.  1.
         11   -1    0    0    0    0 -0.00000000000E+00 -0.00000000000E+00 -0.45593999997E+02  0.45594000000E+02  0.51100000000E-03 0. -1.
    9900012    2    1    2    0    0  0.31274791324E+02 -0.23714282970E+01 -0.57430739549E+01  0.59301966334E+02  0.50000040681E+02 0.  0.
         12    1    1    2    0    0 -0.31274791324E+02  0.23714282970E+01  0.57430739549E+01  0.31886033666E+02  0.00000000000E+00 0. -1.
         11    1    3    3    0    0  0.16250306396E+02  0.11744760235E+02 -0.12307748714E+02  0.23526421947E+02  0.51100000000E-03 0. -1.
        -11    1    3    3    0    0  0.17692502301E+02 -0.25296117339E+01 -0.56355902324E+01  0.18739889293E+02  0.51100000000E-03 0.  1.
         12    1    3    3    0    0 -0.26680173736E+01 -0.11586576798E+02  0.12200264992E+02  0.17035655094E+02  0.00000000000E+00 0. -1.
</event>
<event>
 7    1  0.6061051E-012  0.5930195E+02  0.7816164E-02  0.1266605E+00
        -11   -1    0    0    0    0  0.00000000000E+00  0.00000000000E+00  0.45593999997E+02  0.45594000000E+02  0.51100000000E-03 0. -1.
         11   -1    0    0    0    0 -0.00000000000E+00 -0.00000000000E+00 -0.45593999997E+02  0.45594000000E+02  0.51100000000E-03 0.  1.
    9900012    2    1    2    0    0  0.90695766672E+01  0.15328403610E+02 -0.26448124298E+02  0.59301945728E+02  0.50000003100E+02 0.  0.
         12    1    1    2    0    0 -0.90695766672E+01 -0.15328403610E+02  0.26448124298E+02  0.31886054272E+02  0.00000000000E+00 0. -1.
         11    1    3    3    0    0  0.71318889712E+00  0.18251352644E+02 -0.14569725482E+02  0.23364447620E+02  0.51100000000E-03 0. -1.
        -11    1    3    3    0    0  0.10617047821E+02  0.12400003127E+02  0.15269704368E+00  0.16324983879E+02  0.51100000000E-03 0.  1.
         12    1    3    3    0    0 -0.22606600509E+01 -0.15322952161E+02 -0.12031095860E+02  0.19612514229E+02  0.00000000000E+00 0. -1.
</event>
<event>
 7    1  0.6061051E-012  0.5930199E+02  0.7816164E-02  0.1266605E+00
        -11   -1    0    0    0    0  0.00000000000E+00  0.00000000000E+00  0.45593999997E+02  0.45594000000E+02  0.51100000000E-03 0.  1.
         11   -1    0    0    0    0 -0.00000000000E+00 -0.00000000000E+00 -0.45593999997E+02  0.45594000000E+02  0.51100000000E-03 0. -1.
    9900012    2    1    2    0    0 -0.25332922243E+02  0.91126844947E+00 -0.19342452464E+02  0.59301986971E+02  0.50000078318E+02 0.  0.
         12    1    1    2    0    0  0.25332922243E+02 -0.91126844947E+00  0.19342452464E+02  0.31886013029E+02  0.00000000000E+00 0. -1.
         11    1    3    3    0    0  0.55244084535E+01  0.84284533542E+00 -0.42415237083E+01  0.70156967330E+01  0.51100000000E-03 0. -1.
        -11    1    3    3    0    0 -0.78154214678E+01 -0.17731811107E+02  0.23208689725E+00  0.19379158971E+02  0.51100000000E-03 0.  1.
        -12    1    3    3    0    0 -0.23041909229E+02  0.17800234221E+02 -0.15333015653E+02  0.32907131267E+02  0.00000000000E+00 0.  1.
</event>
<event>
 7    1  0.6061051E-012  0.5930183E+02  0.7816164E-02  0.1266605E+00
        -11   -1    0    0    0    0  0.00000000000E+00  0.00000000000E+00  0.45593999997E+02  0.45594000000E+02  0.51100000000E-03 0.  1.
         11   -1    0    0    0    0 -0.00000000000E+00 -0.00000000000E+00 -0.45593999997E+02  0.45594000000E+02  0.51100000000E-03 0. -1.
    9900012    2    1    2    0    0  0.25052411625E+02  0.88020394095E+00  0.19706078930E+02  0.59301833188E+02  0.49999797854E+02 0.  0.
         12    1    1    2    0    0 -0.25052411625E+02 -0.88020394095E+00 -0.19706078930E+02  0.31886166812E+02  0.00000000000E+00 0. -1.
         11    1    3    3    0    0  0.12171017597E+02  0.64495797407E+01  0.26264067930E+02  0.29656904975E+02  0.51100000000E-03 0.  1.
        -11    1    3    3    0    0 -0.59649719696E+01 -0.61377900495E+01  0.22270745150E+01  0.88438237458E+01  0.51100000000E-03 0. -1.
        -12    1    3    3    0    0  0.18846365998E+02  0.56841424983E+00 -0.87850635159E+01  0.20801104467E+02  0.00000000000E+00 0.  1.
</event>
<event>
 7    1  0.6061051E-012  0.5930190E+02  0.7816164E-02  0.1266605E+00
        -11   -1    0    0    0    0  0.00000000000E+00  0.00000000000E+00  0.45593999997E+02  0.45594000000E+02  0.51100000000E-03 0. -1.
         11   -1    0    0    0    0 -0.00000000000E+00 -0.00000000000E+00 -0.45593999997E+02  0.45594000000E+02  0.51100000000E-03 0.  1.
    9900012    2    1    2    0    0  0.13652788544E+02 -0.23311000574E+02 -0.16938766768E+02  0.59301902678E+02  0.49999924588E+02 0.  0.
         12    1    1    2    0    0 -0.13652788544E+02  0.23311000574E+02  0.16938766768E+02  0.31886097322E+02  0.00000000000E+00 0. -1.
         11    1    3    3    0    0  0.16885669484E+02 -0.17098204209E+02  0.55031399996E+01  0.24652768023E+02  0.51100000000E-03 0. -1.
        -11    1    3    3    0    0 -0.10025695450E+00  0.99031592069E+01 -0.71703939933E+01  0.12226903288E+02  0.51100000000E-03 0.  1.
        -12    1    3    3    0    0 -0.31326239855E+01 -0.16115955572E+02 -0.15271512774E+02  0.22422231367E+02  0.00000000000E+00 0.  1.
</event>
<event>
 7    1  0.6061051E-012  0.5930195E+02  0.7816164E-02  0.1266605E+00
        -11   -1    0    0    0    0  0.00000000000E+00  0.00000000000E+00  0.45593999997E+02  0.45594000000E+02  0.51100000000E-03 0.  1.
         11   -1    0    0    0    0 -0.00000000000E+00 -0.00000000000E+00 -0.45593999997E+02  0.45594000000E+02  0.51100000000E-03 0. -1.
    9900012    2    1    2    0    0  0.35142448902E+01 -0.18296372638E+02  0.25876888000E+02  0.59301945032E+02  0.50000001832E+02 0.  0.
         12    1    1    2    0    0 -0.35142448902E+01  0.18296372638E+02 -0.25876888000E+02  0.31886054968E+02  0.00000000000E+00 0. -1.
         11    1    3    3    0    0  0.18890406181E+02 -0.66103357857E+01  0.61011778839E+00  0.20022892619E+02  0.51100000000E-03 0. -1.
        -11    1    3    3    0    0 -0.96773486121E+00 -0.90022546097E+01 -0.10919037648E+01  0.91197232914E+01  0.51100000000E-03 0.  1.
        -12    1    3    3    0    0 -0.14408426429E+02 -0.26837822420E+01  0.26358673976E+02  0.30159329122E+02  0.00000000000E+00 0.  1.
</event>
<event>
 7    1  0.6061051E-012  0.5930193E+02  0.7816164E-02  0.1266605E+00
        -11   -1    0    0    0    0  0.00000000000E+00  0.00000000000E+00  0.45593999997E+02  0.45594000000E+02  0.51100000000E-03 0.  1.
         11   -1    0    0    0    0 -0.00000000000E+00 -0.00000000000E+00 -0.45593999997E+02  0.45594000000E+02  0.51100000000E-03 0. -1.
    9900012    2    1    2    0    0 -0.28104020417E+02  0.51531442426E+01  0.14153829925E+02  0.59301925285E+02  0.49999965818E+02 0.  0.
         12    1    1    2    0    0  0.28104020417E+02 -0.51531442426E+01 -0.14153829925E+02  0.31886074715E+02  0.00000000000E+00 0. -1.
         11    1    3    3    0    0  0.67835050502E+01 -0.69193134677E+01  0.10348269447E+02  0.14176724602E+02  0.51100000000E-03 0. -1.
        -11    1    3    3    0    0 -0.17059106911E+02  0.91522089919E+01  0.14449254758E+02  0.24156924915E+02  0.51100000000E-03 0.  1.
        -12    1    3    3    0    0 -0.17828418556E+02  0.29202487184E+01 -0.10643694279E+02  0.20968275768E+02  0.00000000000E+00 0.  1.
</event>
<event>
 7    1  0.6061051E-012  0.5930171E+02  0.7816164E-02  0.1266606E+00
        -11   -1    0    0    0    0  0.00000000000E+00  0.00000000000E+00  0.45593999997E+02  0.45594000000E+02  0.51100000000E-03 0. -1.
         11   -1    0    0    0    0 -0.00000000000E+00 -0.00000000000E+00 -0.45593999997E+02  0.45594000000E+02  0.51100000000E-03 0.  1.
    9900012    2    1    2    0    0  0.31016464568E+01 -0.27034864249E+02 -0.16620211726E+02  0.59301709317E+02  0.49999571942E+02 0.  0.
         12    1    1    2    0    0 -0.31016464568E+01  0.27034864249E+02  0.16620211726E+02  0.31886290683E+02  0.00000000000E+00 0. -1.
         11    1    3    3    0    0 -0.21897554759E+01 -0.13215707716E+02 -0.17500759267E+02  0.22039204493E+02  0.51100000000E-03 0. -1.
        -11    1    3    3    0    0  0.78688945027E+01 -0.24723466222E+02  0.18780999017E+01  0.26013391594E+02  0.51100000000E-03 0.  1.
         12    1    3    3    0    0 -0.25774925699E+01  0.10904309690E+02 -0.99755236087E+00  0.11249113230E+02  0.00000000000E+00 0. -1.
</event>
<event>
 7    1  0.6061051E-012  0.5930193E+02  0.7816164E-02  0.1266605E+00
        -11   -1    0    0    0    0  0.00000000000E+00  0.00000000000E+00  0.45593999997E+02  0.45594000000E+02  0.51100000000E-03 0.  1.
         11   -1    0    0    0    0 -0.00000000000E+00 -0.00000000000E+00 -0.45593999997E+02  0.45594000000E+02  0.51100000000E-03 0. -1.
    9900012    2    1    2    0    0 -0.16634041796E+01  0.26985573183E+02  0.16903640955E+02  0.59301934846E+02  0.49999983255E+02 0.  0.
         12    1    1    2    0    0  0.16634041796E+01 -0.26985573183E+02 -0.16903640955E+02  0.31886065154E+02  0.00000000000E+00 0. -1.
         11    1    3    3    0    0 -0.11002014735E+02  0.24196916683E+02 -0.63342758992E+01  0.27325046324E+02  0.51100000000E-03 0. -1.
        -11    1    3    3    0    0  0.76026769720E+01  0.10004398633E+02  0.76462122359E+01  0.14708951389E+02  0.51100000000E-03 0.  1.
         12    1    3    3    0    0  0.17359335830E+01 -0.72157421326E+01  0.15591704618E+02  0.17267937133E+02  0.00000000000E+00 0. -1.
</event>
<event>
 7    1  0.6061051E-012  0.5930195E+02  0.7816164E-02  0.1266605E+00
        -11   -1    0    0    0    0  0.00000000000E+00  0.00000000000E+00  0.45593999997E+02  0.45594000000E+02  0.51100000000E-03 0.  1.
         11   -1    0    0    0    0 -0.00000000000E+00 -0.00000000000E+00 -0.45593999997E+02  0.45594000000E+02  0.51100000000E-03 0. -1.
    9900012    2    1    2    0    0 -0.15884660797E+02 -0.27275188591E+02 -0.45234677760E+01  0.59301950981E+02  0.50000012682E+02 0.  0.
         12    1    1    2    0    0  0.15884660797E+02  0.27275188591E+02  0.45234677760E+01  0.31886049019E+02  0.00000000000E+00 0. -1.
         11    1    3    3    0    0  0.26301117479E+01 -0.15669129589E+02  0.14846527379E+02  0.21745309502E+02  0.51100000000E-03 0. -1.
        -11    1    3    3    0    0 -0.63518116301E+01 -0.13095490316E+02  0.95917960617E-01  0.14554950296E+02  0.51100000000E-03 0.  1.
        -12    1    3    3    0    0 -0.12162960915E+02  0.14894313146E+01 -0.19465913115E+02  0.23001691183E+02  0.00000000000E+00 0.  1.
</event>
<event>
 7    1  0.6061051E-012  0.5930196E+02  0.7816164E-02  0.1266605E+00
        -11   -1    0    0    0    0  0.00000000000E+00  0.00000000000E+00  0.45593999997E+02  0.45594000000E+02  0.51100000000E-03 0.  1.
         11   -1    0    0    0    0 -0.00000000000E+00 -0.00000000000E+00 -0.45593999997E+02  0.45594000000E+02  0.51100000000E-03 0. -1.
    9900012    2    1    2    0    0 -0.22780681282E+02  0.30323460110E+01 -0.22103512959E+02  0.59301955292E+02  0.50000020543E+02 0.  0.
         12    1    1    2    0    0  0.22780681282E+02 -0.30323460110E+01  0.22103512959E+02  0.31886044708E+02  0.00000000000E+00 0. -1.
         11    1    3    3    0    0 -0.13109985078E+02 -0.54373351821E+01 -0.91338914285E+01  0.16877923318E+02  0.51100000000E-03 0. -1.
        -11    1    3    3    0    0 -0.24329333859E+02  0.21770059681E+01 -0.72959053460E+01  0.25492863238E+02  0.51100000000E-03 0.  1.
         12    1    3    3    0    0  0.14658637656E+02  0.62926752250E+01 -0.56737161849E+01  0.16931168736E+02  0.00000000000E+00 0. -1.
</event>
<event>
 7    1  0.6061051E-012  0.5930197E+02  0.7816164E-02  0.1266605E+00
        -11   -1    0    0    0    0  0.00000000000E+00  0.00000000000E+00  0.45593999997E+02  0.45594000000E+02  0.51100000000E-03 0.  1.
         11   -1    0    0    0    0 -0.00000000000E+00 -0.00000000000E+00 -0.45593999997E+02  0.45594000000E+02  0.51100000000E-03 0. -1.
    9900012    2    1    2    0    0 -0.12549522851E+02  0.30469614496E+01  0.29153806400E+02  0.59301969744E+02  0.50000046901E+02 0.  0.
         12    1    1    2    0    0  0.12549522851E+02 -0.30469614496E+01 -0.29153806400E+02  0.31886030256E+02  0.00000000000E+00 0. -1.
         11    1    3    3    0    0  0.47874200194E+01  0.16025663981E+02  0.10045094847E+02  0.19510131400E+02  0.51100000000E-03 0. -1.
        -11    1    3    3    0    0 -0.15650226310E+02  0.39712550048E+01  0.15496229185E+02  0.22379311184E+02  0.51100000000E-03 0.  1.
         12    1    3    3    0    0 -0.16867165606E+01 -0.16949957537E+02  0.36124823674E+01  0.17412527160E+02  0.00000000000E+00 0. -1.
</event>
<event>
 7    1  0.6061051E-012  0.5930194E+02  0.7816164E-02  0.1266605E+00
        -11   -1    0    0    0    0  0.00000000000E+00  0.00000000000E+00  0.45593999997E+02  0.45594000000E+02  0.51100000000E-03 0.  1.
         11   -1    0    0    0    0 -0.00000000000E+00 -0.00000000000E+00 -0.45593999997E+02  0.45594000000E+02  0.51100000000E-03 0. -1.
    9900012    2    1    2    0    0 -0.29001266138E+02  0.15140697450E+01  0.13166424073E+02  0.59301943993E+02  0.49999999937E+02 0.  0.
         12    1    1    2    0    0  0.29001266138E+02 -0.15140697450E+01 -0.13166424073E+02  0.31886056007E+02  0.00000000000E+00 0. -1.
         11    1    3    3    0    0 -0.72500020767E+01  0.73011059556E+01  0.67326873564E+01  0.12296249737E+02  0.51100000000E-03 0.  1.
        -11    1    3    3    0    0 -0.11558875361E+02  0.47558859714E+00  0.23483171966E+02  0.26178104400E+02  0.51100000000E-03 0. -1.
         12    1    3    3    0    0 -0.10192388701E+02 -0.62626248078E+01 -0.17049435250E+02  0.20827589857E+02  0.00000000000E+00 0. -1.
</event>
<event>
 7    1  0.6061051E-012  0.5930195E+02  0.7816164E-02  0.1266605E+00
        -11   -1    0    0    0    0  0.00000000000E+00  0.00000000000E+00  0.45593999997E+02  0.45594000000E+02  0.51100000000E-03 0.  1.
         11   -1    0    0    0    0 -0.00000000000E+00 -0.00000000000E+00 -0.45593999997E+02  0.45594000000E+02  0.51100000000E-03 0. -1.
    9900012    2    1    2    0    0 -0.72453000570E+01 -0.30468187695E+02  0.59929280059E+01  0.59301952575E+02  0.50000015588E+02 0.  0.
         12    1    1    2    0    0  0.72453000570E+01  0.30468187695E+02 -0.59929280059E+01  0.31886047425E+02  0.00000000000E+00 0. -1.
         11    1    3    3    0    0 -0.60607569318E+01 -0.24320987333E+02  0.33277172089E+01  0.25284716757E+02  0.51100000000E-03 0.  1.
        -11    1    3    3    0    0 -0.14195527641E+02  0.16012532991E+01 -0.71461119910E+01  0.15973225535E+02  0.51100000000E-03 0. -1.
        -12    1    3    3    0    0  0.13010984516E+02 -0.77484536614E+01  0.98113227881E+01  0.18044010282E+02  0.00000000000E+00 0.  1.
</event>
<event>
 7    1  0.6061051E-012  0.5930195E+02  0.7816164E-02  0.1266605E+00
        -11   -1    0    0    0    0  0.00000000000E+00  0.00000000000E+00  0.45593999997E+02  0.45594000000E+02  0.51100000000E-03 0. -1.
         11   -1    0    0    0    0 -0.00000000000E+00 -0.00000000000E+00 -0.45593999997E+02  0.45594000000E+02  0.51100000000E-03 0.  1.
    9900012    2    1    2    0    0  0.21314674383E+02 -0.60361546687E+01 -0.22934022345E+02  0.59301954648E+02  0.50000019369E+02 0.  0.
         12    1    1    2    0    0 -0.21314674383E+02  0.60361546687E+01  0.22934022345E+02  0.31886045352E+02  0.00000000000E+00 0. -1.
         11    1    3    3    0    0  0.12072304250E+02  0.15214693589E+01  0.30552228006E+01  0.12545508580E+02  0.51100000000E-03 0. -1.
        -11    1    3    3    0    0 -0.49238820666E+01 -0.32214820361E+01  0.78533655578E+01  0.98131499510E+01  0.51100000000E-03 0.  1.
        -12    1    3    3    0    0  0.14166252200E+02 -0.43361419915E+01 -0.33842610704E+02  0.36943296117E+02  0.00000000000E+00 0.  1.
</event>
<event>
 7    1  0.6061051E-012  0.5930196E+02  0.7816164E-02  0.1266605E+00
        -11   -1    0    0    0    0  0.00000000000E+00  0.00000000000E+00  0.45593999997E+02  0.45594000000E+02  0.51100000000E-03 0. -1.
         11   -1    0    0    0    0 -0.00000000000E+00 -0.00000000000E+00 -0.45593999997E+02  0.45594000000E+02  0.51100000000E-03 0.  1.
    9900012    2    1    2    0    0 -0.23718550705E+02 -0.21184381031E+02  0.23176744608E+01  0.59301964465E+02  0.50000037273E+02 0.  0.
         12    1    1    2    0    0  0.23718550705E+02  0.21184381031E+02 -0.23176744608E+01  0.31886035535E+02  0.00000000000E+00 0. -1.
         11    1    3    3    0    0  0.33243802123E+01  0.91800769556E+01  0.18402147001E+01  0.99353765459E+01  0.51100000000E-03 0. -1.
        -11    1    3    3    0    0 -0.55430257569E+01 -0.17266995268E+02 -0.11514082695E+02  0.21481349136E+02  0.51100000000E-03 0.  1.
        -12    1    3    3    0    0 -0.21499905160E+02 -0.13097462719E+02  0.11991542456E+02  0.27885238784E+02  0.00000000000E+00 0.  1.
</event>
<event>
 7    1  0.6061051E-012  0.5930195E+02  0.7816164E-02  0.1266605E+00
        -11   -1    0    0    0    0  0.00000000000E+00  0.00000000000E+00  0.45593999997E+02  0.45594000000E+02  0.51100000000E-03 0.  1.
         11   -1    0    0    0    0 -0.00000000000E+00 -0.00000000000E+00 -0.45593999997E+02  0.45594000000E+02  0.51100000000E-03 0. -1.
    9900012    2    1    2    0    0 -0.23337065562E+02 -0.21526808317E+02  0.29492345891E+01  0.59301951483E+02  0.50000013597E+02 0.  0.
         12    1    1    2    0    0  0.23337065562E+02  0.21526808317E+02 -0.29492345891E+01  0.31886048517E+02  0.00000000000E+00 0. -1.
         11    1    3    3    0    0 -0.13789200826E+02 -0.22357280161E+02  0.78420803254E+01  0.27413286190E+02  0.51100000000E-03 0. -1.
        -11    1    3    3    0    0 -0.40514637418E+01  0.43085346707E+01  0.12222960990E+02  0.13578608363E+02  0.51100000000E-03 0.  1.
         12    1    3    3    0    0 -0.54964009937E+01 -0.34780628264E+01 -0.17115806726E+02  0.18310056930E+02  0.00000000000E+00 0. -1.
</event>
<event>
 7    1  0.6061051E-012  0.5930193E+02  0.7816164E-02  0.1266605E+00
        -11   -1    0    0    0    0  0.00000000000E+00  0.00000000000E+00  0.45593999997E+02  0.45594000000E+02  0.51100000000E-03 0. -1.
         11   -1    0    0    0    0 -0.00000000000E+00 -0.00000000000E+00 -0.45593999997E+02  0.45594000000E+02  0.51100000000E-03 0.  1.
    9900012    2    1    2    0    0 -0.85656910032E+01  0.22921287206E+02 -0.20444185276E+02  0.59301934373E+02  0.49999982393E+02 0.  0.
         12    1    1    2    0    0  0.85656910032E+01 -0.22921287206E+02  0.20444185276E+02  0.31886065627E+02  0.00000000000E+00 0. -1.
         11    1    3    3    0    0  0.99253083186E+01 -0.23727668342E+01 -0.10534331360E+02  0.14666761917E+02  0.51100000000E-03 0. -1.
        -11    1    3    3    0    0 -0.89706368958E+01  0.13903036040E+02 -0.20540584253E+02  0.26375790778E+02  0.51100000000E-03 0.  1.
        -12    1    3    3    0    0 -0.95203624260E+01  0.11391018000E+02  0.10630730336E+02  0.18259381678E+02  0.00000000000E+00 0.  1.
</event>
<event>
 7    1  0.6061051E-012  0.5930194E+02  0.7816164E-02  0.1266605E+00
        -11   -1    0    0    0    0  0.00000000000E+00  0.00000000000E+00  0.45593999997E+02  0.45594000000E+02  0.51100000000E-03 0.  1.
         11   -1    0    0    0    0 -0.00000000000E+00 -0.00000000000E+00 -0.45593999997E+02  0.45594000000E+02  0.51100000000E-03 0. -1.
    9900012    2    1    2    0    0 -0.77702413573E+01  0.64962710521E+00  0.30917993872E+02  0.59301937038E+02  0.49999987252E+02 0.  0.
         12    1    1    2    0    0  0.77702413573E+01 -0.64962710521E+00 -0.30917993872E+02  0.31886062962E+02  0.00000000000E+00 0. -1.
         11    1    3    3    0    0  0.58951081103E+01 -0.20884346813E+00  0.23568000410E+02  0.24294990406E+02  0.51100000000E-03 0. -1.
        -11    1    3    3    0    0 -0.36409482575E+01 -0.57672286049E+01  0.17812868433E+02  0.19073953760E+02  0.51100000000E-03 0.  1.
         12    1    3    3    0    0 -0.10024401210E+02  0.66256991782E+01 -0.10462874970E+02  0.15932992872E+02  0.00000000000E+00 0. -1.
</event>
<event>
 7    1  0.6061051E-012  0.5930196E+02  0.7816164E-02  0.1266605E+00
        -11   -1    0    0    0    0  0.00000000000E+00  0.00000000000E+00  0.45593999997E+02  0.45594000000E+02  0.51100000000E-03 0. -1.
         11   -1    0    0    0    0 -0.00000000000E+00 -0.00000000000E+00 -0.45593999997E+02  0.45594000000E+02  0.51100000000E-03 0.  1.
    9900012    2    1    2    0    0  0.21233347026E+02 -0.23733208126E+02  0.16122299461E+01  0.59301961061E+02  0.50000031064E+02 0.  0.
         12    1    1    2    0    0 -0.21233347026E+02  0.23733208126E+02 -0.16122299461E+01  0.31886038939E+02  0.00000000000E+00 0. -1.
         11    1    3    3    0    0 -0.17801745885E+01  0.25663062064E+01  0.14945703409E+02  0.15268562466E+02  0.51100000000E-03 0. -1.
        -11    1    3    3    0    0  0.53868060251E+01 -0.18169476478E+02  0.23256235771E+01  0.19093351720E+02  0.51100000000E-03 0.  1.
        -12    1    3    3    0    0  0.17626715589E+02 -0.81300378539E+01 -0.15659097040E+02  0.24940046874E+02  0.00000000000E+00 0.  1.
</event>
<event>
 7    1  0.6061051E-012  0.5930194E+02  0.7816164E-02  0.1266605E+00
        -11   -1    0    0    0    0  0.00000000000E+00  0.00000000000E+00  0.45593999997E+02  0.45594000000E+02  0.51100000000E-03 0.  1.
         11   -1    0    0    0    0 -0.00000000000E+00 -0.00000000000E+00 -0.45593999997E+02  0.45594000000E+02  0.51100000000E-03 0. -1.
    9900012    2    1    2    0    0  0.11481621683E+02  0.26067918761E+02  0.14330280862E+02  0.59301937613E+02  0.49999988301E+02 0.  0.
         12    1    1    2    0    0 -0.11481621683E+02 -0.26067918761E+02 -0.14330280862E+02  0.31886062387E+02  0.00000000000E+00 0. -1.
         11    1    3    3    0    0 -0.10151569593E+02 -0.43996318534E+01  0.32100494812E+01  0.11520223243E+02  0.51100000000E-03 0. -1.
        -11    1    3    3    0    0  0.97317668859E+01 -0.12612986953E+01 -0.40973239368E+01  0.10634200714E+02  0.51100000000E-03 0.  1.
        -12    1    3    3    0    0  0.11901424390E+02  0.31728849309E+02  0.15217555317E+02  0.37147513656E+02  0.00000000000E+00 0.  1.
</event>
<event>
 7    1  0.6061051E-012  0.5930195E+02  0.7816164E-02  0.1266605E+00
        -11   -1    0    0    0    0  0.00000000000E+00  0.00000000000E+00  0.45593999997E+02  0.45594000000E+02  0.51100000000E-03 0.  1.
         11   -1    0    0    0    0 -0.00000000000E+00 -0.00000000000E+00 -0.45593999997E+02  0.45594000000E+02  0.51100000000E-03 0. -1.
    9900012    2    1    2    0    0  0.31079692985E+02 -0.21615774014E+01  0.67897216423E+01  0.59301952065E+02  0.50000014658E+02 0.  0.
         12    1    1    2    0    0 -0.31079692985E+02  0.21615774014E+01 -0.67897216423E+01  0.31886047935E+02  0.00000000000E+00 0. -1.
         11    1    3    3    0    0 -0.96536995352E+01  0.27914539003E+00 -0.77283932443E+01  0.12369312805E+02  0.51100000000E-03 0. -1.
        -11    1    3    3    0    0 -0.51836983328E+00  0.15145097446E+01  0.38069766725E+01  0.41298327687E+01  0.51100000000E-03 0.  1.
        -12    1    3    3    0    0  0.41251762354E+02 -0.39552325360E+01  0.10711138214E+02  0.42802806492E+02  0.00000000000E+00 0.  1.
</event>
<event>
 7    1  0.6061051E-012  0.5930192E+02  0.7816164E-02  0.1266605E+00
        -11   -1    0    0    0    0  0.00000000000E+00  0.00000000000E+00  0.45593999997E+02  0.45594000000E+02  0.51100000000E-03 0. -1.
         11   -1    0    0    0    0 -0.00000000000E+00 -0.00000000000E+00 -0.45593999997E+02  0.45594000000E+02  0.51100000000E-03 0.  1.
    9900012    2    1    2    0    0  0.79335863205E+01  0.30613358003E+02  0.40746133312E+01  0.59301922255E+02  0.49999960292E+02 0.  0.
         12    1    1    2    0    0 -0.79335863205E+01 -0.30613358003E+02 -0.40746133312E+01  0.31886077745E+02  0.00000000000E+00 0. -1.
         11    1    3    3    0    0  0.47275839446E+01  0.66031283570E+01 -0.36702092845E+01  0.89118904002E+01  0.51100000000E-03 0. -1.
        -11    1    3    3    0    0  0.19846931597E+02  0.11020122027E+01 -0.30055483022E+01  0.20103443624E+02  0.51100000000E-03 0.  1.
         12    1    3    3    0    0 -0.16640929221E+02  0.22908217444E+02  0.10750370918E+02  0.30286588231E+02  0.00000000000E+00 0. -1.
</event>
<event>
 7    1  0.6061051E-012  0.5930194E+02  0.7816164E-02  0.1266605E+00
        -11   -1    0    0    0    0  0.00000000000E+00  0.00000000000E+00  0.45593999997E+02  0.45594000000E+02  0.51100000000E-03 0.  1.
         11   -1    0    0    0    0 -0.00000000000E+00 -0.00000000000E+00 -0.45593999997E+02  0.45594000000E+02  0.51100000000E-03 0. -1.
    9900012    2    1    2    0    0  0.16986369310E+02 -0.17104000823E+01  0.26930623324E+02  0.59301942179E+02  0.49999996628E+02 0.  0.
         12    1    1    2    0    0 -0.16986369310E+02  0.17104000823E+01 -0.26930623324E+02  0.31886057821E+02  0.00000000000E+00 0. -1.
         11    1    3    3    0    0  0.24650445241E+01 -0.75268376422E+01  0.17458394092E+02  0.19170948175E+02  0.51100000000E-03 0. -1.
        -11    1    3    3    0    0  0.62824428566E+01 -0.15019693885E+02  0.15022942717E+01  0.16349837339E+02  0.51100000000E-03 0.  1.
         12    1    3    3    0    0  0.82388819294E+01  0.20836131445E+02  0.79699349594E+01  0.23781156665E+02  0.00000000000E+00 0. -1.
</event>
<event>
 7    1  0.6061051E-012  0.5930184E+02  0.7816164E-02  0.1266605E+00
        -11   -1    0    0    0    0  0.00000000000E+00  0.00000000000E+00  0.45593999997E+02  0.45594000000E+02  0.51100000000E-03 0.  1.
         11   -1    0    0    0    0 -0.00000000000E+00 -0.00000000000E+00 -0.45593999997E+02  0.45594000000E+02  0.51100000000E-03 0. -1.
    9900012    2    1    2    0    0 -0.99688300425E+01 -0.18488679741E+01  0.30231301014E+02  0.59301836132E+02  0.49999803225E+02 0.  0.
         12    1    1    2    0    0  0.99688300425E+01  0.18488679741E+01 -0.30231301014E+02  0.31886163868E+02  0.00000000000E+00 0. -1.
         11    1    3    3    0    0 -0.14239790043E+02 -0.71702990557E+01 -0.99368062034E+00  0.15974110631E+02  0.51100000000E-03 0. -1.
        -11    1    3    3    0    0  0.66164711656E+01  0.33287510567E+01 -0.36916886747E+01  0.82756776046E+01  0.51100000000E-03 0.  1.
        -12    1    3    3    0    0 -0.23455111650E+01  0.19926800248E+01  0.34916670309E+02  0.35052047897E+02  0.00000000000E+00 0.  1.
</event>
<event>
 7    1  0.6061051E-012  0.5930191E+02  0.7816164E-02  0.1266605E+00
        -11   -1    0    0    0    0  0.00000000000E+00  0.00000000000E+00  0.45593999997E+02  0.45594000000E+02  0.51100000000E-03 0.  1.
         11   -1    0    0    0    0 -0.00000000000E+00 -0.00000000000E+00 -0.45593999997E+02  0.45594000000E+02  0.51100000000E-03 0. -1.
    9900012    2    1    2    0    0  0.13764028686E+02  0.11170719078E+02  0.26504510196E+02  0.59301913518E+02  0.49999944357E+02 0.  0.
         12    1    1    2    0    0 -0.13764028686E+02 -0.11170719078E+02 -0.26504510196E+02  0.31886086482E+02  0.00000000000E+00 0. -1.
         11    1    3    3    0    0  0.14720132092E+02  0.97813036644E+01  0.19524878784E+01  0.17781124806E+02  0.51100000000E-03 0. -1.
        -11    1    3    3    0    0  0.51368197410E+01 -0.12713626328E+02  0.14660970380E+01  0.13790310085E+02  0.51100000000E-03 0.  1.
        -12    1    3    3    0    0 -0.60929231471E+01  0.14103041742E+02  0.23085925280E+02  0.27730478627E+02  0.00000000000E+00 0.  1.
</event>
<event>
 7    1  0.6061051E-012  0.5930198E+02  0.7816164E-02  0.1266605E+00
        -11   -1    0    0    0    0  0.00000000000E+00  0.00000000000E+00  0.45593999997E+02  0.45594000000E+02  0.51100000000E-03 0. -1.
         11   -1    0    0    0    0 -0.00000000000E+00 -0.00000000000E+00 -0.45593999997E+02  0.45594000000E+02  0.51100000000E-03 0.  1.
    9900012    2    1    2    0    0 -0.16715857840E+02 -0.16359455070E+02 -0.21671799729E+02  0.59301975208E+02  0.50000056866E+02 0.  0.
         12    1    1    2    0    0  0.16715857840E+02  0.16359455070E+02  0.21671799729E+02  0.31886024792E+02  0.00000000000E+00 0. -1.
         11    1    3    3    0    0 -0.62605235734E+01 -0.17054351299E+01 -0.11177125079E+02  0.12924039218E+02  0.51100000000E-03 0. -1.
        -11    1    3    3    0    0 -0.91625447456E+01 -0.20983609227E+02 -0.22905032346E+02  0.32386796529E+02  0.51100000000E-03 0.  1.
         12    1    3    3    0    0 -0.12927895207E+01  0.63295892868E+01  0.12410357696E+02  0.13991139461E+02  0.00000000000E+00 0. -1.
</event>
<event>
 7    1  0.6061051E-012  0.5930195E+02  0.7816164E-02  0.1266605E+00
        -11   -1    0    0    0    0  0.00000000000E+00  0.00000000000E+00  0.45593999997E+02  0.45594000000E+02  0.51100000000E-03 0.  1.
         11   -1    0    0    0    0 -0.00000000000E+00 -0.00000000000E+00 -0.45593999997E+02  0.45594000000E+02  0.51100000000E-03 0. -1.
    9900012    2    1    2    0    0 -0.22007266996E+02  0.16737043357E+01  0.23013014714E+02  0.59301953944E+02  0.50000018084E+02 0.  0.
         12    1    1    2    0    0  0.22007266996E+02 -0.16737043357E+01 -0.23013014714E+02  0.31886046056E+02  0.00000000000E+00 0. -1.
         11    1    3    3    0    0 -0.15398792193E+01 -0.65519254628E+01  0.85667377817E+01  0.10894400018E+02  0.51100000000E-03 0. -1.
        -11    1    3    3    0    0 -0.22835516883E+02  0.12273018513E+02  0.25522399754E+02  0.36379674328E+02  0.51100000000E-03 0.  1.
         12    1    3    3    0    0  0.23681291056E+01 -0.40473887143E+01 -0.11076122821E+02  0.12027879598E+02  0.00000000000E+00 0. -1.
</event>
<event>
 7    1  0.6061051E-012  0.5930230E+02  0.7816164E-02  0.1266604E+00
        -11   -1    0    0    0    0  0.00000000000E+00  0.00000000000E+00  0.45593999997E+02  0.45594000000E+02  0.51100000000E-03 0. -1.
         11   -1    0    0    0    0 -0.00000000000E+00 -0.00000000000E+00 -0.45593999997E+02  0.45594000000E+02  0.51100000000E-03 0.  1.
    9900012    2    1    2    0    0  0.14548560173E+02  0.49964196448E+01 -0.27929793275E+02  0.59302295291E+02  0.50000640616E+02 0.  0.
         12    1    1    2    0    0 -0.14548560173E+02 -0.49964196448E+01  0.27929793275E+02  0.31885704709E+02  0.00000000000E+00 0. -1.
         11    1    3    3    0    0  0.13076141420E+02  0.18392887092E+02 -0.25471733186E+02  0.34030764931E+02  0.51100000000E-03 0. -1.
        -11    1    3    3    0    0 -0.65032438527E+01 -0.41546019186E-01 -0.65051792504E+01  0.91984381294E+01  0.51100000000E-03 0.  1.
        -12    1    3    3    0    0  0.79756626060E+01 -0.13354921428E+02  0.40471191607E+01  0.16073092231E+02  0.00000000000E+00 0.  1.
</event>
<event>
 7    1  0.6061051E-012  0.5930196E+02  0.7816164E-02  0.1266605E+00
        -11   -1    0    0    0    0  0.00000000000E+00  0.00000000000E+00  0.45593999997E+02  0.45594000000E+02  0.51100000000E-03 0.  1.
         11   -1    0    0    0    0 -0.00000000000E+00 -0.00000000000E+00 -0.45593999997E+02  0.45594000000E+02  0.51100000000E-03 0. -1.
    9900012    2    1    2    0    0 -0.12465395502E+02 -0.21344855976E+02  0.20142757061E+02  0.59301958796E+02  0.50000026934E+02 0.  0.
         12    1    1    2    0    0  0.12465395502E+02  0.21344855976E+02 -0.20142757061E+02  0.31886041204E+02  0.00000000000E+00 0. -1.
         11    1    3    3    0    0 -0.49153673038E+01 -0.19074974080E+01 -0.11636827371E+02  0.12775567840E+02  0.51100000000E-03 0.  1.
        -11    1    3    3    0    0 -0.78956873171E+01  0.49026249720E+01  0.59583408014E+01  0.11039901956E+02  0.51100000000E-03 0. -1.
         12    1    3    3    0    0  0.34565911867E+00 -0.24339983540E+02  0.25821243631E+02  0.35486489001E+02  0.00000000000E+00 0. -1.
</event>
<event>
 7    1  0.6061051E-012  0.5930193E+02  0.7816164E-02  0.1266605E+00
        -11   -1    0    0    0    0  0.00000000000E+00  0.00000000000E+00  0.45593999997E+02  0.45594000000E+02  0.51100000000E-03 0.  1.
         11   -1    0    0    0    0 -0.00000000000E+00 -0.00000000000E+00 -0.45593999997E+02  0.45594000000E+02  0.51100000000E-03 0. -1.
    9900012    2    1    2    0    0 -0.19455286054E+01 -0.31066977818E+02  0.69122318334E+01  0.59301935000E+02  0.49999983535E+02 0.  0.
         12    1    1    2    0    0  0.19455286054E+01  0.31066977818E+02 -0.69122318334E+01  0.31886065000E+02  0.00000000000E+00 0. -1.
         11    1    3    3    0    0  0.41605039119E+01 -0.12640167571E+02  0.19104416740E+02  0.23282232888E+02  0.51100000000E-03 0. -1.
        -11    1    3    3    0    0 -0.69371980207E+01  0.32106160498E+01  0.43276698921E+01  0.87841618128E+01  0.51100000000E-03 0.  1.
         12    1    3    3    0    0  0.83116550343E+00 -0.21637426297E+02 -0.16519854798E+02  0.27235540299E+02  0.00000000000E+00 0. -1.
</event>
<event>
 7    1  0.6061051E-012  0.5930210E+02  0.7816164E-02  0.1266604E+00
        -11   -1    0    0    0    0  0.00000000000E+00  0.00000000000E+00  0.45593999997E+02  0.45594000000E+02  0.51100000000E-03 0.  1.
         11   -1    0    0    0    0 -0.00000000000E+00 -0.00000000000E+00 -0.45593999997E+02  0.45594000000E+02  0.51100000000E-03 0. -1.
    9900012    2    1    2    0    0 -0.32823259436E+01  0.82422147182E+01  0.30626831755E+02  0.59302100445E+02  0.50000285267E+02 0.  0.
         12    1    1    2    0    0  0.32823259436E+01 -0.82422147182E+01 -0.30626831755E+02  0.31885899555E+02  0.00000000000E+00 0. -1.
         11    1    3    3    0    0 -0.15889587258E+02  0.99111131538E+01  0.16476315883E+02  0.24943498803E+02  0.51100000000E-03 0. -1.
        -11    1    3    3    0    0 -0.11645475306E+01  0.91512371885E+01 -0.31427705153E+01  0.97456821108E+01  0.51100000000E-03 0.  1.
        -12    1    3    3    0    0  0.13771808845E+02 -0.10820135624E+02  0.17293286388E+02  0.24612919532E+02  0.00000000000E+00 0.  1.
</event>
<event>
 7    1  0.6061051E-012  0.5930194E+02  0.7816164E-02  0.1266605E+00
        -11   -1    0    0    0    0  0.00000000000E+00  0.00000000000E+00  0.45593999997E+02  0.45594000000E+02  0.51100000000E-03 0. -1.
         11   -1    0    0    0    0 -0.00000000000E+00 -0.00000000000E+00 -0.45593999997E+02  0.45594000000E+02  0.51100000000E-03 0.  1.
    9900012    2    1    2    0    0  0.26583958475E+02  0.17436298211E+02  0.24473288458E+01  0.59301940946E+02  0.49999994380E+02 0.  0.
         12    1    1    2    0    0 -0.26583958475E+02 -0.17436298211E+02 -0.24473288458E+01  0.31886059054E+02  0.00000000000E+00 0. -1.
         11    1    3    3    0    0  0.12544513810E+01  0.19650287701E+02 -0.81641305144E+01  0.21315733211E+02  0.51100000000E-03 0. -1.
        -11    1    3    3    0    0  0.37320065275E+01 -0.28200156155E+00  0.15342462353E+02  0.15792357294E+02  0.51100000000E-03 0.  1.
        -12    1    3    3    0    0  0.21597500567E+02 -0.19319879287E+01 -0.47310029928E+01  0.22193850441E+02  0.00000000000E+00 0.  1.
</event>
<event>
 7    1  0.6061051E-012  0.5930193E+02  0.7816164E-02  0.1266605E+00
        -11   -1    0    0    0    0  0.00000000000E+00  0.00000000000E+00  0.45593999997E+02  0.45594000000E+02  0.51100000000E-03 0.  1.
         11   -1    0    0    0    0 -0.00000000000E+00 -0.00000000000E+00 -0.45593999997E+02  0.45594000000E+02  0.51100000000E-03 0. -1.
    9900012    2    1    2    0    0  0.18304684524E+02  0.18779445081E+02  0.18138147632E+02  0.59301930430E+02  0.49999975202E+02 0.  0.
         12    1    1    2    0    0 -0.18304684524E+02 -0.18779445081E+02 -0.18138147632E+02  0.31886069570E+02  0.00000000000E+00 0. -1.
         11    1    3    3    0    0  0.81978389423E+01 -0.36318456233E+01  0.24941500948E+01  0.93067529736E+01  0.51100000000E-03 0. -1.
        -11    1    3    3    0    0  0.76475183073E+01  0.41901679508E+01 -0.13181587705E+02  0.15804945378E+02  0.51100000000E-03 0.  1.
        -12    1    3    3    0    0  0.24593272741E+01  0.18221122754E+02  0.28825585242E+02  0.34190232079E+02  0.00000000000E+00 0.  1.
</event>
<event>
 7    1  0.6061051E-012  0.5930194E+02  0.7816164E-02  0.1266605E+00
        -11   -1    0    0    0    0  0.00000000000E+00  0.00000000000E+00  0.45593999997E+02  0.45594000000E+02  0.51100000000E-03 0.  1.
         11   -1    0    0    0    0 -0.00000000000E+00 -0.00000000000E+00 -0.45593999997E+02  0.45594000000E+02  0.51100000000E-03 0. -1.
    9900012    2    1    2    0    0 -0.31719854102E+02 -0.30421008636E+01 -0.11477273497E+01  0.59301940350E+02  0.49999993294E+02 0.  0.
         12    1    1    2    0    0  0.31719854102E+02  0.30421008636E+01  0.11477273497E+01  0.31886059650E+02  0.00000000000E+00 0. -1.
         11    1    3    3    0    0 -0.14993352870E+01  0.41779682663E+00 -0.56464242947E+01  0.58570187013E+01  0.51100000000E-03 0. -1.
        -11    1    3    3    0    0  0.77277267841E+01 -0.89251032823E+01  0.89955421824E+01  0.14842338403E+02  0.51100000000E-03 0.  1.
         12    1    3    3    0    0 -0.37948245599E+02  0.54652055921E+01 -0.44968452374E+01  0.38602583246E+02  0.00000000000E+00 0. -1.
</event>
<event>
 7    1  0.6061051E-012  0.5930194E+02  0.7816164E-02  0.1266605E+00
        -11   -1    0    0    0    0  0.00000000000E+00  0.00000000000E+00  0.45593999997E+02  0.45594000000E+02  0.51100000000E-03 0.  1.
         11   -1    0    0    0    0 -0.00000000000E+00 -0.00000000000E+00 -0.45593999997E+02  0.45594000000E+02  0.51100000000E-03 0. -1.
    9900012    2    1    2    0    0  0.25851462368E+02  0.92450471682E+01  0.16215785329E+02  0.59301941956E+02  0.49999996223E+02 0.  0.
         12    1    1    2    0    0 -0.25851462368E+02 -0.92450471682E+01 -0.16215785329E+02  0.31886058044E+02  0.00000000000E+00 0. -1.
         11    1    3    3    0    0 -0.30445407200E+01  0.52545823291E+01 -0.31912796606E+01  0.68603301511E+01  0.51100000000E-03 0. -1.
        -11    1    3    3    0    0  0.12600534364E+00 -0.12533215741E+02 -0.23694229643E+01  0.12755843352E+02  0.51100000000E-03 0.  1.
        -12    1    3    3    0    0  0.28769997745E+02  0.16523680581E+02  0.21776487954E+02  0.39685768454E+02  0.00000000000E+00 0.  1.
</event>
<event>
 7    1  0.6061051E-012  0.5930195E+02  0.7816164E-02  0.1266605E+00
        -11   -1    0    0    0    0  0.00000000000E+00  0.00000000000E+00  0.45593999997E+02  0.45594000000E+02  0.51100000000E-03 0.  1.
         11   -1    0    0    0    0 -0.00000000000E+00 -0.00000000000E+00 -0.45593999997E+02  0.45594000000E+02  0.51100000000E-03 0. -1.
    9900012    2    1    2    0    0 -0.22805469660E+02  0.13015443204E+02  0.18089471671E+02  0.59301949859E+02  0.50000010636E+02 0.  0.
         12    1    1    2    0    0  0.22805469660E+02 -0.13015443204E+02 -0.18089471671E+02  0.31886050141E+02  0.00000000000E+00 0. -1.
         11    1    3    3    0    0 -0.17611952791E+02  0.24747765626E+02  0.20570961158E+02  0.36685109075E+02  0.51100000000E-03 0. -1.
        -11    1    3    3    0    0 -0.12000564162E+02 -0.53173634586E+01 -0.13455292931E+01  0.13194633140E+02  0.51100000000E-03 0.  1.
        -12    1    3    3    0    0  0.68070472922E+01 -0.64149589635E+01 -0.11359601940E+01  0.94222076450E+01  0.00000000000E+00 0.  1.
</event>
<event>
 7    1  0.6061051E-012  0.5930193E+02  0.7816164E-02  0.1266605E+00
        -11   -1    0    0    0    0  0.00000000000E+00  0.00000000000E+00  0.45593999997E+02  0.45594000000E+02  0.51100000000E-03 0.  1.
         11   -1    0    0    0    0 -0.00000000000E+00 -0.00000000000E+00 -0.45593999997E+02  0.45594000000E+02  0.51100000000E-03 0. -1.
    9900012    2    1    2    0    0 -0.76873089573E+01 -0.11317069200E+02  0.28801922705E+02  0.59301928969E+02  0.49999972537E+02 0.  0.
         12    1    1    2    0    0  0.76873089573E+01  0.11317069200E+02 -0.28801922705E+02  0.31886071031E+02  0.00000000000E+00 0. -1.
         11    1    3    3    0    0 -0.71324296459E+01  0.27340499659E+01  0.30456993708E+01  0.82233123976E+01  0.51100000000E-03 0. -1.
        -11    1    3    3    0    0 -0.42647162751E+00  0.17238418917E+01 -0.10967274959E+02  0.11110113825E+02  0.51100000000E-03 0.  1.
        -12    1    3    3    0    0 -0.12840768395E+00 -0.15774961058E+02  0.36723498293E+02  0.39968502747E+02  0.00000000000E+00 0.  1.
</event>
<event>
 7    1  0.6061051E-012  0.5930194E+02  0.7816164E-02  0.1266605E+00
        -11   -1    0    0    0    0  0.00000000000E+00  0.00000000000E+00  0.45593999997E+02  0.45594000000E+02  0.51100000000E-03 0.  1.
         11   -1    0    0    0    0 -0.00000000000E+00 -0.00000000000E+00 -0.45593999997E+02  0.45594000000E+02  0.51100000000E-03 0. -1.
    9900012    2    1    2    0    0  0.14196290297E+02 -0.13434652706E+02  0.25193173200E+02  0.59301944624E+02  0.50000001088E+02 0.  0.
         12    1    1    2    0    0 -0.14196290297E+02  0.13434652706E+02 -0.25193173200E+02  0.31886055376E+02  0.00000000000E+00 0. -1.
         11    1    3    3    0    0 -0.56994895616E+01  0.26099565235E+01  0.36160036599E+01  0.72368181577E+01  0.51100000000E-03 0. -1.
        -11    1    3    3    0    0 -0.27410886658E+01  0.26078409558E+01  0.22404668127E+02  0.22721873947E+02  0.51100000000E-03 0.  1.
         12    1    3    3    0    0  0.22636868524E+02 -0.18652450186E+02 -0.82749858652E+00  0.29343252520E+02  0.00000000000E+00 0. -1.
</event>
<event>
 7    1  0.6061051E-012  0.5930194E+02  0.7816164E-02  0.1266605E+00
        -11   -1    0    0    0    0  0.00000000000E+00  0.00000000000E+00  0.45593999997E+02  0.45594000000E+02  0.51100000000E-03 0.  1.
         11   -1    0    0    0    0 -0.00000000000E+00 -0.00000000000E+00 -0.45593999997E+02  0.45594000000E+02  0.51100000000E-03 0. -1.
    9900012    2    1    2    0    0  0.17889155954E+02 -0.20105482375E+02  0.17101703973E+02  0.59301943470E+02  0.49999998982E+02 0.  0.
         12    1    1    2    0    0 -0.17889155954E+02  0.20105482375E+02 -0.17101703973E+02  0.31886056530E+02  0.00000000000E+00 0. -1.
         11    1    3    3    0    0  0.71624083281E+01 -0.18858424750E+02 -0.79236335733E+01  0.21673122672E+02  0.51100000000E-03 0. -1.
        -11    1    3    3    0    0  0.10534951517E+02  0.75155934382E+01  0.21325266781E+01  0.13115525856E+02  0.51100000000E-03 0.  1.
        -12    1    3    3    0    0  0.19179610858E+00 -0.87626510633E+01  0.22892810868E+02  0.24513294941E+02  0.00000000000E+00 0.  1.
</event>
<event>
 7    1  0.6061051E-012  0.5930194E+02  0.7816164E-02  0.1266605E+00
        -11   -1    0    0    0    0  0.00000000000E+00  0.00000000000E+00  0.45593999997E+02  0.45594000000E+02  0.51100000000E-03 0. -1.
         11   -1    0    0    0    0 -0.00000000000E+00 -0.00000000000E+00 -0.45593999997E+02  0.45594000000E+02  0.51100000000E-03 0.  1.
    9900012    2    1    2    0    0  0.18612975609E+02 -0.94093807337E+01 -0.24119322558E+02  0.59301936783E+02  0.49999986787E+02 0.  0.
         12    1    1    2    0    0 -0.18612975609E+02  0.94093807337E+01  0.24119322558E+02  0.31886063217E+02  0.00000000000E+00 0. -1.
         11    1    3    3    0    0 -0.55936692774E+01 -0.62117465015E+00  0.29777653318E+01  0.63672663336E+01  0.51100000000E-03 0. -1.
        -11    1    3    3    0    0  0.17995044908E+01 -0.77384064674E+01 -0.29334778120E+02  0.30391616586E+02  0.51100000000E-03 0.  1.
         12    1    3    3    0    0  0.22407140395E+02 -0.10497996161E+01  0.22376902301E+01  0.22543053864E+02  0.00000000000E+00 0. -1.
</event>
<event>
 7    1  0.6061051E-012  0.5930195E+02  0.7816164E-02  0.1266605E+00
        -11   -1    0    0    0    0  0.00000000000E+00  0.00000000000E+00  0.45593999997E+02  0.45594000000E+02  0.51100000000E-03 0.  1.
         11   -1    0    0    0    0 -0.00000000000E+00 -0.00000000000E+00 -0.45593999997E+02  0.45594000000E+02  0.51100000000E-03 0. -1.
    9900012    2    1    2    0    0  0.35271240502E+01 -0.30686263989E+02 -0.79141053978E+01  0.59301945589E+02  0.50000002847E+02 0.  0.
         12    1    1    2    0    0 -0.35271240502E+01  0.30686263989E+02  0.79141053978E+01  0.31886054411E+02  0.00000000000E+00 0. -1.
         11    1    3    3    0    0  0.11910002467E+02  0.38311444213E+01  0.66114525286E+01  0.14150516992E+02  0.51100000000E-03 0. -1.
        -11    1    3    3    0    0  0.52218922353E+01 -0.13822430499E+02  0.26507411576E+01  0.15011801103E+02  0.51100000000E-03 0.  1.
         12    1    3    3    0    0 -0.13604770652E+02 -0.20694977911E+02 -0.17176299084E+02  0.30139627494E+02  0.00000000000E+00 0. -1.
</event>
<event>
 7    1  0.6061051E-012  0.5930200E+02  0.7816164E-02  0.1266605E+00
        -11   -1    0    0    0    0  0.00000000000E+00  0.00000000000E+00  0.45593999997E+02  0.45594000000E+02  0.51100000000E-03 0.  1.
         11   -1    0    0    0    0 -0.00000000000E+00 -0.00000000000E+00 -0.45593999997E+02  0.45594000000E+02  0.51100000000E-03 0. -1.
    9900012    2    1    2    0    0  0.12462566429E+02 -0.28657797965E+02  0.63349888031E+01  0.59301999478E+02  0.50000101127E+02 0.  0.
         12    1    1    2    0    0 -0.12462566429E+02  0.28657797965E+02 -0.63349888031E+01  0.31886000522E+02  0.00000000000E+00 0. -1.
         11    1    3    3    0    0  0.72748870933E+01 -0.14926402427E+00  0.13073710116E+02  0.14962224381E+02  0.51100000000E-03 0. -1.
        -11    1    3    3    0    0 -0.13319902100E+02 -0.10687981209E+02  0.20165740533E+01  0.17196491080E+02  0.51100000000E-03 0.  1.
        -12    1    3    3    0    0  0.18507581436E+02 -0.17820552731E+02 -0.87552953665E+01  0.27143284016E+02  0.00000000000E+00 0.  1.
</event>
<event>
 7    1  0.6061051E-012  0.5930194E+02  0.7816164E-02  0.1266605E+00
        -11   -1    0    0    0    0  0.00000000000E+00  0.00000000000E+00  0.45593999997E+02  0.45594000000E+02  0.51100000000E-03 0.  1.
         11   -1    0    0    0    0 -0.00000000000E+00 -0.00000000000E+00 -0.45593999997E+02  0.45594000000E+02  0.51100000000E-03 0. -1.
    9900012    2    1    2    0    0 -0.27130714299E+02  0.15309800028E+02  0.68011161278E+01  0.59301940102E+02  0.49999992840E+02 0.  0.
         12    1    1    2    0    0  0.27130714299E+02 -0.15309800028E+02 -0.68011161278E+01  0.31886059898E+02  0.00000000000E+00 0. -1.
         11    1    3    3    0    0 -0.10250914484E+02  0.29261041044E+01 -0.11100770927E+01  0.10718003751E+02  0.51100000000E-03 0. -1.
        -11    1    3    3    0    0 -0.13739971183E+02 -0.13633989677E+02  0.10888614615E+02  0.22208881356E+02  0.51100000000E-03 0.  1.
        -12    1    3    3    0    0 -0.31398286319E+01  0.26017685600E+02 -0.29774213945E+01  0.26375054995E+02  0.00000000000E+00 0.  1.
</event>
<event>
 7    1  0.6061051E-012  0.5930194E+02  0.7816164E-02  0.1266605E+00
        -11   -1    0    0    0    0  0.00000000000E+00  0.00000000000E+00  0.45593999997E+02  0.45594000000E+02  0.51100000000E-03 0. -1.
         11   -1    0    0    0    0 -0.00000000000E+00 -0.00000000000E+00 -0.45593999997E+02  0.45594000000E+02  0.51100000000E-03 0.  1.
    9900012    2    1    2    0    0 -0.26851012339E+02  0.14053113442E+02 -0.99123031239E+01  0.59301943263E+02  0.49999998605E+02 0.  0.
         12    1    1    2    0    0  0.26851012339E+02 -0.14053113442E+02  0.99123031239E+01  0.31886056737E+02  0.00000000000E+00 0. -1.
         11    1    3    3    0    0  0.13713273894E+01  0.24774200596E+00 -0.12530965119E+01  0.18740773836E+01  0.51100000000E-03 0. -1.
        -11    1    3    3    0    0 -0.19885534313E+02 -0.11162399467E+02 -0.18460178678E+02  0.29339594985E+02  0.51100000000E-03 0.  1.
        -12    1    3    3    0    0 -0.83368054147E+01  0.24967770903E+02  0.98009720656E+01  0.28088270894E+02  0.00000000000E+00 0.  1.
</event>
<event>
 7    1  0.6061051E-012  0.5930177E+02  0.7816164E-02  0.1266605E+00
        -11   -1    0    0    0    0  0.00000000000E+00  0.00000000000E+00  0.45593999997E+02  0.45594000000E+02  0.51100000000E-03 0.  1.
         11   -1    0    0    0    0 -0.00000000000E+00 -0.00000000000E+00 -0.45593999997E+02  0.45594000000E+02  0.51100000000E-03 0. -1.
    9900012    2    1    2    0    0 -0.13790791482E+02  0.28730050885E+02 -0.10629580300E+01  0.59301770475E+02  0.49999683480E+02 0.  0.
         12    1    1    2    0    0  0.13790791482E+02 -0.28730050885E+02  0.10629580300E+01  0.31886229525E+02  0.00000000000E+00 0. -1.
         11    1    3    3    0    0  0.67145386079E+01  0.24489282643E+00 -0.75797461693E+01  0.10129045042E+02  0.51100000000E-03 0. -1.
        -11    1    3    3    0    0 -0.19142707154E+02  0.25384816456E+01  0.11839291406E+02  0.22650738344E+02  0.51100000000E-03 0.  1.
         12    1    3    3    0    0 -0.13626229358E+01  0.25946676413E+02 -0.53225032665E+01  0.26521987089E+02  0.00000000000E+00 0. -1.
</event>
<event>
 7    1  0.6061051E-012  0.5930192E+02  0.7816164E-02  0.1266605E+00
        -11   -1    0    0    0    0  0.00000000000E+00  0.00000000000E+00  0.45593999997E+02  0.45594000000E+02  0.51100000000E-03 0.  1.
         11   -1    0    0    0    0 -0.00000000000E+00 -0.00000000000E+00 -0.45593999997E+02  0.45594000000E+02  0.51100000000E-03 0. -1.
    9900012    2    1    2    0    0  0.63707575827E+01  0.26227253216E+02  0.16978416960E+02  0.59301921441E+02  0.49999958806E+02 0.  0.
         12    1    1    2    0    0 -0.63707575827E+01 -0.26227253216E+02 -0.16978416960E+02  0.31886078559E+02  0.00000000000E+00 0. -1.
         11    1    3    3    0    0 -0.16389268044E+02  0.14016749704E+02  0.43934735961E+01  0.22008634437E+02  0.51100000000E-03 0. -1.
        -11    1    3    3    0    0  0.29552161185E+01 -0.69219572764E+01  0.34624245161E+01  0.82846350936E+01  0.51100000000E-03 0.  1.
        -12    1    3    3    0    0  0.19804809509E+02  0.19132460788E+02  0.91225188481E+01  0.29008651910E+02  0.00000000000E+00 0.  1.
</event>
<event>
 7    1  0.6061051E-012  0.5930195E+02  0.7816164E-02  0.1266605E+00
        -11   -1    0    0    0    0  0.00000000000E+00  0.00000000000E+00  0.45593999997E+02  0.45594000000E+02  0.51100000000E-03 0. -1.
         11   -1    0    0    0    0 -0.00000000000E+00 -0.00000000000E+00 -0.45593999997E+02  0.45594000000E+02  0.51100000000E-03 0.  1.
    9900012    2    1    2    0    0 -0.19142035305E+02  0.19509156241E+02  0.16422411424E+02  0.59301948350E+02  0.50000007882E+02 0.  0.
         12    1    1    2    0    0  0.19142035305E+02 -0.19509156241E+02 -0.16422411424E+02  0.31886051650E+02  0.00000000000E+00 0. -1.
         11    1    3    3    0    0 -0.43307093196E+01 -0.77937520737E+01  0.11844000639E+02  0.14824910320E+02  0.51100000000E-03 0. -1.
        -11    1    3    3    0    0 -0.94662819659E+01 -0.54139162754E+01 -0.61365264209E+00  0.10922341943E+02  0.51100000000E-03 0.  1.
        -12    1    3    3    0    0 -0.53450440193E+01  0.32716824590E+02  0.51920634272E+01  0.33554696086E+02  0.00000000000E+00 0.  1.
</event>
<event>
 7    1  0.6061051E-012  0.5930194E+02  0.7816164E-02  0.1266605E+00
        -11   -1    0    0    0    0  0.00000000000E+00  0.00000000000E+00  0.45593999997E+02  0.45594000000E+02  0.51100000000E-03 0. -1.
         11   -1    0    0    0    0 -0.00000000000E+00 -0.00000000000E+00 -0.45593999997E+02  0.45594000000E+02  0.51100000000E-03 0.  1.
    9900012    2    1    2    0    0  0.31445841657E+02  0.37449797519E+01 -0.37222475582E+01  0.59301937877E+02  0.49999988782E+02 0.  0.
         12    1    1    2    0    0 -0.31445841657E+02 -0.37449797519E+01  0.37222475582E+01  0.31886062123E+02  0.00000000000E+00 0. -1.
         11    1    3    3    0    0 -0.61842768053E+01  0.15510438608E+02 -0.35610770634E+01  0.17073378562E+02  0.51100000000E-03 0. -1.
        -11    1    3    3    0    0  0.12734256242E+02 -0.10674551939E+02  0.36675099047E+01  0.17016402978E+02  0.51100000000E-03 0.  1.
        -12    1    3    3    0    0  0.24895862219E+02 -0.10909069171E+01 -0.38286803995E+01  0.25212156337E+02  0.00000000000E+00 0.  1.
</event>
<event>
 7    1  0.6061051E-012  0.5930196E+02  0.7816164E-02  0.1266605E+00
        -11   -1    0    0    0    0  0.00000000000E+00  0.00000000000E+00  0.45593999997E+02  0.45594000000E+02  0.51100000000E-03 0. -1.
         11   -1    0    0    0    0 -0.00000000000E+00 -0.00000000000E+00 -0.45593999997E+02  0.45594000000E+02  0.51100000000E-03 0.  1.
    9900012    2    1    2    0    0  0.15159345064E+02 -0.23682975541E+02 -0.15034310040E+02  0.59301959926E+02  0.50000028994E+02 0.  0.
         12    1    1    2    0    0 -0.15159345064E+02  0.23682975541E+02  0.15034310040E+02  0.31886040074E+02  0.00000000000E+00 0. -1.
         11    1    3    3    0    0  0.10434090687E+02 -0.62190701895E+00 -0.49730608323E+01  0.11575333736E+02  0.51100000000E-03 0. -1.
        -11    1    3    3    0    0  0.17652192622E+02 -0.18976340576E+02  0.61067959061E+01  0.26626948051E+02  0.51100000000E-03 0.  1.
         12    1    3    3    0    0 -0.12926938244E+02 -0.40847279460E+01 -0.16168045114E+02  0.21099678139E+02  0.00000000000E+00 0. -1.
</event>
<event>
 7    1  0.6061051E-012  0.5930194E+02  0.7816164E-02  0.1266605E+00
        -11   -1    0    0    0    0  0.00000000000E+00  0.00000000000E+00  0.45593999997E+02  0.45594000000E+02  0.51100000000E-03 0. -1.
         11   -1    0    0    0    0 -0.00000000000E+00 -0.00000000000E+00 -0.45593999997E+02  0.45594000000E+02  0.51100000000E-03 0.  1.
    9900012    2    1    2    0    0  0.24529835911E+02  0.18937385877E+02 -0.75088762816E+01  0.59301942597E+02  0.49999997392E+02 0.  0.
         12    1    1    2    0    0 -0.24529835911E+02 -0.18937385877E+02  0.75088762816E+01  0.31886057403E+02  0.00000000000E+00 0. -1.
         11    1    3    3    0    0 -0.86553085245E+01 -0.24279673841E+01  0.72710190952E+00  0.90187620393E+01  0.51100000000E-03 0. -1.
        -11    1    3    3    0    0 -0.47993934479E+01  0.80053368422E+01 -0.12782034865E+01  0.94209022837E+01  0.51100000000E-03 0.  1.
        -12    1    3    3    0    0  0.37984537884E+02  0.13360016418E+02 -0.69577747047E+01  0.40862278274E+02  0.00000000000E+00 0.  1.
</event>
<event>
 7    1  0.6061051E-012  0.5930197E+02  0.7816164E-02  0.1266605E+00
        -11   -1    0    0    0    0  0.00000000000E+00  0.00000000000E+00  0.45593999997E+02  0.45594000000E+02  0.51100000000E-03 0. -1.
         11   -1    0    0    0    0 -0.00000000000E+00 -0.00000000000E+00 -0.45593999997E+02  0.45594000000E+02  0.51100000000E-03 0.  1.
    9900012    2    1    2    0    0 -0.29827385259E+02  0.82772542911E+01 -0.76506937253E+01  0.59301969132E+02  0.50000045785E+02 0.  0.
         12    1    1    2    0    0  0.29827385259E+02 -0.82772542911E+01  0.76506937253E+01  0.31886030868E+02  0.00000000000E+00 0. -1.
         11    1    3    3    0    0 -0.27356175355E+01  0.12824073594E+02  0.11725596829E+02  0.17590625006E+02  0.51100000000E-03 0. -1.
        -11    1    3    3    0    0 -0.89755940810E+01  0.10181344137E+02 -0.77398157937E+01  0.15624525795E+02  0.51100000000E-03 0.  1.
        -12    1    3    3    0    0 -0.18116173643E+02 -0.14728163440E+02 -0.11636474760E+02  0.26086818331E+02  0.00000000000E+00 0.  1.
</event>
<event>
 7    1  0.6061051E-012  0.5930195E+02  0.7816164E-02  0.1266605E+00
        -11   -1    0    0    0    0  0.00000000000E+00  0.00000000000E+00  0.45593999997E+02  0.45594000000E+02  0.51100000000E-03 0.  1.
         11   -1    0    0    0    0 -0.00000000000E+00 -0.00000000000E+00 -0.45593999997E+02  0.45594000000E+02  0.51100000000E-03 0. -1.
    9900012    2    1    2    0    0  0.25708366273E+02 -0.27982780420E+01  0.18653954864E+02  0.59301945235E+02  0.50000002202E+02 0.  0.
         12    1    1    2    0    0 -0.25708366273E+02  0.27982780420E+01 -0.18653954864E+02  0.31886054765E+02  0.00000000000E+00 0. -1.
         11    1    3    3    0    0  0.57438008551E+00 -0.14676520340E+02  0.20660257313E+02  0.25349090600E+02  0.51100000000E-03 0. -1.
        -11    1    3    3    0    0  0.57433888781E+01  0.60715226493E+01  0.78260686235E+01  0.11449770891E+02  0.51100000000E-03 0.  1.
        -12    1    3    3    0    0  0.19390597309E+02  0.58067196483E+01 -0.98323710727E+01  0.22503083744E+02  0.00000000000E+00 0.  1.
</event>
<event>
 7    1  0.6061051E-012  0.5930193E+02  0.7816164E-02  0.1266605E+00
        -11   -1    0    0    0    0  0.00000000000E+00  0.00000000000E+00  0.45593999997E+02  0.45594000000E+02  0.51100000000E-03 0.  1.
         11   -1    0    0    0    0 -0.00000000000E+00 -0.00000000000E+00 -0.45593999997E+02  0.45594000000E+02  0.51100000000E-03 0. -1.
    9900012    2    1    2    0    0  0.16477345357E+02  0.15392357920E+01  0.27255260163E+02  0.59301931515E+02  0.49999977180E+02 0.  0.
         12    1    1    2    0    0 -0.16477345357E+02 -0.15392357920E+01 -0.27255260163E+02  0.31886068485E+02  0.00000000000E+00 0. -1.
         11    1    3    3    0    0  0.13225152194E+02 -0.24965576752E+01  0.19151118288E+02  0.23407323271E+02  0.51100000000E-03 0.  1.
        -11    1    3    3    0    0 -0.40962734938E+01 -0.39366288128E+01  0.19413318931E+02  0.20227541994E+02  0.51100000000E-03 0. -1.
        -12    1    3    3    0    0  0.73484666571E+01  0.79724222800E+01 -0.11309177055E+02  0.15667066250E+02  0.00000000000E+00 0.  1.
</event>
<event>
 7    1  0.6061051E-012  0.5930180E+02  0.7816164E-02  0.1266605E+00
        -11   -1    0    0    0    0  0.00000000000E+00  0.00000000000E+00  0.45593999997E+02  0.45594000000E+02  0.51100000000E-03 0.  1.
         11   -1    0    0    0    0 -0.00000000000E+00 -0.00000000000E+00 -0.45593999997E+02  0.45594000000E+02  0.51100000000E-03 0. -1.
    9900012    2    1    2    0    0 -0.10985535105E+02 -0.20847048236E+02  0.21481345077E+02  0.59301802547E+02  0.49999741972E+02 0.  0.
         12    1    1    2    0    0  0.10985535105E+02  0.20847048236E+02 -0.21481345077E+02  0.31886197453E+02  0.00000000000E+00 0. -1.
         11    1    3    3    0    0 -0.50829793441E+01 -0.15844462588E+01  0.17818276460E+02  0.18596723508E+02  0.51100000000E-03 0. -1.
        -11    1    3    3    0    0  0.51746153231E+01  0.17718108260E+01  0.13812690608E+02  0.14856189937E+02  0.51100000000E-03 0.  1.
         12    1    3    3    0    0 -0.11077171084E+02 -0.21034412804E+02 -0.10149621992E+02  0.25848889102E+02  0.00000000000E+00 0. -1.
</event>
<event>
 7    1  0.6061051E-012  0.5930195E+02  0.7816164E-02  0.1266605E+00
        -11   -1    0    0    0    0  0.00000000000E+00  0.00000000000E+00  0.45593999997E+02  0.45594000000E+02  0.51100000000E-03 0.  1.
         11   -1    0    0    0    0 -0.00000000000E+00 -0.00000000000E+00 -0.45593999997E+02  0.45594000000E+02  0.51100000000E-03 0. -1.
    9900012    2    1    2    0    0  0.91440330395E+00 -0.31837436494E+02  0.15038687240E+01  0.59301951059E+02  0.50000012823E+02 0.  0.
         12    1    1    2    0    0 -0.91440330395E+00  0.31837436494E+02 -0.15038687240E+01  0.31886048941E+02  0.00000000000E+00 0. -1.
         11    1    3    3    0    0  0.88931856256E+01  0.26629350374E+01 -0.21828736567E+01  0.95365041418E+01  0.51100000000E-03 0. -1.
        -11    1    3    3    0    0  0.26609021298E+01 -0.16962101190E+02 -0.14406494702E+02  0.22412950871E+02  0.51100000000E-03 0.  1.
        -12    1    3    3    0    0 -0.10639684451E+02 -0.17538270342E+02  0.18093237082E+02  0.27352496046E+02  0.00000000000E+00 0.  1.
</event>
<event>
 7    1  0.6061051E-012  0.5930195E+02  0.7816164E-02  0.1266605E+00
        -11   -1    0    0    0    0  0.00000000000E+00  0.00000000000E+00  0.45593999997E+02  0.45594000000E+02  0.51100000000E-03 0. -1.
         11   -1    0    0    0    0 -0.00000000000E+00 -0.00000000000E+00 -0.45593999997E+02  0.45594000000E+02  0.51100000000E-03 0.  1.
    9900012    2    1    2    0    0  0.31213741125E+02  0.36340839742E+01 -0.54052072086E+01  0.59301945582E+02  0.50000002835E+02 0.  0.
         12    1    1    2    0    0 -0.31213741125E+02 -0.36340839742E+01  0.54052072086E+01  0.31886054418E+02  0.00000000000E+00 0. -1.
         11    1    3    3    0    0  0.16779601403E+02  0.20891559904E+02  0.45768788411E+01  0.27183820899E+02  0.51100000000E-03 0. -1.
        -11    1    3    3    0    0 -0.36915395448E+01  0.12823741357E+01 -0.38264356526E+01  0.54693288161E+01  0.51100000000E-03 0.  1.
         12    1    3    3    0    0  0.18125679267E+02 -0.18539850066E+02 -0.61556503971E+01  0.26648795867E+02  0.00000000000E+00 0. -1.
</event>
<event>
 7    1  0.6061051E-012  0.5930195E+02  0.7816164E-02  0.1266605E+00
        -11   -1    0    0    0    0  0.00000000000E+00  0.00000000000E+00  0.45593999997E+02  0.45594000000E+02  0.51100000000E-03 0.  1.
         11   -1    0    0    0    0 -0.00000000000E+00 -0.00000000000E+00 -0.45593999997E+02  0.45594000000E+02  0.51100000000E-03 0. -1.
    9900012    2    1    2    0    0 -0.29668099596E+02 -0.10794226438E+02 -0.44730978871E+01  0.59301951910E+02  0.50000014376E+02 0.  0.
         12    1    1    2    0    0  0.29668099596E+02  0.10794226438E+02  0.44730978871E+01  0.31886048090E+02  0.00000000000E+00 0. -1.
         11    1    3    3    0    0 -0.28370669830E+02 -0.19196743254E+00 -0.80911063282E+01  0.29502504300E+02  0.51100000000E-03 0. -1.
        -11    1    3    3    0    0 -0.10755158586E+02  0.43553747689E+01  0.34361130693E+01  0.12101636207E+02  0.51100000000E-03 0.  1.
         12    1    3    3    0    0  0.94577288198E+01 -0.14957633774E+02  0.18189537172E+00  0.17697811404E+02  0.00000000000E+00 0. -1.
</event>
<event>
 7    1  0.6061051E-012  0.5930193E+02  0.7816164E-02  0.1266605E+00
        -11   -1    0    0    0    0  0.00000000000E+00  0.00000000000E+00  0.45593999997E+02  0.45594000000E+02  0.51100000000E-03 0.  1.
         11   -1    0    0    0    0 -0.00000000000E+00 -0.00000000000E+00 -0.45593999997E+02  0.45594000000E+02  0.51100000000E-03 0. -1.
    9900012    2    1    2    0    0  0.28724206228E+02 -0.38504963462E+01  0.13297180582E+02  0.59301931617E+02  0.49999977366E+02 0.  0.
         12    1    1    2    0    0 -0.28724206228E+02  0.38504963462E+01 -0.13297180582E+02  0.31886068383E+02  0.00000000000E+00 0. -1.
         11    1    3    3    0    0 -0.28941024871E+01 -0.65266648855E+01 -0.91093562119E+01  0.11573830593E+02  0.51100000000E-03 0. -1.
        -11    1    3    3    0    0  0.19128933176E+02 -0.12216758865E+02  0.12525832176E+02  0.25924153864E+02  0.51100000000E-03 0.  1.
        -12    1    3    3    0    0  0.12489375539E+02  0.14892927404E+02  0.98807046175E+01  0.21803947160E+02  0.00000000000E+00 0.  1.
</event>
<event>
 7    1  0.6061051E-012  0.5930194E+02  0.7816164E-02  0.1266605E+00
        -11   -1    0    0    0    0  0.00000000000E+00  0.00000000000E+00  0.45593999997E+02  0.45594000000E+02  0.51100000000E-03 0.  1.
         11   -1    0    0    0    0 -0.00000000000E+00 -0.00000000000E+00 -0.45593999997E+02  0.45594000000E+02  0.51100000000E-03 0. -1.
    9900012    2    1    2    0    0  0.19868596012E+02  0.42256219567E+01  0.24578526956E+02  0.59301937595E+02  0.49999988268E+02 0.  0.
         12    1    1    2    0    0 -0.19868596012E+02 -0.42256219567E+01 -0.24578526956E+02  0.31886062405E+02  0.00000000000E+00 0. -1.
         11    1    3    3    0    0 -0.87557073789E+01 -0.11439192033E+02  0.79649733483E+01  0.16460811851E+02  0.51100000000E-03 0. -1.
        -11    1    3    3    0    0 -0.30193661807E+01  0.48395544037E+01  0.45189396868E+01  0.72772711310E+01  0.51100000000E-03 0.  1.
        -12    1    3    3    0    0  0.31643669571E+02  0.10825259586E+02  0.12094613921E+02  0.35563854613E+02  0.00000000000E+00 0.  1.
</event>
<event>
 7    1  0.6061051E-012  0.5930188E+02  0.7816164E-02  0.1266605E+00
        -11   -1    0    0    0    0  0.00000000000E+00  0.00000000000E+00  0.45593999997E+02  0.45594000000E+02  0.51100000000E-03 0.  1.
         11   -1    0    0    0    0 -0.00000000000E+00 -0.00000000000E+00 -0.45593999997E+02  0.45594000000E+02  0.51100000000E-03 0. -1.
    9900012    2    1    2    0    0 -0.16718329270E+02  0.12541207910E+02  0.24081947891E+02  0.59301880078E+02  0.49999883372E+02 0.  0.
         12    1    1    2    0    0  0.16718329270E+02 -0.12541207910E+02 -0.24081947891E+02  0.31886119922E+02  0.00000000000E+00 0. -1.
         11    1    3    3    0    0 -0.10551519814E+02 -0.14076898217E+01 -0.28716410316E+01  0.11025537787E+02  0.51100000000E-03 0. -1.
        -11    1    3    3    0    0 -0.11093789225E+02 -0.63784183435E+01  0.23938542420E+02  0.27144247888E+02  0.51100000000E-03 0.  1.
        -12    1    3    3    0    0  0.49269797684E+01  0.20327316076E+02  0.30150465024E+01  0.21132094404E+02  0.00000000000E+00 0.  1.
</event>
<event>
 7    1  0.6061051E-012  0.5930193E+02  0.7816164E-02  0.1266605E+00
        -11   -1    0    0    0    0  0.00000000000E+00  0.00000000000E+00  0.45593999997E+02  0.45594000000E+02  0.51100000000E-03 0.  1.
         11   -1    0    0    0    0 -0.00000000000E+00 -0.00000000000E+00 -0.45593999997E+02  0.45594000000E+02  0.51100000000E-03 0. -1.
    9900012    2    1    2    0    0 -0.22463168766E+02 -0.22615761615E+02  0.80912747115E+00  0.59301932327E+02  0.49999978660E+02 0.  0.
         12    1    1    2    0    0  0.22463168766E+02  0.22615761615E+02 -0.80912747115E+00  0.31886067673E+02  0.00000000000E+00 0. -1.
         11    1    3    3    0    0  0.64349817934E+01 -0.67191510348E+01  0.17931302380E+01  0.94747716395E+01  0.51100000000E-03 0. -1.
        -11    1    3    3    0    0 -0.69480018244E+01 -0.49920205638E+01  0.17265945852E+02  0.19269350925E+02  0.51100000000E-03 0.  1.
        -12    1    3    3    0    0 -0.21950148735E+02 -0.10904590016E+02 -0.18249948618E+02  0.30557809762E+02  0.00000000000E+00 0.  1.
</event>
<event>
 7    1  0.6061051E-012  0.5930196E+02  0.7816164E-02  0.1266605E+00
        -11   -1    0    0    0    0  0.00000000000E+00  0.00000000000E+00  0.45593999997E+02  0.45594000000E+02  0.51100000000E-03 0.  1.
         11   -1    0    0    0    0 -0.00000000000E+00 -0.00000000000E+00 -0.45593999997E+02  0.45594000000E+02  0.51100000000E-03 0. -1.
    9900012    2    1    2    0    0 -0.30126826046E+02  0.73409226979E+01 -0.74299758282E+01  0.59301963331E+02  0.50000035205E+02 0.  0.
         12    1    1    2    0    0  0.30126826046E+02 -0.73409226979E+01  0.74299758282E+01  0.31886036669E+02  0.00000000000E+00 0. -1.
         11    1    3    3    0    0 -0.17725992386E+02  0.16335127129E+02  0.41770427239E+01  0.24464154810E+02  0.51100000000E-03 0. -1.
        -11    1    3    3    0    0 -0.15125688366E+02  0.69672931267E+01 -0.60644562806E+01  0.17723071187E+02  0.51100000000E-03 0.  1.
         12    1    3    3    0    0  0.27248547063E+01 -0.15961497558E+02 -0.55425622715E+01  0.17114737334E+02  0.00000000000E+00 0. -1.
</event>
<event>
 7    1  0.6061051E-012  0.5930196E+02  0.7816164E-02  0.1266605E+00
        -11   -1    0    0    0    0  0.00000000000E+00  0.00000000000E+00  0.45593999997E+02  0.45594000000E+02  0.51100000000E-03 0.  1.
         11   -1    0    0    0    0 -0.00000000000E+00 -0.00000000000E+00 -0.45593999997E+02  0.45594000000E+02  0.51100000000E-03 0. -1.
    9900012    2    1    2    0    0 -0.10305719812E+02  0.26641963827E+02  0.14167471923E+02  0.59301962960E+02  0.50000034528E+02 0.  0.
         12    1    1    2    0    0  0.10305719812E+02 -0.26641963827E+02 -0.14167471923E+02  0.31886037040E+02  0.00000000000E+00 0. -1.
         11    1    3    3    0    0  0.37979925055E+01 -0.60209605206E+01  0.21158163452E+01  0.74265329549E+01  0.51100000000E-03 0. -1.
        -11    1    3    3    0    0 -0.81782937199E+00  0.10362788436E+02 -0.12423319937E+02  0.16198614371E+02  0.51100000000E-03 0.  1.
        -12    1    3    3    0    0 -0.13285882945E+02  0.22300135912E+02  0.24474975515E+02  0.35676815634E+02  0.00000000000E+00 0.  1.
</event>
<event>
 7    1  0.6061051E-012  0.5930194E+02  0.7816164E-02  0.1266605E+00
        -11   -1    0    0    0    0  0.00000000000E+00  0.00000000000E+00  0.45593999997E+02  0.45594000000E+02  0.51100000000E-03 0.  1.
         11   -1    0    0    0    0 -0.00000000000E+00 -0.00000000000E+00 -0.45593999997E+02  0.45594000000E+02  0.51100000000E-03 0. -1.
    9900012    2    1    2    0    0  0.24105196285E+02  0.69693722083E+01  0.19674558647E+02  0.59301938862E+02  0.49999990580E+02 0.  0.
         12    1    1    2    0    0 -0.24105196285E+02 -0.69693722083E+01 -0.19674558647E+02  0.31886061138E+02  0.00000000000E+00 0. -1.
         11    1    3    3    0    0  0.25949675741E+01  0.10964162436E+02  0.70962221497E+01  0.13315520407E+02  0.51100000000E-03 0. -1.
        -11    1    3    3    0    0  0.20427795039E+02  0.11340989195E+02  0.18200147243E+02  0.29616856788E+02  0.51100000000E-03 0.  1.
         12    1    3    3    0    0  0.10824336720E+01 -0.15335779423E+02 -0.56218107454E+01  0.16369561668E+02  0.00000000000E+00 0. -1.
</event>
<event>
 7    1  0.6061051E-012  0.5930194E+02  0.7816164E-02  0.1266605E+00
        -11   -1    0    0    0    0  0.00000000000E+00  0.00000000000E+00  0.45593999997E+02  0.45594000000E+02  0.51100000000E-03 0. -1.
         11   -1    0    0    0    0 -0.00000000000E+00 -0.00000000000E+00 -0.45593999997E+02  0.45594000000E+02  0.51100000000E-03 0.  1.
    9900012    2    1    2    0    0 -0.27924167615E+02  0.12217383272E+02 -0.93646725065E+01  0.59301942198E+02  0.49999996662E+02 0.  0.
         12    1    1    2    0    0  0.27924167615E+02 -0.12217383272E+02  0.93646725065E+01  0.31886057802E+02  0.00000000000E+00 0. -1.
         11    1    3    3    0    0 -0.30443246401E+01 -0.99468788594E+01  0.50110314105E+01  0.11546373786E+02  0.51100000000E-03 0. -1.
        -11    1    3    3    0    0 -0.58661357555E+01  0.11514931243E+01  0.91465298734E+01  0.10926870279E+02  0.51100000000E-03 0.  1.
        -12    1    3    3    0    0 -0.19013707220E+02  0.21012769007E+02 -0.23522233790E+02  0.36828698132E+02  0.00000000000E+00 0.  1.
</event>
<event>
 7    1  0.6061051E-012  0.5930192E+02  0.7816164E-02  0.1266605E+00
        -11   -1    0    0    0    0  0.00000000000E+00  0.00000000000E+00  0.45593999997E+02  0.45594000000E+02  0.51100000000E-03 0.  1.
         11   -1    0    0    0    0 -0.00000000000E+00 -0.00000000000E+00 -0.45593999997E+02  0.45594000000E+02  0.51100000000E-03 0. -1.
    9900012    2    1    2    0    0 -0.39521146151E+01 -0.21259214543E+02  0.23433918354E+02  0.59301922437E+02  0.49999960624E+02 0.  0.
         12    1    1    2    0    0  0.39521146151E+01  0.21259214543E+02 -0.23433918354E+02  0.31886077563E+02  0.00000000000E+00 0. -1.
         11    1    3    3    0    0 -0.14353886732E+02 -0.18036860796E+02 -0.14991074288E+01  0.23099994265E+02  0.51100000000E-03 0. -1.
        -11    1    3    3    0    0 -0.69906748998E+01  0.28946953046E+01  0.51089738030E+01  0.91296445737E+01  0.51100000000E-03 0.  1.
         12    1    3    3    0    0  0.17392447017E+02 -0.61170490509E+01  0.19824051980E+02  0.27072283598E+02  0.00000000000E+00 0. -1.
</event>
<event>
 7    1  0.6061051E-012  0.5930195E+02  0.7816164E-02  0.1266605E+00
        -11   -1    0    0    0    0  0.00000000000E+00  0.00000000000E+00  0.45593999997E+02  0.45594000000E+02  0.51100000000E-03 0.  1.
         11   -1    0    0    0    0 -0.00000000000E+00 -0.00000000000E+00 -0.45593999997E+02  0.45594000000E+02  0.51100000000E-03 0. -1.
    9900012    2    1    2    0    0  0.24857563718E+01 -0.31581651660E+02 -0.36249882263E+01  0.59301949038E+02  0.50000009137E+02 0.  0.
         12    1    1    2    0    0 -0.24857563718E+01  0.31581651660E+02  0.36249882263E+01  0.31886050962E+02  0.00000000000E+00 0. -1.
         11    1    3    3    0    0 -0.13160281337E+02 -0.23150939307E+02  0.15286464667E+01  0.26673877782E+02  0.51100000000E-03 0. -1.
        -11    1    3    3    0    0  0.99147121949E+01 -0.27463479763E+01  0.10696299741E+02  0.14840982903E+02  0.51100000000E-03 0.  1.
         12    1    3    3    0    0  0.57313255136E+01 -0.56843643771E+01 -0.15849934434E+02  0.17787088353E+02  0.00000000000E+00 0. -1.
</event>
<event>
 7    1  0.6061051E-012  0.5930195E+02  0.7816164E-02  0.1266605E+00
        -11   -1    0    0    0    0  0.00000000000E+00  0.00000000000E+00  0.45593999997E+02  0.45594000000E+02  0.51100000000E-03 0. -1.
         11   -1    0    0    0    0 -0.00000000000E+00 -0.00000000000E+00 -0.45593999997E+02  0.45594000000E+02  0.51100000000E-03 0.  1.
    9900012    2    1    2    0    0 -0.25287273471E+02 -0.66463428581E+01 -0.18251030076E+02  0.59301950200E+02  0.50000011258E+02 0.  0.
         12    1    1    2    0    0  0.25287273471E+02  0.66463428581E+01  0.18251030076E+02  0.31886049800E+02  0.00000000000E+00 0. -1.
         11    1    3    3    0    0 -0.12210099091E+02  0.92711203460E+00 -0.23190692230E+01  0.12462910529E+02  0.51100000000E-03 0. -1.
        -11    1    3    3    0    0 -0.27559232880E+02  0.26462031997E+00 -0.93128196685E+01  0.29091406829E+02  0.51100000000E-03 0.  1.
         12    1    3    3    0    0  0.14482058501E+02 -0.78380752127E+01 -0.66191411846E+01  0.17747632842E+02  0.00000000000E+00 0. -1.
</event>
<event>
 7    1  0.6061051E-012  0.5930188E+02  0.7816164E-02  0.1266605E+00
        -11   -1    0    0    0    0  0.00000000000E+00  0.00000000000E+00  0.45593999997E+02  0.45594000000E+02  0.51100000000E-03 0.  1.
         11   -1    0    0    0    0 -0.00000000000E+00 -0.00000000000E+00 -0.45593999997E+02  0.45594000000E+02  0.51100000000E-03 0. -1.
    9900012    2    1    2    0    0 -0.17126336011E+02  0.37580383866E+01  0.26632505985E+02  0.59301880563E+02  0.49999884255E+02 0.  0.
         12    1    1    2    0    0  0.17126336011E+02 -0.37580383866E+01 -0.26632505985E+02  0.31886119437E+02  0.00000000000E+00 0. -1.
         11    1    3    3    0    0 -0.14054428809E+02  0.12855163218E+02  0.14050898835E+02  0.23668754695E+02  0.51100000000E-03 0. -1.
        -11    1    3    3    0    0 -0.45463530815E+01 -0.18241997188E+02  0.17021716785E+02  0.25360966667E+02  0.51100000000E-03 0.  1.
         12    1    3    3    0    0  0.14744458793E+01  0.91448723567E+01 -0.44401096340E+01  0.10272159200E+02  0.00000000000E+00 0. -1.
</event>
<event>
 7    1  0.6061051E-012  0.5930209E+02  0.7816164E-02  0.1266604E+00
        -11   -1    0    0    0    0  0.00000000000E+00  0.00000000000E+00  0.45593999997E+02  0.45594000000E+02  0.51100000000E-03 0. -1.
         11   -1    0    0    0    0 -0.00000000000E+00 -0.00000000000E+00 -0.45593999997E+02  0.45594000000E+02  0.51100000000E-03 0.  1.
    9900012    2    1    2    0    0  0.14036981916E+01  0.27144123629E+02 -0.16671451449E+02  0.59302092303E+02  0.50000270418E+02 0.  0.
         12    1    1    2    0    0 -0.14036981916E+01 -0.27144123629E+02  0.16671451449E+02  0.31885907697E+02  0.00000000000E+00 0. -1.
         11    1    3    3    0    0  0.10443066684E+02  0.82492356940E+01  0.53493469033E+01  0.14343048625E+02  0.51100000000E-03 0. -1.
        -11    1    3    3    0    0  0.83315091935E+01  0.18568598053E+02 -0.57327988457E+01  0.21144073921E+02  0.51100000000E-03 0.  1.
        -12    1    3    3    0    0 -0.17370877685E+02  0.32628988219E+00 -0.16287999506E+02  0.23814969758E+02  0.00000000000E+00 0.  1.
</event>
<event>
 7    1  0.6061051E-012  0.5930194E+02  0.7816164E-02  0.1266605E+00
        -11   -1    0    0    0    0  0.00000000000E+00  0.00000000000E+00  0.45593999997E+02  0.45594000000E+02  0.51100000000E-03 0.  1.
         11   -1    0    0    0    0 -0.00000000000E+00 -0.00000000000E+00 -0.45593999997E+02  0.45594000000E+02  0.51100000000E-03 0. -1.
    9900012    2    1    2    0    0  0.58511677400E+01  0.23552891376E+02  0.20682020844E+02  0.59301939687E+02  0.49999992083E+02 0.  0.
         12    1    1    2    0    0 -0.58511677400E+01 -0.23552891376E+02 -0.20682020844E+02  0.31886060313E+02  0.00000000000E+00 0. -1.
         11    1    3    3    0    0  0.24445228324E+01 -0.11400410675E+02 -0.52417559420E+01  0.12783624723E+02  0.51100000000E-03 0. -1.
        -11    1    3    3    0    0 -0.56393666003E+01  0.16759542275E+02  0.79380205926E+01  0.19382901850E+02  0.51100000000E-03 0.  1.
        -12    1    3    3    0    0  0.90460115079E+01  0.18193759776E+02  0.17985756194E+02  0.27135413114E+02  0.00000000000E+00 0.  1.
</event>
<event>
 7    1  0.6061051E-012  0.5930191E+02  0.7816164E-02  0.1266605E+00
        -11   -1    0    0    0    0  0.00000000000E+00  0.00000000000E+00  0.45593999997E+02  0.45594000000E+02  0.51100000000E-03 0.  1.
         11   -1    0    0    0    0 -0.00000000000E+00 -0.00000000000E+00 -0.45593999997E+02  0.45594000000E+02  0.51100000000E-03 0. -1.
    9900012    2    1    2    0    0 -0.17065501556E+02  0.42315889726E+01  0.26600471067E+02  0.59301909779E+02  0.49999937539E+02 0.  0.
         12    1    1    2    0    0  0.17065501556E+02 -0.42315889726E+01 -0.26600471067E+02  0.31886090221E+02  0.00000000000E+00 0. -1.
         11    1    3    3    0    0  0.58327482834E+01  0.39921837322E+01 -0.38812657410E+01  0.80636658849E+01  0.51100000000E-03 0. -1.
        -11    1    3    3    0    0 -0.76526186735E+00 -0.10728103340E+02 -0.14661087591E+01  0.10854828518E+02  0.51100000000E-03 0.  1.
        -12    1    3    3    0    0 -0.22132987972E+02  0.10967508581E+02  0.31947845567E+02  0.40383415376E+02  0.00000000000E+00 0.  1.
</event>
<event>
 7    1  0.6061051E-012  0.5930198E+02  0.7816164E-02  0.1266605E+00
        -11   -1    0    0    0    0  0.00000000000E+00  0.00000000000E+00  0.45593999997E+02  0.45594000000E+02  0.51100000000E-03 0.  1.
         11   -1    0    0    0    0 -0.00000000000E+00 -0.00000000000E+00 -0.45593999997E+02  0.45594000000E+02  0.51100000000E-03 0. -1.
    9900012    2    1    2    0    0 -0.49470606984E+01  0.13374180360E+01  0.31471517743E+02  0.59301976015E+02  0.50000058337E+02 0.  0.
         12    1    1    2    0    0  0.49470606984E+01 -0.13374180360E+01 -0.31471517743E+02  0.31886023985E+02  0.00000000000E+00 0. -1.
         11    1    3    3    0    0  0.10277783516E+02  0.63975591914E+01  0.27771043212E+02  0.30295089354E+02  0.51100000000E-03 0. -1.
        -11    1    3    3    0    0 -0.10057262202E+02 -0.14687968672E+02  0.30490771289E+01  0.18060504376E+02  0.51100000000E-03 0.  1.
        -12    1    3    3    0    0 -0.51675820122E+01  0.96278275170E+01  0.65139740141E+00  0.10946382285E+02  0.00000000000E+00 0.  1.
</event>
<event>
 7    1  0.6061051E-012  0.5930194E+02  0.7816164E-02  0.1266605E+00
        -11   -1    0    0    0    0  0.00000000000E+00  0.00000000000E+00  0.45593999997E+02  0.45594000000E+02  0.51100000000E-03 0.  1.
         11   -1    0    0    0    0 -0.00000000000E+00 -0.00000000000E+00 -0.45593999997E+02  0.45594000000E+02  0.51100000000E-03 0. -1.
    9900012    2    1    2    0    0  0.14974933542E+02  0.28070261969E+02 -0.21289180541E+01  0.59301944526E+02  0.50000000909E+02 0.  0.
         12    1    1    2    0    0 -0.14974933542E+02 -0.28070261969E+02  0.21289180541E+01  0.31886055474E+02  0.00000000000E+00 0. -1.
         11    1    3    3    0    0  0.91593236100E-01  0.16290269779E+02  0.10830733146E+02  0.19562363342E+02  0.51100000000E-03 0. -1.
        -11    1    3    3    0    0 -0.10676282491E+00  0.20069823370E+02 -0.97452313045E+01  0.22310955646E+02  0.51100000000E-03 0.  1.
         12    1    3    3    0    0  0.14990103131E+02 -0.82898311804E+01 -0.32144198955E+01  0.17428625538E+02  0.00000000000E+00 0. -1.
</event>
<event>
 7    1  0.6061051E-012  0.5930194E+02  0.7816164E-02  0.1266605E+00
        -11   -1    0    0    0    0  0.00000000000E+00  0.00000000000E+00  0.45593999997E+02  0.45594000000E+02  0.51100000000E-03 0.  1.
         11   -1    0    0    0    0 -0.00000000000E+00 -0.00000000000E+00 -0.45593999997E+02  0.45594000000E+02  0.51100000000E-03 0. -1.
    9900012    2    1    2    0    0 -0.30024891020E+02 -0.54764744587E+01 -0.92322735648E+01  0.59301941472E+02  0.49999995339E+02 0.  0.
         12    1    1    2    0    0  0.30024891020E+02  0.54764744587E+01  0.92322735648E+01  0.31886058528E+02  0.00000000000E+00 0. -1.
         11    1    3    3    0    0 -0.13107161872E+01  0.13410565205E+02 -0.16224635681E+02  0.21090283054E+02  0.51100000000E-03 0. -1.
        -11    1    3    3    0    0 -0.39923919294E+01 -0.10684325170E+02  0.35042417558E+01  0.11932045432E+02  0.51100000000E-03 0.  1.
        -12    1    3    3    0    0 -0.24721782904E+02 -0.82027144944E+01  0.34881203608E+01  0.26279612986E+02  0.00000000000E+00 0.  1.
</event>
<event>
 7    1  0.6061051E-012  0.5930196E+02  0.7816164E-02  0.1266605E+00
        -11   -1    0    0    0    0  0.00000000000E+00  0.00000000000E+00  0.45593999997E+02  0.45594000000E+02  0.51100000000E-03 0. -1.
         11   -1    0    0    0    0 -0.00000000000E+00 -0.00000000000E+00 -0.45593999997E+02  0.45594000000E+02  0.51100000000E-03 0.  1.
    9900012    2    1    2    0    0  0.27888476577E+02 -0.83482879484E+01 -0.13009940412E+02  0.59301959371E+02  0.50000027983E+02 0.  0.
         12    1    1    2    0    0 -0.27888476577E+02  0.83482879484E+01  0.13009940412E+02  0.31886040629E+02  0.00000000000E+00 0. -1.
         11    1    3    3    0    0  0.28676649167E+02 -0.15168453606E+02 -0.46205798368E+01  0.32768612277E+02  0.51100000000E-03 0. -1.
        -11    1    3    3    0    0 -0.17326130385E+01  0.62152139067E+01  0.79030353364E+01  0.10202391859E+02  0.51100000000E-03 0.  1.
        -12    1    3    3    0    0  0.94444044872E+00  0.60495175128E+00 -0.16292395912E+02  0.16330955236E+02  0.00000000000E+00 0.  1.
</event>
<event>
 7    1  0.6061051E-012  0.5930206E+02  0.7816164E-02  0.1266604E+00
        -11   -1    0    0    0    0  0.00000000000E+00  0.00000000000E+00  0.45593999997E+02  0.45594000000E+02  0.51100000000E-03 0.  1.
         11   -1    0    0    0    0 -0.00000000000E+00 -0.00000000000E+00 -0.45593999997E+02  0.45594000000E+02  0.51100000000E-03 0. -1.
    9900012    2    1    2    0    0  0.48665248821E+00 -0.17676833779E+02  0.26533107022E+02  0.59302061856E+02  0.50000214890E+02 0.  0.
         12    1    1    2    0    0 -0.48665248821E+00  0.17676833779E+02 -0.26533107022E+02  0.31885938144E+02  0.00000000000E+00 0. -1.
         11    1    3    3    0    0 -0.12228561023E+02 -0.73581290699E+01  0.47222399155E+01  0.15032608495E+02  0.51100000000E-03 0. -1.
        -11    1    3    3    0    0  0.12875130978E+02 -0.18554372564E+02  0.26478645898E+02  0.34801615304E+02  0.51100000000E-03 0.  1.
         12    1    3    3    0    0 -0.15991746688E+00  0.82356678554E+01 -0.46677787914E+01  0.94678380566E+01  0.00000000000E+00 0. -1.
</event>
<event>
 7    1  0.6061051E-012  0.5930194E+02  0.7816164E-02  0.1266605E+00
        -11   -1    0    0    0    0  0.00000000000E+00  0.00000000000E+00  0.45593999997E+02  0.45594000000E+02  0.51100000000E-03 0. -1.
         11   -1    0    0    0    0 -0.00000000000E+00 -0.00000000000E+00 -0.45593999997E+02  0.45594000000E+02  0.51100000000E-03 0.  1.
    9900012    2    1    2    0    0  0.14962586325E+02  0.19017814268E+02 -0.20764496787E+02  0.59301943864E+02  0.49999999702E+02 0.  0.
         12    1    1    2    0    0 -0.14962586325E+02 -0.19017814268E+02  0.20764496787E+02  0.31886056136E+02  0.00000000000E+00 0. -1.
         11    1    3    3    0    0 -0.90241376889E+01  0.24447865155E+01  0.39772676304E+01  0.10160250991E+02  0.51100000000E-03 0. -1.
        -11    1    3    3    0    0  0.89269938310E+01 -0.65381213598E+01  0.13805322133E+01  0.11150969430E+02  0.51100000000E-03 0.  1.
        -12    1    3    3    0    0  0.15059730183E+02  0.23111149112E+02 -0.26122296631E+02  0.37990723443E+02  0.00000000000E+00 0.  1.
</event>
<event>
 7    1  0.6061051E-012  0.5930190E+02  0.7816164E-02  0.1266605E+00
        -11   -1    0    0    0    0  0.00000000000E+00  0.00000000000E+00  0.45593999997E+02  0.45594000000E+02  0.51100000000E-03 0. -1.
         11   -1    0    0    0    0 -0.00000000000E+00 -0.00000000000E+00 -0.45593999997E+02  0.45594000000E+02  0.51100000000E-03 0.  1.
    9900012    2    1    2    0    0  0.29826055767E+02 -0.11113163167E+02 -0.19045302758E+01  0.59301902187E+02  0.49999923692E+02 0.  0.
         12    1    1    2    0    0 -0.29826055767E+02  0.11113163167E+02  0.19045302758E+01  0.31886097813E+02  0.00000000000E+00 0. -1.
         11    1    3    3    0    0 -0.25239628277E+01 -0.13670255154E+02 -0.43236717772E+01  0.14558173039E+02  0.51100000000E-03 0.  1.
        -11    1    3    3    0    0 -0.47747869185E+01  0.56069037306E+01 -0.48754631469E+00  0.73806274280E+01  0.51100000000E-03 0. -1.
        -12    1    3    3    0    0  0.37124805513E+02 -0.30498117426E+01  0.29066878161E+01  0.37363101720E+02  0.00000000000E+00 0.  1.
</event>
<event>
 7    1  0.6061051E-012  0.5930193E+02  0.7816164E-02  0.1266605E+00
        -11   -1    0    0    0    0  0.00000000000E+00  0.00000000000E+00  0.45593999997E+02  0.45594000000E+02  0.51100000000E-03 0.  1.
         11   -1    0    0    0    0 -0.00000000000E+00 -0.00000000000E+00 -0.45593999997E+02  0.45594000000E+02  0.51100000000E-03 0. -1.
    9900012    2    1    2    0    0  0.14320844584E+02  0.79019649748E+01  0.27371401303E+02  0.59301933303E+02  0.49999980441E+02 0.  0.
         12    1    1    2    0    0 -0.14320844584E+02 -0.79019649748E+01 -0.27371401303E+02  0.31886066697E+02  0.00000000000E+00 0. -1.
         11    1    3    3    0    0 -0.81172659377E+01  0.19305895518E+01  0.28856123877E+01  0.88285866045E+01  0.51100000000E-03 0. -1.
        -11    1    3    3    0    0 -0.13545122472E+01  0.12608349338E+02 -0.34909367125E+01  0.13152635320E+02  0.51100000000E-03 0.  1.
        -12    1    3    3    0    0  0.23792622769E+02 -0.66369739150E+01  0.27976725628E+02  0.37320711379E+02  0.00000000000E+00 0.  1.
</event>
<event>
 7    1  0.6061051E-012  0.5930204E+02  0.7816164E-02  0.1266604E+00
        -11   -1    0    0    0    0  0.00000000000E+00  0.00000000000E+00  0.45593999997E+02  0.45594000000E+02  0.51100000000E-03 0. -1.
         11   -1    0    0    0    0 -0.00000000000E+00 -0.00000000000E+00 -0.45593999997E+02  0.45594000000E+02  0.51100000000E-03 0.  1.
    9900012    2    1    2    0    0 -0.26359606767E+02  0.14995787476E+02 -0.98494524970E+01  0.59302043445E+02  0.50000181312E+02 0.  0.
         12    1    1    2    0    0  0.26359606767E+02 -0.14995787476E+02  0.98494524970E+01  0.31885956555E+02  0.00000000000E+00 0. -1.
         11    1    3    3    0    0 -0.34886310994E+01 -0.49273670553E+01  0.10215542090E+02  0.11866203837E+02  0.51100000000E-03 0. -1.
        -11    1    3    3    0    0  0.61615061826E+01  0.10844583108E+02 -0.44462811102E+01  0.13241546632E+02  0.51100000000E-03 0.  1.
        -12    1    3    3    0    0 -0.29032481851E+02  0.90785714233E+01 -0.15618713476E+02  0.34194292976E+02  0.00000000000E+00 0.  1.
</event>
<event>
 7    1  0.6061051E-012  0.5930195E+02  0.7816164E-02  0.1266605E+00
        -11   -1    0    0    0    0  0.00000000000E+00  0.00000000000E+00  0.45593999997E+02  0.45594000000E+02  0.51100000000E-03 0.  1.
         11   -1    0    0    0    0 -0.00000000000E+00 -0.00000000000E+00 -0.45593999997E+02  0.45594000000E+02  0.51100000000E-03 0. -1.
    9900012    2    1    2    0    0 -0.66567765947E+01  0.23927330302E+02  0.19997259655E+02  0.59301949700E+02  0.50000010345E+02 0.  0.
         12    1    1    2    0    0  0.66567765947E+01 -0.23927330302E+02 -0.19997259655E+02  0.31886050300E+02  0.00000000000E+00 0. -1.
         11    1    3    3    0    0 -0.13698357002E+02  0.15489344960E+02 -0.38362581865E+01  0.21030493788E+02  0.51100000000E-03 0. -1.
        -11    1    3    3    0    0 -0.33750237168E+01  0.13586936529E+02  0.22602140084E+02  0.26586695281E+02  0.51100000000E-03 0.  1.
         12    1    3    3    0    0  0.10416604124E+02 -0.51489511870E+01  0.12313777572E+01  0.11684760631E+02  0.00000000000E+00 0. -1.
</event>
<event>
 7    1  0.6061051E-012  0.5930194E+02  0.7816164E-02  0.1266605E+00
        -11   -1    0    0    0    0  0.00000000000E+00  0.00000000000E+00  0.45593999997E+02  0.45594000000E+02  0.51100000000E-03 0.  1.
         11   -1    0    0    0    0 -0.00000000000E+00 -0.00000000000E+00 -0.45593999997E+02  0.45594000000E+02  0.51100000000E-03 0. -1.
    9900012    2    1    2    0    0  0.90735323025E+01 -0.30537987133E+02 -0.13502614501E+01  0.59301939526E+02  0.49999991789E+02 0.  0.
         12    1    1    2    0    0 -0.90735323025E+01  0.30537987133E+02  0.13502614501E+01  0.31886060474E+02  0.00000000000E+00 0. -1.
         11    1    3    3    0    0  0.14786178182E+01  0.80954316392E+01  0.45524971108E+01  0.94046559895E+01  0.51100000000E-03 0. -1.
        -11    1    3    3    0    0 -0.29566550581E+01 -0.37657320860E+01 -0.12037859372E+02  0.12955022416E+02  0.51100000000E-03 0.  1.
        -12    1    3    3    0    0  0.10551569542E+02 -0.34867686686E+02  0.61351008116E+01  0.36942261120E+02  0.00000000000E+00 0.  1.
</event>
<event>
 7    1  0.6061051E-012  0.5930187E+02  0.7816164E-02  0.1266605E+00
        -11   -1    0    0    0    0  0.00000000000E+00  0.00000000000E+00  0.45593999997E+02  0.45594000000E+02  0.51100000000E-03 0. -1.
         11   -1    0    0    0    0 -0.00000000000E+00 -0.00000000000E+00 -0.45593999997E+02  0.45594000000E+02  0.51100000000E-03 0.  1.
    9900012    2    1    2    0    0  0.17575898079E+02  0.26238743596E+02 -0.43979244880E+01  0.59301865105E+02  0.49999856063E+02 0.  0.
         12    1    1    2    0    0 -0.17575898079E+02 -0.26238743596E+02  0.43979244880E+01  0.31886134895E+02  0.00000000000E+00 0. -1.
         11    1    3    3    0    0 -0.38254630975E+01 -0.13711137245E+01  0.98284650297E+01  0.10635452311E+02  0.51100000000E-03 0. -1.
        -11    1    3    3    0    0  0.58874462577E+01  0.60490951423E+01 -0.19801367733E+02  0.21525513695E+02  0.51100000000E-03 0.  1.
        -12    1    3    3    0    0  0.15513914919E+02  0.21560762178E+02  0.55749782151E+01  0.27140899099E+02  0.00000000000E+00 0.  1.
</event>
<event>
 7    1  0.6061051E-012  0.5930195E+02  0.7816164E-02  0.1266605E+00
        -11   -1    0    0    0    0  0.00000000000E+00  0.00000000000E+00  0.45593999997E+02  0.45594000000E+02  0.51100000000E-03 0. -1.
         11   -1    0    0    0    0 -0.00000000000E+00 -0.00000000000E+00 -0.45593999997E+02  0.45594000000E+02  0.51100000000E-03 0.  1.
    9900012    2    1    2    0    0  0.14576419363E+02  0.53445734950E+01 -0.27851097263E+02  0.59301951546E+02  0.50000013712E+02 0.  0.
         12    1    1    2    0    0 -0.14576419363E+02 -0.53445734950E+01  0.27851097263E+02  0.31886048454E+02  0.00000000000E+00 0. -1.
         11    1    3    3    0    0 -0.17042248991E+01  0.28703290470E+01 -0.33592050953E+01  0.47357608130E+01  0.51100000000E-03 0. -1.
        -11    1    3    3    0    0 -0.14190746057E+02  0.96051565453E+01 -0.56803581733E+01  0.18052777492E+02  0.51100000000E-03 0.  1.
         12    1    3    3    0    0  0.30471390319E+02 -0.71309120972E+01 -0.18811533994E+02  0.36513413241E+02  0.00000000000E+00 0. -1.
</event>
<event>
 7    1  0.6061051E-012  0.5930188E+02  0.7816164E-02  0.1266605E+00
        -11   -1    0    0    0    0  0.00000000000E+00  0.00000000000E+00  0.45593999997E+02  0.45594000000E+02  0.51100000000E-03 0.  1.
         11   -1    0    0    0    0 -0.00000000000E+00 -0.00000000000E+00 -0.45593999997E+02  0.45594000000E+02  0.51100000000E-03 0. -1.
    9900012    2    1    2    0    0  0.17201664390E+01  0.31757403332E+02  0.22876034869E+01  0.59301878118E+02  0.49999879795E+02 0.  0.
         12    1    1    2    0    0 -0.17201664390E+01 -0.31757403332E+02 -0.22876034869E+01  0.31886121882E+02  0.00000000000E+00 0. -1.
         11    1    3    3    0    0 -0.69631286790E+00 -0.38801959151E+01  0.13602825366E+01  0.41702686712E+01  0.51100000000E-03 0. -1.
        -11    1    3    3    0    0  0.16147916594E+02  0.29850718002E+01  0.91061699926E+01  0.18777331977E+02  0.51100000000E-03 0.  1.
         12    1    3    3    0    0 -0.13731437287E+02  0.32652527447E+02 -0.81788490422E+01  0.36354277469E+02  0.00000000000E+00 0. -1.
</event>
<event>
 7    1  0.6061051E-012  0.5930194E+02  0.7816164E-02  0.1266605E+00
        -11   -1    0    0    0    0  0.00000000000E+00  0.00000000000E+00  0.45593999997E+02  0.45594000000E+02  0.51100000000E-03 0.  1.
         11   -1    0    0    0    0 -0.00000000000E+00 -0.00000000000E+00 -0.45593999997E+02  0.45594000000E+02  0.51100000000E-03 0. -1.
    9900012    2    1    2    0    0 -0.15568971688E+02  0.92271082094E+01  0.26252401792E+02  0.59301937133E+02  0.49999987425E+02 0.  0.
         12    1    1    2    0    0  0.15568971688E+02 -0.92271082094E+01 -0.26252401792E+02  0.31886062867E+02  0.00000000000E+00 0. -1.
         11    1    3    3    0    0 -0.14051490309E+00 -0.96616052107E+01  0.11032332537E+02  0.14665562422E+02  0.51100000000E-03 0. -1.
        -11    1    3    3    0    0  0.83759948443E+01  0.17284785820E+01  0.12527050406E+02  0.15168121834E+02  0.51100000000E-03 0.  1.
         12    1    3    3    0    0 -0.23804451630E+02  0.17160234838E+02  0.26930188493E+01  0.29468252877E+02  0.00000000000E+00 0. -1.
</event>
<event>
 7    1  0.6061051E-012  0.5930197E+02  0.7816164E-02  0.1266605E+00
        -11   -1    0    0    0    0  0.00000000000E+00  0.00000000000E+00  0.45593999997E+02  0.45594000000E+02  0.51100000000E-03 0.  1.
         11   -1    0    0    0    0 -0.00000000000E+00 -0.00000000000E+00 -0.45593999997E+02  0.45594000000E+02  0.51100000000E-03 0. -1.
    9900012    2    1    2    0    0 -0.74508218697E+01 -0.24825818914E+01  0.30903740991E+02  0.59301965962E+02  0.50000040003E+02 0.  0.
         12    1    1    2    0    0  0.74508218697E+01  0.24825818914E+01 -0.30903740991E+02  0.31886034038E+02  0.00000000000E+00 0. -1.
         11    1    3    3    0    0  0.10893263264E+02 -0.32733634923E+01  0.25537648800E+02  0.27956208606E+02  0.51100000000E-03 0. -1.
        -11    1    3    3    0    0  0.20400932653E+01  0.71724234487E+01  0.65891304629E+01  0.99509938788E+01  0.51100000000E-03 0.  1.
         12    1    3    3    0    0 -0.20384178399E+02 -0.63816418478E+01 -0.12230382718E+01  0.21394763478E+02  0.00000000000E+00 0. -1.
</event>
<event>
 7    1  0.6061051E-012  0.5930194E+02  0.7816164E-02  0.1266605E+00
        -11   -1    0    0    0    0  0.00000000000E+00  0.00000000000E+00  0.45593999997E+02  0.45594000000E+02  0.51100000000E-03 0.  1.
         11   -1    0    0    0    0 -0.00000000000E+00 -0.00000000000E+00 -0.45593999997E+02  0.45594000000E+02  0.51100000000E-03 0. -1.
    9900012    2    1    2    0    0 -0.26596180176E+02 -0.16114536646E+02 -0.70487910472E+01  0.59301944325E+02  0.50000000542E+02 0.  0.
         12    1    1    2    0    0  0.26596180176E+02  0.16114536646E+02  0.70487910472E+01  0.31886055675E+02  0.00000000000E+00 0. -1.
         11    1    3    3    0    0 -0.13161124332E+02 -0.19953246453E+02  0.80102018072E+01  0.25209334996E+02  0.51100000000E-03 0. -1.
        -11    1    3    3    0    0 -0.50087164139E+01  0.88327072466E+00  0.79353060794E+01  0.94253111419E+01  0.51100000000E-03 0.  1.
        -12    1    3    3    0    0 -0.84263394306E+01  0.29554390826E+01 -0.22994298934E+02  0.24667298187E+02  0.00000000000E+00 0.  1.
</event>
<event>
 7    1  0.6061051E-012  0.5930192E+02  0.7816164E-02  0.1266605E+00
        -11   -1    0    0    0    0  0.00000000000E+00  0.00000000000E+00  0.45593999997E+02  0.45594000000E+02  0.51100000000E-03 0. -1.
         11   -1    0    0    0    0 -0.00000000000E+00 -0.00000000000E+00 -0.45593999997E+02  0.45594000000E+02  0.51100000000E-03 0.  1.
    9900012    2    1    2    0    0  0.12555013225E+02 -0.32312123438E+01 -0.29131646478E+02  0.59301922837E+02  0.49999961354E+02 0.  0.
         12    1    1    2    0    0 -0.12555013225E+02  0.32312123438E+01  0.29131646478E+02  0.31886077163E+02  0.00000000000E+00 0. -1.
         11    1    3    3    0    0 -0.12262878564E+01 -0.60179332204E+01  0.26253305809E+01  0.66791962894E+01  0.51100000000E-03 0.  1.
        -11    1    3    3    0    0  0.10421881330E+02 -0.59770896708E+00 -0.40953698144E+02  0.42263202179E+02  0.51100000000E-03 0. -1.
         12    1    3    3    0    0  0.33594197521E+01  0.33844298437E+01  0.91967210850E+01  0.10359524369E+02  0.00000000000E+00 0. -1.
</event>
<event>
 7    1  0.6061051E-012  0.5930195E+02  0.7816164E-02  0.1266605E+00
        -11   -1    0    0    0    0  0.00000000000E+00  0.00000000000E+00  0.45593999997E+02  0.45594000000E+02  0.51100000000E-03 0.  1.
         11   -1    0    0    0    0 -0.00000000000E+00 -0.00000000000E+00 -0.45593999997E+02  0.45594000000E+02  0.51100000000E-03 0. -1.
    9900012    2    1    2    0    0  0.21512989487E+02 -0.22918804673E+02 -0.53516487613E+01  0.59301945544E+02  0.50000002765E+02 0.  0.
         12    1    1    2    0    0 -0.21512989487E+02  0.22918804673E+02  0.53516487613E+01  0.31886054456E+02  0.00000000000E+00 0. -1.
         11    1    3    3    0    0  0.22921909785E+01 -0.68019905078E+01  0.50382497296E+01  0.87695595641E+01  0.51100000000E-03 0. -1.
        -11    1    3    3    0    0  0.23574830427E+01 -0.27456117705E+02 -0.12187366748E+02  0.30131844189E+02  0.51100000000E-03 0.  1.
         12    1    3    3    0    0  0.16863315465E+02  0.11339303539E+02  0.17974682571E+01  0.20400541791E+02  0.00000000000E+00 0. -1.
</event>
<event>
 7    1  0.6061051E-012  0.5930195E+02  0.7816164E-02  0.1266605E+00
        -11   -1    0    0    0    0  0.00000000000E+00  0.00000000000E+00  0.45593999997E+02  0.45594000000E+02  0.51100000000E-03 0. -1.
         11   -1    0    0    0    0 -0.00000000000E+00 -0.00000000000E+00 -0.45593999997E+02  0.45594000000E+02  0.51100000000E-03 0.  1.
    9900012    2    1    2    0    0 -0.34090311505E+01 -0.29887492905E+02 -0.10575277548E+02  0.59301949434E+02  0.50000009859E+02 0.  0.
         12    1    1    2    0    0  0.34090311505E+01  0.29887492905E+02  0.10575277548E+02  0.31886050566E+02  0.00000000000E+00 0. -1.
         11    1    3    3    0    0  0.38471381351E+01  0.56114815693E+01 -0.56751705263E+01  0.88598396147E+01  0.51100000000E-03 0. -1.
        -11    1    3    3    0    0  0.96835736812E+01 -0.54402313023E+01 -0.10737205692E+02  0.15448472487E+02  0.51100000000E-03 0.  1.
        -12    1    3    3    0    0 -0.16939742967E+02 -0.30058743172E+02  0.58370986700E+01  0.34993637332E+02  0.00000000000E+00 0.  1.
</event>
<event>
 7    1  0.6061051E-012  0.5930192E+02  0.7816164E-02  0.1266605E+00
        -11   -1    0    0    0    0  0.00000000000E+00  0.00000000000E+00  0.45593999997E+02  0.45594000000E+02  0.51100000000E-03 0.  1.
         11   -1    0    0    0    0 -0.00000000000E+00 -0.00000000000E+00 -0.45593999997E+02  0.45594000000E+02  0.51100000000E-03 0. -1.
    9900012    2    1    2    0    0 -0.12402295873E+02 -0.20458070861E+02  0.21080142139E+02  0.59301921551E+02  0.49999959007E+02 0.  0.
         12    1    1    2    0    0  0.12402295873E+02  0.20458070861E+02 -0.21080142139E+02  0.31886078449E+02  0.00000000000E+00 0. -1.
         11    1    3    3    0    0 -0.64473023274E+01 -0.20598470264E+02 -0.89818739374E+01  0.23378168110E+02  0.51100000000E-03 0. -1.
        -11    1    3    3    0    0  0.53729427049E+01  0.36195533169E+01  0.17470198756E+02  0.18632700404E+02  0.51100000000E-03 0.  1.
        -12    1    3    3    0    0 -0.11327936250E+02 -0.34791539142E+01  0.12591817321E+02  0.17291053036E+02  0.00000000000E+00 0.  1.
</event>
<event>
 7    1  0.6061051E-012  0.5930191E+02  0.7816164E-02  0.1266605E+00
        -11   -1    0    0    0    0  0.00000000000E+00  0.00000000000E+00  0.45593999997E+02  0.45594000000E+02  0.51100000000E-03 0.  1.
         11   -1    0    0    0    0 -0.00000000000E+00 -0.00000000000E+00 -0.45593999997E+02  0.45594000000E+02  0.51100000000E-03 0. -1.
    9900012    2    1    2    0    0 -0.20009022872E+02 -0.94381592210E+01  0.22962638748E+02  0.59301911748E+02  0.49999941129E+02 0.  0.
         12    1    1    2    0    0  0.20009022872E+02  0.94381592210E+01 -0.22962638748E+02  0.31886088252E+02  0.00000000000E+00 0. -1.
         11    1    3    3    0    0 -0.44824891643E+01 -0.73189988593E+01  0.10260038733E+02  0.13376428839E+02  0.51100000000E-03 0. -1.
        -11    1    3    3    0    0 -0.28660776290E+02  0.25696981399E+01  0.13844026528E+02  0.31932749911E+02  0.51100000000E-03 0.  1.
        -12    1    3    3    0    0  0.13134242583E+02 -0.46888585016E+01 -0.11414265134E+01  0.13992732998E+02  0.00000000000E+00 0.  1.
</event>
<event>
 7    1  0.6061051E-012  0.5930184E+02  0.7816164E-02  0.1266605E+00
        -11   -1    0    0    0    0  0.00000000000E+00  0.00000000000E+00  0.45593999997E+02  0.45594000000E+02  0.51100000000E-03 0.  1.
         11   -1    0    0    0    0 -0.00000000000E+00 -0.00000000000E+00 -0.45593999997E+02  0.45594000000E+02  0.51100000000E-03 0. -1.
    9900012    2    1    2    0    0  0.10884822612E+02  0.81631250583E+01 -0.28837673086E+02  0.59301837436E+02  0.49999805603E+02 0.  0.
         12    1    1    2    0    0 -0.10884822612E+02 -0.81631250583E+01  0.28837673086E+02  0.31886162564E+02  0.00000000000E+00 0. -1.
         11    1    3    3    0    0  0.68100508687E+01 -0.12059983366E+02 -0.15744397097E+02  0.20969168601E+02  0.51100000000E-03 0. -1.
        -11    1    3    3    0    0 -0.90290597022E+01  0.41171851346E+01  0.47075370698E+01  0.10983443816E+02  0.51100000000E-03 0.  1.
        -12    1    3    3    0    0  0.13103831445E+02  0.16105923290E+02 -0.17800813059E+02  0.27349225019E+02  0.00000000000E+00 0.  1.
</event>
<event>
 7    1  0.6061051E-012  0.5930192E+02  0.7816164E-02  0.1266605E+00
        -11   -1    0    0    0    0  0.00000000000E+00  0.00000000000E+00  0.45593999997E+02  0.45594000000E+02  0.51100000000E-03 0.  1.
         11   -1    0    0    0    0 -0.00000000000E+00 -0.00000000000E+00 -0.45593999997E+02  0.45594000000E+02  0.51100000000E-03 0. -1.
    9900012    2    1    2    0    0  0.25572231537E+02  0.14034416543E+02  0.12877047609E+02  0.59301917948E+02  0.49999952437E+02 0.  0.
         12    1    1    2    0    0 -0.25572231537E+02 -0.14034416543E+02 -0.12877047609E+02  0.31886082052E+02  0.00000000000E+00 0. -1.
         11    1    3    3    0    0  0.11464681873E+02 -0.11234330875E+02  0.33657966361E+01  0.16400539867E+02  0.51100000000E-03 0.  1.
        -11    1    3    3    0    0  0.19327853720E+02  0.29373635255E+02  0.73942673100E+01  0.35931206031E+02  0.51100000000E-03 0. -1.
         12    1    3    3    0    0 -0.52203040560E+01 -0.41048878364E+01  0.21169836627E+01  0.69701720506E+01  0.00000000000E+00 0. -1.
</event>
<event>
 7    1  0.6061051E-012  0.5930194E+02  0.7816164E-02  0.1266605E+00
        -11   -1    0    0    0    0  0.00000000000E+00  0.00000000000E+00  0.45593999997E+02  0.45594000000E+02  0.51100000000E-03 0.  1.
         11   -1    0    0    0    0 -0.00000000000E+00 -0.00000000000E+00 -0.45593999997E+02  0.45594000000E+02  0.51100000000E-03 0. -1.
    9900012    2    1    2    0    0 -0.11592665636E+02 -0.12953689628E+02  0.26730745695E+02  0.59301941339E+02  0.49999995096E+02 0.  0.
         12    1    1    2    0    0  0.11592665636E+02  0.12953689628E+02 -0.26730745695E+02  0.31886058661E+02  0.00000000000E+00 0. -1.
         11    1    3    3    0    0 -0.12293343820E+02 -0.11539746425E+02  0.10536117405E+02  0.19882198572E+02  0.51100000000E-03 0. -1.
        -11    1    3    3    0    0  0.21526775450E+01 -0.15907864096E+02  0.18693773185E+02  0.24640440679E+02  0.51100000000E-03 0.  1.
        -12    1    3    3    0    0 -0.14519993613E+01  0.14493920893E+02 -0.24991448946E+01  0.14779302088E+02  0.00000000000E+00 0.  1.
</event>
<event>
 7    1  0.6061051E-012  0.5930195E+02  0.7816164E-02  0.1266605E+00
        -11   -1    0    0    0    0  0.00000000000E+00  0.00000000000E+00  0.45593999997E+02  0.45594000000E+02  0.51100000000E-03 0. -1.
         11   -1    0    0    0    0 -0.00000000000E+00 -0.00000000000E+00 -0.45593999997E+02  0.45594000000E+02  0.51100000000E-03 0.  1.
    9900012    2    1    2    0    0  0.12455539867E+02  0.13520961895E+02  0.26053089052E+02  0.59301947672E+02  0.50000006646E+02 0.  0.
         12    1    1    2    0    0 -0.12455539867E+02 -0.13520961895E+02 -0.26053089052E+02  0.31886052328E+02  0.00000000000E+00 0. -1.
         11    1    3    3    0    0  0.44160982202E+01 -0.73730345400E+01  0.21939033664E+02  0.23562358969E+02  0.51100000000E-03 0. -1.
        -11    1    3    3    0    0  0.13548257593E+02 -0.21871761183E+00  0.30792066693E+01  0.13895489742E+02  0.51100000000E-03 0.  1.
        -12    1    3    3    0    0 -0.55088159459E+01  0.21112714047E+02  0.10348487187E+01  0.21844098961E+02  0.00000000000E+00 0.  1.
</event>
<event>
 7    1  0.6061051E-012  0.5930192E+02  0.7816164E-02  0.1266605E+00
        -11   -1    0    0    0    0  0.00000000000E+00  0.00000000000E+00  0.45593999997E+02  0.45594000000E+02  0.51100000000E-03 0. -1.
         11   -1    0    0    0    0 -0.00000000000E+00 -0.00000000000E+00 -0.45593999997E+02  0.45594000000E+02  0.51100000000E-03 0.  1.
    9900012    2    1    2    0    0  0.26459772302E+02 -0.29578422882E+01 -0.17545756502E+02  0.59301922278E+02  0.49999960333E+02 0.  0.
         12    1    1    2    0    0 -0.26459772302E+02  0.29578422882E+01  0.17545756502E+02  0.31886077722E+02  0.00000000000E+00 0. -1.
         11    1    3    3    0    0  0.28974841431E-01  0.47057585199E+01  0.83199214802E+01  0.95585614235E+01  0.51100000000E-03 0. -1.
        -11    1    3    3    0    0  0.12412412116E+02 -0.29008306841E+01  0.63850407681E+01  0.14256631407E+02  0.51100000000E-03 0.  1.
         12    1    3    3    0    0  0.14018385344E+02 -0.47627701239E+01 -0.32250718751E+02  0.35486729447E+02  0.00000000000E+00 0. -1.
</event>
<event>
 7    1  0.6061051E-012  0.5930190E+02  0.7816164E-02  0.1266605E+00
        -11   -1    0    0    0    0  0.00000000000E+00  0.00000000000E+00  0.45593999997E+02  0.45594000000E+02  0.51100000000E-03 0. -1.
         11   -1    0    0    0    0 -0.00000000000E+00 -0.00000000000E+00 -0.45593999997E+02  0.45594000000E+02  0.51100000000E-03 0.  1.
    9900012    2    1    2    0    0 -0.24581421557E+02  0.21236128312E+01 -0.20198205482E+02  0.59301897669E+02  0.49999915452E+02 0.  0.
         12    1    1    2    0    0  0.24581421557E+02 -0.21236128312E+01  0.20198205482E+02  0.31886102331E+02  0.00000000000E+00 0. -1.
         11    1    3    3    0    0 -0.17051683760E+02 -0.20519497119E+01  0.20943822327E+01  0.17301932085E+02  0.51100000000E-03 0. -1.
        -11    1    3    3    0    0 -0.16748341394E+02  0.10951699611E+02 -0.23061267766E+02  0.30533076082E+02  0.51100000000E-03 0.  1.
         12    1    3    3    0    0  0.92186035966E+01 -0.67761370678E+01  0.76868005126E+00  0.11466889502E+02  0.00000000000E+00 0. -1.
</event>
<event>
 7    1  0.6061051E-012  0.5930191E+02  0.7816164E-02  0.1266605E+00
        -11   -1    0    0    0    0  0.00000000000E+00  0.00000000000E+00  0.45593999997E+02  0.45594000000E+02  0.51100000000E-03 0.  1.
         11   -1    0    0    0    0 -0.00000000000E+00 -0.00000000000E+00 -0.45593999997E+02  0.45594000000E+02  0.51100000000E-03 0. -1.
    9900012    2    1    2    0    0 -0.13640261953E+02  0.22658046242E+02  0.17812329216E+02  0.59301907770E+02  0.49999933874E+02 0.  0.
         12    1    1    2    0    0  0.13640261953E+02 -0.22658046242E+02 -0.17812329216E+02  0.31886092230E+02  0.00000000000E+00 0. -1.
         11    1    3    3    0    0 -0.74798042243E+01 -0.21776822975E+01  0.71345130645E+01  0.10563666426E+02  0.51100000000E-03 0. -1.
        -11    1    3    3    0    0 -0.22238551827E+02  0.79886840649E+01  0.93499627281E+01  0.25412478504E+02  0.51100000000E-03 0.  1.
        -12    1    3    3    0    0  0.16078094098E+02  0.16847044474E+02  0.13278534232E+01  0.23325762840E+02  0.00000000000E+00 0.  1.
</event>
<event>
 7    1  0.6061051E-012  0.5930192E+02  0.7816164E-02  0.1266605E+00
        -11   -1    0    0    0    0  0.00000000000E+00  0.00000000000E+00  0.45593999997E+02  0.45594000000E+02  0.51100000000E-03 0.  1.
         11   -1    0    0    0    0 -0.00000000000E+00 -0.00000000000E+00 -0.45593999997E+02  0.45594000000E+02  0.51100000000E-03 0. -1.
    9900012    2    1    2    0    0 -0.10497338476E+02 -0.24284012801E+02  0.17799294569E+02  0.59301917143E+02  0.49999950968E+02 0.  0.
         12    1    1    2    0    0  0.10497338476E+02  0.24284012801E+02 -0.17799294569E+02  0.31886082857E+02  0.00000000000E+00 0. -1.
         11    1    3    3    0    0 -0.44525502557E+01 -0.19381808397E+01 -0.11057457252E+02  0.12076800482E+02  0.51100000000E-03 0. -1.
        -11    1    3    3    0    0 -0.12098000376E+02 -0.20807881791E+01  0.21637522262E+02  0.24877171512E+02  0.51100000000E-03 0.  1.
        -12    1    3    3    0    0  0.60532121563E+01 -0.20265043783E+02  0.72192295597E+01  0.22347945148E+02  0.00000000000E+00 0.  1.
</event>
<event>
 7    1  0.6061051E-012  0.5930195E+02  0.7816164E-02  0.1266605E+00
        -11   -1    0    0    0    0  0.00000000000E+00  0.00000000000E+00  0.45593999997E+02  0.45594000000E+02  0.51100000000E-03 0. -1.
         11   -1    0    0    0    0 -0.00000000000E+00 -0.00000000000E+00 -0.45593999997E+02  0.45594000000E+02  0.51100000000E-03 0.  1.
    9900012    2    1    2    0    0  0.29515325426E+01 -0.62912974700E+01 -0.31119574255E+02  0.59301954933E+02  0.50000019888E+02 0.  0.
         12    1    1    2    0    0 -0.29515325426E+01  0.62912974700E+01  0.31119574255E+02  0.31886045067E+02  0.00000000000E+00 0. -1.
         11    1    3    3    0    0 -0.44493468962E+01  0.10609467957E+02 -0.13634334028E+02  0.17839634603E+02  0.51100000000E-03 0. -1.
        -11    1    3    3    0    0  0.11765207816E+02  0.43128731367E+01 -0.15177323303E+02  0.19681771581E+02  0.51100000000E-03 0.  1.
        -12    1    3    3    0    0 -0.43643283775E+01 -0.21213638563E+02 -0.23079169240E+01  0.21780548749E+02  0.00000000000E+00 0.  1.
</event>
<event>
 7    1  0.6061051E-012  0.5930194E+02  0.7816164E-02  0.1266605E+00
        -11   -1    0    0    0    0  0.00000000000E+00  0.00000000000E+00  0.45593999997E+02  0.45594000000E+02  0.51100000000E-03 0.  1.
         11   -1    0    0    0    0 -0.00000000000E+00 -0.00000000000E+00 -0.45593999997E+02  0.45594000000E+02  0.51100000000E-03 0. -1.
    9900012    2    1    2    0    0 -0.60372908241E+01  0.17288903878E+02  0.26102987921E+02  0.59301936332E+02  0.49999985966E+02 0.  0.
         12    1    1    2    0    0  0.60372908241E+01 -0.17288903878E+02 -0.26102987921E+02  0.31886063668E+02  0.00000000000E+00 0. -1.
         11    1    3    3    0    0 -0.87961190381E+01  0.18820116471E+02 -0.85105625545E+01  0.22449903549E+02  0.51100000000E-03 0. -1.
        -11    1    3    3    0    0 -0.23487771605E+00 -0.59670249321E+01  0.98661813744E+01  0.11532653175E+02  0.51100000000E-03 0.  1.
        -12    1    3    3    0    0  0.29937059301E+01  0.44358123390E+01  0.24747369101E+02  0.25319379608E+02  0.00000000000E+00 0.  1.
</event>
<event>
 7    1  0.6061051E-012  0.5930191E+02  0.7816164E-02  0.1266605E+00
        -11   -1    0    0    0    0  0.00000000000E+00  0.00000000000E+00  0.45593999997E+02  0.45594000000E+02  0.51100000000E-03 0.  1.
         11   -1    0    0    0    0 -0.00000000000E+00 -0.00000000000E+00 -0.45593999997E+02  0.45594000000E+02  0.51100000000E-03 0. -1.
    9900012    2    1    2    0    0 -0.64554772229E+01 -0.22436299628E+01  0.31145073338E+02  0.59301911265E+02  0.49999940248E+02 0.  0.
         12    1    1    2    0    0  0.64554772229E+01  0.22436299628E+01 -0.31145073338E+02  0.31886088735E+02  0.00000000000E+00 0. -1.
         11    1    3    3    0    0 -0.11649402197E+02 -0.13254654975E+02  0.11521867460E+02  0.21074816252E+02  0.51100000000E-03 0. -1.
        -11    1    3    3    0    0 -0.10406044708E+02  0.36377710975E+01  0.17718260995E+02  0.20867580549E+02  0.51100000000E-03 0.  1.
         12    1    3    3    0    0  0.15599969682E+02  0.73732539146E+01  0.19049448833E+01  0.17359514463E+02  0.00000000000E+00 0. -1.
</event>
<event>
 7    1  0.6061051E-012  0.5930196E+02  0.7816164E-02  0.1266605E+00
        -11   -1    0    0    0    0  0.00000000000E+00  0.00000000000E+00  0.45593999997E+02  0.45594000000E+02  0.51100000000E-03 0.  1.
         11   -1    0    0    0    0 -0.00000000000E+00 -0.00000000000E+00 -0.45593999997E+02  0.45594000000E+02  0.51100000000E-03 0. -1.
    9900012    2    1    2    0    0  0.76182966778E+00  0.46462581363E+01  0.31536513991E+02  0.59301955814E+02  0.50000021496E+02 0.  0.
         12    1    1    2    0    0 -0.76182966778E+00 -0.46462581363E+01 -0.31536513991E+02  0.31886044186E+02  0.00000000000E+00 0. -1.
         11    1    3    3    0    0 -0.10462481418E+01  0.48787032231E+01  0.10152321834E+02  0.11312206646E+02  0.51100000000E-03 0. -1.
        -11    1    3    3    0    0 -0.17874370418E+02 -0.19301768540E+01  0.21765668987E+02  0.28230533953E+02  0.51100000000E-03 0.  1.
         12    1    3    3    0    0  0.19682448228E+02  0.16977317672E+01 -0.38147683024E+00  0.19759215216E+02  0.00000000000E+00 0. -1.
</event>
<event>
 7    1  0.6061051E-012  0.5930199E+02  0.7816164E-02  0.1266605E+00
        -11   -1    0    0    0    0  0.00000000000E+00  0.00000000000E+00  0.45593999997E+02  0.45594000000E+02  0.51100000000E-03 0.  1.
         11   -1    0    0    0    0 -0.00000000000E+00 -0.00000000000E+00 -0.45593999997E+02  0.45594000000E+02  0.51100000000E-03 0. -1.
    9900012    2    1    2    0    0  0.14509775835E+02  0.75406432924E+01  0.27373758162E+02  0.59301991596E+02  0.50000086753E+02 0.  0.
         12    1    1    2    0    0 -0.14509775835E+02 -0.75406432924E+01 -0.27373758162E+02  0.31886008404E+02  0.00000000000E+00 0. -1.
         11    1    3    3    0    0  0.49660618386E+01  0.34675408095E+01 -0.53256798962E+01  0.80652635461E+01  0.51100000000E-03 0. -1.
        -11    1    3    3    0    0  0.63443351943E+01 -0.15258421626E+02  0.49194328423E+01  0.17241543995E+02  0.51100000000E-03 0.  1.
        -12    1    3    3    0    0  0.31993788022E+01  0.19331524109E+02  0.27780005216E+02  0.33995184054E+02  0.00000000000E+00 0.  1.
</event>
<event>
 7    1  0.6061051E-012  0.5930195E+02  0.7816164E-02  0.1266605E+00
        -11   -1    0    0    0    0  0.00000000000E+00  0.00000000000E+00  0.45593999997E+02  0.45594000000E+02  0.51100000000E-03 0.  1.
         11   -1    0    0    0    0 -0.00000000000E+00 -0.00000000000E+00 -0.45593999997E+02  0.45594000000E+02  0.51100000000E-03 0. -1.
    9900012    2    1    2    0    0 -0.16849340853E+01  0.27654221645E+02  0.15783706867E+02  0.59301946934E+02  0.50000005300E+02 0.  0.
         12    1    1    2    0    0  0.16849340853E+01 -0.27654221645E+02 -0.15783706867E+02  0.31886053066E+02  0.00000000000E+00 0. -1.
         11    1    3    3    0    0 -0.52540997284E+00 -0.17432808815E+00 -0.96693846736E+01  0.96852179196E+01  0.51100000000E-03 0. -1.
        -11    1    3    3    0    0 -0.10453683603E+02 -0.42174112299E+00 -0.14867975949E-01  0.10462198037E+02  0.51100000000E-03 0.  1.
        -12    1    3    3    0    0  0.92941594905E+01  0.28250290856E+02  0.25467959517E+02  0.39154530977E+02  0.00000000000E+00 0.  1.
</event>
<event>
 7    1  0.6061051E-012  0.5930194E+02  0.7816164E-02  0.1266605E+00
        -11   -1    0    0    0    0  0.00000000000E+00  0.00000000000E+00  0.45593999997E+02  0.45594000000E+02  0.51100000000E-03 0.  1.
         11   -1    0    0    0    0 -0.00000000000E+00 -0.00000000000E+00 -0.45593999997E+02  0.45594000000E+02  0.51100000000E-03 0. -1.
    9900012    2    1    2    0    0 -0.24561160827E+02  0.20241263318E+02 -0.19394900586E+01  0.59301937471E+02  0.49999988043E+02 0.  0.
         12    1    1    2    0    0  0.24561160827E+02 -0.20241263318E+02  0.19394900586E+01  0.31886062529E+02  0.00000000000E+00 0. -1.
         11    1    3    3    0    0  0.53675525496E+01  0.42918284386E+01  0.32300082276E+01  0.75936397815E+01  0.51100000000E-03 0. -1.
        -11    1    3    3    0    0  0.44192648372E+01  0.15569349666E+02 -0.62294312980E+01  0.17341867410E+02  0.51100000000E-03 0.  1.
         12    1    3    3    0    0 -0.34347978214E+02  0.38008521352E+00  0.10599330118E+01  0.34366430279E+02  0.00000000000E+00 0. -1.
</event>
<event>
 7    1  0.6061051E-012  0.5930192E+02  0.7816164E-02  0.1266605E+00
        -11   -1    0    0    0    0  0.00000000000E+00  0.00000000000E+00  0.45593999997E+02  0.45594000000E+02  0.51100000000E-03 0.  1.
         11   -1    0    0    0    0 -0.00000000000E+00 -0.00000000000E+00 -0.45593999997E+02  0.45594000000E+02  0.51100000000E-03 0. -1.
    9900012    2    1    2    0    0  0.16590111605E+02  0.23827212454E+02 -0.13181586805E+02  0.59301920167E+02  0.49999956484E+02 0.  0.
         12    1    1    2    0    0 -0.16590111605E+02 -0.23827212454E+02  0.13181586805E+02  0.31886079833E+02  0.00000000000E+00 0. -1.
         11    1    3    3    0    0  0.11931173590E+02  0.98805113338E+01 -0.95634804357E+01  0.18205426822E+02  0.51100000000E-03 0. -1.
        -11    1    3    3    0    0 -0.35687881610E+01  0.25681138544E+02 -0.58833754281E+01  0.26587050091E+02  0.51100000000E-03 0.  1.
         12    1    3    3    0    0  0.82277261752E+01 -0.11734437423E+02  0.22652690590E+01  0.14509443255E+02  0.00000000000E+00 0. -1.
</event>
<event>
 7    1  0.6061051E-012  0.5930197E+02  0.7816164E-02  0.1266605E+00
        -11   -1    0    0    0    0  0.00000000000E+00  0.00000000000E+00  0.45593999997E+02  0.45594000000E+02  0.51100000000E-03 0.  1.
         11   -1    0    0    0    0 -0.00000000000E+00 -0.00000000000E+00 -0.45593999997E+02  0.45594000000E+02  0.51100000000E-03 0. -1.
    9900012    2    1    2    0    0  0.11829115729E+02 -0.87015448301E-02  0.29610657053E+02  0.59301967544E+02  0.50000042889E+02 0.  0.
         12    1    1    2    0    0 -0.11829115729E+02  0.87015448301E-02 -0.29610657053E+02  0.31886032456E+02  0.00000000000E+00 0. -1.
         11    1    3    3    0    0 -0.10889067346E+02  0.37893809622E+01  0.13839584858E+02  0.18012920503E+02  0.51100000000E-03 0. -1.
        -11    1    3    3    0    0  0.92865956775E+01  0.10950591258E+02  0.15788441035E+02  0.21340833600E+02  0.51100000000E-03 0.  1.
         12    1    3    3    0    0  0.13431587397E+02 -0.14748673765E+02 -0.17368839981E-01  0.19948213441E+02  0.00000000000E+00 0. -1.
</event>
<event>
 7    1  0.6061051E-012  0.5930193E+02  0.7816164E-02  0.1266605E+00
        -11   -1    0    0    0    0  0.00000000000E+00  0.00000000000E+00  0.45593999997E+02  0.45594000000E+02  0.51100000000E-03 0. -1.
         11   -1    0    0    0    0 -0.00000000000E+00 -0.00000000000E+00 -0.45593999997E+02  0.45594000000E+02  0.51100000000E-03 0.  1.
    9900012    2    1    2    0    0 -0.29767629862E+02 -0.11079470242E+02 -0.28027241362E+01  0.59301926065E+02  0.49999967240E+02 0.  0.
         12    1    1    2    0    0  0.29767629862E+02  0.11079470242E+02  0.28027241362E+01  0.31886073935E+02  0.00000000000E+00 0. -1.
         11    1    3    3    0    0 -0.43383198336E+01 -0.14451370119E+02 -0.99844162827E+01  0.18092862849E+02  0.51100000000E-03 0. -1.
        -11    1    3    3    0    0 -0.19213384084E+02  0.14181021458E+01 -0.10797865644E+02  0.22085267587E+02  0.51100000000E-03 0.  1.
         12    1    3    3    0    0 -0.62159259438E+01  0.19537977311E+01  0.17979557791E+02  0.19123795629E+02  0.00000000000E+00 0. -1.
</event>
<event>
 7    1  0.6061051E-012  0.5930194E+02  0.7816164E-02  0.1266605E+00
        -11   -1    0    0    0    0  0.00000000000E+00  0.00000000000E+00  0.45593999997E+02  0.45594000000E+02  0.51100000000E-03 0. -1.
         11   -1    0    0    0    0 -0.00000000000E+00 -0.00000000000E+00 -0.45593999997E+02  0.45594000000E+02  0.51100000000E-03 0.  1.
    9900012    2    1    2    0    0  0.30177194678E+02 -0.41599051608E+01 -0.94208696396E+01  0.59301942321E+02  0.49999996887E+02 0.  0.
         12    1    1    2    0    0 -0.30177194678E+02  0.41599051608E+01  0.94208696396E+01  0.31886057679E+02  0.00000000000E+00 0. -1.
         11    1    3    3    0    0 -0.76350734494E+01 -0.22969335296E+00 -0.24054944355E+00  0.76423144341E+01  0.51100000000E-03 0. -1.
        -11    1    3    3    0    0  0.21492383146E+02  0.28419136050E+01 -0.21174199317E+02  0.30304219561E+02  0.51100000000E-03 0.  1.
         12    1    3    3    0    0  0.16319884981E+02 -0.67721254129E+01  0.11993879120E+02  0.21355408326E+02  0.00000000000E+00 0. -1.
</event>
<event>
 7    1  0.6061051E-012  0.5930192E+02  0.7816164E-02  0.1266605E+00
        -11   -1    0    0    0    0  0.00000000000E+00  0.00000000000E+00  0.45593999997E+02  0.45594000000E+02  0.51100000000E-03 0. -1.
         11   -1    0    0    0    0 -0.00000000000E+00 -0.00000000000E+00 -0.45593999997E+02  0.45594000000E+02  0.51100000000E-03 0.  1.
    9900012    2    1    2    0    0 -0.40669874851E+01 -0.18524177698E+02 -0.25632721103E+02  0.59301922509E+02  0.49999960756E+02 0.  0.
         12    1    1    2    0    0  0.40669874851E+01  0.18524177698E+02  0.25632721103E+02  0.31886077491E+02  0.00000000000E+00 0. -1.
         11    1    3    3    0    0 -0.12068141195E+02  0.35848493875E+01  0.75753942267E+01  0.14692779688E+02  0.51100000000E-03 0. -1.
        -11    1    3    3    0    0 -0.56104281797E+00 -0.16882568966E+02 -0.10776439911E+02  0.20036655443E+02  0.51100000000E-03 0.  1.
        -12    1    3    3    0    0  0.85621965274E+01 -0.52264581196E+01 -0.22431675418E+02  0.24572487378E+02  0.00000000000E+00 0.  1.
</event>
<event>
 7    1  0.6061051E-012  0.5930195E+02  0.7816164E-02  0.1266605E+00
        -11   -1    0    0    0    0  0.00000000000E+00  0.00000000000E+00  0.45593999997E+02  0.45594000000E+02  0.51100000000E-03 0.  1.
         11   -1    0    0    0    0 -0.00000000000E+00 -0.00000000000E+00 -0.45593999997E+02  0.45594000000E+02  0.51100000000E-03 0. -1.
    9900012    2    1    2    0    0  0.21324100743E+02  0.17063025605E+02  0.16457711691E+02  0.59301946788E+02  0.50000005035E+02 0.  0.
         12    1    1    2    0    0 -0.21324100743E+02 -0.17063025605E+02 -0.16457711691E+02  0.31886053212E+02  0.00000000000E+00 0. -1.
         11    1    3    3    0    0  0.10188339337E+02 -0.59132179840E+01 -0.90255449545E+01  0.14840110086E+02  0.51100000000E-03 0.  1.
        -11    1    3    3    0    0  0.20299995332E+01  0.19363876172E+02  0.26929534346E+01  0.19655345252E+02  0.51100000000E-03 0. -1.
         12    1    3    3    0    0  0.91057618732E+01  0.36123674174E+01  0.22790303211E+02  0.24806491451E+02  0.00000000000E+00 0. -1.
</event>
<event>
 7    1  0.6061051E-012  0.5930194E+02  0.7816164E-02  0.1266605E+00
        -11   -1    0    0    0    0  0.00000000000E+00  0.00000000000E+00  0.45593999997E+02  0.45594000000E+02  0.51100000000E-03 0.  1.
         11   -1    0    0    0    0 -0.00000000000E+00 -0.00000000000E+00 -0.45593999997E+02  0.45594000000E+02  0.51100000000E-03 0. -1.
    9900012    2    1    2    0    0 -0.27777877093E+02  0.31257212444E+01  0.15340808541E+02  0.59301937280E+02  0.49999987693E+02 0.  0.
         12    1    1    2    0    0  0.27777877093E+02 -0.31257212444E+01 -0.15340808541E+02  0.31886062720E+02  0.00000000000E+00 0. -1.
         11    1    3    3    0    0 -0.33976125139E+00 -0.14151470016E+02  0.12490786842E+02  0.18878540662E+02  0.51100000000E-03 0. -1.
        -11    1    3    3    0    0  0.24885439965E+01  0.82875581272E+01  0.30504466767E+01  0.91750583716E+01  0.51100000000E-03 0.  1.
        -12    1    3    3    0    0 -0.29926659838E+02  0.89896331336E+01 -0.20042497830E+00  0.31248338246E+02  0.00000000000E+00 0.  1.
</event>
<event>
 7    1  0.6061051E-012  0.5930194E+02  0.7816164E-02  0.1266605E+00
        -11   -1    0    0    0    0  0.00000000000E+00  0.00000000000E+00  0.45593999997E+02  0.45594000000E+02  0.51100000000E-03 0. -1.
         11   -1    0    0    0    0 -0.00000000000E+00 -0.00000000000E+00 -0.45593999997E+02  0.45594000000E+02  0.51100000000E-03 0.  1.
    9900012    2    1    2    0    0 -0.13934002280E+02 -0.85154795865E+01 -0.27387054713E+02  0.59301943832E+02  0.49999999643E+02 0.  0.
         12    1    1    2    0    0  0.13934002280E+02  0.85154795865E+01  0.27387054713E+02  0.31886056168E+02  0.00000000000E+00 0. -1.
         11    1    3    3    0    0  0.31991265916E+01 -0.29842317938E+01 -0.13868075515E+02  0.14541786998E+02  0.51100000000E-03 0. -1.
        -11    1    3    3    0    0  0.11996721010E+02 -0.60540431136E+01 -0.28726264604E+01  0.13741351318E+02  0.51100000000E-03 0.  1.
        -12    1    3    3    0    0 -0.29129849881E+02  0.52279532095E+00 -0.10646352738E+02  0.31018805516E+02  0.00000000000E+00 0.  1.
</event>
<event>
 7    1  0.6061051E-012  0.5930193E+02  0.7816164E-02  0.1266605E+00
        -11   -1    0    0    0    0  0.00000000000E+00  0.00000000000E+00  0.45593999997E+02  0.45594000000E+02  0.51100000000E-03 0.  1.
         11   -1    0    0    0    0 -0.00000000000E+00 -0.00000000000E+00 -0.45593999997E+02  0.45594000000E+02  0.51100000000E-03 0. -1.
    9900012    2    1    2    0    0  0.83578003842E+01  0.23812451548E+02  0.19489370571E+02  0.59301933432E+02  0.49999980675E+02 0.  0.
         12    1    1    2    0    0 -0.83578003842E+01 -0.23812451548E+02 -0.19489370571E+02  0.31886066568E+02  0.00000000000E+00 0. -1.
         11    1    3    3    0    0 -0.75645875930E+01  0.95782780924E+01 -0.93076409816E+00  0.12240617580E+02  0.51100000000E-03 0. -1.
        -11    1    3    3    0    0 -0.52970002992E+01  0.95984602560E+01 -0.62864560379E+01  0.12637570227E+02  0.51100000000E-03 0.  1.
        -12    1    3    3    0    0  0.21219388276E+02  0.46357131993E+01  0.26706590707E+02  0.34423745625E+02  0.00000000000E+00 0.  1.
</event>
<event>
 7    1  0.6061051E-012  0.5930196E+02  0.7816164E-02  0.1266605E+00
        -11   -1    0    0    0    0  0.00000000000E+00  0.00000000000E+00  0.45593999997E+02  0.45594000000E+02  0.51100000000E-03 0.  1.
         11   -1    0    0    0    0 -0.00000000000E+00 -0.00000000000E+00 -0.45593999997E+02  0.45594000000E+02  0.51100000000E-03 0. -1.
    9900012    2    1    2    0    0  0.12479652247E+01  0.25763097833E+01  0.31757283325E+02  0.59301955506E+02  0.50000020933E+02 0.  0.
         12    1    1    2    0    0 -0.12479652247E+01 -0.25763097833E+01 -0.31757283325E+02  0.31886044494E+02  0.00000000000E+00 0. -1.
         11    1    3    3    0    0  0.16182209393E+01  0.66546521205E+01  0.14423675124E+02  0.15967010935E+02  0.51100000000E-03 0. -1.
        -11    1    3    3    0    0 -0.44478510743E+01 -0.20575265271E+02  0.15705365463E+02  0.26263728310E+02  0.51100000000E-03 0.  1.
         12    1    3    3    0    0  0.40775953597E+01  0.16496922934E+02  0.16282427378E+01  0.17071216261E+02  0.00000000000E+00 0. -1.
</event>
<event>
 7    1  0.6061051E-012  0.5930196E+02  0.7816164E-02  0.1266605E+00
        -11   -1    0    0    0    0  0.00000000000E+00  0.00000000000E+00  0.45593999997E+02  0.45594000000E+02  0.51100000000E-03 0.  1.
         11   -1    0    0    0    0 -0.00000000000E+00 -0.00000000000E+00 -0.45593999997E+02  0.45594000000E+02  0.51100000000E-03 0. -1.
    9900012    2    1    2    0    0  0.17076244027E+02 -0.26553948601E+02  0.44731464044E+01  0.59301963320E+02  0.50000035185E+02 0.  0.
         12    1    1    2    0    0 -0.17076244027E+02  0.26553948601E+02 -0.44731464044E+01  0.31886036680E+02  0.00000000000E+00 0. -1.
         11    1    3    3    0    0 -0.15311222806E+01  0.68789539751E+01  0.66714731222E+01  0.97042721062E+01  0.51100000000E-03 0. -1.
        -11    1    3    3    0    0  0.95491629124E+01 -0.17169291235E+02  0.14636180650E+02  0.24498752175E+02  0.51100000000E-03 0.  1.
         12    1    3    3    0    0  0.90582033947E+01 -0.16263611341E+02 -0.16834507368E+02  0.25098939039E+02  0.00000000000E+00 0. -1.
</event>
<event>
 7    1  0.6061051E-012  0.5930197E+02  0.7816164E-02  0.1266605E+00
        -11   -1    0    0    0    0  0.00000000000E+00  0.00000000000E+00  0.45593999997E+02  0.45594000000E+02  0.51100000000E-03 0.  1.
         11   -1    0    0    0    0 -0.00000000000E+00 -0.00000000000E+00 -0.45593999997E+02  0.45594000000E+02  0.51100000000E-03 0. -1.
    9900012    2    1    2    0    0 -0.17566838349E+02  0.22153039732E+02  0.14743401178E+02  0.59301970814E+02  0.50000048852E+02 0.  0.
         12    1    1    2    0    0  0.17566838349E+02 -0.22153039732E+02 -0.14743401178E+02  0.31886029186E+02  0.00000000000E+00 0. -1.
         11    1    3    3    0    0 -0.21453709569E+02  0.49367481094E+01  0.20143631402E+02  0.29839554663E+02  0.51100000000E-03 0. -1.
        -11    1    3    3    0    0 -0.67625838129E+00 -0.12190373548E+01  0.67659353731E+01  0.69080575566E+01  0.51100000000E-03 0.  1.
         12    1    3    3    0    0  0.45631296009E+01  0.18435328978E+02 -0.12166165597E+02  0.22554358595E+02  0.00000000000E+00 0. -1.
</event>
<event>
 7    1  0.6061051E-012  0.5930193E+02  0.7816164E-02  0.1266605E+00
        -11   -1    0    0    0    0  0.00000000000E+00  0.00000000000E+00  0.45593999997E+02  0.45594000000E+02  0.51100000000E-03 0.  1.
         11   -1    0    0    0    0 -0.00000000000E+00 -0.00000000000E+00 -0.45593999997E+02  0.45594000000E+02  0.51100000000E-03 0. -1.
    9900012    2    1    2    0    0  0.16965056935E+02  0.25672662268E+02  0.83560146658E+01  0.59301925832E+02  0.49999966816E+02 0.  0.
         12    1    1    2    0    0 -0.16965056935E+02 -0.25672662268E+02 -0.83560146658E+01  0.31886074168E+02  0.00000000000E+00 0. -1.
         11    1    3    3    0    0  0.65204877332E+01 -0.33880931587E+01 -0.37038285423E+01  0.82288687960E+01  0.51100000000E-03 0. -1.
        -11    1    3    3    0    0  0.19407642534E+02  0.20556272142E+01  0.11420499062E+02  0.22612164670E+02  0.51100000000E-03 0.  1.
        -12    1    3    3    0    0 -0.89630733323E+01  0.27005128213E+02  0.63934414657E+00  0.28460892366E+02  0.00000000000E+00 0.  1.
</event>
<event>
 7    1  0.6061051E-012  0.5930175E+02  0.7816164E-02  0.1266605E+00
        -11   -1    0    0    0    0  0.00000000000E+00  0.00000000000E+00  0.45593999997E+02  0.45594000000E+02  0.51100000000E-03 0.  1.
         11   -1    0    0    0    0 -0.00000000000E+00 -0.00000000000E+00 -0.45593999997E+02  0.45594000000E+02  0.51100000000E-03 0. -1.
    9900012    2    1    2    0    0  0.28836925192E+02  0.92375182144E+01  0.99916347030E+01  0.59301752787E+02  0.49999651222E+02 0.  0.
         12    1    1    2    0    0 -0.28836925192E+02 -0.92375182144E+01 -0.99916347030E+01  0.31886247213E+02  0.00000000000E+00 0. -1.
         11    1    3    3    0    0  0.52044023016E+01  0.16678070612E+02  0.13928487496E+01  0.17526661706E+02  0.51100000000E-03 0. -1.
        -11    1    3    3    0    0  0.26483879913E+02  0.46857725498E+01  0.46787198342E+00  0.26899279992E+02  0.51100000000E-03 0.  1.
        -12    1    3    3    0    0 -0.28513570227E+01 -0.12126324947E+02  0.81309139700E+01  0.14875811090E+02  0.00000000000E+00 0.  1.
</event>
<event>
 7    1  0.6061051E-012  0.5930194E+02  0.7816164E-02  0.1266605E+00
        -11   -1    0    0    0    0  0.00000000000E+00  0.00000000000E+00  0.45593999997E+02  0.45594000000E+02  0.51100000000E-03 0. -1.
         11   -1    0    0    0    0 -0.00000000000E+00 -0.00000000000E+00 -0.45593999997E+02  0.45594000000E+02  0.51100000000E-03 0.  1.
    9900012    2    1    2    0    0  0.18199001706E+01 -0.27403047041E+02 -0.16201293364E+02  0.59301938304E+02  0.49999989562E+02 0.  0.
         12    1    1    2    0    0 -0.18199001706E+01  0.27403047041E+02  0.16201293364E+02  0.31886061696E+02  0.00000000000E+00 0. -1.
         11    1    3    3    0    0  0.16658202146E+02  0.20753401927E+01 -0.14088914252E+01  0.16845999851E+02  0.51100000000E-03 0. -1.
        -11    1    3    3    0    0  0.27936413640E+01 -0.48409622941E+01  0.39377327039E+01  0.68370378902E+01  0.51100000000E-03 0.  1.
        -12    1    3    3    0    0 -0.17631943340E+02 -0.24637424940E+02 -0.18730134643E+02  0.35618900563E+02  0.00000000000E+00 0.  1.
</event>
<event>
 7    1  0.6061051E-012  0.5930202E+02  0.7816164E-02  0.1266604E+00
        -11   -1    0    0    0    0  0.00000000000E+00  0.00000000000E+00  0.45593999997E+02  0.45594000000E+02  0.51100000000E-03 0. -1.
         11   -1    0    0    0    0 -0.00000000000E+00 -0.00000000000E+00 -0.45593999997E+02  0.45594000000E+02  0.51100000000E-03 0.  1.
    9900012    2    1    2    0    0  0.29978683558E+00 -0.47847794677E+01 -0.31523506624E+02  0.59302024140E+02  0.50000146105E+02 0.  0.
         12    1    1    2    0    0 -0.29978683558E+00  0.47847794677E+01  0.31523506624E+02  0.31885975860E+02  0.00000000000E+00 0. -1.
         11    1    3    3    0    0  0.51092732489E+00  0.17195198532E+02 -0.75115129672E+01  0.18771220701E+02  0.51100000000E-03 0. -1.
        -11    1    3    3    0    0  0.10569853195E+02 -0.45204103745E+01 -0.12579250365E+02  0.17040934438E+02  0.51100000000E-03 0.  1.
        -12    1    3    3    0    0 -0.10780993684E+02 -0.17459567626E+02 -0.11432743292E+02  0.23489869001E+02  0.00000000000E+00 0.  1.
</event>
<event>
 7    1  0.6061051E-012  0.5930194E+02  0.7816164E-02  0.1266605E+00
        -11   -1    0    0    0    0  0.00000000000E+00  0.00000000000E+00  0.45593999997E+02  0.45594000000E+02  0.51100000000E-03 0. -1.
         11   -1    0    0    0    0 -0.00000000000E+00 -0.00000000000E+00 -0.45593999997E+02  0.45594000000E+02  0.51100000000E-03 0.  1.
    9900012    2    1    2    0    0  0.82817223392E+01  0.18624717161E+01 -0.30735402026E+02  0.59301942490E+02  0.49999997196E+02 0.  0.
         12    1    1    2    0    0 -0.82817223392E+01 -0.18624717161E+01  0.30735402026E+02  0.31886057510E+02  0.00000000000E+00 0. -1.
         11    1    3    3    0    0 -0.27824993611E+00 -0.74148737645E+01  0.11270568612E+01  0.75052004237E+01  0.51100000000E-03 0. -1.
        -11    1    3    3    0    0  0.17313562440E+02  0.28286880814E+01  0.60871626625E+00  0.17553673587E+02  0.51100000000E-03 0.  1.
        -12    1    3    3    0    0 -0.87535901650E+01  0.64486573992E+01 -0.32471175154E+02  0.34243068480E+02  0.00000000000E+00 0.  1.
</event>
<event>
 7    1  0.6061051E-012  0.5930191E+02  0.7816164E-02  0.1266605E+00
        -11   -1    0    0    0    0  0.00000000000E+00  0.00000000000E+00  0.45593999997E+02  0.45594000000E+02  0.51100000000E-03 0. -1.
         11   -1    0    0    0    0 -0.00000000000E+00 -0.00000000000E+00 -0.45593999997E+02  0.45594000000E+02  0.51100000000E-03 0.  1.
    9900012    2    1    2    0    0 -0.31532392471E+02 -0.32203150978E+01 -0.34728665823E+01  0.59301905749E+02  0.49999930189E+02 0.  0.
         12    1    1    2    0    0  0.31532392471E+02  0.32203150978E+01  0.34728665823E+01  0.31886094251E+02  0.00000000000E+00 0. -1.
         11    1    3    3    0    0  0.34791846378E+01 -0.82131746940E-02  0.11678262848E+02  0.12185508467E+02  0.51100000000E-03 0. -1.
        -11    1    3    3    0    0 -0.13906124030E+02 -0.13358757576E+02 -0.10843995825E+00  0.19283372345E+02  0.51100000000E-03 0.  1.
        -12    1    3    3    0    0 -0.21105453079E+02  0.10146655653E+02 -0.15042689472E+02  0.27833024937E+02  0.00000000000E+00 0.  1.
</event>
<event>
 7    1  0.6061051E-012  0.5930194E+02  0.7816164E-02  0.1266605E+00
        -11   -1    0    0    0    0  0.00000000000E+00  0.00000000000E+00  0.45593999997E+02  0.45594000000E+02  0.51100000000E-03 0. -1.
         11   -1    0    0    0    0 -0.00000000000E+00 -0.00000000000E+00 -0.45593999997E+02  0.45594000000E+02  0.51100000000E-03 0.  1.
    9900012    2    1    2    0    0  0.29000988625E+01 -0.13722042630E+02 -0.28635916718E+02  0.59301941077E+02  0.49999994619E+02 0.  0.
         12    1    1    2    0    0 -0.29000988625E+01  0.13722042630E+02  0.28635916718E+02  0.31886058923E+02  0.00000000000E+00 0. -1.
         11    1    3    3    0    0  0.17295239725E+02  0.35268526221E+00 -0.42057655523E+01  0.17802757320E+02  0.51100000000E-03 0. -1.
        -11    1    3    3    0    0  0.81736002455E+00  0.66021210109E+01 -0.96834530570E+00  0.67226313408E+01  0.51100000000E-03 0.  1.
        -12    1    3    3    0    0 -0.15212500887E+02 -0.20676848903E+02 -0.23461805860E+02  0.34776552417E+02  0.00000000000E+00 0.  1.
</event>
<event>
 7    1  0.6061051E-012  0.5930189E+02  0.7816164E-02  0.1266605E+00
        -11   -1    0    0    0    0  0.00000000000E+00  0.00000000000E+00  0.45593999997E+02  0.45594000000E+02  0.51100000000E-03 0.  1.
         11   -1    0    0    0    0 -0.00000000000E+00 -0.00000000000E+00 -0.45593999997E+02  0.45594000000E+02  0.51100000000E-03 0. -1.
    9900012    2    1    2    0    0 -0.12038805300E+02 -0.27725743491E+02  0.10152561685E+02  0.59301887130E+02  0.49999896232E+02 0.  0.
         12    1    1    2    0    0  0.12038805300E+02  0.27725743491E+02 -0.10152561685E+02  0.31886112870E+02  0.00000000000E+00 0. -1.
         11    1    3    3    0    0 -0.81675277911E+01 -0.13068855124E+02 -0.32230027606E+01  0.15744561967E+02  0.51100000000E-03 0. -1.
        -11    1    3    3    0    0  0.10462405897E+01 -0.21068809109E+02 -0.65233008698E+01  0.22080371173E+02  0.51100000000E-03 0.  1.
         12    1    3    3    0    0 -0.49175180986E+01  0.64119207416E+01  0.19898865316E+02  0.21476953990E+02  0.00000000000E+00 0. -1.
</event>
<event>
 7    1  0.6061051E-012  0.5930198E+02  0.7816164E-02  0.1266605E+00
        -11   -1    0    0    0    0  0.00000000000E+00  0.00000000000E+00  0.45593999997E+02  0.45594000000E+02  0.51100000000E-03 0.  1.
         11   -1    0    0    0    0 -0.00000000000E+00 -0.00000000000E+00 -0.45593999997E+02  0.45594000000E+02  0.51100000000E-03 0. -1.
    9900012    2    1    2    0    0  0.87104456725E+00 -0.93644389627E+01  0.30467469095E+02  0.59301982550E+02  0.50000070256E+02 0.  0.
         12    1    1    2    0    0 -0.87104456725E+00  0.93644389627E+01 -0.30467469095E+02  0.31886017450E+02  0.00000000000E+00 0. -1.
         11    1    3    3    0    0  0.11374771495E+02 -0.28530299591E+01  0.10430084655E+02  0.15694326131E+02  0.51100000000E-03 0. -1.
        -11    1    3    3    0    0  0.38733090683E+00  0.11951078735E+02 -0.28057778110E+01  0.12282129195E+02  0.51100000000E-03 0.  1.
        -12    1    3    3    0    0 -0.10891057835E+02 -0.18462487739E+02  0.22843162251E+02  0.31325527225E+02  0.00000000000E+00 0.  1.
</event>
<event>
 7    1  0.6061051E-012  0.5930177E+02  0.7816164E-02  0.1266605E+00
        -11   -1    0    0    0    0  0.00000000000E+00  0.00000000000E+00  0.45593999997E+02  0.45594000000E+02  0.51100000000E-03 0.  1.
         11   -1    0    0    0    0 -0.00000000000E+00 -0.00000000000E+00 -0.45593999997E+02  0.45594000000E+02  0.51100000000E-03 0. -1.
    9900012    2    1    2    0    0 -0.10077325437E+02 -0.15477765213E+02  0.25992652002E+02  0.59301770024E+02  0.49999682659E+02 0.  0.
         12    1    1    2    0    0  0.10077325437E+02  0.15477765213E+02 -0.25992652002E+02  0.31886229976E+02  0.00000000000E+00 0. -1.
         11    1    3    3    0    0 -0.16194836550E+02  0.83772401383E+01 -0.19313650470E+01  0.18335240779E+02  0.51100000000E-03 0. -1.
        -11    1    3    3    0    0  0.35492469062E+01 -0.46986038441E+01 -0.12030758334E+01  0.60101100994E+01  0.51100000000E-03 0.  1.
        -12    1    3    3    0    0  0.25682642063E+01 -0.19156401507E+02  0.29127092883E+02  0.34956419146E+02  0.00000000000E+00 0.  1.
</event>
<event>
 7    1  0.6061051E-012  0.5930194E+02  0.7816164E-02  0.1266605E+00
        -11   -1    0    0    0    0  0.00000000000E+00  0.00000000000E+00  0.45593999997E+02  0.45594000000E+02  0.51100000000E-03 0.  1.
         11   -1    0    0    0    0 -0.00000000000E+00 -0.00000000000E+00 -0.45593999997E+02  0.45594000000E+02  0.51100000000E-03 0. -1.
    9900012    2    1    2    0    0  0.50837111131E+01  0.24413557645E+02  0.19870961844E+02  0.59301936585E+02  0.49999986425E+02 0.  0.
         12    1    1    2    0    0 -0.50837111131E+01 -0.24413557645E+02 -0.19870961844E+02  0.31886063415E+02  0.00000000000E+00 0. -1.
         11    1    3    3    0    0 -0.47332012960E+01  0.71085460915E+01  0.14619053043E+02  0.16930780672E+02  0.51100000000E-03 0. -1.
        -11    1    3    3    0    0 -0.49191996607E+01  0.21853974341E+02  0.12141889969E+02  0.25479800079E+02  0.51100000000E-03 0.  1.
         12    1    3    3    0    0  0.14736112070E+02 -0.45489627878E+01 -0.68899811685E+01  0.16891355833E+02  0.00000000000E+00 0. -1.
</event>
<event>
 7    1  0.6061051E-012  0.5930194E+02  0.7816164E-02  0.1266605E+00
        -11   -1    0    0    0    0  0.00000000000E+00  0.00000000000E+00  0.45593999997E+02  0.45594000000E+02  0.51100000000E-03 0. -1.
         11   -1    0    0    0    0 -0.00000000000E+00 -0.00000000000E+00 -0.45593999997E+02  0.45594000000E+02  0.51100000000E-03 0.  1.
    9900012    2    1    2    0    0 -0.24414438510E+02 -0.99195622285E+01 -0.17951550687E+02  0.59301942002E+02  0.49999996306E+02 0.  0.
         12    1    1    2    0    0  0.24414438510E+02  0.99195622285E+01  0.17951550687E+02  0.31886057998E+02  0.00000000000E+00 0. -1.
         11    1    3    3    0    0 -0.17606915899E+02 -0.14681371675E+02 -0.25302154224E+01  0.23064001216E+02  0.51100000000E-03 0.  1.
        -11    1    3    3    0    0 -0.58175209037E+01  0.26955646667E+01 -0.25298588963E+02  0.26098433327E+02  0.51100000000E-03 0. -1.
        -12    1    3    3    0    0 -0.99000170698E+00  0.20662447800E+01  0.98772536992E+01  0.10139507459E+02  0.00000000000E+00 0.  1.
</event>
<event>
 7    1  0.6061051E-012  0.5930196E+02  0.7816164E-02  0.1266605E+00
        -11   -1    0    0    0    0  0.00000000000E+00  0.00000000000E+00  0.45593999997E+02  0.45594000000E+02  0.51100000000E-03 0. -1.
         11   -1    0    0    0    0 -0.00000000000E+00 -0.00000000000E+00 -0.45593999997E+02  0.45594000000E+02  0.51100000000E-03 0.  1.
    9900012    2    1    2    0    0 -0.16365083056E+02 -0.29273968976E+01  0.27209083598E+02  0.59301955619E+02  0.50000021140E+02 0.  0.
         12    1    1    2    0    0  0.16365083056E+02  0.29273968976E+01 -0.27209083598E+02  0.31886044381E+02  0.00000000000E+00 0. -1.
         11    1    3    3    0    0 -0.22421791870E+02 -0.19850576150E+00  0.13518114829E+02  0.26182352530E+02  0.51100000000E-03 0. -1.
        -11    1    3    3    0    0 -0.43168652810E+01  0.15761429946E+01 -0.76955338390E+01  0.89633026236E+01  0.51100000000E-03 0.  1.
        -12    1    3    3    0    0  0.10373574096E+02 -0.43050341307E+01  0.21386502608E+02  0.24156300466E+02  0.00000000000E+00 0.  1.
</event>
<event>
 7    1  0.6061051E-012  0.5930195E+02  0.7816164E-02  0.1266605E+00
        -11   -1    0    0    0    0  0.00000000000E+00  0.00000000000E+00  0.45593999997E+02  0.45594000000E+02  0.51100000000E-03 0. -1.
         11   -1    0    0    0    0 -0.00000000000E+00 -0.00000000000E+00 -0.45593999997E+02  0.45594000000E+02  0.51100000000E-03 0.  1.
    9900012    2    1    2    0    0 -0.39137431679E+01 -0.30391523999E+02  0.88180588214E+01  0.59301948537E+02  0.50000008223E+02 0.  0.
         12    1    1    2    0    0  0.39137431679E+01  0.30391523999E+02 -0.88180588214E+01  0.31886051463E+02  0.00000000000E+00 0. -1.
         11    1    3    3    0    0  0.44138781422E+01 -0.13432587941E+02 -0.12329275583E+02  0.18759738157E+02  0.51100000000E-03 0. -1.
        -11    1    3    3    0    0  0.70243166394E+01 -0.11326146857E+02 -0.59016093906E+00  0.13340574091E+02  0.51100000000E-03 0.  1.
         12    1    3    3    0    0 -0.15351937949E+02 -0.56327892009E+01  0.21737495344E+02  0.27201636289E+02  0.00000000000E+00 0. -1.
</event>
<event>
 7    1  0.6061051E-012  0.5930192E+02  0.7816164E-02  0.1266605E+00
        -11   -1    0    0    0    0  0.00000000000E+00  0.00000000000E+00  0.45593999997E+02  0.45594000000E+02  0.51100000000E-03 0. -1.
         11   -1    0    0    0    0 -0.00000000000E+00 -0.00000000000E+00 -0.45593999997E+02  0.45594000000E+02  0.51100000000E-03 0.  1.
    9900012    2    1    2    0    0 -0.29855332951E+02  0.68340321072E+01 -0.88700299012E+01  0.59301916345E+02  0.49999949513E+02 0.  0.
         12    1    1    2    0    0  0.29855332951E+02 -0.68340321072E+01  0.88700299012E+01  0.31886083655E+02  0.00000000000E+00 0. -1.
         11    1    3    3    0    0 -0.95008083404E+00 -0.54980757128E-01  0.80233012007E+01  0.80795444731E+01  0.51100000000E-03 0. -1.
        -11    1    3    3    0    0 -0.26394488250E+01 -0.12594226821E+02 -0.12994647162E+02  0.18287758049E+02  0.51100000000E-03 0.  1.
         12    1    3    3    0    0 -0.26265803292E+02  0.19483239685E+02 -0.38986839400E+01  0.32934613823E+02  0.00000000000E+00 0. -1.
</event>
<event>
 7    1  0.6061051E-012  0.5930193E+02  0.7816164E-02  0.1266605E+00
        -11   -1    0    0    0    0  0.00000000000E+00  0.00000000000E+00  0.45593999997E+02  0.45594000000E+02  0.51100000000E-03 0. -1.
         11   -1    0    0    0    0 -0.00000000000E+00 -0.00000000000E+00 -0.45593999997E+02  0.45594000000E+02  0.51100000000E-03 0.  1.
    9900012    2    1    2    0    0 -0.43959924196E+01 -0.23396830847E+02 -0.21212852963E+02  0.59301928215E+02  0.49999971161E+02 0.  0.
         12    1    1    2    0    0  0.43959924196E+01  0.23396830847E+02  0.21212852963E+02  0.31886071785E+02  0.00000000000E+00 0. -1.
         11    1    3    3    0    0  0.63693689116E+01 -0.17588091132E+00  0.52611381333E+01  0.82631331314E+01  0.51100000000E-03 0. -1.
        -11    1    3    3    0    0 -0.70355530661E+01  0.46978671561E+01 -0.20595151476E+02  0.22264977596E+02  0.51100000000E-03 0.  1.
         12    1    3    3    0    0 -0.37298082652E+01 -0.27918817092E+02 -0.58788396203E+01  0.28773817487E+02  0.00000000000E+00 0. -1.
</event>
<event>
 7    1  0.6061051E-012  0.5930196E+02  0.7816164E-02  0.1266605E+00
        -11   -1    0    0    0    0  0.00000000000E+00  0.00000000000E+00  0.45593999997E+02  0.45594000000E+02  0.51100000000E-03 0.  1.
         11   -1    0    0    0    0 -0.00000000000E+00 -0.00000000000E+00 -0.45593999997E+02  0.45594000000E+02  0.51100000000E-03 0. -1.
    9900012    2    1    2    0    0  0.29334457884E+02  0.79053096541E+01 -0.96806632792E+01  0.59301959455E+02  0.50000028136E+02 0.  0.
         12    1    1    2    0    0 -0.29334457884E+02 -0.79053096541E+01  0.96806632792E+01  0.31886040545E+02  0.00000000000E+00 0. -1.
         11    1    3    3    0    0  0.20836205780E+02  0.42762073753E+00 -0.17392753509E+02  0.27144763872E+02  0.51100000000E-03 0. -1.
        -11    1    3    3    0    0  0.91970453422E+01 -0.94963731750E+01 -0.62210335981E+00  0.13234566837E+02  0.51100000000E-03 0.  1.
         12    1    3    3    0    0 -0.69879323757E+00  0.16974062092E+02  0.83341935897E+01  0.18922628746E+02  0.00000000000E+00 0. -1.
</event>
<event>
 7    1  0.6061051E-012  0.5930194E+02  0.7816164E-02  0.1266605E+00
        -11   -1    0    0    0    0  0.00000000000E+00  0.00000000000E+00  0.45593999997E+02  0.45594000000E+02  0.51100000000E-03 0. -1.
         11   -1    0    0    0    0 -0.00000000000E+00 -0.00000000000E+00 -0.45593999997E+02  0.45594000000E+02  0.51100000000E-03 0.  1.
    9900012    2    1    2    0    0 -0.31759016332E+02  0.15931585585E+01  0.23553821360E+01  0.59301935684E+02  0.49999984783E+02 0.  0.
         12    1    1    2    0    0  0.31759016332E+02 -0.15931585585E+01 -0.23553821360E+01  0.31886064316E+02  0.00000000000E+00 0. -1.
         11    1    3    3    0    0 -0.12604820630E+02 -0.10809743442E+02  0.15333721501E+02  0.22602103259E+02  0.51100000000E-03 0. -1.
        -11    1    3    3    0    0 -0.70395705243E+01 -0.75388111713E+01 -0.71242345907E+00  0.10339089635E+02  0.51100000000E-03 0.  1.
        -12    1    3    3    0    0 -0.12114625177E+02  0.19941713172E+02 -0.12265915906E+02  0.26360742790E+02  0.00000000000E+00 0.  1.
</event>
<event>
 7    1  0.6061051E-012  0.5930194E+02  0.7816164E-02  0.1266605E+00
        -11   -1    0    0    0    0  0.00000000000E+00  0.00000000000E+00  0.45593999997E+02  0.45594000000E+02  0.51100000000E-03 0.  1.
         11   -1    0    0    0    0 -0.00000000000E+00 -0.00000000000E+00 -0.45593999997E+02  0.45594000000E+02  0.51100000000E-03 0. -1.
    9900012    2    1    2    0    0 -0.10618327869E+02  0.71263123307E+01  0.29209377220E+02  0.59301938284E+02  0.49999989526E+02 0.  0.
         12    1    1    2    0    0  0.10618327869E+02 -0.71263123307E+01 -0.29209377220E+02  0.31886061716E+02  0.00000000000E+00 0. -1.
         11    1    3    3    0    0 -0.41817795049E+01  0.12263842802E+02  0.38189797083E+01  0.13508283621E+02  0.51100000000E-03 0. -1.
        -11    1    3    3    0    0 -0.10658478023E+02 -0.98742247794E+01  0.32898137823E+02  0.35963744817E+02  0.51100000000E-03 0.  1.
         12    1    3    3    0    0  0.42219296589E+01  0.47366943078E+01 -0.75077403117E+01  0.98299098469E+01  0.00000000000E+00 0. -1.
</event>
<event>
 7    1  0.6061051E-012  0.5930196E+02  0.7816164E-02  0.1266605E+00
        -11   -1    0    0    0    0  0.00000000000E+00  0.00000000000E+00  0.45593999997E+02  0.45594000000E+02  0.51100000000E-03 0. -1.
         11   -1    0    0    0    0 -0.00000000000E+00 -0.00000000000E+00 -0.45593999997E+02  0.45594000000E+02  0.51100000000E-03 0.  1.
    9900012    2    1    2    0    0  0.26873622176E+02  0.15329723208E+02 -0.77154290200E+01  0.59301955600E+02  0.50000021105E+02 0.  0.
         12    1    1    2    0    0 -0.26873622176E+02 -0.15329723208E+02  0.77154290200E+01  0.31886044400E+02  0.00000000000E+00 0. -1.
         11    1    3    3    0    0  0.24340116199E+02  0.16541906304E+02  0.20031205738E+01  0.29497261110E+02  0.51100000000E-03 0. -1.
        -11    1    3    3    0    0  0.73898483835E+01  0.74779445175E+01 -0.15168341324E+02  0.18455570761E+02  0.51100000000E-03 0.  1.
         12    1    3    3    0    0 -0.48563424058E+01 -0.86901276133E+01  0.54497917304E+01  0.11349123728E+02  0.00000000000E+00 0. -1.
</event>
<event>
 7    1  0.6061051E-012  0.5930186E+02  0.7816164E-02  0.1266605E+00
        -11   -1    0    0    0    0  0.00000000000E+00  0.00000000000E+00  0.45593999997E+02  0.45594000000E+02  0.51100000000E-03 0.  1.
         11   -1    0    0    0    0 -0.00000000000E+00 -0.00000000000E+00 -0.45593999997E+02  0.45594000000E+02  0.51100000000E-03 0. -1.
    9900012    2    1    2    0    0  0.10301577291E+02  0.26385519373E+02  0.14642674461E+02  0.59301858141E+02  0.49999843363E+02 0.  0.
         12    1    1    2    0    0 -0.10301577291E+02 -0.26385519373E+02 -0.14642674461E+02  0.31886141859E+02  0.00000000000E+00 0. -1.
         11    1    3    3    0    0  0.24115733639E+02  0.11736877868E+02  0.21532027092E+02  0.34394056201E+02  0.51100000000E-03 0.  1.
        -11    1    3    3    0    0 -0.10283289375E+02  0.14053034498E+02 -0.30907604915E+00  0.17416352868E+02  0.51100000000E-03 0. -1.
        -12    1    3    3    0    0 -0.35308669729E+01  0.59560700745E+00 -0.65802765821E+01  0.74914490711E+01  0.00000000000E+00 0.  1.
</event>
<event>
 7    1  0.6061051E-012  0.5930196E+02  0.7816164E-02  0.1266605E+00
        -11   -1    0    0    0    0  0.00000000000E+00  0.00000000000E+00  0.45593999997E+02  0.45594000000E+02  0.51100000000E-03 0. -1.
         11   -1    0    0    0    0 -0.00000000000E+00 -0.00000000000E+00 -0.45593999997E+02  0.45594000000E+02  0.51100000000E-03 0.  1.
    9900012    2    1    2    0    0  0.15504420652E+02  0.15539054361E+02 -0.23127260626E+02  0.59301961452E+02  0.50000031778E+02 0.  0.
         12    1    1    2    0    0 -0.15504420652E+02 -0.15539054361E+02  0.23127260626E+02  0.31886038548E+02  0.00000000000E+00 0. -1.
         11    1    3    3    0    0 -0.10046115726E+01  0.77656340004E+01  0.57664251198E+01  0.97245038312E+01  0.51100000000E-03 0. -1.
        -11    1    3    3    0    0  0.97255495892E+01 -0.17324439477E+01  0.68191899977E+01  0.12003708982E+02  0.51100000000E-03 0.  1.
        -12    1    3    3    0    0  0.67834826354E+01  0.95058643081E+01 -0.35712875744E+02  0.37573748639E+02  0.00000000000E+00 0.  1.
</event>
<event>
 7    1  0.6061051E-012  0.5930193E+02  0.7816164E-02  0.1266605E+00
        -11   -1    0    0    0    0  0.00000000000E+00  0.00000000000E+00  0.45593999997E+02  0.45594000000E+02  0.51100000000E-03 0. -1.
         11   -1    0    0    0    0 -0.00000000000E+00 -0.00000000000E+00 -0.45593999997E+02  0.45594000000E+02  0.51100000000E-03 0.  1.
    9900012    2    1    2    0    0  0.19592531883E+02  0.21951711021E+02 -0.12287238978E+02  0.59301934642E+02  0.49999982882E+02 0.  0.
         12    1    1    2    0    0 -0.19592531883E+02 -0.21951711021E+02  0.12287238978E+02  0.31886065358E+02  0.00000000000E+00 0. -1.
         11    1    3    3    0    0 -0.63455207293E+01  0.16898809710E+02 -0.62786613364E+01  0.19111697763E+02  0.51100000000E-03 0. -1.
        -11    1    3    3    0    0  0.70713395335E+01  0.14868136353E+02 -0.89192891286E+01  0.18724824171E+02  0.51100000000E-03 0.  1.
        -12    1    3    3    0    0  0.18866713079E+02 -0.98152350425E+01  0.29107114867E+01  0.21465412708E+02  0.00000000000E+00 0.  1.
</event>
<event>
 7    1  0.6061051E-012  0.5930209E+02  0.7816164E-02  0.1266604E+00
        -11   -1    0    0    0    0  0.00000000000E+00  0.00000000000E+00  0.45593999997E+02  0.45594000000E+02  0.51100000000E-03 0. -1.
         11   -1    0    0    0    0 -0.00000000000E+00 -0.00000000000E+00 -0.45593999997E+02  0.45594000000E+02  0.51100000000E-03 0.  1.
    9900012    2    1    2    0    0  0.74209476286E+01  0.26930328889E+02 -0.15375243466E+02  0.59302091053E+02  0.50000268137E+02 0.  0.
         12    1    1    2    0    0 -0.74209476286E+01 -0.26930328889E+02  0.15375243466E+02  0.31885908947E+02  0.00000000000E+00 0. -1.
         11    1    3    3    0    0  0.21175172846E+02  0.12993506768E+02 -0.35549317501E+01  0.25096946093E+02  0.51100000000E-03 0. -1.
        -11    1    3    3    0    0 -0.34146577056E+01  0.18687926748E+02 -0.12605683910E+02  0.22799161399E+02  0.51100000000E-03 0.  1.
        -12    1    3    3    0    0 -0.10339567512E+02 -0.47511046273E+01  0.78537219444E+00  0.11405983561E+02  0.00000000000E+00 0.  1.
</event>
<event>
 7    1  0.6061051E-012  0.5930190E+02  0.7816164E-02  0.1266605E+00
        -11   -1    0    0    0    0  0.00000000000E+00  0.00000000000E+00  0.45593999997E+02  0.45594000000E+02  0.51100000000E-03 0.  1.
         11   -1    0    0    0    0 -0.00000000000E+00 -0.00000000000E+00 -0.45593999997E+02  0.45594000000E+02  0.51100000000E-03 0. -1.
    9900012    2    1    2    0    0 -0.18785359297E+02 -0.23608018570E+02  0.10319636993E+02  0.59301903149E+02  0.49999925447E+02 0.  0.
         12    1    1    2    0    0  0.18785359297E+02  0.23608018570E+02 -0.10319636993E+02  0.31886096851E+02  0.00000000000E+00 0. -1.
         11    1    3    3    0    0  0.12088375057E+02  0.62481620217E+01  0.29705396666E+01  0.13928117114E+02  0.51100000000E-03 0. -1.
        -11    1    3    3    0    0 -0.11269673699E+02 -0.34041065550E+01  0.76593518807E+00  0.11797463443E+02  0.51100000000E-03 0.  1.
        -12    1    3    3    0    0 -0.19604060655E+02 -0.26452074037E+02  0.65831621381E+01  0.33576322591E+02  0.00000000000E+00 0.  1.
</event>
<event>
 7    1  0.6061051E-012  0.5930193E+02  0.7816164E-02  0.1266605E+00
        -11   -1    0    0    0    0  0.00000000000E+00  0.00000000000E+00  0.45593999997E+02  0.45594000000E+02  0.51100000000E-03 0. -1.
         11   -1    0    0    0    0 -0.00000000000E+00 -0.00000000000E+00 -0.45593999997E+02  0.45594000000E+02  0.51100000000E-03 0.  1.
    9900012    2    1    2    0    0  0.77931414970E+01  0.29802591996E+02 -0.82336938402E+01  0.59301933163E+02  0.49999980186E+02 0.  0.
         12    1    1    2    0    0 -0.77931414970E+01 -0.29802591996E+02  0.82336938402E+01  0.31886066837E+02  0.00000000000E+00 0. -1.
         11    1    3    3    0    0  0.18475336552E+02 -0.23135961923E+00 -0.14199910944E+02  0.23302983909E+02  0.51100000000E-03 0. -1.
        -11    1    3    3    0    0 -0.57664666351E+01  0.23682789257E+01 -0.24015876273E+01  0.66804570140E+01  0.51100000000E-03 0.  1.
         12    1    3    3    0    0 -0.49157284196E+01  0.27665672689E+02  0.83678047309E+01  0.29318492241E+02  0.00000000000E+00 0. -1.
</event>
<event>
 7    1  0.6061051E-012  0.5930193E+02  0.7816164E-02  0.1266605E+00
        -11   -1    0    0    0    0  0.00000000000E+00  0.00000000000E+00  0.45593999997E+02  0.45594000000E+02  0.51100000000E-03 0.  1.
         11   -1    0    0    0    0 -0.00000000000E+00 -0.00000000000E+00 -0.45593999997E+02  0.45594000000E+02  0.51100000000E-03 0. -1.
    9900012    2    1    2    0    0 -0.23828021464E+01  0.29138913355E+02  0.12726654990E+02  0.59301925221E+02  0.49999965700E+02 0.  0.
         12    1    1    2    0    0  0.23828021464E+01 -0.29138913355E+02 -0.12726654990E+02  0.31886074779E+02  0.00000000000E+00 0. -1.
         11    1    3    3    0    0 -0.43305646770E+01 -0.25234910297E+00 -0.87734483274E+01  0.97872808433E+01  0.51100000000E-03 0. -1.
        -11    1    3    3    0    0 -0.15213578173E+02  0.10336669735E+02  0.51428803733E+01  0.19098401002E+02  0.51100000000E-03 0.  1.
         12    1    3    3    0    0  0.17161340704E+02  0.19054592723E+02  0.16357222944E+02  0.30416243375E+02  0.00000000000E+00 0. -1.
</event>
<event>
 7    1  0.6061051E-012  0.5930193E+02  0.7816164E-02  0.1266605E+00
        -11   -1    0    0    0    0  0.00000000000E+00  0.00000000000E+00  0.45593999997E+02  0.45594000000E+02  0.51100000000E-03 0.  1.
         11   -1    0    0    0    0 -0.00000000000E+00 -0.00000000000E+00 -0.45593999997E+02  0.45594000000E+02  0.51100000000E-03 0. -1.
    9900012    2    1    2    0    0  0.10252130314E+02  0.12858807407E+02  0.27317877009E+02  0.59301929245E+02  0.49999973040E+02 0.  0.
         12    1    1    2    0    0 -0.10252130314E+02 -0.12858807407E+02 -0.27317877009E+02  0.31886070755E+02  0.00000000000E+00 0. -1.
         11    1    3    3    0    0  0.59384960242E+01  0.19509798232E+02  0.14761725365E+02  0.25175513860E+02  0.51100000000E-03 0. -1.
        -11    1    3    3    0    0 -0.45408422929E+01  0.98773821544E+01  0.10750365853E+02  0.15288959846E+02  0.51100000000E-03 0.  1.
         12    1    3    3    0    0  0.88544765826E+01 -0.16528372979E+02  0.18057857911E+01  0.18837455539E+02  0.00000000000E+00 0. -1.
</event>
<event>
 7    1  0.6061051E-012  0.5930188E+02  0.7816164E-02  0.1266605E+00
        -11   -1    0    0    0    0  0.00000000000E+00  0.00000000000E+00  0.45593999997E+02  0.45594000000E+02  0.51100000000E-03 0. -1.
         11   -1    0    0    0    0 -0.00000000000E+00 -0.00000000000E+00 -0.45593999997E+02  0.45594000000E+02  0.51100000000E-03 0.  1.
    9900012    2    1    2    0    0  0.72374733980E+01  0.30432628029E+02 -0.61805404103E+01  0.59301875279E+02  0.49999874619E+02 0.  0.
         12    1    1    2    0    0 -0.72374733980E+01 -0.30432628029E+02  0.61805404103E+01  0.31886124721E+02  0.00000000000E+00 0. -1.
         11    1    3    3    0    0  0.14084936546E+02  0.13955055533E+02  0.14898049072E+02  0.24800824157E+02  0.51100000000E-03 0. -1.
        -11    1    3    3    0    0  0.51327505951E+00  0.85611327629E+01  0.21834398807E+01  0.88500765784E+01  0.51100000000E-03 0.  1.
        -12    1    3    3    0    0 -0.73607382075E+01  0.79164397330E+01 -0.23262029363E+02  0.25650974544E+02  0.00000000000E+00 0.  1.
</event>
<event>
 7    1  0.6061051E-012  0.5930194E+02  0.7816164E-02  0.1266605E+00
        -11   -1    0    0    0    0  0.00000000000E+00  0.00000000000E+00  0.45593999997E+02  0.45594000000E+02  0.51100000000E-03 0.  1.
         11   -1    0    0    0    0 -0.00000000000E+00 -0.00000000000E+00 -0.45593999997E+02  0.45594000000E+02  0.51100000000E-03 0. -1.
    9900012    2    1    2    0    0  0.37980802556E+00 -0.99722356123E+01  0.30284175600E+02  0.59301936759E+02  0.49999986743E+02 0.  0.
         12    1    1    2    0    0 -0.37980802556E+00  0.99722356123E+01 -0.30284175600E+02  0.31886063241E+02  0.00000000000E+00 0. -1.
         11    1    3    3    0    0  0.12377245480E+02 -0.17741460699E+02  0.57328616996E+01  0.22379037891E+02  0.51100000000E-03 0. -1.
        -11    1    3    3    0    0 -0.77263986181E+01 -0.48853074455E+01  0.19305627252E+00  0.91433437772E+01  0.51100000000E-03 0.  1.
        -12    1    3    3    0    0 -0.42710388365E+01  0.12654532532E+02  0.24358257628E+02  0.27779555090E+02  0.00000000000E+00 0.  1.
</event>
<event>
 7    1  0.6061051E-012  0.5930195E+02  0.7816164E-02  0.1266605E+00
        -11   -1    0    0    0    0  0.00000000000E+00  0.00000000000E+00  0.45593999997E+02  0.45594000000E+02  0.51100000000E-03 0.  1.
         11   -1    0    0    0    0 -0.00000000000E+00 -0.00000000000E+00 -0.45593999997E+02  0.45594000000E+02  0.51100000000E-03 0. -1.
    9900012    2    1    2    0    0 -0.15632259392E+02  0.23304553670E+02  0.15141023654E+02  0.59301947363E+02  0.50000006083E+02 0.  0.
         12    1    1    2    0    0  0.15632259392E+02 -0.23304553670E+02 -0.15141023654E+02  0.31886052637E+02  0.00000000000E+00 0. -1.
         11    1    3    3    0    0 -0.52871953395E+01 -0.94619698774E+01 -0.20309689166E+01  0.11027608241E+02  0.51100000000E-03 0. -1.
        -11    1    3    3    0    0  0.90756689940E+01  0.30078588262E+01  0.30477181374E+01  0.10035116766E+02  0.51100000000E-03 0.  1.
        -12    1    3    3    0    0 -0.19420733046E+02  0.29758664722E+02  0.14124274434E+02  0.38239222355E+02  0.00000000000E+00 0.  1.
</event>
<event>
 7    1  0.6061051E-012  0.5930195E+02  0.7816164E-02  0.1266605E+00
        -11   -1    0    0    0    0  0.00000000000E+00  0.00000000000E+00  0.45593999997E+02  0.45594000000E+02  0.51100000000E-03 0. -1.
         11   -1    0    0    0    0 -0.00000000000E+00 -0.00000000000E+00 -0.45593999997E+02  0.45594000000E+02  0.51100000000E-03 0.  1.
    9900012    2    1    2    0    0 -0.18125591885E+02  0.25638930318E+02  0.55523420802E+01  0.59301947695E+02  0.50000006689E+02 0.  0.
         12    1    1    2    0    0  0.18125591885E+02 -0.25638930318E+02 -0.55523420802E+01  0.31886052305E+02  0.00000000000E+00 0. -1.
         11    1    3    3    0    0  0.12733057518E+02  0.54513293796E+00  0.52040019039E+01  0.13766247120E+02  0.51100000000E-03 0. -1.
        -11    1    3    3    0    0 -0.65491481087E+01  0.15292576419E+00  0.75238004066E+01  0.99760864100E+01  0.51100000000E-03 0.  1.
        -12    1    3    3    0    0 -0.24309501294E+02  0.24940871615E+02 -0.71754602304E+01  0.35559614166E+02  0.00000000000E+00 0.  1.
</event>
<event>
 7    1  0.6061051E-012  0.5930190E+02  0.7816164E-02  0.1266605E+00
        -11   -1    0    0    0    0  0.00000000000E+00  0.00000000000E+00  0.45593999997E+02  0.45594000000E+02  0.51100000000E-03 0. -1.
         11   -1    0    0    0    0 -0.00000000000E+00 -0.00000000000E+00 -0.45593999997E+02  0.45594000000E+02  0.51100000000E-03 0.  1.
    9900012    2    1    2    0    0  0.25358470147E+02 -0.17777995331E+02  0.75904065139E+01  0.59301899623E+02  0.49999919016E+02 0.  0.
         12    1    1    2    0    0 -0.25358470147E+02  0.17777995331E+02 -0.75904065139E+01  0.31886100377E+02  0.00000000000E+00 0. -1.
         11    1    3    3    0    0 -0.37137242780E+01  0.37444980515E+01  0.97120568022E+01  0.11051563747E+02  0.51100000000E-03 0. -1.
        -11    1    3    3    0    0 -0.30792297690E+01 -0.27676758639E+01 -0.94471764018E+01  0.10314592958E+02  0.51100000000E-03 0.  1.
        -12    1    3    3    0    0  0.32151424194E+02 -0.18754817519E+02  0.73255261135E+01  0.37935742918E+02  0.00000000000E+00 0.  1.
</event>
<event>
 7    1  0.6061051E-012  0.5930195E+02  0.7816164E-02  0.1266605E+00
        -11   -1    0    0    0    0  0.00000000000E+00  0.00000000000E+00  0.45593999997E+02  0.45594000000E+02  0.51100000000E-03 0.  1.
         11   -1    0    0    0    0 -0.00000000000E+00 -0.00000000000E+00 -0.45593999997E+02  0.45594000000E+02  0.51100000000E-03 0. -1.
    9900012    2    1    2    0    0  0.30314486967E+02  0.68721568160E+01  0.71081388016E+01  0.59301948244E+02  0.50000007689E+02 0.  0.
         12    1    1    2    0    0 -0.30314486967E+02 -0.68721568160E+01 -0.71081388016E+01  0.31886051756E+02  0.00000000000E+00 0. -1.
         11    1    3    3    0    0  0.55346220316E+01  0.26276061269E+01  0.77166931633E+01  0.98531065471E+01  0.51100000000E-03 0. -1.
        -11    1    3    3    0    0 -0.52753378167E+01  0.31867196881E+01  0.14527552555E+02  0.15780816042E+02  0.51100000000E-03 0.  1.
         12    1    3    3    0    0  0.30055202752E+02  0.10578310010E+01 -0.15136106917E+02  0.33668025655E+02  0.00000000000E+00 0. -1.
</event>
<event>
 7    1  0.6061051E-012  0.5930194E+02  0.7816164E-02  0.1266605E+00
        -11   -1    0    0    0    0  0.00000000000E+00  0.00000000000E+00  0.45593999997E+02  0.45594000000E+02  0.51100000000E-03 0.  1.
         11   -1    0    0    0    0 -0.00000000000E+00 -0.00000000000E+00 -0.45593999997E+02  0.45594000000E+02  0.51100000000E-03 0. -1.
    9900012    2    1    2    0    0 -0.70172046318E+00 -0.23352556609E+01  0.31792690419E+02  0.59301937297E+02  0.49999987725E+02 0.  0.
         12    1    1    2    0    0  0.70172046318E+00  0.23352556609E+01 -0.31792690419E+02  0.31886062703E+02  0.00000000000E+00 0. -1.
         11    1    3    3    0    0 -0.16233765321E+02 -0.10538253918E+02  0.26341424338E+02  0.32687315101E+02  0.51100000000E-03 0. -1.
        -11    1    3    3    0    0  0.10992723725E+01  0.75442410166E+01  0.89422205517E+01  0.11751054460E+02  0.51100000000E-03 0.  1.
         12    1    3    3    0    0  0.14432772486E+02  0.65875724009E+00 -0.34909544703E+01  0.14863567736E+02  0.00000000000E+00 0. -1.
</event>
<event>
 7    1  0.6061051E-012  0.5930190E+02  0.7816164E-02  0.1266605E+00
        -11   -1    0    0    0    0  0.00000000000E+00  0.00000000000E+00  0.45593999997E+02  0.45594000000E+02  0.51100000000E-03 0.  1.
         11   -1    0    0    0    0 -0.00000000000E+00 -0.00000000000E+00 -0.45593999997E+02  0.45594000000E+02  0.51100000000E-03 0. -1.
    9900012    2    1    2    0    0  0.23961553411E+02  0.18618710141E+02  0.97934238215E+01  0.59301897081E+02  0.49999914381E+02 0.  0.
         12    1    1    2    0    0 -0.23961553411E+02 -0.18618710141E+02 -0.97934238215E+01  0.31886102919E+02  0.00000000000E+00 0. -1.
         11    1    3    3    0    0  0.30805405547E+02  0.71003423754E+01 -0.47190593198E+01  0.31963375821E+02  0.51100000000E-03 0. -1.
        -11    1    3    3    0    0  0.29630509027E+01  0.11715461415E+02  0.34786901562E+01  0.12575094126E+02  0.51100000000E-03 0.  1.
        -12    1    3    3    0    0 -0.98069030386E+01 -0.19709364906E+00  0.11033792985E+02  0.14763427134E+02  0.00000000000E+00 0.  1.
</event>
<event>
 7    1  0.6061051E-012  0.5930195E+02  0.7816164E-02  0.1266605E+00
        -11   -1    0    0    0    0  0.00000000000E+00  0.00000000000E+00  0.45593999997E+02  0.45594000000E+02  0.51100000000E-03 0. -1.
         11   -1    0    0    0    0 -0.00000000000E+00 -0.00000000000E+00 -0.45593999997E+02  0.45594000000E+02  0.51100000000E-03 0.  1.
    9900012    2    1    2    0    0 -0.76864544826E+01 -0.12182844463E+02 -0.28446742607E+02  0.59301945890E+02  0.50000003397E+02 0.  0.
         12    1    1    2    0    0  0.76864544826E+01  0.12182844463E+02  0.28446742607E+02  0.31886054110E+02  0.00000000000E+00 0. -1.
         11    1    3    3    0    0 -0.40467119872E+01  0.51524164759E+01 -0.19141942387E+02  0.20232084224E+02  0.51100000000E-03 0. -1.
        -11    1    3    3    0    0 -0.12125995456E+02 -0.18661848320E+02 -0.16629010000E+02  0.27781798400E+02  0.51100000000E-03 0.  1.
         12    1    3    3    0    0  0.84862529604E+01  0.13265873813E+01  0.73242097798E+01  0.11288063266E+02  0.00000000000E+00 0. -1.
</event>
<event>
 7    1  0.6061051E-012  0.5930196E+02  0.7816164E-02  0.1266605E+00
        -11   -1    0    0    0    0  0.00000000000E+00  0.00000000000E+00  0.45593999997E+02  0.45594000000E+02  0.51100000000E-03 0. -1.
         11   -1    0    0    0    0 -0.00000000000E+00 -0.00000000000E+00 -0.45593999997E+02  0.45594000000E+02  0.51100000000E-03 0.  1.
    9900012    2    1    2    0    0 -0.52411087660E+01  0.31299239310E+02  0.30996803300E+01  0.59301958844E+02  0.50000027021E+02 0.  0.
         12    1    1    2    0    0  0.52411087660E+01 -0.31299239310E+02 -0.30996803300E+01  0.31886041156E+02  0.00000000000E+00 0. -1.
         11    1    3    3    0    0 -0.14097253252E+01 -0.21190235295E+01  0.10423848365E+02  0.10730060634E+02  0.51100000000E-03 0. -1.
        -11    1    3    3    0    0  0.80404635636E+01  0.33456858133E+02  0.39391296922E+00  0.34411706993E+02  0.51100000000E-03 0.  1.
         12    1    3    3    0    0 -0.11871847004E+02 -0.38595294014E-01 -0.77180810047E+01  0.14160191217E+02  0.00000000000E+00 0. -1.
</event>
<event>
 7    1  0.6061051E-012  0.5930194E+02  0.7816164E-02  0.1266605E+00
        -11   -1    0    0    0    0  0.00000000000E+00  0.00000000000E+00  0.45593999997E+02  0.45594000000E+02  0.51100000000E-03 0. -1.
         11   -1    0    0    0    0 -0.00000000000E+00 -0.00000000000E+00 -0.45593999997E+02  0.45594000000E+02  0.51100000000E-03 0.  1.
    9900012    2    1    2    0    0 -0.29186986275E+02  0.39497005184E+01 -0.12216403935E+02  0.59301939925E+02  0.49999992518E+02 0.  0.
         12    1    1    2    0    0  0.29186986275E+02 -0.39497005184E+01  0.12216403935E+02  0.31886060075E+02  0.00000000000E+00 0. -1.
         11    1    3    3    0    0 -0.74981710109E+01  0.40252809530E+01 -0.13788168679E+01  0.86212871125E+01  0.51100000000E-03 0. -1.
        -11    1    3    3    0    0 -0.32254540387E+02  0.87303835729E+01 -0.14532784030E+02  0.36438671557E+02  0.51100000000E-03 0.  1.
         12    1    3    3    0    0  0.10565725124E+02 -0.88059640075E+01  0.36951969627E+01  0.14241981255E+02  0.00000000000E+00 0. -1.
</event>
<event>
 7    1  0.6061051E-012  0.5930215E+02  0.7816164E-02  0.1266604E+00
        -11   -1    0    0    0    0  0.00000000000E+00  0.00000000000E+00  0.45593999997E+02  0.45594000000E+02  0.51100000000E-03 0.  1.
         11   -1    0    0    0    0 -0.00000000000E+00 -0.00000000000E+00 -0.45593999997E+02  0.45594000000E+02  0.51100000000E-03 0. -1.
    9900012    2    1    2    0    0 -0.22935672359E+02  0.22711251362E+01  0.22034161303E+02  0.59302151410E+02  0.50000378215E+02 0.  0.
         12    1    1    2    0    0  0.22935672359E+02 -0.22711251362E+01 -0.22034161303E+02  0.31885848590E+02  0.00000000000E+00 0. -1.
         11    1    3    3    0    0  0.33556447462E+01  0.10840117718E+02  0.26903023322E+02  0.29198307621E+02  0.51100000000E-03 0.  1.
        -11    1    3    3    0    0 -0.80956132133E+01 -0.37763604326E+01 -0.67460364487E+01  0.11194143980E+02  0.51100000000E-03 0. -1.
        -12    1    3    3    0    0 -0.18195703892E+02 -0.47926321493E+01  0.18771744297E+01  0.18909699810E+02  0.00000000000E+00 0.  1.
</event>
<event>
 7    1  0.6061051E-012  0.5930194E+02  0.7816164E-02  0.1266605E+00
        -11   -1    0    0    0    0  0.00000000000E+00  0.00000000000E+00  0.45593999997E+02  0.45594000000E+02  0.51100000000E-03 0. -1.
         11   -1    0    0    0    0 -0.00000000000E+00 -0.00000000000E+00 -0.45593999997E+02  0.45594000000E+02  0.51100000000E-03 0.  1.
    9900012    2    1    2    0    0 -0.30959156870E+02  0.75251704585E+01 -0.12741512702E+01  0.59301936493E+02  0.49999986259E+02 0.  0.
         12    1    1    2    0    0  0.30959156870E+02 -0.75251704585E+01  0.12741512702E+01  0.31886063507E+02  0.00000000000E+00 0. -1.
         11    1    3    3    0    0 -0.12808919819E+02 -0.16909592083E+01  0.88581021526E+01  0.15665048483E+02  0.51100000000E-03 0. -1.
        -11    1    3    3    0    0 -0.35837474650E+01 -0.11333736505E+02  0.64068405020E+01  0.13503497123E+02  0.51100000000E-03 0.  1.
        -12    1    3    3    0    0 -0.14566489586E+02  0.20549866172E+02 -0.16539093925E+02  0.30133390888E+02  0.00000000000E+00 0.  1.
</event>
<event>
 7    1  0.6061051E-012  0.5930194E+02  0.7816164E-02  0.1266605E+00
        -11   -1    0    0    0    0  0.00000000000E+00  0.00000000000E+00  0.45593999997E+02  0.45594000000E+02  0.51100000000E-03 0.  1.
         11   -1    0    0    0    0 -0.00000000000E+00 -0.00000000000E+00 -0.45593999997E+02  0.45594000000E+02  0.51100000000E-03 0. -1.
    9900012    2    1    2    0    0 -0.12870245652E+02  0.26963935821E+02  0.11136594110E+02  0.59301940562E+02  0.49999993679E+02 0.  0.
         12    1    1    2    0    0  0.12870245652E+02 -0.26963935821E+02 -0.11136594110E+02  0.31886059438E+02  0.00000000000E+00 0. -1.
         11    1    3    3    0    0 -0.16953667828E+02  0.11720647605E+02 -0.76194483325E+01  0.21973994318E+02  0.51100000000E-03 0. -1.
        -11    1    3    3    0    0 -0.11399348253E+02  0.10887028515E+02  0.62613335364E+01  0.16961038541E+02  0.51100000000E-03 0.  1.
        -12    1    3    3    0    0  0.15482770429E+02  0.43562597013E+01  0.12494708906E+02  0.20366907703E+02  0.00000000000E+00 0.  1.
</event>
<event>
 7    1  0.6061051E-012  0.5930194E+02  0.7816164E-02  0.1266605E+00
        -11   -1    0    0    0    0  0.00000000000E+00  0.00000000000E+00  0.45593999997E+02  0.45594000000E+02  0.51100000000E-03 0. -1.
         11   -1    0    0    0    0 -0.00000000000E+00 -0.00000000000E+00 -0.45593999997E+02  0.45594000000E+02  0.51100000000E-03 0.  1.
    9900012    2    1    2    0    0 -0.12988574385E+02  0.84987042561E+01 -0.27852998358E+02  0.59301944174E+02  0.50000000267E+02 0.  0.
         12    1    1    2    0    0  0.12988574385E+02 -0.84987042561E+01  0.27852998358E+02  0.31886055826E+02  0.00000000000E+00 0. -1.
         11    1    3    3    0    0 -0.11580084041E+02 -0.60241182821E+01  0.50112751486E+01  0.13982175308E+02  0.51100000000E-03 0. -1.
        -11    1    3    3    0    0  0.23861624576E+01 -0.79220567736E+01 -0.10930035039E+02  0.13708333998E+02  0.51100000000E-03 0.  1.
        -12    1    3    3    0    0 -0.37946528011E+01  0.22444879312E+02 -0.21934238468E+02  0.31611434867E+02  0.00000000000E+00 0.  1.
</event>
<event>
 7    1  0.6061051E-012  0.5930191E+02  0.7816164E-02  0.1266605E+00
        -11   -1    0    0    0    0  0.00000000000E+00  0.00000000000E+00  0.45593999997E+02  0.45594000000E+02  0.51100000000E-03 0.  1.
         11   -1    0    0    0    0 -0.00000000000E+00 -0.00000000000E+00 -0.45593999997E+02  0.45594000000E+02  0.51100000000E-03 0. -1.
    9900012    2    1    2    0    0 -0.27625138698E+02 -0.86426848523E+01  0.13374542722E+02  0.59301910830E+02  0.49999939455E+02 0.  0.
         12    1    1    2    0    0  0.27625138698E+02  0.86426848523E+01 -0.13374542722E+02  0.31886089170E+02  0.00000000000E+00 0. -1.
         11    1    3    3    0    0 -0.85489546916E+01  0.64753715863E+00  0.22471613014E+02  0.24051555509E+02  0.51100000000E-03 0. -1.
        -11    1    3    3    0    0 -0.15071474144E+02  0.28557734887E+01  0.50782680009E+01  0.16158390428E+02  0.51100000000E-03 0.  1.
         12    1    3    3    0    0 -0.40047098630E+01 -0.12145995500E+02 -0.14175338292E+02  0.19091964893E+02  0.00000000000E+00 0. -1.
</event>
<event>
 7    1  0.6061051E-012  0.5930199E+02  0.7816164E-02  0.1266605E+00
        -11   -1    0    0    0    0  0.00000000000E+00  0.00000000000E+00  0.45593999997E+02  0.45594000000E+02  0.51100000000E-03 0. -1.
         11   -1    0    0    0    0 -0.00000000000E+00 -0.00000000000E+00 -0.45593999997E+02  0.45594000000E+02  0.51100000000E-03 0.  1.
    9900012    2    1    2    0    0  0.39567401801E+01  0.16343748288E+02 -0.27091394143E+02  0.59301991508E+02  0.50000086593E+02 0.  0.
         12    1    1    2    0    0 -0.39567401801E+01 -0.16343748288E+02  0.27091394143E+02  0.31886008492E+02  0.00000000000E+00 0. -1.
         11    1    3    3    0    0  0.54607050445E+01  0.11949830839E+02 -0.49514820546E+01  0.14040474759E+02  0.51100000000E-03 0.  1.
        -11    1    3    3    0    0 -0.10645801897E+01  0.14395211648E+02  0.58198262372E+01  0.15563605850E+02  0.51100000000E-03 0. -1.
         12    1    3    3    0    0 -0.43938467466E+00 -0.10001294199E+02 -0.27959738325E+02  0.29697910899E+02  0.00000000000E+00 0. -1.
</event>
<event>
 7    1  0.6061051E-012  0.5930197E+02  0.7816164E-02  0.1266605E+00
        -11   -1    0    0    0    0  0.00000000000E+00  0.00000000000E+00  0.45593999997E+02  0.45594000000E+02  0.51100000000E-03 0.  1.
         11   -1    0    0    0    0 -0.00000000000E+00 -0.00000000000E+00 -0.45593999997E+02  0.45594000000E+02  0.51100000000E-03 0. -1.
    9900012    2    1    2    0    0  0.23502663281E+02 -0.66300162321E+01  0.20503334446E+02  0.59301968263E+02  0.50000044199E+02 0.  0.
         12    1    1    2    0    0 -0.23502663281E+02  0.66300162321E+01 -0.20503334446E+02  0.31886031737E+02  0.00000000000E+00 0. -1.
         11    1    3    3    0    0 -0.26975002974E+01 -0.11006636490E+02  0.77296855436E+01  0.13717528697E+02  0.51100000000E-03 0. -1.
        -11    1    3    3    0    0  0.15417750998E+01  0.40716358827E+01  0.19534809460E+02  0.20014096785E+02  0.51100000000E-03 0.  1.
        -12    1    3    3    0    0  0.24658388479E+02  0.30498437568E+00 -0.67611605578E+01  0.25570342781E+02  0.00000000000E+00 0.  1.
</event>
<event>
 7    1  0.6061051E-012  0.5930196E+02  0.7816164E-02  0.1266605E+00
        -11   -1    0    0    0    0  0.00000000000E+00  0.00000000000E+00  0.45593999997E+02  0.45594000000E+02  0.51100000000E-03 0. -1.
         11   -1    0    0    0    0 -0.00000000000E+00 -0.00000000000E+00 -0.45593999997E+02  0.45594000000E+02  0.51100000000E-03 0.  1.
    9900012    2    1    2    0    0  0.43953699732E+01  0.26569002017E+02 -0.17073025589E+02  0.59301963116E+02  0.50000034813E+02 0.  0.
         12    1    1    2    0    0 -0.43953699732E+01 -0.26569002017E+02  0.17073025589E+02  0.31886036884E+02  0.00000000000E+00 0. -1.
         11    1    3    3    0    0  0.67461793304E+01  0.15472920774E+02  0.56391198678E+01  0.17796681881E+02  0.51100000000E-03 0. -1.
        -11    1    3    3    0    0  0.10310602681E+02  0.15503769713E+02 -0.49768804584E+01  0.19272901762E+02  0.51100000000E-03 0.  1.
        -12    1    3    3    0    0 -0.12661412039E+02 -0.44076884702E+01 -0.17735264999E+02  0.22232379473E+02  0.00000000000E+00 0.  1.
</event>
<event>
 7    1  0.6061051E-012  0.5930199E+02  0.7816164E-02  0.1266605E+00
        -11   -1    0    0    0    0  0.00000000000E+00  0.00000000000E+00  0.45593999997E+02  0.45594000000E+02  0.51100000000E-03 0.  1.
         11   -1    0    0    0    0 -0.00000000000E+00 -0.00000000000E+00 -0.45593999997E+02  0.45594000000E+02  0.51100000000E-03 0. -1.
    9900012    2    1    2    0    0  0.18570816070E+02  0.38629333752E+01  0.25630456490E+02  0.59301987963E+02  0.50000080127E+02 0.  0.
         12    1    1    2    0    0 -0.18570816070E+02 -0.38629333752E+01 -0.25630456490E+02  0.31886012037E+02  0.00000000000E+00 0. -1.
         11    1    3    3    0    0  0.84068929313E+01 -0.10797048019E+02  0.29514222051E+01  0.13998678080E+02  0.51100000000E-03 0. -1.
        -11    1    3    3    0    0  0.13175947045E+02  0.17186891435E+02  0.29996157896E+02  0.36996814816E+02  0.51100000000E-03 0.  1.
         12    1    3    3    0    0 -0.30120239057E+01 -0.25269100412E+01 -0.73171236114E+01  0.83064950677E+01  0.00000000000E+00 0. -1.
</event>
<event>
 7    1  0.6061051E-012  0.5930193E+02  0.7816164E-02  0.1266605E+00
        -11   -1    0    0    0    0  0.00000000000E+00  0.00000000000E+00  0.45593999997E+02  0.45594000000E+02  0.51100000000E-03 0.  1.
         11   -1    0    0    0    0 -0.00000000000E+00 -0.00000000000E+00 -0.45593999997E+02  0.45594000000E+02  0.51100000000E-03 0. -1.
    9900012    2    1    2    0    0 -0.15874341166E+01 -0.88191856950E+01  0.30601033853E+02  0.59301933196E+02  0.49999980245E+02 0.  0.
         12    1    1    2    0    0  0.15874341166E+01  0.88191856950E+01 -0.30601033853E+02  0.31886066804E+02  0.00000000000E+00 0. -1.
         11    1    3    3    0    0 -0.22134696771E+01 -0.88157408938E+01  0.18645286343E+01  0.92786422933E+01  0.51100000000E-03 0. -1.
        -11    1    3    3    0    0  0.11496178991E+02 -0.16270536253E+02  0.21105606988E+02  0.29023079229E+02  0.51100000000E-03 0.  1.
        -12    1    3    3    0    0 -0.10870143430E+02  0.16267091452E+02  0.76308982303E+01  0.21000211673E+02  0.00000000000E+00 0.  1.
</event>
<event>
 7    1  0.6061051E-012  0.5930194E+02  0.7816164E-02  0.1266605E+00
        -11   -1    0    0    0    0  0.00000000000E+00  0.00000000000E+00  0.45593999997E+02  0.45594000000E+02  0.51100000000E-03 0. -1.
         11   -1    0    0    0    0 -0.00000000000E+00 -0.00000000000E+00 -0.45593999997E+02  0.45594000000E+02  0.51100000000E-03 0.  1.
    9900012    2    1    2    0    0  0.11281030395E+02 -0.28066871227E+02  0.10085137093E+02  0.59301938822E+02  0.49999990507E+02 0.  0.
         12    1    1    2    0    0 -0.11281030395E+02  0.28066871227E+02 -0.10085137093E+02  0.31886061178E+02  0.00000000000E+00 0. -1.
         11    1    3    3    0    0  0.56687610786E+01  0.23855065863E+01  0.75888209716E+00  0.61968860033E+01  0.51100000000E-03 0. -1.
        -11    1    3    3    0    0 -0.15003394825E+01 -0.85793996339E+01 -0.16416582571E+02  0.18583898951E+02  0.51100000000E-03 0.  1.
         12    1    3    3    0    0  0.71126087984E+01 -0.21872978179E+02  0.25742837567E+02  0.34521153868E+02  0.00000000000E+00 0. -1.
</event>
<event>
 7    1  0.6061051E-012  0.5930195E+02  0.7816164E-02  0.1266605E+00
        -11   -1    0    0    0    0  0.00000000000E+00  0.00000000000E+00  0.45593999997E+02  0.45594000000E+02  0.51100000000E-03 0.  1.
         11   -1    0    0    0    0 -0.00000000000E+00 -0.00000000000E+00 -0.45593999997E+02  0.45594000000E+02  0.51100000000E-03 0. -1.
    9900012    2    1    2    0    0  0.87433632907E+01  0.30243884907E+02  0.50577969954E+01  0.59301948405E+02  0.50000007982E+02 0.  0.
         12    1    1    2    0    0 -0.87433632907E+01 -0.30243884907E+02 -0.50577969954E+01  0.31886051595E+02  0.00000000000E+00 0. -1.
         11    1    3    3    0    0 -0.23672375887E+01  0.69977274930E+01 -0.14165413977E+02  0.15975949338E+02  0.51100000000E-03 0. -1.
        -11    1    3    3    0    0  0.89932473601E+00  0.13475261531E+02 -0.57124599153E+01  0.14663684969E+02  0.51100000000E-03 0.  1.
        -12    1    3    3    0    0  0.10211276143E+02  0.97708958828E+01  0.24935670887E+02  0.28662314098E+02  0.00000000000E+00 0.  1.
</event>
<event>
 7    1  0.6061051E-012  0.5930196E+02  0.7816164E-02  0.1266605E+00
        -11   -1    0    0    0    0  0.00000000000E+00  0.00000000000E+00  0.45593999997E+02  0.45594000000E+02  0.51100000000E-03 0. -1.
         11   -1    0    0    0    0 -0.00000000000E+00 -0.00000000000E+00 -0.45593999997E+02  0.45594000000E+02  0.51100000000E-03 0.  1.
    9900012    2    1    2    0    0 -0.24651037834E+02 -0.18232076300E+02 -0.87542718805E+01  0.59301959972E+02  0.50000029079E+02 0.  0.
         12    1    1    2    0    0  0.24651037834E+02  0.18232076300E+02  0.87542718805E+01  0.31886040028E+02  0.00000000000E+00 0. -1.
         11    1    3    3    0    0 -0.16021154389E+02 -0.12658562416E+02  0.16077510550E+02  0.25988515467E+02  0.51100000000E-03 0. -1.
        -11    1    3    3    0    0 -0.10287463966E+02  0.98690710205E-01 -0.30298347659E+01  0.10724810193E+02  0.51100000000E-03 0.  1.
        -12    1    3    3    0    0  0.16575805210E+01 -0.56722045944E+01 -0.21801947665E+02  0.22588634313E+02  0.00000000000E+00 0.  1.
</event>
<event>
 7    1  0.6061051E-012  0.5930191E+02  0.7816164E-02  0.1266605E+00
        -11   -1    0    0    0    0  0.00000000000E+00  0.00000000000E+00  0.45593999997E+02  0.45594000000E+02  0.51100000000E-03 0. -1.
         11   -1    0    0    0    0 -0.00000000000E+00 -0.00000000000E+00 -0.45593999997E+02  0.45594000000E+02  0.51100000000E-03 0.  1.
    9900012    2    1    2    0    0 -0.28506700762E+02  0.10096008074E+02 -0.10107477817E+02  0.59301914082E+02  0.49999945386E+02 0.  0.
         12    1    1    2    0    0  0.28506700762E+02 -0.10096008074E+02  0.10107477817E+02  0.31886085918E+02  0.00000000000E+00 0. -1.
         11    1    3    3    0    0 -0.37145744911E+01  0.90064677830E+01 -0.50504735962E+01  0.10973687137E+02  0.51100000000E-03 0. -1.
        -11    1    3    3    0    0 -0.15782954534E+02  0.19511271355E+02  0.48400775080E+01  0.25558124232E+02  0.51100000000E-03 0.  1.
        -12    1    3    3    0    0 -0.90091717364E+01 -0.18421731064E+02 -0.98970817291E+01  0.22770102713E+02  0.00000000000E+00 0.  1.
</event>
<event>
 7    1  0.6061051E-012  0.5930196E+02  0.7816164E-02  0.1266605E+00
        -11   -1    0    0    0    0  0.00000000000E+00  0.00000000000E+00  0.45593999997E+02  0.45594000000E+02  0.51100000000E-03 0. -1.
         11   -1    0    0    0    0 -0.00000000000E+00 -0.00000000000E+00 -0.45593999997E+02  0.45594000000E+02  0.51100000000E-03 0.  1.
    9900012    2    1    2    0    0 -0.26925582476E+02  0.12199243734E+02 -0.11954543455E+02  0.59301958405E+02  0.50000026222E+02 0.  0.
         12    1    1    2    0    0  0.26925582476E+02 -0.12199243734E+02  0.11954543455E+02  0.31886041595E+02  0.00000000000E+00 0. -1.
         11    1    3    3    0    0 -0.34610334557E+01  0.16407787438E+02  0.76872110823E+01  0.18446882004E+02  0.51100000000E-03 0. -1.
        -11    1    3    3    0    0 -0.25515224602E+02 -0.48105965030E+00 -0.55247291931E+01  0.26110931385E+02  0.51100000000E-03 0.  1.
        -12    1    3    3    0    0  0.20506755813E+01 -0.37274840538E+01 -0.14117025344E+02  0.14744145017E+02  0.00000000000E+00 0.  1.
</event>
<event>
 7    1  0.6061051E-012  0.5930202E+02  0.7816164E-02  0.1266604E+00
        -11   -1    0    0    0    0  0.00000000000E+00  0.00000000000E+00  0.45593999997E+02  0.45594000000E+02  0.51100000000E-03 0.  1.
         11   -1    0    0    0    0 -0.00000000000E+00 -0.00000000000E+00 -0.45593999997E+02  0.45594000000E+02  0.51100000000E-03 0. -1.
    9900012    2    1    2    0    0  0.28657934014E+02  0.98218488030E+01 -0.99483519112E+01  0.59302021866E+02  0.50000141957E+02 0.  0.
         12    1    1    2    0    0 -0.28657934014E+02 -0.98218488030E+01  0.99483519112E+01  0.31885978134E+02  0.00000000000E+00 0. -1.
         11    1    3    3    0    0  0.16723347401E+02 -0.42433463147E+00 -0.27112365923E+02  0.31857978504E+02  0.51100000000E-03 0. -1.
        -11    1    3    3    0    0  0.29214164702E+01  0.42688625223E+01 -0.19125522810E+01  0.55150446884E+01  0.51100000000E-03 0.  1.
        -12    1    3    3    0    0  0.90131701423E+01  0.59773209122E+01  0.19076566292E+02  0.21928998673E+02  0.00000000000E+00 0.  1.
</event>
<event>
 7    1  0.6061051E-012  0.5930194E+02  0.7816164E-02  0.1266605E+00
        -11   -1    0    0    0    0  0.00000000000E+00  0.00000000000E+00  0.45593999997E+02  0.45594000000E+02  0.51100000000E-03 0.  1.
         11   -1    0    0    0    0 -0.00000000000E+00 -0.00000000000E+00 -0.45593999997E+02  0.45594000000E+02  0.51100000000E-03 0. -1.
    9900012    2    1    2    0    0  0.24228517096E+02  0.20710459213E+02 -0.88131736780E+00  0.59301939068E+02  0.49999990954E+02 0.  0.
         12    1    1    2    0    0 -0.24228517096E+02 -0.20710459213E+02  0.88131736780E+00  0.31886060932E+02  0.00000000000E+00 0. -1.
         11    1    3    3    0    0 -0.70274612607E+00  0.10753942211E+01  0.18138939753E+02  0.18184374075E+02  0.51100000000E-03 0. -1.
        -11    1    3    3    0    0  0.10293474999E+02  0.22627596245E+01  0.13244903062E+01  0.10622145899E+02  0.51100000000E-03 0.  1.
         12    1    3    3    0    0  0.14637788223E+02  0.17372305367E+02 -0.20344747428E+02  0.30495419094E+02  0.00000000000E+00 0. -1.
</event>
<event>
 7    1  0.6061051E-012  0.5930198E+02  0.7816164E-02  0.1266605E+00
        -11   -1    0    0    0    0  0.00000000000E+00  0.00000000000E+00  0.45593999997E+02  0.45594000000E+02  0.51100000000E-03 0.  1.
         11   -1    0    0    0    0 -0.00000000000E+00 -0.00000000000E+00 -0.45593999997E+02  0.45594000000E+02  0.51100000000E-03 0. -1.
    9900012    2    1    2    0    0 -0.29522805000E+02 -0.95525923488E+01  0.73396389245E+01  0.59301979000E+02  0.50000063782E+02 0.  0.
         12    1    1    2    0    0  0.29522805000E+02  0.95525923488E+01 -0.73396389245E+01  0.31886021000E+02  0.00000000000E+00 0. -1.
         11    1    3    3    0    0 -0.17271713829E+01 -0.19489387649E+02  0.36435732791E+01  0.19902135021E+02  0.51100000000E-03 0. -1.
        -11    1    3    3    0    0 -0.59958931010E+00  0.13649576167E+00 -0.81395945664E+01  0.81627898662E+01  0.51100000000E-03 0.  1.
        -12    1    3    3    0    0 -0.27196044307E+02  0.98002995383E+01  0.11835660212E+02  0.31237054113E+02  0.00000000000E+00 0.  1.
</event>
<event>
 7    1  0.6061051E-012  0.5930196E+02  0.7816164E-02  0.1266605E+00
        -11   -1    0    0    0    0  0.00000000000E+00  0.00000000000E+00  0.45593999997E+02  0.45594000000E+02  0.51100000000E-03 0.  1.
         11   -1    0    0    0    0 -0.00000000000E+00 -0.00000000000E+00 -0.45593999997E+02  0.45594000000E+02  0.51100000000E-03 0. -1.
    9900012    2    1    2    0    0  0.19130978587E+02 -0.19946131311E+02  0.15902107002E+02  0.59301960687E+02  0.50000030382E+02 0.  0.
         12    1    1    2    0    0 -0.19130978587E+02  0.19946131311E+02 -0.15902107002E+02  0.31886039313E+02  0.00000000000E+00 0. -1.
         11    1    3    3    0    0  0.21217753638E+02 -0.19365601311E+02  0.11092303929E+02  0.30793810909E+02  0.51100000000E-03 0.  1.
        -11    1    3    3    0    0  0.87441134289E+01  0.79591292096E+01  0.80952643452E+01  0.14329709087E+02  0.51100000000E-03 0. -1.
         12    1    3    3    0    0 -0.10830888480E+02 -0.85396592088E+01 -0.32854612721E+01  0.14178440691E+02  0.00000000000E+00 0. -1.
</event>
<event>
 7    1  0.6061051E-012  0.5930194E+02  0.7816164E-02  0.1266605E+00
        -11   -1    0    0    0    0  0.00000000000E+00  0.00000000000E+00  0.45593999997E+02  0.45594000000E+02  0.51100000000E-03 0.  1.
         11   -1    0    0    0    0 -0.00000000000E+00 -0.00000000000E+00 -0.45593999997E+02  0.45594000000E+02  0.51100000000E-03 0. -1.
    9900012    2    1    2    0    0  0.13610887176E+02 -0.33712256824E+01  0.28637378067E+02  0.59301939803E+02  0.49999992295E+02 0.  0.
         12    1    1    2    0    0 -0.13610887176E+02  0.33712256824E+01 -0.28637378067E+02  0.31886060197E+02  0.00000000000E+00 0. -1.
         11    1    3    3    0    0  0.72114797462E+00 -0.24251676417E+01 -0.15947049259E+01  0.29907484939E+01  0.51100000000E-03 0.  1.
        -11    1    3    3    0    0 -0.14928292109E+02  0.16358455431E+01 -0.17455205350E+00  0.15018667205E+02  0.51100000000E-03 0. -1.
        -12    1    3    3    0    0  0.27818031310E+02 -0.25819035838E+01  0.30406635047E+02  0.41292524105E+02  0.00000000000E+00 0.  1.
</event>
<event>
 7    1  0.6061051E-012  0.5930203E+02  0.7816164E-02  0.1266604E+00
        -11   -1    0    0    0    0  0.00000000000E+00  0.00000000000E+00  0.45593999997E+02  0.45594000000E+02  0.51100000000E-03 0.  1.
         11   -1    0    0    0    0 -0.00000000000E+00 -0.00000000000E+00 -0.45593999997E+02  0.45594000000E+02  0.51100000000E-03 0. -1.
    9900012    2    1    2    0    0 -0.18969961000E+02  0.22046633323E+02  0.13069108432E+02  0.59302030414E+02  0.50000157548E+02 0.  0.
         12    1    1    2    0    0  0.18969961000E+02 -0.22046633323E+02 -0.13069108432E+02  0.31885969586E+02  0.00000000000E+00 0. -1.
         11    1    3    3    0    0  0.91990829522E+01  0.67377231910E+01  0.95443880498E+01  0.14869949040E+02  0.51100000000E-03 0. -1.
        -11    1    3    3    0    0  0.11377515666E+01  0.19350092187E+01 -0.94427896781E+01  0.97059268733E+01  0.51100000000E-03 0.  1.
        -12    1    3    3    0    0 -0.29306795519E+02  0.13373900913E+02  0.12967510060E+02  0.34726154500E+02  0.00000000000E+00 0.  1.
</event>
<event>
 7    1  0.6061051E-012  0.5930195E+02  0.7816164E-02  0.1266605E+00
        -11   -1    0    0    0    0  0.00000000000E+00  0.00000000000E+00  0.45593999997E+02  0.45594000000E+02  0.51100000000E-03 0.  1.
         11   -1    0    0    0    0 -0.00000000000E+00 -0.00000000000E+00 -0.45593999997E+02  0.45594000000E+02  0.51100000000E-03 0. -1.
    9900012    2    1    2    0    0  0.99663582855E+00  0.14266502076E+02  0.28499011731E+02  0.59301952359E+02  0.50000015195E+02 0.  0.
         12    1    1    2    0    0 -0.99663582855E+00 -0.14266502076E+02 -0.28499011731E+02  0.31886047641E+02  0.00000000000E+00 0. -1.
         11    1    3    3    0    0 -0.13040089772E+02 -0.36286071768E+01  0.18653517621E+02  0.23047005255E+02  0.51100000000E-03 0. -1.
        -11    1    3    3    0    0 -0.52256159336E+01  0.54142628387E+01  0.10938339165E+02  0.13276617338E+02  0.51100000000E-03 0.  1.
         12    1    3    3    0    0  0.19262341534E+02  0.12480846414E+02 -0.10928450552E+01  0.22978329767E+02  0.00000000000E+00 0. -1.
</event>
<event>
 7    1  0.6061051E-012  0.5930196E+02  0.7816164E-02  0.1266605E+00
        -11   -1    0    0    0    0  0.00000000000E+00  0.00000000000E+00  0.45593999997E+02  0.45594000000E+02  0.51100000000E-03 0.  1.
         11   -1    0    0    0    0 -0.00000000000E+00 -0.00000000000E+00 -0.45593999997E+02  0.45594000000E+02  0.51100000000E-03 0. -1.
    9900012    2    1    2    0    0  0.22037686458E+02 -0.10779829605E+02 -0.20367998584E+02  0.59301957332E+02  0.50000024263E+02 0.  0.
         12    1    1    2    0    0 -0.22037686458E+02  0.10779829605E+02  0.20367998584E+02  0.31886042668E+02  0.00000000000E+00 0. -1.
         11    1    3    3    0    0 -0.11136635976E+01 -0.48901816231E+01 -0.16621251771E+02  0.17361455400E+02  0.51100000000E-03 0. -1.
        -11    1    3    3    0    0  0.20146740472E+02 -0.15212879551E+02 -0.13060855456E+02  0.28423736584E+02  0.51100000000E-03 0.  1.
         12    1    3    3    0    0  0.30046095832E+01  0.93232315694E+01  0.93141086429E+01  0.13516765347E+02  0.00000000000E+00 0. -1.
</event>
<event>
 7    1  0.6061051E-012  0.5930193E+02  0.7816164E-02  0.1266605E+00
        -11   -1    0    0    0    0  0.00000000000E+00  0.00000000000E+00  0.45593999997E+02  0.45594000000E+02  0.51100000000E-03 0.  1.
         11   -1    0    0    0    0 -0.00000000000E+00 -0.00000000000E+00 -0.45593999997E+02  0.45594000000E+02  0.51100000000E-03 0. -1.
    9900012    2    1    2    0    0 -0.22440258955E+02  0.16691212844E+02  0.15315344595E+02  0.59301927990E+02  0.49999970752E+02 0.  0.
         12    1    1    2    0    0  0.22440258955E+02 -0.16691212844E+02 -0.15315344595E+02  0.31886072010E+02  0.00000000000E+00 0. -1.
         11    1    3    3    0    0 -0.33602438239E+02  0.30103078370E+01  0.71024809215E+01  0.34476528891E+02  0.51100000000E-03 0. -1.
        -11    1    3    3    0    0 -0.33802768300E+01  0.31864610184E+01  0.45878597838E+01  0.65290323116E+01  0.51100000000E-03 0.  1.
         12    1    3    3    0    0  0.14542456114E+02  0.10494443988E+02  0.36250038896E+01  0.18296366788E+02  0.00000000000E+00 0. -1.
</event>
<event>
 7    1  0.6061051E-012  0.5930192E+02  0.7816164E-02  0.1266605E+00
        -11   -1    0    0    0    0  0.00000000000E+00  0.00000000000E+00  0.45593999997E+02  0.45594000000E+02  0.51100000000E-03 0.  1.
         11   -1    0    0    0    0 -0.00000000000E+00 -0.00000000000E+00 -0.45593999997E+02  0.45594000000E+02  0.51100000000E-03 0. -1.
    9900012    2    1    2    0    0  0.18765153490E+02  0.17176566957E+02  0.19223858505E+02  0.59301918809E+02  0.49999954007E+02 0.  0.
         12    1    1    2    0    0 -0.18765153490E+02 -0.17176566957E+02 -0.19223858505E+02  0.31886081191E+02  0.00000000000E+00 0. -1.
         11    1    3    3    0    0 -0.93891571759E+00  0.10358794797E+02 -0.66450340577E+01  0.12342717296E+02  0.51100000000E-03 0. -1.
        -11    1    3    3    0    0  0.19081141168E+02  0.15345761122E+02  0.58279723110E+01  0.25170371356E+02  0.51100000000E-03 0.  1.
        -12    1    3    3    0    0  0.62292803953E+00 -0.85279889615E+01  0.20040920251E+02  0.21788830157E+02  0.00000000000E+00 0.  1.
</event>
<event>
 7    1  0.6061051E-012  0.5930187E+02  0.7816164E-02  0.1266605E+00
        -11   -1    0    0    0    0  0.00000000000E+00  0.00000000000E+00  0.45593999997E+02  0.45594000000E+02  0.51100000000E-03 0. -1.
         11   -1    0    0    0    0 -0.00000000000E+00 -0.00000000000E+00 -0.45593999997E+02  0.45594000000E+02  0.51100000000E-03 0.  1.
    9900012    2    1    2    0    0 -0.17600016867E+02 -0.25170315155E+02  0.85685393449E+01  0.59301870959E+02  0.49999866739E+02 0.  0.
         12    1    1    2    0    0  0.17600016867E+02  0.25170315155E+02 -0.85685393449E+01  0.31886129041E+02  0.00000000000E+00 0. -1.
         11    1    3    3    0    0  0.45533160390E+01 -0.15155714697E+01 -0.12155074913E+02  0.13068109666E+02  0.51100000000E-03 0. -1.
        -11    1    3    3    0    0 -0.30191895461E+01 -0.75060769680E+01 -0.56499963114E+01  0.98680877350E+01  0.51100000000E-03 0.  1.
         12    1    3    3    0    0 -0.19134143360E+02 -0.16148666718E+02  0.26373610569E+02  0.36365673558E+02  0.00000000000E+00 0. -1.
</event>
<event>
 7    1  0.6061051E-012  0.5930197E+02  0.7816164E-02  0.1266605E+00
        -11   -1    0    0    0    0  0.00000000000E+00  0.00000000000E+00  0.45593999997E+02  0.45594000000E+02  0.51100000000E-03 0.  1.
         11   -1    0    0    0    0 -0.00000000000E+00 -0.00000000000E+00 -0.45593999997E+02  0.45594000000E+02  0.51100000000E-03 0. -1.
    9900012    2    1    2    0    0  0.32312938509E+01  0.26469395772E+02  0.17482814411E+02  0.59301969011E+02  0.50000045564E+02 0.  0.
         12    1    1    2    0    0 -0.32312938509E+01 -0.26469395772E+02 -0.17482814411E+02  0.31886030989E+02  0.00000000000E+00 0. -1.
         11    1    3    3    0    0 -0.16494064608E+01 -0.12774058346E+02  0.77825422529E+01  0.15048756509E+02  0.51100000000E-03 0. -1.
        -11    1    3    3    0    0 -0.23966739280E+01  0.13039117662E+02  0.10702931659E+02  0.17038643775E+02  0.51100000000E-03 0.  1.
        -12    1    3    3    0    0  0.72773742396E+01  0.26204336456E+02 -0.10026595016E+01  0.27214568727E+02  0.00000000000E+00 0.  1.
</event>
<event>
 7    1  0.6061051E-012  0.5930199E+02  0.7816164E-02  0.1266605E+00
        -11   -1    0    0    0    0  0.00000000000E+00  0.00000000000E+00  0.45593999997E+02  0.45594000000E+02  0.51100000000E-03 0.  1.
         11   -1    0    0    0    0 -0.00000000000E+00 -0.00000000000E+00 -0.45593999997E+02  0.45594000000E+02  0.51100000000E-03 0. -1.
    9900012    2    1    2    0    0  0.22352854530E+02  0.78482536014E+01  0.21341793677E+02  0.59301994487E+02  0.50000092025E+02 0.  0.
         12    1    1    2    0    0 -0.22352854530E+02 -0.78482536014E+01 -0.21341793677E+02  0.31886005513E+02  0.00000000000E+00 0. -1.
         11    1    3    3    0    0 -0.13113487786E+02  0.64228760428E+01  0.77585802007E+01  0.16535188707E+02  0.51100000000E-03 0. -1.
        -11    1    3    3    0    0  0.12051549081E+01  0.53773866211E+01  0.44672529480E+01  0.70940139828E+01  0.51100000000E-03 0.  1.
         12    1    3    3    0    0  0.34261187408E+02 -0.39520090625E+01  0.91159605285E+01  0.35672791797E+02  0.00000000000E+00 0. -1.
</event>
<event>
 7    1  0.6061051E-012  0.5930192E+02  0.7816164E-02  0.1266605E+00
        -11   -1    0    0    0    0  0.00000000000E+00  0.00000000000E+00  0.45593999997E+02  0.45594000000E+02  0.51100000000E-03 0.  1.
         11   -1    0    0    0    0 -0.00000000000E+00 -0.00000000000E+00 -0.45593999997E+02  0.45594000000E+02  0.51100000000E-03 0. -1.
    9900012    2    1    2    0    0  0.11009093447E+02 -0.29465758876E+02  0.52240644090E+01  0.59301922574E+02  0.49999960873E+02 0.  0.
         12    1    1    2    0    0 -0.11009093447E+02  0.29465758876E+02 -0.52240644090E+01  0.31886077426E+02  0.00000000000E+00 0. -1.
         11    1    3    3    0    0  0.20003833498E+02 -0.10235665278E+02 -0.73987937627E+01  0.23657226120E+02  0.51100000000E-03 0. -1.
        -11    1    3    3    0    0  0.57028570545E+01 -0.63109001028E+00  0.10345727698E+02  0.11830255071E+02  0.51100000000E-03 0.  1.
         12    1    3    3    0    0 -0.14697597105E+02 -0.18599003588E+02  0.22771304734E+01  0.23814441382E+02  0.00000000000E+00 0. -1.
</event>
<event>
 7    1  0.6061051E-012  0.5930193E+02  0.7816164E-02  0.1266605E+00
        -11   -1    0    0    0    0  0.00000000000E+00  0.00000000000E+00  0.45593999997E+02  0.45594000000E+02  0.51100000000E-03 0. -1.
         11   -1    0    0    0    0 -0.00000000000E+00 -0.00000000000E+00 -0.45593999997E+02  0.45594000000E+02  0.51100000000E-03 0.  1.
    9900012    2    1    2    0    0  0.15196515274E+02 -0.42026278925E+01 -0.27715071840E+02  0.59301931494E+02  0.49999977141E+02 0.  0.
         12    1    1    2    0    0 -0.15196515274E+02  0.42026278925E+01  0.27715071840E+02  0.31886068506E+02  0.00000000000E+00 0. -1.
         11    1    3    3    0    0 -0.70111611024E+01 -0.23029885372E+01 -0.11554916182E+01  0.74696249803E+01  0.51100000000E-03 0. -1.
        -11    1    3    3    0    0  0.18599487037E+02 -0.18161799155E+02 -0.23192090069E+02  0.34837693790E+02  0.51100000000E-03 0.  1.
         12    1    3    3    0    0  0.36081893397E+01  0.16262159800E+02 -0.33674901535E+01  0.16994612723E+02  0.00000000000E+00 0. -1.
</event>
<event>
 7    1  0.6061051E-012  0.5930195E+02  0.7816164E-02  0.1266605E+00
        -11   -1    0    0    0    0  0.00000000000E+00  0.00000000000E+00  0.45593999997E+02  0.45594000000E+02  0.51100000000E-03 0. -1.
         11   -1    0    0    0    0 -0.00000000000E+00 -0.00000000000E+00 -0.45593999997E+02  0.45594000000E+02  0.51100000000E-03 0.  1.
    9900012    2    1    2    0    0  0.13945183240E+02 -0.26342248097E+01 -0.28553682536E+02  0.59301951917E+02  0.50000014389E+02 0.  0.
         12    1    1    2    0    0 -0.13945183240E+02  0.26342248097E+01  0.28553682536E+02  0.31886048083E+02  0.00000000000E+00 0. -1.
         11    1    3    3    0    0  0.18153284478E+02  0.15694255288E+02 -0.25325381764E+02  0.34888771090E+02  0.51100000000E-03 0.  1.
        -11    1    3    3    0    0  0.56183235767E+01 -0.52569771236E+01  0.23319573813E+00  0.76977755751E+01  0.51100000000E-03 0. -1.
        -12    1    3    3    0    0 -0.98264248148E+01 -0.13071502975E+02 -0.34614965100E+01  0.16715405252E+02  0.00000000000E+00 0.  1.
</event>
<event>
 7    1  0.6061051E-012  0.5930193E+02  0.7816164E-02  0.1266605E+00
        -11   -1    0    0    0    0  0.00000000000E+00  0.00000000000E+00  0.45593999997E+02  0.45594000000E+02  0.51100000000E-03 0.  1.
         11   -1    0    0    0    0 -0.00000000000E+00 -0.00000000000E+00 -0.45593999997E+02  0.45594000000E+02  0.51100000000E-03 0. -1.
    9900012    2    1    2    0    0 -0.23216926800E+02 -0.81735663756E+01  0.20270383322E+02  0.59301932238E+02  0.49999978498E+02 0.  0.
         12    1    1    2    0    0  0.23216926800E+02  0.81735663756E+01 -0.20270383322E+02  0.31886067762E+02  0.00000000000E+00 0. -1.
         11    1    3    3    0    0 -0.10528554538E+02 -0.17352666228E+01  0.13079819457E+01  0.10750461755E+02  0.51100000000E-03 0.  1.
        -11    1    3    3    0    0 -0.75621155294E+01  0.54121082499E+01  0.30097590950E+02  0.31501452161E+02  0.51100000000E-03 0. -1.
         12    1    3    3    0    0 -0.51262567321E+01 -0.11850408003E+02 -0.11135189574E+02  0.17050018321E+02  0.00000000000E+00 0. -1.
</event>
<event>
 7    1  0.6061051E-012  0.5930196E+02  0.7816164E-02  0.1266605E+00
        -11   -1    0    0    0    0  0.00000000000E+00  0.00000000000E+00  0.45593999997E+02  0.45594000000E+02  0.51100000000E-03 0.  1.
         11   -1    0    0    0    0 -0.00000000000E+00 -0.00000000000E+00 -0.45593999997E+02  0.45594000000E+02  0.51100000000E-03 0. -1.
    9900012    2    1    2    0    0  0.11988701589E+02  0.28420291979E+02  0.80794705551E+01  0.59301955931E+02  0.50000021708E+02 0.  0.
         12    1    1    2    0    0 -0.11988701589E+02 -0.28420291979E+02 -0.80794705551E+01  0.31886044069E+02  0.00000000000E+00 0. -1.
         11    1    3    3    0    0  0.99222977354E+01  0.54369879072E+00 -0.87748607811E+01  0.13256914525E+02  0.51100000000E-03 0. -1.
        -11    1    3    3    0    0  0.96920902850E+01  0.11247210396E+02  0.22448703943E+02  0.26914320812E+02  0.51100000000E-03 0.  1.
         12    1    3    3    0    0 -0.76256864317E+01  0.16629382792E+02 -0.55943726068E+01  0.19130720594E+02  0.00000000000E+00 0. -1.
</event>
<event>
 7    1  0.6061051E-012  0.5930192E+02  0.7816164E-02  0.1266605E+00
        -11   -1    0    0    0    0  0.00000000000E+00  0.00000000000E+00  0.45593999997E+02  0.45594000000E+02  0.51100000000E-03 0.  1.
         11   -1    0    0    0    0 -0.00000000000E+00 -0.00000000000E+00 -0.45593999997E+02  0.45594000000E+02  0.51100000000E-03 0. -1.
    9900012    2    1    2    0    0 -0.21084958962E+02  0.23787497079E+02  0.25103349483E+01  0.59301916935E+02  0.49999950589E+02 0.  0.
         12    1    1    2    0    0  0.21084958962E+02 -0.23787497079E+02 -0.25103349483E+01  0.31886083065E+02  0.00000000000E+00 0. -1.
         11    1    3    3    0    0 -0.10465444667E+02  0.27265529545E+02 -0.10677687130E+02  0.31095781646E+02  0.51100000000E-03 0.  1.
        -11    1    3    3    0    0 -0.33116838695E+01 -0.13326136320E+01 -0.63231020142E+01  0.72611795520E+01  0.51100000000E-03 0. -1.
        -12    1    3    3    0    0 -0.73078304249E+01 -0.21454188345E+01  0.19511124092E+02  0.20944955737E+02  0.00000000000E+00 0.  1.
</event>
<event>
 7    1  0.6061051E-012  0.5930195E+02  0.7816164E-02  0.1266605E+00
        -11   -1    0    0    0    0  0.00000000000E+00  0.00000000000E+00  0.45593999997E+02  0.45594000000E+02  0.51100000000E-03 0. -1.
         11   -1    0    0    0    0 -0.00000000000E+00 -0.00000000000E+00 -0.45593999997E+02  0.45594000000E+02  0.51100000000E-03 0.  1.
    9900012    2    1    2    0    0 -0.12808907443E+02  0.29164168662E+02  0.14503546413E+01  0.59301947058E+02  0.50000005527E+02 0.  0.
         12    1    1    2    0    0  0.12808907443E+02 -0.29164168662E+02 -0.14503546413E+01  0.31886052942E+02  0.00000000000E+00 0. -1.
         11    1    3    3    0    0 -0.11219012354E+02  0.92703314552E+01 -0.46133556291E+01  0.15267230721E+02  0.51100000000E-03 0.  1.
        -11    1    3    3    0    0  0.13982039991E+02  0.99858863334E+01 -0.97276187540E+01  0.19744415288E+02  0.51100000000E-03 0. -1.
         12    1    3    3    0    0 -0.15571935081E+02  0.99079508735E+01  0.15791329025E+02  0.24290301049E+02  0.00000000000E+00 0. -1.
</event>
<event>
 7    1  0.6061051E-012  0.5930197E+02  0.7816164E-02  0.1266605E+00
        -11   -1    0    0    0    0  0.00000000000E+00  0.00000000000E+00  0.45593999997E+02  0.45594000000E+02  0.51100000000E-03 0.  1.
         11   -1    0    0    0    0 -0.00000000000E+00 -0.00000000000E+00 -0.45593999997E+02  0.45594000000E+02  0.51100000000E-03 0. -1.
    9900012    2    1    2    0    0  0.29333785817E+01  0.61092168486E+01  0.31157530302E+02  0.59301969596E+02  0.50000046630E+02 0.  0.
         12    1    1    2    0    0 -0.29333785817E+01 -0.61092168486E+01 -0.31157530302E+02  0.31886030404E+02  0.00000000000E+00 0. -1.
         11    1    3    3    0    0  0.37388878216E+01  0.18577776879E+01  0.15907775003E+02  0.16446517135E+02  0.51100000000E-03 0. -1.
        -11    1    3    3    0    0 -0.70318379725E+01  0.10047908562E+02  0.26235877462E+02  0.28960809350E+02  0.51100000000E-03 0.  1.
         12    1    3    3    0    0  0.62263287326E+01 -0.57964694009E+01 -0.10986122163E+02  0.13894643111E+02  0.00000000000E+00 0. -1.
</event>
<event>
 7    1  0.6061051E-012  0.5930196E+02  0.7816164E-02  0.1266605E+00
        -11   -1    0    0    0    0  0.00000000000E+00  0.00000000000E+00  0.45593999997E+02  0.45594000000E+02  0.51100000000E-03 0. -1.
         11   -1    0    0    0    0 -0.00000000000E+00 -0.00000000000E+00 -0.45593999997E+02  0.45594000000E+02  0.51100000000E-03 0.  1.
    9900012    2    1    2    0    0 -0.10351778467E+02 -0.28726210115E+02 -0.91850410172E+01  0.59301961621E+02  0.50000032086E+02 0.  0.
         12    1    1    2    0    0  0.10351778467E+02  0.28726210115E+02  0.91850410172E+01  0.31886038379E+02  0.00000000000E+00 0. -1.
         11    1    3    3    0    0 -0.86219553571E+01 -0.16081902126E+01 -0.10393196410E+02  0.13599372111E+02  0.51100000000E-03 0. -1.
        -11    1    3    3    0    0  0.30058802351E+01 -0.24429440626E+02 -0.14849853702E+02  0.28746322208E+02  0.51100000000E-03 0.  1.
        -12    1    3    3    0    0 -0.47357033446E+01 -0.26885792771E+01  0.16058009095E+02  0.16956267301E+02  0.00000000000E+00 0.  1.
</event>
<event>
 7    1  0.6061051E-012  0.5930195E+02  0.7816164E-02  0.1266605E+00
        -11   -1    0    0    0    0  0.00000000000E+00  0.00000000000E+00  0.45593999997E+02  0.45594000000E+02  0.51100000000E-03 0. -1.
         11   -1    0    0    0    0 -0.00000000000E+00 -0.00000000000E+00 -0.45593999997E+02  0.45594000000E+02  0.51100000000E-03 0.  1.
    9900012    2    1    2    0    0  0.21825816109E+02  0.19743755144E+02 -0.12269402510E+02  0.59301947344E+02  0.50000006048E+02 0.  0.
         12    1    1    2    0    0 -0.21825816109E+02 -0.19743755144E+02  0.12269402510E+02  0.31886052656E+02  0.00000000000E+00 0. -1.
         11    1    3    3    0    0  0.33403456864E+01  0.16356238208E+02  0.31922469881E+01  0.16996319564E+02  0.51100000000E-03 0. -1.
        -11    1    3    3    0    0  0.18388215684E+01  0.16843908668E+02 -0.11652623950E+02  0.20564099036E+02  0.51100000000E-03 0.  1.
        -12    1    3    3    0    0  0.16646648854E+02 -0.13456391732E+02 -0.38090255484E+01  0.21741528745E+02  0.00000000000E+00 0.  1.
</event>
<event>
 7    1  0.6061051E-012  0.5930201E+02  0.7816164E-02  0.1266605E+00
        -11   -1    0    0    0    0  0.00000000000E+00  0.00000000000E+00  0.45593999997E+02  0.45594000000E+02  0.51100000000E-03 0.  1.
         11   -1    0    0    0    0 -0.00000000000E+00 -0.00000000000E+00 -0.45593999997E+02  0.45594000000E+02  0.51100000000E-03 0. -1.
    9900012    2    1    2    0    0 -0.18440070115E+02  0.25565524965E+02  0.48045700471E+01  0.59302013330E+02  0.50000126390E+02 0.  0.
         12    1    1    2    0    0  0.18440070115E+02 -0.25565524965E+02 -0.48045700471E+01  0.31885986670E+02  0.00000000000E+00 0. -1.
         11    1    3    3    0    0 -0.15756924607E+01  0.12434812969E+02  0.11305312683E+02  0.16879498672E+02  0.51100000000E-03 0. -1.
        -11    1    3    3    0    0  0.70848893349E+01  0.15485791669E+02 -0.68489714616E+01  0.18355212089E+02  0.51100000000E-03 0.  1.
         12    1    3    3    0    0 -0.23949266990E+02 -0.23550796727E+01  0.34822882554E+00  0.24067302568E+02  0.00000000000E+00 0. -1.
</event>
<event>
 7    1  0.6061051E-012  0.5930196E+02  0.7816164E-02  0.1266605E+00
        -11   -1    0    0    0    0  0.00000000000E+00  0.00000000000E+00  0.45593999997E+02  0.45594000000E+02  0.51100000000E-03 0.  1.
         11   -1    0    0    0    0 -0.00000000000E+00 -0.00000000000E+00 -0.45593999997E+02  0.45594000000E+02  0.51100000000E-03 0. -1.
    9900012    2    1    2    0    0 -0.56233957201E+01  0.11906714586E+02  0.29040095770E+02  0.59301959261E+02  0.50000027782E+02 0.  0.
         12    1    1    2    0    0  0.56233957201E+01 -0.11906714586E+02 -0.29040095770E+02  0.31886040739E+02  0.00000000000E+00 0. -1.
         11    1    3    3    0    0 -0.59919819745E+01  0.20188083799E+02  0.32806462710E+02  0.38983670572E+02  0.51100000000E-03 0. -1.
        -11    1    3    3    0    0  0.38502887304E+00  0.55041748853E+01  0.12338900925E+01  0.56539078010E+01  0.51100000000E-03 0.  1.
        -12    1    3    3    0    0 -0.16442618705E-01 -0.13785544098E+02 -0.50002570324E+01  0.14664380888E+02  0.00000000000E+00 0.  1.
</event>
<event>
 7    1  0.6061051E-012  0.5930194E+02  0.7816164E-02  0.1266605E+00
        -11   -1    0    0    0    0  0.00000000000E+00  0.00000000000E+00  0.45593999997E+02  0.45594000000E+02  0.51100000000E-03 0.  1.
         11   -1    0    0    0    0 -0.00000000000E+00 -0.00000000000E+00 -0.45593999997E+02  0.45594000000E+02  0.51100000000E-03 0. -1.
    9900012    2    1    2    0    0  0.15420450124E+02  0.11275094049E+02  0.25530426265E+02  0.59301942026E+02  0.49999996349E+02 0.  0.
         12    1    1    2    0    0 -0.15420450124E+02 -0.11275094049E+02 -0.25530426265E+02  0.31886057974E+02  0.00000000000E+00 0. -1.
         11    1    3    3    0    0  0.16067087204E+02  0.60369115758E+01  0.82630639935E+01  0.19049247214E+02  0.51100000000E-03 0. -1.
        -11    1    3    3    0    0  0.16562830973E+02  0.68466098299E+01  0.13810473609E+02  0.22625927993E+02  0.51100000000E-03 0.  1.
         12    1    3    3    0    0 -0.17209468053E+02 -0.16084273568E+01  0.34568886626E+01  0.17626766818E+02  0.00000000000E+00 0. -1.
</event>
<event>
 7    1  0.6061051E-012  0.5930192E+02  0.7816164E-02  0.1266605E+00
        -11   -1    0    0    0    0  0.00000000000E+00  0.00000000000E+00  0.45593999997E+02  0.45594000000E+02  0.51100000000E-03 0.  1.
         11   -1    0    0    0    0 -0.00000000000E+00 -0.00000000000E+00 -0.45593999997E+02  0.45594000000E+02  0.51100000000E-03 0. -1.
    9900012    2    1    2    0    0 -0.17947251601E+01  0.15553397248E+02  0.27777559614E+02  0.59301921181E+02  0.49999958333E+02 0.  0.
         12    1    1    2    0    0  0.17947251601E+01 -0.15553397248E+02 -0.27777559614E+02  0.31886078819E+02  0.00000000000E+00 0. -1.
         11    1    3    3    0    0  0.50206708303E+01  0.24018579923E+02  0.88621134379E+01  0.26089008643E+02  0.51100000000E-03 0. -1.
        -11    1    3    3    0    0  0.45821996495E+01 -0.85940364984E+00  0.18945383242E+02  0.19510578533E+02  0.51100000000E-03 0.  1.
        -12    1    3    3    0    0 -0.11397595640E+02 -0.76057790256E+01 -0.29937066024E-01  0.13702334005E+02  0.00000000000E+00 0.  1.
</event>
<event>
 7    1  0.6061051E-012  0.5930197E+02  0.7816164E-02  0.1266605E+00
        -11   -1    0    0    0    0  0.00000000000E+00  0.00000000000E+00  0.45593999997E+02  0.45594000000E+02  0.51100000000E-03 0.  1.
         11   -1    0    0    0    0 -0.00000000000E+00 -0.00000000000E+00 -0.45593999997E+02  0.45594000000E+02  0.51100000000E-03 0. -1.
    9900012    2    1    2    0    0 -0.26932775443E+02 -0.94843045904E+01  0.14191282650E+02  0.59301969675E+02  0.50000046775E+02 0.  0.
         12    1    1    2    0    0  0.26932775443E+02  0.94843045904E+01 -0.14191282650E+02  0.31886030325E+02  0.00000000000E+00 0. -1.
         11    1    3    3    0    0 -0.70783195673E+01 -0.32943380652E+01 -0.11223306921E+01  0.78876420830E+01  0.51100000000E-03 0. -1.
        -11    1    3    3    0    0 -0.19979952913E+02 -0.13000891885E+02  0.28147252634E+02  0.36884814482E+02  0.51100000000E-03 0.  1.
         12    1    3    3    0    0  0.12549703807E+00  0.68109253603E+01 -0.12833639292E+02  0.14529513111E+02  0.00000000000E+00 0. -1.
</event>
<event>
 7    1  0.6061051E-012  0.5930192E+02  0.7816164E-02  0.1266605E+00
        -11   -1    0    0    0    0  0.00000000000E+00  0.00000000000E+00  0.45593999997E+02  0.45594000000E+02  0.51100000000E-03 0. -1.
         11   -1    0    0    0    0 -0.00000000000E+00 -0.00000000000E+00 -0.45593999997E+02  0.45594000000E+02  0.51100000000E-03 0.  1.
    9900012    2    1    2    0    0  0.13297847252E+02  0.26420395121E+02 -0.11910163796E+02  0.59301921195E+02  0.49999958359E+02 0.  0.
         12    1    1    2    0    0 -0.13297847252E+02 -0.26420395121E+02  0.11910163796E+02  0.31886078805E+02  0.00000000000E+00 0. -1.
         11    1    3    3    0    0  0.27996489162E+02  0.94593177105E+01 -0.14173400630E+01  0.29585316461E+02  0.51100000000E-03 0. -1.
        -11    1    3    3    0    0 -0.35728986291E+01  0.45744031991E+01 -0.11661271251E+02  0.13025974693E+02  0.51100000000E-03 0.  1.
        -12    1    3    3    0    0 -0.11125743281E+02  0.12386674212E+02  0.11684475185E+01  0.16690630042E+02  0.00000000000E+00 0.  1.
</event>
<event>
 7    1  0.6061051E-012  0.5930194E+02  0.7816164E-02  0.1266605E+00
        -11   -1    0    0    0    0  0.00000000000E+00  0.00000000000E+00  0.45593999997E+02  0.45594000000E+02  0.51100000000E-03 0.  1.
         11   -1    0    0    0    0 -0.00000000000E+00 -0.00000000000E+00 -0.45593999997E+02  0.45594000000E+02  0.51100000000E-03 0. -1.
    9900012    2    1    2    0    0  0.36530140804E+01  0.66026976908E+01  0.30980323768E+02  0.59301943652E+02  0.49999999315E+02 0.  0.
         12    1    1    2    0    0 -0.36530140804E+01 -0.66026976908E+01 -0.30980323768E+02  0.31886056348E+02  0.00000000000E+00 0. -1.
         11    1    3    3    0    0 -0.30351296935E+01 -0.89813043681E+01 -0.35386395949E+01  0.10119180345E+02  0.51100000000E-03 0. -1.
        -11    1    3    3    0    0  0.63542497090E+01 -0.49824131673E+01 -0.10014621964E+01  0.81365752701E+01  0.51100000000E-03 0.  1.
        -12    1    3    3    0    0  0.33389406493E+00  0.20566415226E+02  0.35520425559E+02  0.41046188037E+02  0.00000000000E+00 0.  1.
</event>
<event>
 7    1  0.6061051E-012  0.5930192E+02  0.7816164E-02  0.1266605E+00
        -11   -1    0    0    0    0  0.00000000000E+00  0.00000000000E+00  0.45593999997E+02  0.45594000000E+02  0.51100000000E-03 0.  1.
         11   -1    0    0    0    0 -0.00000000000E+00 -0.00000000000E+00 -0.45593999997E+02  0.45594000000E+02  0.51100000000E-03 0. -1.
    9900012    2    1    2    0    0 -0.16596615914E+02  0.25158184553E+02  0.10408656458E+02  0.59301920920E+02  0.49999957858E+02 0.  0.
         12    1    1    2    0    0  0.16596615914E+02 -0.25158184553E+02 -0.10408656458E+02  0.31886079080E+02  0.00000000000E+00 0. -1.
         11    1    3    3    0    0  0.62254574770E+01  0.98499053518E+01  0.13212216630E+02  0.17616458917E+02  0.51100000000E-03 0. -1.
        -11    1    3    3    0    0 -0.58087798216E+01  0.20300853511E+02  0.59132587858E+01  0.21927909294E+02  0.51100000000E-03 0.  1.
         12    1    3    3    0    0 -0.17013293570E+02 -0.49925743094E+01 -0.87168189575E+01  0.19757552709E+02  0.00000000000E+00 0. -1.
</event>
<event>
 7    1  0.6061051E-012  0.5930194E+02  0.7816164E-02  0.1266605E+00
        -11   -1    0    0    0    0  0.00000000000E+00  0.00000000000E+00  0.45593999997E+02  0.45594000000E+02  0.51100000000E-03 0. -1.
         11   -1    0    0    0    0 -0.00000000000E+00 -0.00000000000E+00 -0.45593999997E+02  0.45594000000E+02  0.51100000000E-03 0.  1.
    9900012    2    1    2    0    0  0.12076969592E+02  0.29415925330E+02  0.23602980786E+01  0.59301939337E+02  0.49999991446E+02 0.  0.
         12    1    1    2    0    0 -0.12076969592E+02 -0.29415925330E+02 -0.23602980786E+01  0.31886060663E+02  0.00000000000E+00 0. -1.
         11    1    3    3    0    0  0.14740253106E+02 -0.61090224969E+01  0.32400683861E+00  0.15959329503E+02  0.51100000000E-03 0. -1.
        -11    1    3    3    0    0 -0.35976151506E+00  0.53599556912E+01 -0.95416755417E+01  0.10949982912E+02  0.51100000000E-03 0.  1.
        -12    1    3    3    0    0 -0.23035219990E+01  0.30164992136E+02  0.11577966782E+02  0.32392626923E+02  0.00000000000E+00 0.  1.
</event>
<event>
 7    1  0.6061051E-012  0.5930193E+02  0.7816164E-02  0.1266605E+00
        -11   -1    0    0    0    0  0.00000000000E+00  0.00000000000E+00  0.45593999997E+02  0.45594000000E+02  0.51100000000E-03 0.  1.
         11   -1    0    0    0    0 -0.00000000000E+00 -0.00000000000E+00 -0.45593999997E+02  0.45594000000E+02  0.51100000000E-03 0. -1.
    9900012    2    1    2    0    0  0.12282031138E+02  0.44118483174E+01  0.29093103219E+02  0.59301931735E+02  0.49999977582E+02 0.  0.
         12    1    1    2    0    0 -0.12282031138E+02 -0.44118483174E+01 -0.29093103219E+02  0.31886068265E+02  0.00000000000E+00 0. -1.
         11    1    3    3    0    0  0.29900636106E+01 -0.94492469784E+01  0.13237713121E+02  0.16536801317E+02  0.51100000000E-03 0. -1.
        -11    1    3    3    0    0 -0.11935717493E+02  0.83168936540E+01  0.14870955370E+02  0.20803302286E+02  0.51100000000E-03 0.  1.
        -12    1    3    3    0    0  0.21227685020E+02  0.55442016418E+01  0.98443472769E+00  0.21961828132E+02  0.00000000000E+00 0.  1.
</event>
<event>
 7    1  0.6061051E-012  0.5930188E+02  0.7816164E-02  0.1266605E+00
        -11   -1    0    0    0    0  0.00000000000E+00  0.00000000000E+00  0.45593999997E+02  0.45594000000E+02  0.51100000000E-03 0.  1.
         11   -1    0    0    0    0 -0.00000000000E+00 -0.00000000000E+00 -0.45593999997E+02  0.45594000000E+02  0.51100000000E-03 0. -1.
    9900012    2    1    2    0    0 -0.10047727435E+02 -0.12252283621E+02  0.27670365943E+02  0.59301883398E+02  0.49999889427E+02 0.  0.
         12    1    1    2    0    0  0.10047727435E+02  0.12252283621E+02 -0.27670365943E+02  0.31886116602E+02  0.00000000000E+00 0. -1.
         11    1    3    3    0    0 -0.15642080944E+00 -0.17320145717E+02  0.17025801660E+02  0.24287647839E+02  0.51100000000E-03 0. -1.
        -11    1    3    3    0    0 -0.17331360514E+02  0.10730634595E+02  0.14379625446E+02  0.24945865476E+02  0.51100000000E-03 0.  1.
         12    1    3    3    0    0  0.74400538888E+01 -0.56627724988E+01 -0.37350611635E+01  0.10068370083E+02  0.00000000000E+00 0. -1.
</event>
<event>
 7    1  0.6061051E-012  0.5930194E+02  0.7816164E-02  0.1266605E+00
        -11   -1    0    0    0    0  0.00000000000E+00  0.00000000000E+00  0.45593999997E+02  0.45594000000E+02  0.51100000000E-03 0.  1.
         11   -1    0    0    0    0 -0.00000000000E+00 -0.00000000000E+00 -0.45593999997E+02  0.45594000000E+02  0.51100000000E-03 0. -1.
    9900012    2    1    2    0    0  0.26318899785E+02 -0.10216396830E+02  0.14820979346E+02  0.59301942250E+02  0.49999996758E+02 0.  0.
         12    1    1    2    0    0 -0.26318899785E+02  0.10216396830E+02 -0.14820979346E+02  0.31886057750E+02  0.00000000000E+00 0. -1.
         11    1    3    3    0    0 -0.36653733984E+01  0.35149142725E+01 -0.57557156065E+01  0.76757961735E+01  0.51100000000E-03 0. -1.
        -11    1    3    3    0    0  0.16369571085E+02  0.61336507629E+01  0.21272130593E+02  0.27533399163E+02  0.51100000000E-03 0.  1.
        -12    1    3    3    0    0  0.13614702098E+02 -0.19864961865E+02 -0.69543564125E+00  0.24092746914E+02  0.00000000000E+00 0.  1.
</event>
<event>
 7    1  0.6061051E-012  0.5930194E+02  0.7816164E-02  0.1266605E+00
        -11   -1    0    0    0    0  0.00000000000E+00  0.00000000000E+00  0.45593999997E+02  0.45594000000E+02  0.51100000000E-03 0.  1.
         11   -1    0    0    0    0 -0.00000000000E+00 -0.00000000000E+00 -0.45593999997E+02  0.45594000000E+02  0.51100000000E-03 0. -1.
    9900012    2    1    2    0    0 -0.30768695284E+02 -0.77445713961E+01 -0.31670028082E+01  0.59301938744E+02  0.49999990364E+02 0.  0.
         12    1    1    2    0    0  0.30768695284E+02  0.77445713961E+01  0.31670028082E+01  0.31886061256E+02  0.00000000000E+00 0. -1.
         11    1    3    3    0    0 -0.31389871276E+01 -0.15954849920E+02 -0.12163928139E+02  0.20306935372E+02  0.51100000000E-03 0. -1.
        -11    1    3    3    0    0  0.25985568493E+01  0.61036847384E+01 -0.17215852347E+01  0.68535626550E+01  0.51100000000E-03 0.  1.
        -12    1    3    3    0    0 -0.30228265006E+02  0.21065937853E+01  0.10718510566E+02  0.32141440718E+02  0.00000000000E+00 0.  1.
</event>
<event>
 7    1  0.6061051E-012  0.5930200E+02  0.7816164E-02  0.1266605E+00
        -11   -1    0    0    0    0  0.00000000000E+00  0.00000000000E+00  0.45593999997E+02  0.45594000000E+02  0.51100000000E-03 0.  1.
         11   -1    0    0    0    0 -0.00000000000E+00 -0.00000000000E+00 -0.45593999997E+02  0.45594000000E+02  0.51100000000E-03 0. -1.
    9900012    2    1    2    0    0  0.21095100727E+02  0.11508615214E+02  0.20958656948E+02  0.59302003076E+02  0.50000107689E+02 0.  0.
         12    1    1    2    0    0 -0.21095100727E+02 -0.11508615214E+02 -0.20958656948E+02  0.31885996924E+02  0.00000000000E+00 0. -1.
         11    1    3    3    0    0  0.38894489107E+01 -0.22488122023E+01  0.46802532454E+01  0.64876605839E+01  0.51100000000E-03 0. -1.
        -11    1    3    3    0    0  0.20253536580E+02  0.26962367785E+02  0.30227630241E+01  0.33857231386E+02  0.51100000000E-03 0.  1.
         12    1    3    3    0    0 -0.30478847641E+01 -0.13204940369E+02  0.13255640679E+02  0.18957111106E+02  0.00000000000E+00 0. -1.
</event>
<event>
 7    1  0.6061051E-012  0.5930184E+02  0.7816164E-02  0.1266605E+00
        -11   -1    0    0    0    0  0.00000000000E+00  0.00000000000E+00  0.45593999997E+02  0.45594000000E+02  0.51100000000E-03 0.  1.
         11   -1    0    0    0    0 -0.00000000000E+00 -0.00000000000E+00 -0.45593999997E+02  0.45594000000E+02  0.51100000000E-03 0. -1.
    9900012    2    1    2    0    0 -0.23795279108E+02  0.18563526148E+02 -0.10291130328E+02  0.59301840396E+02  0.49999811001E+02 0.  0.
         12    1    1    2    0    0  0.23795279108E+02 -0.18563526148E+02  0.10291130328E+02  0.31886159604E+02  0.00000000000E+00 0. -1.
         11    1    3    3    0    0 -0.17525523738E+01  0.41987107573E+01  0.17002558465E+02  0.17600784257E+02  0.51100000000E-03 0. -1.
        -11    1    3    3    0    0 -0.97385225557E+01  0.25909547523E+01 -0.67371958681E+00  0.10099790416E+02  0.51100000000E-03 0.  1.
        -12    1    3    3    0    0 -0.12304204178E+02  0.11773860638E+02 -0.26619969206E+02  0.31601265723E+02  0.00000000000E+00 0.  1.
</event>
<event>
 7    1  0.6061051E-012  0.5930193E+02  0.7816164E-02  0.1266605E+00
        -11   -1    0    0    0    0  0.00000000000E+00  0.00000000000E+00  0.45593999997E+02  0.45594000000E+02  0.51100000000E-03 0. -1.
         11   -1    0    0    0    0 -0.00000000000E+00 -0.00000000000E+00 -0.45593999997E+02  0.45594000000E+02  0.51100000000E-03 0.  1.
    9900012    2    1    2    0    0 -0.22247137812E+02  0.10380178596E+02 -0.20347928797E+02  0.59301930081E+02  0.49999974565E+02 0.  0.
         12    1    1    2    0    0  0.22247137812E+02 -0.10380178596E+02  0.20347928797E+02  0.31886069919E+02  0.00000000000E+00 0. -1.
         11    1    3    3    0    0 -0.88800341905E+00 -0.29840223178E+01  0.86115051557E+01  0.91570170128E+01  0.51100000000E-03 0. -1.
        -11    1    3    3    0    0  0.86598190672E+01  0.33902434579E+01 -0.62537940796E+01  0.11206969155E+02  0.51100000000E-03 0.  1.
        -12    1    3    3    0    0 -0.30018953461E+02  0.99739574558E+01 -0.22705639873E+02  0.38937943914E+02  0.00000000000E+00 0.  1.
</event>
<event>
 7    1  0.6061051E-012  0.5930197E+02  0.7816164E-02  0.1266605E+00
        -11   -1    0    0    0    0  0.00000000000E+00  0.00000000000E+00  0.45593999997E+02  0.45594000000E+02  0.51100000000E-03 0. -1.
         11   -1    0    0    0    0 -0.00000000000E+00 -0.00000000000E+00 -0.45593999997E+02  0.45594000000E+02  0.51100000000E-03 0.  1.
    9900012    2    1    2    0    0  0.19507134967E+02 -0.12861456487E+02 -0.21697309315E+02  0.59301974706E+02  0.50000055949E+02 0.  0.
         12    1    1    2    0    0 -0.19507134967E+02  0.12861456487E+02  0.21697309315E+02  0.31886025294E+02  0.00000000000E+00 0. -1.
         11    1    3    3    0    0  0.71899181428E+01  0.64837130571E+00 -0.85906213717E+01  0.11221144508E+02  0.51100000000E-03 0. -1.
        -11    1    3    3    0    0  0.27176199532E+02 -0.10681467840E+02 -0.15016504083E+02  0.32834965682E+02  0.51100000000E-03 0.  1.
         12    1    3    3    0    0 -0.14858982708E+02 -0.28283599527E+01  0.19098161396E+01  0.15245864516E+02  0.00000000000E+00 0. -1.
</event>
<event>
 7    1  0.6061051E-012  0.5930194E+02  0.7816164E-02  0.1266605E+00
        -11   -1    0    0    0    0  0.00000000000E+00  0.00000000000E+00  0.45593999997E+02  0.45594000000E+02  0.51100000000E-03 0.  1.
         11   -1    0    0    0    0 -0.00000000000E+00 -0.00000000000E+00 -0.45593999997E+02  0.45594000000E+02  0.51100000000E-03 0. -1.
    9900012    2    1    2    0    0 -0.16079500537E+02 -0.22283356711E+02 -0.16174740872E+02  0.59301944017E+02  0.49999999981E+02 0.  0.
         12    1    1    2    0    0  0.16079500537E+02  0.22283356711E+02  0.16174740872E+02  0.31886055983E+02  0.00000000000E+00 0. -1.
         11    1    3    3    0    0  0.10838815558E+02  0.36728725891E+01 -0.43646224655E+01  0.12248258868E+02  0.51100000000E-03 0.  1.
        -11    1    3    3    0    0 -0.58041898033E+01 -0.10853492557E+02 -0.16590662532E+02  0.20657613692E+02  0.51100000000E-03 0. -1.
        -12    1    3    3    0    0 -0.21114126292E+02 -0.15102736744E+02  0.47805441252E+01  0.26396071457E+02  0.00000000000E+00 0.  1.
</event>
<event>
 7    1  0.6061051E-012  0.5930195E+02  0.7816164E-02  0.1266605E+00
        -11   -1    0    0    0    0  0.00000000000E+00  0.00000000000E+00  0.45593999997E+02  0.45594000000E+02  0.51100000000E-03 0. -1.
         11   -1    0    0    0    0 -0.00000000000E+00 -0.00000000000E+00 -0.45593999997E+02  0.45594000000E+02  0.51100000000E-03 0.  1.
    9900012    2    1    2    0    0  0.24881808836E+02  0.19124620706E+02 -0.56448945893E+01  0.59301947202E+02  0.50000005790E+02 0.  0.
         12    1    1    2    0    0 -0.24881808836E+02 -0.19124620706E+02  0.56448945893E+01  0.31886052798E+02  0.00000000000E+00 0. -1.
         11    1    3    3    0    0 -0.34043673858E+01  0.10398192241E+02 -0.35261092063E+01  0.11495458476E+02  0.51100000000E-03 0. -1.
        -11    1    3    3    0    0  0.20766023954E+02  0.16289770691E+00 -0.18526113863E+02  0.27829322335E+02  0.51100000000E-03 0.  1.
         12    1    3    3    0    0  0.75201522680E+01  0.85635307581E+01  0.16407328480E+02  0.19977166391E+02  0.00000000000E+00 0. -1.
</event>
<event>
 7    1  0.6061051E-012  0.5930196E+02  0.7816164E-02  0.1266605E+00
        -11   -1    0    0    0    0  0.00000000000E+00  0.00000000000E+00  0.45593999997E+02  0.45594000000E+02  0.51100000000E-03 0. -1.
         11   -1    0    0    0    0 -0.00000000000E+00 -0.00000000000E+00 -0.45593999997E+02  0.45594000000E+02  0.51100000000E-03 0.  1.
    9900012    2    1    2    0    0 -0.90939927199E+01  0.30479451423E+02 -0.22409172395E+01  0.59301962731E+02  0.50000034110E+02 0.  0.
         12    1    1    2    0    0  0.90939927199E+01 -0.30479451423E+02  0.22409172395E+01  0.31886037269E+02  0.00000000000E+00 0. -1.
         11    1    3    3    0    0 -0.14391832310E+02  0.28118412635E+02 -0.41960069258E+00  0.31590283812E+02  0.51100000000E-03 0. -1.
        -11    1    3    3    0    0 -0.75840708278E+01  0.83039911296E+01 -0.62291471161E+01  0.12855997552E+02  0.51100000000E-03 0.  1.
         12    1    3    3    0    0  0.12881910418E+02 -0.59429523417E+01  0.44078305692E+01  0.14855681367E+02  0.00000000000E+00 0. -1.
</event>
<event>
 7    1  0.6061051E-012  0.5930197E+02  0.7816164E-02  0.1266605E+00
        -11   -1    0    0    0    0  0.00000000000E+00  0.00000000000E+00  0.45593999997E+02  0.45594000000E+02  0.51100000000E-03 0.  1.
         11   -1    0    0    0    0 -0.00000000000E+00 -0.00000000000E+00 -0.45593999997E+02  0.45594000000E+02  0.51100000000E-03 0. -1.
    9900012    2    1    2    0    0 -0.57446982346E+01  0.39271795817E+01  0.31117436140E+02  0.59301966549E+02  0.50000041074E+02 0.  0.
         12    1    1    2    0    0  0.57446982346E+01 -0.39271795817E+01 -0.31117436140E+02  0.31886033451E+02  0.00000000000E+00 0. -1.
         11    1    3    3    0    0 -0.18305599219E+01  0.95619225461E+01  0.25664785401E+02  0.27449271800E+02  0.51100000000E-03 0. -1.
        -11    1    3    3    0    0 -0.10975388518E+02  0.53791056980E+01 -0.67495642264E+01  0.13962469292E+02  0.51100000000E-03 0.  1.
         12    1    3    3    0    0  0.70612502055E+01 -0.11013848662E+02  0.12202214965E+02  0.17890225456E+02  0.00000000000E+00 0. -1.
</event>
<event>
 7    1  0.6061051E-012  0.5930188E+02  0.7816164E-02  0.1266605E+00
        -11   -1    0    0    0    0  0.00000000000E+00  0.00000000000E+00  0.45593999997E+02  0.45594000000E+02  0.51100000000E-03 0. -1.
         11   -1    0    0    0    0 -0.00000000000E+00 -0.00000000000E+00 -0.45593999997E+02  0.45594000000E+02  0.51100000000E-03 0.  1.
    9900012    2    1    2    0    0 -0.95854993765E+00  0.19034922366E+02 -0.25563203970E+02  0.59301882571E+02  0.49999887918E+02 0.  0.
         12    1    1    2    0    0  0.95854993765E+00 -0.19034922366E+02  0.25563203970E+02  0.31886117429E+02  0.00000000000E+00 0. -1.
         11    1    3    3    0    0  0.64041608051E+01  0.12407323215E+02 -0.13610705753E+02  0.19498878335E+02  0.51100000000E-03 0. -1.
        -11    1    3    3    0    0  0.76766070935E+01  0.17457179151E+02 -0.88045858877E+01  0.21004859754E+02  0.51100000000E-03 0.  1.
        -12    1    3    3    0    0 -0.15039317836E+02 -0.10829579999E+02 -0.31479123291E+01  0.18798144482E+02  0.00000000000E+00 0.  1.
</event>
<event>
 7    1  0.6061051E-012  0.5930191E+02  0.7816164E-02  0.1266605E+00
        -11   -1    0    0    0    0  0.00000000000E+00  0.00000000000E+00  0.45593999997E+02  0.45594000000E+02  0.51100000000E-03 0. -1.
         11   -1    0    0    0    0 -0.00000000000E+00 -0.00000000000E+00 -0.45593999997E+02  0.45594000000E+02  0.51100000000E-03 0.  1.
    9900012    2    1    2    0    0  0.13127673295E+02 -0.88779456154E+01 -0.27668917040E+02  0.59301910640E+02  0.49999939109E+02 0.  0.
         12    1    1    2    0    0 -0.13127673295E+02  0.88779456154E+01  0.27668917040E+02  0.31886089360E+02  0.00000000000E+00 0. -1.
         11    1    3    3    0    0  0.20138809361E+01  0.49155103636E+01 -0.78201326850E+01  0.94536994891E+01  0.51100000000E-03 0. -1.
        -11    1    3    3    0    0  0.27341842594E+02 -0.81931458020E+01 -0.11757966486E+02  0.30869949316E+02  0.51100000000E-03 0.  1.
         12    1    3    3    0    0 -0.16228050235E+02 -0.56003101770E+01 -0.80908178685E+01  0.18978261835E+02  0.00000000000E+00 0. -1.
</event>
<event>
 7    1  0.6061051E-012  0.5930195E+02  0.7816164E-02  0.1266605E+00
        -11   -1    0    0    0    0  0.00000000000E+00  0.00000000000E+00  0.45593999997E+02  0.45594000000E+02  0.51100000000E-03 0.  1.
         11   -1    0    0    0    0 -0.00000000000E+00 -0.00000000000E+00 -0.45593999997E+02  0.45594000000E+02  0.51100000000E-03 0. -1.
    9900012    2    1    2    0    0 -0.16840082886E+01  0.22924907402E+02  0.22098252293E+02  0.59301952617E+02  0.50000015665E+02 0.  0.
         12    1    1    2    0    0  0.16840082886E+01 -0.22924907402E+02 -0.22098252293E+02  0.31886047383E+02  0.00000000000E+00 0. -1.
         11    1    3    3    0    0  0.27406886782E+01  0.23825998891E+02  0.29540669505E+01  0.24164356175E+02  0.51100000000E-03 0. -1.
        -11    1    3    3    0    0 -0.14686047971E+02  0.70842936375E+01  0.12436952678E+02  0.20507194190E+02  0.51100000000E-03 0.  1.
        -12    1    3    3    0    0  0.10261351005E+02 -0.79853851256E+01  0.67072326642E+01  0.14630402252E+02  0.00000000000E+00 0.  1.
</event>
<event>
 7    1  0.6061051E-012  0.5930193E+02  0.7816164E-02  0.1266605E+00
        -11   -1    0    0    0    0  0.00000000000E+00  0.00000000000E+00  0.45593999997E+02  0.45594000000E+02  0.51100000000E-03 0.  1.
         11   -1    0    0    0    0 -0.00000000000E+00 -0.00000000000E+00 -0.45593999997E+02  0.45594000000E+02  0.51100000000E-03 0. -1.
    9900012    2    1    2    0    0 -0.25007293283E+02  0.15631552196E+02  0.12124827140E+02  0.59301928204E+02  0.49999971141E+02 0.  0.
         12    1    1    2    0    0  0.25007293283E+02 -0.15631552196E+02 -0.12124827140E+02  0.31886071796E+02  0.00000000000E+00 0. -1.
         11    1    3    3    0    0 -0.58922705064E+01  0.27961230347E+02 -0.18408307017E+01  0.28634558005E+02  0.51100000000E-03 0. -1.
        -11    1    3    3    0    0 -0.15973467824E+02 -0.29382856062E+01  0.42366101113E+01  0.16784935571E+02  0.51100000000E-03 0.  1.
        -12    1    3    3    0    0 -0.31415549523E+01 -0.93913925443E+01  0.97290477308E+01  0.13882434628E+02  0.00000000000E+00 0.  1.
</event>
<event>
 7    1  0.6061051E-012  0.5930192E+02  0.7816164E-02  0.1266605E+00
        -11   -1    0    0    0    0  0.00000000000E+00  0.00000000000E+00  0.45593999997E+02  0.45594000000E+02  0.51100000000E-03 0. -1.
         11   -1    0    0    0    0 -0.00000000000E+00 -0.00000000000E+00 -0.45593999997E+02  0.45594000000E+02  0.51100000000E-03 0.  1.
    9900012    2    1    2    0    0  0.10567458688E+02 -0.29816506998E+02  0.40033161340E+01  0.59301924469E+02  0.49999964330E+02 0.  0.
         12    1    1    2    0    0 -0.10567458688E+02  0.29816506998E+02 -0.40033161340E+01  0.31886075531E+02  0.00000000000E+00 0. -1.
         11    1    3    3    0    0  0.13355608342E+02 -0.38238207642E+01  0.10801598815E+02  0.17597398008E+02  0.51100000000E-03 0. -1.
        -11    1    3    3    0    0 -0.89899984540E+01 -0.73700284894E+01  0.10407278775E+02  0.15602847301E+02  0.51100000000E-03 0.  1.
        -12    1    3    3    0    0  0.62018487991E+01 -0.18622657744E+02 -0.17205561456E+02  0.26101679161E+02  0.00000000000E+00 0.  1.
</event>
<event>
 7    1  0.6061051E-012  0.5930195E+02  0.7816164E-02  0.1266605E+00
        -11   -1    0    0    0    0  0.00000000000E+00  0.00000000000E+00  0.45593999997E+02  0.45594000000E+02  0.51100000000E-03 0. -1.
         11   -1    0    0    0    0 -0.00000000000E+00 -0.00000000000E+00 -0.45593999997E+02  0.45594000000E+02  0.51100000000E-03 0.  1.
    9900012    2    1    2    0    0  0.24294382632E+02  0.15378890681E+02 -0.13783800297E+02  0.59301945733E+02  0.50000003110E+02 0.  0.
         12    1    1    2    0    0 -0.24294382632E+02 -0.15378890681E+02  0.13783800297E+02  0.31886054267E+02  0.00000000000E+00 0. -1.
         11    1    3    3    0    0  0.15817537310E+02 -0.60395318498E+01  0.60776011869E+00  0.16942249087E+02  0.51100000000E-03 0. -1.
        -11    1    3    3    0    0  0.13990113932E+02  0.95935294254E+01  0.61340178203E+01  0.18038438667E+02  0.51100000000E-03 0.  1.
        -12    1    3    3    0    0 -0.55132686095E+01  0.11824893106E+02 -0.20525578236E+02  0.24321257979E+02  0.00000000000E+00 0.  1.
</event>
<event>
 7    1  0.6061051E-012  0.5930196E+02  0.7816164E-02  0.1266605E+00
        -11   -1    0    0    0    0  0.00000000000E+00  0.00000000000E+00  0.45593999997E+02  0.45594000000E+02  0.51100000000E-03 0.  1.
         11   -1    0    0    0    0 -0.00000000000E+00 -0.00000000000E+00 -0.45593999997E+02  0.45594000000E+02  0.51100000000E-03 0. -1.
    9900012    2    1    2    0    0 -0.14029557934E+02  0.23636969965E+02  0.16161215067E+02  0.59301957327E+02  0.50000024254E+02 0.  0.
         12    1    1    2    0    0  0.14029557934E+02 -0.23636969965E+02 -0.16161215067E+02  0.31886042673E+02  0.00000000000E+00 0. -1.
         11    1    3    3    0    0  0.44251455482E+01  0.94001377665E+01 -0.49101804762E+01  0.11491491449E+02  0.51100000000E-03 0.  1.
        -11    1    3    3    0    0 -0.10685136145E+01  0.22492365575E+02  0.58310042926E+01  0.23260456613E+02  0.51100000000E-03 0. -1.
        -12    1    3    3    0    0 -0.17386189867E+02 -0.82555333768E+01  0.15240391250E+02  0.24550009265E+02  0.00000000000E+00 0.  1.
</event>
<event>
 7    1  0.6061051E-012  0.5930194E+02  0.7816164E-02  0.1266605E+00
        -11   -1    0    0    0    0  0.00000000000E+00  0.00000000000E+00  0.45593999997E+02  0.45594000000E+02  0.51100000000E-03 0. -1.
         11   -1    0    0    0    0 -0.00000000000E+00 -0.00000000000E+00 -0.45593999997E+02  0.45594000000E+02  0.51100000000E-03 0.  1.
    9900012    2    1    2    0    0  0.26321124272E+02 -0.17972127303E+02  0.95998031333E+00  0.59301944977E+02  0.50000001731E+02 0.  0.
         12    1    1    2    0    0 -0.26321124272E+02  0.17972127303E+02 -0.95998031333E+00  0.31886055023E+02  0.00000000000E+00 0. -1.
         11    1    3    3    0    0 -0.83030941568E+01 -0.23551197080E+01  0.49781034144E+01  0.99634068110E+01  0.51100000000E-03 0. -1.
        -11    1    3    3    0    0  0.11887786364E+02 -0.22351960583E+02 -0.39670301664E+01  0.25625513364E+02  0.51100000000E-03 0.  1.
         12    1    3    3    0    0  0.22736432064E+02  0.67349529885E+01 -0.51092934628E-01  0.23713024802E+02  0.00000000000E+00 0. -1.
</event>
<event>
 7    1  0.6061051E-012  0.5930192E+02  0.7816164E-02  0.1266605E+00
        -11   -1    0    0    0    0  0.00000000000E+00  0.00000000000E+00  0.45593999997E+02  0.45594000000E+02  0.51100000000E-03 0.  1.
         11   -1    0    0    0    0 -0.00000000000E+00 -0.00000000000E+00 -0.45593999997E+02  0.45594000000E+02  0.51100000000E-03 0. -1.
    9900012    2    1    2    0    0 -0.26426222668E+02 -0.24920386423E+01  0.17668245609E+02  0.59301915198E+02  0.49999947421E+02 0.  0.
         12    1    1    2    0    0  0.26426222668E+02  0.24920386423E+01 -0.17668245609E+02  0.31886084802E+02  0.00000000000E+00 0. -1.
         11    1    3    3    0    0 -0.23906868313E+02 -0.88950790686E+00  0.25283877899E+01  0.24056648186E+02  0.51100000000E-03 0. -1.
        -11    1    3    3    0    0 -0.16073771064E+02 -0.44238520593E+01  0.13201357239E+02  0.21265286654E+02  0.51100000000E-03 0.  1.
         12    1    3    3    0    0  0.13554416709E+02  0.28213213238E+01  0.19385005796E+01  0.13979980358E+02  0.00000000000E+00 0. -1.
</event>
<event>
 7    1  0.6061051E-012  0.5930193E+02  0.7816164E-02  0.1266605E+00
        -11   -1    0    0    0    0  0.00000000000E+00  0.00000000000E+00  0.45593999997E+02  0.45594000000E+02  0.51100000000E-03 0.  1.
         11   -1    0    0    0    0 -0.00000000000E+00 -0.00000000000E+00 -0.45593999997E+02  0.45594000000E+02  0.51100000000E-03 0. -1.
    9900012    2    1    2    0    0 -0.26453611988E+02  0.54299646789E+01  0.16954147199E+02  0.59301933907E+02  0.49999981542E+02 0.  0.
         12    1    1    2    0    0  0.26453611988E+02 -0.54299646789E+01 -0.16954147199E+02  0.31886066093E+02  0.00000000000E+00 0. -1.
         11    1    3    3    0    0  0.11196483094E+02  0.57623427379E-01 -0.54902920467E+01  0.12470279113E+02  0.51100000000E-03 0. -1.
        -11    1    3    3    0    0 -0.72003503504E+01  0.14534730624E+01 -0.19715645361E+01  0.76055700702E+01  0.51100000000E-03 0.  1.
        -12    1    3    3    0    0 -0.30449744731E+02  0.39188681891E+01  0.24416003782E+02  0.39226084724E+02  0.00000000000E+00 0.  1.
</event>
<event>
 7    1  0.6061051E-012  0.5930192E+02  0.7816164E-02  0.1266605E+00
        -11   -1    0    0    0    0  0.00000000000E+00  0.00000000000E+00  0.45593999997E+02  0.45594000000E+02  0.51100000000E-03 0. -1.
         11   -1    0    0    0    0 -0.00000000000E+00 -0.00000000000E+00 -0.45593999997E+02  0.45594000000E+02  0.51100000000E-03 0.  1.
    9900012    2    1    2    0    0  0.21362043079E+02 -0.23603534742E+02 -0.18050813827E+01  0.59301920661E+02  0.49999957384E+02 0.  0.
         12    1    1    2    0    0 -0.21362043079E+02  0.23603534742E+02  0.18050813827E+01  0.31886079339E+02  0.00000000000E+00 0. -1.
         11    1    3    3    0    0  0.14890913585E+01  0.68313853408E+01 -0.51673220361E+01  0.86940460106E+01  0.51100000000E-03 0.  1.
        -11    1    3    3    0    0  0.78840285794E+01  0.68336347829E+01 -0.31980781760E+01  0.10912569600E+02  0.51100000000E-03 0. -1.
        -12    1    3    3    0    0  0.11988923141E+02 -0.37268554866E+02  0.65603188294E+01  0.39695305050E+02  0.00000000000E+00 0.  1.
</event>
<event>
 7    1  0.6061051E-012  0.5930192E+02  0.7816164E-02  0.1266605E+00
        -11   -1    0    0    0    0  0.00000000000E+00  0.00000000000E+00  0.45593999997E+02  0.45594000000E+02  0.51100000000E-03 0.  1.
         11   -1    0    0    0    0 -0.00000000000E+00 -0.00000000000E+00 -0.45593999997E+02  0.45594000000E+02  0.51100000000E-03 0. -1.
    9900012    2    1    2    0    0 -0.29323966753E+02 -0.64514762030E+01 -0.10733382429E+02  0.59301920441E+02  0.49999956983E+02 0.  0.
         12    1    1    2    0    0  0.29323966753E+02  0.64514762030E+01  0.10733382429E+02  0.31886079559E+02  0.00000000000E+00 0. -1.
         11    1    3    3    0    0 -0.41951090323E+01  0.13073967841E+02 -0.10023039899E+02  0.16999673643E+02  0.51100000000E-03 0. -1.
        -11    1    3    3    0    0 -0.11919977807E+01 -0.15279016263E+02 -0.74987228127E+01  0.17061654104E+02  0.51100000000E-03 0.  1.
        -12    1    3    3    0    0 -0.23936859940E+02 -0.42464277804E+01  0.67883802827E+01  0.25240592694E+02  0.00000000000E+00 0.  1.
</event>
<event>
 7    1  0.6061051E-012  0.5930226E+02  0.7816164E-02  0.1266604E+00
        -11   -1    0    0    0    0  0.00000000000E+00  0.00000000000E+00  0.45593999997E+02  0.45594000000E+02  0.51100000000E-03 0. -1.
         11   -1    0    0    0    0 -0.00000000000E+00 -0.00000000000E+00 -0.45593999997E+02  0.45594000000E+02  0.51100000000E-03 0.  1.
    9900012    2    1    2    0    0 -0.28970836445E+02 -0.12930713018E+02  0.31918619837E+01  0.59302255749E+02  0.50000568502E+02 0.  0.
         12    1    1    2    0    0  0.28970836445E+02  0.12930713018E+02 -0.31918619837E+01  0.31885744251E+02  0.00000000000E+00 0. -1.
         11    1    3    3    0    0 -0.90176505171E+01 -0.19107276180E+02 -0.17741026665E+02  0.27588947991E+02  0.51100000000E-03 0.  1.
        -11    1    3    3    0    0 -0.35367426892E+01  0.40738856057E+01  0.49951079233E+00  0.54179889323E+01  0.51100000000E-03 0. -1.
        -12    1    3    3    0    0 -0.16416443239E+02  0.21026775561E+01  0.20433377857E+02  0.26295318826E+02  0.00000000000E+00 0.  1.
</event>
<event>
 7    1  0.6061051E-012  0.5930197E+02  0.7816164E-02  0.1266605E+00
        -11   -1    0    0    0    0  0.00000000000E+00  0.00000000000E+00  0.45593999997E+02  0.45594000000E+02  0.51100000000E-03 0.  1.
         11   -1    0    0    0    0 -0.00000000000E+00 -0.00000000000E+00 -0.45593999997E+02  0.45594000000E+02  0.51100000000E-03 0. -1.
    9900012    2    1    2    0    0  0.29157900431E+02  0.12904863005E+02  0.68770815038E-02  0.59301973374E+02  0.50000053520E+02 0.  0.
         12    1    1    2    0    0 -0.29157900431E+02 -0.12904863005E+02 -0.68770815038E-02  0.31886026626E+02  0.00000000000E+00 0. -1.
         11    1    3    3    0    0 -0.57235069806E+01  0.15133227833E+02 -0.13175997238E+01  0.16232966029E+02  0.51100000000E-03 0. -1.
        -11    1    3    3    0    0 -0.36602503262E+01 -0.25731953052E+01 -0.36259722939E+00  0.44889022646E+01  0.51100000000E-03 0.  1.
        -12    1    3    3    0    0  0.38541657738E+02  0.34483047733E+00  0.16870740347E+01  0.38580105081E+02  0.00000000000E+00 0.  1.
</event>
<event>
 7    1  0.6061051E-012  0.5930196E+02  0.7816164E-02  0.1266605E+00
        -11   -1    0    0    0    0  0.00000000000E+00  0.00000000000E+00  0.45593999997E+02  0.45594000000E+02  0.51100000000E-03 0.  1.
         11   -1    0    0    0    0 -0.00000000000E+00 -0.00000000000E+00 -0.45593999997E+02  0.45594000000E+02  0.51100000000E-03 0. -1.
    9900012    2    1    2    0    0  0.93940696980E+01 -0.28973718601E+02  0.94337071182E+01  0.59301956893E+02  0.50000023463E+02 0.  0.
         12    1    1    2    0    0 -0.93940696980E+01  0.28973718601E+02 -0.94337071182E+01  0.31886043107E+02  0.00000000000E+00 0. -1.
         11    1    3    3    0    0 -0.14756249270E+02 -0.78534613996E+01 -0.42343852421E+01  0.17243948710E+02  0.51100000000E-03 0. -1.
        -11    1    3    3    0    0  0.33849864604E+01 -0.16949752730E+02  0.11514891353E+02  0.20768846239E+02  0.51100000000E-03 0.  1.
        -12    1    3    3    0    0  0.20765332508E+02 -0.41705044710E+01  0.21532010069E+01  0.21289161944E+02  0.00000000000E+00 0.  1.
</event>
<event>
 7    1  0.6061051E-012  0.5930195E+02  0.7816164E-02  0.1266605E+00
        -11   -1    0    0    0    0  0.00000000000E+00  0.00000000000E+00  0.45593999997E+02  0.45594000000E+02  0.51100000000E-03 0.  1.
         11   -1    0    0    0    0 -0.00000000000E+00 -0.00000000000E+00 -0.45593999997E+02  0.45594000000E+02  0.51100000000E-03 0. -1.
    9900012    2    1    2    0    0 -0.31428897057E+02 -0.49465897246E+01  0.21155680367E+01  0.59301953707E+02  0.50000017652E+02 0.  0.
         12    1    1    2    0    0  0.31428897057E+02  0.49465897246E+01 -0.21155680367E+01  0.31886046293E+02  0.00000000000E+00 0. -1.
         11    1    3    3    0    0 -0.19172609121E+02  0.73832166412E+01  0.16371884211E+02  0.26270504780E+02  0.51100000000E-03 0. -1.
        -11    1    3    3    0    0 -0.11331714641E+02  0.32942109764E+01  0.88037870532E-01  0.11801158146E+02  0.51100000000E-03 0.  1.
         12    1    3    3    0    0 -0.92457329447E+00 -0.15624017342E+02 -0.14344354045E+02  0.21230290781E+02  0.00000000000E+00 0. -1.
</event>
<event>
 7    1  0.6061051E-012  0.5930194E+02  0.7816164E-02  0.1266605E+00
        -11   -1    0    0    0    0  0.00000000000E+00  0.00000000000E+00  0.45593999997E+02  0.45594000000E+02  0.51100000000E-03 0.  1.
         11   -1    0    0    0    0 -0.00000000000E+00 -0.00000000000E+00 -0.45593999997E+02  0.45594000000E+02  0.51100000000E-03 0. -1.
    9900012    2    1    2    0    0 -0.28046447560E+01  0.24987101753E+02  0.19608653252E+02  0.59301943979E+02  0.49999999911E+02 0.  0.
         12    1    1    2    0    0  0.28046447560E+01 -0.24987101753E+02 -0.19608653252E+02  0.31886056021E+02  0.00000000000E+00 0. -1.
         11    1    3    3    0    0  0.16316808243E+02  0.19552843894E+02  0.92998167845E+01  0.27111593979E+02  0.51100000000E-03 0. -1.
        -11    1    3    3    0    0  0.38175554263E+01  0.71613833446E+00  0.77026935350E+01  0.86265909548E+01  0.51100000000E-03 0.  1.
         12    1    3    3    0    0 -0.22939008425E+02  0.47181195245E+01  0.26061429322E+01  0.23563759045E+02  0.00000000000E+00 0. -1.
</event>
<event>
 7    1  0.6061051E-012  0.5930193E+02  0.7816164E-02  0.1266605E+00
        -11   -1    0    0    0    0  0.00000000000E+00  0.00000000000E+00  0.45593999997E+02  0.45594000000E+02  0.51100000000E-03 0. -1.
         11   -1    0    0    0    0 -0.00000000000E+00 -0.00000000000E+00 -0.45593999997E+02  0.45594000000E+02  0.51100000000E-03 0.  1.
    9900012    2    1    2    0    0  0.19566684775E+02 -0.77609950189E+01 -0.23950644478E+02  0.59301928312E+02  0.49999971339E+02 0.  0.
         12    1    1    2    0    0 -0.19566684775E+02  0.77609950189E+01  0.23950644478E+02  0.31886071688E+02  0.00000000000E+00 0. -1.
         11    1    3    3    0    0  0.53109425457E+01  0.65478837157E+01  0.71788655035E+01  0.11073256163E+02  0.51100000000E-03 0. -1.
        -11    1    3    3    0    0  0.12537268060E+01  0.73143504069E+00  0.59667269016E+01  0.61407376024E+01  0.51100000000E-03 0.  1.
        -12    1    3    3    0    0  0.13002015423E+02 -0.15040313775E+02 -0.37096236883E+02  0.42087934547E+02  0.00000000000E+00 0.  1.
</event>
<event>
 7    1  0.6061051E-012  0.5930198E+02  0.7816164E-02  0.1266605E+00
        -11   -1    0    0    0    0  0.00000000000E+00  0.00000000000E+00  0.45593999997E+02  0.45594000000E+02  0.51100000000E-03 0.  1.
         11   -1    0    0    0    0 -0.00000000000E+00 -0.00000000000E+00 -0.45593999997E+02  0.45594000000E+02  0.51100000000E-03 0. -1.
    9900012    2    1    2    0    0 -0.14733651087E+02  0.25825454959E+02 -0.11518833477E+02  0.59301982330E+02  0.50000069854E+02 0.  0.
         12    1    1    2    0    0  0.14733651087E+02 -0.25825454959E+02  0.11518833477E+02  0.31886017670E+02  0.00000000000E+00 0. -1.
         11    1    3    3    0    0  0.11406563522E+01  0.23006725136E+00  0.20173233222E+01  0.23288669995E+01  0.51100000000E-03 0. -1.
        -11    1    3    3    0    0 -0.18779564301E+02 -0.75049790041E+01  0.19431850968E+01  0.20316808651E+02  0.51100000000E-03 0.  1.
         12    1    3    3    0    0  0.29052568613E+01  0.33100366711E+02 -0.15479341895E+02  0.36656306679E+02  0.00000000000E+00 0. -1.
</event>
<event>
 7    1  0.6061051E-012  0.5930196E+02  0.7816164E-02  0.1266605E+00
        -11   -1    0    0    0    0  0.00000000000E+00  0.00000000000E+00  0.45593999997E+02  0.45594000000E+02  0.51100000000E-03 0.  1.
         11   -1    0    0    0    0 -0.00000000000E+00 -0.00000000000E+00 -0.45593999997E+02  0.45594000000E+02  0.51100000000E-03 0. -1.
    9900012    2    1    2    0    0 -0.24123376769E+02 -0.74482110218E+01  0.19475795787E+02  0.59301956412E+02  0.50000022586E+02 0.  0.
         12    1    1    2    0    0  0.24123376769E+02  0.74482110218E+01 -0.19475795787E+02  0.31886043588E+02  0.00000000000E+00 0. -1.
         11    1    3    3    0    0 -0.18544792952E+01  0.95766786417E+01 -0.28929733724E+00  0.97588708605E+01  0.51100000000E-03 0. -1.
        -11    1    3    3    0    0 -0.56513106752E+00  0.71944940417E+01  0.15038132736E+02  0.16680094546E+02  0.51100000000E-03 0.  1.
         12    1    3    3    0    0 -0.21703766406E+02 -0.24219383705E+02  0.47269603882E+01  0.32862991005E+02  0.00000000000E+00 0. -1.
</event>
<event>
 7    1  0.6061051E-012  0.5930195E+02  0.7816164E-02  0.1266605E+00
        -11   -1    0    0    0    0  0.00000000000E+00  0.00000000000E+00  0.45593999997E+02  0.45594000000E+02  0.51100000000E-03 0. -1.
         11   -1    0    0    0    0 -0.00000000000E+00 -0.00000000000E+00 -0.45593999997E+02  0.45594000000E+02  0.51100000000E-03 0.  1.
    9900012    2    1    2    0    0  0.29784034540E+02 -0.57192834168E+01 -0.98448461531E+01  0.59301954274E+02  0.50000018687E+02 0.  0.
         12    1    1    2    0    0 -0.29784034540E+02  0.57192834168E+01  0.98448461531E+01  0.31886045726E+02  0.00000000000E+00 0. -1.
         11    1    3    3    0    0  0.55089638545E+01 -0.13941789571E+02 -0.12573220576E+01  0.15043371903E+02  0.51100000000E-03 0. -1.
        -11    1    3    3    0    0  0.27491596131E+02 -0.25899314788E+01 -0.14853131838E+02  0.31354602988E+02  0.51100000000E-03 0.  1.
        -12    1    3    3    0    0 -0.32165254459E+01  0.10812437633E+02  0.62656077427E+01  0.12903979383E+02  0.00000000000E+00 0.  1.
</event>
<event>
 7    1  0.6061051E-012  0.5930203E+02  0.7816164E-02  0.1266604E+00
        -11   -1    0    0    0    0  0.00000000000E+00  0.00000000000E+00  0.45593999997E+02  0.45594000000E+02  0.51100000000E-03 0.  1.
         11   -1    0    0    0    0 -0.00000000000E+00 -0.00000000000E+00 -0.45593999997E+02  0.45594000000E+02  0.51100000000E-03 0. -1.
    9900012    2    1    2    0    0  0.26835733543E+02 -0.16138632325E+02 -0.60085931010E+01  0.59302027549E+02  0.50000152322E+02 0.  0.
         12    1    1    2    0    0 -0.26835733543E+02  0.16138632325E+02  0.60085931010E+01  0.31885972451E+02  0.00000000000E+00 0. -1.
         11    1    3    3    0    0  0.12194505672E+02 -0.12754770388E+02  0.58582249993E+00  0.17655971355E+02  0.51100000000E-03 0. -1.
        -11    1    3    3    0    0  0.25779648515E+02  0.45930143596E+01 -0.90938535117E+01  0.27719744415E+02  0.51100000000E-03 0.  1.
         12    1    3    3    0    0 -0.11138420644E+02 -0.79768762967E+01  0.24994379107E+01  0.13926311779E+02  0.00000000000E+00 0. -1.
</event>
<event>
 7    1  0.6061051E-012  0.5930191E+02  0.7816164E-02  0.1266605E+00
        -11   -1    0    0    0    0  0.00000000000E+00  0.00000000000E+00  0.45593999997E+02  0.45594000000E+02  0.51100000000E-03 0. -1.
         11   -1    0    0    0    0 -0.00000000000E+00 -0.00000000000E+00 -0.45593999997E+02  0.45594000000E+02  0.51100000000E-03 0.  1.
    9900012    2    1    2    0    0  0.40625559957E+00  0.11364712343E+02 -0.29789273154E+02  0.59301913296E+02  0.49999943953E+02 0.  0.
         12    1    1    2    0    0 -0.40625559957E+00 -0.11364712343E+02  0.29789273154E+02  0.31886086704E+02  0.00000000000E+00 0. -1.
         11    1    3    3    0    0 -0.13668606050E+02  0.58284387256E+01  0.12693712433E+01  0.14913510417E+02  0.51100000000E-03 0. -1.
        -11    1    3    3    0    0 -0.39231949179E+01  0.11824106427E+02 -0.14685114944E+02  0.19257558317E+02  0.51100000000E-03 0.  1.
         12    1    3    3    0    0  0.17998056568E+02 -0.62878328095E+01 -0.16373529453E+02  0.25130844562E+02  0.00000000000E+00 0. -1.
</event>
<event>
 7    1  0.6061051E-012  0.5930197E+02  0.7816164E-02  0.1266605E+00
        -11   -1    0    0    0    0  0.00000000000E+00  0.00000000000E+00  0.45593999997E+02  0.45594000000E+02  0.51100000000E-03 0.  1.
         11   -1    0    0    0    0 -0.00000000000E+00 -0.00000000000E+00 -0.45593999997E+02  0.45594000000E+02  0.51100000000E-03 0. -1.
    9900012    2    1    2    0    0 -0.29446238737E+02  0.10839205866E+02 -0.56700590469E+01  0.59301969687E+02  0.50000046796E+02 0.  0.
         12    1    1    2    0    0  0.29446238737E+02 -0.10839205866E+02  0.56700590469E+01  0.31886030313E+02  0.00000000000E+00 0. -1.
         11    1    3    3    0    0 -0.98165942370E+00 -0.73348658343E+01 -0.13660643380E+02  0.15536315195E+02  0.51100000000E-03 0. -1.
        -11    1    3    3    0    0  0.13105278500E+01  0.10141985726E+02  0.79061067738E+01  0.12926093079E+02  0.51100000000E-03 0.  1.
        -12    1    3    3    0    0 -0.29775107163E+02  0.80320859742E+01  0.84477558883E-01  0.30839561413E+02  0.00000000000E+00 0.  1.
</event>
<event>
 7    1  0.6061051E-012  0.5930195E+02  0.7816164E-02  0.1266605E+00
        -11   -1    0    0    0    0  0.00000000000E+00  0.00000000000E+00  0.45593999997E+02  0.45594000000E+02  0.51100000000E-03 0.  1.
         11   -1    0    0    0    0 -0.00000000000E+00 -0.00000000000E+00 -0.45593999997E+02  0.45594000000E+02  0.51100000000E-03 0. -1.
    9900012    2    1    2    0    0 -0.28652827680E+02 -0.13963351293E+02 -0.87216660815E+00  0.59301946810E+02  0.50000005075E+02 0.  0.
         12    1    1    2    0    0  0.28652827680E+02  0.13963351293E+02  0.87216660815E+00  0.31886053190E+02  0.00000000000E+00 0. -1.
         11    1    3    3    0    0 -0.13085098230E+02 -0.16471285518E+02 -0.73712798931E+01  0.22290329963E+02  0.51100000000E-03 0. -1.
        -11    1    3    3    0    0 -0.98026261469E+00 -0.13965073932E+02 -0.23269831402E+00  0.14001369700E+02  0.51100000000E-03 0.  1.
        -12    1    3    3    0    0 -0.14587466835E+02  0.16473008157E+02  0.67318115990E+01  0.23010247148E+02  0.00000000000E+00 0.  1.
</event>
<event>
 7    1  0.6061051E-012  0.5930194E+02  0.7816164E-02  0.1266605E+00
        -11   -1    0    0    0    0  0.00000000000E+00  0.00000000000E+00  0.45593999997E+02  0.45594000000E+02  0.51100000000E-03 0.  1.
         11   -1    0    0    0    0 -0.00000000000E+00 -0.00000000000E+00 -0.45593999997E+02  0.45594000000E+02  0.51100000000E-03 0. -1.
    9900012    2    1    2    0    0 -0.94576309523E+01 -0.30323589341E+02  0.27845997367E+01  0.59301939574E+02  0.49999991878E+02 0.  0.
         12    1    1    2    0    0  0.94576309523E+01  0.30323589341E+02 -0.27845997367E+01  0.31886060426E+02  0.00000000000E+00 0. -1.
         11    1    3    3    0    0 -0.42011837825E+01 -0.43612144927E+01 -0.45819436154E+01  0.75937042727E+01  0.51100000000E-03 0. -1.
        -11    1    3    3    0    0 -0.52581435849E+01 -0.37389706015E+02 -0.62661683959E+00  0.37762823501E+02  0.51100000000E-03 0.  1.
         12    1    3    3    0    0  0.16964150309E-02  0.11427331166E+02  0.79931601916E+01  0.13945411801E+02  0.00000000000E+00 0. -1.
</event>
<event>
 7    1  0.6061051E-012  0.5930180E+02  0.7816164E-02  0.1266605E+00
        -11   -1    0    0    0    0  0.00000000000E+00  0.00000000000E+00  0.45593999997E+02  0.45594000000E+02  0.51100000000E-03 0.  1.
         11   -1    0    0    0    0 -0.00000000000E+00 -0.00000000000E+00 -0.45593999997E+02  0.45594000000E+02  0.51100000000E-03 0. -1.
    9900012    2    1    2    0    0  0.17635575419E+02  0.26204546252E+02 -0.43632212143E+01  0.59301804492E+02  0.49999745520E+02 0.  0.
         12    1    1    2    0    0 -0.17635575419E+02 -0.26204546252E+02  0.43632212143E+01  0.31886195508E+02  0.00000000000E+00 0. -1.
         11    1    3    3    0    0 -0.15821862361E+01 -0.23850427833E+01  0.50566697296E+01  0.58104777238E+01  0.51100000000E-03 0. -1.
        -11    1    3    3    0    0  0.14001544788E+02  0.14485396290E+02  0.14789265637E+02  0.24991845479E+02  0.51100000000E-03 0.  1.
         12    1    3    3    0    0  0.52162168664E+01  0.14104192745E+02 -0.24209156581E+02  0.28499481289E+02  0.00000000000E+00 0. -1.
</event>
<event>
 7    1  0.6061051E-012  0.5930193E+02  0.7816164E-02  0.1266605E+00
        -11   -1    0    0    0    0  0.00000000000E+00  0.00000000000E+00  0.45593999997E+02  0.45594000000E+02  0.51100000000E-03 0.  1.
         11   -1    0    0    0    0 -0.00000000000E+00 -0.00000000000E+00 -0.45593999997E+02  0.45594000000E+02  0.51100000000E-03 0. -1.
    9900012    2    1    2    0    0  0.18994242817E+02 -0.23050285935E+02  0.11163524273E+02  0.59301933826E+02  0.49999981394E+02 0.  0.
         12    1    1    2    0    0 -0.18994242817E+02  0.23050285935E+02 -0.11163524273E+02  0.31886066174E+02  0.00000000000E+00 0. -1.
         11    1    3    3    0    0  0.47816772279E+00 -0.98973718220E+01  0.75679670857E+01  0.12468389608E+02  0.51100000000E-03 0. -1.
        -11    1    3    3    0    0 -0.28397444259E+01 -0.33260268347E+01  0.18492539225E+02  0.19002647452E+02  0.51100000000E-03 0.  1.
         12    1    3    3    0    0  0.21355819520E+02 -0.98268872780E+01 -0.14896982038E+02  0.27830896766E+02  0.00000000000E+00 0. -1.
</event>
<event>
 7    1  0.6061051E-012  0.5930196E+02  0.7816164E-02  0.1266605E+00
        -11   -1    0    0    0    0  0.00000000000E+00  0.00000000000E+00  0.45593999997E+02  0.45594000000E+02  0.51100000000E-03 0. -1.
         11   -1    0    0    0    0 -0.00000000000E+00 -0.00000000000E+00 -0.45593999997E+02  0.45594000000E+02  0.51100000000E-03 0.  1.
    9900012    2    1    2    0    0  0.98421582430E+01 -0.29881752806E+02 -0.51896286235E+01  0.59301961129E+02  0.50000031188E+02 0.  0.
         12    1    1    2    0    0 -0.98421582430E+01  0.29881752806E+02  0.51896286235E+01  0.31886038871E+02  0.00000000000E+00 0. -1.
         11    1    3    3    0    0  0.86635869957E+01  0.47484194640E+01  0.14502323773E+02  0.17547724129E+02  0.51100000000E-03 0. -1.
        -11    1    3    3    0    0  0.17381748453E+01 -0.15798107422E+02 -0.21986553051E+01  0.16044797765E+02  0.51100000000E-03 0.  1.
        -12    1    3    3    0    0 -0.55960359794E+00 -0.18832064848E+02 -0.17493297092E+02  0.25709439235E+02  0.00000000000E+00 0.  1.
</event>
<event>
 7    1  0.6061051E-012  0.5930181E+02  0.7816164E-02  0.1266605E+00
        -11   -1    0    0    0    0  0.00000000000E+00  0.00000000000E+00  0.45593999997E+02  0.45594000000E+02  0.51100000000E-03 0.  1.
         11   -1    0    0    0    0 -0.00000000000E+00 -0.00000000000E+00 -0.45593999997E+02  0.45594000000E+02  0.51100000000E-03 0. -1.
    9900012    2    1    2    0    0  0.22864538504E+02  0.54950283158E+01  0.21534776700E+02  0.59301810752E+02  0.49999756937E+02 0.  0.
         12    1    1    2    0    0 -0.22864538504E+02 -0.54950283158E+01 -0.21534776700E+02  0.31886189248E+02  0.00000000000E+00 0. -1.
         11    1    3    3    0    0 -0.62070838747E+01  0.65566556131E+01  0.20745056832E+02  0.22624654832E+02  0.51100000000E-03 0. -1.
        -11    1    3    3    0    0  0.12857402035E+02  0.95721138234E+01  0.50858736566E+01  0.16816785104E+02  0.51100000000E-03 0.  1.
        -12    1    3    3    0    0  0.16214220344E+02 -0.10633741121E+02 -0.42961537879E+01  0.19860370816E+02  0.00000000000E+00 0.  1.
</event>
<event>
 7    1  0.6061051E-012  0.5930195E+02  0.7816164E-02  0.1266605E+00
        -11   -1    0    0    0    0  0.00000000000E+00  0.00000000000E+00  0.45593999997E+02  0.45594000000E+02  0.51100000000E-03 0.  1.
         11   -1    0    0    0    0 -0.00000000000E+00 -0.00000000000E+00 -0.45593999997E+02  0.45594000000E+02  0.51100000000E-03 0. -1.
    9900012    2    1    2    0    0  0.16250964186E+02 -0.26983132466E+02 -0.49534487035E+01  0.59301954012E+02  0.50000018209E+02 0.  0.
         12    1    1    2    0    0 -0.16250964186E+02  0.26983132466E+02  0.49534487035E+01  0.31886045988E+02  0.00000000000E+00 0. -1.
         11    1    3    3    0    0  0.48993003192E+01  0.48240591419E+01 -0.10486064164E+02  0.12539227732E+02  0.51100000000E-03 0. -1.
        -11    1    3    3    0    0  0.20807804488E+02 -0.13423777088E+02 -0.18011404132E+01  0.24827537654E+02  0.51100000000E-03 0.  1.
         12    1    3    3    0    0 -0.94561406206E+01 -0.18383414520E+02  0.73337558733E+01  0.21935188626E+02  0.00000000000E+00 0. -1.
</event>
<event>
 7    1  0.6061051E-012  0.5930195E+02  0.7816164E-02  0.1266605E+00
        -11   -1    0    0    0    0  0.00000000000E+00  0.00000000000E+00  0.45593999997E+02  0.45594000000E+02  0.51100000000E-03 0.  1.
         11   -1    0    0    0    0 -0.00000000000E+00 -0.00000000000E+00 -0.45593999997E+02  0.45594000000E+02  0.51100000000E-03 0. -1.
    9900012    2    1    2    0    0  0.16788602919E+02 -0.80840077887E+01  0.25874923094E+02  0.59301952659E+02  0.50000015741E+02 0.  0.
         12    1    1    2    0    0 -0.16788602919E+02  0.80840077887E+01 -0.25874923094E+02  0.31886047341E+02  0.00000000000E+00 0. -1.
         11    1    3    3    0    0  0.86968940188E+01 -0.21456737013E+02  0.35611598914E+01  0.23424546716E+02  0.51100000000E-03 0. -1.
        -11    1    3    3    0    0  0.15309842817E+02  0.50249908420E+01  0.85677300102E+01  0.18249597744E+02  0.51100000000E-03 0.  1.
         12    1    3    3    0    0 -0.72181339170E+01  0.83477383823E+01  0.13746033193E+02  0.17627808198E+02  0.00000000000E+00 0. -1.
</event>
<event>
 7    1  0.6061051E-012  0.5930192E+02  0.7816164E-02  0.1266605E+00
        -11   -1    0    0    0    0  0.00000000000E+00  0.00000000000E+00  0.45593999997E+02  0.45594000000E+02  0.51100000000E-03 0. -1.
         11   -1    0    0    0    0 -0.00000000000E+00 -0.00000000000E+00 -0.45593999997E+02  0.45594000000E+02  0.51100000000E-03 0.  1.
    9900012    2    1    2    0    0  0.11668171777E+02  0.56376406027E+01 -0.29134044752E+02  0.59301924861E+02  0.49999965044E+02 0.  0.
         12    1    1    2    0    0 -0.11668171777E+02 -0.56376406027E+01  0.29134044752E+02  0.31886075139E+02  0.00000000000E+00 0. -1.
         11    1    3    3    0    0  0.16357072834E+02  0.18179758354E+01 -0.72572929961E+00  0.16473783752E+02  0.51100000000E-03 0. -1.
        -11    1    3    3    0    0  0.11088807777E+02 -0.47864860037E+01 -0.44353318639E+01  0.12866401019E+02  0.51100000000E-03 0.  1.
        -12    1    3    3    0    0 -0.15777708833E+02  0.86061507710E+01 -0.23972983588E+02  0.29961740090E+02  0.00000000000E+00 0.  1.
</event>
<event>
 7    1  0.6061051E-012  0.5930190E+02  0.7816164E-02  0.1266605E+00
        -11   -1    0    0    0    0  0.00000000000E+00  0.00000000000E+00  0.45593999997E+02  0.45594000000E+02  0.51100000000E-03 0.  1.
         11   -1    0    0    0    0 -0.00000000000E+00 -0.00000000000E+00 -0.45593999997E+02  0.45594000000E+02  0.51100000000E-03 0. -1.
    9900012    2    1    2    0    0 -0.28650148404E+02  0.12958199957E+02 -0.52893486620E+01  0.59301903360E+02  0.49999925832E+02 0.  0.
         12    1    1    2    0    0  0.28650148404E+02 -0.12958199957E+02  0.52893486620E+01  0.31886096640E+02  0.00000000000E+00 0. -1.
         11    1    3    3    0    0 -0.63152716795E+01  0.84567793606E+00  0.66270478822E+01  0.91932361794E+01  0.51100000000E-03 0. -1.
        -11    1    3    3    0    0 -0.19407828852E+02 -0.13017178749E+02 -0.54674342170E+01  0.24000075010E+02  0.51100000000E-03 0.  1.
         12    1    3    3    0    0 -0.29270478721E+01  0.25129700769E+02 -0.64489623272E+01  0.26108592170E+02  0.00000000000E+00 0. -1.
</event>
<event>
 7    1  0.6061051E-012  0.5930195E+02  0.7816164E-02  0.1266605E+00
        -11   -1    0    0    0    0  0.00000000000E+00  0.00000000000E+00  0.45593999997E+02  0.45594000000E+02  0.51100000000E-03 0. -1.
         11   -1    0    0    0    0 -0.00000000000E+00 -0.00000000000E+00 -0.45593999997E+02  0.45594000000E+02  0.51100000000E-03 0.  1.
    9900012    2    1    2    0    0  0.12307691037E+02 -0.16494909860E+02 -0.24354848892E+02  0.59301953294E+02  0.50000016900E+02 0.  0.
         12    1    1    2    0    0 -0.12307691037E+02  0.16494909860E+02  0.24354848892E+02  0.31886046706E+02  0.00000000000E+00 0. -1.
         11    1    3    3    0    0  0.10077309889E+02  0.19832343869E+01  0.31215146508E+01  0.10734488679E+02  0.51100000000E-03 0. -1.
        -11    1    3    3    0    0 -0.31114642241E+00  0.95268440550E+01 -0.41475486532E+00  0.95409429096E+01  0.51100000000E-03 0.  1.
        -12    1    3    3    0    0  0.25415275706E+01 -0.28004988302E+02 -0.27061608678E+02  0.39026521705E+02  0.00000000000E+00 0.  1.
</event>
<event>
 7    1  0.6061051E-012  0.5930191E+02  0.7816164E-02  0.1266605E+00
        -11   -1    0    0    0    0  0.00000000000E+00  0.00000000000E+00  0.45593999997E+02  0.45594000000E+02  0.51100000000E-03 0. -1.
         11   -1    0    0    0    0 -0.00000000000E+00 -0.00000000000E+00 -0.45593999997E+02  0.45594000000E+02  0.51100000000E-03 0.  1.
    9900012    2    1    2    0    0  0.64961284122E+01  0.22930176512E+02  0.21183251823E+02  0.59301908408E+02  0.49999935038E+02 0.  0.
         12    1    1    2    0    0 -0.64961284122E+01 -0.22930176512E+02 -0.21183251823E+02  0.31886091592E+02  0.00000000000E+00 0. -1.
         11    1    3    3    0    0  0.24169315798E+01 -0.70554124774E+01  0.10560525111E+02  0.12928460634E+02  0.51100000000E-03 0. -1.
        -11    1    3    3    0    0  0.93345208457E+01 -0.26744099451E+01 -0.36127027571E+01  0.10360374966E+02  0.51100000000E-03 0.  1.
        -12    1    3    3    0    0 -0.52553240133E+01  0.32659998934E+02  0.14235429470E+02  0.36013072808E+02  0.00000000000E+00 0.  1.
</event>
<event>
 7    1  0.6061051E-012  0.5930200E+02  0.7816164E-02  0.1266605E+00
        -11   -1    0    0    0    0  0.00000000000E+00  0.00000000000E+00  0.45593999997E+02  0.45594000000E+02  0.51100000000E-03 0.  1.
         11   -1    0    0    0    0 -0.00000000000E+00 -0.00000000000E+00 -0.45593999997E+02  0.45594000000E+02  0.51100000000E-03 0. -1.
    9900012    2    1    2    0    0 -0.21154312016E+02 -0.16870174285E+02  0.16870366054E+02  0.59302000752E+02  0.50000103451E+02 0.  0.
         12    1    1    2    0    0  0.21154312016E+02  0.16870174285E+02 -0.16870366054E+02  0.31885999248E+02  0.00000000000E+00 0. -1.
         11    1    3    3    0    0 -0.66541780326E+01 -0.34751829928E+01 -0.41811582691E+01  0.85928497517E+01  0.51100000000E-03 0. -1.
        -11    1    3    3    0    0  0.13162724725E+02 -0.12951709873E+02  0.85112789029E+01  0.20333371084E+02  0.51100000000E-03 0.  1.
         12    1    3    3    0    0 -0.27662858708E+02 -0.44328141893E+00  0.12540245420E+02  0.30375779916E+02  0.00000000000E+00 0. -1.
</event>
<event>
 7    1  0.6061051E-012  0.5930195E+02  0.7816164E-02  0.1266605E+00
        -11   -1    0    0    0    0  0.00000000000E+00  0.00000000000E+00  0.45593999997E+02  0.45594000000E+02  0.51100000000E-03 0.  1.
         11   -1    0    0    0    0 -0.00000000000E+00 -0.00000000000E+00 -0.45593999997E+02  0.45594000000E+02  0.51100000000E-03 0. -1.
    9900012    2    1    2    0    0  0.31709957293E+02  0.19411453152E+01  0.27258817400E+01  0.59301954966E+02  0.50000019949E+02 0.  0.
         12    1    1    2    0    0 -0.31709957293E+02 -0.19411453152E+01 -0.27258817400E+01  0.31886045034E+02  0.00000000000E+00 0. -1.
         11    1    3    3    0    0 -0.37384828612E+01  0.80065940729E+01  0.77944563734E+01  0.11782841473E+02  0.51100000000E-03 0. -1.
        -11    1    3    3    0    0  0.15915411550E+02 -0.18199989804E+02 -0.39389930093E+01  0.24496032737E+02  0.51100000000E-03 0.  1.
        -12    1    3    3    0    0  0.19533028604E+02  0.12134541046E+02 -0.11295816242E+01  0.23023080756E+02  0.00000000000E+00 0.  1.
</event>
<event>
 7    1  0.6061051E-012  0.5930195E+02  0.7816164E-02  0.1266605E+00
        -11   -1    0    0    0    0  0.00000000000E+00  0.00000000000E+00  0.45593999997E+02  0.45594000000E+02  0.51100000000E-03 0.  1.
         11   -1    0    0    0    0 -0.00000000000E+00 -0.00000000000E+00 -0.45593999997E+02  0.45594000000E+02  0.51100000000E-03 0. -1.
    9900012    2    1    2    0    0  0.22888998716E+02  0.99122639743E+01  0.19863563715E+02  0.59301946578E+02  0.50000004652E+02 0.  0.
         12    1    1    2    0    0 -0.22888998716E+02 -0.99122639743E+01 -0.19863563715E+02  0.31886053422E+02  0.00000000000E+00 0. -1.
         11    1    3    3    0    0  0.63257721463E+01 -0.13551819131E+02  0.16891609792E+02  0.22560888206E+02  0.51100000000E-03 0. -1.
        -11    1    3    3    0    0  0.92092005310E+01 -0.99683191728E+00  0.59746706708E+01  0.11022691966E+02  0.51100000000E-03 0.  1.
        -12    1    3    3    0    0  0.73540260388E+01  0.24460915023E+02 -0.30027167474E+01  0.25718366406E+02  0.00000000000E+00 0.  1.
</event>
<event>
 7    1  0.6061051E-012  0.5930196E+02  0.7816164E-02  0.1266605E+00
        -11   -1    0    0    0    0  0.00000000000E+00  0.00000000000E+00  0.45593999997E+02  0.45594000000E+02  0.51100000000E-03 0.  1.
         11   -1    0    0    0    0 -0.00000000000E+00 -0.00000000000E+00 -0.45593999997E+02  0.45594000000E+02  0.51100000000E-03 0. -1.
    9900012    2    1    2    0    0  0.12664967221E+02 -0.28846821955E+02  0.49172478094E+01  0.59301955127E+02  0.50000020242E+02 0.  0.
         12    1    1    2    0    0 -0.12664967221E+02  0.28846821955E+02 -0.49172478094E+01  0.31886044873E+02  0.00000000000E+00 0. -1.
         11    1    3    3    0    0 -0.17243615420E+01 -0.26207323307E+02 -0.65207184638E+01  0.27061355975E+02  0.51100000000E-03 0. -1.
        -11    1    3    3    0    0  0.11053661304E+00 -0.19826238552E+01 -0.79268104283E+01  0.81717402994E+01  0.51100000000E-03 0.  1.
        -12    1    3    3    0    0  0.14278792150E+02 -0.65687479331E+00  0.19364776702E+02  0.24068858853E+02  0.00000000000E+00 0.  1.
</event>
<event>
 7    1  0.6061051E-012  0.5930195E+02  0.7816164E-02  0.1266605E+00
        -11   -1    0    0    0    0  0.00000000000E+00  0.00000000000E+00  0.45593999997E+02  0.45594000000E+02  0.51100000000E-03 0. -1.
         11   -1    0    0    0    0 -0.00000000000E+00 -0.00000000000E+00 -0.45593999997E+02  0.45594000000E+02  0.51100000000E-03 0.  1.
    9900012    2    1    2    0    0  0.72363057146E+01  0.21903895507E+02 -0.22013067425E+02  0.59301954522E+02  0.50000019138E+02 0.  0.
         12    1    1    2    0    0 -0.72363057146E+01 -0.21903895507E+02  0.22013067425E+02  0.31886045478E+02  0.00000000000E+00 0. -1.
         11    1    3    3    0    0  0.46530956257E+01 -0.68803260479E+01 -0.90148492720E+01  0.12257964476E+02  0.51100000000E-03 0. -1.
        -11    1    3    3    0    0  0.66639446204E+01 -0.40228209698E+01  0.51470568708E+01  0.93318508963E+01  0.51100000000E-03 0.  1.
         12    1    3    3    0    0 -0.40807345314E+01  0.32807042525E+02 -0.18145275024E+02  0.37712139150E+02  0.00000000000E+00 0. -1.
</event>
<event>
 7    1  0.6061051E-012  0.5930196E+02  0.7816164E-02  0.1266605E+00
        -11   -1    0    0    0    0  0.00000000000E+00  0.00000000000E+00  0.45593999997E+02  0.45594000000E+02  0.51100000000E-03 0.  1.
         11   -1    0    0    0    0 -0.00000000000E+00 -0.00000000000E+00 -0.45593999997E+02  0.45594000000E+02  0.51100000000E-03 0. -1.
    9900012    2    1    2    0    0  0.13517054258E+02  0.25923046056E+02  0.12728103958E+02  0.59301957551E+02  0.50000024664E+02 0.  0.
         12    1    1    2    0    0 -0.13517054258E+02 -0.25923046056E+02 -0.12728103958E+02  0.31886042449E+02  0.00000000000E+00 0. -1.
         11    1    3    3    0    0  0.66316673829E+00  0.48290592891E+01 -0.55937896308E+01  0.74195745454E+01  0.51100000000E-03 0. -1.
        -11    1    3    3    0    0 -0.14469822301E+02  0.14288235002E+02  0.65762865651E+01  0.21372341055E+02  0.51100000000E-03 0.  1.
         12    1    3    3    0    0  0.27323709821E+02  0.68057517651E+01  0.11745607024E+02  0.30510041951E+02  0.00000000000E+00 0. -1.
</event>
<event>
 7    1  0.6061051E-012  0.5930194E+02  0.7816164E-02  0.1266605E+00
        -11   -1    0    0    0    0  0.00000000000E+00  0.00000000000E+00  0.45593999997E+02  0.45594000000E+02  0.51100000000E-03 0.  1.
         11   -1    0    0    0    0 -0.00000000000E+00 -0.00000000000E+00 -0.45593999997E+02  0.45594000000E+02  0.51100000000E-03 0. -1.
    9900012    2    1    2    0    0  0.28036425174E+02 -0.34931230970E+01  0.14780992594E+02  0.59301940545E+02  0.49999993649E+02 0.  0.
         12    1    1    2    0    0 -0.28036425174E+02  0.34931230970E+01 -0.14780992594E+02  0.31886059455E+02  0.00000000000E+00 0. -1.
         11    1    3    3    0    0  0.29498922904E+02 -0.44985737919E+01 -0.51900801531E+01  0.30287960494E+02  0.51100000000E-03 0. -1.
        -11    1    3    3    0    0  0.70410970080E+01  0.75123754306E+01  0.10717540155E+02  0.14861981662E+02  0.51100000000E-03 0.  1.
        -12    1    3    3    0    0 -0.85035947380E+01 -0.65069247358E+01  0.92535325922E+01  0.14151998390E+02  0.00000000000E+00 0.  1.
</event>
<event>
 7    1  0.6061051E-012  0.5930194E+02  0.7816164E-02  0.1266605E+00
        -11   -1    0    0    0    0  0.00000000000E+00  0.00000000000E+00  0.45593999997E+02  0.45594000000E+02  0.51100000000E-03 0. -1.
         11   -1    0    0    0    0 -0.00000000000E+00 -0.00000000000E+00 -0.45593999997E+02  0.45594000000E+02  0.51100000000E-03 0.  1.
    9900012    2    1    2    0    0 -0.29534162113E+02  0.34787624305E+01  0.11504459913E+02  0.59301935369E+02  0.49999984209E+02 0.  0.
         12    1    1    2    0    0  0.29534162113E+02 -0.34787624305E+01 -0.11504459913E+02  0.31886064631E+02  0.00000000000E+00 0. -1.
         11    1    3    3    0    0 -0.10187541183E+02 -0.37935442535E+01  0.15063153533E+02  0.18576209732E+02  0.51100000000E-03 0. -1.
        -11    1    3    3    0    0 -0.25907374410E+02 -0.26525241372E+01  0.43999677775E+01  0.26411884632E+02  0.51100000000E-03 0.  1.
        -12    1    3    3    0    0  0.65607534804E+01  0.99248308212E+01 -0.79586613984E+01  0.14313841005E+02  0.00000000000E+00 0.  1.
</event>
<event>
 7    1  0.6061051E-012  0.5930199E+02  0.7816164E-02  0.1266605E+00
        -11   -1    0    0    0    0  0.00000000000E+00  0.00000000000E+00  0.45593999997E+02  0.45594000000E+02  0.51100000000E-03 0.  1.
         11   -1    0    0    0    0 -0.00000000000E+00 -0.00000000000E+00 -0.45593999997E+02  0.45594000000E+02  0.51100000000E-03 0. -1.
    9900012    2    1    2    0    0 -0.23661519221E+02  0.92340676008E+01  0.19276466939E+02  0.59301989369E+02  0.50000082691E+02 0.  0.
         12    1    1    2    0    0  0.23661519221E+02 -0.92340676008E+01 -0.19276466939E+02  0.31886010631E+02  0.00000000000E+00 0. -1.
         11    1    3    3    0    0 -0.14068208775E+02  0.11529292999E+02  0.98021595421E+01  0.20662077029E+02  0.51100000000E-03 0. -1.
        -11    1    3    3    0    0  0.77268358914E+01  0.12480398533E+02  0.31751393199E+01  0.15018183991E+02  0.51100000000E-03 0.  1.
         12    1    3    3    0    0 -0.17320146337E+02 -0.14775623931E+02  0.62991680773E+01  0.23621728349E+02  0.00000000000E+00 0. -1.
</event>
<event>
 7    1  0.6061051E-012  0.5930192E+02  0.7816164E-02  0.1266605E+00
        -11   -1    0    0    0    0  0.00000000000E+00  0.00000000000E+00  0.45593999997E+02  0.45594000000E+02  0.51100000000E-03 0. -1.
         11   -1    0    0    0    0 -0.00000000000E+00 -0.00000000000E+00 -0.45593999997E+02  0.45594000000E+02  0.51100000000E-03 0.  1.
    9900012    2    1    2    0    0 -0.31407037161E+02 -0.53289955115E+01 -0.13863455523E+01  0.59301919489E+02  0.49999955247E+02 0.  0.
         12    1    1    2    0    0  0.31407037161E+02  0.53289955115E+01  0.13863455523E+01  0.31886080511E+02  0.00000000000E+00 0. -1.
         11    1    3    3    0    0 -0.12876269907E-02 -0.45552918218E+01  0.33917889289E+01  0.56793413033E+01  0.51100000000E-03 0. -1.
        -11    1    3    3    0    0 -0.26783040595E+02 -0.18425306897E+02  0.50476008646E+01  0.32898350605E+02  0.51100000000E-03 0.  1.
        -12    1    3    3    0    0 -0.46227089385E+01  0.17651603207E+02 -0.98257353458E+01  0.20724227581E+02  0.00000000000E+00 0.  1.
</event>
<event>
 7    1  0.6061051E-012  0.5930195E+02  0.7816164E-02  0.1266605E+00
        -11   -1    0    0    0    0  0.00000000000E+00  0.00000000000E+00  0.45593999997E+02  0.45594000000E+02  0.51100000000E-03 0. -1.
         11   -1    0    0    0    0 -0.00000000000E+00 -0.00000000000E+00 -0.45593999997E+02  0.45594000000E+02  0.51100000000E-03 0.  1.
    9900012    2    1    2    0    0  0.24768022008E+02  0.18158199556E+02 -0.85758482121E+01  0.59301948224E+02  0.50000007653E+02 0.  0.
         12    1    1    2    0    0 -0.24768022008E+02 -0.18158199556E+02  0.85758482121E+01  0.31886051776E+02  0.00000000000E+00 0. -1.
         11    1    3    3    0    0  0.10704152849E+02 -0.93233733765E+01 -0.26480771727E+01  0.14440100149E+02  0.51100000000E-03 0. -1.
        -11    1    3    3    0    0 -0.55489395413E+00  0.14882701045E+02 -0.17009233509E+02  0.22607890713E+02  0.51100000000E-03 0.  1.
         12    1    3    3    0    0  0.14618763113E+02  0.12598871888E+02  0.11081462470E+02  0.22253957362E+02  0.00000000000E+00 0. -1.
</event>
<event>
 7    1  0.6061051E-012  0.5930200E+02  0.7816164E-02  0.1266605E+00
        -11   -1    0    0    0    0  0.00000000000E+00  0.00000000000E+00  0.45593999997E+02  0.45594000000E+02  0.51100000000E-03 0.  1.
         11   -1    0    0    0    0 -0.00000000000E+00 -0.00000000000E+00 -0.45593999997E+02  0.45594000000E+02  0.51100000000E-03 0. -1.
    9900012    2    1    2    0    0  0.23485039309E+02  0.11038755980E+02  0.18528783984E+02  0.59301999296E+02  0.50000100796E+02 0.  0.
         12    1    1    2    0    0 -0.23485039309E+02 -0.11038755980E+02 -0.18528783984E+02  0.31886000704E+02  0.00000000000E+00 0. -1.
         11    1    3    3    0    0 -0.15896139110E+01 -0.44407801755E+01  0.79952512434E+01  0.92828575158E+01  0.51100000000E-03 0. -1.
        -11    1    3    3    0    0  0.14652844393E+02  0.34364065493E+01  0.24554728953E+02  0.28800164114E+02  0.51100000000E-03 0.  1.
         12    1    3    3    0    0  0.10421808828E+02  0.12043129607E+02 -0.14021196213E+02  0.21218977666E+02  0.00000000000E+00 0. -1.
</event>
<event>
 7    1  0.6061051E-012  0.5930195E+02  0.7816164E-02  0.1266605E+00
        -11   -1    0    0    0    0  0.00000000000E+00  0.00000000000E+00  0.45593999997E+02  0.45594000000E+02  0.51100000000E-03 0.  1.
         11   -1    0    0    0    0 -0.00000000000E+00 -0.00000000000E+00 -0.45593999997E+02  0.45594000000E+02  0.51100000000E-03 0. -1.
    9900012    2    1    2    0    0  0.24756384560E+02  0.19697517441E+02  0.39811008982E+01  0.59301953927E+02  0.50000018054E+02 0.  0.
         12    1    1    2    0    0 -0.24756384560E+02 -0.19697517441E+02 -0.39811008982E+01  0.31886046073E+02  0.00000000000E+00 0. -1.
         11    1    3    3    0    0  0.65983392730E+01  0.21418873427E+01  0.19571200410E+01  0.72080567191E+01  0.51100000000E-03 0. -1.
        -11    1    3    3    0    0  0.19858427887E+02  0.65701653302E+01 -0.19034562705E+02  0.28281421610E+02  0.51100000000E-03 0.  1.
         12    1    3    3    0    0 -0.17003826003E+01  0.10985464768E+02  0.21058543563E+02  0.23812475599E+02  0.00000000000E+00 0. -1.
</event>
<event>
 7    1  0.6061051E-012  0.5930194E+02  0.7816164E-02  0.1266605E+00
        -11   -1    0    0    0    0  0.00000000000E+00  0.00000000000E+00  0.45593999997E+02  0.45594000000E+02  0.51100000000E-03 0.  1.
         11   -1    0    0    0    0 -0.00000000000E+00 -0.00000000000E+00 -0.45593999997E+02  0.45594000000E+02  0.51100000000E-03 0. -1.
    9900012    2    1    2    0    0 -0.23311598775E+02  0.57326330008E+01  0.20986354762E+02  0.59301940275E+02  0.49999993157E+02 0.  0.
         12    1    1    2    0    0  0.23311598775E+02 -0.57326330008E+01 -0.20986354762E+02  0.31886059725E+02  0.00000000000E+00 0. -1.
         11    1    3    3    0    0  0.10740020255E+02  0.55873767699E+00  0.90346755194E+01  0.14045838703E+02  0.51100000000E-03 0. -1.
        -11    1    3    3    0    0 -0.89967805396E+01  0.37048741537E+01  0.17063838295E+02  0.19642879885E+02  0.51100000000E-03 0.  1.
        -12    1    3    3    0    0 -0.25054838491E+02  0.14690211702E+01 -0.51121590523E+01  0.25613221687E+02  0.00000000000E+00 0.  1.
</event>
<event>
 7    1  0.6061051E-012  0.5930191E+02  0.7816164E-02  0.1266605E+00
        -11   -1    0    0    0    0  0.00000000000E+00  0.00000000000E+00  0.45593999997E+02  0.45594000000E+02  0.51100000000E-03 0. -1.
         11   -1    0    0    0    0 -0.00000000000E+00 -0.00000000000E+00 -0.45593999997E+02  0.45594000000E+02  0.51100000000E-03 0.  1.
    9900012    2    1    2    0    0 -0.57612823126E+01  0.13317390213E+02 -0.28393259966E+02  0.59301914203E+02  0.49999945606E+02 0.  0.
         12    1    1    2    0    0  0.57612823126E+01 -0.13317390213E+02  0.28393259966E+02  0.31886085797E+02  0.00000000000E+00 0. -1.
         11    1    3    3    0    0  0.82246247408E+01 -0.19655428916E+01  0.62677934182E+01  0.10525827548E+02  0.51100000000E-03 0.  1.
        -11    1    3    3    0    0 -0.27324274697E+01 -0.71792451984E+01 -0.27434901027E+01  0.81568658013E+01  0.51100000000E-03 0. -1.
         12    1    3    3    0    0 -0.11253479584E+02  0.22462178303E+02 -0.31917563282E+02  0.40619220853E+02  0.00000000000E+00 0. -1.
</event>
<event>
 7    1  0.6061051E-012  0.5930195E+02  0.7816164E-02  0.1266605E+00
        -11   -1    0    0    0    0  0.00000000000E+00  0.00000000000E+00  0.45593999997E+02  0.45594000000E+02  0.51100000000E-03 0. -1.
         11   -1    0    0    0    0 -0.00000000000E+00 -0.00000000000E+00 -0.45593999997E+02  0.45594000000E+02  0.51100000000E-03 0.  1.
    9900012    2    1    2    0    0  0.13509934580E+02 -0.89732052488E+01 -0.27453291039E+02  0.59301953935E+02  0.50000018069E+02 0.  0.
         12    1    1    2    0    0 -0.13509934580E+02  0.89732052488E+01  0.27453291039E+02  0.31886046065E+02  0.00000000000E+00 0. -1.
         11    1    3    3    0    0 -0.20562901307E+01 -0.64042095718E+01  0.11091247008E+02  0.12971429752E+02  0.51100000000E-03 0. -1.
        -11    1    3    3    0    0  0.15953664783E+02  0.88130331745E+00 -0.13132300531E+02  0.20682200875E+02  0.51100000000E-03 0.  1.
        -12    1    3    3    0    0 -0.38744007190E+00 -0.34502989945E+01 -0.25412237516E+02  0.25648323308E+02  0.00000000000E+00 0.  1.
</event>
<event>
 7    1  0.6061051E-012  0.5930200E+02  0.7816164E-02  0.1266605E+00
        -11   -1    0    0    0    0  0.00000000000E+00  0.00000000000E+00  0.45593999997E+02  0.45594000000E+02  0.51100000000E-03 0.  1.
         11   -1    0    0    0    0 -0.00000000000E+00 -0.00000000000E+00 -0.45593999997E+02  0.45594000000E+02  0.51100000000E-03 0. -1.
    9900012    2    1    2    0    0 -0.27383842388E+02  0.49252149371E+01 -0.15575125433E+02  0.59301998394E+02  0.50000099152E+02 0.  0.
         12    1    1    2    0    0  0.27383842388E+02 -0.49252149371E+01  0.15575125433E+02  0.31886001606E+02  0.00000000000E+00 0. -1.
         11    1    3    3    0    0 -0.12684623668E+02 -0.37405308127E+01  0.10888800338E+02  0.17130593143E+02  0.51100000000E-03 0. -1.
        -11    1    3    3    0    0 -0.94038790474E+01  0.77950011532E+01  0.27070468461E+01  0.12510918711E+02  0.51100000000E-03 0.  1.
         12    1    3    3    0    0 -0.52953396728E+01  0.87074459661E+00 -0.29170972617E+02  0.29660486540E+02  0.00000000000E+00 0. -1.
</event>
<event>
 7    1  0.6061051E-012  0.5930196E+02  0.7816164E-02  0.1266605E+00
        -11   -1    0    0    0    0  0.00000000000E+00  0.00000000000E+00  0.45593999997E+02  0.45594000000E+02  0.51100000000E-03 0.  1.
         11   -1    0    0    0    0 -0.00000000000E+00 -0.00000000000E+00 -0.45593999997E+02  0.45594000000E+02  0.51100000000E-03 0. -1.
    9900012    2    1    2    0    0 -0.24539576483E+02  0.15826571510E+02  0.12808130792E+02  0.59301962395E+02  0.50000033498E+02 0.  0.
         12    1    1    2    0    0  0.24539576483E+02 -0.15826571510E+02 -0.12808130792E+02  0.31886037605E+02  0.00000000000E+00 0. -1.
         11    1    3    3    0    0  0.13124728925E+02  0.11532381242E+01  0.66310713696E+01  0.14749900858E+02  0.51100000000E-03 0. -1.
        -11    1    3    3    0    0 -0.94518905762E+01 -0.40271740641E+01  0.15030356855E+01  0.10383423469E+02  0.51100000000E-03 0.  1.
        -12    1    3    3    0    0 -0.28212414833E+02  0.18700507450E+02  0.46740237368E+01  0.34168638069E+02  0.00000000000E+00 0.  1.
</event>
<event>
 7    1  0.6061051E-012  0.5930197E+02  0.7816164E-02  0.1266605E+00
        -11   -1    0    0    0    0  0.00000000000E+00  0.00000000000E+00  0.45593999997E+02  0.45594000000E+02  0.51100000000E-03 0.  1.
         11   -1    0    0    0    0 -0.00000000000E+00 -0.00000000000E+00 -0.45593999997E+02  0.45594000000E+02  0.51100000000E-03 0. -1.
    9900012    2    1    2    0    0 -0.25434475980E+02  0.18463008098E+02  0.53780976009E+01  0.59301965907E+02  0.50000039903E+02 0.  0.
         12    1    1    2    0    0  0.25434475980E+02 -0.18463008098E+02 -0.53780976009E+01  0.31886034093E+02  0.00000000000E+00 0. -1.
         11    1    3    3    0    0 -0.14498098582E+02  0.10133635029E+02 -0.10175534405E+01  0.17717811283E+02  0.51100000000E-03 0. -1.
        -11    1    3    3    0    0 -0.20662568143E+02  0.66373818421E+01  0.16647239919E+02  0.27351913226E+02  0.51100000000E-03 0.  1.
         12    1    3    3    0    0  0.97261907446E+01  0.16919912265E+01 -0.10251588877E+02  0.14232241398E+02  0.00000000000E+00 0. -1.
</event>
<event>
 7    1  0.6061051E-012  0.5930196E+02  0.7816164E-02  0.1266605E+00
        -11   -1    0    0    0    0  0.00000000000E+00  0.00000000000E+00  0.45593999997E+02  0.45594000000E+02  0.51100000000E-03 0.  1.
         11   -1    0    0    0    0 -0.00000000000E+00 -0.00000000000E+00 -0.45593999997E+02  0.45594000000E+02  0.51100000000E-03 0. -1.
    9900012    2    1    2    0    0 -0.11071342660E+02 -0.61902643654E+01  0.29254495173E+02  0.59301960907E+02  0.50000030784E+02 0.  0.
         12    1    1    2    0    0  0.11071342660E+02  0.61902643654E+01 -0.29254495173E+02  0.31886039093E+02  0.00000000000E+00 0. -1.
         11    1    3    3    0    0 -0.16925588468E+02 -0.52125294422E+01  0.62442706484E+01  0.18778629460E+02  0.51100000000E-03 0. -1.
        -11    1    3    3    0    0  0.10755981844E+02 -0.14297407161E+02  0.18240312447E+02  0.25550264096E+02  0.51100000000E-03 0.  1.
        -12    1    3    3    0    0 -0.49017360357E+01  0.13319672238E+02  0.47699120770E+01  0.14973067351E+02  0.00000000000E+00 0.  1.
</event>
<event>
 7    1  0.6061051E-012  0.5930194E+02  0.7816164E-02  0.1266605E+00
        -11   -1    0    0    0    0  0.00000000000E+00  0.00000000000E+00  0.45593999997E+02  0.45594000000E+02  0.51100000000E-03 0. -1.
         11   -1    0    0    0    0 -0.00000000000E+00 -0.00000000000E+00 -0.45593999997E+02  0.45594000000E+02  0.51100000000E-03 0.  1.
    9900012    2    1    2    0    0 -0.23921016727E+02 -0.71932339308E+01 -0.19818254801E+02  0.59301939112E+02  0.49999991034E+02 0.  0.
         12    1    1    2    0    0  0.23921016727E+02  0.71932339308E+01  0.19818254801E+02  0.31886060888E+02  0.00000000000E+00 0. -1.
         11    1    3    3    0    0 -0.26434781247E+02  0.32892624211E+01  0.47396236718E+01  0.27056994284E+02  0.51100000000E-03 0. -1.
        -11    1    3    3    0    0  0.38340879719E+01 -0.12319068140E+02 -0.72689684113E+01  0.14808699215E+02  0.51100000000E-03 0.  1.
        -12    1    3    3    0    0 -0.13203234514E+01  0.18365717881E+01 -0.17288910062E+02  0.17436245613E+02  0.00000000000E+00 0.  1.
</event>
<event>
 7    1  0.6061051E-012  0.5930195E+02  0.7816164E-02  0.1266605E+00
        -11   -1    0    0    0    0  0.00000000000E+00  0.00000000000E+00  0.45593999997E+02  0.45594000000E+02  0.51100000000E-03 0. -1.
         11   -1    0    0    0    0 -0.00000000000E+00 -0.00000000000E+00 -0.45593999997E+02  0.45594000000E+02  0.51100000000E-03 0.  1.
    9900012    2    1    2    0    0  0.31542092512E+02  0.46707650537E+01  0.17642053363E-01  0.59301953562E+02  0.50000017388E+02 0.  0.
         12    1    1    2    0    0 -0.31542092512E+02 -0.46707650537E+01 -0.17642053363E-01  0.31886046438E+02  0.00000000000E+00 0. -1.
         11    1    3    3    0    0 -0.32228595446E+01  0.12805043252E+02  0.56292872886E+00  0.13216385487E+02  0.51100000000E-03 0. -1.
        -11    1    3    3    0    0 -0.26432190215E+01  0.28812843567E+00 -0.67384460520E+01  0.72440513698E+01  0.51100000000E-03 0.  1.
        -12    1    3    3    0    0  0.37408171078E+02 -0.84224066338E+01  0.61931593765E+01  0.38841516705E+02  0.00000000000E+00 0.  1.
</event>
<event>
 7    1  0.6061051E-012  0.5930195E+02  0.7816164E-02  0.1266605E+00
        -11   -1    0    0    0    0  0.00000000000E+00  0.00000000000E+00  0.45593999997E+02  0.45594000000E+02  0.51100000000E-03 0.  1.
         11   -1    0    0    0    0 -0.00000000000E+00 -0.00000000000E+00 -0.45593999997E+02  0.45594000000E+02  0.51100000000E-03 0. -1.
    9900012    2    1    2    0    0 -0.25791071370E+01  0.12515451089E+02  0.29213555642E+02  0.59301950655E+02  0.50000012087E+02 0.  0.
         12    1    1    2    0    0  0.25791071370E+01 -0.12515451089E+02 -0.29213555642E+02  0.31886049345E+02  0.00000000000E+00 0. -1.
         11    1    3    3    0    0 -0.12096954999E+02 -0.72115677972E+01  0.72649808284E+01  0.15846860164E+02  0.51100000000E-03 0.  1.
        -11    1    3    3    0    0 -0.11140981335E+01  0.15461821237E+01 -0.72257494322E+01  0.74728407536E+01  0.51100000000E-03 0. -1.
        -12    1    3    3    0    0  0.10631945996E+02  0.18180836763E+02  0.29174324245E+02  0.35982249738E+02  0.00000000000E+00 0.  1.
</event>
<event>
 7    1  0.6061051E-012  0.5930194E+02  0.7816164E-02  0.1266605E+00
        -11   -1    0    0    0    0  0.00000000000E+00  0.00000000000E+00  0.45593999997E+02  0.45594000000E+02  0.51100000000E-03 0. -1.
         11   -1    0    0    0    0 -0.00000000000E+00 -0.00000000000E+00 -0.45593999997E+02  0.45594000000E+02  0.51100000000E-03 0.  1.
    9900012    2    1    2    0    0  0.18397769745E+02 -0.15575746438E+02 -0.20871967230E+02  0.59301939962E+02  0.49999992585E+02 0.  0.
         12    1    1    2    0    0 -0.18397769745E+02  0.15575746438E+02  0.20871967230E+02  0.31886060038E+02  0.00000000000E+00 0. -1.
         11    1    3    3    0    0  0.47289432211E+01  0.99201642343E+01  0.83577219546E+01  0.13806667916E+02  0.51100000000E-03 0. -1.
        -11    1    3    3    0    0 -0.29294887776E+01 -0.36439779619E+01  0.87936850857E+00  0.47574960977E+01  0.51100000000E-03 0.  1.
         12    1    3    3    0    0  0.16598315302E+02 -0.21851932711E+02 -0.30109057693E+02  0.40737775948E+02  0.00000000000E+00 0. -1.
</event>
<event>
 7    1  0.6061051E-012  0.5930191E+02  0.7816164E-02  0.1266605E+00
        -11   -1    0    0    0    0  0.00000000000E+00  0.00000000000E+00  0.45593999997E+02  0.45594000000E+02  0.51100000000E-03 0.  1.
         11   -1    0    0    0    0 -0.00000000000E+00 -0.00000000000E+00 -0.45593999997E+02  0.45594000000E+02  0.51100000000E-03 0. -1.
    9900012    2    1    2    0    0  0.23463902227E+02  0.12341663036E+02  0.17715848276E+02  0.59301911585E+02  0.49999940833E+02 0.  0.
         12    1    1    2    0    0 -0.23463902227E+02 -0.12341663036E+02 -0.17715848276E+02  0.31886088415E+02  0.00000000000E+00 0. -1.
         11    1    3    3    0    0  0.55337011277E+01 -0.17803079308E+02  0.11412677138E+02  0.21859109788E+02  0.51100000000E-03 0. -1.
        -11    1    3    3    0    0  0.13991219332E+01 -0.10885251714E+00 -0.15430594217E+01  0.20857669320E+01  0.51100000000E-03 0.  1.
        -12    1    3    3    0    0  0.16531079167E+02  0.30253594861E+02  0.78462305595E+01  0.35357034865E+02  0.00000000000E+00 0.  1.
</event>
<event>
 7    1  0.6061051E-012  0.5930192E+02  0.7816164E-02  0.1266605E+00
        -11   -1    0    0    0    0  0.00000000000E+00  0.00000000000E+00  0.45593999997E+02  0.45594000000E+02  0.51100000000E-03 0.  1.
         11   -1    0    0    0    0 -0.00000000000E+00 -0.00000000000E+00 -0.45593999997E+02  0.45594000000E+02  0.51100000000E-03 0. -1.
    9900012    2    1    2    0    0  0.18052601266E+02 -0.26235271718E+02  0.15924764461E+01  0.59301923480E+02  0.49999962526E+02 0.  0.
         12    1    1    2    0    0 -0.18052601266E+02  0.26235271718E+02 -0.15924764461E+01  0.31886076520E+02  0.00000000000E+00 0. -1.
         11    1    3    3    0    0  0.23144641704E+01  0.41795221440E+01  0.37195388969E+01  0.60547600790E+01  0.51100000000E-03 0. -1.
        -11    1    3    3    0    0 -0.67693048216E+01  0.60283659561E+01 -0.49371282355E+01  0.10321817638E+02  0.51100000000E-03 0.  1.
         12    1    3    3    0    0  0.22507441918E+02 -0.36443159818E+02  0.28100657847E+01  0.42925345764E+02  0.00000000000E+00 0. -1.
</event>
<event>
 7    1  0.6061051E-012  0.5930193E+02  0.7816164E-02  0.1266605E+00
        -11   -1    0    0    0    0  0.00000000000E+00  0.00000000000E+00  0.45593999997E+02  0.45594000000E+02  0.51100000000E-03 0. -1.
         11   -1    0    0    0    0 -0.00000000000E+00 -0.00000000000E+00 -0.45593999997E+02  0.45594000000E+02  0.51100000000E-03 0.  1.
    9900012    2    1    2    0    0 -0.26208204405E+02  0.12780251383E+02 -0.12904129667E+02  0.59301931475E+02  0.49999977106E+02 0.  0.
         12    1    1    2    0    0  0.26208204405E+02 -0.12780251383E+02  0.12904129667E+02  0.31886068525E+02  0.00000000000E+00 0. -1.
         11    1    3    3    0    0 -0.49152281380E+01  0.74364211760E+01  0.20058805040E+01  0.91369242315E+01  0.51100000000E-03 0. -1.
        -11    1    3    3    0    0 -0.32888861094E+02  0.11161849830E+02 -0.88232654512E+01  0.35834537658E+02  0.51100000000E-03 0.  1.
        -12    1    3    3    0    0  0.11595884827E+02 -0.58180196232E+01 -0.60867447203E+01  0.14330469586E+02  0.00000000000E+00 0.  1.
</event>
<event>
 7    1  0.6061051E-012  0.5930194E+02  0.7816164E-02  0.1266605E+00
        -11   -1    0    0    0    0  0.00000000000E+00  0.00000000000E+00  0.45593999997E+02  0.45594000000E+02  0.51100000000E-03 0.  1.
         11   -1    0    0    0    0 -0.00000000000E+00 -0.00000000000E+00 -0.45593999997E+02  0.45594000000E+02  0.51100000000E-03 0. -1.
    9900012    2    1    2    0    0 -0.16072770742E+02  0.52682557739E+00  0.27533781593E+02  0.59301942964E+02  0.49999998060E+02 0.  0.
         12    1    1    2    0    0  0.16072770742E+02 -0.52682557739E+00 -0.27533781593E+02  0.31886057036E+02  0.00000000000E+00 0. -1.
         11    1    3    3    0    0 -0.13946581184E+02 -0.41809484900E+01 -0.40216744403E+01  0.15105009850E+02  0.51100000000E-03 0. -1.
        -11    1    3    3    0    0 -0.15218354864E+02  0.80627839809E+01  0.20194450548E+02  0.26540961616E+02  0.51100000000E-03 0.  1.
         12    1    3    3    0    0  0.13092165306E+02 -0.33550099135E+01  0.11361005485E+02  0.17655971498E+02  0.00000000000E+00 0. -1.
</event>
<event>
 7    1  0.6061051E-012  0.5930195E+02  0.7816164E-02  0.1266605E+00
        -11   -1    0    0    0    0  0.00000000000E+00  0.00000000000E+00  0.45593999997E+02  0.45594000000E+02  0.51100000000E-03 0.  1.
         11   -1    0    0    0    0 -0.00000000000E+00 -0.00000000000E+00 -0.45593999997E+02  0.45594000000E+02  0.51100000000E-03 0. -1.
    9900012    2    1    2    0    0 -0.27368526958E+02  0.84096153323E+01  0.14034323846E+02  0.59301950641E+02  0.50000012061E+02 0.  0.
         12    1    1    2    0    0  0.27368526958E+02 -0.84096153323E+01 -0.14034323846E+02  0.31886049359E+02  0.00000000000E+00 0. -1.
         11    1    3    3    0    0 -0.24104658303E+02  0.20010056747E+02  0.86940733112E+00  0.31339955205E+02  0.51100000000E-03 0. -1.
        -11    1    3    3    0    0 -0.10311844811E+02  0.77395480998E+00  0.67062345082E+01  0.12325044868E+02  0.51100000000E-03 0.  1.
         12    1    3    3    0    0  0.70479761556E+01 -0.12374396224E+02  0.64586820066E+01  0.15636950568E+02  0.00000000000E+00 0. -1.
</event>
<event>
 7    1  0.6061051E-012  0.5930196E+02  0.7816164E-02  0.1266605E+00
        -11   -1    0    0    0    0  0.00000000000E+00  0.00000000000E+00  0.45593999997E+02  0.45594000000E+02  0.51100000000E-03 0.  1.
         11   -1    0    0    0    0 -0.00000000000E+00 -0.00000000000E+00 -0.45593999997E+02  0.45594000000E+02  0.51100000000E-03 0. -1.
    9900012    2    1    2    0    0 -0.25184328634E+02  0.77449338341E+01  0.17957873221E+02  0.59301958862E+02  0.50000027053E+02 0.  0.
         12    1    1    2    0    0  0.25184328634E+02 -0.77449338341E+01 -0.17957873221E+02  0.31886041138E+02  0.00000000000E+00 0. -1.
         11    1    3    3    0    0  0.65696948054E+01  0.10644617952E+02  0.13842061433E+02  0.18656672966E+02  0.51100000000E-03 0. -1.
        -11    1    3    3    0    0 -0.18242706753E+02 -0.45161819718E+01  0.14327645126E+02  0.23632047401E+02  0.51100000000E-03 0.  1.
         12    1    3    3    0    0 -0.13511316687E+02  0.16164978537E+01 -0.10211833338E+02  0.17013238494E+02  0.00000000000E+00 0. -1.
</event>
<event>
 7    1  0.6061051E-012  0.5930198E+02  0.7816164E-02  0.1266605E+00
        -11   -1    0    0    0    0  0.00000000000E+00  0.00000000000E+00  0.45593999997E+02  0.45594000000E+02  0.51100000000E-03 0. -1.
         11   -1    0    0    0    0 -0.00000000000E+00 -0.00000000000E+00 -0.45593999997E+02  0.45594000000E+02  0.51100000000E-03 0.  1.
    9900012    2    1    2    0    0 -0.14571575698E+02  0.26544788950E+02 -0.99880753008E+01  0.59301979758E+02  0.50000065163E+02 0.  0.
         12    1    1    2    0    0  0.14571575698E+02 -0.26544788950E+02  0.99880753008E+01  0.31886020242E+02  0.00000000000E+00 0. -1.
         11    1    3    3    0    0 -0.29841714924E+01  0.63020344767E+01  0.79616266445E+01  0.10583402909E+02  0.51100000000E-03 0. -1.
        -11    1    3    3    0    0 -0.17725987019E+02  0.17948078858E+02  0.42414673956E+01  0.25579956928E+02  0.51100000000E-03 0.  1.
         12    1    3    3    0    0  0.61385828136E+01  0.22946756144E+01 -0.22191169341E+02  0.23138619921E+02  0.00000000000E+00 0. -1.
</event>
<event>
 7    1  0.6061051E-012  0.5930197E+02  0.7816164E-02  0.1266605E+00
        -11   -1    0    0    0    0  0.00000000000E+00  0.00000000000E+00  0.45593999997E+02  0.45594000000E+02  0.51100000000E-03 0.  1.
         11   -1    0    0    0    0 -0.00000000000E+00 -0.00000000000E+00 -0.45593999997E+02  0.45594000000E+02  0.51100000000E-03 0. -1.
    9900012    2    1    2    0    0 -0.14981767021E+02 -0.27141750671E+02  0.74559542336E+01  0.59301965031E+02  0.50000038304E+02 0.  0.
         12    1    1    2    0    0  0.14981767021E+02  0.27141750671E+02 -0.74559542336E+01  0.31886034969E+02  0.00000000000E+00 0. -1.
         11    1    3    3    0    0 -0.10747502000E+02  0.10669557159E+02 -0.31057594178E+01  0.15459430489E+02  0.51100000000E-03 0. -1.
        -11    1    3    3    0    0 -0.20719112262E-01 -0.23998421651E+02 -0.28085896292E+01  0.24162219413E+02  0.51100000000E-03 0.  1.
        -12    1    3    3    0    0 -0.42135459081E+01 -0.13812886179E+02  0.13370303281E+02  0.19680315128E+02  0.00000000000E+00 0.  1.
</event>
<event>
 7    1  0.6061051E-012  0.5930197E+02  0.7816164E-02  0.1266605E+00
        -11   -1    0    0    0    0  0.00000000000E+00  0.00000000000E+00  0.45593999997E+02  0.45594000000E+02  0.51100000000E-03 0.  1.
         11   -1    0    0    0    0 -0.00000000000E+00 -0.00000000000E+00 -0.45593999997E+02  0.45594000000E+02  0.51100000000E-03 0. -1.
    9900012    2    1    2    0    0  0.56763574102E+01  0.12567581096E+02  0.28749853880E+02  0.59301965029E+02  0.50000038301E+02 0.  0.
         12    1    1    2    0    0 -0.56763574102E+01 -0.12567581096E+02 -0.28749853880E+02  0.31886034971E+02  0.00000000000E+00 0. -1.
         11    1    3    3    0    0 -0.54735835931E+01  0.12736102240E+02 -0.50156694164E+01  0.14741959082E+02  0.51100000000E-03 0. -1.
        -11    1    3    3    0    0 -0.60461829597E+01  0.71957068750E+01  0.62473373983E+01  0.11285554955E+02  0.51100000000E-03 0.  1.
        -12    1    3    3    0    0  0.17196123963E+02 -0.73642280192E+01  0.27518185899E+02  0.33274450992E+02  0.00000000000E+00 0.  1.
</event>
<event>
 7    1  0.6061051E-012  0.5930196E+02  0.7816164E-02  0.1266605E+00
        -11   -1    0    0    0    0  0.00000000000E+00  0.00000000000E+00  0.45593999997E+02  0.45594000000E+02  0.51100000000E-03 0.  1.
         11   -1    0    0    0    0 -0.00000000000E+00 -0.00000000000E+00 -0.45593999997E+02  0.45594000000E+02  0.51100000000E-03 0. -1.
    9900012    2    1    2    0    0  0.99476652978E+01 -0.30247107573E+02 -0.16958842612E+01  0.59301959404E+02  0.50000028043E+02 0.  0.
         12    1    1    2    0    0 -0.99476652978E+01  0.30247107573E+02  0.16958842612E+01  0.31886040596E+02  0.00000000000E+00 0. -1.
         11    1    3    3    0    0 -0.88787543295E+01 -0.65272778611E+01  0.10657459336E+02  0.15330331845E+02  0.51100000000E-03 0. -1.
        -11    1    3    3    0    0 -0.15540074174E+01 -0.19312021944E+02  0.67193566836E+00  0.19386093686E+02  0.51100000000E-03 0.  1.
         12    1    3    3    0    0  0.20380427045E+02 -0.44078077685E+01 -0.13025279266E+02  0.24585533873E+02  0.00000000000E+00 0. -1.
</event>
<event>
 7    1  0.6061051E-012  0.5930199E+02  0.7816164E-02  0.1266605E+00
        -11   -1    0    0    0    0  0.00000000000E+00  0.00000000000E+00  0.45593999997E+02  0.45594000000E+02  0.51100000000E-03 0.  1.
         11   -1    0    0    0    0 -0.00000000000E+00 -0.00000000000E+00 -0.45593999997E+02  0.45594000000E+02  0.51100000000E-03 0. -1.
    9900012    2    1    2    0    0 -0.29553023178E+02 -0.49443657580E+01  0.10903665140E+02  0.59301986684E+02  0.50000077795E+02 0.  0.
         12    1    1    2    0    0  0.29553023178E+02  0.49443657580E+01 -0.10903665140E+02  0.31886013316E+02  0.00000000000E+00 0. -1.
         11    1    3    3    0    0  0.28195440804E+01  0.57810852696E+01  0.10096196894E+02  0.11970963524E+02  0.51100000000E-03 0. -1.
        -11    1    3    3    0    0  0.23602989264E+01 -0.11074522724E+02  0.49351731600E+01  0.12352003844E+02  0.51100000000E-03 0.  1.
         12    1    3    3    0    0 -0.34732866185E+02  0.34907169638E+00 -0.41277049137E+01  0.34979019316E+02  0.00000000000E+00 0. -1.
</event>
<event>
 7    1  0.6061051E-012  0.5930192E+02  0.7816164E-02  0.1266605E+00
        -11   -1    0    0    0    0  0.00000000000E+00  0.00000000000E+00  0.45593999997E+02  0.45594000000E+02  0.51100000000E-03 0.  1.
         11   -1    0    0    0    0 -0.00000000000E+00 -0.00000000000E+00 -0.45593999997E+02  0.45594000000E+02  0.51100000000E-03 0. -1.
    9900012    2    1    2    0    0 -0.27663777662E+02 -0.55798683967E+01  0.14842603199E+02  0.59301915329E+02  0.49999947661E+02 0.  0.
         12    1    1    2    0    0  0.27663777662E+02  0.55798683967E+01 -0.14842603199E+02  0.31886084671E+02  0.00000000000E+00 0. -1.
         11    1    3    3    0    0  0.55494596096E+01 -0.48600723958E+01 -0.24342212491E+01  0.77680267123E+01  0.51100000000E-03 0. -1.
        -11    1    3    3    0    0 -0.12441142701E+02  0.62568222800E+01 -0.95570437489E+01  0.16889847312E+02  0.51100000000E-03 0.  1.
        -12    1    3    3    0    0 -0.20772094571E+02 -0.69766182809E+01  0.26833868197E+02  0.34644041305E+02  0.00000000000E+00 0.  1.
</event>
<event>
 7    1  0.6061051E-012  0.5930195E+02  0.7816164E-02  0.1266605E+00
        -11   -1    0    0    0    0  0.00000000000E+00  0.00000000000E+00  0.45593999997E+02  0.45594000000E+02  0.51100000000E-03 0. -1.
         11   -1    0    0    0    0 -0.00000000000E+00 -0.00000000000E+00 -0.45593999997E+02  0.45594000000E+02  0.51100000000E-03 0.  1.
    9900012    2    1    2    0    0 -0.21195193209E+02  0.14810139008E+02 -0.18658605137E+02  0.59301953235E+02  0.50000016792E+02 0.  0.
         12    1    1    2    0    0  0.21195193209E+02 -0.14810139008E+02  0.18658605137E+02  0.31886046765E+02  0.00000000000E+00 0. -1.
         11    1    3    3    0    0 -0.13140617460E+02 -0.32582216810E+00  0.84824307234E+01  0.15643964285E+02  0.51100000000E-03 0. -1.
        -11    1    3    3    0    0  0.77413850415E+01  0.47031787505E+01  0.16440187828E+01  0.92060703201E+01  0.51100000000E-03 0.  1.
        -12    1    3    3    0    0 -0.15795960791E+02  0.10432782426E+02 -0.28785054643E+02  0.34451918630E+02  0.00000000000E+00 0.  1.
</event>
<event>
 7    1  0.6061051E-012  0.5930193E+02  0.7816164E-02  0.1266605E+00
        -11   -1    0    0    0    0  0.00000000000E+00  0.00000000000E+00  0.45593999997E+02  0.45594000000E+02  0.51100000000E-03 0. -1.
         11   -1    0    0    0    0 -0.00000000000E+00 -0.00000000000E+00 -0.45593999997E+02  0.45594000000E+02  0.51100000000E-03 0.  1.
    9900012    2    1    2    0    0 -0.85747379576E+00 -0.26626043372E+02 -0.17522560443E+02  0.59301928253E+02  0.49999971231E+02 0.  0.
         12    1    1    2    0    0  0.85747379576E+00  0.26626043372E+02  0.17522560443E+02  0.31886071747E+02  0.00000000000E+00 0. -1.
         11    1    3    3    0    0  0.11395201834E+02 -0.14054708726E+02 -0.11005643931E+02  0.21178046671E+02  0.51100000000E-03 0. -1.
        -11    1    3    3    0    0  0.57695633340E+01 -0.17763442195E+02 -0.16636584725E+01  0.18750879965E+02  0.51100000000E-03 0.  1.
         12    1    3    3    0    0 -0.18022238964E+02  0.51921075484E+01 -0.48532580398E+01  0.19373001617E+02  0.00000000000E+00 0. -1.
</event>
<event>
 7    1  0.6061051E-012  0.5930194E+02  0.7816164E-02  0.1266605E+00
        -11   -1    0    0    0    0  0.00000000000E+00  0.00000000000E+00  0.45593999997E+02  0.45594000000E+02  0.51100000000E-03 0. -1.
         11   -1    0    0    0    0 -0.00000000000E+00 -0.00000000000E+00 -0.45593999997E+02  0.45594000000E+02  0.51100000000E-03 0.  1.
    9900012    2    1    2    0    0  0.16701121267E+02 -0.25515009480E+02  0.93154621912E+01  0.59301937274E+02  0.49999987683E+02 0.  0.
         12    1    1    2    0    0 -0.16701121267E+02  0.25515009480E+02 -0.93154621912E+01  0.31886062726E+02  0.00000000000E+00 0. -1.
         11    1    3    3    0    0 -0.10607575890E+02 -0.10495267370E+02 -0.99481656408E-01  0.14922506502E+02  0.51100000000E-03 0. -1.
        -11    1    3    3    0    0  0.60968272688E+01 -0.16842575227E+02  0.13837990674E+02  0.22634788030E+02  0.51100000000E-03 0.  1.
         12    1    3    3    0    0  0.21211869888E+02  0.18228331176E+01 -0.44230468268E+01  0.21744642742E+02  0.00000000000E+00 0. -1.
</event>
<event>
 7    1  0.6061051E-012  0.5930192E+02  0.7816164E-02  0.1266605E+00
        -11   -1    0    0    0    0  0.00000000000E+00  0.00000000000E+00  0.45593999997E+02  0.45594000000E+02  0.51100000000E-03 0.  1.
         11   -1    0    0    0    0 -0.00000000000E+00 -0.00000000000E+00 -0.45593999997E+02  0.45594000000E+02  0.51100000000E-03 0. -1.
    9900012    2    1    2    0    0 -0.11343587077E+02 -0.27947009520E+02  0.10344565241E+02  0.59301916218E+02  0.49999949282E+02 0.  0.
         12    1    1    2    0    0  0.11343587077E+02  0.27947009520E+02 -0.10344565241E+02  0.31886083782E+02  0.00000000000E+00 0. -1.
         11    1    3    3    0    0  0.48794795340E+01 -0.17946776552E+02  0.66885742308E+01  0.19764441167E+02  0.51100000000E-03 0. -1.
        -11    1    3    3    0    0 -0.71052615529E+01 -0.89437558435E+01  0.18701008951E+02  0.21913540252E+02  0.51100000000E-03 0.  1.
         12    1    3    3    0    0 -0.91178050576E+01 -0.10564771247E+01 -0.15045017941E+02  0.17623934799E+02  0.00000000000E+00 0. -1.
</event>
<event>
 7    1  0.6061051E-012  0.5930197E+02  0.7816164E-02  0.1266605E+00
        -11   -1    0    0    0    0  0.00000000000E+00  0.00000000000E+00  0.45593999997E+02  0.45594000000E+02  0.51100000000E-03 0.  1.
         11   -1    0    0    0    0 -0.00000000000E+00 -0.00000000000E+00 -0.45593999997E+02  0.45594000000E+02  0.51100000000E-03 0. -1.
    9900012    2    1    2    0    0 -0.13042457913E+02  0.30743667410E+01  0.28933738030E+02  0.59301974288E+02  0.50000055188E+02 0.  0.
         12    1    1    2    0    0  0.13042457913E+02 -0.30743667410E+01 -0.28933738030E+02  0.31886025712E+02  0.00000000000E+00 0. -1.
         11    1    3    3    0    0 -0.15634674752E+02  0.14150268594E+02  0.10076827712E+02  0.23371256125E+02  0.51100000000E-03 0. -1.
        -11    1    3    3    0    0  0.47814437616E+01  0.56925356449E+00  0.22907683189E+02  0.23408293475E+02  0.51100000000E-03 0.  1.
        -12    1    3    3    0    0 -0.21892269231E+01 -0.11645155418E+02 -0.40507728700E+01  0.12522424688E+02  0.00000000000E+00 0.  1.
</event>
<event>
 7    1  0.6061051E-012  0.5930193E+02  0.7816164E-02  0.1266605E+00
        -11   -1    0    0    0    0  0.00000000000E+00  0.00000000000E+00  0.45593999997E+02  0.45594000000E+02  0.51100000000E-03 0. -1.
         11   -1    0    0    0    0 -0.00000000000E+00 -0.00000000000E+00 -0.45593999997E+02  0.45594000000E+02  0.51100000000E-03 0.  1.
    9900012    2    1    2    0    0 -0.30206658097E+02 -0.32694608263E+01 -0.96741914088E+01  0.59301928638E+02  0.49999971933E+02 0.  0.
         12    1    1    2    0    0  0.30206658097E+02  0.32694608263E+01  0.96741914088E+01  0.31886071362E+02  0.00000000000E+00 0. -1.
         11    1    3    3    0    0 -0.11874445746E+02  0.17727938085E+02 -0.98860271333E+01  0.23516287616E+02  0.51100000000E-03 0. -1.
        -11    1    3    3    0    0  0.27454930358E+01  0.13897034261E+01 -0.36745073022E+01  0.47928083413E+01  0.51100000000E-03 0.  1.
        -12    1    3    3    0    0 -0.21077705387E+02 -0.22387102337E+02  0.38863430267E+01  0.30992832680E+02  0.00000000000E+00 0.  1.
</event>
<event>
 7    1  0.6061051E-012  0.5930195E+02  0.7816164E-02  0.1266605E+00
        -11   -1    0    0    0    0  0.00000000000E+00  0.00000000000E+00  0.45593999997E+02  0.45594000000E+02  0.51100000000E-03 0. -1.
         11   -1    0    0    0    0 -0.00000000000E+00 -0.00000000000E+00 -0.45593999997E+02  0.45594000000E+02  0.51100000000E-03 0.  1.
    9900012    2    1    2    0    0 -0.12299297970E+02  0.28970269702E+02 -0.51157535665E+01  0.59301949889E+02  0.50000010689E+02 0.  0.
         12    1    1    2    0    0  0.12299297970E+02 -0.28970269702E+02  0.51157535665E+01  0.31886050111E+02  0.00000000000E+00 0. -1.
         11    1    3    3    0    0  0.52290427837E+01  0.43219354765E+01  0.39545898587E+01  0.78524388510E+01  0.51100000000E-03 0. -1.
        -11    1    3    3    0    0 -0.94829084918E+01  0.25397794891E+02  0.11424547707E+02  0.29419276493E+02  0.51100000000E-03 0.  1.
         12    1    3    3    0    0 -0.80454322618E+01 -0.74946066517E+00 -0.20494891133E+02  0.22030234545E+02  0.00000000000E+00 0. -1.
</event>
<event>
 7    1  0.6061051E-012  0.5930207E+02  0.7816164E-02  0.1266604E+00
        -11   -1    0    0    0    0  0.00000000000E+00  0.00000000000E+00  0.45593999997E+02  0.45594000000E+02  0.51100000000E-03 0.  1.
         11   -1    0    0    0    0 -0.00000000000E+00 -0.00000000000E+00 -0.45593999997E+02  0.45594000000E+02  0.51100000000E-03 0. -1.
    9900012    2    1    2    0    0  0.12706994999E+02 -0.25619600484E+02  0.14102502759E+02  0.59302074657E+02  0.50000238237E+02 0.  0.
         12    1    1    2    0    0 -0.12706994999E+02  0.25619600484E+02 -0.14102502759E+02  0.31885925343E+02  0.00000000000E+00 0. -1.
         11    1    3    3    0    0 -0.79450486809E+01  0.31725680288E+01 -0.62246448392E+00  0.85776715217E+01  0.51100000000E-03 0. -1.
        -11    1    3    3    0    0 -0.14360257186E+01 -0.25995947270E+02  0.10443796273E+02  0.28052171488E+02  0.51100000000E-03 0.  1.
        -12    1    3    3    0    0  0.22088069399E+02 -0.27962212426E+01  0.42811709705E+01  0.22672231648E+02  0.00000000000E+00 0.  1.
</event>
<event>
 7    1  0.6061051E-012  0.5930195E+02  0.7816164E-02  0.1266605E+00
        -11   -1    0    0    0    0  0.00000000000E+00  0.00000000000E+00  0.45593999997E+02  0.45594000000E+02  0.51100000000E-03 0.  1.
         11   -1    0    0    0    0 -0.00000000000E+00 -0.00000000000E+00 -0.45593999997E+02  0.45594000000E+02  0.51100000000E-03 0. -1.
    9900012    2    1    2    0    0  0.10472631747E+02 -0.28208301953E+02  0.10551587488E+02  0.59301947982E+02  0.50000007211E+02 0.  0.
         12    1    1    2    0    0 -0.10472631747E+02  0.28208301953E+02 -0.10551587488E+02  0.31886052018E+02  0.00000000000E+00 0. -1.
         11    1    3    3    0    0  0.12331528339E+00  0.60102757621E+01  0.30029906829E+01  0.67198641875E+01  0.51100000000E-03 0. -1.
        -11    1    3    3    0    0 -0.60912592297E+01 -0.34881077316E+02  0.31405950364E+01  0.35547944120E+02  0.51100000000E-03 0.  1.
         12    1    3    3    0    0  0.16440575693E+02  0.66249960068E+00  0.44080017688E+01  0.17034139674E+02  0.00000000000E+00 0. -1.
</event>
<event>
 7    1  0.6061051E-012  0.5930200E+02  0.7816164E-02  0.1266605E+00
        -11   -1    0    0    0    0  0.00000000000E+00  0.00000000000E+00  0.45593999997E+02  0.45594000000E+02  0.51100000000E-03 0. -1.
         11   -1    0    0    0    0 -0.00000000000E+00 -0.00000000000E+00 -0.45593999997E+02  0.45594000000E+02  0.51100000000E-03 0.  1.
    9900012    2    1    2    0    0  0.20035463779E+02  0.37835349217E+01 -0.24514937130E+02  0.59301998560E+02  0.50000099454E+02 0.  0.
         12    1    1    2    0    0 -0.20035463779E+02 -0.37835349217E+01  0.24514937130E+02  0.31886001440E+02  0.00000000000E+00 0. -1.
         11    1    3    3    0    0  0.13794031728E+02  0.27586593943E+01  0.91105346764E+00  0.14096649661E+02  0.51100000000E-03 0. -1.
        -11    1    3    3    0    0  0.20621025979E+02  0.70260261638E+01 -0.15345564656E+02  0.26647290874E+02  0.51100000000E-03 0.  1.
         12    1    3    3    0    0 -0.14379593928E+02 -0.60011506363E+01 -0.10080425942E+02  0.18558058025E+02  0.00000000000E+00 0. -1.
</event>
<event>
 7    1  0.6061051E-012  0.5930199E+02  0.7816164E-02  0.1266605E+00
        -11   -1    0    0    0    0  0.00000000000E+00  0.00000000000E+00  0.45593999997E+02  0.45594000000E+02  0.51100000000E-03 0.  1.
         11   -1    0    0    0    0 -0.00000000000E+00 -0.00000000000E+00 -0.45593999997E+02  0.45594000000E+02  0.51100000000E-03 0. -1.
    9900012    2    1    2    0    0  0.26214174340E+01 -0.31694388502E+02  0.23046753057E+01  0.59301990213E+02  0.50000084231E+02 0.  0.
         12    1    1    2    0    0 -0.26214174340E+01  0.31694388502E+02 -0.23046753057E+01  0.31886009787E+02  0.00000000000E+00 0. -1.
         11    1    3    3    0    0  0.25271084247E+01 -0.37742267432E+01 -0.14317667633E+02  0.15020874516E+02  0.51100000000E-03 0. -1.
        -11    1    3    3    0    0 -0.99188408735E+01 -0.29197317293E+02  0.11086639645E+02  0.32768587401E+02  0.51100000000E-03 0.  1.
        -12    1    3    3    0    0  0.10013149883E+02  0.12771555342E+01  0.55357032937E+01  0.11512528297E+02  0.00000000000E+00 0.  1.
</event>
<event>
 7    1  0.6061051E-012  0.5930196E+02  0.7816164E-02  0.1266605E+00
        -11   -1    0    0    0    0  0.00000000000E+00  0.00000000000E+00  0.45593999997E+02  0.45594000000E+02  0.51100000000E-03 0. -1.
         11   -1    0    0    0    0 -0.00000000000E+00 -0.00000000000E+00 -0.45593999997E+02  0.45594000000E+02  0.51100000000E-03 0.  1.
    9900012    2    1    2    0    0 -0.25940336906E+02  0.18507797129E+02 -0.11313245418E+01  0.59301960287E+02  0.50000029653E+02 0.  0.
         12    1    1    2    0    0  0.25940336906E+02 -0.18507797129E+02  0.11313245418E+01  0.31886039713E+02  0.00000000000E+00 0. -1.
         11    1    3    3    0    0 -0.21413880197E+02  0.21214616573E+00 -0.31311128188E+01  0.21642623196E+02  0.51100000000E-03 0.  1.
        -11    1    3    3    0    0  0.11055978278E+02 -0.23065712044E+01 -0.21495273495E+01  0.11496755824E+02  0.51100000000E-03 0. -1.
         12    1    3    3    0    0 -0.15582434987E+02  0.20602222168E+02  0.41493156265E+01  0.26162581266E+02  0.00000000000E+00 0. -1.
</event>
<event>
 7    1  0.6061051E-012  0.5930194E+02  0.7816164E-02  0.1266605E+00
        -11   -1    0    0    0    0  0.00000000000E+00  0.00000000000E+00  0.45593999997E+02  0.45594000000E+02  0.51100000000E-03 0. -1.
         11   -1    0    0    0    0 -0.00000000000E+00 -0.00000000000E+00 -0.45593999997E+02  0.45594000000E+02  0.51100000000E-03 0.  1.
    9900012    2    1    2    0    0 -0.16012581148E+02 -0.10464221552E+02 -0.25511135218E+02  0.59301941795E+02  0.49999995929E+02 0.  0.
         12    1    1    2    0    0  0.16012581148E+02  0.10464221552E+02  0.25511135218E+02  0.31886058205E+02  0.00000000000E+00 0. -1.
         11    1    3    3    0    0  0.96276317338E+01  0.73090150096E+01 -0.19052773870E+02  0.22563713915E+02  0.51100000000E-03 0. -1.
        -11    1    3    3    0    0 -0.58661241656E+01 -0.64156557480E+01 -0.10444280051E+02  0.13588783516E+02  0.51100000000E-03 0.  1.
         12    1    3    3    0    0 -0.19774088716E+02 -0.11357580814E+02  0.39859187027E+01  0.23149444365E+02  0.00000000000E+00 0. -1.
</event>
<event>
 7    1  0.6061051E-012  0.5930195E+02  0.7816164E-02  0.1266605E+00
        -11   -1    0    0    0    0  0.00000000000E+00  0.00000000000E+00  0.45593999997E+02  0.45594000000E+02  0.51100000000E-03 0.  1.
         11   -1    0    0    0    0 -0.00000000000E+00 -0.00000000000E+00 -0.45593999997E+02  0.45594000000E+02  0.51100000000E-03 0. -1.
    9900012    2    1    2    0    0  0.12158668444E+02 -0.16776959493E+02  0.24236763213E+02  0.59301948516E+02  0.50000008186E+02 0.  0.
         12    1    1    2    0    0 -0.12158668444E+02  0.16776959493E+02 -0.24236763213E+02  0.31886051484E+02  0.00000000000E+00 0. -1.
         11    1    3    3    0    0  0.15311007172E+02 -0.95035613700E+01 -0.41773213584E+01  0.18498503543E+02  0.51100000000E-03 0. -1.
        -11    1    3    3    0    0  0.73344101697E+00 -0.17020931530E+02  0.23970015476E+02  0.29407680767E+02  0.51100000000E-03 0.  1.
         12    1    3    3    0    0 -0.38857797445E+01  0.97475334065E+01  0.44440690952E+01  0.11395764207E+02  0.00000000000E+00 0. -1.
</event>
<event>
 7    1  0.6061051E-012  0.5930195E+02  0.7816164E-02  0.1266605E+00
        -11   -1    0    0    0    0  0.00000000000E+00  0.00000000000E+00  0.45593999997E+02  0.45594000000E+02  0.51100000000E-03 0. -1.
         11   -1    0    0    0    0 -0.00000000000E+00 -0.00000000000E+00 -0.45593999997E+02  0.45594000000E+02  0.51100000000E-03 0.  1.
    9900012    2    1    2    0    0  0.51844516566E+01 -0.36440271965E+01 -0.31250007508E+02  0.59301945957E+02  0.50000003518E+02 0.  0.
         12    1    1    2    0    0 -0.51844516566E+01  0.36440271965E+01  0.31250007508E+02  0.31886054043E+02  0.00000000000E+00 0. -1.
         11    1    3    3    0    0  0.15396453380E+01  0.78845166345E+01 -0.19893724930E+02  0.21454519388E+02  0.51100000000E-03 0. -1.
        -11    1    3    3    0    0  0.13881322029E+02  0.38430711423E+01 -0.12872158894E+02  0.19317162626E+02  0.51100000000E-03 0.  1.
         12    1    3    3    0    0 -0.10236515710E+02 -0.15371614973E+02  0.15158763157E+01  0.18530263942E+02  0.00000000000E+00 0. -1.
</event>
<event>
 7    1  0.6061051E-012  0.5930206E+02  0.7816164E-02  0.1266604E+00
        -11   -1    0    0    0    0  0.00000000000E+00  0.00000000000E+00  0.45593999997E+02  0.45594000000E+02  0.51100000000E-03 0.  1.
         11   -1    0    0    0    0 -0.00000000000E+00 -0.00000000000E+00 -0.45593999997E+02  0.45594000000E+02  0.51100000000E-03 0. -1.
    9900012    2    1    2    0    0 -0.18250535449E+02 -0.20352562204E+02  0.16413537013E+02  0.59302062195E+02  0.50000215507E+02 0.  0.
         12    1    1    2    0    0  0.18250535449E+02  0.20352562204E+02 -0.16413537013E+02  0.31885937805E+02  0.00000000000E+00 0. -1.
         11    1    3    3    0    0 -0.23056465468E+01 -0.12430174812E+02 -0.10509679677E+02  0.16440152646E+02  0.51100000000E-03 0. -1.
        -11    1    3    3    0    0  0.92849146139E-01 -0.12432961982E+02  0.15801926938E+01  0.12533322537E+02  0.51100000000E-03 0.  1.
        -12    1    3    3    0    0 -0.16037738048E+02  0.45105745897E+01  0.25343023996E+02  0.30328587011E+02  0.00000000000E+00 0.  1.
</event>
<event>
 7    1  0.6061051E-012  0.5930193E+02  0.7816164E-02  0.1266605E+00
        -11   -1    0    0    0    0  0.00000000000E+00  0.00000000000E+00  0.45593999997E+02  0.45594000000E+02  0.51100000000E-03 0. -1.
         11   -1    0    0    0    0 -0.00000000000E+00 -0.00000000000E+00 -0.45593999997E+02  0.45594000000E+02  0.51100000000E-03 0.  1.
    9900012    2    1    2    0    0 -0.27141334714E+01 -0.19685183729E+02 -0.24936886035E+02  0.59301933073E+02  0.49999980022E+02 0.  0.
         12    1    1    2    0    0  0.27141334714E+01  0.19685183729E+02  0.24936886035E+02  0.31886066927E+02  0.00000000000E+00 0. -1.
         11    1    3    3    0    0  0.37217129132E+01  0.10618692757E+02 -0.15445109766E+02  0.19109139144E+02  0.51100000000E-03 0.  1.
        -11    1    3    3    0    0 -0.11031140819E+02 -0.69013097026E+01  0.28776326072E+01  0.13326474142E+02  0.51100000000E-03 0. -1.
        -12    1    3    3    0    0  0.45952944344E+01 -0.23402566783E+02 -0.12369408876E+02  0.26866319787E+02  0.00000000000E+00 0.  1.
</event>
<event>
 7    1  0.6061051E-012  0.5930191E+02  0.7816164E-02  0.1266605E+00
        -11   -1    0    0    0    0  0.00000000000E+00  0.00000000000E+00  0.45593999997E+02  0.45594000000E+02  0.51100000000E-03 0.  1.
         11   -1    0    0    0    0 -0.00000000000E+00 -0.00000000000E+00 -0.45593999997E+02  0.45594000000E+02  0.51100000000E-03 0. -1.
    9900012    2    1    2    0    0 -0.20634161088E+02 -0.10223239048E+02  0.22055378342E+02  0.59301906883E+02  0.49999932257E+02 0.  0.
         12    1    1    2    0    0  0.20634161088E+02  0.10223239048E+02 -0.22055378342E+02  0.31886093117E+02  0.00000000000E+00 0. -1.
         11    1    3    3    0    0  0.55991790301E+01  0.35203679136E+01  0.12738252404E+01  0.67354604195E+01  0.51100000000E-03 0. -1.
        -11    1    3    3    0    0  0.62648850152E+01 -0.12757170842E+02  0.12709182262E+02  0.19066135062E+02  0.51100000000E-03 0.  1.
        -12    1    3    3    0    0 -0.32498225134E+02 -0.98643611936E+00  0.80723708393E+01  0.33500311402E+02  0.00000000000E+00 0.  1.
</event>
<event>
 7    1  0.6061051E-012  0.5930196E+02  0.7816164E-02  0.1266605E+00
        -11   -1    0    0    0    0  0.00000000000E+00  0.00000000000E+00  0.45593999997E+02  0.45594000000E+02  0.51100000000E-03 0.  1.
         11   -1    0    0    0    0 -0.00000000000E+00 -0.00000000000E+00 -0.45593999997E+02  0.45594000000E+02  0.51100000000E-03 0. -1.
    9900012    2    1    2    0    0 -0.33706637714E+01  0.79943458077E+01  0.30683039405E+02  0.59301955305E+02  0.50000020567E+02 0.  0.
         12    1    1    2    0    0  0.33706637714E+01 -0.79943458077E+01 -0.30683039405E+02  0.31886044695E+02  0.00000000000E+00 0. -1.
         11    1    3    3    0    0 -0.16472826308E+02  0.16270386312E+02  0.17518082490E+02  0.29033819792E+02  0.51100000000E-03 0. -1.
        -11    1    3    3    0    0 -0.46350025185E+01 -0.80924828711E+01  0.28629648065E+01  0.97554136309E+01  0.51100000000E-03 0.  1.
        -12    1    3    3    0    0  0.17737165055E+02 -0.18355763298E+00  0.10301992109E+02  0.20512721882E+02  0.00000000000E+00 0.  1.
</event>
<event>
 7    1  0.6061051E-012  0.5930158E+02  0.7816164E-02  0.1266606E+00
        -11   -1    0    0    0    0  0.00000000000E+00  0.00000000000E+00  0.45593999997E+02  0.45594000000E+02  0.51100000000E-03 0.  1.
         11   -1    0    0    0    0 -0.00000000000E+00 -0.00000000000E+00 -0.45593999997E+02  0.45594000000E+02  0.51100000000E-03 0. -1.
    9900012    2    1    2    0    0  0.29539696861E+02 -0.10248869687E+02  0.62538388465E+01  0.59301584070E+02  0.49999343520E+02 0.  0.
         12    1    1    2    0    0 -0.29539696861E+02  0.10248869687E+02 -0.62538388465E+01  0.31886415930E+02  0.00000000000E+00 0. -1.
         11    1    3    3    0    0 -0.63166303956E+01  0.90604082941E+00 -0.59653638284E+01  0.87353474691E+01  0.51100000000E-03 0. -1.
        -11    1    3    3    0    0  0.27694445208E+01  0.63517290986E+01  0.11138213883E+02  0.13117701562E+02  0.51100000000E-03 0.  1.
        -12    1    3    3    0    0  0.33086882736E+02 -0.17506639615E+02  0.10809887916E+01  0.37448535039E+02  0.00000000000E+00 0.  1.
</event>
<event>
 7    1  0.6061051E-012  0.5930195E+02  0.7816164E-02  0.1266605E+00
        -11   -1    0    0    0    0  0.00000000000E+00  0.00000000000E+00  0.45593999997E+02  0.45594000000E+02  0.51100000000E-03 0.  1.
         11   -1    0    0    0    0 -0.00000000000E+00 -0.00000000000E+00 -0.45593999997E+02  0.45594000000E+02  0.51100000000E-03 0. -1.
    9900012    2    1    2    0    0 -0.22182951045E+02 -0.18400745648E+02  0.13640004958E+02  0.59301945169E+02  0.50000002081E+02 0.  0.
         12    1    1    2    0    0  0.22182951045E+02  0.18400745648E+02 -0.13640004958E+02  0.31886054831E+02  0.00000000000E+00 0. -1.
         11    1    3    3    0    0 -0.10440373897E+02 -0.48827483170E+01  0.87900247476E+01  0.14495074114E+02  0.51100000000E-03 0. -1.
        -11    1    3    3    0    0 -0.13025036957E+02 -0.24547933083E+02  0.13343286420E+02  0.30826869759E+02  0.51100000000E-03 0.  1.
         12    1    3    3    0    0  0.12824598085E+01  0.11029935752E+02 -0.84933062100E+01  0.13980001296E+02  0.00000000000E+00 0. -1.
</event>
<event>
 7    1  0.6061051E-012  0.5930189E+02  0.7816164E-02  0.1266605E+00
        -11   -1    0    0    0    0  0.00000000000E+00  0.00000000000E+00  0.45593999997E+02  0.45594000000E+02  0.51100000000E-03 0.  1.
         11   -1    0    0    0    0 -0.00000000000E+00 -0.00000000000E+00 -0.45593999997E+02  0.45594000000E+02  0.51100000000E-03 0. -1.
    9900012    2    1    2    0    0  0.18037665027E+01 -0.11645896600E+02  0.29628420434E+02  0.59301893643E+02  0.49999908110E+02 0.  0.
         12    1    1    2    0    0 -0.18037665027E+01  0.11645896600E+02 -0.29628420434E+02  0.31886106357E+02  0.00000000000E+00 0. -1.
         11    1    3    3    0    0 -0.17277608621E+02 -0.10264190165E+02  0.16235918885E+01  0.20161979325E+02  0.51100000000E-03 0. -1.
        -11    1    3    3    0    0  0.27864653222E+01 -0.86381641135E+01  0.12858575425E+02  0.15739289389E+02  0.51100000000E-03 0.  1.
        -12    1    3    3    0    0  0.16294909802E+02  0.72564576783E+01  0.15146253121E+02  0.23400624929E+02  0.00000000000E+00 0.  1.
</event>
<event>
 7    1  0.6061051E-012  0.5930195E+02  0.7816164E-02  0.1266605E+00
        -11   -1    0    0    0    0  0.00000000000E+00  0.00000000000E+00  0.45593999997E+02  0.45594000000E+02  0.51100000000E-03 0.  1.
         11   -1    0    0    0    0 -0.00000000000E+00 -0.00000000000E+00 -0.45593999997E+02  0.45594000000E+02  0.51100000000E-03 0. -1.
    9900012    2    1    2    0    0  0.23230886527E+02  0.11433894947E+02  0.18609466681E+02  0.59301948306E+02  0.50000007803E+02 0.  0.
         12    1    1    2    0    0 -0.23230886527E+02 -0.11433894947E+02 -0.18609466681E+02  0.31886051694E+02  0.00000000000E+00 0. -1.
         11    1    3    3    0    0  0.10645913511E+02 -0.12145687056E+01  0.35909038805E+01  0.11300674429E+02  0.51100000000E-03 0. -1.
        -11    1    3    3    0    0  0.17022555002E+02  0.23608931245E+02  0.19847169400E+02  0.35228669388E+02  0.51100000000E-03 0.  1.
         12    1    3    3    0    0 -0.44375819865E+01 -0.10960467593E+02 -0.48286065998E+01  0.12772604489E+02  0.00000000000E+00 0. -1.
</event>
<event>
 7    1  0.6061051E-012  0.5930194E+02  0.7816164E-02  0.1266605E+00
        -11   -1    0    0    0    0  0.00000000000E+00  0.00000000000E+00  0.45593999997E+02  0.45594000000E+02  0.51100000000E-03 0. -1.
         11   -1    0    0    0    0 -0.00000000000E+00 -0.00000000000E+00 -0.45593999997E+02  0.45594000000E+02  0.51100000000E-03 0.  1.
    9900012    2    1    2    0    0  0.11156651026E+02 -0.42171885650E+01 -0.29571357093E+02  0.59301941890E+02  0.49999996101E+02 0.  0.
         12    1    1    2    0    0 -0.11156651026E+02  0.42171885650E+01  0.29571357093E+02  0.31886058110E+02  0.00000000000E+00 0. -1.
         11    1    3    3    0    0  0.13832951171E+02 -0.52563114554E+01  0.23751301387E+01  0.14987347719E+02  0.51100000000E-03 0. -1.
        -11    1    3    3    0    0  0.11370965257E+02 -0.76964197151E+01 -0.10814906916E+02  0.17478442126E+02  0.51100000000E-03 0.  1.
         12    1    3    3    0    0 -0.14047265402E+02  0.87355426055E+01 -0.21131580316E+02  0.26836152044E+02  0.00000000000E+00 0. -1.
</event>
<event>
 7    1  0.6061051E-012  0.5930196E+02  0.7816164E-02  0.1266605E+00
        -11   -1    0    0    0    0  0.00000000000E+00  0.00000000000E+00  0.45593999997E+02  0.45594000000E+02  0.51100000000E-03 0. -1.
         11   -1    0    0    0    0 -0.00000000000E+00 -0.00000000000E+00 -0.45593999997E+02  0.45594000000E+02  0.51100000000E-03 0.  1.
    9900012    2    1    2    0    0 -0.19426851041E+02  0.16131530691E+02 -0.19470248746E+02  0.59301962146E+02  0.50000033043E+02 0.  0.
         12    1    1    2    0    0  0.19426851041E+02 -0.16131530691E+02  0.19470248746E+02  0.31886037854E+02  0.00000000000E+00 0. -1.
         11    1    3    3    0    0  0.90986275118E+01  0.17442330790E+02 -0.12092542512E+02  0.23092195882E+02  0.51100000000E-03 0. -1.
        -11    1    3    3    0    0 -0.11230831598E+01  0.19172992093E+01 -0.83101945873E+01  0.86021326647E+01  0.51100000000E-03 0.  1.
         12    1    3    3    0    0 -0.27402395393E+02 -0.32280993082E+01  0.93248835327E+00  0.27607633599E+02  0.00000000000E+00 0. -1.
</event>
<event>
 7    1  0.6061051E-012  0.5930202E+02  0.7816164E-02  0.1266605E+00
        -11   -1    0    0    0    0  0.00000000000E+00  0.00000000000E+00  0.45593999997E+02  0.45594000000E+02  0.51100000000E-03 0.  1.
         11   -1    0    0    0    0 -0.00000000000E+00 -0.00000000000E+00 -0.45593999997E+02  0.45594000000E+02  0.51100000000E-03 0. -1.
    9900012    2    1    2    0    0 -0.83996805351E+01 -0.21599688138E+02  0.21900109498E+02  0.59302016296E+02  0.50000131800E+02 0.  0.
         12    1    1    2    0    0  0.83996805351E+01  0.21599688138E+02 -0.21900109498E+02  0.31885983704E+02  0.00000000000E+00 0. -1.
         11    1    3    3    0    0 -0.19422661947E+02 -0.26644741049E+01  0.13318340106E+02  0.23700578111E+02  0.51100000000E-03 0. -1.
        -11    1    3    3    0    0 -0.22282831198E+01 -0.20313824463E+02  0.14429119585E+01  0.20486549371E+02  0.51100000000E-03 0.  1.
         12    1    3    3    0    0  0.13251264532E+02  0.13786104297E+01  0.71388574333E+01  0.15114888814E+02  0.00000000000E+00 0. -1.
</event>
<event>
 7    1  0.6061051E-012  0.5930196E+02  0.7816164E-02  0.1266605E+00
        -11   -1    0    0    0    0  0.00000000000E+00  0.00000000000E+00  0.45593999997E+02  0.45594000000E+02  0.51100000000E-03 0. -1.
         11   -1    0    0    0    0 -0.00000000000E+00 -0.00000000000E+00 -0.45593999997E+02  0.45594000000E+02  0.51100000000E-03 0.  1.
    9900012    2    1    2    0    0 -0.90116247553E+01 -0.29605457363E+02 -0.76829218457E+01  0.59301956430E+02  0.50000022620E+02 0.  0.
         12    1    1    2    0    0  0.90116247553E+01  0.29605457363E+02  0.76829218457E+01  0.31886043570E+02  0.00000000000E+00 0. -1.
         11    1    3    3    0    0 -0.64885232852E+01 -0.24379271047E+02  0.67651798080E+01  0.26119292665E+02  0.51100000000E-03 0. -1.
        -11    1    3    3    0    0 -0.51771035048E+01 -0.14803662040E+01  0.83452410888E+01  0.99316128543E+01  0.51100000000E-03 0.  1.
        -12    1    3    3    0    0  0.26540020347E+01 -0.37458201125E+01 -0.22793342742E+02  0.23251050912E+02  0.00000000000E+00 0.  1.
</event>
<event>
 7    1  0.6061051E-012  0.5930194E+02  0.7816164E-02  0.1266605E+00
        -11   -1    0    0    0    0  0.00000000000E+00  0.00000000000E+00  0.45593999997E+02  0.45594000000E+02  0.51100000000E-03 0.  1.
         11   -1    0    0    0    0 -0.00000000000E+00 -0.00000000000E+00 -0.45593999997E+02  0.45594000000E+02  0.51100000000E-03 0. -1.
    9900012    2    1    2    0    0 -0.39779112691E+01  0.26604766515E+02  0.17119685869E+02  0.59301936843E+02  0.49999986897E+02 0.  0.
         12    1    1    2    0    0  0.39779112691E+01 -0.26604766515E+02 -0.17119685869E+02  0.31886063157E+02  0.00000000000E+00 0. -1.
         11    1    3    3    0    0 -0.15691744570E+02 -0.85830825470E+00 -0.41273446015E+00  0.15720619921E+02  0.51100000000E-03 0. -1.
        -11    1    3    3    0    0  0.12757279386E+01 -0.40523192030E+01 -0.23789325102E+01  0.48690956907E+01  0.51100000000E-03 0.  1.
        -12    1    3    3    0    0  0.10438105362E+02  0.31515393973E+02  0.19911352839E+02  0.38712221232E+02  0.00000000000E+00 0.  1.
</event>
<event>
 7    1  0.6061051E-012  0.5930194E+02  0.7816164E-02  0.1266605E+00
        -11   -1    0    0    0    0  0.00000000000E+00  0.00000000000E+00  0.45593999997E+02  0.45594000000E+02  0.51100000000E-03 0.  1.
         11   -1    0    0    0    0 -0.00000000000E+00 -0.00000000000E+00 -0.45593999997E+02  0.45594000000E+02  0.51100000000E-03 0. -1.
    9900012    2    1    2    0    0  0.51485256976E+01 -0.23947763612E+02  0.20413668978E+02  0.59301943799E+02  0.49999999583E+02 0.  0.
         12    1    1    2    0    0 -0.51485256976E+01  0.23947763612E+02 -0.20413668978E+02  0.31886056201E+02  0.00000000000E+00 0. -1.
         11    1    3    3    0    0 -0.16393333895E+02 -0.13204891690E+02  0.75037415160E+01  0.22347632934E+02  0.51100000000E-03 0. -1.
        -11    1    3    3    0    0 -0.14409799783E+01 -0.58753795984E+01  0.12006379990E+02  0.13444317366E+02  0.51100000000E-03 0.  1.
         12    1    3    3    0    0  0.22982839571E+02 -0.48674923245E+01  0.90354747217E+00  0.23509993499E+02  0.00000000000E+00 0. -1.
</event>
<event>
 7    1  0.6061051E-012  0.5930194E+02  0.7816164E-02  0.1266605E+00
        -11   -1    0    0    0    0  0.00000000000E+00  0.00000000000E+00  0.45593999997E+02  0.45594000000E+02  0.51100000000E-03 0.  1.
         11   -1    0    0    0    0 -0.00000000000E+00 -0.00000000000E+00 -0.45593999997E+02  0.45594000000E+02  0.51100000000E-03 0. -1.
    9900012    2    1    2    0    0 -0.15363958961E+02 -0.37824560089E+01  0.27683256483E+02  0.59301938815E+02  0.49999990493E+02 0.  0.
         12    1    1    2    0    0  0.15363958961E+02  0.37824560089E+01 -0.27683256483E+02  0.31886061185E+02  0.00000000000E+00 0. -1.
         11    1    3    3    0    0 -0.77566639133E+01 -0.96436590161E+01 -0.14848411096E+01  0.12464780289E+02  0.51100000000E-03 0. -1.
        -11    1    3    3    0    0 -0.18979640276E+02  0.49545408721E+01  0.52011818403E+01  0.20293509136E+02  0.51100000000E-03 0.  1.
        -12    1    3    3    0    0  0.11372345228E+02  0.90666213515E+00  0.23966915752E+02  0.26543649389E+02  0.00000000000E+00 0.  1.
</event>
<event>
 7    1  0.6061051E-012  0.5930195E+02  0.7816164E-02  0.1266605E+00
        -11   -1    0    0    0    0  0.00000000000E+00  0.00000000000E+00  0.45593999997E+02  0.45594000000E+02  0.51100000000E-03 0.  1.
         11   -1    0    0    0    0 -0.00000000000E+00 -0.00000000000E+00 -0.45593999997E+02  0.45594000000E+02  0.51100000000E-03 0. -1.
    9900012    2    1    2    0    0  0.86691947022E+01 -0.25665511877E+02  0.16818046325E+02  0.59301951031E+02  0.50000012772E+02 0.  0.
         12    1    1    2    0    0 -0.86691947022E+01  0.25665511877E+02 -0.16818046325E+02  0.31886048969E+02  0.00000000000E+00 0. -1.
         11    1    3    3    0    0  0.11128373166E+02 -0.19078411948E+01  0.16227505722E+02  0.19768977960E+02  0.51100000000E-03 0. -1.
        -11    1    3    3    0    0  0.11628589974E+02 -0.10741203042E+02  0.94164733313E+01  0.18419215994E+02  0.51100000000E-03 0.  1.
         12    1    3    3    0    0 -0.14087768438E+02 -0.13016467640E+02 -0.88259327280E+01  0.21113757077E+02  0.00000000000E+00 0. -1.
</event>
<event>
 7    1  0.6061051E-012  0.5930195E+02  0.7816164E-02  0.1266605E+00
        -11   -1    0    0    0    0  0.00000000000E+00  0.00000000000E+00  0.45593999997E+02  0.45594000000E+02  0.51100000000E-03 0.  1.
         11   -1    0    0    0    0 -0.00000000000E+00 -0.00000000000E+00 -0.45593999997E+02  0.45594000000E+02  0.51100000000E-03 0. -1.
    9900012    2    1    2    0    0  0.28251619618E+02 -0.14561409638E+02  0.25557029767E+01  0.59301948513E+02  0.50000008180E+02 0.  0.
         12    1    1    2    0    0 -0.28251619618E+02  0.14561409638E+02 -0.25557029767E+01  0.31886051487E+02  0.00000000000E+00 0. -1.
         11    1    3    3    0    0  0.13980199716E+02 -0.35363861613E+01 -0.11468087005E+02  0.18424685370E+02  0.51100000000E-03 0. -1.
        -11    1    3    3    0    0  0.12015618596E+02 -0.22253175041E+01 -0.96175267785E+01  0.15550689690E+02  0.51100000000E-03 0.  1.
        -12    1    3    3    0    0  0.22558013064E+01 -0.87997059731E+01  0.23641316760E+02  0.25326573453E+02  0.00000000000E+00 0.  1.
</event>
<event>
 7    1  0.6061051E-012  0.5930195E+02  0.7816164E-02  0.1266605E+00
        -11   -1    0    0    0    0  0.00000000000E+00  0.00000000000E+00  0.45593999997E+02  0.45594000000E+02  0.51100000000E-03 0.  1.
         11   -1    0    0    0    0 -0.00000000000E+00 -0.00000000000E+00 -0.45593999997E+02  0.45594000000E+02  0.51100000000E-03 0. -1.
    9900012    2    1    2    0    0 -0.27689546262E+02 -0.37887542403E+01 -0.15351038191E+02  0.59301952825E+02  0.50000016044E+02 0.  0.
         12    1    1    2    0    0  0.27689546262E+02  0.37887542403E+01  0.15351038191E+02  0.31886047175E+02  0.00000000000E+00 0. -1.
         11    1    3    3    0    0 -0.78440451164E+01 -0.91997108179E+01  0.10288631852E+01  0.12133518972E+02  0.51100000000E-03 0. -1.
        -11    1    3    3    0    0 -0.15326394452E+02 -0.93469004470E+01 -0.23987562272E+02  0.29961075730E+02  0.51100000000E-03 0.  1.
        -12    1    3    3    0    0 -0.45191066942E+01  0.14757857025E+02  0.76076608958E+01  0.17207358123E+02  0.00000000000E+00 0.  1.
</event>
<event>
 7    1  0.6061051E-012  0.5930194E+02  0.7816164E-02  0.1266605E+00
        -11   -1    0    0    0    0  0.00000000000E+00  0.00000000000E+00  0.45593999997E+02  0.45594000000E+02  0.51100000000E-03 0.  1.
         11   -1    0    0    0    0 -0.00000000000E+00 -0.00000000000E+00 -0.45593999997E+02  0.45594000000E+02  0.51100000000E-03 0. -1.
    9900012    2    1    2    0    0 -0.29602510733E+02  0.22203874125E+01  0.11639680419E+02  0.59301938434E+02  0.49999989798E+02 0.  0.
         12    1    1    2    0    0  0.29602510733E+02 -0.22203874125E+01 -0.11639680419E+02  0.31886061566E+02  0.00000000000E+00 0. -1.
         11    1    3    3    0    0 -0.19669079390E+02  0.97271070504E+01 -0.27042435794E+01  0.22108872183E+02  0.51100000000E-03 0. -1.
        -11    1    3    3    0    0  0.53972035479E+01  0.98046259400E+01  0.46576108987E+01  0.12122451712E+02  0.51100000000E-03 0.  1.
        -12    1    3    3    0    0 -0.15330634891E+02 -0.17311345578E+02  0.96863130998E+01  0.25070614539E+02  0.00000000000E+00 0.  1.
</event>
<event>
 7    1  0.6061051E-012  0.5930194E+02  0.7816164E-02  0.1266605E+00
        -11   -1    0    0    0    0  0.00000000000E+00  0.00000000000E+00  0.45593999997E+02  0.45594000000E+02  0.51100000000E-03 0.  1.
         11   -1    0    0    0    0 -0.00000000000E+00 -0.00000000000E+00 -0.45593999997E+02  0.45594000000E+02  0.51100000000E-03 0. -1.
    9900012    2    1    2    0    0 -0.19052064194E+02 -0.25367059334E+02  0.32018951435E+01  0.59301937500E+02  0.49999988094E+02 0.  0.
         12    1    1    2    0    0  0.19052064194E+02  0.25367059334E+02 -0.32018951435E+01  0.31886062500E+02  0.00000000000E+00 0. -1.
         11    1    3    3    0    0 -0.69236132843E+01 -0.25448329337E+02 -0.10790568023E+02  0.28495442539E+02  0.51100000000E-03 0. -1.
        -11    1    3    3    0    0 -0.91524259442E+01 -0.99833688991E+01  0.29066598285E+00  0.13546920027E+02  0.51100000000E-03 0.  1.
        -12    1    3    3    0    0 -0.29760249649E+01  0.10064638902E+02  0.13701797184E+02  0.17259574934E+02  0.00000000000E+00 0.  1.
</event>
<event>
 7    1  0.6061051E-012  0.5930194E+02  0.7816164E-02  0.1266605E+00
        -11   -1    0    0    0    0  0.00000000000E+00  0.00000000000E+00  0.45593999997E+02  0.45594000000E+02  0.51100000000E-03 0.  1.
         11   -1    0    0    0    0 -0.00000000000E+00 -0.00000000000E+00 -0.45593999997E+02  0.45594000000E+02  0.51100000000E-03 0. -1.
    9900012    2    1    2    0    0  0.28498973034E+02  0.26082171447E+01  0.14061518221E+02  0.59301944187E+02  0.50000000290E+02 0.  0.
         12    1    1    2    0    0 -0.28498973034E+02 -0.26082171447E+01 -0.14061518221E+02  0.31886055813E+02  0.00000000000E+00 0. -1.
         11    1    3    3    0    0  0.93674407358E+01 -0.98904420200E+01  0.25532858978E+01  0.13859619707E+02  0.51100000000E-03 0. -1.
        -11    1    3    3    0    0  0.23799737504E+02 -0.41948730026E+01  0.14001966897E+02  0.27929904082E+02  0.51100000000E-03 0.  1.
         12    1    3    3    0    0 -0.46682052063E+01  0.16693532167E+02 -0.24937345746E+01  0.17512420398E+02  0.00000000000E+00 0. -1.
</event>
<event>
 7    1  0.6061051E-012  0.5930193E+02  0.7816164E-02  0.1266605E+00
        -11   -1    0    0    0    0  0.00000000000E+00  0.00000000000E+00  0.45593999997E+02  0.45594000000E+02  0.51100000000E-03 0.  1.
         11   -1    0    0    0    0 -0.00000000000E+00 -0.00000000000E+00 -0.45593999997E+02  0.45594000000E+02  0.51100000000E-03 0. -1.
    9900012    2    1    2    0    0  0.10073017069E+02  0.11771600348E+02  0.27869070078E+02  0.59301932280E+02  0.49999978575E+02 0.  0.
         12    1    1    2    0    0 -0.10073017069E+02 -0.11771600348E+02 -0.27869070078E+02  0.31886067720E+02  0.00000000000E+00 0. -1.
         11    1    3    3    0    0  0.19239088910E+02 -0.35690371527E+01  0.80847840874E+01  0.21171780801E+02  0.51100000000E-03 0. -1.
        -11    1    3    3    0    0  0.13923254885E+01 -0.67998393296E+01  0.89208990556E+01  0.11303044961E+02  0.51100000000E-03 0.  1.
         12    1    3    3    0    0 -0.10558397329E+02  0.22140476830E+02  0.10863386935E+02  0.26827106518E+02  0.00000000000E+00 0. -1.
</event>
<event>
 7    1  0.6061051E-012  0.5930196E+02  0.7816164E-02  0.1266605E+00
        -11   -1    0    0    0    0  0.00000000000E+00  0.00000000000E+00  0.45593999997E+02  0.45594000000E+02  0.51100000000E-03 0.  1.
         11   -1    0    0    0    0 -0.00000000000E+00 -0.00000000000E+00 -0.45593999997E+02  0.45594000000E+02  0.51100000000E-03 0. -1.
    9900012    2    1    2    0    0 -0.68212551775E+01  0.31012317350E+02 -0.29028368433E+01  0.59301955853E+02  0.50000021567E+02 0.  0.
         12    1    1    2    0    0  0.68212551775E+01 -0.31012317350E+02  0.29028368433E+01  0.31886044147E+02  0.00000000000E+00 0. -1.
         11    1    3    3    0    0  0.96310384369E+01  0.60894632402E+01  0.65270337201E+01  0.13131665293E+02  0.51100000000E-03 0. -1.
        -11    1    3    3    0    0 -0.14794826260E+02 -0.15742936167E+01  0.53179300824E+01  0.15800179274E+02  0.51100000000E-03 0.  1.
         12    1    3    3    0    0 -0.16574673539E+01  0.26497147726E+02 -0.14747800646E+02  0.30370111286E+02  0.00000000000E+00 0. -1.
</event>
<event>
 7    1  0.6061051E-012  0.5930190E+02  0.7816164E-02  0.1266605E+00
        -11   -1    0    0    0    0  0.00000000000E+00  0.00000000000E+00  0.45593999997E+02  0.45594000000E+02  0.51100000000E-03 0.  1.
         11   -1    0    0    0    0 -0.00000000000E+00 -0.00000000000E+00 -0.45593999997E+02  0.45594000000E+02  0.51100000000E-03 0. -1.
    9900012    2    1    2    0    0  0.15409271709E+02  0.26100934478E+02  0.99004588998E+01  0.59301897672E+02  0.49999915459E+02 0.  0.
         12    1    1    2    0    0 -0.15409271709E+02 -0.26100934478E+02 -0.99004588998E+01  0.31886102328E+02  0.00000000000E+00 0. -1.
         11    1    3    3    0    0  0.55388991053E+01  0.27106602077E+01  0.75648752650E+01  0.97598370937E+01  0.51100000000E-03 0. -1.
        -11    1    3    3    0    0  0.35263331427E+01  0.45378254451E+01  0.21298479099E+02  0.22060192597E+02  0.51100000000E-03 0.  1.
         12    1    3    3    0    0  0.63440394612E+01  0.18852448825E+02 -0.18962895464E+02  0.27481867982E+02  0.00000000000E+00 0. -1.
</event>
<event>
 7    1  0.6061051E-012  0.5930194E+02  0.7816164E-02  0.1266605E+00
        -11   -1    0    0    0    0  0.00000000000E+00  0.00000000000E+00  0.45593999997E+02  0.45594000000E+02  0.51100000000E-03 0.  1.
         11   -1    0    0    0    0 -0.00000000000E+00 -0.00000000000E+00 -0.45593999997E+02  0.45594000000E+02  0.51100000000E-03 0. -1.
    9900012    2    1    2    0    0 -0.15874454582E+02  0.27642046408E+02  0.79970430793E+00  0.59301944037E+02  0.50000000017E+02 0.  0.
         12    1    1    2    0    0  0.15874454582E+02 -0.27642046408E+02 -0.79970430793E+00  0.31886055963E+02  0.00000000000E+00 0. -1.
         11    1    3    3    0    0 -0.12870602415E+02  0.12373975463E+02  0.23089823048E+01  0.18002751868E+02  0.51100000000E-03 0.  1.
        -11    1    3    3    0    0  0.14449933593E+02  0.32259097728E+01  0.93141624847E+01  0.17491732269E+02  0.51100000000E-03 0. -1.
         12    1    3    3    0    0 -0.17453785760E+02  0.12042161172E+02 -0.10823440482E+02  0.23807459901E+02  0.00000000000E+00 0. -1.
</event>
<event>
 7    1  0.6061051E-012  0.5930192E+02  0.7816164E-02  0.1266605E+00
        -11   -1    0    0    0    0  0.00000000000E+00  0.00000000000E+00  0.45593999997E+02  0.45594000000E+02  0.51100000000E-03 0.  1.
         11   -1    0    0    0    0 -0.00000000000E+00 -0.00000000000E+00 -0.45593999997E+02  0.45594000000E+02  0.51100000000E-03 0. -1.
    9900012    2    1    2    0    0  0.13591213427E+02 -0.45354813701E+01  0.28485619979E+02  0.59301918095E+02  0.49999952705E+02 0.  0.
         12    1    1    2    0    0 -0.13591213427E+02  0.45354813701E+01 -0.28485619979E+02  0.31886081905E+02  0.00000000000E+00 0. -1.
         11    1    3    3    0    0 -0.23586989887E+01 -0.21121344555E+02  0.19618057831E+02  0.28923050497E+02  0.51100000000E-03 0. -1.
        -11    1    3    3    0    0  0.48470086960E+01  0.39674249110E-01  0.92566287428E+01  0.10448935031E+02  0.51100000000E-03 0.  1.
        -12    1    3    3    0    0  0.11102903720E+02  0.16546188935E+02 -0.38906659543E+00  0.19929932567E+02  0.00000000000E+00 0.  1.
</event>
<event>
 7    1  0.6061051E-012  0.5930194E+02  0.7816164E-02  0.1266605E+00
        -11   -1    0    0    0    0  0.00000000000E+00  0.00000000000E+00  0.45593999997E+02  0.45594000000E+02  0.51100000000E-03 0. -1.
         11   -1    0    0    0    0 -0.00000000000E+00 -0.00000000000E+00 -0.45593999997E+02  0.45594000000E+02  0.51100000000E-03 0.  1.
    9900012    2    1    2    0    0  0.29183382222E+02  0.62427288780E+01 -0.11228514220E+02  0.59301937318E+02  0.49999987764E+02 0.  0.
         12    1    1    2    0    0 -0.29183382222E+02 -0.62427288780E+01  0.11228514220E+02  0.31886062682E+02  0.00000000000E+00 0. -1.
         11    1    3    3    0    0  0.13732610361E+02  0.18669064550E+02 -0.27600167599E+01  0.23339585499E+02  0.51100000000E-03 0. -1.
        -11    1    3    3    0    0  0.52287383075E+01 -0.12689731766E+02  0.85052863128E+01  0.16146482345E+02  0.51100000000E-03 0.  1.
         12    1    3    3    0    0  0.10222033554E+02  0.26339609449E+00 -0.16973783773E+02  0.19815869475E+02  0.00000000000E+00 0. -1.
</event>
<event>
 7    1  0.6061051E-012  0.5930200E+02  0.7816164E-02  0.1266605E+00
        -11   -1    0    0    0    0  0.00000000000E+00  0.00000000000E+00  0.45593999997E+02  0.45594000000E+02  0.51100000000E-03 0.  1.
         11   -1    0    0    0    0 -0.00000000000E+00 -0.00000000000E+00 -0.45593999997E+02  0.45594000000E+02  0.51100000000E-03 0. -1.
    9900012    2    1    2    0    0 -0.97847341712E+01  0.30190257886E+02  0.30861375388E+01  0.59302000895E+02  0.50000103712E+02 0.  0.
         12    1    1    2    0    0  0.97847341712E+01 -0.30190257886E+02 -0.30861375388E+01  0.31885999105E+02  0.00000000000E+00 0. -1.
         11    1    3    3    0    0 -0.11499991878E+02  0.29113581382E+02 -0.15817356586E+02  0.35071914742E+02  0.51100000000E-03 0. -1.
        -11    1    3    3    0    0 -0.29142195626E+01 -0.87895814178E-01 -0.14977711142E+01  0.32777614168E+01  0.51100000000E-03 0.  1.
        -12    1    3    3    0    0  0.46294772699E+01  0.11645723185E+01  0.20401265239E+02  0.20952324736E+02  0.00000000000E+00 0.  1.
</event>
<event>
 7    1  0.6061051E-012  0.5930194E+02  0.7816164E-02  0.1266605E+00
        -11   -1    0    0    0    0  0.00000000000E+00  0.00000000000E+00  0.45593999997E+02  0.45594000000E+02  0.51100000000E-03 0.  1.
         11   -1    0    0    0    0 -0.00000000000E+00 -0.00000000000E+00 -0.45593999997E+02  0.45594000000E+02  0.51100000000E-03 0. -1.
    9900012    2    1    2    0    0  0.97357113740E+01 -0.29633816170E+02 -0.66161617444E+01  0.59301941401E+02  0.49999995210E+02 0.  0.
         12    1    1    2    0    0 -0.97357113740E+01  0.29633816170E+02  0.66161617444E+01  0.31886058599E+02  0.00000000000E+00 0. -1.
         11    1    3    3    0    0  0.13239773792E+02 -0.21892441831E+02 -0.13572415055E+02  0.28961717319E+02  0.51100000000E-03 0. -1.
        -11    1    3    3    0    0  0.81094394146E+01 -0.13808396938E+02  0.63400709603E+01  0.17222988523E+02  0.51100000000E-03 0.  1.
         12    1    3    3    0    0 -0.11613501832E+02  0.60670225991E+01  0.61618235031E+00  0.13117235559E+02  0.00000000000E+00 0. -1.
</event>
<event>
 7    1  0.6061051E-012  0.5930195E+02  0.7816164E-02  0.1266605E+00
        -11   -1    0    0    0    0  0.00000000000E+00  0.00000000000E+00  0.45593999997E+02  0.45594000000E+02  0.51100000000E-03 0. -1.
         11   -1    0    0    0    0 -0.00000000000E+00 -0.00000000000E+00 -0.45593999997E+02  0.45594000000E+02  0.51100000000E-03 0.  1.
    9900012    2    1    2    0    0 -0.58766237514E+01  0.20457148564E+02 -0.23742165538E+02  0.59301951977E+02  0.50000014498E+02 0.  0.
         12    1    1    2    0    0  0.58766237514E+01 -0.20457148564E+02  0.23742165538E+02  0.31886048023E+02  0.00000000000E+00 0. -1.
         11    1    3    3    0    0 -0.42539216346E+01  0.22956041508E+02 -0.18609100674E+02  0.29855892536E+02  0.51100000000E-03 0. -1.
        -11    1    3    3    0    0 -0.77569681115E+01  0.11394421827E+02 -0.18472554254E+01  0.13907399323E+02  0.51100000000E-03 0.  1.
         12    1    3    3    0    0  0.61342659947E+01 -0.13893314771E+02 -0.32858094386E+01  0.15538660118E+02  0.00000000000E+00 0. -1.
</event>
<event>
 7    1  0.6061051E-012  0.5930194E+02  0.7816164E-02  0.1266605E+00
        -11   -1    0    0    0    0  0.00000000000E+00  0.00000000000E+00  0.45593999997E+02  0.45594000000E+02  0.51100000000E-03 0. -1.
         11   -1    0    0    0    0 -0.00000000000E+00 -0.00000000000E+00 -0.45593999997E+02  0.45594000000E+02  0.51100000000E-03 0.  1.
    9900012    2    1    2    0    0  0.78017584184E+01 -0.16466920453E+02  0.26166658459E+02  0.59301938492E+02  0.49999989903E+02 0.  0.
         12    1    1    2    0    0 -0.78017584184E+01  0.16466920453E+02 -0.26166658459E+02  0.31886061508E+02  0.00000000000E+00 0. -1.
         11    1    3    3    0    0 -0.60695565882E+01 -0.16453259759E+02  0.24294647973E+02  0.29962963710E+02  0.51100000000E-03 0. -1.
        -11    1    3    3    0    0 -0.64674655097E+00 -0.11018749018E+02  0.13411663595E+00  0.11038527917E+02  0.51100000000E-03 0.  1.
         12    1    3    3    0    0  0.14518061558E+02  0.11005088325E+02  0.17378938495E+01  0.18300446865E+02  0.00000000000E+00 0. -1.
</event>
<event>
 7    1  0.6061051E-012  0.5930192E+02  0.7816164E-02  0.1266605E+00
        -11   -1    0    0    0    0  0.00000000000E+00  0.00000000000E+00  0.45593999997E+02  0.45594000000E+02  0.51100000000E-03 0. -1.
         11   -1    0    0    0    0 -0.00000000000E+00 -0.00000000000E+00 -0.45593999997E+02  0.45594000000E+02  0.51100000000E-03 0.  1.
    9900012    2    1    2    0    0  0.56544530890E+01 -0.21068128250E+02 -0.23256898155E+02  0.59301918719E+02  0.49999953843E+02 0.  0.
         12    1    1    2    0    0 -0.56544530890E+01  0.21068128250E+02  0.23256898155E+02  0.31886081281E+02  0.00000000000E+00 0. -1.
         11    1    3    3    0    0  0.51079743640E+00 -0.63204554210E+00 -0.85613423709E+01  0.85998243610E+01  0.51100000000E-03 0. -1.
        -11    1    3    3    0    0 -0.14237214713E+02  0.52729502291E+01 -0.99651957659E+01  0.18160600591E+02  0.51100000000E-03 0.  1.
         12    1    3    3    0    0  0.19380870366E+02 -0.25709032937E+02 -0.47303600183E+01  0.32541493767E+02  0.00000000000E+00 0. -1.
</event>
<event>
 7    1  0.6061051E-012  0.5930192E+02  0.7816164E-02  0.1266605E+00
        -11   -1    0    0    0    0  0.00000000000E+00  0.00000000000E+00  0.45593999997E+02  0.45594000000E+02  0.51100000000E-03 0. -1.
         11   -1    0    0    0    0 -0.00000000000E+00 -0.00000000000E+00 -0.45593999997E+02  0.45594000000E+02  0.51100000000E-03 0.  1.
    9900012    2    1    2    0    0 -0.12769470064E+02  0.22776939038E+01 -0.29128588040E+02  0.59301923157E+02  0.49999961936E+02 0.  0.
         12    1    1    2    0    0  0.12769470064E+02 -0.22776939038E+01  0.29128588040E+02  0.31886076843E+02  0.00000000000E+00 0. -1.
         11    1    3    3    0    0 -0.14894759122E+02 -0.11636848489E+01 -0.10561384638E+02  0.18296197896E+02  0.51100000000E-03 0. -1.
        -11    1    3    3    0    0  0.10866105689E+02  0.14545970293E+02 -0.19745974774E+02  0.26824634660E+02  0.51100000000E-03 0.  1.
         12    1    3    3    0    0 -0.87408166318E+01 -0.11104591540E+02  0.11787713717E+01  0.14181090600E+02  0.00000000000E+00 0. -1.
</event>
<event>
 7    1  0.6061051E-012  0.5930196E+02  0.7816164E-02  0.1266605E+00
        -11   -1    0    0    0    0  0.00000000000E+00  0.00000000000E+00  0.45593999997E+02  0.45594000000E+02  0.51100000000E-03 0. -1.
         11   -1    0    0    0    0 -0.00000000000E+00 -0.00000000000E+00 -0.45593999997E+02  0.45594000000E+02  0.51100000000E-03 0.  1.
    9900012    2    1    2    0    0  0.22345225892E+01  0.28479485666E+02  0.14164934291E+02  0.59301959818E+02  0.50000028797E+02 0.  0.
         12    1    1    2    0    0 -0.22345225892E+01 -0.28479485666E+02 -0.14164934291E+02  0.31886040182E+02  0.00000000000E+00 0. -1.
         11    1    3    3    0    0 -0.10809400838E+02  0.33141134868E+02  0.72997328690E+01  0.35615503184E+02  0.51100000000E-03 0. -1.
        -11    1    3    3    0    0 -0.43337390420E+01  0.54729473709E+00  0.24607990743E+00  0.43750864214E+01  0.51100000000E-03 0.  1.
        -12    1    3    3    0    0  0.17377662469E+02 -0.52089439393E+01  0.66191215150E+01  0.19311370212E+02  0.00000000000E+00 0.  1.
</event>
<event>
 7    1  0.6061051E-012  0.5930194E+02  0.7816164E-02  0.1266605E+00
        -11   -1    0    0    0    0  0.00000000000E+00  0.00000000000E+00  0.45593999997E+02  0.45594000000E+02  0.51100000000E-03 0. -1.
         11   -1    0    0    0    0 -0.00000000000E+00 -0.00000000000E+00 -0.45593999997E+02  0.45594000000E+02  0.51100000000E-03 0.  1.
    9900012    2    1    2    0    0  0.18824082598E+02  0.12850216165E+02 -0.22299023233E+02  0.59301943827E+02  0.49999999634E+02 0.  0.
         12    1    1    2    0    0 -0.18824082598E+02 -0.12850216165E+02  0.22299023233E+02  0.31886056173E+02  0.00000000000E+00 0. -1.
         11    1    3    3    0    0  0.87918046560E+01  0.23142348535E+02 -0.32367279495E+01  0.24966788598E+02  0.51100000000E-03 0. -1.
        -11    1    3    3    0    0  0.76714877861E+01 -0.65343732377E+01  0.40057199302E+01  0.10844148232E+02  0.51100000000E-03 0.  1.
         12    1    3    3    0    0  0.23607901561E+01 -0.37577591323E+01 -0.23068015213E+02  0.23491006997E+02  0.00000000000E+00 0. -1.
</event>
<event>
 7    1  0.6061051E-012  0.5930198E+02  0.7816164E-02  0.1266605E+00
        -11   -1    0    0    0    0  0.00000000000E+00  0.00000000000E+00  0.45593999997E+02  0.45594000000E+02  0.51100000000E-03 0.  1.
         11   -1    0    0    0    0 -0.00000000000E+00 -0.00000000000E+00 -0.45593999997E+02  0.45594000000E+02  0.51100000000E-03 0. -1.
    9900012    2    1    2    0    0  0.16395727042E+02 -0.21790916637E+02  0.16524352524E+02  0.59301982069E+02  0.50000069379E+02 0.  0.
         12    1    1    2    0    0 -0.16395727042E+02  0.21790916637E+02 -0.16524352524E+02  0.31886017931E+02  0.00000000000E+00 0. -1.
         11    1    3    3    0    0 -0.91163813964E+01 -0.26046642674E+01 -0.17520345426E+01  0.96416964799E+01  0.51100000000E-03 0. -1.
        -11    1    3    3    0    0 -0.15173864804E+01 -0.19084450315E+02  0.74645075874E+01  0.20548420361E+02  0.51100000000E-03 0.  1.
        -12    1    3    3    0    0  0.27029494919E+02 -0.10180205521E+00  0.10811879479E+02  0.29111865229E+02  0.00000000000E+00 0.  1.
</event>
<event>
 7    1  0.6061051E-012  0.5930195E+02  0.7816164E-02  0.1266605E+00
        -11   -1    0    0    0    0  0.00000000000E+00  0.00000000000E+00  0.45593999997E+02  0.45594000000E+02  0.51100000000E-03 0.  1.
         11   -1    0    0    0    0 -0.00000000000E+00 -0.00000000000E+00 -0.45593999997E+02  0.45594000000E+02  0.51100000000E-03 0. -1.
    9900012    2    1    2    0    0  0.22772608779E+02  0.93798704785E+01 -0.20252072065E+02  0.59301951268E+02  0.50000013204E+02 0.  0.
         12    1    1    2    0    0 -0.22772608779E+02 -0.93798704785E+01  0.20252072065E+02  0.31886048732E+02  0.00000000000E+00 0. -1.
         11    1    3    3    0    0  0.18135533950E+02  0.73926305341E+01 -0.17924571671E+02  0.26548801248E+02  0.51100000000E-03 0. -1.
        -11    1    3    3    0    0 -0.61127508969E+01  0.14735790746E+02 -0.19594489982E+01  0.16073229081E+02  0.51100000000E-03 0.  1.
         12    1    3    3    0    0  0.10749825726E+02 -0.12748550802E+02 -0.36805139560E+00  0.16679920939E+02  0.00000000000E+00 0. -1.
</event>
<event>
 7    1  0.6061051E-012  0.5930198E+02  0.7816164E-02  0.1266605E+00
        -11   -1    0    0    0    0  0.00000000000E+00  0.00000000000E+00  0.45593999997E+02  0.45594000000E+02  0.51100000000E-03 0. -1.
         11   -1    0    0    0    0 -0.00000000000E+00 -0.00000000000E+00 -0.45593999997E+02  0.45594000000E+02  0.51100000000E-03 0.  1.
    9900012    2    1    2    0    0 -0.94463018402E+01  0.24768568392E+02 -0.17720148057E+02  0.59301980402E+02  0.50000066338E+02 0.  0.
         12    1    1    2    0    0  0.94463018402E+01 -0.24768568392E+02  0.17720148057E+02  0.31886019598E+02  0.00000000000E+00 0. -1.
         11    1    3    3    0    0  0.12263659031E+02  0.15791955045E+02 -0.14180946463E+02  0.24512903129E+02  0.51100000000E-03 0. -1.
        -11    1    3    3    0    0 -0.10323502168E+02  0.12039870062E+02 -0.12323920153E+02  0.20085123259E+02  0.51100000000E-03 0.  1.
         12    1    3    3    0    0 -0.11386458704E+02 -0.30632567153E+01  0.87847185582E+01  0.14703954014E+02  0.00000000000E+00 0. -1.
</event>
<event>
 7    1  0.6061051E-012  0.5930194E+02  0.7816164E-02  0.1266605E+00
        -11   -1    0    0    0    0  0.00000000000E+00  0.00000000000E+00  0.45593999997E+02  0.45594000000E+02  0.51100000000E-03 0. -1.
         11   -1    0    0    0    0 -0.00000000000E+00 -0.00000000000E+00 -0.45593999997E+02  0.45594000000E+02  0.51100000000E-03 0.  1.
    9900012    2    1    2    0    0  0.14542712046E+02  0.26478181031E+02 -0.10204720807E+02  0.59301939235E+02  0.49999991259E+02 0.  0.
         12    1    1    2    0    0 -0.14542712046E+02 -0.26478181031E+02  0.10204720807E+02  0.31886060765E+02  0.00000000000E+00 0. -1.
         11    1    3    3    0    0  0.26337800759E+01  0.55854454051E+01  0.51670829513E+01  0.80518783118E+01  0.51100000000E-03 0. -1.
        -11    1    3    3    0    0  0.17110659536E+02 -0.75011590877E+01 -0.11959380012E+02  0.22182624460E+02  0.51100000000E-03 0.  1.
         12    1    3    3    0    0 -0.52017275655E+01  0.28393894714E+02 -0.34124237464E+01  0.29067436463E+02  0.00000000000E+00 0. -1.
</event>
<event>
 7    1  0.6061051E-012  0.5930188E+02  0.7816164E-02  0.1266605E+00
        -11   -1    0    0    0    0  0.00000000000E+00  0.00000000000E+00  0.45593999997E+02  0.45594000000E+02  0.51100000000E-03 0.  1.
         11   -1    0    0    0    0 -0.00000000000E+00 -0.00000000000E+00 -0.45593999997E+02  0.45594000000E+02  0.51100000000E-03 0. -1.
    9900012    2    1    2    0    0  0.39777306731E+01 -0.31392399615E+02  0.39267453406E+01  0.59301883525E+02  0.49999889657E+02 0.  0.
         12    1    1    2    0    0 -0.39777306731E+01  0.31392399615E+02 -0.39267453406E+01  0.31886116475E+02  0.00000000000E+00 0. -1.
         11    1    3    3    0    0 -0.13582627478E+02 -0.12097310911E+02 -0.67942769019E+01  0.19416356490E+02  0.51100000000E-03 0. -1.
        -11    1    3    3    0    0 -0.58224430244E+01 -0.12914387887E+02  0.34427685497E+01  0.14578577188E+02  0.51100000000E-03 0.  1.
        -12    1    3    3    0    0  0.23382801175E+02 -0.63807008170E+01  0.72782536928E+01  0.25306949847E+02  0.00000000000E+00 0.  1.
</event>
<event>
 7    1  0.6061051E-012  0.5930195E+02  0.7816164E-02  0.1266605E+00
        -11   -1    0    0    0    0  0.00000000000E+00  0.00000000000E+00  0.45593999997E+02  0.45594000000E+02  0.51100000000E-03 0.  1.
         11   -1    0    0    0    0 -0.00000000000E+00 -0.00000000000E+00 -0.45593999997E+02  0.45594000000E+02  0.51100000000E-03 0. -1.
    9900012    2    1    2    0    0 -0.25417940098E+02 -0.12336814706E+02 -0.14780101665E+02  0.59301951623E+02  0.50000013851E+02 0.  0.
         12    1    1    2    0    0  0.25417940098E+02  0.12336814706E+02  0.14780101665E+02  0.31886048377E+02  0.00000000000E+00 0. -1.
         11    1    3    3    0    0 -0.70196462957E+01 -0.62662672330E+01  0.71497593833E+01  0.11817808538E+02  0.51100000000E-03 0. -1.
        -11    1    3    3    0    0 -0.28906349856E+02 -0.27528121193E+01 -0.22056101010E+02  0.36464045697E+02  0.51100000000E-03 0.  1.
         12    1    3    3    0    0  0.10508056054E+02 -0.33177353537E+01  0.12623996185E+00  0.11020097388E+02  0.00000000000E+00 0. -1.
</event>
<event>
 7    1  0.6061051E-012  0.5930191E+02  0.7816164E-02  0.1266605E+00
        -11   -1    0    0    0    0  0.00000000000E+00  0.00000000000E+00  0.45593999997E+02  0.45594000000E+02  0.51100000000E-03 0.  1.
         11   -1    0    0    0    0 -0.00000000000E+00 -0.00000000000E+00 -0.45593999997E+02  0.45594000000E+02  0.51100000000E-03 0. -1.
    9900012    2    1    2    0    0 -0.18898915372E+02  0.21712650346E+02  0.13715497328E+02  0.59301905002E+02  0.49999928826E+02 0.  0.
         12    1    1    2    0    0  0.18898915372E+02 -0.21712650346E+02 -0.13715497328E+02  0.31886094998E+02  0.00000000000E+00 0. -1.
         11    1    3    3    0    0  0.22783684834E+01  0.12706984044E+02 -0.16724345635E+01  0.13017505294E+02  0.51100000000E-03 0. -1.
        -11    1    3    3    0    0 -0.87242903645E+01  0.22866755885E+02  0.12318601850E+02  0.27399812388E+02  0.51100000000E-03 0.  1.
         12    1    3    3    0    0 -0.12452993491E+02 -0.13861089584E+02  0.30693300417E+01  0.18884587320E+02  0.00000000000E+00 0. -1.
</event>
<event>
 7    1  0.6061051E-012  0.5930196E+02  0.7816164E-02  0.1266605E+00
        -11   -1    0    0    0    0  0.00000000000E+00  0.00000000000E+00  0.45593999997E+02  0.45594000000E+02  0.51100000000E-03 0.  1.
         11   -1    0    0    0    0 -0.00000000000E+00 -0.00000000000E+00 -0.45593999997E+02  0.45594000000E+02  0.51100000000E-03 0. -1.
    9900012    2    1    2    0    0 -0.93858432346E+01 -0.22641059862E+02  0.20396273700E+02  0.59301958764E+02  0.50000026875E+02 0.  0.
         12    1    1    2    0    0  0.93858432346E+01  0.22641059862E+02 -0.20396273700E+02  0.31886041236E+02  0.00000000000E+00 0. -1.
         11    1    3    3    0    0 -0.14735324210E+02 -0.15827098967E+02 -0.10227012647E+01  0.21648851227E+02  0.51100000000E-03 0. -1.
        -11    1    3    3    0    0 -0.85821296117E+01 -0.53842359012E+01  0.21368108012E+02  0.23648234293E+02  0.51100000000E-03 0.  1.
         12    1    3    3    0    0  0.13931610587E+02 -0.14297249938E+01  0.50866952120E-01  0.14004873243E+02  0.00000000000E+00 0. -1.
</event>
<event>
 7    1  0.6061051E-012  0.5930200E+02  0.7816164E-02  0.1266605E+00
        -11   -1    0    0    0    0  0.00000000000E+00  0.00000000000E+00  0.45593999997E+02  0.45594000000E+02  0.51100000000E-03 0.  1.
         11   -1    0    0    0    0 -0.00000000000E+00 -0.00000000000E+00 -0.45593999997E+02  0.45594000000E+02  0.51100000000E-03 0. -1.
    9900012    2    1    2    0    0 -0.28469195630E+02  0.20704763069E-01  0.14360410117E+02  0.59302001392E+02  0.50000104619E+02 0.  0.
         12    1    1    2    0    0  0.28469195630E+02 -0.20704763069E-01 -0.14360410117E+02  0.31885998608E+02  0.00000000000E+00 0. -1.
         11    1    3    3    0    0 -0.19126935803E+02 -0.20398015155E+02 -0.11602512330E+01  0.27986869754E+02  0.51100000000E-03 0. -1.
        -11    1    3    3    0    0 -0.52315446728E-02 -0.18638108765E+01  0.42805494573E+01  0.46687174117E+01  0.51100000000E-03 0.  1.
        -12    1    3    3    0    0 -0.93370282822E+01  0.22282530794E+02  0.11240111893E+02  0.26646414226E+02  0.00000000000E+00 0.  1.
</event>
<event>
 7    1  0.6061051E-012  0.5930192E+02  0.7816164E-02  0.1266605E+00
        -11   -1    0    0    0    0  0.00000000000E+00  0.00000000000E+00  0.45593999997E+02  0.45594000000E+02  0.51100000000E-03 0. -1.
         11   -1    0    0    0    0 -0.00000000000E+00 -0.00000000000E+00 -0.45593999997E+02  0.45594000000E+02  0.51100000000E-03 0.  1.
    9900012    2    1    2    0    0  0.29304409675E+02 -0.26289583527E+00 -0.12566013639E+02  0.59301917779E+02  0.49999952129E+02 0.  0.
         12    1    1    2    0    0 -0.29304409675E+02  0.26289583527E+00  0.12566013639E+02  0.31886082221E+02  0.00000000000E+00 0. -1.
         11    1    3    3    0    0 -0.28771237904E+01 -0.32265780978E+01  0.41320731720E+01  0.59801903386E+01  0.51100000000E-03 0. -1.
        -11    1    3    3    0    0  0.17139545565E+02 -0.17380760687E+02 -0.31243086091E+01  0.24609269977E+02  0.51100000000E-03 0.  1.
         12    1    3    3    0    0  0.15041987901E+02  0.20344442950E+02 -0.13573778202E+02  0.28712457464E+02  0.00000000000E+00 0. -1.
</event>
<event>
 7    1  0.6061051E-012  0.5930195E+02  0.7816164E-02  0.1266605E+00
        -11   -1    0    0    0    0  0.00000000000E+00  0.00000000000E+00  0.45593999997E+02  0.45594000000E+02  0.51100000000E-03 0. -1.
         11   -1    0    0    0    0 -0.00000000000E+00 -0.00000000000E+00 -0.45593999997E+02  0.45594000000E+02  0.51100000000E-03 0.  1.
    9900012    2    1    2    0    0 -0.24776626962E+02 -0.11845679362E+02 -0.16202431977E+02  0.59301950305E+02  0.50000011449E+02 0.  0.
         12    1    1    2    0    0  0.24776626962E+02  0.11845679362E+02  0.16202431977E+02  0.31886049695E+02  0.00000000000E+00 0. -1.
         11    1    3    3    0    0  0.22330816332E+01  0.77449602826E+01  0.53087443594E+00  0.80779261749E+01  0.51100000000E-03 0. -1.
        -11    1    3    3    0    0 -0.31267223614E+02 -0.36537177515E+01 -0.14201385277E+02  0.34535029607E+02  0.51100000000E-03 0.  1.
         12    1    3    3    0    0  0.42575150187E+01 -0.15936921893E+02 -0.25319211362E+01  0.16688994524E+02  0.00000000000E+00 0. -1.
</event>
<event>
 7    1  0.6061051E-012  0.5930193E+02  0.7816164E-02  0.1266605E+00
        -11   -1    0    0    0    0  0.00000000000E+00  0.00000000000E+00  0.45593999997E+02  0.45594000000E+02  0.51100000000E-03 0.  1.
         11   -1    0    0    0    0 -0.00000000000E+00 -0.00000000000E+00 -0.45593999997E+02  0.45594000000E+02  0.51100000000E-03 0. -1.
    9900012    2    1    2    0    0  0.21394501124E+02 -0.23613204964E+02 -0.11887861165E+01  0.59301931891E+02  0.49999977866E+02 0.  0.
         12    1    1    2    0    0 -0.21394501124E+02  0.23613204964E+02  0.11887861165E+01  0.31886068109E+02  0.00000000000E+00 0. -1.
         11    1    3    3    0    0 -0.52701521185E+01  0.79949802997E+01  0.19309890894E+01  0.97684662291E+01  0.51100000000E-03 0. -1.
        -11    1    3    3    0    0  0.29225883008E+02 -0.15502547602E+02 -0.11042441600E+01  0.33101368177E+02  0.51100000000E-03 0.  1.
        -12    1    3    3    0    0 -0.25612297650E+01 -0.16105637661E+02 -0.20155310459E+01  0.16432097486E+02  0.00000000000E+00 0.  1.
</event>
<event>
 7    1  0.6061051E-012  0.5930196E+02  0.7816164E-02  0.1266605E+00
        -11   -1    0    0    0    0  0.00000000000E+00  0.00000000000E+00  0.45593999997E+02  0.45594000000E+02  0.51100000000E-03 0.  1.
         11   -1    0    0    0    0 -0.00000000000E+00 -0.00000000000E+00 -0.45593999997E+02  0.45594000000E+02  0.51100000000E-03 0. -1.
    9900012    2    1    2    0    0  0.38961217093E+01 -0.29540407473E+02 -0.11353600442E+02  0.59301957896E+02  0.50000025293E+02 0.  0.
         12    1    1    2    0    0 -0.38961217093E+01  0.29540407473E+02  0.11353600442E+02  0.31886042104E+02  0.00000000000E+00 0. -1.
         11    1    3    3    0    0  0.15811949849E+02 -0.95263750562E+01 -0.80515187635E+01  0.20139427360E+02  0.51100000000E-03 0.  1.
        -11    1    3    3    0    0 -0.58826861512E+01  0.66002432846E+01 -0.74473782812E+01  0.11559958966E+02  0.51100000000E-03 0. -1.
        -12    1    3    3    0    0 -0.60331419882E+01 -0.26614275701E+02  0.41452966023E+01  0.27602571570E+02  0.00000000000E+00 0.  1.
</event>
<event>
 7    1  0.6061051E-012  0.5930196E+02  0.7816164E-02  0.1266605E+00
        -11   -1    0    0    0    0  0.00000000000E+00  0.00000000000E+00  0.45593999997E+02  0.45594000000E+02  0.51100000000E-03 0.  1.
         11   -1    0    0    0    0 -0.00000000000E+00 -0.00000000000E+00 -0.45593999997E+02  0.45594000000E+02  0.51100000000E-03 0. -1.
    9900012    2    1    2    0    0  0.31149133546E+02  0.67970373059E+01 -0.50107379953E+00  0.59301963687E+02  0.50000035853E+02 0.  0.
         12    1    1    2    0    0 -0.31149133546E+02 -0.67970373059E+01  0.50107379953E+00  0.31886036313E+02  0.00000000000E+00 0. -1.
         11    1    3    3    0    0  0.21440573543E+02  0.12923566886E+02  0.42563281242E+01  0.25393564229E+02  0.51100000000E-03 0. -1.
        -11    1    3    3    0    0  0.19047614831E+02 -0.86399400114E+01 -0.96907264576E+01  0.23051472267E+02  0.51100000000E-03 0.  1.
        -12    1    3    3    0    0 -0.93390548274E+01  0.25134104312E+01  0.49333245339E+01  0.10856927191E+02  0.00000000000E+00 0.  1.
</event>
<event>
 7    1  0.6061051E-012  0.5930187E+02  0.7816164E-02  0.1266605E+00
        -11   -1    0    0    0    0  0.00000000000E+00  0.00000000000E+00  0.45593999997E+02  0.45594000000E+02  0.51100000000E-03 0.  1.
         11   -1    0    0    0    0 -0.00000000000E+00 -0.00000000000E+00 -0.45593999997E+02  0.45594000000E+02  0.51100000000E-03 0. -1.
    9900012    2    1    2    0    0 -0.19048972923E+02  0.94376639387E+01  0.23765363971E+02  0.59301868301E+02  0.49999861893E+02 0.  0.
         12    1    1    2    0    0  0.19048972923E+02 -0.94376639387E+01 -0.23765363971E+02  0.31886131699E+02  0.00000000000E+00 0. -1.
         11    1    3    3    0    0  0.83573600571E+01  0.17782416554E+02  0.37411474432E+01  0.20001399703E+02  0.51100000000E-03 0. -1.
        -11    1    3    3    0    0 -0.12915958169E+02 -0.65050273985E+01 -0.65763629239E-01  0.14461731639E+02  0.51100000000E-03 0.  1.
        -12    1    3    3    0    0 -0.14490374811E+02 -0.18397252169E+01  0.20089980157E+02  0.24838736959E+02  0.00000000000E+00 0.  1.
</event>
<event>
 7    1  0.6061051E-012  0.5930197E+02  0.7816164E-02  0.1266605E+00
        -11   -1    0    0    0    0  0.00000000000E+00  0.00000000000E+00  0.45593999997E+02  0.45594000000E+02  0.51100000000E-03 0.  1.
         11   -1    0    0    0    0 -0.00000000000E+00 -0.00000000000E+00 -0.45593999997E+02  0.45594000000E+02  0.51100000000E-03 0. -1.
    9900012    2    1    2    0    0  0.15902790225E+01  0.29539497781E+02  0.11899904302E+02  0.59301974238E+02  0.50000055095E+02 0.  0.
         12    1    1    2    0    0 -0.15902790225E+01 -0.29539497781E+02 -0.11899904302E+02  0.31886025762E+02  0.00000000000E+00 0. -1.
         11    1    3    3    0    0  0.84915251879E+00  0.33015975019E+02  0.33926835386E+01  0.33200692287E+02  0.51100000000E-03 0.  1.
        -11    1    3    3    0    0  0.12730677856E+01  0.37254333965E+01 -0.75389254706E+01  0.85049957725E+01  0.51100000000E-03 0. -1.
         12    1    3    3    0    0 -0.53194128196E+00 -0.72019106343E+01  0.16046146234E+02  0.17596286178E+02  0.00000000000E+00 0. -1.
</event>
<event>
 7    1  0.6061051E-012  0.5930195E+02  0.7816164E-02  0.1266605E+00
        -11   -1    0    0    0    0  0.00000000000E+00  0.00000000000E+00  0.45593999997E+02  0.45594000000E+02  0.51100000000E-03 0.  1.
         11   -1    0    0    0    0 -0.00000000000E+00 -0.00000000000E+00 -0.45593999997E+02  0.45594000000E+02  0.51100000000E-03 0. -1.
    9900012    2    1    2    0    0 -0.10818666507E+02 -0.26823964163E+02  0.13422057664E+02  0.59301949283E+02  0.50000009584E+02 0.  0.
         12    1    1    2    0    0  0.10818666507E+02  0.26823964163E+02 -0.13422057664E+02  0.31886050717E+02  0.00000000000E+00 0. -1.
         11    1    3    3    0    0 -0.48050482190E+01 -0.23012027788E+02  0.10600949435E+02  0.25788021260E+02  0.51100000000E-03 0. -1.
        -11    1    3    3    0    0 -0.29731561163E+01 -0.23802071607E+00  0.17680996555E+02  0.17930810093E+02  0.51100000000E-03 0.  1.
         12    1    3    3    0    0 -0.30404621721E+01 -0.35739156584E+01 -0.14859888326E+02  0.15583117930E+02  0.00000000000E+00 0. -1.
</event>
<event>
 7    1  0.6061051E-012  0.5930194E+02  0.7816164E-02  0.1266605E+00
        -11   -1    0    0    0    0  0.00000000000E+00  0.00000000000E+00  0.45593999997E+02  0.45594000000E+02  0.51100000000E-03 0. -1.
         11   -1    0    0    0    0 -0.00000000000E+00 -0.00000000000E+00 -0.45593999997E+02  0.45594000000E+02  0.51100000000E-03 0.  1.
    9900012    2    1    2    0    0 -0.40739609183E+01 -0.28487130207E+01 -0.31496165346E+02  0.59301941056E+02  0.49999994581E+02 0.  0.
         12    1    1    2    0    0  0.40739609183E+01  0.28487130207E+01  0.31496165346E+02  0.31886058944E+02  0.00000000000E+00 0. -1.
         11    1    3    3    0    0 -0.20874329724E+02 -0.61128122589E+01 -0.77368784030E+01  0.23086000148E+02  0.51100000000E-03 0. -1.
        -11    1    3    3    0    0  0.32002033043E+00  0.80870778887E+01 -0.14749717325E+02  0.16824309888E+02  0.51100000000E-03 0.  1.
         12    1    3    3    0    0  0.16480348475E+02 -0.48229786505E+01 -0.90095696182E+01  0.19391631020E+02  0.00000000000E+00 0. -1.
</event>
<event>
 7    1  0.6061051E-012  0.5930204E+02  0.7816164E-02  0.1266604E+00
        -11   -1    0    0    0    0  0.00000000000E+00  0.00000000000E+00  0.45593999997E+02  0.45594000000E+02  0.51100000000E-03 0.  1.
         11   -1    0    0    0    0 -0.00000000000E+00 -0.00000000000E+00 -0.45593999997E+02  0.45594000000E+02  0.51100000000E-03 0. -1.
    9900012    2    1    2    0    0  0.20490188789E+01  0.31614584327E+02  0.36102851869E+01  0.59302037891E+02  0.50000171183E+02 0.  0.
         12    1    1    2    0    0 -0.20490188789E+01 -0.31614584327E+02 -0.36102851869E+01  0.31885962109E+02  0.00000000000E+00 0. -1.
         11    1    3    3    0    0 -0.65776967246E+01  0.15353819771E+02 -0.44491564122E+01  0.17285857480E+02  0.51100000000E-03 0. -1.
        -11    1    3    3    0    0 -0.93172878643E+01  0.15042045236E+02  0.14537159730E+02  0.22899868805E+02  0.51100000000E-03 0.  1.
         12    1    3    3    0    0  0.17944003468E+02  0.12187193196E+01 -0.64777181305E+01  0.19116311606E+02  0.00000000000E+00 0. -1.
</event>
<event>
 7    1  0.6061051E-012  0.5930194E+02  0.7816164E-02  0.1266605E+00
        -11   -1    0    0    0    0  0.00000000000E+00  0.00000000000E+00  0.45593999997E+02  0.45594000000E+02  0.51100000000E-03 0.  1.
         11   -1    0    0    0    0 -0.00000000000E+00 -0.00000000000E+00 -0.45593999997E+02  0.45594000000E+02  0.51100000000E-03 0. -1.
    9900012    2    1    2    0    0 -0.21574489745E+01  0.31256956486E+02 -0.59218758590E+01  0.59301944607E+02  0.50000001056E+02 0.  0.
         12    1    1    2    0    0  0.21574489745E+01 -0.31256956486E+02  0.59218758590E+01  0.31886055393E+02  0.00000000000E+00 0. -1.
         11    1    3    3    0    0  0.63936743151E+01  0.53547795358E+01 -0.60866153624E+01  0.10324709292E+02  0.51100000000E-03 0. -1.
        -11    1    3    3    0    0 -0.73125224908E+01 -0.13880448834E+01 -0.15708134865E+02  0.17382323061E+02  0.51100000000E-03 0.  1.
        -12    1    3    3    0    0 -0.12386007988E+01  0.27290221834E+02  0.15872874369E+02  0.31594912255E+02  0.00000000000E+00 0.  1.
</event>
<event>
 7    1  0.6061051E-012  0.5930192E+02  0.7816164E-02  0.1266605E+00
        -11   -1    0    0    0    0  0.00000000000E+00  0.00000000000E+00  0.45593999997E+02  0.45594000000E+02  0.51100000000E-03 0.  1.
         11   -1    0    0    0    0 -0.00000000000E+00 -0.00000000000E+00 -0.45593999997E+02  0.45594000000E+02  0.51100000000E-03 0. -1.
    9900012    2    1    2    0    0  0.69766933436E+00 -0.10302343795E+02  0.30167810152E+02  0.59301924677E+02  0.49999964708E+02 0.  0.
         12    1    1    2    0    0 -0.69766933436E+00  0.10302343795E+02 -0.30167810152E+02  0.31886075323E+02  0.00000000000E+00 0. -1.
         11    1    3    3    0    0 -0.13504001324E+00  0.69512181862E+01 -0.18257703424E+01  0.71882617984E+01  0.51100000000E-03 0. -1.
        -11    1    3    3    0    0  0.16945203167E+02 -0.17188695905E+02  0.24329337633E+02  0.34271093464E+02  0.51100000000E-03 0.  1.
         12    1    3    3    0    0 -0.16112493819E+02 -0.64866076600E-01  0.76642428612E+01  0.17842569415E+02  0.00000000000E+00 0. -1.
</event>
<event>
 7    1  0.6061051E-012  0.5930192E+02  0.7816164E-02  0.1266605E+00
        -11   -1    0    0    0    0  0.00000000000E+00  0.00000000000E+00  0.45593999997E+02  0.45594000000E+02  0.51100000000E-03 0. -1.
         11   -1    0    0    0    0 -0.00000000000E+00 -0.00000000000E+00 -0.45593999997E+02  0.45594000000E+02  0.51100000000E-03 0.  1.
    9900012    2    1    2    0    0  0.16614435596E+01 -0.29772048281E+02 -0.11295434199E+02  0.59301920164E+02  0.49999956479E+02 0.  0.
         12    1    1    2    0    0 -0.16614435596E+01  0.29772048281E+02  0.11295434199E+02  0.31886079836E+02  0.00000000000E+00 0. -1.
         11    1    3    3    0    0 -0.35845838914E+01 -0.18483931043E+02 -0.18619934389E+02  0.26480311655E+02  0.51100000000E-03 0. -1.
        -11    1    3    3    0    0 -0.89189344970E+01 -0.18968733065E+01 -0.62632546189E+01  0.11062272804E+02  0.51100000000E-03 0.  1.
         12    1    3    3    0    0  0.14164961948E+02 -0.93912439319E+01  0.13587754809E+02  0.21759335705E+02  0.00000000000E+00 0. -1.
</event>
<event>
 7    1  0.6061051E-012  0.5930201E+02  0.7816164E-02  0.1266605E+00
        -11   -1    0    0    0    0  0.00000000000E+00  0.00000000000E+00  0.45593999997E+02  0.45594000000E+02  0.51100000000E-03 0. -1.
         11   -1    0    0    0    0 -0.00000000000E+00 -0.00000000000E+00 -0.45593999997E+02  0.45594000000E+02  0.51100000000E-03 0.  1.
    9900012    2    1    2    0    0 -0.92129121707E+01 -0.29601083461E+02 -0.74574911187E+01  0.59302014575E+02  0.50000128661E+02 0.  0.
         12    1    1    2    0    0  0.92129121707E+01  0.29601083461E+02  0.74574911187E+01  0.31885985425E+02  0.00000000000E+00 0. -1.
         11    1    3    3    0    0  0.11461531292E+02  0.21172333164E+01 -0.62148980897E+01  0.13208873343E+02  0.51100000000E-03 0. -1.
        -11    1    3    3    0    0 -0.88003673179E+00 -0.13387515784E+02 -0.11056403307E+02  0.17385168906E+02  0.51100000000E-03 0.  1.
         12    1    3    3    0    0 -0.19794406731E+02 -0.18330800993E+02  0.98138102784E+01  0.28707972326E+02  0.00000000000E+00 0. -1.
</event>
<event>
 7    1  0.6061051E-012  0.5930196E+02  0.7816164E-02  0.1266605E+00
        -11   -1    0    0    0    0  0.00000000000E+00  0.00000000000E+00  0.45593999997E+02  0.45594000000E+02  0.51100000000E-03 0.  1.
         11   -1    0    0    0    0 -0.00000000000E+00 -0.00000000000E+00 -0.45593999997E+02  0.45594000000E+02  0.51100000000E-03 0. -1.
    9900012    2    1    2    0    0  0.57293788461E+01 -0.17157287436E+02  0.26258741869E+02  0.59301955738E+02  0.50000021356E+02 0.  0.
         12    1    1    2    0    0 -0.57293788461E+01  0.17157287436E+02 -0.26258741869E+02  0.31886044262E+02  0.00000000000E+00 0. -1.
         11    1    3    3    0    0 -0.20113106083E+00 -0.96726411616E+01  0.63866921062E+01  0.11592682048E+02  0.51100000000E-03 0. -1.
        -11    1    3    3    0    0 -0.22784881461E+00  0.11864479815E+02  0.24195266840E+02  0.26948631396E+02  0.51100000000E-03 0.  1.
         12    1    3    3    0    0  0.61583587215E+01 -0.19349126089E+02 -0.43232170772E+01  0.20760642294E+02  0.00000000000E+00 0. -1.
</event>
<event>
 7    1  0.6061051E-012  0.5930195E+02  0.7816164E-02  0.1266605E+00
        -11   -1    0    0    0    0  0.00000000000E+00  0.00000000000E+00  0.45593999997E+02  0.45594000000E+02  0.51100000000E-03 0. -1.
         11   -1    0    0    0    0 -0.00000000000E+00 -0.00000000000E+00 -0.45593999997E+02  0.45594000000E+02  0.51100000000E-03 0.  1.
    9900012    2    1    2    0    0 -0.13832670482E+02  0.89149784179E+01 -0.27311177309E+02  0.59301952599E+02  0.50000015631E+02 0.  0.
         12    1    1    2    0    0  0.13832670482E+02 -0.89149784179E+01  0.27311177309E+02  0.31886047401E+02  0.00000000000E+00 0. -1.
         11    1    3    3    0    0  0.19199944104E+00 -0.65709842430E+01  0.15727647678E+00  0.65756698411E+01  0.51100000000E-03 0. -1.
        -11    1    3    3    0    0 -0.51678483134E+01  0.22449028179E+02  0.10696051305E-02  0.23036178585E+02  0.51100000000E-03 0.  1.
         12    1    3    3    0    0 -0.88568216098E+01 -0.69630655183E+01 -0.27469523391E+02  0.29690104173E+02  0.00000000000E+00 0. -1.
</event>
<event>
 7    1  0.6061051E-012  0.5930195E+02  0.7816164E-02  0.1266605E+00
        -11   -1    0    0    0    0  0.00000000000E+00  0.00000000000E+00  0.45593999997E+02  0.45594000000E+02  0.51100000000E-03 0. -1.
         11   -1    0    0    0    0 -0.00000000000E+00 -0.00000000000E+00 -0.45593999997E+02  0.45594000000E+02  0.51100000000E-03 0.  1.
    9900012    2    1    2    0    0 -0.22739045428E+02 -0.95858243423E+01 -0.20193272496E+02  0.59301945534E+02  0.50000002748E+02 0.  0.
         12    1    1    2    0    0  0.22739045428E+02  0.95858243423E+01  0.20193272496E+02  0.31886054466E+02  0.00000000000E+00 0. -1.
         11    1    3    3    0    0  0.14180749187E+01 -0.11898251571E+01 -0.47424112130E+01  0.50908825123E+01  0.51100000000E-03 0. -1.
        -11    1    3    3    0    0 -0.23807527170E+01 -0.17169712026E+02  0.96522842312E+01  0.19840201251E+02  0.51100000000E-03 0.  1.
         12    1    3    3    0    0 -0.21776367630E+02  0.87737128408E+01 -0.25103145514E+02  0.34370861771E+02  0.00000000000E+00 0. -1.
</event>
<event>
 7    1  0.6061051E-012  0.5930205E+02  0.7816164E-02  0.1266604E+00
        -11   -1    0    0    0    0  0.00000000000E+00  0.00000000000E+00  0.45593999997E+02  0.45594000000E+02  0.51100000000E-03 0. -1.
         11   -1    0    0    0    0 -0.00000000000E+00 -0.00000000000E+00 -0.45593999997E+02  0.45594000000E+02  0.51100000000E-03 0.  1.
    9900012    2    1    2    0    0 -0.15687860755E+02 -0.18170758725E+02 -0.20986377738E+02  0.59302054847E+02  0.50000202108E+02 0.  0.
         12    1    1    2    0    0  0.15687860755E+02  0.18170758725E+02  0.20986377738E+02  0.31885945153E+02  0.00000000000E+00 0. -1.
         11    1    3    3    0    0 -0.14727561593E+02 -0.15289190409E+02 -0.61597486637E+00  0.21237698536E+02  0.51100000000E-03 0. -1.
        -11    1    3    3    0    0  0.64036054699E+00 -0.16518294178E+02 -0.17430833210E+02  0.24022865167E+02  0.51100000000E-03 0.  1.
         12    1    3    3    0    0 -0.16006597092E+01  0.13636725862E+02 -0.29395696624E+01  0.14041491144E+02  0.00000000000E+00 0. -1.
</event>
<event>
 7    1  0.6061051E-012  0.5930205E+02  0.7816164E-02  0.1266604E+00
        -11   -1    0    0    0    0  0.00000000000E+00  0.00000000000E+00  0.45593999997E+02  0.45594000000E+02  0.51100000000E-03 0.  1.
         11   -1    0    0    0    0 -0.00000000000E+00 -0.00000000000E+00 -0.45593999997E+02  0.45594000000E+02  0.51100000000E-03 0. -1.
    9900012    2    1    2    0    0 -0.29965148557E+02 -0.10898100855E+02  0.18783217764E+00  0.59302046804E+02  0.50000187439E+02 0.  0.
         12    1    1    2    0    0  0.29965148557E+02  0.10898100855E+02 -0.18783217764E+00  0.31885953196E+02  0.00000000000E+00 0. -1.
         11    1    3    3    0    0 -0.56941849933E+01 -0.14591599017E+02  0.34612820735E+01  0.16041165122E+02  0.51100000000E-03 0. -1.
        -11    1    3    3    0    0 -0.26170177933E+02 -0.10285222870E+02  0.20249146692E+01  0.28191564380E+02  0.51100000000E-03 0.  1.
         12    1    3    3    0    0  0.18992143690E+01  0.13978721032E+02 -0.52983645651E+01  0.15069317303E+02  0.00000000000E+00 0. -1.
</event>
<event>
 7    1  0.6061051E-012  0.5930194E+02  0.7816164E-02  0.1266605E+00
        -11   -1    0    0    0    0  0.00000000000E+00  0.00000000000E+00  0.45593999997E+02  0.45594000000E+02  0.51100000000E-03 0.  1.
         11   -1    0    0    0    0 -0.00000000000E+00 -0.00000000000E+00 -0.45593999997E+02  0.45594000000E+02  0.51100000000E-03 0. -1.
    9900012    2    1    2    0    0  0.18584655741E+02 -0.95150301972E+01  0.24099698861E+02  0.59301941701E+02  0.49999995757E+02 0.  0.
         12    1    1    2    0    0 -0.18584655741E+02  0.95150301972E+01 -0.24099698861E+02  0.31886058299E+02  0.00000000000E+00 0. -1.
         11    1    3    3    0    0  0.26938124101E+01 -0.13733057766E+02 -0.10387682091E+01  0.14033265499E+02  0.51100000000E-03 0. -1.
        -11    1    3    3    0    0  0.19312973594E+02 -0.92834770122E+00 -0.47683933001E-01  0.19335331715E+02  0.51100000000E-03 0.  1.
         12    1    3    3    0    0 -0.34221302632E+01  0.51463752704E+01  0.25186151003E+02  0.25933344487E+02  0.00000000000E+00 0. -1.
</event>
<event>
 7    1  0.6061051E-012  0.5930194E+02  0.7816164E-02  0.1266605E+00
        -11   -1    0    0    0    0  0.00000000000E+00  0.00000000000E+00  0.45593999997E+02  0.45594000000E+02  0.51100000000E-03 0. -1.
         11   -1    0    0    0    0 -0.00000000000E+00 -0.00000000000E+00 -0.45593999997E+02  0.45594000000E+02  0.51100000000E-03 0.  1.
    9900012    2    1    2    0    0  0.23493424099E+02  0.19916465262E+02 -0.82531180951E+01  0.59301944698E+02  0.50000001222E+02 0.  0.
         12    1    1    2    0    0 -0.23493424099E+02 -0.19916465262E+02  0.82531180951E+01  0.31886055302E+02  0.00000000000E+00 0. -1.
         11    1    3    3    0    0 -0.23450676842E+01 -0.84173508980E+01 -0.31754960626E+01  0.92970379201E+01  0.51100000000E-03 0. -1.
        -11    1    3    3    0    0  0.12631305495E+02 -0.51428152526E+01  0.15357099194E+00  0.13638988656E+02  0.51100000000E-03 0.  1.
         12    1    3    3    0    0  0.13207186288E+02  0.33476631413E+02 -0.52311930244E+01  0.36365918122E+02  0.00000000000E+00 0. -1.
</event>
<event>
 7    1  0.6061051E-012  0.5930200E+02  0.7816164E-02  0.1266605E+00
        -11   -1    0    0    0    0  0.00000000000E+00  0.00000000000E+00  0.45593999997E+02  0.45594000000E+02  0.51100000000E-03 0.  1.
         11   -1    0    0    0    0 -0.00000000000E+00 -0.00000000000E+00 -0.45593999997E+02  0.45594000000E+02  0.51100000000E-03 0. -1.
    9900012    2    1    2    0    0 -0.20461772394E+02  0.21769614161E+02 -0.11140782992E+02  0.59301995612E+02  0.50000094077E+02 0.  0.
         12    1    1    2    0    0  0.20461772394E+02 -0.21769614161E+02  0.11140782992E+02  0.31886004388E+02  0.00000000000E+00 0. -1.
         11    1    3    3    0    0 -0.12900643950E+01  0.97489386052E+01 -0.59301855047E+01  0.11483604419E+02  0.51100000000E-03 0. -1.
        -11    1    3    3    0    0 -0.79340146220E+01  0.26730531280E+02 -0.82077871086E+01  0.29066091241E+02  0.51100000000E-03 0.  1.
         12    1    3    3    0    0 -0.11237693377E+02 -0.14709855725E+02  0.29971896218E+01  0.18752299952E+02  0.00000000000E+00 0. -1.
</event>
<event>
 7    1  0.6061051E-012  0.5930196E+02  0.7816164E-02  0.1266605E+00
        -11   -1    0    0    0    0  0.00000000000E+00  0.00000000000E+00  0.45593999997E+02  0.45594000000E+02  0.51100000000E-03 0. -1.
         11   -1    0    0    0    0 -0.00000000000E+00 -0.00000000000E+00 -0.45593999997E+02  0.45594000000E+02  0.51100000000E-03 0.  1.
    9900012    2    1    2    0    0 -0.32972535046E+01  0.29159651893E+02  0.12472463262E+02  0.59301960437E+02  0.50000029927E+02 0.  0.
         12    1    1    2    0    0  0.32972535046E+01 -0.29159651893E+02 -0.12472463262E+02  0.31886039563E+02  0.00000000000E+00 0. -1.
         11    1    3    3    0    0  0.14983110143E+02  0.15922086703E+02  0.14918790994E+02  0.26468410597E+02  0.51100000000E-03 0. -1.
        -11    1    3    3    0    0  0.36715951127E+01  0.76852633876E+01 -0.52686112726E+01  0.10015096056E+02  0.51100000000E-03 0.  1.
        -12    1    3    3    0    0 -0.21951958760E+02  0.55523018020E+01  0.28222835401E+01  0.22818453784E+02  0.00000000000E+00 0.  1.
</event>
<event>
 7    1  0.6061051E-012  0.5930196E+02  0.7816164E-02  0.1266605E+00
        -11   -1    0    0    0    0  0.00000000000E+00  0.00000000000E+00  0.45593999997E+02  0.45594000000E+02  0.51100000000E-03 0.  1.
         11   -1    0    0    0    0 -0.00000000000E+00 -0.00000000000E+00 -0.45593999997E+02  0.45594000000E+02  0.51100000000E-03 0. -1.
    9900012    2    1    2    0    0  0.16185672209E+02 -0.60243248444E+01  0.26803941290E+02  0.59301956919E+02  0.50000023511E+02 0.  0.
         12    1    1    2    0    0 -0.16185672209E+02  0.60243248444E+01 -0.26803941290E+02  0.31886043081E+02  0.00000000000E+00 0. -1.
         11    1    3    3    0    0  0.68145969337E+00  0.23851512712E+01  0.72427903227E+01  0.76558047141E+01  0.51100000000E-03 0. -1.
        -11    1    3    3    0    0  0.30165875631E+02  0.16788782315E-01  0.81560323181E+01  0.31249019151E+02  0.51100000000E-03 0.  1.
         12    1    3    3    0    0 -0.14661663116E+02 -0.84262648979E+01  0.11405118649E+02  0.20397133054E+02  0.00000000000E+00 0. -1.
</event>
<event>
 7    1  0.6061051E-012  0.5930193E+02  0.7816164E-02  0.1266605E+00
        -11   -1    0    0    0    0  0.00000000000E+00  0.00000000000E+00  0.45593999997E+02  0.45594000000E+02  0.51100000000E-03 0. -1.
         11   -1    0    0    0    0 -0.00000000000E+00 -0.00000000000E+00 -0.45593999997E+02  0.45594000000E+02  0.51100000000E-03 0.  1.
    9900012    2    1    2    0    0  0.15816830523E+02 -0.18573283030E+02 -0.20532471153E+02  0.59301931851E+02  0.49999977793E+02 0.  0.
         12    1    1    2    0    0 -0.15816830523E+02  0.18573283030E+02  0.20532471153E+02  0.31886068149E+02  0.00000000000E+00 0. -1.
         11    1    3    3    0    0  0.14060758890E+02 -0.11822027265E+02 -0.13892538783E+02  0.23031888835E+02  0.51100000000E-03 0. -1.
        -11    1    3    3    0    0  0.85868171297E+01 -0.16770545980E+02  0.49663613211E+01  0.19484593553E+02  0.51100000000E-03 0.  1.
        -12    1    3    3    0    0 -0.68307454960E+01  0.10019290215E+02 -0.11606293692E+02  0.16785449464E+02  0.00000000000E+00 0.  1.
</event>
<event>
 7    1  0.6061051E-012  0.5930196E+02  0.7816164E-02  0.1266605E+00
        -11   -1    0    0    0    0  0.00000000000E+00  0.00000000000E+00  0.45593999997E+02  0.45594000000E+02  0.51100000000E-03 0.  1.
         11   -1    0    0    0    0 -0.00000000000E+00 -0.00000000000E+00 -0.45593999997E+02  0.45594000000E+02  0.51100000000E-03 0. -1.
    9900012    2    1    2    0    0 -0.12240204182E+02  0.29326871868E+02  0.26136990990E+01  0.59301961755E+02  0.50000032330E+02 0.  0.
         12    1    1    2    0    0  0.12240204182E+02 -0.29326871868E+02 -0.26136990990E+01  0.31886038245E+02  0.00000000000E+00 0. -1.
         11    1    3    3    0    0 -0.14351158227E+01  0.85267665460E+01 -0.14278778877E+02  0.16692777829E+02  0.51100000000E-03 0. -1.
        -11    1    3    3    0    0  0.10909713872E+02  0.71592348927E+01  0.27919467363E+01  0.13344342166E+02  0.51100000000E-03 0.  1.
        -12    1    3    3    0    0 -0.21714802231E+02  0.13640870429E+02  0.14100531240E+02  0.29264841760E+02  0.00000000000E+00 0.  1.
</event>
<event>
 7    1  0.6061051E-012  0.5930195E+02  0.7816164E-02  0.1266605E+00
        -11   -1    0    0    0    0  0.00000000000E+00  0.00000000000E+00  0.45593999997E+02  0.45594000000E+02  0.51100000000E-03 0.  1.
         11   -1    0    0    0    0 -0.00000000000E+00 -0.00000000000E+00 -0.45593999997E+02  0.45594000000E+02  0.51100000000E-03 0. -1.
    9900012    2    1    2    0    0  0.26220443926E+02  0.10824631119E+02  0.14561461518E+02  0.59301945367E+02  0.50000002442E+02 0.  0.
         12    1    1    2    0    0 -0.26220443926E+02 -0.10824631119E+02 -0.14561461518E+02  0.31886054633E+02  0.00000000000E+00 0. -1.
         11    1    3    3    0    0 -0.64249869969E+01 -0.36749904967E+01  0.32153658562E+01  0.80699808495E+01  0.51100000000E-03 0. -1.
        -11    1    3    3    0    0  0.34106234973E+01 -0.80142684654E+01 -0.58810882953E+01  0.10509426791E+02  0.51100000000E-03 0.  1.
        -12    1    3    3    0    0  0.29234807425E+02  0.22513890081E+02  0.17227183958E+02  0.40722537726E+02  0.00000000000E+00 0.  1.
</event>
<event>
 7    1  0.6061051E-012  0.5930195E+02  0.7816164E-02  0.1266605E+00
        -11   -1    0    0    0    0  0.00000000000E+00  0.00000000000E+00  0.45593999997E+02  0.45594000000E+02  0.51100000000E-03 0.  1.
         11   -1    0    0    0    0 -0.00000000000E+00 -0.00000000000E+00 -0.45593999997E+02  0.45594000000E+02  0.51100000000E-03 0. -1.
    9900012    2    1    2    0    0 -0.37600523357E+01  0.25157564900E+01  0.31563481966E+02  0.59301946338E+02  0.50000004214E+02 0.  0.
         12    1    1    2    0    0  0.37600523357E+01 -0.25157564900E+01 -0.31563481966E+02  0.31886053662E+02  0.00000000000E+00 0. -1.
         11    1    3    3    0    0 -0.79219994399E+01 -0.41840116361E+01  0.28618379326E+01  0.94050063855E+01  0.51100000000E-03 0. -1.
        -11    1    3    3    0    0 -0.94201468624E+01  0.15448356220E+02  0.28477468302E+02  0.33739547684E+02  0.51100000000E-03 0.  1.
         12    1    3    3    0    0  0.13582093967E+02 -0.87485880940E+01  0.22417573186E+00  0.16157392268E+02  0.00000000000E+00 0. -1.
</event>
<event>
 7    1  0.6061051E-012  0.5930193E+02  0.7816164E-02  0.1266605E+00
        -11   -1    0    0    0    0  0.00000000000E+00  0.00000000000E+00  0.45593999997E+02  0.45594000000E+02  0.51100000000E-03 0.  1.
         11   -1    0    0    0    0 -0.00000000000E+00 -0.00000000000E+00 -0.45593999997E+02  0.45594000000E+02  0.51100000000E-03 0. -1.
    9900012    2    1    2    0    0 -0.19722844558E+02  0.55169881957E+01  0.24439597230E+02  0.59301926724E+02  0.49999968442E+02 0.  0.
         12    1    1    2    0    0  0.19722844558E+02 -0.55169881957E+01 -0.24439597230E+02  0.31886073276E+02  0.00000000000E+00 0. -1.
         11    1    3    3    0    0 -0.13526357472E+02  0.97375079686E+01  0.15233104778E+02  0.22579390810E+02  0.51100000000E-03 0. -1.
        -11    1    3    3    0    0 -0.10708036143E+02 -0.17966506205E+02  0.36868623842E+01  0.21237945704E+02  0.51100000000E-03 0.  1.
         12    1    3    3    0    0  0.45115490574E+01  0.13745986432E+02  0.55196300682E+01  0.15484590210E+02  0.00000000000E+00 0. -1.
</event>
<event>
 7    1  0.6061051E-012  0.5930191E+02  0.7816164E-02  0.1266605E+00
        -11   -1    0    0    0    0  0.00000000000E+00  0.00000000000E+00  0.45593999997E+02  0.45594000000E+02  0.51100000000E-03 0.  1.
         11   -1    0    0    0    0 -0.00000000000E+00 -0.00000000000E+00 -0.45593999997E+02  0.45594000000E+02  0.51100000000E-03 0. -1.
    9900012    2    1    2    0    0 -0.10016032014E+02 -0.29194849579E+01  0.30131019812E+02  0.59301911425E+02  0.49999940541E+02 0.  0.
         12    1    1    2    0    0  0.10016032014E+02  0.29194849579E+01 -0.30131019812E+02  0.31886088575E+02  0.00000000000E+00 0. -1.
         11    1    3    3    0    0  0.61192281894E+01  0.34475416419E+01  0.61581122088E+01  0.93409230403E+01  0.51100000000E-03 0. -1.
        -11    1    3    3    0    0 -0.23922327904E+02  0.84203903406E+01  0.21126816247E+02  0.33007924970E+02  0.51100000000E-03 0.  1.
         12    1    3    3    0    0  0.77870677006E+01 -0.14787416940E+02  0.28460913560E+01  0.16953063415E+02  0.00000000000E+00 0. -1.
</event>
<event>
 7    1  0.6061051E-012  0.5930192E+02  0.7816164E-02  0.1266605E+00
        -11   -1    0    0    0    0  0.00000000000E+00  0.00000000000E+00  0.45593999997E+02  0.45594000000E+02  0.51100000000E-03 0.  1.
         11   -1    0    0    0    0 -0.00000000000E+00 -0.00000000000E+00 -0.45593999997E+02  0.45594000000E+02  0.51100000000E-03 0. -1.
    9900012    2    1    2    0    0 -0.17457091340E+02 -0.42022368223E+01  0.26349825290E+02  0.59301919570E+02  0.49999955395E+02 0.  0.
         12    1    1    2    0    0  0.17457091340E+02  0.42022368223E+01 -0.26349825290E+02  0.31886080430E+02  0.00000000000E+00 0. -1.
         11    1    3    3    0    0  0.19429929110E+01 -0.10615266934E+02 -0.52202315416E+00  0.10804240925E+02  0.51100000000E-03 0. -1.
        -11    1    3    3    0    0 -0.10028345001E+02 -0.10436645797E+02 -0.11101342268E+01  0.14516324507E+02  0.51100000000E-03 0.  1.
         12    1    3    3    0    0 -0.93717392502E+01  0.16849675908E+02  0.27981982671E+02  0.33981354137E+02  0.00000000000E+00 0. -1.
</event>
<event>
 7    1  0.6061051E-012  0.5930201E+02  0.7816164E-02  0.1266605E+00
        -11   -1    0    0    0    0  0.00000000000E+00  0.00000000000E+00  0.45593999997E+02  0.45594000000E+02  0.51100000000E-03 0. -1.
         11   -1    0    0    0    0 -0.00000000000E+00 -0.00000000000E+00 -0.45593999997E+02  0.45594000000E+02  0.51100000000E-03 0.  1.
    9900012    2    1    2    0    0  0.17847108310E+02 -0.17127847407E+02 -0.20120486261E+02  0.59302009359E+02  0.50000119148E+02 0.  0.
         12    1    1    2    0    0 -0.17847108310E+02  0.17127847407E+02  0.20120486261E+02  0.31885990641E+02  0.00000000000E+00 0. -1.
         11    1    3    3    0    0 -0.22006923132E+01 -0.11149953767E+02  0.25778019518E+00  0.11367979881E+02  0.51100000000E-03 0. -1.
        -11    1    3    3    0    0  0.63976547447E+01 -0.21593621947E+02 -0.12418677753E+02  0.25718437985E+02  0.51100000000E-03 0.  1.
         12    1    3    3    0    0  0.13650145878E+02  0.15615728307E+02 -0.79595887026E+01  0.22215591493E+02  0.00000000000E+00 0. -1.
</event>
<event>
 7    1  0.6061051E-012  0.5930196E+02  0.7816164E-02  0.1266605E+00
        -11   -1    0    0    0    0  0.00000000000E+00  0.00000000000E+00  0.45593999997E+02  0.45594000000E+02  0.51100000000E-03 0.  1.
         11   -1    0    0    0    0 -0.00000000000E+00 -0.00000000000E+00 -0.45593999997E+02  0.45594000000E+02  0.51100000000E-03 0. -1.
    9900012    2    1    2    0    0 -0.15508172946E+02 -0.80299250016E+01  0.26678391899E+02  0.59301957317E+02  0.50000024237E+02 0.  0.
         12    1    1    2    0    0  0.15508172946E+02  0.80299250016E+01 -0.26678391899E+02  0.31886042683E+02  0.00000000000E+00 0. -1.
         11    1    3    3    0    0 -0.80661479736E+01 -0.16664299611E+02 -0.39426995106E+01  0.18928985825E+02  0.51100000000E-03 0. -1.
        -11    1    3    3    0    0 -0.13793221236E+02  0.18437708815E+01  0.83252798676E+01  0.16216125563E+02  0.51100000000E-03 0.  1.
         12    1    3    3    0    0  0.63511962639E+01  0.67906037280E+01  0.22295811542E+02  0.24156845930E+02  0.00000000000E+00 0. -1.
</event>
<event>
 7    1  0.6061051E-012  0.5930195E+02  0.7816164E-02  0.1266605E+00
        -11   -1    0    0    0    0  0.00000000000E+00  0.00000000000E+00  0.45593999997E+02  0.45594000000E+02  0.51100000000E-03 0.  1.
         11   -1    0    0    0    0 -0.00000000000E+00 -0.00000000000E+00 -0.45593999997E+02  0.45594000000E+02  0.51100000000E-03 0. -1.
    9900012    2    1    2    0    0  0.28662073371E+02  0.95043240867E+01  0.10240771914E+02  0.59301952335E+02  0.50000015150E+02 0.  0.
         12    1    1    2    0    0 -0.28662073371E+02 -0.95043240867E+01 -0.10240771914E+02  0.31886047665E+02  0.00000000000E+00 0. -1.
         11    1    3    3    0    0  0.63099095719E+01  0.38975968109E+00 -0.79031889270E+01  0.10120635696E+02  0.51100000000E-03 0. -1.
        -11    1    3    3    0    0  0.14476997793E+02 -0.14447086434E+02  0.11506434810E+02  0.23466994137E+02  0.51100000000E-03 0.  1.
        -12    1    3    3    0    0  0.78751660064E+01  0.23561650840E+02  0.66375260313E+01  0.25714322502E+02  0.00000000000E+00 0.  1.
</event>
<event>
 7    1  0.6061051E-012  0.5930195E+02  0.7816164E-02  0.1266605E+00
        -11   -1    0    0    0    0  0.00000000000E+00  0.00000000000E+00  0.45593999997E+02  0.45594000000E+02  0.51100000000E-03 0.  1.
         11   -1    0    0    0    0 -0.00000000000E+00 -0.00000000000E+00 -0.45593999997E+02  0.45594000000E+02  0.51100000000E-03 0. -1.
    9900012    2    1    2    0    0  0.27369066077E+01 -0.24699031099E+02  0.19979674769E+02  0.59301949776E+02  0.50000010484E+02 0.  0.
         12    1    1    2    0    0 -0.27369066077E+01  0.24699031099E+02 -0.19979674769E+02  0.31886050224E+02  0.00000000000E+00 0. -1.
         11    1    3    3    0    0  0.18147695519E+02 -0.49467855473E+01  0.45757186121E+00  0.18815390300E+02  0.51100000000E-03 0. -1.
        -11    1    3    3    0    0 -0.14524534458E+02 -0.57484742051E+01 -0.96993071924E+00  0.15650809013E+02  0.51100000000E-03 0.  1.
         12    1    3    3    0    0 -0.88625445332E+00 -0.14003771346E+02  0.20492033627E+02  0.24835750463E+02  0.00000000000E+00 0. -1.
</event>
<event>
 7    1  0.6061051E-012  0.5930193E+02  0.7816164E-02  0.1266605E+00
        -11   -1    0    0    0    0  0.00000000000E+00  0.00000000000E+00  0.45593999997E+02  0.45594000000E+02  0.51100000000E-03 0.  1.
         11   -1    0    0    0    0 -0.00000000000E+00 -0.00000000000E+00 -0.45593999997E+02  0.45594000000E+02  0.51100000000E-03 0. -1.
    9900012    2    1    2    0    0 -0.16051744980E+02 -0.24466582072E+02  0.12666862695E+02  0.59301928343E+02  0.49999971395E+02 0.  0.
         12    1    1    2    0    0  0.16051744980E+02  0.24466582072E+02 -0.12666862695E+02  0.31886071657E+02  0.00000000000E+00 0. -1.
         11    1    3    3    0    0 -0.11134949027E+02 -0.69172487084E+01  0.77961200317E+01  0.15251718177E+02  0.51100000000E-03 0.  1.
        -11    1    3    3    0    0  0.32324444159E+01 -0.26702694251E+02 -0.61237466496E+01  0.27585917611E+02  0.51100000000E-03 0. -1.
         12    1    3    3    0    0 -0.81492403683E+01  0.91533608867E+01  0.10994489313E+02  0.16464292555E+02  0.00000000000E+00 0. -1.
</event>
<event>
 7    1  0.6061051E-012  0.5930197E+02  0.7816164E-02  0.1266605E+00
        -11   -1    0    0    0    0  0.00000000000E+00  0.00000000000E+00  0.45593999997E+02  0.45594000000E+02  0.51100000000E-03 0. -1.
         11   -1    0    0    0    0 -0.00000000000E+00 -0.00000000000E+00 -0.45593999997E+02  0.45594000000E+02  0.51100000000E-03 0.  1.
    9900012    2    1    2    0    0  0.21541601850E+02 -0.20415608393E+02 -0.11656818419E+02  0.59301967134E+02  0.50000042140E+02 0.  0.
         12    1    1    2    0    0 -0.21541601850E+02  0.20415608393E+02  0.11656818419E+02  0.31886032866E+02  0.00000000000E+00 0. -1.
         11    1    3    3    0    0 -0.57568412096E+01 -0.85144184969E+00  0.48954449910E+01  0.76047061650E+01  0.51100000000E-03 0. -1.
        -11    1    3    3    0    0  0.22401230723E+02 -0.14558698410E+02  0.65912316154E+01  0.27517542982E+02  0.51100000000E-03 0.  1.
         12    1    3    3    0    0  0.48972123360E+01 -0.50054681329E+01 -0.23143495026E+02  0.24179717986E+02  0.00000000000E+00 0. -1.
</event>
<event>
 7    1  0.6061051E-012  0.5930197E+02  0.7816164E-02  0.1266605E+00
        -11   -1    0    0    0    0  0.00000000000E+00  0.00000000000E+00  0.45593999997E+02  0.45594000000E+02  0.51100000000E-03 0. -1.
         11   -1    0    0    0    0 -0.00000000000E+00 -0.00000000000E+00 -0.45593999997E+02  0.45594000000E+02  0.51100000000E-03 0.  1.
    9900012    2    1    2    0    0 -0.14224544176E+02  0.26411395428E+02 -0.10808313617E+02  0.59301966872E+02  0.50000041662E+02 0.  0.
         12    1    1    2    0    0  0.14224544176E+02 -0.26411395428E+02  0.10808313617E+02  0.31886033128E+02  0.00000000000E+00 0. -1.
         11    1    3    3    0    0  0.33385768834E+01  0.15026065407E+01  0.54603001412E+01  0.65741006925E+01  0.51100000000E-03 0. -1.
        -11    1    3    3    0    0  0.56693836675E+01  0.23504198424E+02  0.26242880794E+00  0.24179704793E+02  0.51100000000E-03 0.  1.
        -12    1    3    3    0    0 -0.23232504726E+02  0.14045904630E+01 -0.16531042566E+02  0.28548161386E+02  0.00000000000E+00 0.  1.
</event>
<event>
 7    1  0.6061051E-012  0.5930195E+02  0.7816164E-02  0.1266605E+00
        -11   -1    0    0    0    0  0.00000000000E+00  0.00000000000E+00  0.45593999997E+02  0.45594000000E+02  0.51100000000E-03 0.  1.
         11   -1    0    0    0    0 -0.00000000000E+00 -0.00000000000E+00 -0.45593999997E+02  0.45594000000E+02  0.51100000000E-03 0. -1.
    9900012    2    1    2    0    0 -0.29512858137E+02  0.79870754955E+01  0.90508627990E+01  0.59301948382E+02  0.50000007940E+02 0.  0.
         12    1    1    2    0    0  0.29512858137E+02 -0.79870754955E+01 -0.90508627990E+01  0.31886051618E+02  0.00000000000E+00 0. -1.
         11    1    3    3    0    0 -0.46835781482E+01  0.12000364344E+02 -0.66731873330E+01  0.14507793702E+02  0.51100000000E-03 0. -1.
        -11    1    3    3    0    0  0.23675232875E+01  0.10562547497E+02  0.19323534691E+01  0.10995752195E+02  0.51100000000E-03 0.  1.
         12    1    3    3    0    0 -0.27196803277E+02 -0.14575836346E+02  0.13791696663E+02  0.33798402484E+02  0.00000000000E+00 0. -1.
</event>
<event>
 7    1  0.6061051E-012  0.5930195E+02  0.7816164E-02  0.1266605E+00
        -11   -1    0    0    0    0  0.00000000000E+00  0.00000000000E+00  0.45593999997E+02  0.45594000000E+02  0.51100000000E-03 0.  1.
         11   -1    0    0    0    0 -0.00000000000E+00 -0.00000000000E+00 -0.45593999997E+02  0.45594000000E+02  0.51100000000E-03 0. -1.
    9900012    2    1    2    0    0 -0.14452715765E+02  0.19035685294E+02  0.21106447030E+02  0.59301946405E+02  0.50000004336E+02 0.  0.
         12    1    1    2    0    0  0.14452715765E+02 -0.19035685294E+02 -0.21106447030E+02  0.31886053595E+02  0.00000000000E+00 0. -1.
         11    1    3    3    0    0  0.21022380745E+01  0.87160871250E+01  0.17800164857E+02  0.19930766390E+02  0.51100000000E-03 0. -1.
        -11    1    3    3    0    0 -0.12836307080E+02  0.14978168562E+02  0.15966405721E+02  0.25377990954E+02  0.51100000000E-03 0.  1.
         12    1    3    3    0    0 -0.37186467592E+01 -0.46585703935E+01 -0.12660123549E+02  0.13993189061E+02  0.00000000000E+00 0. -1.
</event>
<event>
 7    1  0.6061051E-012  0.5930196E+02  0.7816164E-02  0.1266605E+00
        -11   -1    0    0    0    0  0.00000000000E+00  0.00000000000E+00  0.45593999997E+02  0.45594000000E+02  0.51100000000E-03 0.  1.
         11   -1    0    0    0    0 -0.00000000000E+00 -0.00000000000E+00 -0.45593999997E+02  0.45594000000E+02  0.51100000000E-03 0. -1.
    9900012    2    1    2    0    0 -0.17128930844E+02 -0.18694979981E+02 -0.19334349709E+02  0.59301958743E+02  0.50000026837E+02 0.  0.
         12    1    1    2    0    0  0.17128930844E+02  0.18694979981E+02  0.19334349709E+02  0.31886041257E+02  0.00000000000E+00 0. -1.
         11    1    3    3    0    0 -0.87518956381E+01 -0.93539628733E+01 -0.16079916125E+00  0.12810860835E+02  0.51100000000E-03 0. -1.
        -11    1    3    3    0    0 -0.10780765621E+01 -0.23016010751E+02 -0.20622873482E+02  0.30922514627E+02  0.51100000000E-03 0.  1.
        -12    1    3    3    0    0 -0.72989586434E+01  0.13674993643E+02  0.14493229337E+01  0.15568583281E+02  0.00000000000E+00 0.  1.
</event>
<event>
 7    1  0.6061051E-012  0.5930196E+02  0.7816164E-02  0.1266605E+00
        -11   -1    0    0    0    0  0.00000000000E+00  0.00000000000E+00  0.45593999997E+02  0.45594000000E+02  0.51100000000E-03 0.  1.
         11   -1    0    0    0    0 -0.00000000000E+00 -0.00000000000E+00 -0.45593999997E+02  0.45594000000E+02  0.51100000000E-03 0. -1.
    9900012    2    1    2    0    0 -0.64382612693E+01  0.28050036966E+02 -0.13728207014E+02  0.59301961522E+02  0.50000031906E+02 0.  0.
         12    1    1    2    0    0  0.64382612693E+01 -0.28050036966E+02  0.13728207014E+02  0.31886038478E+02  0.00000000000E+00 0. -1.
         11    1    3    3    0    0  0.56546035972E+01 -0.33888259165E+01 -0.50833857424E+01  0.83246317517E+01  0.51100000000E-03 0. -1.
        -11    1    3    3    0    0 -0.10827124891E+02  0.10978018260E+02 -0.21739261543E+02  0.26652185858E+02  0.51100000000E-03 0.  1.
        -12    1    3    3    0    0 -0.12657399760E+01  0.20460844623E+02  0.13094440271E+02  0.24325143913E+02  0.00000000000E+00 0.  1.
</event>
<event>
 7    1  0.6061051E-012  0.5930196E+02  0.7816164E-02  0.1266605E+00
        -11   -1    0    0    0    0  0.00000000000E+00  0.00000000000E+00  0.45593999997E+02  0.45594000000E+02  0.51100000000E-03 0. -1.
         11   -1    0    0    0    0 -0.00000000000E+00 -0.00000000000E+00 -0.45593999997E+02  0.45594000000E+02  0.51100000000E-03 0.  1.
    9900012    2    1    2    0    0  0.89713937804E+01  0.14135680321E+02 -0.27136987045E+02  0.59301961827E+02  0.50000032461E+02 0.  0.
         12    1    1    2    0    0 -0.89713937804E+01 -0.14135680321E+02  0.27136987045E+02  0.31886038173E+02  0.00000000000E+00 0. -1.
         11    1    3    3    0    0 -0.41292999628E+01  0.71540575480E+01 -0.30574914497E+02  0.31671075989E+02  0.51100000000E-03 0. -1.
        -11    1    3    3    0    0  0.64340263058E+01  0.41226007829E+01 -0.98652201988E+01  0.12478585719E+02  0.51100000000E-03 0.  1.
         12    1    3    3    0    0  0.66666674374E+01  0.28590219899E+01  0.13303147650E+02  0.15152300118E+02  0.00000000000E+00 0. -1.
</event>
<event>
 7    1  0.6061051E-012  0.5930194E+02  0.7816164E-02  0.1266605E+00
        -11   -1    0    0    0    0  0.00000000000E+00  0.00000000000E+00  0.45593999997E+02  0.45594000000E+02  0.51100000000E-03 0.  1.
         11   -1    0    0    0    0 -0.00000000000E+00 -0.00000000000E+00 -0.45593999997E+02  0.45594000000E+02  0.51100000000E-03 0. -1.
    9900012    2    1    2    0    0 -0.64181488643E+01 -0.17472613499E+02  0.25888914476E+02  0.59301941133E+02  0.49999994720E+02 0.  0.
         12    1    1    2    0    0  0.64181488643E+01  0.17472613499E+02 -0.25888914476E+02  0.31886058867E+02  0.00000000000E+00 0. -1.
         11    1    3    3    0    0 -0.12443060041E+02 -0.34234927929E+01  0.82821802170E+00  0.12931975543E+02  0.51100000000E-03 0. -1.
        -11    1    3    3    0    0 -0.66408366533E+01 -0.22549663806E+02  0.17742814763E+02  0.29451579333E+02  0.51100000000E-03 0.  1.
         12    1    3    3    0    0  0.12665747830E+02  0.85005430999E+01  0.73178816917E+01  0.16918386257E+02  0.00000000000E+00 0. -1.
</event>
<event>
 7    1  0.6061051E-012  0.5930201E+02  0.7816164E-02  0.1266605E+00
        -11   -1    0    0    0    0  0.00000000000E+00  0.00000000000E+00  0.45593999997E+02  0.45594000000E+02  0.51100000000E-03 0. -1.
         11   -1    0    0    0    0 -0.00000000000E+00 -0.00000000000E+00 -0.45593999997E+02  0.45594000000E+02  0.51100000000E-03 0.  1.
    9900012    2    1    2    0    0 -0.23897222649E+02  0.20777456153E+02 -0.37331727062E+01  0.59302007574E+02  0.50000115893E+02 0.  0.
         12    1    1    2    0    0  0.23897222649E+02 -0.20777456153E+02  0.37331727062E+01  0.31885992426E+02  0.00000000000E+00 0. -1.
         11    1    3    3    0    0 -0.13062995865E+02  0.10493146432E+02 -0.77511158302E+01  0.18461521602E+02  0.51100000000E-03 0. -1.
        -11    1    3    3    0    0 -0.34185213501E+01  0.18469591315E+02 -0.11326711126E+02  0.21934139526E+02  0.51100000000E-03 0.  1.
         12    1    3    3    0    0 -0.74157054344E+01 -0.81852815932E+01  0.15344654250E+02  0.18906346445E+02  0.00000000000E+00 0. -1.
</event>
<event>
 7    1  0.6061051E-012  0.5930194E+02  0.7816164E-02  0.1266605E+00
        -11   -1    0    0    0    0  0.00000000000E+00  0.00000000000E+00  0.45593999997E+02  0.45594000000E+02  0.51100000000E-03 0.  1.
         11   -1    0    0    0    0 -0.00000000000E+00 -0.00000000000E+00 -0.45593999997E+02  0.45594000000E+02  0.51100000000E-03 0. -1.
    9900012    2    1    2    0    0 -0.30587109625E+02 -0.82038068854E+01 -0.37211375166E+01  0.59301943689E+02  0.49999999383E+02 0.  0.
         12    1    1    2    0    0  0.30587109625E+02  0.82038068854E+01  0.37211375166E+01  0.31886056311E+02  0.00000000000E+00 0. -1.
         11    1    3    3    0    0 -0.34539287618E+02 -0.21226843157E+02 -0.89120410753E+00  0.40550406960E+02  0.51100000000E-03 0. -1.
        -11    1    3    3    0    0 -0.10048818032E+01 -0.10824466092E+01  0.24791269760E+01  0.28857492830E+01  0.51100000000E-03 0.  1.
         12    1    3    3    0    0  0.49570597963E+01  0.14105482881E+02 -0.53090603851E+01  0.15865787447E+02  0.00000000000E+00 0. -1.
</event>
<event>
 7    1  0.6061051E-012  0.5930195E+02  0.7816164E-02  0.1266605E+00
        -11   -1    0    0    0    0  0.00000000000E+00  0.00000000000E+00  0.45593999997E+02  0.45594000000E+02  0.51100000000E-03 0. -1.
         11   -1    0    0    0    0 -0.00000000000E+00 -0.00000000000E+00 -0.45593999997E+02  0.45594000000E+02  0.51100000000E-03 0.  1.
    9900012    2    1    2    0    0  0.52046085168E+01 -0.88756477282E+00 -0.31445902398E+02  0.59301945076E+02  0.50000001911E+02 0.  0.
         12    1    1    2    0    0 -0.52046085168E+01  0.88756477282E+00  0.31445902398E+02  0.31886054924E+02  0.00000000000E+00 0. -1.
         11    1    3    3    0    0 -0.93162105663E+01  0.85973662393E+01 -0.23741000234E+02  0.26913594668E+02  0.51100000000E-03 0. -1.
        -11    1    3    3    0    0  0.39437079219E+01  0.23745240459E+01 -0.14419912157E+02  0.15136877601E+02  0.51100000000E-03 0.  1.
         12    1    3    3    0    0  0.10577111161E+02 -0.11859455058E+02  0.67150099939E+01  0.17251472807E+02  0.00000000000E+00 0. -1.
</event>
<event>
 7    1  0.6061051E-012  0.5930191E+02  0.7816164E-02  0.1266605E+00
        -11   -1    0    0    0    0  0.00000000000E+00  0.00000000000E+00  0.45593999997E+02  0.45594000000E+02  0.51100000000E-03 0.  1.
         11   -1    0    0    0    0 -0.00000000000E+00 -0.00000000000E+00 -0.45593999997E+02  0.45594000000E+02  0.51100000000E-03 0. -1.
    9900012    2    1    2    0    0 -0.18789419117E+01  0.23178879255E+02  0.21815868664E+02  0.59301905981E+02  0.49999930612E+02 0.  0.
         12    1    1    2    0    0  0.18789419117E+01 -0.23178879255E+02 -0.21815868664E+02  0.31886094019E+02  0.00000000000E+00 0. -1.
         11    1    3    3    0    0  0.50948275630E+01  0.16290995420E+02  0.64024466841E+01  0.18230335254E+02  0.51100000000E-03 0. -1.
        -11    1    3    3    0    0  0.46220927240E+01  0.66791870874E+01  0.24834804809E+02  0.26129347704E+02  0.51100000000E-03 0.  1.
         12    1    3    3    0    0 -0.11595862199E+02  0.20869674765E+00 -0.94213828290E+01  0.14942223023E+02  0.00000000000E+00 0. -1.
</event>
<event>
 7    1  0.6061051E-012  0.5930196E+02  0.7816164E-02  0.1266605E+00
        -11   -1    0    0    0    0  0.00000000000E+00  0.00000000000E+00  0.45593999997E+02  0.45594000000E+02  0.51100000000E-03 0.  1.
         11   -1    0    0    0    0 -0.00000000000E+00 -0.00000000000E+00 -0.45593999997E+02  0.45594000000E+02  0.51100000000E-03 0. -1.
    9900012    2    1    2    0    0  0.69613283113E+01 -0.30899472952E+02 -0.36717843209E+01  0.59301960411E+02  0.50000029879E+02 0.  0.
         12    1    1    2    0    0 -0.69613283113E+01  0.30899472952E+02  0.36717843209E+01  0.31886039589E+02  0.00000000000E+00 0. -1.
         11    1    3    3    0    0  0.15800860169E+02 -0.18006093001E+02 -0.55779922631E+01  0.24596759242E+02  0.51100000000E-03 0. -1.
        -11    1    3    3    0    0 -0.15196180355E+02 -0.18797896832E+02  0.63010067746E+01  0.24979741978E+02  0.51100000000E-03 0.  1.
         12    1    3    3    0    0  0.63566484968E+01  0.59045168804E+01 -0.43947988324E+01  0.97254591912E+01  0.00000000000E+00 0. -1.
</event>
<event>
 7    1  0.6061051E-012  0.5930193E+02  0.7816164E-02  0.1266605E+00
        -11   -1    0    0    0    0  0.00000000000E+00  0.00000000000E+00  0.45593999997E+02  0.45594000000E+02  0.51100000000E-03 0. -1.
         11   -1    0    0    0    0 -0.00000000000E+00 -0.00000000000E+00 -0.45593999997E+02  0.45594000000E+02  0.51100000000E-03 0.  1.
    9900012    2    1    2    0    0 -0.69728900611E+01  0.11955082332E+01 -0.31091331821E+02  0.59301931723E+02  0.49999977560E+02 0.  0.
         12    1    1    2    0    0  0.69728900611E+01 -0.11955082332E+01  0.31091331821E+02  0.31886068277E+02  0.00000000000E+00 0. -1.
         11    1    3    3    0    0  0.28543442086E+01 -0.53545232280E+01 -0.98890696126E+01  0.11602236764E+02  0.51100000000E-03 0. -1.
        -11    1    3    3    0    0 -0.15425207005E+02 -0.71311115677E+01 -0.26932557569E+02  0.31845759856E+02  0.51100000000E-03 0.  1.
         12    1    3    3    0    0  0.55979727356E+01  0.13681143029E+02  0.57302953609E+01  0.15853935103E+02  0.00000000000E+00 0. -1.
</event>
<event>
 7    1  0.6061051E-012  0.5930194E+02  0.7816164E-02  0.1266605E+00
        -11   -1    0    0    0    0  0.00000000000E+00  0.00000000000E+00  0.45593999997E+02  0.45594000000E+02  0.51100000000E-03 0.  1.
         11   -1    0    0    0    0 -0.00000000000E+00 -0.00000000000E+00 -0.45593999997E+02  0.45594000000E+02  0.51100000000E-03 0. -1.
    9900012    2    1    2    0    0 -0.24351740624E+02  0.19518141319E+02 -0.65387756400E+01  0.59301941937E+02  0.49999996187E+02 0.  0.
         12    1    1    2    0    0  0.24351740624E+02 -0.19518141319E+02  0.65387756400E+01  0.31886058063E+02  0.00000000000E+00 0. -1.
         11    1    3    3    0    0 -0.10746180832E+02 -0.11469223114E+02  0.34595300073E+01  0.16093223090E+02  0.51100000000E-03 0. -1.
        -11    1    3    3    0    0 -0.31255151295E+01 -0.41848408234E+01 -0.21891277408E+00  0.52277777885E+01  0.51100000000E-03 0.  1.
        -12    1    3    3    0    0 -0.10480044662E+02  0.35172205256E+02 -0.97793928732E+01  0.37980941058E+02  0.00000000000E+00 0.  1.
</event>
<event>
 7    1  0.6061051E-012  0.5930181E+02  0.7816164E-02  0.1266605E+00
        -11   -1    0    0    0    0  0.00000000000E+00  0.00000000000E+00  0.45593999997E+02  0.45594000000E+02  0.51100000000E-03 0.  1.
         11   -1    0    0    0    0 -0.00000000000E+00 -0.00000000000E+00 -0.45593999997E+02  0.45594000000E+02  0.51100000000E-03 0. -1.
    9900012    2    1    2    0    0  0.69379995705E+01 -0.30638730254E+02 -0.54645745810E+01  0.59301808553E+02  0.49999752926E+02 0.  0.
         12    1    1    2    0    0 -0.69379995705E+01  0.30638730254E+02  0.54645745810E+01  0.31886191447E+02  0.00000000000E+00 0. -1.
         11    1    3    3    0    0  0.17772880779E+02 -0.57303655361E+01  0.10344225144E+02  0.21347491057E+02  0.51100000000E-03 0. -1.
        -11    1    3    3    0    0 -0.11295636133E+01  0.34740656476E+01  0.69396533364E+00  0.37184182424E+01  0.51100000000E-03 0.  1.
        -12    1    3    3    0    0 -0.97053175953E+01 -0.28382430366E+02 -0.16502765058E+02  0.34235899253E+02  0.00000000000E+00 0.  1.
</event>
<event>
 7    1  0.6061051E-012  0.5930193E+02  0.7816164E-02  0.1266605E+00
        -11   -1    0    0    0    0  0.00000000000E+00  0.00000000000E+00  0.45593999997E+02  0.45594000000E+02  0.51100000000E-03 0. -1.
         11   -1    0    0    0    0 -0.00000000000E+00 -0.00000000000E+00 -0.45593999997E+02  0.45594000000E+02  0.51100000000E-03 0.  1.
    9900012    2    1    2    0    0 -0.30298560241E+02  0.15086601723E+01 -0.98205356226E+01  0.59301925797E+02  0.49999966751E+02 0.  0.
         12    1    1    2    0    0  0.30298560241E+02 -0.15086601723E+01  0.98205356226E+01  0.31886074203E+02  0.00000000000E+00 0. -1.
         11    1    3    3    0    0  0.82732867902E+01  0.22783466135E+01  0.19870031690E+01  0.88083096823E+01  0.51100000000E-03 0. -1.
        -11    1    3    3    0    0 -0.15737693915E+02 -0.14095061372E+02  0.92978341698E+00  0.21147346460E+02  0.51100000000E-03 0.  1.
        -12    1    3    3    0    0 -0.22834153116E+02  0.13325374931E+02 -0.12737322209E+02  0.29346269654E+02  0.00000000000E+00 0.  1.
</event>
<event>
 7    1  0.6061051E-012  0.5930195E+02  0.7816164E-02  0.1266605E+00
        -11   -1    0    0    0    0  0.00000000000E+00  0.00000000000E+00  0.45593999997E+02  0.45594000000E+02  0.51100000000E-03 0.  1.
         11   -1    0    0    0    0 -0.00000000000E+00 -0.00000000000E+00 -0.45593999997E+02  0.45594000000E+02  0.51100000000E-03 0. -1.
    9900012    2    1    2    0    0 -0.17511993834E+02  0.10610836998E+02  0.24442997696E+02  0.59301954052E+02  0.50000018282E+02 0.  0.
         12    1    1    2    0    0  0.17511993834E+02 -0.10610836998E+02 -0.24442997696E+02  0.31886045948E+02  0.00000000000E+00 0. -1.
         11    1    3    3    0    0 -0.74450693643E+01  0.86356058724E+01 -0.24287343108E+01  0.11657679754E+02  0.51100000000E-03 0. -1.
        -11    1    3    3    0    0 -0.20270400174E+02  0.11843700650E+02  0.97952768065E+01  0.25438353254E+02  0.51100000000E-03 0.  1.
        -12    1    3    3    0    0  0.10203475704E+02 -0.98684695249E+01  0.17076455200E+02  0.22205921044E+02  0.00000000000E+00 0.  1.
</event>
<event>
 7    1  0.6061051E-012  0.5930180E+02  0.7816164E-02  0.1266605E+00
        -11   -1    0    0    0    0  0.00000000000E+00  0.00000000000E+00  0.45593999997E+02  0.45594000000E+02  0.51100000000E-03 0.  1.
         11   -1    0    0    0    0 -0.00000000000E+00 -0.00000000000E+00 -0.45593999997E+02  0.45594000000E+02  0.51100000000E-03 0. -1.
    9900012    2    1    2    0    0  0.48969556697E+01 -0.31501380283E+02  0.64249176928E+00  0.59301797180E+02  0.49999732185E+02 0.  0.
         12    1    1    2    0    0 -0.48969556697E+01  0.31501380283E+02 -0.64249176928E+00  0.31886202820E+02  0.00000000000E+00 0. -1.
         11    1    3    3    0    0  0.66177207968E+01 -0.57300305807E+01  0.11509696964E+02  0.14460311320E+02  0.51100000000E-03 0. -1.
        -11    1    3    3    0    0  0.12541751233E+02 -0.24134583299E+02 -0.62445985157E+00  0.27205947611E+02  0.51100000000E-03 0.  1.
        -12    1    3    3    0    0 -0.14262516361E+02 -0.16367664033E+01 -0.10242745343E+02  0.17635538250E+02  0.00000000000E+00 0.  1.
</event>
<event>
 7    1  0.6061051E-012  0.5930195E+02  0.7816164E-02  0.1266605E+00
        -11   -1    0    0    0    0  0.00000000000E+00  0.00000000000E+00  0.45593999997E+02  0.45594000000E+02  0.51100000000E-03 0. -1.
         11   -1    0    0    0    0 -0.00000000000E+00 -0.00000000000E+00 -0.45593999997E+02  0.45594000000E+02  0.51100000000E-03 0.  1.
    9900012    2    1    2    0    0  0.19095131075E+01 -0.82477347210E+01 -0.30741641281E+02  0.59301954824E+02  0.50000019689E+02 0.  0.
         12    1    1    2    0    0 -0.19095131075E+01  0.82477347210E+01  0.30741641281E+02  0.31886045176E+02  0.00000000000E+00 0. -1.
         11    1    3    3    0    0  0.46013119295E+01 -0.71431461740E+01  0.11543126496E+02  0.14333191490E+02  0.51100000000E-03 0. -1.
        -11    1    3    3    0    0 -0.18234620421E+01  0.45721543741E+01 -0.42510225279E+01  0.65039066901E+01  0.51100000000E-03 0.  1.
        -12    1    3    3    0    0 -0.86833678003E+00 -0.56767429212E+01 -0.38033745249E+02  0.38464856643E+02  0.00000000000E+00 0.  1.
</event>
<event>
 7    1  0.6061051E-012  0.5930199E+02  0.7816164E-02  0.1266605E+00
        -11   -1    0    0    0    0  0.00000000000E+00  0.00000000000E+00  0.45593999997E+02  0.45594000000E+02  0.51100000000E-03 0.  1.
         11   -1    0    0    0    0 -0.00000000000E+00 -0.00000000000E+00 -0.45593999997E+02  0.45594000000E+02  0.51100000000E-03 0. -1.
    9900012    2    1    2    0    0 -0.16950716671E+02  0.25309948539E+02  0.94232389100E+01  0.59301988612E+02  0.50000081310E+02 0.  0.
         12    1    1    2    0    0  0.16950716671E+02 -0.25309948539E+02 -0.94232389100E+01  0.31886011388E+02  0.00000000000E+00 0. -1.
         11    1    3    3    0    0 -0.11946663763E+02 -0.18184092949E+01  0.65242636541E+00  0.12101861338E+02  0.51100000000E-03 0. -1.
        -11    1    3    3    0    0 -0.18071133647E+02  0.10903623439E+02  0.14484966925E+02  0.25598225377E+02  0.51100000000E-03 0.  1.
        -12    1    3    3    0    0  0.13067080739E+02  0.16224734395E+02 -0.57141543808E+01  0.21601901896E+02  0.00000000000E+00 0.  1.
</event>
<event>
 7    1  0.6061051E-012  0.5930195E+02  0.7816164E-02  0.1266605E+00
        -11   -1    0    0    0    0  0.00000000000E+00  0.00000000000E+00  0.45593999997E+02  0.45594000000E+02  0.51100000000E-03 0. -1.
         11   -1    0    0    0    0 -0.00000000000E+00 -0.00000000000E+00 -0.45593999997E+02  0.45594000000E+02  0.51100000000E-03 0.  1.
    9900012    2    1    2    0    0 -0.29001284692E+02  0.89177620920E+01  0.98040545698E+01  0.59301945360E+02  0.50000002429E+02 0.  0.
         12    1    1    2    0    0  0.29001284692E+02 -0.89177620920E+01 -0.98040545698E+01  0.31886054640E+02  0.00000000000E+00 0. -1.
         11    1    3    3    0    0  0.26382402459E+01 -0.85851366258E+01 -0.48832539681E+01  0.10223064710E+02  0.51100000000E-03 0.  1.
        -11    1    3    3    0    0  0.47834156166E+01  0.77439202819E+01  0.22940359843E+01  0.93867975184E+01  0.51100000000E-03 0. -1.
        -12    1    3    3    0    0 -0.36422940554E+02  0.97589784360E+01  0.12393272554E+02  0.39692083132E+02  0.00000000000E+00 0.  1.
</event>
<event>
 7    1  0.6061051E-012  0.5930195E+02  0.7816164E-02  0.1266605E+00
        -11   -1    0    0    0    0  0.00000000000E+00  0.00000000000E+00  0.45593999997E+02  0.45594000000E+02  0.51100000000E-03 0. -1.
         11   -1    0    0    0    0 -0.00000000000E+00 -0.00000000000E+00 -0.45593999997E+02  0.45594000000E+02  0.51100000000E-03 0.  1.
    9900012    2    1    2    0    0  0.13613001503E+01  0.23516326649E+02 -0.21490689692E+02  0.59301945045E+02  0.50000001855E+02 0.  0.
         12    1    1    2    0    0 -0.13613001503E+01 -0.23516326649E+02  0.21490689692E+02  0.31886054955E+02  0.00000000000E+00 0. -1.
         11    1    3    3    0    0 -0.15057482201E+01 -0.79113492427E+01 -0.10525038565E+02  0.13252666207E+02  0.51100000000E-03 0. -1.
        -11    1    3    3    0    0  0.63574475905E-01 -0.60455908560E+01  0.18878609525E+01  0.63338163653E+01  0.51100000000E-03 0.  1.
        -12    1    3    3    0    0  0.28034738945E+01  0.37473266748E+02 -0.12853512080E+02  0.39715462473E+02  0.00000000000E+00 0.  1.
</event>
<event>
 7    1  0.6061051E-012  0.5930194E+02  0.7816164E-02  0.1266605E+00
        -11   -1    0    0    0    0  0.00000000000E+00  0.00000000000E+00  0.45593999997E+02  0.45594000000E+02  0.51100000000E-03 0.  1.
         11   -1    0    0    0    0 -0.00000000000E+00 -0.00000000000E+00 -0.45593999997E+02  0.45594000000E+02  0.51100000000E-03 0. -1.
    9900012    2    1    2    0    0  0.23764914853E+02  0.34568088388E+01  0.20976176158E+02  0.59301942365E+02  0.49999996967E+02 0.  0.
         12    1    1    2    0    0 -0.23764914853E+02 -0.34568088388E+01 -0.20976176158E+02  0.31886057635E+02  0.00000000000E+00 0. -1.
         11    1    3    3    0    0 -0.71739008420E+00  0.17586899216E+02  0.30561557173E+01  0.17864875051E+02  0.51100000000E-03 0. -1.
        -11    1    3    3    0    0 -0.46578157891E+01  0.44082872588E+00  0.33103342940E+01  0.57313079912E+01  0.51100000000E-03 0.  1.
        -12    1    3    3    0    0  0.29140120726E+02 -0.14570919103E+02  0.14609686147E+02  0.35705759322E+02  0.00000000000E+00 0.  1.
</event>
<event>
 7    1  0.6061051E-012  0.5930195E+02  0.7816164E-02  0.1266605E+00
        -11   -1    0    0    0    0  0.00000000000E+00  0.00000000000E+00  0.45593999997E+02  0.45594000000E+02  0.51100000000E-03 0. -1.
         11   -1    0    0    0    0 -0.00000000000E+00 -0.00000000000E+00 -0.45593999997E+02  0.45594000000E+02  0.51100000000E-03 0.  1.
    9900012    2    1    2    0    0  0.40883075724E+01 -0.10354127720E+02 -0.29879727043E+02  0.59301948067E+02  0.50000007367E+02 0.  0.
         12    1    1    2    0    0 -0.40883075724E+01  0.10354127720E+02  0.29879727043E+02  0.31886051933E+02  0.00000000000E+00 0. -1.
         11    1    3    3    0    0 -0.64627859396E+01  0.35687838841E+01 -0.23455551223E+02  0.24589971613E+02  0.51100000000E-03 0.  1.
        -11    1    3    3    0    0 -0.52394967193E+01 -0.12789372079E+02  0.55177856324E+01  0.14881744608E+02  0.51100000000E-03 0. -1.
         12    1    3    3    0    0  0.15790590231E+02 -0.11335395257E+01 -0.11941961453E+02  0.19830231846E+02  0.00000000000E+00 0. -1.
</event>
<event>
 7    1  0.6061051E-012  0.5930195E+02  0.7816164E-02  0.1266605E+00
        -11   -1    0    0    0    0  0.00000000000E+00  0.00000000000E+00  0.45593999997E+02  0.45594000000E+02  0.51100000000E-03 0.  1.
         11   -1    0    0    0    0 -0.00000000000E+00 -0.00000000000E+00 -0.45593999997E+02  0.45594000000E+02  0.51100000000E-03 0. -1.
    9900012    2    1    2    0    0 -0.12860256135E+02  0.27201469174E+02  0.10555299361E+02  0.59301945718E+02  0.50000003082E+02 0.  0.
         12    1    1    2    0    0  0.12860256135E+02 -0.27201469174E+02 -0.10555299361E+02  0.31886054282E+02  0.00000000000E+00 0. -1.
         11    1    3    3    0    0 -0.12583828415E+02  0.43006086739E+01 -0.66901028989E+01  0.14886418294E+02  0.51100000000E-03 0. -1.
        -11    1    3    3    0    0 -0.17161266937E+01  0.16887647006E+02 -0.77547514281E+01  0.18662097476E+02  0.51100000000E-03 0.  1.
        -12    1    3    3    0    0  0.14396989737E+01  0.60132134938E+01  0.25000153688E+02  0.25753429948E+02  0.00000000000E+00 0.  1.
</event>
<event>
 7    1  0.6061051E-012  0.5930194E+02  0.7816164E-02  0.1266605E+00
        -11   -1    0    0    0    0  0.00000000000E+00  0.00000000000E+00  0.45593999997E+02  0.45594000000E+02  0.51100000000E-03 0.  1.
         11   -1    0    0    0    0 -0.00000000000E+00 -0.00000000000E+00 -0.45593999997E+02  0.45594000000E+02  0.51100000000E-03 0. -1.
    9900012    2    1    2    0    0  0.22310601872E+02  0.58661421466E+01  0.22012414109E+02  0.59301937927E+02  0.49999988874E+02 0.  0.
         12    1    1    2    0    0 -0.22310601872E+02 -0.58661421466E+01 -0.22012414109E+02  0.31886062073E+02  0.00000000000E+00 0. -1.
         11    1    3    3    0    0 -0.12173604213E+01 -0.76083932910E+01 -0.99798530319E+01  0.12608214848E+02  0.51100000000E-03 0. -1.
        -11    1    3    3    0    0 -0.28933834547E+01  0.57942623828E+01  0.67403904133E+01  0.93476204224E+01  0.51100000000E-03 0.  1.
        -12    1    3    3    0    0  0.26421345748E+02  0.76802730549E+01  0.25251876728E+02  0.37346102656E+02  0.00000000000E+00 0.  1.
</event>
<event>
 7    1  0.6061051E-012  0.5930195E+02  0.7816164E-02  0.1266605E+00
        -11   -1    0    0    0    0  0.00000000000E+00  0.00000000000E+00  0.45593999997E+02  0.45594000000E+02  0.51100000000E-03 0.  1.
         11   -1    0    0    0    0 -0.00000000000E+00 -0.00000000000E+00 -0.45593999997E+02  0.45594000000E+02  0.51100000000E-03 0. -1.
    9900012    2    1    2    0    0  0.92217962498E+01 -0.71978535094E+01  0.29662592597E+02  0.59301952569E+02  0.50000015578E+02 0.  0.
         12    1    1    2    0    0 -0.92217962498E+01  0.71978535094E+01 -0.29662592597E+02  0.31886047431E+02  0.00000000000E+00 0. -1.
         11    1    3    3    0    0  0.31222600441E+01  0.10436899949E+02  0.15983358897E+02  0.19342832012E+02  0.51100000000E-03 0. -1.
        -11    1    3    3    0    0  0.15417627502E+02  0.13900372207E+00 -0.43527607813E+00  0.15424397083E+02  0.51100000000E-03 0.  1.
        -12    1    3    3    0    0 -0.93180912967E+01 -0.17773757181E+02  0.14114509777E+02  0.24534723475E+02  0.00000000000E+00 0.  1.
</event>
<event>
 7    1  0.6061051E-012  0.5930195E+02  0.7816164E-02  0.1266605E+00
        -11   -1    0    0    0    0  0.00000000000E+00  0.00000000000E+00  0.45593999997E+02  0.45594000000E+02  0.51100000000E-03 0.  1.
         11   -1    0    0    0    0 -0.00000000000E+00 -0.00000000000E+00 -0.45593999997E+02  0.45594000000E+02  0.51100000000E-03 0. -1.
    9900012    2    1    2    0    0 -0.11564585788E+02  0.27003911047E+02  0.12400372251E+02  0.59301951511E+02  0.50000013648E+02 0.  0.
         12    1    1    2    0    0  0.11564585788E+02 -0.27003911047E+02 -0.12400372251E+02  0.31886048489E+02  0.00000000000E+00 0. -1.
         11    1    3    3    0    0  0.96221440499E+01  0.12781923397E+02  0.13226648633E+02  0.20758310532E+02  0.51100000000E-03 0. -1.
        -11    1    3    3    0    0 -0.27068802813E+02  0.54056945375E+01  0.16751108774E+01  0.27654070512E+02  0.51100000000E-03 0.  1.
         12    1    3    3    0    0  0.58820729751E+01  0.88162931128E+01 -0.25013872589E+01  0.10889570467E+02  0.00000000000E+00 0. -1.
</event>
<event>
 7    1  0.6061051E-012  0.5930194E+02  0.7816164E-02  0.1266605E+00
        -11   -1    0    0    0    0  0.00000000000E+00  0.00000000000E+00  0.45593999997E+02  0.45594000000E+02  0.51100000000E-03 0. -1.
         11   -1    0    0    0    0 -0.00000000000E+00 -0.00000000000E+00 -0.45593999997E+02  0.45594000000E+02  0.51100000000E-03 0.  1.
    9900012    2    1    2    0    0 -0.28048068236E+02  0.82940216458E+01  0.12697875367E+02  0.59301937752E+02  0.49999988555E+02 0.  0.
         12    1    1    2    0    0  0.28048068236E+02 -0.82940216458E+01 -0.12697875367E+02  0.31886062248E+02  0.00000000000E+00 0. -1.
         11    1    3    3    0    0 -0.79051648704E+01  0.31769833681E+00  0.17194465364E+02  0.18927287267E+02  0.51100000000E-03 0. -1.
        -11    1    3    3    0    0 -0.20694094074E+01 -0.12581408439E+02 -0.14861822787E+01  0.12836784318E+02  0.51100000000E-03 0.  1.
         12    1    3    3    0    0 -0.18073493958E+02  0.20557731748E+02 -0.30104077183E+01  0.27537866168E+02  0.00000000000E+00 0. -1.
</event>
<event>
 7    1  0.6737028E-012  0.5930193E+02  0.7816164E-02  0.1266605E+00
        -11   -1    0    0    0    0  0.00000000000E+00  0.00000000000E+00  0.45593999997E+02  0.45594000000E+02  0.51100000000E-03 0. -1.
         11   -1    0    0    0    0 -0.00000000000E+00 -0.00000000000E+00 -0.45593999997E+02  0.45594000000E+02  0.51100000000E-03 0.  1.
    9900012    2    1    2    0    0 -0.65917928551E+01 -0.20930842367E+02 -0.23133738512E+02  0.59301925410E+02  0.49999966046E+02 0.  0.
         12    1    1    2    0    0  0.65917928551E+01  0.20930842367E+02  0.23133738512E+02  0.31886074590E+02  0.00000000000E+00 0. -1.
         11    1    3    3    0    0 -0.70510527207E+01 -0.14682590178E+02  0.25895251118E+01  0.16492466140E+02  0.51100000000E-03 0. -1.
        -11    1    3    3    0    0 -0.61798916162E+01 -0.16026291629E+02 -0.25794633256E+02  0.30990259580E+02  0.51100000000E-03 0.  1.
         12    1    3    3    0    0  0.66391514818E+01  0.97780394400E+01  0.71369632543E-01  0.11819199690E+02  0.00000000000E+00 0. -1.
</event>
<event>
 7    1  0.6061051E-012  0.5930197E+02  0.7816164E-02  0.1266605E+00
        -11   -1    0    0    0    0  0.00000000000E+00  0.00000000000E+00  0.45593999997E+02  0.45594000000E+02  0.51100000000E-03 0.  1.
         11   -1    0    0    0    0 -0.00000000000E+00 -0.00000000000E+00 -0.45593999997E+02  0.45594000000E+02  0.51100000000E-03 0. -1.
    9900012    2    1    2    0    0 -0.25210369999E+01 -0.57672828081E+01  0.31258624294E+02  0.59301972162E+02  0.50000051310E+02 0.  0.
         12    1    1    2    0    0  0.25210369999E+01  0.57672828081E+01 -0.31258624294E+02  0.31886027838E+02  0.00000000000E+00 0. -1.
         11    1    3    3    0    0 -0.10840193040E+02  0.13432366582E+02  0.14611813684E+02  0.22615113454E+02  0.51100000000E-03 0.  1.
        -11    1    3    3    0    0  0.16909284177E+01  0.60784115916E+01  0.15118397326E+01  0.64878336931E+01  0.51100000000E-03 0. -1.
        -12    1    3    3    0    0  0.66282276227E+01 -0.25278060981E+02  0.15134970878E+02  0.30199025015E+02  0.00000000000E+00 0.  1.
</event>
<event>
 7    1  0.6061051E-012  0.5930187E+02  0.7816164E-02  0.1266605E+00
        -11   -1    0    0    0    0  0.00000000000E+00  0.00000000000E+00  0.45593999997E+02  0.45594000000E+02  0.51100000000E-03 0.  1.
         11   -1    0    0    0    0 -0.00000000000E+00 -0.00000000000E+00 -0.45593999997E+02  0.45594000000E+02  0.51100000000E-03 0. -1.
    9900012    2    1    2    0    0  0.28741450740E+01  0.18460284219E+02  0.25839548105E+02  0.59301873713E+02  0.49999871762E+02 0.  0.
         12    1    1    2    0    0 -0.28741450740E+01 -0.18460284219E+02 -0.25839548105E+02  0.31886126287E+02  0.00000000000E+00 0. -1.
         11    1    3    3    0    0  0.87094579407E+01  0.16642392499E+02  0.27850501941E+02  0.33592772204E+02  0.51100000000E-03 0. -1.
        -11    1    3    3    0    0 -0.10192905310E+01 -0.62762884726E+00  0.11289992572E+02  0.11353272819E+02  0.51100000000E-03 0.  1.
         12    1    3    3    0    0 -0.48160223357E+01  0.24455205677E+01 -0.13300946409E+02  0.14355828690E+02  0.00000000000E+00 0. -1.
</event>
<event>
 7    1  0.6061051E-012  0.5930191E+02  0.7816164E-02  0.1266605E+00
        -11   -1    0    0    0    0  0.00000000000E+00  0.00000000000E+00  0.45593999997E+02  0.45594000000E+02  0.51100000000E-03 0.  1.
         11   -1    0    0    0    0 -0.00000000000E+00 -0.00000000000E+00 -0.45593999997E+02  0.45594000000E+02  0.51100000000E-03 0. -1.
    9900012    2    1    2    0    0 -0.80109515425E+01 -0.26616231699E+02  0.15624446843E+02  0.59301914106E+02  0.49999945431E+02 0.  0.
         12    1    1    2    0    0  0.80109515425E+01  0.26616231699E+02 -0.15624446843E+02  0.31886085894E+02  0.00000000000E+00 0. -1.
         11    1    3    3    0    0 -0.11867711968E+02 -0.77316989263E+01 -0.31342450873E+01  0.14506731133E+02  0.51100000000E-03 0. -1.
        -11    1    3    3    0    0  0.27769349761E+01 -0.13920852446E+02 -0.88467738765E+01  0.16726234154E+02  0.51100000000E-03 0.  1.
        -12    1    3    3    0    0  0.10798254497E+01 -0.49636803262E+01  0.27605465807E+02  0.28068948819E+02  0.00000000000E+00 0.  1.
</event>
<event>
 7    1  0.6061051E-012  0.5930196E+02  0.7816164E-02  0.1266605E+00
        -11   -1    0    0    0    0  0.00000000000E+00  0.00000000000E+00  0.45593999997E+02  0.45594000000E+02  0.51100000000E-03 0.  1.
         11   -1    0    0    0    0 -0.00000000000E+00 -0.00000000000E+00 -0.45593999997E+02  0.45594000000E+02  0.51100000000E-03 0. -1.
    9900012    2    1    2    0    0  0.24018274819E+02 -0.19958746326E+02  0.64413247825E+01  0.59301956891E+02  0.50000023460E+02 0.  0.
         12    1    1    2    0    0 -0.24018274819E+02  0.19958746326E+02 -0.64413247825E+01  0.31886043109E+02  0.00000000000E+00 0. -1.
         11    1    3    3    0    0  0.94239103511E+01 -0.82923682694E+01  0.18843481191E+02  0.22641780881E+02  0.51100000000E-03 0. -1.
        -11    1    3    3    0    0  0.10810335672E+02  0.69655966085E+01  0.17228941525E+01  0.12975024392E+02  0.51100000000E-03 0.  1.
         12    1    3    3    0    0  0.37840287961E+01 -0.18631974665E+02 -0.14125050560E+02  0.23685151618E+02  0.00000000000E+00 0. -1.
</event>
<event>
 7    1  0.6061051E-012  0.5930197E+02  0.7816164E-02  0.1266605E+00
        -11   -1    0    0    0    0  0.00000000000E+00  0.00000000000E+00  0.45593999997E+02  0.45594000000E+02  0.51100000000E-03 0. -1.
         11   -1    0    0    0    0 -0.00000000000E+00 -0.00000000000E+00 -0.45593999997E+02  0.45594000000E+02  0.51100000000E-03 0.  1.
    9900012    2    1    2    0    0 -0.76561830139E+01  0.20651203950E+02 -0.23057093549E+02  0.59301969738E+02  0.50000046889E+02 0.  0.
         12    1    1    2    0    0  0.76561830139E+01 -0.20651203950E+02  0.23057093549E+02  0.31886030262E+02  0.00000000000E+00 0. -1.
         11    1    3    3    0    0  0.62799916788E-01  0.89359414863E+01  0.61385360709E+01  0.10841430691E+02  0.51100000000E-03 0.  1.
        -11    1    3    3    0    0 -0.98424115137E+01  0.31960733602E+00  0.59138928220E+01  0.11486920467E+02  0.51100000000E-03 0. -1.
        -12    1    3    3    0    0  0.21234285829E+01  0.11395655128E+02 -0.35109522442E+02  0.36973618579E+02  0.00000000000E+00 0.  1.
</event>
<event>
 7    1  0.6061051E-012  0.5930196E+02  0.7816164E-02  0.1266605E+00
        -11   -1    0    0    0    0  0.00000000000E+00  0.00000000000E+00  0.45593999997E+02  0.45594000000E+02  0.51100000000E-03 0.  1.
         11   -1    0    0    0    0 -0.00000000000E+00 -0.00000000000E+00 -0.45593999997E+02  0.45594000000E+02  0.51100000000E-03 0. -1.
    9900012    2    1    2    0    0 -0.33070529513E+01  0.98584519249E-01  0.31713930558E+02  0.59301957449E+02  0.50000024477E+02 0.  0.
         12    1    1    2    0    0  0.33070529513E+01 -0.98584519249E-01 -0.31713930558E+02  0.31886042551E+02  0.00000000000E+00 0. -1.
         11    1    3    3    0    0 -0.53271491272E+01  0.85978539470E-01 -0.43121244437E+01  0.68542196939E+01  0.51100000000E-03 0. -1.
        -11    1    3    3    0    0  0.14204634728E+02 -0.55502475293E+01  0.13920290740E+01  0.15313870856E+02  0.51100000000E-03 0.  1.
        -12    1    3    3    0    0 -0.12184538552E+02  0.55628535091E+01  0.34634025928E+02  0.37133866899E+02  0.00000000000E+00 0.  1.
</event>
<event>
 7    1  0.6061051E-012  0.5930191E+02  0.7816164E-02  0.1266605E+00
        -11   -1    0    0    0    0  0.00000000000E+00  0.00000000000E+00  0.45593999997E+02  0.45594000000E+02  0.51100000000E-03 0.  1.
         11   -1    0    0    0    0 -0.00000000000E+00 -0.00000000000E+00 -0.45593999997E+02  0.45594000000E+02  0.51100000000E-03 0. -1.
    9900012    2    1    2    0    0 -0.15389653524E+02 -0.22187998192E+02  0.16958017222E+02  0.59301905108E+02  0.49999929020E+02 0.  0.
         12    1    1    2    0    0  0.15389653524E+02  0.22187998192E+02 -0.16958017222E+02  0.31886094892E+02  0.00000000000E+00 0. -1.
         11    1    3    3    0    0 -0.98703001919E+01 -0.22290876458E+02 -0.38887677114E+01  0.24686605958E+02  0.51100000000E-03 0. -1.
        -11    1    3    3    0    0  0.10626010477E+02  0.33475460432E+01  0.76955169060E+01  0.13540278575E+02  0.51100000000E-03 0.  1.
        -12    1    3    3    0    0 -0.16145363809E+02 -0.32446677770E+01  0.13151268028E+02  0.21075020575E+02  0.00000000000E+00 0.  1.
</event>
<event>
 7    1  0.6061051E-012  0.5930195E+02  0.7816164E-02  0.1266605E+00
        -11   -1    0    0    0    0  0.00000000000E+00  0.00000000000E+00  0.45593999997E+02  0.45594000000E+02  0.51100000000E-03 0. -1.
         11   -1    0    0    0    0 -0.00000000000E+00 -0.00000000000E+00 -0.45593999997E+02  0.45594000000E+02  0.51100000000E-03 0.  1.
    9900012    2    1    2    0    0 -0.28690438299E+02  0.13815912165E+02  0.16430039232E+01  0.59301950689E+02  0.50000012149E+02 0.  0.
         12    1    1    2    0    0  0.28690438299E+02 -0.13815912165E+02 -0.16430039232E+01  0.31886049311E+02  0.00000000000E+00 0. -1.
         11    1    3    3    0    0  0.72603299434E+01  0.35475821418E+01  0.42990003715E+01  0.91530942525E+01  0.51100000000E-03 0. -1.
        -11    1    3    3    0    0 -0.13702861056E+02 -0.37237647338E+01 -0.15393650540E+02  0.20942762524E+02  0.51100000000E-03 0.  1.
         12    1    3    3    0    0 -0.22247907186E+02  0.13992094758E+02  0.12737654092E+02  0.29206093913E+02  0.00000000000E+00 0. -1.
</event>
<event>
 7    1  0.6061051E-012  0.5930194E+02  0.7816164E-02  0.1266605E+00
        -11   -1    0    0    0    0  0.00000000000E+00  0.00000000000E+00  0.45593999997E+02  0.45594000000E+02  0.51100000000E-03 0. -1.
         11   -1    0    0    0    0 -0.00000000000E+00 -0.00000000000E+00 -0.45593999997E+02  0.45594000000E+02  0.51100000000E-03 0.  1.
    9900012    2    1    2    0    0 -0.26613245086E+02  0.85650366560E+01 -0.15332852458E+02  0.59301936721E+02  0.49999986675E+02 0.  0.
         12    1    1    2    0    0  0.26613245086E+02 -0.85650366560E+01  0.15332852458E+02  0.31886063279E+02  0.00000000000E+00 0. -1.
         11    1    3    3    0    0 -0.15372786889E+01 -0.11375559586E+01  0.74812585128E+01  0.77218189905E+01  0.51100000000E-03 0. -1.
        -11    1    3    3    0    0 -0.27145403900E+02  0.33938350469E+01  0.47725059916E+00  0.27360899796E+02  0.51100000000E-03 0.  1.
         12    1    3    3    0    0  0.20694375032E+01  0.63087575677E+01 -0.23291361570E+02  0.24219217935E+02  0.00000000000E+00 0. -1.
</event>
<event>
 7    1  0.6061051E-012  0.5930196E+02  0.7816164E-02  0.1266605E+00
        -11   -1    0    0    0    0  0.00000000000E+00  0.00000000000E+00  0.45593999997E+02  0.45594000000E+02  0.51100000000E-03 0.  1.
         11   -1    0    0    0    0 -0.00000000000E+00 -0.00000000000E+00 -0.45593999997E+02  0.45594000000E+02  0.51100000000E-03 0. -1.
    9900012    2    1    2    0    0 -0.24615062739E+00 -0.31661259366E+02 -0.37714498701E+01  0.59301956518E+02  0.50000022780E+02 0.  0.
         12    1    1    2    0    0  0.24615062739E+00  0.31661259366E+02  0.37714498701E+01  0.31886043482E+02  0.00000000000E+00 0. -1.
         11    1    3    3    0    0 -0.10912455071E+02  0.12547507977E+01  0.75528619757E+01  0.13330483844E+02  0.51100000000E-03 0. -1.
        -11    1    3    3    0    0  0.13729287845E+02 -0.64063732715E+01  0.33508393578E+01  0.15516542394E+02  0.51100000000E-03 0.  1.
        -12    1    3    3    0    0 -0.30629834011E+01 -0.26509636892E+02 -0.14675151204E+02  0.30454930280E+02  0.00000000000E+00 0.  1.
</event>
<event>
 7    1  0.6061051E-012  0.5930200E+02  0.7816164E-02  0.1266605E+00
        -11   -1    0    0    0    0  0.00000000000E+00  0.00000000000E+00  0.45593999997E+02  0.45594000000E+02  0.51100000000E-03 0.  1.
         11   -1    0    0    0    0 -0.00000000000E+00 -0.00000000000E+00 -0.45593999997E+02  0.45594000000E+02  0.51100000000E-03 0. -1.
    9900012    2    1    2    0    0  0.19557614954E+02  0.17218813263E+02  0.18377401876E+02  0.59302004131E+02  0.50000109613E+02 0.  0.
         12    1    1    2    0    0 -0.19557614954E+02 -0.17218813263E+02 -0.18377401876E+02  0.31885995869E+02  0.00000000000E+00 0. -1.
         11    1    3    3    0    0 -0.77952342142E+01 -0.18014397914E+01  0.45767703813E+01  0.92172495442E+01  0.51100000000E-03 0. -1.
        -11    1    3    3    0    0 -0.74183484143E+00  0.17410575826E+02 -0.24360222045E+01  0.17595814103E+02  0.51100000000E-03 0.  1.
        -12    1    3    3    0    0  0.28094684009E+02  0.16096772289E+01  0.16236653699E+02  0.32488940483E+02  0.00000000000E+00 0.  1.
</event>
<event>
 7    1  0.6061051E-012  0.5930194E+02  0.7816164E-02  0.1266605E+00
        -11   -1    0    0    0    0  0.00000000000E+00  0.00000000000E+00  0.45593999997E+02  0.45594000000E+02  0.51100000000E-03 0. -1.
         11   -1    0    0    0    0 -0.00000000000E+00 -0.00000000000E+00 -0.45593999997E+02  0.45594000000E+02  0.51100000000E-03 0.  1.
    9900012    2    1    2    0    0  0.18740846409E+02  0.24648873955E+02 -0.76114748385E+01  0.59301939400E+02  0.49999991560E+02 0.  0.
         12    1    1    2    0    0 -0.18740846409E+02 -0.24648873955E+02  0.76114748385E+01  0.31886060600E+02  0.00000000000E+00 0. -1.
         11    1    3    3    0    0  0.24976609797E+01 -0.16888188274E+01 -0.63846465818E+01  0.70607458273E+01  0.51100000000E-03 0. -1.
        -11    1    3    3    0    0 -0.77400917461E+01  0.84294722063E+00  0.12431343155E+02  0.14668260740E+02  0.51100000000E-03 0.  1.
        -12    1    3    3    0    0  0.23983277175E+02  0.25494745562E+02 -0.13658171411E+02  0.37572932832E+02  0.00000000000E+00 0.  1.
</event>
<event>
 7    1  0.6061051E-012  0.5930190E+02  0.7816164E-02  0.1266605E+00
        -11   -1    0    0    0    0  0.00000000000E+00  0.00000000000E+00  0.45593999997E+02  0.45594000000E+02  0.51100000000E-03 0.  1.
         11   -1    0    0    0    0 -0.00000000000E+00 -0.00000000000E+00 -0.45593999997E+02  0.45594000000E+02  0.51100000000E-03 0. -1.
    9900012    2    1    2    0    0  0.29262154308E+02 -0.11964978589E+02  0.41579799639E+01  0.59301902955E+02  0.49999925093E+02 0.  0.
         12    1    1    2    0    0 -0.29262154308E+02  0.11964978589E+02 -0.41579799639E+01  0.31886097045E+02  0.00000000000E+00 0. -1.
         11    1    3    3    0    0  0.14453501913E+02 -0.19432783415E+01  0.13027947131E+02  0.19555241113E+02  0.51100000000E-03 0. -1.
        -11    1    3    3    0    0  0.24390052332E+02 -0.36320665496E+01  0.85425897517E+00  0.24673798225E+02  0.51100000000E-03 0.  1.
         12    1    3    3    0    0 -0.95813999374E+01 -0.63896336983E+01 -0.97242261424E+01  0.15072863617E+02  0.00000000000E+00 0. -1.
</event>
<event>
 7    1  0.6061051E-012  0.5930198E+02  0.7816164E-02  0.1266605E+00
        -11   -1    0    0    0    0  0.00000000000E+00  0.00000000000E+00  0.45593999997E+02  0.45594000000E+02  0.51100000000E-03 0.  1.
         11   -1    0    0    0    0 -0.00000000000E+00 -0.00000000000E+00 -0.45593999997E+02  0.45594000000E+02  0.51100000000E-03 0. -1.
    9900012    2    1    2    0    0  0.84303800956E+01  0.81251007057E+01  0.29658549440E+02  0.59301982298E+02  0.50000069795E+02 0.  0.
         12    1    1    2    0    0 -0.84303800956E+01 -0.81251007057E+01 -0.29658549440E+02  0.31886017702E+02  0.00000000000E+00 0. -1.
         11    1    3    3    0    0  0.31165305778E+01  0.35076739102E+01 -0.44115944876E+01  0.64403963610E+01  0.51100000000E-03 0. -1.
        -11    1    3    3    0    0  0.12202300427E+02 -0.13411455207E+02  0.66134637755E+01  0.19300289372E+02  0.51100000000E-03 0.  1.
        -12    1    3    3    0    0 -0.68884509090E+01  0.18028882002E+02  0.27456680152E+02  0.33561296565E+02  0.00000000000E+00 0.  1.
</event>
<event>
 7    1  0.6061051E-012  0.5930196E+02  0.7816164E-02  0.1266605E+00
        -11   -1    0    0    0    0  0.00000000000E+00  0.00000000000E+00  0.45593999997E+02  0.45594000000E+02  0.51100000000E-03 0.  1.
         11   -1    0    0    0    0 -0.00000000000E+00 -0.00000000000E+00 -0.45593999997E+02  0.45594000000E+02  0.51100000000E-03 0. -1.
    9900012    2    1    2    0    0  0.50663257702E+01  0.31071463718E+02  0.50611996551E+01  0.59301964556E+02  0.50000037439E+02 0.  0.
         12    1    1    2    0    0 -0.50663257702E+01 -0.31071463718E+02 -0.50611996551E+01  0.31886035444E+02  0.00000000000E+00 0. -1.
         11    1    3    3    0    0  0.10407230807E+01 -0.44646427263E+01  0.97985615821E+01  0.10817945671E+02  0.51100000000E-03 0. -1.
        -11    1    3    3    0    0  0.71942425904E+00  0.23977899212E+02  0.12824517568E+02  0.27201571150E+02  0.51100000000E-03 0.  1.
         12    1    3    3    0    0  0.33061784304E+01  0.11558207232E+02 -0.17561879495E+02  0.21282447736E+02  0.00000000000E+00 0. -1.
</event>
<event>
 7    1  0.6061051E-012  0.5930196E+02  0.7816164E-02  0.1266605E+00
        -11   -1    0    0    0    0  0.00000000000E+00  0.00000000000E+00  0.45593999997E+02  0.45594000000E+02  0.51100000000E-03 0.  1.
         11   -1    0    0    0    0 -0.00000000000E+00 -0.00000000000E+00 -0.45593999997E+02  0.45594000000E+02  0.51100000000E-03 0. -1.
    9900012    2    1    2    0    0 -0.30419518464E+02  0.92840772917E+01 -0.22755706471E+01  0.59301962044E+02  0.50000032858E+02 0.  0.
         12    1    1    2    0    0  0.30419518464E+02 -0.92840772917E+01  0.22755706471E+01  0.31886037956E+02  0.00000000000E+00 0. -1.
         11    1    3    3    0    0  0.61390901775E+00 -0.10608592034E+02  0.98376130100E+01  0.14480944003E+02  0.51100000000E-03 0. -1.
        -11    1    3    3    0    0 -0.43598442475E+01  0.11722482103E+02  0.33194750815E+01  0.12940005549E+02  0.51100000000E-03 0.  1.
        -12    1    3    3    0    0 -0.26673583234E+02  0.81701872223E+01 -0.15432658739E+02  0.31881012493E+02  0.00000000000E+00 0.  1.
</event>
<event>
 7    1  0.6061051E-012  0.5930212E+02  0.7816164E-02  0.1266604E+00
        -11   -1    0    0    0    0  0.00000000000E+00  0.00000000000E+00  0.45593999997E+02  0.45594000000E+02  0.51100000000E-03 0.  1.
         11   -1    0    0    0    0 -0.00000000000E+00 -0.00000000000E+00 -0.45593999997E+02  0.45594000000E+02  0.51100000000E-03 0. -1.
    9900012    2    1    2    0    0 -0.21060912997E+02  0.86844618747E+01  0.22309804669E+02  0.59302120387E+02  0.50000321635E+02 0.  0.
         12    1    1    2    0    0  0.21060912997E+02 -0.86844618747E+01 -0.22309804669E+02  0.31885879613E+02  0.00000000000E+00 0. -1.
         11    1    3    3    0    0 -0.23975198370E+01 -0.41495702712E+01 -0.46564184510E+01  0.66820107644E+01  0.51100000000E-03 0. -1.
        -11    1    3    3    0    0 -0.31780620023E+00  0.50275336212E+01  0.31725110415E+02  0.32122573468E+02  0.51100000000E-03 0.  1.
         12    1    3    3    0    0 -0.18345586960E+02  0.78064985247E+01 -0.47588872946E+01  0.20497536155E+02  0.00000000000E+00 0. -1.
</event>
<event>
 7    1  0.6061051E-012  0.5930194E+02  0.7816164E-02  0.1266605E+00
        -11   -1    0    0    0    0  0.00000000000E+00  0.00000000000E+00  0.45593999997E+02  0.45594000000E+02  0.51100000000E-03 0. -1.
         11   -1    0    0    0    0 -0.00000000000E+00 -0.00000000000E+00 -0.45593999997E+02  0.45594000000E+02  0.51100000000E-03 0.  1.
    9900012    2    1    2    0    0 -0.47634831705E+01 -0.30938353097E+02 -0.60702728998E+01  0.59301942274E+02  0.49999996801E+02 0.  0.
         12    1    1    2    0    0  0.47634831705E+01  0.30938353097E+02  0.60702728998E+01  0.31886057726E+02  0.00000000000E+00 0. -1.
         11    1    3    3    0    0 -0.10185810698E+01 -0.12600710960E+02  0.87512163298E+01  0.15375279237E+02  0.51100000000E-03 0. -1.
        -11    1    3    3    0    0  0.14904057391E+02 -0.17022782895E+02 -0.72813100496E+01  0.23768120256E+02  0.51100000000E-03 0.  1.
         12    1    3    3    0    0 -0.18648959492E+02 -0.13148592415E+01 -0.75401791800E+01  0.20158542780E+02  0.00000000000E+00 0. -1.
</event>
<event>
 7    1  0.6061051E-012  0.5930208E+02  0.7816164E-02  0.1266604E+00
        -11   -1    0    0    0    0  0.00000000000E+00  0.00000000000E+00  0.45593999997E+02  0.45594000000E+02  0.51100000000E-03 0.  1.
         11   -1    0    0    0    0 -0.00000000000E+00 -0.00000000000E+00 -0.45593999997E+02  0.45594000000E+02  0.51100000000E-03 0. -1.
    9900012    2    1    2    0    0 -0.11377834871E+02  0.29684555058E+02  0.24666077798E+01  0.59302076941E+02  0.50000242402E+02 0.  0.
         12    1    1    2    0    0  0.11377834871E+02 -0.29684555058E+02 -0.24666077798E+01  0.31885923059E+02  0.00000000000E+00 0. -1.
         11    1    3    3    0    0 -0.89605521525E+01  0.44563064708E+01 -0.14732925569E+02  0.17810369404E+02  0.51100000000E-03 0. -1.
        -11    1    3    3    0    0 -0.83851032380E+01 -0.10407907291E+01  0.10962214983E+02  0.13840641577E+02  0.51100000000E-03 0.  1.
         12    1    3    3    0    0  0.59678205193E+01  0.26269039316E+02  0.62373183651E+01  0.27651065960E+02  0.00000000000E+00 0. -1.
</event>
<event>
 7    1  0.6061051E-012  0.5930205E+02  0.7816164E-02  0.1266604E+00
        -11   -1    0    0    0    0  0.00000000000E+00  0.00000000000E+00  0.45593999997E+02  0.45594000000E+02  0.51100000000E-03 0.  1.
         11   -1    0    0    0    0 -0.00000000000E+00 -0.00000000000E+00 -0.45593999997E+02  0.45594000000E+02  0.51100000000E-03 0. -1.
    9900012    2    1    2    0    0 -0.31591048051E+01  0.65843754954E+01  0.31038359539E+02  0.59302051579E+02  0.50000196148E+02 0.  0.
         12    1    1    2    0    0  0.31591048051E+01 -0.65843754954E+01 -0.31038359539E+02  0.31885948421E+02  0.00000000000E+00 0. -1.
         11    1    3    3    0    0  0.62275105464E+01 -0.18987375493E+01  0.27899444491E+02  0.28649015603E+02  0.51100000000E-03 0.  1.
        -11    1    3    3    0    0 -0.13797035899E+02  0.28498715376E+01  0.12525206884E+02  0.18851015229E+02  0.51100000000E-03 0. -1.
         12    1    3    3    0    0  0.44104205480E+01  0.56332415071E+01 -0.93862918362E+01  0.11802020747E+02  0.00000000000E+00 0. -1.
</event>
<event>
 7    1  0.6061051E-012  0.5930194E+02  0.7816164E-02  0.1266605E+00
        -11   -1    0    0    0    0  0.00000000000E+00  0.00000000000E+00  0.45593999997E+02  0.45594000000E+02  0.51100000000E-03 0. -1.
         11   -1    0    0    0    0 -0.00000000000E+00 -0.00000000000E+00 -0.45593999997E+02  0.45594000000E+02  0.51100000000E-03 0.  1.
    9900012    2    1    2    0    0  0.23740854223E+02  0.20783780544E+02 -0.45964012461E+01  0.59301943528E+02  0.49999999088E+02 0.  0.
         12    1    1    2    0    0 -0.23740854223E+02 -0.20783780544E+02  0.45964012461E+01  0.31886056472E+02  0.00000000000E+00 0. -1.
         11    1    3    3    0    0  0.12323740705E+02  0.12882480357E+02  0.15664309584E+02  0.23731908481E+02  0.51100000000E-03 0. -1.
        -11    1    3    3    0    0 -0.25401127283E+01  0.11453131649E+02 -0.13636223770E+01  0.11810413349E+02  0.51100000000E-03 0.  1.
        -12    1    3    3    0    0  0.13957226246E+02 -0.35518314623E+01 -0.18897088453E+02  0.23759621698E+02  0.00000000000E+00 0.  1.
</event>
<event>
 7    1  0.6061051E-012  0.5930200E+02  0.7816164E-02  0.1266605E+00
        -11   -1    0    0    0    0  0.00000000000E+00  0.00000000000E+00  0.45593999997E+02  0.45594000000E+02  0.51100000000E-03 0.  1.
         11   -1    0    0    0    0 -0.00000000000E+00 -0.00000000000E+00 -0.45593999997E+02  0.45594000000E+02  0.51100000000E-03 0. -1.
    9900012    2    1    2    0    0  0.85660438573E+01  0.14944658983E+01  0.30677455748E+02  0.59302002653E+02  0.50000106918E+02 0.  0.
         12    1    1    2    0    0 -0.85660438573E+01 -0.14944658983E+01 -0.30677455748E+02  0.31885997347E+02  0.00000000000E+00 0. -1.
         11    1    3    3    0    0  0.13643305559E+02  0.75700881570E+01  0.84373071372E+01  0.17737930355E+02  0.51100000000E-03 0.  1.
        -11    1    3    3    0    0  0.11856381659E+02 -0.12269361249E+02  0.10102687681E+02  0.19828648722E+02  0.51100000000E-03 0. -1.
        -12    1    3    3    0    0 -0.16933643362E+02  0.61937389903E+01  0.12137460929E+02  0.21735423575E+02  0.00000000000E+00 0.  1.
</event>
<event>
 7    1  0.6061051E-012  0.5930199E+02  0.7816164E-02  0.1266605E+00
        -11   -1    0    0    0    0  0.00000000000E+00  0.00000000000E+00  0.45593999997E+02  0.45594000000E+02  0.51100000000E-03 0.  1.
         11   -1    0    0    0    0 -0.00000000000E+00 -0.00000000000E+00 -0.45593999997E+02  0.45594000000E+02  0.51100000000E-03 0. -1.
    9900012    2    1    2    0    0 -0.31121004399E+02 -0.69227794899E+01  0.52538559188E+00  0.59301987068E+02  0.50000078496E+02 0.  0.
         12    1    1    2    0    0  0.31121004399E+02  0.69227794899E+01 -0.52538559188E+00  0.31886012932E+02  0.00000000000E+00 0. -1.
         11    1    3    3    0    0 -0.29421992348E+01  0.78692339003E+01 -0.73044069913E+01  0.11132643005E+02  0.51100000000E-03 0. -1.
        -11    1    3    3    0    0 -0.80786980645E+01  0.50606082235E+01 -0.10740715690E+02  0.14360992020E+02  0.51100000000E-03 0.  1.
        -12    1    3    3    0    0 -0.20100107100E+02 -0.19852621614E+02  0.18570508273E+02  0.33808352043E+02  0.00000000000E+00 0.  1.
</event>
<event>
 7    1  0.6061051E-012  0.5930197E+02  0.7816164E-02  0.1266605E+00
        -11   -1    0    0    0    0  0.00000000000E+00  0.00000000000E+00  0.45593999997E+02  0.45594000000E+02  0.51100000000E-03 0.  1.
         11   -1    0    0    0    0 -0.00000000000E+00 -0.00000000000E+00 -0.45593999997E+02  0.45594000000E+02  0.51100000000E-03 0. -1.
    9900012    2    1    2    0    0  0.29490039339E+02 -0.20091918664E+01  0.11959075979E+02  0.59301972175E+02  0.50000051334E+02 0.  0.
         12    1    1    2    0    0 -0.29490039339E+02  0.20091918664E+01 -0.11959075979E+02  0.31886027825E+02  0.00000000000E+00 0. -1.
         11    1    3    3    0    0  0.20002795816E+02 -0.12788910845E+02 -0.91577828132E+01  0.25446671047E+02  0.51100000000E-03 0. -1.
        -11    1    3    3    0    0  0.90152459640E+01  0.11785439093E+02  0.23114740548E+01  0.15017128453E+02  0.51100000000E-03 0.  1.
        -12    1    3    3    0    0  0.47199755972E+00 -0.10057201137E+01  0.18805384737E+02  0.18838172676E+02  0.00000000000E+00 0.  1.
</event>
<event>
 7    1  0.6061051E-012  0.5930198E+02  0.7816164E-02  0.1266605E+00
        -11   -1    0    0    0    0  0.00000000000E+00  0.00000000000E+00  0.45593999997E+02  0.45594000000E+02  0.51100000000E-03 0.  1.
         11   -1    0    0    0    0 -0.00000000000E+00 -0.00000000000E+00 -0.45593999997E+02  0.45594000000E+02  0.51100000000E-03 0. -1.
    9900012    2    1    2    0    0  0.38851751488E+00 -0.17817832102E+02  0.26440355049E+02  0.59301977015E+02  0.50000060161E+02 0.  0.
         12    1    1    2    0    0 -0.38851751488E+00  0.17817832102E+02 -0.26440355049E+02  0.31886022985E+02  0.00000000000E+00 0. -1.
         11    1    3    3    0    0 -0.32679872912E+01 -0.10732322476E+02 -0.45675388036E+01  0.12113005311E+02  0.51100000000E-03 0. -1.
        -11    1    3    3    0    0 -0.12524971149E+02 -0.13000582837E+02  0.18866237678E+02  0.26111778583E+02  0.51100000000E-03 0.  1.
         12    1    3    3    0    0  0.16181475955E+02  0.59150732118E+01  0.12141656175E+02  0.21077193121E+02  0.00000000000E+00 0. -1.
</event>
<event>
 7    1  0.6061051E-012  0.5930195E+02  0.7816164E-02  0.1266605E+00
        -11   -1    0    0    0    0  0.00000000000E+00  0.00000000000E+00  0.45593999997E+02  0.45594000000E+02  0.51100000000E-03 0.  1.
         11   -1    0    0    0    0 -0.00000000000E+00 -0.00000000000E+00 -0.45593999997E+02  0.45594000000E+02  0.51100000000E-03 0. -1.
    9900012    2    1    2    0    0 -0.11607953019E+02  0.16559897056E+02  0.24652497628E+02  0.59301946574E+02  0.50000004644E+02 0.  0.
         12    1    1    2    0    0  0.11607953019E+02 -0.16559897056E+02 -0.24652497628E+02  0.31886053426E+02  0.00000000000E+00 0. -1.
         11    1    3    3    0    0 -0.17100829378E+02  0.84536997156E+01  0.23901503957E+02  0.30580799466E+02  0.51100000000E-03 0. -1.
        -11    1    3    3    0    0 -0.19610549002E+01  0.16910476680E+02 -0.99994436778E+00  0.17053147711E+02  0.51100000000E-03 0.  1.
        -12    1    3    3    0    0  0.74539312589E+01 -0.88042793399E+01  0.17509380389E+01  0.11667999397E+02  0.00000000000E+00 0.  1.
</event>
<event>
 7    1  0.6061051E-012  0.5930204E+02  0.7816164E-02  0.1266604E+00
        -11   -1    0    0    0    0  0.00000000000E+00  0.00000000000E+00  0.45593999997E+02  0.45594000000E+02  0.51100000000E-03 0.  1.
         11   -1    0    0    0    0 -0.00000000000E+00 -0.00000000000E+00 -0.45593999997E+02  0.45594000000E+02  0.51100000000E-03 0. -1.
    9900012    2    1    2    0    0  0.23662680400E+02  0.12197254383E+02  0.17550477570E+02  0.59302035672E+02  0.50000167137E+02 0.  0.
         12    1    1    2    0    0 -0.23662680400E+02 -0.12197254383E+02 -0.17550477570E+02  0.31885964328E+02  0.00000000000E+00 0. -1.
         11    1    3    3    0    0 -0.22475809747E+01 -0.48614143590E+01 -0.13007568015E+02  0.14067046446E+02  0.51100000000E-03 0. -1.
        -11    1    3    3    0    0 -0.39836148412E+00  0.36577082294E-01  0.43957198715E+01  0.44138852732E+01  0.51100000000E-03 0.  1.
        -12    1    3    3    0    0  0.26308622858E+02  0.17022091660E+02  0.26162325713E+02  0.40821103953E+02  0.00000000000E+00 0.  1.
</event>
<event>
 7    1  0.6061051E-012  0.5930188E+02  0.7816164E-02  0.1266605E+00
        -11   -1    0    0    0    0  0.00000000000E+00  0.00000000000E+00  0.45593999997E+02  0.45594000000E+02  0.51100000000E-03 0.  1.
         11   -1    0    0    0    0 -0.00000000000E+00 -0.00000000000E+00 -0.45593999997E+02  0.45594000000E+02  0.51100000000E-03 0. -1.
    9900012    2    1    2    0    0 -0.24402997311E+02  0.69800353666E+01 -0.19300195090E+02  0.59301879163E+02  0.49999881703E+02 0.  0.
         12    1    1    2    0    0  0.24402997311E+02 -0.69800353666E+01  0.19300195090E+02  0.31886120837E+02  0.00000000000E+00 0. -1.
         11    1    3    3    0    0  0.29294568654E+01  0.14851759648E+01 -0.60427526955E+01  0.68776686146E+01  0.51100000000E-03 0. -1.
        -11    1    3    3    0    0 -0.16559001138E+02  0.10029461464E+02 -0.27730987488E+02  0.33820086979E+02  0.51100000000E-03 0.  1.
        -12    1    3    3    0    0 -0.10773453038E+02 -0.45346020625E+01  0.14473545093E+02  0.18604123570E+02  0.00000000000E+00 0.  1.
</event>
<event>
 7    1  0.6061051E-012  0.5930193E+02  0.7816164E-02  0.1266605E+00
        -11   -1    0    0    0    0  0.00000000000E+00  0.00000000000E+00  0.45593999997E+02  0.45594000000E+02  0.51100000000E-03 0.  1.
         11   -1    0    0    0    0 -0.00000000000E+00 -0.00000000000E+00 -0.45593999997E+02  0.45594000000E+02  0.51100000000E-03 0. -1.
    9900012    2    1    2    0    0  0.12979981553E+02  0.18353677703E+02  0.22613805139E+02  0.59301927975E+02  0.49999970723E+02 0.  0.
         12    1    1    2    0    0 -0.12979981553E+02 -0.18353677703E+02 -0.22613805139E+02  0.31886072025E+02  0.00000000000E+00 0. -1.
         11    1    3    3    0    0  0.18814778229E+01  0.68479431834E+01  0.44825948903E+01  0.83980915602E+01  0.51100000000E-03 0. -1.
        -11    1    3    3    0    0  0.26474125438E+02  0.14967219545E+02  0.59596298867E+01  0.30990549645E+02  0.51100000000E-03 0.  1.
         12    1    3    3    0    0 -0.15375621708E+02 -0.34614850255E+01  0.12171580362E+02  0.19913286770E+02  0.00000000000E+00 0. -1.
</event>
<event>
 7    1  0.6061051E-012  0.5930192E+02  0.7816164E-02  0.1266605E+00
        -11   -1    0    0    0    0  0.00000000000E+00  0.00000000000E+00  0.45593999997E+02  0.45594000000E+02  0.51100000000E-03 0.  1.
         11   -1    0    0    0    0 -0.00000000000E+00 -0.00000000000E+00 -0.45593999997E+02  0.45594000000E+02  0.51100000000E-03 0. -1.
    9900012    2    1    2    0    0  0.10636482301E+02  0.16312691091E+02  0.25248438026E+02  0.59301917313E+02  0.49999951279E+02 0.  0.
         12    1    1    2    0    0 -0.10636482301E+02 -0.16312691091E+02 -0.25248438026E+02  0.31886082687E+02  0.00000000000E+00 0. -1.
         11    1    3    3    0    0 -0.95967693881E+01 -0.22367049624E+01  0.10057887101E+02  0.14080551303E+02  0.51100000000E-03 0. -1.
        -11    1    3    3    0    0  0.99012868674E+01 -0.30760497228E+01  0.18320662687E+02  0.21050991546E+02  0.51100000000E-03 0.  1.
         12    1    3    3    0    0  0.10331964822E+02  0.21625445776E+02 -0.31301117625E+01  0.24170374464E+02  0.00000000000E+00 0. -1.
</event>
<event>
 7    1  0.6061051E-012  0.5930192E+02  0.7816164E-02  0.1266605E+00
        -11   -1    0    0    0    0  0.00000000000E+00  0.00000000000E+00  0.45593999997E+02  0.45594000000E+02  0.51100000000E-03 0. -1.
         11   -1    0    0    0    0 -0.00000000000E+00 -0.00000000000E+00 -0.45593999997E+02  0.45594000000E+02  0.51100000000E-03 0.  1.
    9900012    2    1    2    0    0 -0.11344908216E+02  0.11024547253E+02 -0.27685277365E+02  0.59301918909E+02  0.49999954190E+02 0.  0.
         12    1    1    2    0    0  0.11344908216E+02 -0.11024547253E+02  0.27685277365E+02  0.31886081091E+02  0.00000000000E+00 0. -1.
         11    1    3    3    0    0 -0.70208976306E+01 -0.87476437191E+01 -0.13688122836E+02  0.17696863598E+02  0.51100000000E-03 0.  1.
        -11    1    3    3    0    0  0.13468994247E+01 -0.86437019108E+01  0.12914519969E+01  0.88428258665E+01  0.51100000000E-03 0. -1.
         12    1    3    3    0    0 -0.56709100102E+01  0.28415892883E+02 -0.15288606526E+02  0.32762229444E+02  0.00000000000E+00 0. -1.
</event>
<event>
 7    1  0.6061051E-012  0.5930192E+02  0.7816164E-02  0.1266605E+00
        -11   -1    0    0    0    0  0.00000000000E+00  0.00000000000E+00  0.45593999997E+02  0.45594000000E+02  0.51100000000E-03 0.  1.
         11   -1    0    0    0    0 -0.00000000000E+00 -0.00000000000E+00 -0.45593999997E+02  0.45594000000E+02  0.51100000000E-03 0. -1.
    9900012    2    1    2    0    0 -0.22654311532E+02 -0.14095143118E+02  0.17459412832E+02  0.59301921737E+02  0.49999959348E+02 0.  0.
         12    1    1    2    0    0  0.22654311532E+02  0.14095143118E+02 -0.17459412832E+02  0.31886078263E+02  0.00000000000E+00 0. -1.
         11    1    3    3    0    0 -0.19395143796E+02  0.13138243222E+02 -0.31277238076E+01  0.23634036776E+02  0.51100000000E-03 0. -1.
        -11    1    3    3    0    0  0.19165782033E+01 -0.10286977191E+02  0.34519524697E+01  0.11018672690E+02  0.51100000000E-03 0.  1.
        -12    1    3    3    0    0 -0.51757459393E+01 -0.16946409149E+02  0.17135184170E+02  0.24649212272E+02  0.00000000000E+00 0.  1.
</event>
<event>
 7    1  0.6061051E-012  0.5930192E+02  0.7816164E-02  0.1266605E+00
        -11   -1    0    0    0    0  0.00000000000E+00  0.00000000000E+00  0.45593999997E+02  0.45594000000E+02  0.51100000000E-03 0. -1.
         11   -1    0    0    0    0 -0.00000000000E+00 -0.00000000000E+00 -0.45593999997E+02  0.45594000000E+02  0.51100000000E-03 0.  1.
    9900012    2    1    2    0    0 -0.24618264042E+02  0.13817525964E+02 -0.14823592193E+02  0.59301924141E+02  0.49999963731E+02 0.  0.
         12    1    1    2    0    0  0.24618264042E+02 -0.13817525964E+02  0.14823592193E+02  0.31886075859E+02  0.00000000000E+00 0. -1.
         11    1    3    3    0    0 -0.62795689483E+01  0.11938892293E+02  0.59868403376E+01  0.14758468513E+02  0.51100000000E-03 0. -1.
        -11    1    3    3    0    0 -0.15012399828E+02  0.15640019674E+02 -0.31468616437E+01  0.21906279978E+02  0.51100000000E-03 0.  1.
        -12    1    3    3    0    0 -0.33262952654E+01 -0.13761386004E+02 -0.17663570887E+02  0.22637175650E+02  0.00000000000E+00 0.  1.
</event>
<event>
 7    1  0.6061051E-012  0.5930186E+02  0.7816164E-02  0.1266605E+00
        -11   -1    0    0    0    0  0.00000000000E+00  0.00000000000E+00  0.45593999997E+02  0.45594000000E+02  0.51100000000E-03 0.  1.
         11   -1    0    0    0    0 -0.00000000000E+00 -0.00000000000E+00 -0.45593999997E+02  0.45594000000E+02  0.51100000000E-03 0. -1.
    9900012    2    1    2    0    0 -0.20395040516E+02  0.13491458792E+02 -0.20463354129E+02  0.59301858807E+02  0.49999844578E+02 0.  0.
         12    1    1    2    0    0  0.20395040516E+02 -0.13491458792E+02  0.20463354129E+02  0.31886141193E+02  0.00000000000E+00 0. -1.
         11    1    3    3    0    0  0.90794655041E+01  0.44990740851E+01  0.64189707306E+01  0.11995063441E+02  0.51100000000E-03 0. -1.
        -11    1    3    3    0    0 -0.60058532939E+01 -0.79423554167E+01 -0.61030276591E+01  0.11678965289E+02  0.51100000000E-03 0.  1.
        -12    1    3    3    0    0 -0.23468652726E+02  0.16934740124E+02 -0.20779297200E+02  0.35627830077E+02  0.00000000000E+00 0.  1.
</event>
<event>
 7    1  0.6061051E-012  0.5930192E+02  0.7816164E-02  0.1266605E+00
        -11   -1    0    0    0    0  0.00000000000E+00  0.00000000000E+00  0.45593999997E+02  0.45594000000E+02  0.51100000000E-03 0. -1.
         11   -1    0    0    0    0 -0.00000000000E+00 -0.00000000000E+00 -0.45593999997E+02  0.45594000000E+02  0.51100000000E-03 0.  1.
    9900012    2    1    2    0    0 -0.28799652932E+02 -0.10198344288E+02 -0.91266410037E+01  0.59301924493E+02  0.49999964374E+02 0.  0.
         12    1    1    2    0    0  0.28799652932E+02  0.10198344288E+02  0.91266410037E+01  0.31886075507E+02  0.00000000000E+00 0. -1.
         11    1    3    3    0    0 -0.67521776029E+01  0.48074572475E+00  0.11099240107E+02  0.13000621141E+02  0.51100000000E-03 0. -1.
        -11    1    3    3    0    0  0.47824918866E+01 -0.94727514756E+01  0.27447444491E+01  0.10960787906E+02  0.51100000000E-03 0.  1.
        -12    1    3    3    0    0 -0.26829967215E+02 -0.12063385374E+01 -0.22970625560E+02  0.35340515447E+02  0.00000000000E+00 0.  1.
</event>
<event>
 7    1  0.6061051E-012  0.5930195E+02  0.7816164E-02  0.1266605E+00
        -11   -1    0    0    0    0  0.00000000000E+00  0.00000000000E+00  0.45593999997E+02  0.45594000000E+02  0.51100000000E-03 0. -1.
         11   -1    0    0    0    0 -0.00000000000E+00 -0.00000000000E+00 -0.45593999997E+02  0.45594000000E+02  0.51100000000E-03 0.  1.
    9900012    2    1    2    0    0  0.23545482022E+02 -0.16830233673E+02 -0.13381835171E+02  0.59301952869E+02  0.50000016124E+02 0.  0.
         12    1    1    2    0    0 -0.23545482022E+02  0.16830233673E+02  0.13381835171E+02  0.31886047131E+02  0.00000000000E+00 0. -1.
         11    1    3    3    0    0 -0.17984774918E+01 -0.10049533821E+01 -0.54683877766E+01  0.58436048570E+01  0.51100000000E-03 0. -1.
        -11    1    3    3    0    0 -0.47949425535E+01 -0.21455083764E+02 -0.57392074932E+01  0.22721148658E+02  0.51100000000E-03 0.  1.
         12    1    3    3    0    0  0.30138902067E+02  0.56298034739E+01 -0.21742399010E+01  0.30737199354E+02  0.00000000000E+00 0. -1.
</event>
<event>
 7    1  0.6061051E-012  0.5930195E+02  0.7816164E-02  0.1266605E+00
        -11   -1    0    0    0    0  0.00000000000E+00  0.00000000000E+00  0.45593999997E+02  0.45594000000E+02  0.51100000000E-03 0. -1.
         11   -1    0    0    0    0 -0.00000000000E+00 -0.00000000000E+00 -0.45593999997E+02  0.45594000000E+02  0.51100000000E-03 0.  1.
    9900012    2    1    2    0    0 -0.29779894011E+02  0.11170158604E+02 -0.22595964827E+01  0.59301948083E+02  0.50000007397E+02 0.  0.
         12    1    1    2    0    0  0.29779894011E+02 -0.11170158604E+02  0.22595964827E+01  0.31886051917E+02  0.00000000000E+00 0. -1.
         11    1    3    3    0    0 -0.20987791834E+02  0.23229383463E+02  0.14446888894E+02  0.34479040896E+02  0.51100000000E-03 0.  1.
        -11    1    3    3    0    0  0.23296886632E+01 -0.86991208697E+00 -0.32141467681E+01  0.40638572827E+01  0.51100000000E-03 0. -1.
        -12    1    3    3    0    0 -0.11121790840E+02 -0.11189312772E+02 -0.13492338609E+02  0.20759049905E+02  0.00000000000E+00 0.  1.
</event>
<event>
 7    1  0.6061051E-012  0.5930195E+02  0.7816164E-02  0.1266605E+00
        -11   -1    0    0    0    0  0.00000000000E+00  0.00000000000E+00  0.45593999997E+02  0.45594000000E+02  0.51100000000E-03 0.  1.
         11   -1    0    0    0    0 -0.00000000000E+00 -0.00000000000E+00 -0.45593999997E+02  0.45594000000E+02  0.51100000000E-03 0. -1.
    9900012    2    1    2    0    0 -0.26144787347E+01 -0.89269850541E+01  0.30499080082E+02  0.59301945885E+02  0.50000003387E+02 0.  0.
         12    1    1    2    0    0  0.26144787347E+01  0.89269850541E+01 -0.30499080082E+02  0.31886054115E+02  0.00000000000E+00 0. -1.
         11    1    3    3    0    0  0.39232973728E+01  0.31848482771E+01  0.69477077796E+01  0.85910514185E+01  0.51100000000E-03 0. -1.
        -11    1    3    3    0    0  0.10869449970E+02  0.19439376769E+01 -0.68274916207E+01  0.12982237035E+02  0.51100000000E-03 0.  1.
        -12    1    3    3    0    0 -0.17407226078E+02 -0.14055771008E+02  0.30378863923E+02  0.37728657431E+02  0.00000000000E+00 0.  1.
</event>
<event>
 7    1  0.6061051E-012  0.5930194E+02  0.7816164E-02  0.1266605E+00
        -11   -1    0    0    0    0  0.00000000000E+00  0.00000000000E+00  0.45593999997E+02  0.45594000000E+02  0.51100000000E-03 0. -1.
         11   -1    0    0    0    0 -0.00000000000E+00 -0.00000000000E+00 -0.45593999997E+02  0.45594000000E+02  0.51100000000E-03 0.  1.
    9900012    2    1    2    0    0  0.17176110657E+02  0.84387083021E+01 -0.25504712678E+02  0.59301938093E+02  0.49999989177E+02 0.  0.
         12    1    1    2    0    0 -0.17176110657E+02 -0.84387083021E+01  0.25504712678E+02  0.31886061907E+02  0.00000000000E+00 0. -1.
         11    1    3    3    0    0 -0.32422482908E+01  0.14729352406E+02 -0.18776294238E+02  0.24083505182E+02  0.51100000000E-03 0. -1.
        -11    1    3    3    0    0 -0.63398391379E+01 -0.10802626462E+01  0.17581982388E+01  0.66672174846E+01  0.51100000000E-03 0.  1.
        -12    1    3    3    0    0  0.26758198085E+02 -0.52103814573E+01 -0.84866166793E+01  0.28551215427E+02  0.00000000000E+00 0.  1.
</event>
<event>
 7    1  0.6061051E-012  0.5930196E+02  0.7816164E-02  0.1266605E+00
        -11   -1    0    0    0    0  0.00000000000E+00  0.00000000000E+00  0.45593999997E+02  0.45594000000E+02  0.51100000000E-03 0.  1.
         11   -1    0    0    0    0 -0.00000000000E+00 -0.00000000000E+00 -0.45593999997E+02  0.45594000000E+02  0.51100000000E-03 0. -1.
    9900012    2    1    2    0    0 -0.22832147583E+01 -0.30705576841E+02  0.82869833015E+01  0.59301958994E+02  0.50000027295E+02 0.  0.
         12    1    1    2    0    0  0.22832147583E+01  0.30705576841E+02 -0.82869833015E+01  0.31886041006E+02  0.00000000000E+00 0. -1.
         11    1    3    3    0    0 -0.60127792696E+01  0.33991635550E+01 -0.62447148229E+01  0.93115138887E+01  0.51100000000E-03 0. -1.
        -11    1    3    3    0    0 -0.13624305489E+01 -0.93530591670E+01  0.21745594732E+02  0.23710900938E+02  0.51100000000E-03 0.  1.
         12    1    3    3    0    0  0.50919950603E+01 -0.24751681229E+02 -0.72138966080E+01  0.26279544167E+02  0.00000000000E+00 0. -1.
</event>
<event>
 7    1  0.6061051E-012  0.5930195E+02  0.7816164E-02  0.1266605E+00
        -11   -1    0    0    0    0  0.00000000000E+00  0.00000000000E+00  0.45593999997E+02  0.45594000000E+02  0.51100000000E-03 0.  1.
         11   -1    0    0    0    0 -0.00000000000E+00 -0.00000000000E+00 -0.45593999997E+02  0.45594000000E+02  0.51100000000E-03 0. -1.
    9900012    2    1    2    0    0  0.16552692977E+02 -0.72903718619E+01  0.26259839838E+02  0.59301947328E+02  0.50000006019E+02 0.  0.
         12    1    1    2    0    0 -0.16552692977E+02  0.72903718619E+01 -0.26259839838E+02  0.31886052672E+02  0.00000000000E+00 0. -1.
         11    1    3    3    0    0  0.59445881514E+01 -0.69321751939E+01 -0.61838197387E+01  0.11028726492E+02  0.51100000000E-03 0. -1.
        -11    1    3    3    0    0 -0.94206739192E+00 -0.15657459323E+02  0.93539334462E+01  0.18263066407E+02  0.51100000000E-03 0.  1.
        -12    1    3    3    0    0  0.11550172218E+02  0.15299262655E+02  0.23089726131E+02  0.30010154429E+02  0.00000000000E+00 0.  1.
</event>
<event>
 7    1  0.6061051E-012  0.5930159E+02  0.7816164E-02  0.1266606E+00
        -11   -1    0    0    0    0  0.00000000000E+00  0.00000000000E+00  0.45593999997E+02  0.45594000000E+02  0.51100000000E-03 0.  1.
         11   -1    0    0    0    0 -0.00000000000E+00 -0.00000000000E+00 -0.45593999997E+02  0.45594000000E+02  0.51100000000E-03 0. -1.
    9900012    2    1    2    0    0  0.31798602632E+02  0.47737720566E+00  0.23160325293E+01  0.59301591845E+02  0.49999357700E+02 0.  0.
         12    1    1    2    0    0 -0.31798602632E+02 -0.47737720566E+00 -0.23160325293E+01  0.31886408155E+02  0.00000000000E+00 0. -1.
         11    1    3    3    0    0  0.62568860387E+01 -0.39914505516E+01 -0.11923626246E+02  0.14044684529E+02  0.51100000000E-03 0. -1.
        -11    1    3    3    0    0 -0.29619428716E+01  0.62719839256E+00  0.16150779067E+02  0.16432107233E+02  0.51100000000E-03 0.  1.
         12    1    3    3    0    0  0.28503659465E+02  0.38416293647E+01 -0.19111202912E+01  0.28824800083E+02  0.00000000000E+00 0. -1.
</event>
<event>
 7    1  0.6061051E-012  0.5930189E+02  0.7816164E-02  0.1266605E+00
        -11   -1    0    0    0    0  0.00000000000E+00  0.00000000000E+00  0.45593999997E+02  0.45594000000E+02  0.51100000000E-03 0.  1.
         11   -1    0    0    0    0 -0.00000000000E+00 -0.00000000000E+00 -0.45593999997E+02  0.45594000000E+02  0.51100000000E-03 0. -1.
    9900012    2    1    2    0    0  0.20075657106E+02  0.24735334616E+02 -0.13620404458E+01  0.59301891096E+02  0.49999903466E+02 0.  0.
         12    1    1    2    0    0 -0.20075657106E+02 -0.24735334616E+02  0.13620404458E+01  0.31886108904E+02  0.00000000000E+00 0. -1.
         11    1    3    3    0    0 -0.15574217769E+01  0.63085634426E+01  0.18470581311E+01  0.67553800264E+01  0.51100000000E-03 0. -1.
        -11    1    3    3    0    0  0.14022189078E+02 -0.13542960685E+02  0.29788396701E+00  0.19496725514E+02  0.51100000000E-03 0.  1.
         12    1    3    3    0    0  0.76108898050E+01  0.31969731858E+02 -0.35069825439E+01  0.33049785556E+02  0.00000000000E+00 0. -1.
</event>
<event>
 7    1  0.6061051E-012  0.5930193E+02  0.7816164E-02  0.1266605E+00
        -11   -1    0    0    0    0  0.00000000000E+00  0.00000000000E+00  0.45593999997E+02  0.45594000000E+02  0.51100000000E-03 0. -1.
         11   -1    0    0    0    0 -0.00000000000E+00 -0.00000000000E+00 -0.45593999997E+02  0.45594000000E+02  0.51100000000E-03 0.  1.
    9900012    2    1    2    0    0  0.12417307401E+02 -0.23902638179E+02  0.17064463489E+02  0.59301928603E+02  0.49999971868E+02 0.  0.
         12    1    1    2    0    0 -0.12417307401E+02  0.23902638179E+02 -0.17064463489E+02  0.31886071397E+02  0.00000000000E+00 0. -1.
         11    1    3    3    0    0  0.79591225483E+01 -0.14409963893E+02 -0.64525727879E+01  0.17681357046E+02  0.51100000000E-03 0.  1.
        -11    1    3    3    0    0 -0.38590901756E+01 -0.10263426201E+02 -0.48936513466E+01  0.12007427623E+02  0.51100000000E-03 0. -1.
         12    1    3    3    0    0  0.83172750285E+01  0.77075191534E+00  0.28410687623E+02  0.29613143934E+02  0.00000000000E+00 0. -1.
</event>
<event>
 7    1  0.6061051E-012  0.5930193E+02  0.7816164E-02  0.1266605E+00
        -11   -1    0    0    0    0  0.00000000000E+00  0.00000000000E+00  0.45593999997E+02  0.45594000000E+02  0.51100000000E-03 0.  1.
         11   -1    0    0    0    0 -0.00000000000E+00 -0.00000000000E+00 -0.45593999997E+02  0.45594000000E+02  0.51100000000E-03 0. -1.
    9900012    2    1    2    0    0 -0.15769375075E+02  0.16159497952E+02  0.22514853015E+02  0.59301934539E+02  0.49999982694E+02 0.  0.
         12    1    1    2    0    0  0.15769375075E+02 -0.16159497952E+02 -0.22514853015E+02  0.31886065461E+02  0.00000000000E+00 0. -1.
         11    1    3    3    0    0 -0.10176028979E+02  0.99648303013E+01 -0.87044555833E+00  0.14269095432E+02  0.51100000000E-03 0. -1.
        -11    1    3    3    0    0  0.12616808235E+01  0.20334074951E+02  0.52535781694E+01  0.21039641786E+02  0.51100000000E-03 0.  1.
        -12    1    3    3    0    0 -0.68550269199E+01 -0.14139407300E+02  0.18131720404E+02  0.23993197321E+02  0.00000000000E+00 0.  1.
</event>
<event>
 7    1  0.6061051E-012  0.5930194E+02  0.7816164E-02  0.1266605E+00
        -11   -1    0    0    0    0  0.00000000000E+00  0.00000000000E+00  0.45593999997E+02  0.45594000000E+02  0.51100000000E-03 0. -1.
         11   -1    0    0    0    0 -0.00000000000E+00 -0.00000000000E+00 -0.45593999997E+02  0.45594000000E+02  0.51100000000E-03 0.  1.
    9900012    2    1    2    0    0 -0.21546814110E+02  0.19983177516E+02 -0.12374508739E+02  0.59301936454E+02  0.49999986187E+02 0.  0.
         12    1    1    2    0    0  0.21546814110E+02 -0.19983177516E+02  0.12374508739E+02  0.31886063546E+02  0.00000000000E+00 0. -1.
         11    1    3    3    0    0  0.35482898036E+01  0.22686848325E+02 -0.73465173702E+01  0.24109225728E+02  0.51100000000E-03 0. -1.
        -11    1    3    3    0    0  0.17576103373E+01  0.58591208936E+01 -0.33107134718E+01  0.69555241137E+01  0.51100000000E-03 0.  1.
        -12    1    3    3    0    0 -0.26852714251E+02 -0.85627917029E+01 -0.17172778971E+01  0.28237186612E+02  0.00000000000E+00 0.  1.
</event>
<event>
 7    1  0.6061051E-012  0.5930195E+02  0.7816164E-02  0.1266605E+00
        -11   -1    0    0    0    0  0.00000000000E+00  0.00000000000E+00  0.45593999997E+02  0.45594000000E+02  0.51100000000E-03 0.  1.
         11   -1    0    0    0    0 -0.00000000000E+00 -0.00000000000E+00 -0.45593999997E+02  0.45594000000E+02  0.51100000000E-03 0. -1.
    9900012    2    1    2    0    0 -0.13496771317E+02 -0.28143694445E+02  0.65184214868E+01  0.59301949889E+02  0.50000010690E+02 0.  0.
         12    1    1    2    0    0  0.13496771317E+02  0.28143694445E+02 -0.65184214868E+01  0.31886050111E+02  0.00000000000E+00 0. -1.
         11    1    3    3    0    0 -0.12713895346E+02 -0.13337463537E+01 -0.12199603370E+00  0.12784244111E+02  0.51100000000E-03 0. -1.
        -11    1    3    3    0    0 -0.11025946398E+02 -0.17561830917E+02  0.18901000206E+02  0.28057747739E+02  0.51100000000E-03 0.  1.
         12    1    3    3    0    0  0.10243070427E+02 -0.92481171740E+01 -0.12260582685E+02  0.18459958039E+02  0.00000000000E+00 0. -1.
</event>
<event>
 7    1  0.6061051E-012  0.5930205E+02  0.7816164E-02  0.1266604E+00
        -11   -1    0    0    0    0  0.00000000000E+00  0.00000000000E+00  0.45593999997E+02  0.45594000000E+02  0.51100000000E-03 0. -1.
         11   -1    0    0    0    0 -0.00000000000E+00 -0.00000000000E+00 -0.45593999997E+02  0.45594000000E+02  0.51100000000E-03 0.  1.
    9900012    2    1    2    0    0 -0.17635759584E+02 -0.26512881739E+02  0.16616507781E+01  0.59302047019E+02  0.50000187830E+02 0.  0.
         12    1    1    2    0    0  0.17635759584E+02  0.26512881739E+02 -0.16616507781E+01  0.31885952981E+02  0.00000000000E+00 0. -1.
         11    1    3    3    0    0  0.37370144323E+01 -0.12087186467E+02 -0.12144462925E+02  0.17537198566E+02  0.51100000000E-03 0. -1.
        -11    1    3    3    0    0  0.66359139213E+01  0.16149772912E+01  0.48371198553E+00  0.68467132822E+01  0.51100000000E-03 0.  1.
         12    1    3    3    0    0 -0.28008687938E+02 -0.16040672564E+02  0.13322401717E+02  0.34918135171E+02  0.00000000000E+00 0. -1.
</event>
<event>
 7    1  0.6061051E-012  0.5930195E+02  0.7816164E-02  0.1266605E+00
        -11   -1    0    0    0    0  0.00000000000E+00  0.00000000000E+00  0.45593999997E+02  0.45594000000E+02  0.51100000000E-03 0.  1.
         11   -1    0    0    0    0 -0.00000000000E+00 -0.00000000000E+00 -0.45593999997E+02  0.45594000000E+02  0.51100000000E-03 0. -1.
    9900012    2    1    2    0    0 -0.89343493487E+01  0.26529355064E+02  0.15267313143E+02  0.59301950872E+02  0.50000012482E+02 0.  0.
         12    1    1    2    0    0  0.89343493487E+01 -0.26529355064E+02 -0.15267313143E+02  0.31886049128E+02  0.00000000000E+00 0. -1.
         11    1    3    3    0    0  0.32579824558E+00  0.90356415103E+01  0.11730206975E+02  0.14810358468E+02  0.51100000000E-03 0. -1.
        -11    1    3    3    0    0 -0.11254661041E+02  0.60326231115E+01  0.20363012433E+02  0.24035644621E+02  0.51100000000E-03 0.  1.
         12    1    3    3    0    0  0.19945134470E+01  0.11461090442E+02 -0.16825906266E+02  0.20455947782E+02  0.00000000000E+00 0. -1.
</event>
<event>
 7    1  0.6061051E-012  0.5930197E+02  0.7816164E-02  0.1266605E+00
        -11   -1    0    0    0    0  0.00000000000E+00  0.00000000000E+00  0.45593999997E+02  0.45594000000E+02  0.51100000000E-03 0.  1.
         11   -1    0    0    0    0 -0.00000000000E+00 -0.00000000000E+00 -0.45593999997E+02  0.45594000000E+02  0.51100000000E-03 0. -1.
    9900012    2    1    2    0    0 -0.27832319522E+02  0.14773782906E+02  0.48801781647E+01  0.59301971551E+02  0.50000050195E+02 0.  0.
         12    1    1    2    0    0  0.27832319522E+02 -0.14773782906E+02 -0.48801781647E+01  0.31886028449E+02  0.00000000000E+00 0. -1.
         11    1    3    3    0    0 -0.12848999654E+01 -0.33389214332E+01  0.53337725816E+00  0.36171612929E+01  0.51100000000E-03 0. -1.
        -11    1    3    3    0    0 -0.38405171367E+02  0.79898099591E+01  0.70650782758E+01  0.39858619924E+02  0.51100000000E-03 0.  1.
         12    1    3    3    0    0  0.11857751810E+02  0.10122894380E+02 -0.27182773693E+01  0.15826190334E+02  0.00000000000E+00 0. -1.
</event>
<event>
 7    1  0.6061051E-012  0.5930196E+02  0.7816164E-02  0.1266605E+00
        -11   -1    0    0    0    0  0.00000000000E+00  0.00000000000E+00  0.45593999997E+02  0.45594000000E+02  0.51100000000E-03 0. -1.
         11   -1    0    0    0    0 -0.00000000000E+00 -0.00000000000E+00 -0.45593999997E+02  0.45594000000E+02  0.51100000000E-03 0.  1.
    9900012    2    1    2    0    0  0.22091970641E+02  0.64079180895E+01 -0.22081739816E+02  0.59301955806E+02  0.50000021481E+02 0.  0.
         12    1    1    2    0    0 -0.22091970641E+02 -0.64079180895E+01  0.22081739816E+02  0.31886044194E+02  0.00000000000E+00 0. -1.
         11    1    3    3    0    0  0.48695939813E+01  0.86239259441E+01  0.25683947673E+01  0.10231407341E+02  0.51100000000E-03 0. -1.
        -11    1    3    3    0    0  0.31143042544E+01  0.56585187825E+01 -0.31033378556E+02  0.31698396026E+02  0.51100000000E-03 0.  1.
         12    1    3    3    0    0  0.14108072405E+02 -0.78745266370E+01  0.63832439722E+01  0.17372152439E+02  0.00000000000E+00 0. -1.
</event>
<event>
 7    1  0.6061051E-012  0.5930189E+02  0.7816164E-02  0.1266605E+00
        -11   -1    0    0    0    0  0.00000000000E+00  0.00000000000E+00  0.45593999997E+02  0.45594000000E+02  0.51100000000E-03 0.  1.
         11   -1    0    0    0    0 -0.00000000000E+00 -0.00000000000E+00 -0.45593999997E+02  0.45594000000E+02  0.51100000000E-03 0. -1.
    9900012    2    1    2    0    0  0.29130060683E+02 -0.33194392336E+01 -0.12535744552E+02  0.59301890114E+02  0.49999901674E+02 0.  0.
         12    1    1    2    0    0 -0.29130060683E+02  0.33194392336E+01  0.12535744552E+02  0.31886109886E+02  0.00000000000E+00 0. -1.
         11    1    3    3    0    0  0.78483994004E+01  0.38105466272E+01 -0.12882919168E+02  0.15559153104E+02  0.51100000000E-03 0. -1.
        -11    1    3    3    0    0  0.28680018599E+02 -0.10743813451E+02 -0.83722509037E+01  0.31750079996E+02  0.51100000000E-03 0.  1.
         12    1    3    3    0    0 -0.73983573167E+01  0.36138275906E+01  0.87194255201E+01  0.11992657013E+02  0.00000000000E+00 0. -1.
</event>
<event>
 7    1  0.6061051E-012  0.5930193E+02  0.7816164E-02  0.1266605E+00
        -11   -1    0    0    0    0  0.00000000000E+00  0.00000000000E+00  0.45593999997E+02  0.45594000000E+02  0.51100000000E-03 0. -1.
         11   -1    0    0    0    0 -0.00000000000E+00 -0.00000000000E+00 -0.45593999997E+02  0.45594000000E+02  0.51100000000E-03 0.  1.
    9900012    2    1    2    0    0  0.20890070642E+02 -0.85399618222E+00 -0.24074817699E+02  0.59301933950E+02  0.49999981621E+02 0.  0.
         12    1    1    2    0    0 -0.20890070642E+02  0.85399618222E+00  0.24074817699E+02  0.31886066050E+02  0.00000000000E+00 0. -1.
         11    1    3    3    0    0  0.47771388827E+01  0.96252511470E+00  0.60787201108E+01  0.77909145129E+01  0.51100000000E-03 0. -1.
        -11    1    3    3    0    0  0.26796062847E+01 -0.14030454439E+02  0.21597906439E+01  0.14446405695E+02  0.51100000000E-03 0.  1.
        -12    1    3    3    0    0  0.13433325474E+02  0.12213933142E+02 -0.32313328454E+02  0.37064613742E+02  0.00000000000E+00 0.  1.
</event>
<event>
 7    1  0.6061051E-012  0.5930193E+02  0.7816164E-02  0.1266605E+00
        -11   -1    0    0    0    0  0.00000000000E+00  0.00000000000E+00  0.45593999997E+02  0.45594000000E+02  0.51100000000E-03 0.  1.
         11   -1    0    0    0    0 -0.00000000000E+00 -0.00000000000E+00 -0.45593999997E+02  0.45594000000E+02  0.51100000000E-03 0. -1.
    9900012    2    1    2    0    0 -0.85925997048E+01  0.19836639098E+02  0.23439206660E+02  0.59301930483E+02  0.49999975298E+02 0.  0.
         12    1    1    2    0    0  0.85925997048E+01 -0.19836639098E+02 -0.23439206660E+02  0.31886069517E+02  0.00000000000E+00 0. -1.
         11    1    3    3    0    0  0.13620350733E+02  0.33867003109E+01  0.71012193414E+01  0.15729304164E+02  0.51100000000E-03 0. -1.
        -11    1    3    3    0    0 -0.73791881451E+00  0.18420071463E+02  0.10566747016E+02  0.21248522293E+02  0.51100000000E-03 0.  1.
         12    1    3    3    0    0 -0.21475031623E+02 -0.19701326759E+01  0.57712403022E+01  0.22324104027E+02  0.00000000000E+00 0. -1.
</event>
<event>
 7    1  0.6061051E-012  0.5930199E+02  0.7816164E-02  0.1266605E+00
        -11   -1    0    0    0    0  0.00000000000E+00  0.00000000000E+00  0.45593999997E+02  0.45594000000E+02  0.51100000000E-03 0. -1.
         11   -1    0    0    0    0 -0.00000000000E+00 -0.00000000000E+00 -0.45593999997E+02  0.45594000000E+02  0.51100000000E-03 0.  1.
    9900012    2    1    2    0    0  0.25847202729E+02 -0.18221279563E+02 -0.40773253655E+01  0.59301992097E+02  0.50000087667E+02 0.  0.
         12    1    1    2    0    0 -0.25847202729E+02  0.18221279563E+02  0.40773253655E+01  0.31886007903E+02  0.00000000000E+00 0. -1.
         11    1    3    3    0    0  0.10241846915E+02 -0.24886561059E+01 -0.29980726762E+01  0.10957977800E+02  0.51100000000E-03 0. -1.
        -11    1    3    3    0    0  0.23608788897E+02  0.18844303982E+00 -0.12954490005E+02  0.26930080496E+02  0.51100000000E-03 0.  1.
        -12    1    3    3    0    0 -0.80034330828E+01 -0.15921066497E+02  0.11875237316E+02  0.21413933801E+02  0.00000000000E+00 0.  1.
</event>
<event>
 7    1  0.6061051E-012  0.5930198E+02  0.7816164E-02  0.1266605E+00
        -11   -1    0    0    0    0  0.00000000000E+00  0.00000000000E+00  0.45593999997E+02  0.45594000000E+02  0.51100000000E-03 0. -1.
         11   -1    0    0    0    0 -0.00000000000E+00 -0.00000000000E+00 -0.45593999997E+02  0.45594000000E+02  0.51100000000E-03 0.  1.
    9900012    2    1    2    0    0 -0.13874946514E+02  0.28644254215E+02  0.19263947692E+01  0.59301977403E+02  0.50000060868E+02 0.  0.
         12    1    1    2    0    0  0.13874946514E+02 -0.28644254215E+02 -0.19263947692E+01  0.31886022597E+02  0.00000000000E+00 0. -1.
         11    1    3    3    0    0 -0.24540306003E+02  0.98343806274E+01  0.57149875642E+01  0.27048156021E+02  0.51100000000E-03 0.  1.
        -11    1    3    3    0    0 -0.35475801641E-01 -0.51186667645E+01  0.18483749498E+01  0.54422879558E+01  0.51100000000E-03 0. -1.
        -12    1    3    3    0    0  0.10700835291E+02  0.23928540352E+02 -0.56369677448E+01  0.26811533426E+02  0.00000000000E+00 0.  1.
</event>
<event>
 7    1  0.6061051E-012  0.5930194E+02  0.7816164E-02  0.1266605E+00
        -11   -1    0    0    0    0  0.00000000000E+00  0.00000000000E+00  0.45593999997E+02  0.45594000000E+02  0.51100000000E-03 0. -1.
         11   -1    0    0    0    0 -0.00000000000E+00 -0.00000000000E+00 -0.45593999997E+02  0.45594000000E+02  0.51100000000E-03 0.  1.
    9900012    2    1    2    0    0  0.16862155280E+02  0.16394408099E+02 -0.21531650210E+02  0.59301939435E+02  0.49999991624E+02 0.  0.
         12    1    1    2    0    0 -0.16862155280E+02 -0.16394408099E+02  0.21531650210E+02  0.31886060565E+02  0.00000000000E+00 0. -1.
         11    1    3    3    0    0  0.63089213470E+01  0.98630103046E+01  0.76935884062E+01  0.14009738172E+02  0.51100000000E-03 0. -1.
        -11    1    3    3    0    0  0.17630317411E+02 -0.69588684988E+01 -0.19635858065E+02  0.27291406432E+02  0.51100000000E-03 0.  1.
         12    1    3    3    0    0 -0.70770834780E+01  0.13490266293E+02 -0.95893805506E+01  0.18000794831E+02  0.00000000000E+00 0. -1.
</event>
<event>
 7    1  0.6061051E-012  0.5930192E+02  0.7816164E-02  0.1266605E+00
        -11   -1    0    0    0    0  0.00000000000E+00  0.00000000000E+00  0.45593999997E+02  0.45594000000E+02  0.51100000000E-03 0.  1.
         11   -1    0    0    0    0 -0.00000000000E+00 -0.00000000000E+00 -0.45593999997E+02  0.45594000000E+02  0.51100000000E-03 0. -1.
    9900012    2    1    2    0    0  0.87394310607E+01  0.14695358084E+02  0.26914509858E+02  0.59301920821E+02  0.49999957677E+02 0.  0.
         12    1    1    2    0    0 -0.87394310607E+01 -0.14695358084E+02 -0.26914509858E+02  0.31886079179E+02  0.00000000000E+00 0. -1.
         11    1    3    3    0    0 -0.11098226745E+01 -0.34736430723E+01 -0.38174078830E+01  0.52792523873E+01  0.51100000000E-03 0. -1.
        -11    1    3    3    0    0 -0.97588692566E+01  0.12120355523E+02 -0.16905394328E+01  0.15652363113E+02  0.51100000000E-03 0.  1.
         12    1    3    3    0    0  0.19608122992E+02  0.60486456328E+01  0.32422457174E+02  0.38370305322E+02  0.00000000000E+00 0. -1.
</event>
<event>
 7    1  0.6061051E-012  0.5930199E+02  0.7816164E-02  0.1266605E+00
        -11   -1    0    0    0    0  0.00000000000E+00  0.00000000000E+00  0.45593999997E+02  0.45594000000E+02  0.51100000000E-03 0. -1.
         11   -1    0    0    0    0 -0.00000000000E+00 -0.00000000000E+00 -0.45593999997E+02  0.45594000000E+02  0.51100000000E-03 0.  1.
    9900012    2    1    2    0    0  0.10121143251E+02 -0.29020722430E+02 -0.84898588446E+01  0.59301990933E+02  0.50000085543E+02 0.  0.
         12    1    1    2    0    0 -0.10121143251E+02  0.29020722430E+02  0.84898588446E+01  0.31886009067E+02  0.00000000000E+00 0. -1.
         11    1    3    3    0    0  0.17888741768E+02 -0.12230731344E+02 -0.79492949526E+01  0.23082226101E+02  0.51100000000E-03 0. -1.
        -11    1    3    3    0    0  0.10529740836E+02 -0.13795008311E+02  0.21409126094E+01  0.17486028807E+02  0.51100000000E-03 0.  1.
        -12    1    3    3    0    0 -0.18297339353E+02 -0.29949827742E+01 -0.26814765014E+01  0.18733736025E+02  0.00000000000E+00 0.  1.
</event>
<event>
 7    1  0.6061051E-012  0.5930227E+02  0.7816164E-02  0.1266604E+00
        -11   -1    0    0    0    0  0.00000000000E+00  0.00000000000E+00  0.45593999997E+02  0.45594000000E+02  0.51100000000E-03 0.  1.
         11   -1    0    0    0    0 -0.00000000000E+00 -0.00000000000E+00 -0.45593999997E+02  0.45594000000E+02  0.51100000000E-03 0. -1.
    9900012    2    1    2    0    0  0.90906962810E+01 -0.56284494175E+00  0.30557194166E+02  0.59302271709E+02  0.50000597609E+02 0.  0.
         12    1    1    2    0    0 -0.90906962810E+01  0.56284494175E+00 -0.30557194166E+02  0.31885728291E+02  0.00000000000E+00 0. -1.
         11    1    3    3    0    0  0.14342468544E+02  0.10794348730E+02  0.95507854358E+01  0.20333270055E+02  0.51100000000E-03 0. -1.
        -11    1    3    3    0    0  0.69629482359E+01  0.47040433117E+01  0.16164138457E+02  0.18217849597E+02  0.51100000000E-03 0.  1.
         12    1    3    3    0    0 -0.12214720499E+02 -0.16061236983E+02  0.48422702734E+01  0.20751152057E+02  0.00000000000E+00 0. -1.
</event>
<event>
 7    1  0.6061051E-012  0.5930197E+02  0.7816164E-02  0.1266605E+00
        -11   -1    0    0    0    0  0.00000000000E+00  0.00000000000E+00  0.45593999997E+02  0.45594000000E+02  0.51100000000E-03 0. -1.
         11   -1    0    0    0    0 -0.00000000000E+00 -0.00000000000E+00 -0.45593999997E+02  0.45594000000E+02  0.51100000000E-03 0.  1.
    9900012    2    1    2    0    0 -0.94253233914E+01  0.28919425070E+02  0.95681135944E+01  0.59301973826E+02  0.50000054344E+02 0.  0.
         12    1    1    2    0    0  0.94253233914E+01 -0.28919425070E+02 -0.95681135944E+01  0.31886026174E+02  0.00000000000E+00 0. -1.
         11    1    3    3    0    0  0.69168091792E+01  0.53679058127E+01  0.66514241456E+01  0.10995367455E+02  0.51100000000E-03 0. -1.
        -11    1    3    3    0    0 -0.74068761715E+01 -0.90016649044E+01  0.80425865669E+01  0.14162449810E+02  0.51100000000E-03 0.  1.
         12    1    3    3    0    0 -0.89352563991E+01  0.32553184162E+02 -0.51258971181E+01  0.34144156561E+02  0.00000000000E+00 0. -1.
</event>
<event>
 7    1  0.6061051E-012  0.5930197E+02  0.7816164E-02  0.1266605E+00
        -11   -1    0    0    0    0  0.00000000000E+00  0.00000000000E+00  0.45593999997E+02  0.45594000000E+02  0.51100000000E-03 0.  1.
         11   -1    0    0    0    0 -0.00000000000E+00 -0.00000000000E+00 -0.45593999997E+02  0.45594000000E+02  0.51100000000E-03 0. -1.
    9900012    2    1    2    0    0 -0.19445705111E+02 -0.56301054801E+01  0.24635039333E+02  0.59301973313E+02  0.50000053409E+02 0.  0.
         12    1    1    2    0    0  0.19445705111E+02  0.56301054801E+01 -0.24635039333E+02  0.31886026687E+02  0.00000000000E+00 0. -1.
         11    1    3    3    0    0 -0.18803085668E+02 -0.73586930840E+01  0.25807649775E+02  0.32767990200E+02  0.51100000000E-03 0. -1.
        -11    1    3    3    0    0 -0.48333916619E+01 -0.18217483771E+01  0.11563119396E+02  0.12664366251E+02  0.51100000000E-03 0.  1.
         12    1    3    3    0    0  0.41907722191E+01  0.35503359810E+01 -0.12735729839E+02  0.13869616862E+02  0.00000000000E+00 0. -1.
</event>
<event>
 7    1  0.6061051E-012  0.5930197E+02  0.7816164E-02  0.1266605E+00
        -11   -1    0    0    0    0  0.00000000000E+00  0.00000000000E+00  0.45593999997E+02  0.45594000000E+02  0.51100000000E-03 0.  1.
         11   -1    0    0    0    0 -0.00000000000E+00 -0.00000000000E+00 -0.45593999997E+02  0.45594000000E+02  0.51100000000E-03 0. -1.
    9900012    2    1    2    0    0 -0.26927627234E+02  0.17069520141E+02 -0.50335702006E+00  0.59301968660E+02  0.50000044924E+02 0.  0.
         12    1    1    2    0    0  0.26927627234E+02 -0.17069520141E+02  0.50335702006E+00  0.31886031340E+02  0.00000000000E+00 0. -1.
         11    1    3    3    0    0 -0.10853143502E+00  0.55117662192E+01 -0.11791900800E+02  0.13016922473E+02  0.51100000000E-03 0.  1.
        -11    1    3    3    0    0 -0.30099442544E+02 -0.26006858054E+01  0.58842217779E+01  0.30779279951E+02  0.51100000000E-03 0. -1.
         12    1    3    3    0    0  0.32803467446E+01  0.14158439727E+02  0.54043220022E+01  0.15505766236E+02  0.00000000000E+00 0. -1.
</event>
<event>
 7    1  0.6061051E-012  0.5930195E+02  0.7816164E-02  0.1266605E+00
        -11   -1    0    0    0    0  0.00000000000E+00  0.00000000000E+00  0.45593999997E+02  0.45594000000E+02  0.51100000000E-03 0.  1.
         11   -1    0    0    0    0 -0.00000000000E+00 -0.00000000000E+00 -0.45593999997E+02  0.45594000000E+02  0.51100000000E-03 0. -1.
    9900012    2    1    2    0    0  0.30918382630E+01 -0.13797457117E+02  0.28579554388E+02  0.59301949511E+02  0.50000010000E+02 0.  0.
         12    1    1    2    0    0 -0.30918382630E+01  0.13797457117E+02 -0.28579554388E+02  0.31886050489E+02  0.00000000000E+00 0. -1.
         11    1    3    3    0    0  0.17603958664E+02 -0.14974379301E+02  0.13707888415E+02  0.26870757362E+02  0.51100000000E-03 0. -1.
        -11    1    3    3    0    0  0.20201493710E+01 -0.64632885567E+01  0.12296414949E+02  0.14037696510E+02  0.51100000000E-03 0.  1.
        -12    1    3    3    0    0 -0.16532269772E+02  0.76402107409E+01  0.25752510238E+01  0.18393495639E+02  0.00000000000E+00 0.  1.
</event>
<event>
 7    1  0.6061051E-012  0.5930197E+02  0.7816164E-02  0.1266605E+00
        -11   -1    0    0    0    0  0.00000000000E+00  0.00000000000E+00  0.45593999997E+02  0.45594000000E+02  0.51100000000E-03 0. -1.
         11   -1    0    0    0    0 -0.00000000000E+00 -0.00000000000E+00 -0.45593999997E+02  0.45594000000E+02  0.51100000000E-03 0.  1.
    9900012    2    1    2    0    0 -0.10050275502E+02 -0.57428097493E+01 -0.29710793422E+02  0.59301966266E+02  0.50000040558E+02 0.  0.
         12    1    1    2    0    0  0.10050275502E+02  0.57428097493E+01  0.29710793422E+02  0.31886033734E+02  0.00000000000E+00 0. -1.
         11    1    3    3    0    0 -0.92343730964E+01  0.82816192656E+01 -0.87859889289E+00  0.12435063346E+02  0.51100000000E-03 0. -1.
        -11    1    3    3    0    0  0.62408607091E+01 -0.15730362338E+00 -0.30579003503E+02  0.31209750757E+02  0.51100000000E-03 0.  1.
         12    1    3    3    0    0 -0.70567631147E+01 -0.13867125392E+02  0.17468089736E+01  0.15657152164E+02  0.00000000000E+00 0. -1.
</event>
<event>
 7    1  0.6061051E-012  0.5930197E+02  0.7816164E-02  0.1266605E+00
        -11   -1    0    0    0    0  0.00000000000E+00  0.00000000000E+00  0.45593999997E+02  0.45594000000E+02  0.51100000000E-03 0.  1.
         11   -1    0    0    0    0 -0.00000000000E+00 -0.00000000000E+00 -0.45593999997E+02  0.45594000000E+02  0.51100000000E-03 0. -1.
    9900012    2    1    2    0    0 -0.27278013852E+02  0.97063244896E+01  0.13357257951E+02  0.59301966776E+02  0.50000041487E+02 0.  0.
         12    1    1    2    0    0  0.27278013852E+02 -0.97063244896E+01 -0.13357257951E+02  0.31886033224E+02  0.00000000000E+00 0. -1.
         11    1    3    3    0    0  0.39688070107E+01  0.33039424647E+00  0.14497961397E+02  0.15035008293E+02  0.51100000000E-03 0. -1.
        -11    1    3    3    0    0 -0.22086114862E+02  0.11155979350E+02  0.12513829895E+02  0.27728113601E+02  0.51100000000E-03 0.  1.
         12    1    3    3    0    0 -0.91607060003E+01 -0.17800491067E+01 -0.13654533341E+02  0.16538844882E+02  0.00000000000E+00 0. -1.
</event>
<event>
 7    1  0.6061051E-012  0.5930189E+02  0.7816164E-02  0.1266605E+00
        -11   -1    0    0    0    0  0.00000000000E+00  0.00000000000E+00  0.45593999997E+02  0.45594000000E+02  0.51100000000E-03 0.  1.
         11   -1    0    0    0    0 -0.00000000000E+00 -0.00000000000E+00 -0.45593999997E+02  0.45594000000E+02  0.51100000000E-03 0. -1.
    9900012    2    1    2    0    0  0.61286371007E+01 -0.29949569177E+02 -0.90657237962E+01  0.59301886494E+02  0.49999895071E+02 0.  0.
         12    1    1    2    0    0 -0.61286371007E+01  0.29949569177E+02  0.90657237962E+01  0.31886113506E+02  0.00000000000E+00 0. -1.
         11    1    3    3    0    0 -0.14964988962E+02 -0.11427770379E+02 -0.19069565718E+01  0.18925678696E+02  0.51100000000E-03 0. -1.
        -11    1    3    3    0    0  0.87622219406E+01 -0.14566102627E+02  0.93451081855E+01  0.19397910360E+02  0.51100000000E-03 0.  1.
         12    1    3    3    0    0  0.12331404122E+02 -0.39556961708E+01 -0.16503875410E+02  0.20978297437E+02  0.00000000000E+00 0. -1.
</event>
<event>
 7    1  0.6061051E-012  0.5930196E+02  0.7816164E-02  0.1266605E+00
        -11   -1    0    0    0    0  0.00000000000E+00  0.00000000000E+00  0.45593999997E+02  0.45594000000E+02  0.51100000000E-03 0. -1.
         11   -1    0    0    0    0 -0.00000000000E+00 -0.00000000000E+00 -0.45593999997E+02  0.45594000000E+02  0.51100000000E-03 0.  1.
    9900012    2    1    2    0    0  0.42847944681E+01  0.31562782425E+02 -0.14666401708E+01  0.59301957106E+02  0.50000023852E+02 0.  0.
         12    1    1    2    0    0 -0.42847944681E+01 -0.31562782425E+02  0.14666401708E+01  0.31886042894E+02  0.00000000000E+00 0. -1.
         11    1    3    3    0    0 -0.66123817438E+01  0.10954456601E+02 -0.12298348245E+02  0.17747480993E+02  0.51100000000E-03 0.  1.
        -11    1    3    3    0    0  0.11378335328E+02 -0.29221588206E+01 -0.54357708185E+01  0.12944231598E+02  0.51100000000E-03 0. -1.
         12    1    3    3    0    0 -0.48115911620E+00  0.23530484644E+02  0.16267478893E+02  0.28610244515E+02  0.00000000000E+00 0. -1.
</event>
<event>
 7    1  0.6061051E-012  0.5930195E+02  0.7816164E-02  0.1266605E+00
        -11   -1    0    0    0    0  0.00000000000E+00  0.00000000000E+00  0.45593999997E+02  0.45594000000E+02  0.51100000000E-03 0.  1.
         11   -1    0    0    0    0 -0.00000000000E+00 -0.00000000000E+00 -0.45593999997E+02  0.45594000000E+02  0.51100000000E-03 0. -1.
    9900012    2    1    2    0    0  0.18832188281E+02 -0.12201513475E+02  0.22653745695E+02  0.59301945986E+02  0.50000003572E+02 0.  0.
         12    1    1    2    0    0 -0.18832188281E+02  0.12201513475E+02 -0.22653745695E+02  0.31886054014E+02  0.00000000000E+00 0. -1.
         11    1    3    3    0    0  0.23706110080E+01 -0.24545875123E+01  0.13389500687E+02  0.13817507927E+02  0.51100000000E-03 0. -1.
        -11    1    3    3    0    0  0.38733869479E+01 -0.78526089010E+01  0.24273103363E+02  0.25804072161E+02  0.51100000000E-03 0.  1.
         12    1    3    3    0    0  0.12588190325E+02 -0.18943170616E+01 -0.15008858354E+02  0.19680365898E+02  0.00000000000E+00 0. -1.
</event>
<event>
 7    1  0.6061051E-012  0.5930196E+02  0.7816164E-02  0.1266605E+00
        -11   -1    0    0    0    0  0.00000000000E+00  0.00000000000E+00  0.45593999997E+02  0.45594000000E+02  0.51100000000E-03 0.  1.
         11   -1    0    0    0    0 -0.00000000000E+00 -0.00000000000E+00 -0.45593999997E+02  0.45594000000E+02  0.51100000000E-03 0. -1.
    9900012    2    1    2    0    0  0.94786394920E+01  0.23814211278E+02  0.18967288877E+02  0.59301963671E+02  0.50000035825E+02 0.  0.
         12    1    1    2    0    0 -0.94786394920E+01 -0.23814211278E+02 -0.18967288877E+02  0.31886036329E+02  0.00000000000E+00 0. -1.
         11    1    3    3    0    0  0.30320624668E+00  0.10952582609E+01 -0.11035011172E+02  0.11093376245E+02  0.51100000000E-03 0. -1.
        -11    1    3    3    0    0  0.16850528523E+02  0.62241874561E+01  0.80146327924E+01  0.19670159126E+02  0.51100000000E-03 0.  1.
        -12    1    3    3    0    0 -0.76750952779E+01  0.16494765561E+02  0.21987667257E+02  0.28538428300E+02  0.00000000000E+00 0.  1.
</event>
<event>
 7    1  0.6061051E-012  0.5930199E+02  0.7816164E-02  0.1266605E+00
        -11   -1    0    0    0    0  0.00000000000E+00  0.00000000000E+00  0.45593999997E+02  0.45594000000E+02  0.51100000000E-03 0.  1.
         11   -1    0    0    0    0 -0.00000000000E+00 -0.00000000000E+00 -0.45593999997E+02  0.45594000000E+02  0.51100000000E-03 0. -1.
    9900012    2    1    2    0    0 -0.20166935588E+02  0.88659127344E+01  0.23052289324E+02  0.59301988292E+02  0.50000080726E+02 0.  0.
         12    1    1    2    0    0  0.20166935588E+02 -0.88659127344E+01 -0.23052289324E+02  0.31886011708E+02  0.00000000000E+00 0. -1.
         11    1    3    3    0    0 -0.36926803368E+01  0.12738770160E+02  0.17979905851E+01  0.13384503116E+02  0.51100000000E-03 0. -1.
        -11    1    3    3    0    0 -0.56547351709E+01  0.14141273999E+02  0.19624275675E+02  0.24840770040E+02  0.51100000000E-03 0.  1.
        -12    1    3    3    0    0 -0.10819520080E+02 -0.18014131424E+02  0.16300230635E+01  0.21076715136E+02  0.00000000000E+00 0.  1.
</event>
<event>
 7    1  0.6061051E-012  0.5930194E+02  0.7816164E-02  0.1266605E+00
        -11   -1    0    0    0    0  0.00000000000E+00  0.00000000000E+00  0.45593999997E+02  0.45594000000E+02  0.51100000000E-03 0. -1.
         11   -1    0    0    0    0 -0.00000000000E+00 -0.00000000000E+00 -0.45593999997E+02  0.45594000000E+02  0.51100000000E-03 0.  1.
    9900012    2    1    2    0    0 -0.11959835295E+02 -0.26332589862E+02 -0.13426763116E+02  0.59301938517E+02  0.49999989949E+02 0.  0.
         12    1    1    2    0    0  0.11959835295E+02  0.26332589862E+02  0.13426763116E+02  0.31886061483E+02  0.00000000000E+00 0. -1.
         11    1    3    3    0    0 -0.97728535269E+01  0.35192174274E+01 -0.81265880721E+01  0.13188441580E+02  0.51100000000E-03 0. -1.
        -11    1    3    3    0    0  0.14181425289E+02 -0.17588965400E+02  0.51093579354E+01  0.23164413782E+02  0.51100000000E-03 0.  1.
         12    1    3    3    0    0 -0.16368407057E+02 -0.12262841890E+02 -0.10409532979E+02  0.22949083155E+02  0.00000000000E+00 0. -1.
</event>
<event>
 7    1  0.6061051E-012  0.5930193E+02  0.7816164E-02  0.1266605E+00
        -11   -1    0    0    0    0  0.00000000000E+00  0.00000000000E+00  0.45593999997E+02  0.45594000000E+02  0.51100000000E-03 0.  1.
         11   -1    0    0    0    0 -0.00000000000E+00 -0.00000000000E+00 -0.45593999997E+02  0.45594000000E+02  0.51100000000E-03 0. -1.
    9900012    2    1    2    0    0 -0.28606452190E+02  0.14081233720E+02 -0.33330464428E+00  0.59301931851E+02  0.49999977793E+02 0.  0.
         12    1    1    2    0    0  0.28606452190E+02 -0.14081233720E+02  0.33330464428E+00  0.31886068149E+02  0.00000000000E+00 0. -1.
         11    1    3    3    0    0 -0.27672361860E+01  0.18686936835E+01  0.71738586572E+01  0.79128920431E+01  0.51100000000E-03 0.  1.
        -11    1    3    3    0    0  0.97925354576E+01  0.23327189534E+01  0.63495993537E+01  0.11901795689E+02  0.51100000000E-03 0. -1.
         12    1    3    3    0    0 -0.35631751462E+02  0.98798210833E+01 -0.13856762655E+02  0.39487244119E+02  0.00000000000E+00 0. -1.
</event>
<event>
 7    1  0.6061051E-012  0.5930192E+02  0.7816164E-02  0.1266605E+00
        -11   -1    0    0    0    0  0.00000000000E+00  0.00000000000E+00  0.45593999997E+02  0.45594000000E+02  0.51100000000E-03 0.  1.
         11   -1    0    0    0    0 -0.00000000000E+00 -0.00000000000E+00 -0.45593999997E+02  0.45594000000E+02  0.51100000000E-03 0. -1.
    9900012    2    1    2    0    0  0.47219957531E+01  0.13126457652E+02  0.28672654749E+02  0.59301917382E+02  0.49999951404E+02 0.  0.
         12    1    1    2    0    0 -0.47219957531E+01 -0.13126457652E+02 -0.28672654749E+02  0.31886082618E+02  0.00000000000E+00 0. -1.
         11    1    3    3    0    0 -0.21244858829E+02  0.12162417554E+02  0.15144577082E+02  0.28785875749E+02  0.51100000000E-03 0. -1.
        -11    1    3    3    0    0  0.12984995727E+01 -0.21250420666E+01  0.11205466073E+01  0.27308478327E+01  0.51100000000E-03 0.  1.
        -12    1    3    3    0    0  0.24668355009E+02  0.30890821649E+01  0.12407531060E+02  0.27785193799E+02  0.00000000000E+00 0.  1.
</event>
<event>
 7    1  0.6061051E-012  0.5930194E+02  0.7816164E-02  0.1266605E+00
        -11   -1    0    0    0    0  0.00000000000E+00  0.00000000000E+00  0.45593999997E+02  0.45594000000E+02  0.51100000000E-03 0.  1.
         11   -1    0    0    0    0 -0.00000000000E+00 -0.00000000000E+00 -0.45593999997E+02  0.45594000000E+02  0.51100000000E-03 0. -1.
    9900012    2    1    2    0    0 -0.13721236456E+02  0.25682311748E+02  0.12994905257E+02  0.59301936756E+02  0.49999986738E+02 0.  0.
         12    1    1    2    0    0  0.13721236456E+02 -0.25682311748E+02 -0.12994905257E+02  0.31886063244E+02  0.00000000000E+00 0. -1.
         11    1    3    3    0    0 -0.68619467363E+01 -0.48817765461E+01  0.32181825225E+01  0.90152512038E+01  0.51100000000E-03 0. -1.
        -11    1    3    3    0    0 -0.18356163099E+01 -0.46640733965E+01  0.13602951955E+02  0.14497012452E+02  0.51100000000E-03 0.  1.
         12    1    3    3    0    0 -0.50236734093E+01  0.35228161690E+02 -0.38262292205E+01  0.35789673101E+02  0.00000000000E+00 0. -1.
</event>
<event>
 7    1  0.6061051E-012  0.5930194E+02  0.7816164E-02  0.1266605E+00
        -11   -1    0    0    0    0  0.00000000000E+00  0.00000000000E+00  0.45593999997E+02  0.45594000000E+02  0.51100000000E-03 0.  1.
         11   -1    0    0    0    0 -0.00000000000E+00 -0.00000000000E+00 -0.45593999997E+02  0.45594000000E+02  0.51100000000E-03 0. -1.
    9900012    2    1    2    0    0 -0.99798770868E+01 -0.85754604163E+01  0.29044518282E+02  0.59301944893E+02  0.50000001579E+02 0.  0.
         12    1    1    2    0    0  0.99798770868E+01  0.85754604163E+01 -0.29044518282E+02  0.31886055107E+02  0.00000000000E+00 0. -1.
         11    1    3    3    0    0 -0.48059736970E+00  0.51354314311E+01  0.11864959824E+02  0.12937577119E+02  0.51100000000E-03 0. -1.
        -11    1    3    3    0    0 -0.16667015198E+02 -0.40355029009E+01  0.26204177105E+02  0.31316666126E+02  0.51100000000E-03 0.  1.
        -12    1    3    3    0    0  0.71677354804E+01 -0.96753889464E+01 -0.90246186467E+01  0.15047701648E+02  0.00000000000E+00 0.  1.
</event>
<event>
 7    1  0.6061051E-012  0.5930198E+02  0.7816164E-02  0.1266605E+00
        -11   -1    0    0    0    0  0.00000000000E+00  0.00000000000E+00  0.45593999997E+02  0.45594000000E+02  0.51100000000E-03 0.  1.
         11   -1    0    0    0    0 -0.00000000000E+00 -0.00000000000E+00 -0.45593999997E+02  0.45594000000E+02  0.51100000000E-03 0. -1.
    9900012    2    1    2    0    0 -0.27518887134E+02 -0.82621783914E+01  0.13826256784E+02  0.59301982414E+02  0.50000070006E+02 0.  0.
         12    1    1    2    0    0  0.27518887134E+02  0.82621783914E+01 -0.13826256784E+02  0.31886017586E+02  0.00000000000E+00 0. -1.
         11    1    3    3    0    0 -0.25670753453E+02  0.70020971644E+00  0.51672333089E+00  0.25685499407E+02  0.51100000000E-03 0. -1.
        -11    1    3    3    0    0 -0.74100672150E+01 -0.97723471171E+00 -0.75344355943E+01  0.10612813190E+02  0.51100000000E-03 0.  1.
        -12    1    3    3    0    0  0.55619335343E+01 -0.79851533961E+01  0.20843969048E+02  0.23003669817E+02  0.00000000000E+00 0.  1.
</event>
<event>
 7    1  0.6061051E-012  0.5930194E+02  0.7816164E-02  0.1266605E+00
        -11   -1    0    0    0    0  0.00000000000E+00  0.00000000000E+00  0.45593999997E+02  0.45594000000E+02  0.51100000000E-03 0.  1.
         11   -1    0    0    0    0 -0.00000000000E+00 -0.00000000000E+00 -0.45593999997E+02  0.45594000000E+02  0.51100000000E-03 0. -1.
    9900012    2    1    2    0    0  0.49239245647E+01  0.15129790680E+02  0.27632682840E+02  0.59301940976E+02  0.49999994434E+02 0.  0.
         12    1    1    2    0    0 -0.49239245647E+01 -0.15129790680E+02 -0.27632682840E+02  0.31886059024E+02  0.00000000000E+00 0. -1.
         11    1    3    3    0    0  0.21465218776E+01  0.46025349973E+01  0.65974665158E+01  0.83257101355E+01  0.51100000000E-03 0. -1.
        -11    1    3    3    0    0 -0.13888472515E+01  0.20772166840E+02  0.30153682421E+02  0.36642275799E+02  0.51100000000E-03 0.  1.
         12    1    3    3    0    0  0.41662499386E+01 -0.10244911158E+02 -0.91184660965E+01  0.14333955041E+02  0.00000000000E+00 0. -1.
</event>
<event>
 7    1  0.6061051E-012  0.5930195E+02  0.7816164E-02  0.1266605E+00
        -11   -1    0    0    0    0  0.00000000000E+00  0.00000000000E+00  0.45593999997E+02  0.45594000000E+02  0.51100000000E-03 0. -1.
         11   -1    0    0    0    0 -0.00000000000E+00 -0.00000000000E+00 -0.45593999997E+02  0.45594000000E+02  0.51100000000E-03 0.  1.
    9900012    2    1    2    0    0  0.70171449963E+01  0.48332166987E+01 -0.30726538253E+02  0.59301945673E+02  0.50000003000E+02 0.  0.
         12    1    1    2    0    0 -0.70171449963E+01 -0.48332166987E+01  0.30726538253E+02  0.31886054327E+02  0.00000000000E+00 0. -1.
         11    1    3    3    0    0  0.93749026809E+01  0.14038112157E+02 -0.10074825789E+02  0.19658573401E+02  0.51100000000E-03 0. -1.
        -11    1    3    3    0    0  0.58156355868E+00  0.44412185010E+01  0.72056186595E+01  0.84843136714E+01  0.51100000000E-03 0.  1.
        -12    1    3    3    0    0 -0.29393212432E+01 -0.13646113959E+02 -0.27857331124E+02  0.31159058601E+02  0.00000000000E+00 0.  1.
</event>
<event>
 7    1  0.6061051E-012  0.5930194E+02  0.7816164E-02  0.1266605E+00
        -11   -1    0    0    0    0  0.00000000000E+00  0.00000000000E+00  0.45593999997E+02  0.45594000000E+02  0.51100000000E-03 0.  1.
         11   -1    0    0    0    0 -0.00000000000E+00 -0.00000000000E+00 -0.45593999997E+02  0.45594000000E+02  0.51100000000E-03 0. -1.
    9900012    2    1    2    0    0 -0.31043698978E+02  0.65543876760E+01  0.31701134721E+01  0.59301939354E+02  0.49999991477E+02 0.  0.
         12    1    1    2    0    0  0.31043698978E+02 -0.65543876760E+01 -0.31701134721E+01  0.31886060646E+02  0.00000000000E+00 0. -1.
         11    1    3    3    0    0 -0.14831362534E+02 -0.11738243570E+02  0.64925749676E+01  0.19997730038E+02  0.51100000000E-03 0. -1.
        -11    1    3    3    0    0 -0.17317078579E+02 -0.13224076530E+01 -0.79806974027E+01  0.19113385461E+02  0.51100000000E-03 0.  1.
         12    1    3    3    0    0  0.11047421339E+01  0.19615038899E+02  0.46582359072E+01  0.20190823855E+02  0.00000000000E+00 0. -1.
</event>
<event>
 7    1  0.6061051E-012  0.5930211E+02  0.7816164E-02  0.1266604E+00
        -11   -1    0    0    0    0  0.00000000000E+00  0.00000000000E+00  0.45593999997E+02  0.45594000000E+02  0.51100000000E-03 0.  1.
         11   -1    0    0    0    0 -0.00000000000E+00 -0.00000000000E+00 -0.45593999997E+02  0.45594000000E+02  0.51100000000E-03 0. -1.
    9900012    2    1    2    0    0 -0.14605349419E+02  0.15401481481E+02  0.23794701848E+02  0.59302114416E+02  0.50000310746E+02 0.  0.
         12    1    1    2    0    0  0.14605349419E+02 -0.15401481481E+02 -0.23794701848E+02  0.31885885584E+02  0.00000000000E+00 0. -1.
         11    1    3    3    0    0 -0.86660144784E+01 -0.49705707386E+01  0.12560900382E+01  0.10068969304E+02  0.51100000000E-03 0. -1.
        -11    1    3    3    0    0  0.91381251987E+01 -0.75212875209E+01  0.84168149950E+01  0.14523011845E+02  0.51100000000E-03 0.  1.
         12    1    3    3    0    0 -0.15077460139E+02  0.27893339740E+02  0.14121796815E+02  0.34710133267E+02  0.00000000000E+00 0. -1.
</event>
<event>
 7    1  0.6061051E-012  0.5930194E+02  0.7816164E-02  0.1266605E+00
        -11   -1    0    0    0    0  0.00000000000E+00  0.00000000000E+00  0.45593999997E+02  0.45594000000E+02  0.51100000000E-03 0. -1.
         11   -1    0    0    0    0 -0.00000000000E+00 -0.00000000000E+00 -0.45593999997E+02  0.45594000000E+02  0.51100000000E-03 0.  1.
    9900012    2    1    2    0    0 -0.14052538692E+02 -0.30135090663E+01 -0.28463406876E+02  0.59301943305E+02  0.49999998681E+02 0.  0.
         12    1    1    2    0    0  0.14052538692E+02  0.30135090663E+01  0.28463406876E+02  0.31886056695E+02  0.00000000000E+00 0. -1.
         11    1    3    3    0    0 -0.57068793412E+01  0.54458495937E+01 -0.13398249740E+02  0.15547953112E+02  0.51100000000E-03 0. -1.
        -11    1    3    3    0    0  0.14826538215E+02  0.27666269285E+01 -0.79060477995E+01  0.17028976835E+02  0.51100000000E-03 0.  1.
         12    1    3    3    0    0 -0.23172197566E+02 -0.11225985588E+02 -0.71591093369E+01  0.26725013358E+02  0.00000000000E+00 0. -1.
</event>
<event>
 7    1  0.6061051E-012  0.5930194E+02  0.7816164E-02  0.1266605E+00
        -11   -1    0    0    0    0  0.00000000000E+00  0.00000000000E+00  0.45593999997E+02  0.45594000000E+02  0.51100000000E-03 0.  1.
         11   -1    0    0    0    0 -0.00000000000E+00 -0.00000000000E+00 -0.45593999997E+02  0.45594000000E+02  0.51100000000E-03 0. -1.
    9900012    2    1    2    0    0  0.12997211453E+02  0.16565480190E+02  0.23945315528E+02  0.59301940739E+02  0.49999994002E+02 0.  0.
         12    1    1    2    0    0 -0.12997211453E+02 -0.16565480190E+02 -0.23945315528E+02  0.31886059261E+02  0.00000000000E+00 0. -1.
         11    1    3    3    0    0 -0.58414656829E+00  0.66716826990E+01  0.76570939704E+01  0.10172692150E+02  0.51100000000E-03 0. -1.
        -11    1    3    3    0    0  0.16925298937E+02  0.16299288700E+02  0.27261487603E+02  0.35990571860E+02  0.51100000000E-03 0.  1.
         12    1    3    3    0    0 -0.33439409151E+01 -0.64054912095E+01 -0.10973266045E+02  0.13138676729E+02  0.00000000000E+00 0. -1.
</event>
<event>
 7    1  0.6061051E-012  0.5930196E+02  0.7816164E-02  0.1266605E+00
        -11   -1    0    0    0    0  0.00000000000E+00  0.00000000000E+00  0.45593999997E+02  0.45594000000E+02  0.51100000000E-03 0. -1.
         11   -1    0    0    0    0 -0.00000000000E+00 -0.00000000000E+00 -0.45593999997E+02  0.45594000000E+02  0.51100000000E-03 0.  1.
    9900012    2    1    2    0    0 -0.14090499656E+02  0.28598909388E+02 -0.52864563793E+00  0.59301964421E+02  0.50000037193E+02 0.  0.
         12    1    1    2    0    0  0.14090499656E+02 -0.28598909388E+02  0.52864563793E+00  0.31886035579E+02  0.00000000000E+00 0. -1.
         11    1    3    3    0    0 -0.14501702853E+01 -0.66366131480E+01  0.63311213607E+01  0.92860500687E+01  0.51100000000E-03 0. -1.
        -11    1    3    3    0    0 -0.95173816015E+01  0.35260827124E+01 -0.14068747451E+02  0.17347722241E+02  0.51100000000E-03 0.  1.
         12    1    3    3    0    0 -0.31229477689E+01  0.31709439824E+02  0.72089804522E+01  0.32668192112E+02  0.00000000000E+00 0. -1.
</event>
<event>
 7    1  0.6061051E-012  0.5930195E+02  0.7816164E-02  0.1266605E+00
        -11   -1    0    0    0    0  0.00000000000E+00  0.00000000000E+00  0.45593999997E+02  0.45594000000E+02  0.51100000000E-03 0. -1.
         11   -1    0    0    0    0 -0.00000000000E+00 -0.00000000000E+00 -0.45593999997E+02  0.45594000000E+02  0.51100000000E-03 0.  1.
    9900012    2    1    2    0    0 -0.10406118787E+01  0.38825135717E+01 -0.31631684449E+02  0.59301949041E+02  0.50000009142E+02 0.  0.
         12    1    1    2    0    0  0.10406118787E+01 -0.38825135717E+01  0.31631684449E+02  0.31886050959E+02  0.00000000000E+00 0. -1.
         11    1    3    3    0    0 -0.28064876953E+01 -0.35298287396E+01 -0.42542771910E+01  0.61995918248E+01  0.51100000000E-03 0. -1.
        -11    1    3    3    0    0  0.18512807635E+02 -0.98636061584E+01 -0.89979938718E+01  0.22824957108E+02  0.51100000000E-03 0.  1.
         12    1    3    3    0    0 -0.16746931819E+02  0.17275948470E+02 -0.18379413386E+02  0.30277400108E+02  0.00000000000E+00 0. -1.
</event>
<event>
 7    1  0.6061051E-012  0.5930195E+02  0.7816164E-02  0.1266605E+00
        -11   -1    0    0    0    0  0.00000000000E+00  0.00000000000E+00  0.45593999997E+02  0.45594000000E+02  0.51100000000E-03 0. -1.
         11   -1    0    0    0    0 -0.00000000000E+00 -0.00000000000E+00 -0.45593999997E+02  0.45594000000E+02  0.51100000000E-03 0.  1.
    9900012    2    1    2    0    0 -0.11952326001E+01 -0.44418776788E+01 -0.31552512864E+02  0.59301954050E+02  0.50000018278E+02 0.  0.
         12    1    1    2    0    0  0.11952326001E+01  0.44418776788E+01  0.31552512864E+02  0.31886045950E+02  0.00000000000E+00 0. -1.
         11    1    3    3    0    0  0.60064889965E+01 -0.13907379095E+02 -0.12016739177E+02  0.19336367913E+02  0.51100000000E-03 0. -1.
        -11    1    3    3    0    0 -0.85938935611E+00 -0.10951110231E+02  0.30053681921E-01  0.10984819928E+02  0.51100000000E-03 0.  1.
         12    1    3    3    0    0 -0.63423322405E+01  0.20416611648E+02 -0.19565827369E+02  0.28980766209E+02  0.00000000000E+00 0. -1.
</event>
<event>
 7    1  0.6061051E-012  0.5930196E+02  0.7816164E-02  0.1266605E+00
        -11   -1    0    0    0    0  0.00000000000E+00  0.00000000000E+00  0.45593999997E+02  0.45594000000E+02  0.51100000000E-03 0. -1.
         11   -1    0    0    0    0 -0.00000000000E+00 -0.00000000000E+00 -0.45593999997E+02  0.45594000000E+02  0.51100000000E-03 0.  1.
    9900012    2    1    2    0    0  0.87480903163E+01 -0.29201751008E+02 -0.93513879997E+01  0.59301955974E+02  0.50000021788E+02 0.  0.
         12    1    1    2    0    0 -0.87480903163E+01  0.29201751008E+02  0.93513879997E+01  0.31886044026E+02  0.00000000000E+00 0. -1.
         11    1    3    3    0    0  0.11048085317E+02  0.61702199137E+01  0.67617656307E+01  0.14347587869E+02  0.51100000000E-03 0. -1.
        -11    1    3    3    0    0 -0.19168874455E+01 -0.18068283746E+01  0.47501577699E+01  0.54316742681E+01  0.51100000000E-03 0.  1.
        -12    1    3    3    0    0 -0.38310755480E+00 -0.33565142547E+02 -0.20863311400E+02  0.39522693837E+02  0.00000000000E+00 0.  1.
</event>
<event>
 7    1  0.6061051E-012  0.5930197E+02  0.7816164E-02  0.1266605E+00
        -11   -1    0    0    0    0  0.00000000000E+00  0.00000000000E+00  0.45593999997E+02  0.45594000000E+02  0.51100000000E-03 0.  1.
         11   -1    0    0    0    0 -0.00000000000E+00 -0.00000000000E+00 -0.45593999997E+02  0.45594000000E+02  0.51100000000E-03 0. -1.
    9900012    2    1    2    0    0 -0.81712145301E+00 -0.25160819158E+02  0.19569986242E+02  0.59301970619E+02  0.50000048497E+02 0.  0.
         12    1    1    2    0    0  0.81712145301E+00  0.25160819158E+02 -0.19569986242E+02  0.31886029381E+02  0.00000000000E+00 0. -1.
         11    1    3    3    0    0  0.56125966126E+01  0.43501269010E+01 -0.13901941410E+01  0.72358472069E+01  0.51100000000E-03 0. -1.
        -11    1    3    3    0    0 -0.44190771034E+01  0.83038369404E+01  0.69249855874E+01  0.11680641079E+02  0.51100000000E-03 0.  1.
        -12    1    3    3    0    0 -0.20106409623E+01 -0.37814782999E+02  0.14035194796E+02  0.40385482333E+02  0.00000000000E+00 0.  1.
</event>
<event>
 7    1  0.6061051E-012  0.5930195E+02  0.7816164E-02  0.1266605E+00
        -11   -1    0    0    0    0  0.00000000000E+00  0.00000000000E+00  0.45593999997E+02  0.45594000000E+02  0.51100000000E-03 0.  1.
         11   -1    0    0    0    0 -0.00000000000E+00 -0.00000000000E+00 -0.45593999997E+02  0.45594000000E+02  0.51100000000E-03 0. -1.
    9900012    2    1    2    0    0  0.16504348776E+02 -0.12908702625E+02  0.24035219611E+02  0.59301954247E+02  0.50000018638E+02 0.  0.
         12    1    1    2    0    0 -0.16504348776E+02  0.12908702625E+02 -0.24035219611E+02  0.31886045753E+02  0.00000000000E+00 0. -1.
         11    1    3    3    0    0 -0.13471871566E+01  0.32111820017E-01  0.51239939565E+01  0.52982316608E+01  0.51100000000E-03 0. -1.
        -11    1    3    3    0    0  0.18156018595E+02 -0.29007165843E+02  0.15543743025E+02  0.37585431073E+02  0.51100000000E-03 0.  1.
         12    1    3    3    0    0 -0.30448266244E+00  0.16066351398E+02  0.33674826301E+01  0.16418291513E+02  0.00000000000E+00 0. -1.
</event>
<event>
 7    1  0.6061051E-012  0.5930195E+02  0.7816164E-02  0.1266605E+00
        -11   -1    0    0    0    0  0.00000000000E+00  0.00000000000E+00  0.45593999997E+02  0.45594000000E+02  0.51100000000E-03 0.  1.
         11   -1    0    0    0    0 -0.00000000000E+00 -0.00000000000E+00 -0.45593999997E+02  0.45594000000E+02  0.51100000000E-03 0. -1.
    9900012    2    1    2    0    0 -0.16384046960E+02  0.23401332559E+00  0.27353770058E+02  0.59301945158E+02  0.50000002061E+02 0.  0.
         12    1    1    2    0    0  0.16384046960E+02 -0.23401332559E+00 -0.27353770058E+02  0.31886054842E+02  0.00000000000E+00 0. -1.
         11    1    3    3    0    0  0.38153305700E-01  0.65631701701E+01  0.19886132565E+02  0.20941225537E+02  0.51100000000E-03 0. -1.
        -11    1    3    3    0    0  0.81448082607E+01 -0.89205761085E+01  0.63148003877E+01  0.13630527646E+02  0.51100000000E-03 0.  1.
         12    1    3    3    0    0 -0.24567008526E+02  0.25914192640E+01  0.11528371054E+01  0.24730191975E+02  0.00000000000E+00 0. -1.
</event>
<event>
 7    1  0.6061051E-012  0.5930194E+02  0.7816164E-02  0.1266605E+00
        -11   -1    0    0    0    0  0.00000000000E+00  0.00000000000E+00  0.45593999997E+02  0.45594000000E+02  0.51100000000E-03 0. -1.
         11   -1    0    0    0    0 -0.00000000000E+00 -0.00000000000E+00 -0.45593999997E+02  0.45594000000E+02  0.51100000000E-03 0.  1.
    9900012    2    1    2    0    0 -0.95391225516E+01 -0.23119173795E+02  0.19779524905E+02  0.59301942522E+02  0.49999997254E+02 0.  0.
         12    1    1    2    0    0  0.95391225516E+01  0.23119173795E+02 -0.19779524905E+02  0.31886057478E+02  0.00000000000E+00 0. -1.
         11    1    3    3    0    0 -0.21631530591E+01  0.67559325058E+00 -0.25681393625E+01  0.34250543709E+01  0.51100000000E-03 0. -1.
        -11    1    3    3    0    0 -0.12911822600E+02  0.10010065042E+02  0.11374355331E+02  0.19907097338E+02  0.51100000000E-03 0.  1.
        -12    1    3    3    0    0  0.55358531070E+01 -0.33804832087E+02  0.10973308937E+02  0.35969790813E+02  0.00000000000E+00 0.  1.
</event>
<event>
 7    1  0.6061051E-012  0.5930194E+02  0.7816164E-02  0.1266605E+00
        -11   -1    0    0    0    0  0.00000000000E+00  0.00000000000E+00  0.45593999997E+02  0.45594000000E+02  0.51100000000E-03 0. -1.
         11   -1    0    0    0    0 -0.00000000000E+00 -0.00000000000E+00 -0.45593999997E+02  0.45594000000E+02  0.51100000000E-03 0.  1.
    9900012    2    1    2    0    0 -0.17198000706E+02  0.93421322509E+01 -0.25172881900E+02  0.59301942758E+02  0.49999997685E+02 0.  0.
         12    1    1    2    0    0  0.17198000706E+02 -0.93421322509E+01  0.25172881900E+02  0.31886057242E+02  0.00000000000E+00 0. -1.
         11    1    3    3    0    0  0.35773505545E+01 -0.98268650319E+01 -0.19137524791E+02  0.21808474700E+02  0.51100000000E-03 0. -1.
        -11    1    3    3    0    0 -0.74932846314E+01  0.46113998101E+01 -0.13755650912E+02  0.16328877949E+02  0.51100000000E-03 0.  1.
        -12    1    3    3    0    0 -0.13282066629E+02  0.14557597473E+02  0.77202938031E+01  0.21164590110E+02  0.00000000000E+00 0.  1.
</event>
<event>
 7    1  0.6061051E-012  0.5930193E+02  0.7816164E-02  0.1266605E+00
        -11   -1    0    0    0    0  0.00000000000E+00  0.00000000000E+00  0.45593999997E+02  0.45594000000E+02  0.51100000000E-03 0. -1.
         11   -1    0    0    0    0 -0.00000000000E+00 -0.00000000000E+00 -0.45593999997E+02  0.45594000000E+02  0.51100000000E-03 0.  1.
    9900012    2    1    2    0    0 -0.52527623968E+01  0.92784433780E+01 -0.30050636424E+02  0.59301925080E+02  0.49999965444E+02 0.  0.
         12    1    1    2    0    0  0.52527623968E+01 -0.92784433780E+01  0.30050636424E+02  0.31886074920E+02  0.00000000000E+00 0. -1.
         11    1    3    3    0    0  0.29550504244E+01  0.12373968568E+01  0.63379170855E+01  0.71015961048E+01  0.51100000000E-03 0. -1.
        -11    1    3    3    0    0 -0.15107676884E+02 -0.15062773180E+01 -0.13590918918E+01  0.15243290433E+02  0.51100000000E-03 0.  1.
        -12    1    3    3    0    0  0.68998640629E+01  0.95473238392E+01 -0.35029461618E+02  0.36957038542E+02  0.00000000000E+00 0.  1.
</event>
<event>
 7    1  0.6061051E-012  0.5930193E+02  0.7816164E-02  0.1266605E+00
        -11   -1    0    0    0    0  0.00000000000E+00  0.00000000000E+00  0.45593999997E+02  0.45594000000E+02  0.51100000000E-03 0. -1.
         11   -1    0    0    0    0 -0.00000000000E+00 -0.00000000000E+00 -0.45593999997E+02  0.45594000000E+02  0.51100000000E-03 0.  1.
    9900012    2    1    2    0    0 -0.18381110978E+02  0.22826895337E+02 -0.12561402438E+02  0.59301933721E+02  0.49999981204E+02 0.  0.
         12    1    1    2    0    0  0.18381110978E+02 -0.22826895337E+02  0.12561402438E+02  0.31886066279E+02  0.00000000000E+00 0. -1.
         11    1    3    3    0    0 -0.11329985964E+02  0.45739072937E+01 -0.16820279349E+01  0.12333629965E+02  0.51100000000E-03 0. -1.
        -11    1    3    3    0    0 -0.17191231239E+02 -0.53273032857E+01 -0.11382852629E+02  0.21295255951E+02  0.51100000000E-03 0.  1.
         12    1    3    3    0    0  0.10140106224E+02  0.23580291329E+02  0.50347812629E+00  0.25673047805E+02  0.00000000000E+00 0. -1.
</event>
<event>
 7    1  0.6061051E-012  0.5930194E+02  0.7816164E-02  0.1266605E+00
        -11   -1    0    0    0    0  0.00000000000E+00  0.00000000000E+00  0.45593999997E+02  0.45594000000E+02  0.51100000000E-03 0. -1.
         11   -1    0    0    0    0 -0.00000000000E+00 -0.00000000000E+00 -0.45593999997E+02  0.45594000000E+02  0.51100000000E-03 0.  1.
    9900012    2    1    2    0    0 -0.29729568115E+02  0.90724243092E+01 -0.71109031720E+01  0.59301936476E+02  0.49999986227E+02 0.  0.
         12    1    1    2    0    0  0.29729568115E+02 -0.90724243092E+01  0.71109031720E+01  0.31886063524E+02  0.00000000000E+00 0. -1.
         11    1    3    3    0    0 -0.13698872993E+02 -0.15126571578E+02  0.30526990462E+01  0.20634710096E+02  0.51100000000E-03 0. -1.
        -11    1    3    3    0    0 -0.85783229979E+01  0.17066532149E+02 -0.17582064825E+02  0.25961185428E+02  0.51100000000E-03 0.  1.
        -12    1    3    3    0    0 -0.74523721235E+01  0.71324637383E+01  0.74184626065E+01  0.12706040953E+02  0.00000000000E+00 0.  1.
</event>
<event>
 7    1  0.6061051E-012  0.5930195E+02  0.7816164E-02  0.1266605E+00
        -11   -1    0    0    0    0  0.00000000000E+00  0.00000000000E+00  0.45593999997E+02  0.45594000000E+02  0.51100000000E-03 0.  1.
         11   -1    0    0    0    0 -0.00000000000E+00 -0.00000000000E+00 -0.45593999997E+02  0.45594000000E+02  0.51100000000E-03 0. -1.
    9900012    2    1    2    0    0  0.75125011927E+01 -0.25304390219E+02  0.17887721864E+02  0.59301946120E+02  0.50000003816E+02 0.  0.
         12    1    1    2    0    0 -0.75125011927E+01  0.25304390219E+02 -0.17887721864E+02  0.31886053880E+02  0.00000000000E+00 0. -1.
         11    1    3    3    0    0  0.37455201103E+01 -0.64699268092E+01  0.10221809163E+02  0.12663895792E+02  0.51100000000E-03 0. -1.
        -11    1    3    3    0    0  0.13818932198E+02 -0.16270717436E+02  0.20864884357E+02  0.29850335551E+02  0.51100000000E-03 0.  1.
         12    1    3    3    0    0 -0.10051951116E+02 -0.25637459743E+01 -0.13198971656E+02  0.16787714777E+02  0.00000000000E+00 0. -1.
</event>
<event>
 7    1  0.6061051E-012  0.5930195E+02  0.7816164E-02  0.1266605E+00
        -11   -1    0    0    0    0  0.00000000000E+00  0.00000000000E+00  0.45593999997E+02  0.45594000000E+02  0.51100000000E-03 0.  1.
         11   -1    0    0    0    0 -0.00000000000E+00 -0.00000000000E+00 -0.45593999997E+02  0.45594000000E+02  0.51100000000E-03 0. -1.
    9900012    2    1    2    0    0  0.13099052503E+02 -0.79044618096E+01  0.27975959336E+02  0.59301952992E+02  0.50000016350E+02 0.  0.
         12    1    1    2    0    0 -0.13099052503E+02  0.79044618096E+01 -0.27975959336E+02  0.31886047008E+02  0.00000000000E+00 0. -1.
         11    1    3    3    0    0  0.17740095294E+02 -0.69319674872E+01  0.30154734874E+02  0.35666107019E+02  0.51100000000E-03 0. -1.
        -11    1    3    3    0    0  0.73587894618E+01  0.29645060182E+01  0.47339886509E+01  0.92385457234E+01  0.51100000000E-03 0.  1.
         12    1    3    3    0    0 -0.11999832252E+02 -0.39370003407E+01 -0.69127641888E+01  0.14397300250E+02  0.00000000000E+00 0. -1.
</event>
<event>
 7    1  0.6061051E-012  0.5930194E+02  0.7816164E-02  0.1266605E+00
        -11   -1    0    0    0    0  0.00000000000E+00  0.00000000000E+00  0.45593999997E+02  0.45594000000E+02  0.51100000000E-03 0.  1.
         11   -1    0    0    0    0 -0.00000000000E+00 -0.00000000000E+00 -0.45593999997E+02  0.45594000000E+02  0.51100000000E-03 0. -1.
    9900012    2    1    2    0    0  0.10133913678E+02 -0.20986015729E+02  0.21762624870E+02  0.59301938722E+02  0.49999990324E+02 0.  0.
         12    1    1    2    0    0 -0.10133913678E+02  0.20986015729E+02 -0.21762624870E+02  0.31886061278E+02  0.00000000000E+00 0. -1.
         11    1    3    3    0    0  0.84875621582E+01 -0.10452044192E+02  0.16652777733E+02  0.21414923433E+02  0.51100000000E-03 0. -1.
        -11    1    3    3    0    0  0.48741796391E+01 -0.28312559272E+00  0.19400968733E+02  0.20005883517E+02  0.51100000000E-03 0.  1.
         12    1    3    3    0    0 -0.32278281196E+01 -0.10250845944E+02 -0.14291121596E+02  0.17881131771E+02  0.00000000000E+00 0. -1.
</event>
<event>
 7    1  0.6061051E-012  0.5930194E+02  0.7816164E-02  0.1266605E+00
        -11   -1    0    0    0    0  0.00000000000E+00  0.00000000000E+00  0.45593999997E+02  0.45594000000E+02  0.51100000000E-03 0.  1.
         11   -1    0    0    0    0 -0.00000000000E+00 -0.00000000000E+00 -0.45593999997E+02  0.45594000000E+02  0.51100000000E-03 0. -1.
    9900012    2    1    2    0    0 -0.21945307280E+02 -0.20727278397E+02  0.10271516213E+02  0.59301943068E+02  0.49999998249E+02 0.  0.
         12    1    1    2    0    0  0.21945307280E+02  0.20727278397E+02 -0.10271516213E+02  0.31886056932E+02  0.00000000000E+00 0. -1.
         11    1    3    3    0    0 -0.36923809828E+01  0.79002279248E+01 -0.11871961058E+02  0.14730605494E+02  0.51100000000E-03 0. -1.
        -11    1    3    3    0    0 -0.14261813298E+01 -0.71342478174E+00 -0.30061423210E+01  0.34029193379E+01  0.51100000000E-03 0.  1.
        -12    1    3    3    0    0 -0.16826744967E+02 -0.27914081540E+02  0.25149619592E+02  0.41168418236E+02  0.00000000000E+00 0.  1.
</event>
<event>
 7    1  0.6061051E-012  0.5930193E+02  0.7816164E-02  0.1266605E+00
        -11   -1    0    0    0    0  0.00000000000E+00  0.00000000000E+00  0.45593999997E+02  0.45594000000E+02  0.51100000000E-03 0.  1.
         11   -1    0    0    0    0 -0.00000000000E+00 -0.00000000000E+00 -0.45593999997E+02  0.45594000000E+02  0.51100000000E-03 0. -1.
    9900012    2    1    2    0    0  0.26931919930E+02 -0.16157773651E+02  0.55063110035E+01  0.59301930607E+02  0.49999975523E+02 0.  0.
         12    1    1    2    0    0 -0.26931919930E+02  0.16157773651E+02 -0.55063110035E+01  0.31886069393E+02  0.00000000000E+00 0. -1.
         11    1    3    3    0    0  0.30210725373E+02 -0.12627821182E+02 -0.77120644874E+01  0.33639645276E+02  0.51100000000E-03 0. -1.
        -11    1    3    3    0    0  0.36635503141E+01 -0.88031761796E+01  0.13967927949E+02  0.16912141295E+02  0.51100000000E-03 0.  1.
        -12    1    3    3    0    0 -0.69423557565E+01  0.52732237109E+01 -0.74955245798E+00  0.87501440355E+01  0.00000000000E+00 0.  1.
</event>
<event>
 7    1  0.6061051E-012  0.5930193E+02  0.7816164E-02  0.1266605E+00
        -11   -1    0    0    0    0  0.00000000000E+00  0.00000000000E+00  0.45593999997E+02  0.45594000000E+02  0.51100000000E-03 0. -1.
         11   -1    0    0    0    0 -0.00000000000E+00 -0.00000000000E+00 -0.45593999997E+02  0.45594000000E+02  0.51100000000E-03 0.  1.
    9900012    2    1    2    0    0 -0.17171411708E+02 -0.13577650636E+02 -0.23184294378E+02  0.59301929646E+02  0.49999973771E+02 0.  0.
         12    1    1    2    0    0  0.17171411708E+02  0.13577650636E+02  0.23184294378E+02  0.31886070354E+02  0.00000000000E+00 0. -1.
         11    1    3    3    0    0 -0.14548746775E+02 -0.13500066930E+02  0.71001862392E+01  0.21079148103E+02  0.51100000000E-03 0. -1.
        -11    1    3    3    0    0  0.72984961831E+01 -0.78330567046E+01 -0.13107099746E+02  0.16923973762E+02  0.51100000000E-03 0.  1.
        -12    1    3    3    0    0 -0.99211611163E+01  0.77554729991E+01 -0.17177380871E+02  0.21298807782E+02  0.00000000000E+00 0.  1.
</event>
<event>
 7    1  0.6061051E-012  0.5930191E+02  0.7816164E-02  0.1266605E+00
        -11   -1    0    0    0    0  0.00000000000E+00  0.00000000000E+00  0.45593999997E+02  0.45594000000E+02  0.51100000000E-03 0. -1.
         11   -1    0    0    0    0 -0.00000000000E+00 -0.00000000000E+00 -0.45593999997E+02  0.45594000000E+02  0.51100000000E-03 0.  1.
    9900012    2    1    2    0    0 -0.10205589894E+01 -0.22140798473E+02 -0.22923055646E+02  0.59301906200E+02  0.49999931011E+02 0.  0.
         12    1    1    2    0    0  0.10205589894E+01  0.22140798473E+02  0.22923055646E+02  0.31886093800E+02  0.00000000000E+00 0. -1.
         11    1    3    3    0    0 -0.52663929860E+01  0.32331240437E+01  0.33159028155E+01  0.70130733568E+01  0.51100000000E-03 0. -1.
        -11    1    3    3    0    0 -0.15529564614E+02 -0.11242195703E+02 -0.18845986340E+02  0.26883555247E+02  0.51100000000E-03 0.  1.
        -12    1    3    3    0    0  0.19775398611E+02 -0.14131726814E+02 -0.73929721216E+01  0.25405277596E+02  0.00000000000E+00 0.  1.
</event>
<event>
 7    1  0.6061051E-012  0.5930196E+02  0.7816164E-02  0.1266605E+00
        -11   -1    0    0    0    0  0.00000000000E+00  0.00000000000E+00  0.45593999997E+02  0.45594000000E+02  0.51100000000E-03 0. -1.
         11   -1    0    0    0    0 -0.00000000000E+00 -0.00000000000E+00 -0.45593999997E+02  0.45594000000E+02  0.51100000000E-03 0.  1.
    9900012    2    1    2    0    0 -0.11549256761E+02 -0.65032574052E+01 -0.29000725760E+02  0.59301956294E+02  0.50000022370E+02 0.  0.
         12    1    1    2    0    0  0.11549256761E+02  0.65032574052E+01  0.29000725760E+02  0.31886043706E+02  0.00000000000E+00 0. -1.
         11    1    3    3    0    0 -0.38202579515E+01 -0.18823804294E+02  0.14014714225E+01  0.19258611096E+02  0.51100000000E-03 0. -1.
        -11    1    3    3    0    0 -0.12729617934E+02  0.20577694817E+00 -0.12368172913E+02  0.17749851221E+02  0.51100000000E-03 0.  1.
        -12    1    3    3    0    0  0.50006191241E+01  0.12114769941E+02 -0.18034024270E+02  0.22293493977E+02  0.00000000000E+00 0.  1.
</event>
<event>
 7    1  0.6061051E-012  0.5930194E+02  0.7816164E-02  0.1266605E+00
        -11   -1    0    0    0    0  0.00000000000E+00  0.00000000000E+00  0.45593999997E+02  0.45594000000E+02  0.51100000000E-03 0.  1.
         11   -1    0    0    0    0 -0.00000000000E+00 -0.00000000000E+00 -0.45593999997E+02  0.45594000000E+02  0.51100000000E-03 0. -1.
    9900012    2    1    2    0    0 -0.46317865134E+01  0.17645019101E+02  0.26151871937E+02  0.59301944251E+02  0.50000000407E+02 0.  0.
         12    1    1    2    0    0  0.46317865134E+01 -0.17645019101E+02 -0.26151871937E+02  0.31886055749E+02  0.00000000000E+00 0. -1.
         11    1    3    3    0    0 -0.15019884648E+02 -0.37673271360E+01  0.17957423819E+02  0.23711996100E+02  0.51100000000E-03 0. -1.
        -11    1    3    3    0    0  0.64612176230E+00 -0.16849822929E+01 -0.63547063600E+01  0.66059769786E+01  0.51100000000E-03 0.  1.
        -12    1    3    3    0    0  0.97419763718E+01  0.23097328530E+02  0.14549154478E+02  0.28983971172E+02  0.00000000000E+00 0.  1.
</event>
<event>
 7    1  0.6061051E-012  0.5930196E+02  0.7816164E-02  0.1266605E+00
        -11   -1    0    0    0    0  0.00000000000E+00  0.00000000000E+00  0.45593999997E+02  0.45594000000E+02  0.51100000000E-03 0. -1.
         11   -1    0    0    0    0 -0.00000000000E+00 -0.00000000000E+00 -0.45593999997E+02  0.45594000000E+02  0.51100000000E-03 0.  1.
    9900012    2    1    2    0    0 -0.13303688055E+00 -0.29427870505E+02 -0.12276080277E+02  0.59301962174E+02  0.50000033095E+02 0.  0.
         12    1    1    2    0    0  0.13303688055E+00  0.29427870505E+02  0.12276080277E+02  0.31886037826E+02  0.00000000000E+00 0. -1.
         11    1    3    3    0    0 -0.18933613741E+01 -0.20796404956E+01 -0.90063565269E+01  0.94352625843E+01  0.51100000000E-03 0. -1.
        -11    1    3    3    0    0  0.18306198643E+02 -0.17536912508E+02 -0.12800268642E+02  0.28399068411E+02  0.51100000000E-03 0.  1.
         12    1    3    3    0    0 -0.16545874150E+02 -0.98113175012E+01  0.95305448916E+01  0.21467631179E+02  0.00000000000E+00 0. -1.
</event>
<event>
 7    1  0.6061051E-012  0.5930198E+02  0.7816164E-02  0.1266605E+00
        -11   -1    0    0    0    0  0.00000000000E+00  0.00000000000E+00  0.45593999997E+02  0.45594000000E+02  0.51100000000E-03 0.  1.
         11   -1    0    0    0    0 -0.00000000000E+00 -0.00000000000E+00 -0.45593999997E+02  0.45594000000E+02  0.51100000000E-03 0. -1.
    9900012    2    1    2    0    0  0.96933449829E+01  0.20363231289E+02 -0.22540991955E+02  0.59301977297E+02  0.50000060676E+02 0.  0.
         12    1    1    2    0    0 -0.96933449829E+01 -0.20363231289E+02  0.22540991955E+02  0.31886022703E+02  0.00000000000E+00 0. -1.
         11    1    3    3    0    0 -0.14813172203E+02  0.46466582735E-01 -0.60503228293E+01  0.16001207344E+02  0.51100000000E-03 0. -1.
        -11    1    3    3    0    0  0.10399686598E+01  0.23996648563E+01 -0.13356670916E+02  0.13610311696E+02  0.51100000000E-03 0.  1.
        -12    1    3    3    0    0  0.23466548526E+02  0.17917099850E+02 -0.31339982090E+01  0.29690458258E+02  0.00000000000E+00 0.  1.
</event>
<event>
 7    1  0.6061051E-012  0.5930196E+02  0.7816164E-02  0.1266605E+00
        -11   -1    0    0    0    0  0.00000000000E+00  0.00000000000E+00  0.45593999997E+02  0.45594000000E+02  0.51100000000E-03 0. -1.
         11   -1    0    0    0    0 -0.00000000000E+00 -0.00000000000E+00 -0.45593999997E+02  0.45594000000E+02  0.51100000000E-03 0.  1.
    9900012    2    1    2    0    0  0.61044950433E+01  0.31292314149E+02 -0.49568653001E+00  0.59301960897E+02  0.50000030766E+02 0.  0.
         12    1    1    2    0    0 -0.61044950433E+01 -0.31292314149E+02  0.49568653001E+00  0.31886039103E+02  0.00000000000E+00 0. -1.
         11    1    3    3    0    0 -0.17169642397E+02  0.99920477259E+01  0.16202905653E+01  0.19931457036E+02  0.51100000000E-03 0. -1.
        -11    1    3    3    0    0  0.48346363950E+01  0.13981391126E+02 -0.10177299981E+02  0.17956348238E+02  0.51100000000E-03 0.  1.
         12    1    3    3    0    0  0.18439501045E+02  0.73188752973E+01  0.80613228856E+01  0.21414155624E+02  0.00000000000E+00 0. -1.
</event>
<event>
 7    1  0.6061051E-012  0.5930193E+02  0.7816164E-02  0.1266605E+00
        -11   -1    0    0    0    0  0.00000000000E+00  0.00000000000E+00  0.45593999997E+02  0.45594000000E+02  0.51100000000E-03 0. -1.
         11   -1    0    0    0    0 -0.00000000000E+00 -0.00000000000E+00 -0.45593999997E+02  0.45594000000E+02  0.51100000000E-03 0.  1.
    9900012    2    1    2    0    0  0.26981360129E+02  0.64263885925E+01 -0.15729874882E+02  0.59301933630E+02  0.49999981037E+02 0.  0.
         12    1    1    2    0    0 -0.26981360129E+02 -0.64263885925E+01  0.15729874882E+02  0.31886066370E+02  0.00000000000E+00 0. -1.
         11    1    3    3    0    0  0.72997162222E+01 -0.61071251173E+01 -0.90643800320E+01  0.13143280403E+02  0.51100000000E-03 0. -1.
        -11    1    3    3    0    0  0.23687429767E+01  0.36746541710E+01 -0.21347828524E+02  0.21790911168E+02  0.51100000000E-03 0.  1.
        -12    1    3    3    0    0  0.17312900930E+02  0.88588595388E+01  0.14682333674E+02  0.24367742059E+02  0.00000000000E+00 0.  1.
</event>
<event>
 7    1  0.6061051E-012  0.5930194E+02  0.7816164E-02  0.1266605E+00
        -11   -1    0    0    0    0  0.00000000000E+00  0.00000000000E+00  0.45593999997E+02  0.45594000000E+02  0.51100000000E-03 0. -1.
         11   -1    0    0    0    0 -0.00000000000E+00 -0.00000000000E+00 -0.45593999997E+02  0.45594000000E+02  0.51100000000E-03 0.  1.
    9900012    2    1    2    0    0  0.71747223195E+01  0.24016972804E+02 -0.19708607089E+02  0.59301940092E+02  0.49999992823E+02 0.  0.
         12    1    1    2    0    0 -0.71747223195E+01 -0.24016972804E+02  0.19708607089E+02  0.31886059908E+02  0.00000000000E+00 0. -1.
         11    1    3    3    0    0  0.74079803325E+01  0.15331411690E+02  0.16485942495E+01  0.17106964087E+02  0.51100000000E-03 0. -1.
        -11    1    3    3    0    0 -0.12400171979E+02  0.17255785920E+02 -0.15008882172E+02  0.26015244706E+02  0.51100000000E-03 0.  1.
         12    1    3    3    0    0  0.12166913966E+02 -0.85702248054E+01 -0.63483191668E+01  0.16179731299E+02  0.00000000000E+00 0. -1.
</event>
<event>
 7    1  0.6061051E-012  0.5930196E+02  0.7816164E-02  0.1266605E+00
        -11   -1    0    0    0    0  0.00000000000E+00  0.00000000000E+00  0.45593999997E+02  0.45594000000E+02  0.51100000000E-03 0. -1.
         11   -1    0    0    0    0 -0.00000000000E+00 -0.00000000000E+00 -0.45593999997E+02  0.45594000000E+02  0.51100000000E-03 0.  1.
    9900012    2    1    2    0    0  0.20464882266E+02 -0.24449246974E+02  0.37715538640E+00  0.59301963401E+02  0.50000035333E+02 0.  0.
         12    1    1    2    0    0 -0.20464882266E+02  0.24449246974E+02 -0.37715538640E+00  0.31886036599E+02  0.00000000000E+00 0. -1.
         11    1    3    3    0    0 -0.52929908527E+01  0.56909913259E+00 -0.43625184277E+01  0.68826734110E+01  0.51100000000E-03 0. -1.
        -11    1    3    3    0    0  0.18919861153E+01 -0.18474774404E+02 -0.12387592646E+02  0.22323739663E+02  0.51100000000E-03 0.  1.
         12    1    3    3    0    0  0.23865887004E+02 -0.65435717030E+01  0.17127266460E+02  0.30095550327E+02  0.00000000000E+00 0. -1.
</event>
<event>
 7    1  0.6061051E-012  0.5930194E+02  0.7816164E-02  0.1266605E+00
        -11   -1    0    0    0    0  0.00000000000E+00  0.00000000000E+00  0.45593999997E+02  0.45594000000E+02  0.51100000000E-03 0.  1.
         11   -1    0    0    0    0 -0.00000000000E+00 -0.00000000000E+00 -0.45593999997E+02  0.45594000000E+02  0.51100000000E-03 0. -1.
    9900012    2    1    2    0    0 -0.11685789388E+02  0.49851328612E+01  0.29245712681E+02  0.59301938257E+02  0.49999989475E+02 0.  0.
         12    1    1    2    0    0  0.11685789388E+02 -0.49851328612E+01 -0.29245712681E+02  0.31886061743E+02  0.00000000000E+00 0. -1.
         11    1    3    3    0    0  0.68137763438E+00  0.81741469608E+01  0.90895523660E+01  0.12243402978E+02  0.51100000000E-03 0. -1.
        -11    1    3    3    0    0 -0.23303204857E+02 -0.45988152764E+01  0.25462733826E+02  0.34821534612E+02  0.51100000000E-03 0.  1.
         12    1    3    3    0    0  0.10936037835E+02  0.14098011768E+01 -0.53065735109E+01  0.12237000667E+02  0.00000000000E+00 0. -1.
</event>
<event>
 7    1  0.6061051E-012  0.5930192E+02  0.7816164E-02  0.1266605E+00
        -11   -1    0    0    0    0  0.00000000000E+00  0.00000000000E+00  0.45593999997E+02  0.45594000000E+02  0.51100000000E-03 0.  1.
         11   -1    0    0    0    0 -0.00000000000E+00 -0.00000000000E+00 -0.45593999997E+02  0.45594000000E+02  0.51100000000E-03 0. -1.
    9900012    2    1    2    0    0 -0.12410305007E+02 -0.41850351788E+01  0.29072181844E+02  0.59301922364E+02  0.49999960491E+02 0.  0.
         12    1    1    2    0    0  0.12410305007E+02  0.41850351788E+01 -0.29072181844E+02  0.31886077636E+02  0.00000000000E+00 0. -1.
         11    1    3    3    0    0  0.73091402892E+01  0.38273586224E+00 -0.38591322759E+01  0.82742323324E+01  0.51100000000E-03 0. -1.
        -11    1    3    3    0    0  0.93623524509E+01 -0.30837892299E+01  0.80987435090E+01  0.12757470208E+02  0.51100000000E-03 0.  1.
        -12    1    3    3    0    0 -0.29081797747E+02 -0.14839818112E+01  0.24832570611E+02  0.38270219824E+02  0.00000000000E+00 0.  1.
</event>
<event>
 7    1  0.6061051E-012  0.5930201E+02  0.7816164E-02  0.1266605E+00
        -11   -1    0    0    0    0  0.00000000000E+00  0.00000000000E+00  0.45593999997E+02  0.45594000000E+02  0.51100000000E-03 0.  1.
         11   -1    0    0    0    0 -0.00000000000E+00 -0.00000000000E+00 -0.45593999997E+02  0.45594000000E+02  0.51100000000E-03 0. -1.
    9900012    2    1    2    0    0  0.20697083821E+02  0.70574781286E+01  0.23206447070E+02  0.59302008377E+02  0.50000117357E+02 0.  0.
         12    1    1    2    0    0 -0.20697083821E+02 -0.70574781286E+01 -0.23206447070E+02  0.31885991623E+02  0.00000000000E+00 0. -1.
         11    1    3    3    0    0  0.84363192599E+01  0.71368810160E+00 -0.73256364261E+01  0.11195793079E+02  0.51100000000E-03 0. -1.
        -11    1    3    3    0    0  0.14267620851E+02  0.19278050435E+02  0.18018988385E+02  0.29998202879E+02  0.51100000000E-03 0.  1.
        -12    1    3    3    0    0 -0.20068562897E+01 -0.12934260408E+02  0.12513095111E+02  0.18108012418E+02  0.00000000000E+00 0.  1.
</event>
<event>
 7    1  0.6061051E-012  0.5930192E+02  0.7816164E-02  0.1266605E+00
        -11   -1    0    0    0    0  0.00000000000E+00  0.00000000000E+00  0.45593999997E+02  0.45594000000E+02  0.51100000000E-03 0. -1.
         11   -1    0    0    0    0 -0.00000000000E+00 -0.00000000000E+00 -0.45593999997E+02  0.45594000000E+02  0.51100000000E-03 0.  1.
    9900012    2    1    2    0    0  0.17713433049E+02 -0.18000723956E+02 -0.19466131605E+02  0.59301920702E+02  0.49999957459E+02 0.  0.
         12    1    1    2    0    0 -0.17713433049E+02  0.18000723956E+02  0.19466131605E+02  0.31886079298E+02  0.00000000000E+00 0. -1.
         11    1    3    3    0    0  0.61447263990E+01  0.10122967363E+02  0.38077533449E+00  0.11848085114E+02  0.51100000000E-03 0. -1.
        -11    1    3    3    0    0  0.11377420474E+02  0.29904854029E+01 -0.76576429386E+01  0.14036673225E+02  0.51100000000E-03 0.  1.
        -12    1    3    3    0    0  0.19128617599E+00 -0.31114176722E+02 -0.12189264001E+02  0.33417162363E+02  0.00000000000E+00 0.  1.
</event>
<event>
 7    1  0.6061051E-012  0.5930194E+02  0.7816164E-02  0.1266605E+00
        -11   -1    0    0    0    0  0.00000000000E+00  0.00000000000E+00  0.45593999997E+02  0.45594000000E+02  0.51100000000E-03 0. -1.
         11   -1    0    0    0    0 -0.00000000000E+00 -0.00000000000E+00 -0.45593999997E+02  0.45594000000E+02  0.51100000000E-03 0.  1.
    9900012    2    1    2    0    0 -0.14955329325E+02 -0.21709147330E+02 -0.17937996684E+02  0.59301942263E+02  0.49999996781E+02 0.  0.
         12    1    1    2    0    0  0.14955329325E+02  0.21709147330E+02  0.17937996684E+02  0.31886057737E+02  0.00000000000E+00 0. -1.
         11    1    3    3    0    0  0.10892175253E+02 -0.94508682639E+01  0.67828457793E+00  0.14436705404E+02  0.51100000000E-03 0. -1.
        -11    1    3    3    0    0 -0.23659871558E+00  0.80539787281E+01 -0.47871313544E+01  0.93722558208E+01  0.51100000000E-03 0.  1.
        -12    1    3    3    0    0 -0.25610905862E+02 -0.20312257794E+02 -0.13829149907E+02  0.35492981038E+02  0.00000000000E+00 0.  1.
</event>
<event>
 7    1  0.6061051E-012  0.5930196E+02  0.7816164E-02  0.1266605E+00
        -11   -1    0    0    0    0  0.00000000000E+00  0.00000000000E+00  0.45593999997E+02  0.45594000000E+02  0.51100000000E-03 0.  1.
         11   -1    0    0    0    0 -0.00000000000E+00 -0.00000000000E+00 -0.45593999997E+02  0.45594000000E+02  0.51100000000E-03 0. -1.
    9900012    2    1    2    0    0  0.14194494644E+02  0.26494720594E+02  0.10642619402E+02  0.59301964730E+02  0.50000037755E+02 0.  0.
         12    1    1    2    0    0 -0.14194494644E+02 -0.26494720594E+02 -0.10642619402E+02  0.31886035270E+02  0.00000000000E+00 0. -1.
         11    1    3    3    0    0 -0.17527593332E+00  0.20737839448E+02  0.14198674508E+02  0.25133465035E+02  0.51100000000E-03 0. -1.
        -11    1    3    3    0    0  0.18794616008E+02  0.97258631391E+01  0.68001102818E+01  0.22227719289E+02  0.51100000000E-03 0.  1.
         12    1    3    3    0    0 -0.44248454309E+01 -0.39689819931E+01 -0.10356165388E+02  0.11940780406E+02  0.00000000000E+00 0. -1.
</event>
<event>
 7    1  0.6061051E-012  0.5930197E+02  0.7816164E-02  0.1266605E+00
        -11   -1    0    0    0    0  0.00000000000E+00  0.00000000000E+00  0.45593999997E+02  0.45594000000E+02  0.51100000000E-03 0.  1.
         11   -1    0    0    0    0 -0.00000000000E+00 -0.00000000000E+00 -0.45593999997E+02  0.45594000000E+02  0.51100000000E-03 0. -1.
    9900012    2    1    2    0    0  0.19746020888E+02 -0.24726554889E+02 -0.39257090874E+01  0.59301967801E+02  0.50000043356E+02 0.  0.
         12    1    1    2    0    0 -0.19746020888E+02  0.24726554889E+02  0.39257090874E+01  0.31886032199E+02  0.00000000000E+00 0. -1.
         11    1    3    3    0    0  0.21606168975E+02 -0.61208379545E+01 -0.43451647533E+01  0.22872945854E+02  0.51100000000E-03 0. -1.
        -11    1    3    3    0    0  0.85827484504E+00 -0.26983974187E+02 -0.25883073390E+01  0.27121409141E+02  0.51100000000E-03 0.  1.
        -12    1    3    3    0    0 -0.27184229324E+01  0.83782572530E+01  0.30077630048E+01  0.93076128051E+01  0.00000000000E+00 0.  1.
</event>
<event>
 7    1  0.6061051E-012  0.5930195E+02  0.7816164E-02  0.1266605E+00
        -11   -1    0    0    0    0  0.00000000000E+00  0.00000000000E+00  0.45593999997E+02  0.45594000000E+02  0.51100000000E-03 0.  1.
         11   -1    0    0    0    0 -0.00000000000E+00 -0.00000000000E+00 -0.45593999997E+02  0.45594000000E+02  0.51100000000E-03 0. -1.
    9900012    2    1    2    0    0 -0.30768619307E+02  0.23647376640E+01  0.80262071850E+01  0.59301954148E+02  0.50000018457E+02 0.  0.
         12    1    1    2    0    0  0.30768619307E+02 -0.23647376640E+01 -0.80262071850E+01  0.31886045852E+02  0.00000000000E+00 0. -1.
         11    1    3    3    0    0  0.17186646548E+01 -0.90469985401E+01 -0.11550657724E+02  0.14772260656E+02  0.51100000000E-03 0. -1.
        -11    1    3    3    0    0 -0.24737129290E+01  0.10823582363E+01  0.11450629068E+02  0.11764678547E+02  0.51100000000E-03 0.  1.
        -12    1    3    3    0    0 -0.30013571033E+02  0.10329377968E+02  0.81262358413E+01  0.32765014945E+02  0.00000000000E+00 0.  1.
</event>
<event>
 7    1  0.6061051E-012  0.5930201E+02  0.7816164E-02  0.1266605E+00
        -11   -1    0    0    0    0  0.00000000000E+00  0.00000000000E+00  0.45593999997E+02  0.45594000000E+02  0.51100000000E-03 0.  1.
         11   -1    0    0    0    0 -0.00000000000E+00 -0.00000000000E+00 -0.45593999997E+02  0.45594000000E+02  0.51100000000E-03 0. -1.
    9900012    2    1    2    0    0 -0.39429685748E+01  0.74678280993E+00  0.31632449361E+02  0.59302007177E+02  0.50000115169E+02 0.  0.
         12    1    1    2    0    0  0.39429685748E+01 -0.74678280993E+00 -0.31632449361E+02  0.31885992823E+02  0.00000000000E+00 0. -1.
         11    1    3    3    0    0  0.13828702202E+02  0.38110099022E+01  0.24398815559E+01  0.14550251659E+02  0.51100000000E-03 0.  1.
        -11    1    3    3    0    0 -0.11290518743E+02  0.79314848979E+01  0.10354201459E+01  0.13836775683E+02  0.51100000000E-03 0. -1.
         12    1    3    3    0    0 -0.64811520342E+01 -0.10995711990E+02  0.28157147659E+02  0.30914979834E+02  0.00000000000E+00 0. -1.
</event>
<event>
 7    1  0.6061051E-012  0.5930198E+02  0.7816164E-02  0.1266605E+00
        -11   -1    0    0    0    0  0.00000000000E+00  0.00000000000E+00  0.45593999997E+02  0.45594000000E+02  0.51100000000E-03 0.  1.
         11   -1    0    0    0    0 -0.00000000000E+00 -0.00000000000E+00 -0.45593999997E+02  0.45594000000E+02  0.51100000000E-03 0. -1.
    9900012    2    1    2    0    0  0.19103171227E+01  0.12329213613E+02  0.29343819059E+02  0.59301975839E+02  0.50000058016E+02 0.  0.
         12    1    1    2    0    0 -0.19103171227E+01 -0.12329213613E+02 -0.29343819059E+02  0.31886024161E+02  0.00000000000E+00 0. -1.
         11    1    3    3    0    0  0.72371867294E+01 -0.99835361597E+01  0.65643304156E+01  0.13969191103E+02  0.51100000000E-03 0. -1.
        -11    1    3    3    0    0 -0.11528970801E+02  0.96484037955E+01  0.26748204788E+02  0.30683469868E+02  0.51100000000E-03 0.  1.
        -12    1    3    3    0    0  0.62021011943E+01  0.12664345977E+02 -0.39687161445E+01  0.14649314868E+02  0.00000000000E+00 0.  1.
</event>
<event>
 7    1  0.6061051E-012  0.5930194E+02  0.7816164E-02  0.1266605E+00
        -11   -1    0    0    0    0  0.00000000000E+00  0.00000000000E+00  0.45593999997E+02  0.45594000000E+02  0.51100000000E-03 0.  1.
         11   -1    0    0    0    0 -0.00000000000E+00 -0.00000000000E+00 -0.45593999997E+02  0.45594000000E+02  0.51100000000E-03 0. -1.
    9900012    2    1    2    0    0 -0.26488366674E+02  0.25603780164E+01  0.17565065057E+02  0.59301943250E+02  0.49999998581E+02 0.  0.
         12    1    1    2    0    0  0.26488366674E+02 -0.25603780164E+01 -0.17565065057E+02  0.31886056750E+02  0.00000000000E+00 0. -1.
         11    1    3    3    0    0  0.29544879707E+01  0.44837365239E+01 -0.76142405519E+01  0.93171643663E+01  0.51100000000E-03 0. -1.
        -11    1    3    3    0    0 -0.22041132246E+02  0.82370839362E+01  0.19982589442E+01  0.23614700962E+02  0.51100000000E-03 0.  1.
         12    1    3    3    0    0 -0.74017223991E+01 -0.10160442444E+02  0.23181046665E+02  0.26370077922E+02  0.00000000000E+00 0. -1.
</event>
<event>
 7    1  0.6061051E-012  0.5930197E+02  0.7816164E-02  0.1266605E+00
        -11   -1    0    0    0    0  0.00000000000E+00  0.00000000000E+00  0.45593999997E+02  0.45594000000E+02  0.51100000000E-03 0.  1.
         11   -1    0    0    0    0 -0.00000000000E+00 -0.00000000000E+00 -0.45593999997E+02  0.45594000000E+02  0.51100000000E-03 0. -1.
    9900012    2    1    2    0    0  0.13064888905E+02 -0.23457219300E+02  0.17198436906E+02  0.59301973415E+02  0.50000053595E+02 0.  0.
         12    1    1    2    0    0 -0.13064888905E+02  0.23457219300E+02 -0.17198436906E+02  0.31886026585E+02  0.00000000000E+00 0. -1.
         11    1    3    3    0    0  0.24207254401E+02 -0.19557054738E+02  0.11513709291E+02  0.33181848314E+02  0.51100000000E-03 0. -1.
        -11    1    3    3    0    0 -0.81093831410E+01 -0.12652491641E+02 -0.40673516029E+00  0.15033731187E+02  0.51100000000E-03 0.  1.
        -12    1    3    3    0    0 -0.30329823552E+01  0.87523270792E+01  0.60914627755E+01  0.11086393914E+02  0.00000000000E+00 0.  1.
</event>
<event>
 7    1  0.6061051E-012  0.5930195E+02  0.7816164E-02  0.1266605E+00
        -11   -1    0    0    0    0  0.00000000000E+00  0.00000000000E+00  0.45593999997E+02  0.45594000000E+02  0.51100000000E-03 0. -1.
         11   -1    0    0    0    0 -0.00000000000E+00 -0.00000000000E+00 -0.45593999997E+02  0.45594000000E+02  0.51100000000E-03 0.  1.
    9900012    2    1    2    0    0  0.18827052312E+02 -0.17442953419E+02 -0.18921043206E+02  0.59301946642E+02  0.50000004768E+02 0.  0.
         12    1    1    2    0    0 -0.18827052312E+02  0.17442953419E+02  0.18921043206E+02  0.31886053358E+02  0.00000000000E+00 0. -1.
         11    1    3    3    0    0  0.10865297305E+02 -0.57864585023E+01 -0.13531966878E+02  0.18293493799E+02  0.51100000000E-03 0. -1.
        -11    1    3    3    0    0  0.21283460560E+01  0.79514167710E+01 -0.15977660485E+02  0.17973328029E+02  0.51100000000E-03 0.  1.
         12    1    3    3    0    0  0.58334089511E+01 -0.19607911688E+02  0.10588584157E+02  0.23035124814E+02  0.00000000000E+00 0. -1.
</event>
<event>
 7    1  0.6061051E-012  0.5930194E+02  0.7816164E-02  0.1266605E+00
        -11   -1    0    0    0    0  0.00000000000E+00  0.00000000000E+00  0.45593999997E+02  0.45594000000E+02  0.51100000000E-03 0. -1.
         11   -1    0    0    0    0 -0.00000000000E+00 -0.00000000000E+00 -0.45593999997E+02  0.45594000000E+02  0.51100000000E-03 0.  1.
    9900012    2    1    2    0    0 -0.11606741761E+02  0.10112603407E+02 -0.27923820415E+02  0.59301938021E+02  0.49999989044E+02 0.  0.
         12    1    1    2    0    0  0.11606741761E+02 -0.10112603407E+02  0.27923820415E+02  0.31886061979E+02  0.00000000000E+00 0. -1.
         11    1    3    3    0    0 -0.20303522350E+02 -0.12243863282E+02 -0.14713954505E+02  0.27904223073E+02  0.51100000000E-03 0.  1.
        -11    1    3    3    0    0  0.12196210743E+01  0.21670394779E+01  0.33953022898E+01  0.42085167891E+01  0.51100000000E-03 0. -1.
        -12    1    3    3    0    0  0.74771595150E+01  0.20189427211E+02 -0.16605168200E+02  0.27189198158E+02  0.00000000000E+00 0.  1.
</event>
<event>
 7    1  0.6061051E-012  0.5930195E+02  0.7816164E-02  0.1266605E+00
        -11   -1    0    0    0    0  0.00000000000E+00  0.00000000000E+00  0.45593999997E+02  0.45594000000E+02  0.51100000000E-03 0.  1.
         11   -1    0    0    0    0 -0.00000000000E+00 -0.00000000000E+00 -0.45593999997E+02  0.45594000000E+02  0.51100000000E-03 0. -1.
    9900012    2    1    2    0    0  0.14785836822E+02 -0.22400970116E+02 -0.17213252455E+02  0.59301945168E+02  0.50000002079E+02 0.  0.
         12    1    1    2    0    0 -0.14785836822E+02  0.22400970116E+02  0.17213252455E+02  0.31886054832E+02  0.00000000000E+00 0. -1.
         11    1    3    3    0    0  0.20369472567E+02 -0.61014199456E+01 -0.22189891984E+02  0.30733272597E+02  0.51100000000E-03 0. -1.
        -11    1    3    3    0    0  0.70767570193E+01 -0.54977274192E+01  0.75635092159E+01  0.11726558259E+02  0.51100000000E-03 0.  1.
        -12    1    3    3    0    0 -0.12660392765E+02 -0.10801822752E+02 -0.25868696873E+01  0.16842114312E+02  0.00000000000E+00 0.  1.
</event>
<event>
 7    1  0.6061051E-012  0.5930192E+02  0.7816164E-02  0.1266605E+00
        -11   -1    0    0    0    0  0.00000000000E+00  0.00000000000E+00  0.45593999997E+02  0.45594000000E+02  0.51100000000E-03 0.  1.
         11   -1    0    0    0    0 -0.00000000000E+00 -0.00000000000E+00 -0.45593999997E+02  0.45594000000E+02  0.51100000000E-03 0. -1.
    9900012    2    1    2    0    0  0.17169879997E+02  0.21394840736E+02  0.16253551986E+02  0.59301922452E+02  0.49999960651E+02 0.  0.
         12    1    1    2    0    0 -0.17169879997E+02 -0.21394840736E+02 -0.16253551986E+02  0.31886077548E+02  0.00000000000E+00 0. -1.
         11    1    3    3    0    0  0.51544561986E+01 -0.61611799248E+00  0.22674942553E+01  0.56647639441E+01  0.51100000000E-03 0. -1.
        -11    1    3    3    0    0 -0.14328098692E+02  0.19297292767E+02  0.12552646277E+02  0.27115472504E+02  0.51100000000E-03 0.  1.
         12    1    3    3    0    0  0.26343522490E+02  0.27136659609E+01  0.14334114536E+01  0.26521686005E+02  0.00000000000E+00 0. -1.
</event>
<event>
 7    1  0.6061051E-012  0.5930192E+02  0.7816164E-02  0.1266605E+00
        -11   -1    0    0    0    0  0.00000000000E+00  0.00000000000E+00  0.45593999997E+02  0.45594000000E+02  0.51100000000E-03 0.  1.
         11   -1    0    0    0    0 -0.00000000000E+00 -0.00000000000E+00 -0.45593999997E+02  0.45594000000E+02  0.51100000000E-03 0. -1.
    9900012    2    1    2    0    0  0.70662148412E+01  0.25706467505E+02  0.17491939228E+02  0.59301924642E+02  0.49999964646E+02 0.  0.
         12    1    1    2    0    0 -0.70662148412E+01 -0.25706467505E+02 -0.17491939228E+02  0.31886075358E+02  0.00000000000E+00 0. -1.
         11    1    3    3    0    0  0.26466278256E+02  0.10270752810E+02  0.15709329330E+02  0.32445882270E+02  0.51100000000E-03 0.  1.
        -11    1    3    3    0    0 -0.57195344783E+01  0.97486191930E+01 -0.21996550612E+01  0.11514648647E+02  0.51100000000E-03 0. -1.
        -12    1    3    3    0    0 -0.13680528937E+02  0.56870955016E+01  0.39822649601E+01  0.15341393726E+02  0.00000000000E+00 0.  1.
</event>
<event>
 7    1  0.6061051E-012  0.5930179E+02  0.7816164E-02  0.1266605E+00
        -11   -1    0    0    0    0  0.00000000000E+00  0.00000000000E+00  0.45593999997E+02  0.45594000000E+02  0.51100000000E-03 0. -1.
         11   -1    0    0    0    0 -0.00000000000E+00 -0.00000000000E+00 -0.45593999997E+02  0.45594000000E+02  0.51100000000E-03 0.  1.
    9900012    2    1    2    0    0  0.30309782620E+02 -0.83853240321E+01 -0.52662641110E+01  0.59301794216E+02  0.49999726778E+02 0.  0.
         12    1    1    2    0    0 -0.30309782620E+02  0.83853240321E+01  0.52662641110E+01  0.31886205784E+02  0.00000000000E+00 0. -1.
         11    1    3    3    0    0 -0.22980754049E+01 -0.47377209340E+01 -0.15412266367E+02  0.16286961197E+02  0.51100000000E-03 0. -1.
        -11    1    3    3    0    0  0.16777536261E+02 -0.76828071999E+01 -0.66212933713E+01  0.19604917129E+02  0.51100000000E-03 0.  1.
         12    1    3    3    0    0  0.15830321764E+02  0.40352041018E+01  0.16767295627E+02  0.23409915890E+02  0.00000000000E+00 0. -1.
</event>
<event>
 7    1  0.6061051E-012  0.5930196E+02  0.7816164E-02  0.1266605E+00
        -11   -1    0    0    0    0  0.00000000000E+00  0.00000000000E+00  0.45593999997E+02  0.45594000000E+02  0.51100000000E-03 0.  1.
         11   -1    0    0    0    0 -0.00000000000E+00 -0.00000000000E+00 -0.45593999997E+02  0.45594000000E+02  0.51100000000E-03 0. -1.
    9900012    2    1    2    0    0 -0.84535628307E+01  0.29924833983E+02 -0.70541605015E+01  0.59301959264E+02  0.50000027786E+02 0.  0.
         12    1    1    2    0    0  0.84535628307E+01 -0.29924833983E+02  0.70541605015E+01  0.31886040736E+02  0.00000000000E+00 0. -1.
         11    1    3    3    0    0 -0.22221082825E+02  0.21147869259E+02 -0.97540990824E+01  0.32189304827E+02  0.51100000000E-03 0. -1.
        -11    1    3    3    0    0  0.20700225135E+01 -0.53984720514E+01 -0.45483285174E+01  0.73563432668E+01  0.51100000000E-03 0.  1.
        -12    1    3    3    0    0  0.11697497481E+02  0.14175436776E+02  0.72482670983E+01  0.19756311169E+02  0.00000000000E+00 0.  1.
</event>
<event>
 7    1  0.6061051E-012  0.5930201E+02  0.7816164E-02  0.1266605E+00
        -11   -1    0    0    0    0  0.00000000000E+00  0.00000000000E+00  0.45593999997E+02  0.45594000000E+02  0.51100000000E-03 0.  1.
         11   -1    0    0    0    0 -0.00000000000E+00 -0.00000000000E+00 -0.45593999997E+02  0.45594000000E+02  0.51100000000E-03 0. -1.
    9900012    2    1    2    0    0 -0.39731342738E+01  0.31534489214E+02 -0.25508190745E+01  0.59302008030E+02  0.50000116725E+02 0.  0.
         12    1    1    2    0    0  0.39731342738E+01 -0.31534489214E+02  0.25508190745E+01  0.31885991970E+02  0.00000000000E+00 0. -1.
         11    1    3    3    0    0 -0.15200822743E+02  0.16254713522E+02 -0.17471435948E+02  0.28293670637E+02  0.51100000000E-03 0. -1.
        -11    1    3    3    0    0 -0.21948343158E+00 -0.43057024174E+01  0.37857674258E+01  0.57375327056E+01  0.51100000000E-03 0.  1.
        -12    1    3    3    0    0  0.11447171901E+02  0.19585478110E+02  0.11134849448E+02  0.25270804688E+02  0.00000000000E+00 0.  1.
</event>
<event>
 7    1  0.6061051E-012  0.5930191E+02  0.7816164E-02  0.1266605E+00
        -11   -1    0    0    0    0  0.00000000000E+00  0.00000000000E+00  0.45593999997E+02  0.45594000000E+02  0.51100000000E-03 0. -1.
         11   -1    0    0    0    0 -0.00000000000E+00 -0.00000000000E+00 -0.45593999997E+02  0.45594000000E+02  0.51100000000E-03 0.  1.
    9900012    2    1    2    0    0  0.58328169844E+01 -0.30707281177E+02 -0.63058616783E+01  0.59301909572E+02  0.49999937162E+02 0.  0.
         12    1    1    2    0    0 -0.58328169844E+01  0.30707281177E+02  0.63058616783E+01  0.31886090428E+02  0.00000000000E+00 0. -1.
         11    1    3    3    0    0  0.20103081509E+02 -0.68912871258E+01 -0.11759753088E+02  0.24288176493E+02  0.51100000000E-03 0. -1.
        -11    1    3    3    0    0 -0.17479164400E+01  0.37678738970E+01  0.17032036340E+01  0.44892079997E+01  0.51100000000E-03 0.  1.
        -12    1    3    3    0    0 -0.12522348085E+02 -0.27583867948E+02  0.37506877758E+01  0.30524525079E+02  0.00000000000E+00 0.  1.
</event>
<event>
 7    1  0.6061051E-012  0.5930191E+02  0.7816164E-02  0.1266605E+00
        -11   -1    0    0    0    0  0.00000000000E+00  0.00000000000E+00  0.45593999997E+02  0.45594000000E+02  0.51100000000E-03 0.  1.
         11   -1    0    0    0    0 -0.00000000000E+00 -0.00000000000E+00 -0.45593999997E+02  0.45594000000E+02  0.51100000000E-03 0. -1.
    9900012    2    1    2    0    0  0.78945935499E+01  0.21628885028E+02  0.22058776665E+02  0.59301907376E+02  0.49999933155E+02 0.  0.
         12    1    1    2    0    0 -0.78945935499E+01 -0.21628885028E+02 -0.22058776665E+02  0.31886092624E+02  0.00000000000E+00 0. -1.
         11    1    3    3    0    0 -0.62755431823E+01 -0.41423925824E+01  0.12088217034E+02  0.14236110771E+02  0.51100000000E-03 0. -1.
        -11    1    3    3    0    0  0.15197578096E+02  0.10744922245E+01 -0.51585904050E+01  0.16085147458E+02  0.51100000000E-03 0.  1.
        -12    1    3    3    0    0 -0.10274413638E+01  0.24696785386E+02  0.15129150036E+02  0.28980649147E+02  0.00000000000E+00 0.  1.
</event>
<event>
 7    1  0.6061051E-012  0.5930194E+02  0.7816164E-02  0.1266605E+00
        -11   -1    0    0    0    0  0.00000000000E+00  0.00000000000E+00  0.45593999997E+02  0.45594000000E+02  0.51100000000E-03 0.  1.
         11   -1    0    0    0    0 -0.00000000000E+00 -0.00000000000E+00 -0.45593999997E+02  0.45594000000E+02  0.51100000000E-03 0. -1.
    9900012    2    1    2    0    0  0.23826981894E+02  0.41364071131E+01  0.20781863744E+02  0.59301940496E+02  0.49999993559E+02 0.  0.
         12    1    1    2    0    0 -0.23826981894E+02 -0.41364071131E+01 -0.20781863744E+02  0.31886059504E+02  0.00000000000E+00 0. -1.
         11    1    3    3    0    0  0.25699537121E+02 -0.72826494313E+01 -0.89764579395E+00  0.26726559060E+02  0.51100000000E-03 0. -1.
        -11    1    3    3    0    0  0.94440851778E+01  0.21615433260E+01  0.83319138623E+01  0.12778255095E+02  0.51100000000E-03 0.  1.
         12    1    3    3    0    0 -0.11316640404E+02  0.92575132184E+01  0.13347595676E+02  0.19797126341E+02  0.00000000000E+00 0. -1.
</event>
<event>
 7    1  0.6061051E-012  0.5930195E+02  0.7816164E-02  0.1266605E+00
        -11   -1    0    0    0    0  0.00000000000E+00  0.00000000000E+00  0.45593999997E+02  0.45594000000E+02  0.51100000000E-03 0. -1.
         11   -1    0    0    0    0 -0.00000000000E+00 -0.00000000000E+00 -0.45593999997E+02  0.45594000000E+02  0.51100000000E-03 0.  1.
    9900012    2    1    2    0    0  0.24177471431E+02  0.19443842553E+02  0.73557301485E+01  0.59301954400E+02  0.50000018916E+02 0.  0.
         12    1    1    2    0    0 -0.24177471431E+02 -0.19443842553E+02 -0.73557301485E+01  0.31886045600E+02  0.00000000000E+00 0. -1.
         11    1    3    3    0    0  0.64987285811E+01  0.18029772807E+02  0.14856152666E+02  0.24248947460E+02  0.51100000000E-03 0. -1.
        -11    1    3    3    0    0  0.19037548818E+02  0.58589495806E+01  0.59773864591E+01  0.20796266596E+02  0.51100000000E-03 0.  1.
        -12    1    3    3    0    0 -0.13588059686E+01 -0.44448798350E+01 -0.13477808976E+02  0.14256740343E+02  0.00000000000E+00 0.  1.
</event>
<event>
 7    1  0.6061051E-012  0.5930194E+02  0.7816164E-02  0.1266605E+00
        -11   -1    0    0    0    0  0.00000000000E+00  0.00000000000E+00  0.45593999997E+02  0.45594000000E+02  0.51100000000E-03 0.  1.
         11   -1    0    0    0    0 -0.00000000000E+00 -0.00000000000E+00 -0.45593999997E+02  0.45594000000E+02  0.51100000000E-03 0. -1.
    9900012    2    1    2    0    0 -0.22523881196E+02  0.21444526029E+02  0.70375886019E+01  0.59301943893E+02  0.49999999754E+02 0.  0.
         12    1    1    2    0    0  0.22523881196E+02 -0.21444526029E+02 -0.70375886019E+01  0.31886056107E+02  0.00000000000E+00 0. -1.
         11    1    3    3    0    0  0.57602988717E+01  0.13306550466E+01  0.96397601812E+01  0.11308256389E+02  0.51100000000E-03 0. -1.
        -11    1    3    3    0    0 -0.24589970245E+02  0.28885024516E+02 -0.47686317481E+01  0.38232854025E+02  0.51100000000E-03 0.  1.
         12    1    3    3    0    0 -0.36942098233E+01 -0.87711535337E+01  0.21664601688E+01  0.97608334784E+01  0.00000000000E+00 0. -1.
</event>
<event>
 7    1  0.6061051E-012  0.5930195E+02  0.7816164E-02  0.1266605E+00
        -11   -1    0    0    0    0  0.00000000000E+00  0.00000000000E+00  0.45593999997E+02  0.45594000000E+02  0.51100000000E-03 0.  1.
         11   -1    0    0    0    0 -0.00000000000E+00 -0.00000000000E+00 -0.45593999997E+02  0.45594000000E+02  0.51100000000E-03 0. -1.
    9900012    2    1    2    0    0  0.11391714593E+02  0.29540262245E+02  0.37844712443E+01  0.59301945407E+02  0.50000002516E+02 0.  0.
         12    1    1    2    0    0 -0.11391714593E+02 -0.29540262245E+02 -0.37844712443E+01  0.31886054593E+02  0.00000000000E+00 0. -1.
         11    1    3    3    0    0  0.13968664877E+02  0.94822635229E+01 -0.70713075143E+01  0.18304106375E+02  0.51100000000E-03 0. -1.
        -11    1    3    3    0    0  0.24838747688E+01 -0.60080295219E+01 -0.65658675397E+01  0.92399496435E+01  0.51100000000E-03 0.  1.
        -12    1    3    3    0    0 -0.50608250531E+01  0.26066028244E+02  0.17421646298E+02  0.31757889388E+02  0.00000000000E+00 0.  1.
</event>
<event>
 7    1  0.6061051E-012  0.5930196E+02  0.7816164E-02  0.1266605E+00
        -11   -1    0    0    0    0  0.00000000000E+00  0.00000000000E+00  0.45593999997E+02  0.45594000000E+02  0.51100000000E-03 0.  1.
         11   -1    0    0    0    0 -0.00000000000E+00 -0.00000000000E+00 -0.45593999997E+02  0.45594000000E+02  0.51100000000E-03 0. -1.
    9900012    2    1    2    0    0  0.22246026739E+02  0.14317516594E+02  0.17800069270E+02  0.59301961470E+02  0.50000031811E+02 0.  0.
         12    1    1    2    0    0 -0.22246026739E+02 -0.14317516594E+02 -0.17800069270E+02  0.31886038530E+02  0.00000000000E+00 0. -1.
         11    1    3    3    0    0  0.13856958929E+02  0.15874332277E+02 -0.82768108478E+01  0.22638801515E+02  0.51100000000E-03 0. -1.
        -11    1    3    3    0    0 -0.53401810507E+01  0.68361928246E+01  0.45763682885E+01  0.98078648524E+01  0.51100000000E-03 0.  1.
        -12    1    3    3    0    0  0.13729248861E+02 -0.83930085070E+01  0.21500511830E+02  0.26855295102E+02  0.00000000000E+00 0.  1.
</event>
<event>
 7    1  0.6061051E-012  0.5930195E+02  0.7816164E-02  0.1266605E+00
        -11   -1    0    0    0    0  0.00000000000E+00  0.00000000000E+00  0.45593999997E+02  0.45594000000E+02  0.51100000000E-03 0.  1.
         11   -1    0    0    0    0 -0.00000000000E+00 -0.00000000000E+00 -0.45593999997E+02  0.45594000000E+02  0.51100000000E-03 0. -1.
    9900012    2    1    2    0    0 -0.48401523504E+00  0.31512973327E+02 -0.48392897282E+01  0.59301945309E+02  0.50000002337E+02 0.  0.
         12    1    1    2    0    0  0.48401523504E+00 -0.31512973327E+02  0.48392897282E+01  0.31886054691E+02  0.00000000000E+00 0. -1.
         11    1    3    3    0    0 -0.29490710629E+01  0.73622293579E+01  0.78891360862E+01  0.11186505697E+02  0.51100000000E-03 0. -1.
        -11    1    3    3    0    0 -0.58453125850E+01  0.28362728561E+02  0.37349147542E+01  0.29198658173E+02  0.51100000000E-03 0.  1.
         12    1    3    3    0    0  0.83103684128E+01 -0.42119845916E+01 -0.16463340569E+02  0.18916781440E+02  0.00000000000E+00 0. -1.
</event>
<event>
 7    1  0.6061051E-012  0.5930208E+02  0.7816164E-02  0.1266604E+00
        -11   -1    0    0    0    0  0.00000000000E+00  0.00000000000E+00  0.45593999997E+02  0.45594000000E+02  0.51100000000E-03 0.  1.
         11   -1    0    0    0    0 -0.00000000000E+00 -0.00000000000E+00 -0.45593999997E+02  0.45594000000E+02  0.51100000000E-03 0. -1.
    9900012    2    1    2    0    0  0.25716046223E+01  0.30396598702E+02  0.92814684099E+01  0.59302078046E+02  0.50000244417E+02 0.  0.
         12    1    1    2    0    0 -0.25716046223E+01 -0.30396598702E+02 -0.92814684099E+01  0.31885921954E+02  0.00000000000E+00 0. -1.
         11    1    3    3    0    0 -0.17781172060E+01 -0.37363664285E+01  0.64738575257E+01  0.76832913787E+01  0.51100000000E-03 0. -1.
        -11    1    3    3    0    0  0.12948471781E+02  0.96914117499E-01  0.92680465621E+01  0.15923850073E+02  0.51100000000E-03 0.  1.
        -12    1    3    3    0    0 -0.85987499529E+01  0.34036051013E+02 -0.64604356779E+01  0.35694936594E+02  0.00000000000E+00 0.  1.
</event>
<event>
 7    1  0.6061051E-012  0.5930195E+02  0.7816164E-02  0.1266605E+00
        -11   -1    0    0    0    0  0.00000000000E+00  0.00000000000E+00  0.45593999997E+02  0.45594000000E+02  0.51100000000E-03 0. -1.
         11   -1    0    0    0    0 -0.00000000000E+00 -0.00000000000E+00 -0.45593999997E+02  0.45594000000E+02  0.51100000000E-03 0.  1.
    9900012    2    1    2    0    0 -0.72670976405E+01  0.82598729868E+01 -0.29927975324E+02  0.59301954198E+02  0.50000018549E+02 0.  0.
         12    1    1    2    0    0  0.72670976405E+01 -0.82598729868E+01  0.29927975324E+02  0.31886045802E+02  0.00000000000E+00 0. -1.
         11    1    3    3    0    0 -0.12352362869E+02  0.10372155590E+02 -0.82537199181E+01  0.18118674697E+02  0.51100000000E-03 0. -1.
        -11    1    3    3    0    0 -0.88179396260E+01  0.33245189251E+01  0.49609211797E+01  0.10649846222E+02  0.51100000000E-03 0.  1.
         12    1    3    3    0    0  0.13903204854E+02 -0.54368015287E+01 -0.26635176586E+02  0.30533433279E+02  0.00000000000E+00 0. -1.
</event>
<event>
 7    1  0.6061051E-012  0.5930194E+02  0.7816164E-02  0.1266605E+00
        -11   -1    0    0    0    0  0.00000000000E+00  0.00000000000E+00  0.45593999997E+02  0.45594000000E+02  0.51100000000E-03 0.  1.
         11   -1    0    0    0    0 -0.00000000000E+00 -0.00000000000E+00 -0.45593999997E+02  0.45594000000E+02  0.51100000000E-03 0. -1.
    9900012    2    1    2    0    0 -0.16590451050E+02  0.26942478513E+02 -0.39472414317E+01  0.59301938322E+02  0.49999989593E+02 0.  0.
         12    1    1    2    0    0  0.16590451050E+02 -0.26942478513E+02  0.39472414317E+01  0.31886061678E+02  0.00000000000E+00 0. -1.
         11    1    3    3    0    0 -0.16440857510E+02  0.20276570284E+02 -0.15258163140E+02  0.30236610934E+02  0.51100000000E-03 0. -1.
        -11    1    3    3    0    0 -0.97735363697E+01  0.12214235841E+02  0.71960211625E+01  0.17218951512E+02  0.51100000000E-03 0.  1.
        -12    1    3    3    0    0  0.96239428298E+01 -0.55483276118E+01  0.41149005453E+01  0.11846375875E+02  0.00000000000E+00 0.  1.
</event>
<event>
 7    1  0.6061051E-012  0.5930195E+02  0.7816164E-02  0.1266605E+00
        -11   -1    0    0    0    0  0.00000000000E+00  0.00000000000E+00  0.45593999997E+02  0.45594000000E+02  0.51100000000E-03 0.  1.
         11   -1    0    0    0    0 -0.00000000000E+00 -0.00000000000E+00 -0.45593999997E+02  0.45594000000E+02  0.51100000000E-03 0. -1.
    9900012    2    1    2    0    0 -0.21761574362E+02 -0.50427192431E+01  0.22753567907E+02  0.59301953074E+02  0.50000016499E+02 0.  0.
         12    1    1    2    0    0  0.21761574362E+02  0.50427192431E+01 -0.22753567907E+02  0.31886046926E+02  0.00000000000E+00 0. -1.
         11    1    3    3    0    0 -0.12695110354E+02  0.46960266635E+01  0.12106332213E+02  0.18159894637E+02  0.51100000000E-03 0. -1.
        -11    1    3    3    0    0  0.30839052407E+01  0.13275872650E+02  0.49522093062E+01  0.14501160071E+02  0.51100000000E-03 0.  1.
         12    1    3    3    0    0 -0.12150369249E+02 -0.23014618556E+02  0.56950263872E+01  0.26640898365E+02  0.00000000000E+00 0. -1.
</event>
<event>
 7    1  0.6061051E-012  0.5930194E+02  0.7816164E-02  0.1266605E+00
        -11   -1    0    0    0    0  0.00000000000E+00  0.00000000000E+00  0.45593999997E+02  0.45594000000E+02  0.51100000000E-03 0.  1.
         11   -1    0    0    0    0 -0.00000000000E+00 -0.00000000000E+00 -0.45593999997E+02  0.45594000000E+02  0.51100000000E-03 0. -1.
    9900012    2    1    2    0    0  0.23174815434E+01 -0.29369908423E+02 -0.12196662641E+02  0.59301940020E+02  0.49999992691E+02 0.  0.
         12    1    1    2    0    0 -0.23174815434E+01  0.29369908423E+02  0.12196662641E+02  0.31886059980E+02  0.00000000000E+00 0. -1.
         11    1    3    3    0    0 -0.45393580487E+01 -0.22486980569E+02 -0.20163816436E+02  0.30542586009E+02  0.51100000000E-03 0. -1.
        -11    1    3    3    0    0  0.10062406911E+02  0.56793254021E+01 -0.28201030579E+01  0.11893685358E+02  0.51100000000E-03 0.  1.
         12    1    3    3    0    0 -0.32055673192E+01 -0.12562253256E+02  0.10787256853E+02  0.16865668653E+02  0.00000000000E+00 0. -1.
</event>
<event>
 7    1  0.6061051E-012  0.5930193E+02  0.7816164E-02  0.1266605E+00
        -11   -1    0    0    0    0  0.00000000000E+00  0.00000000000E+00  0.45593999997E+02  0.45594000000E+02  0.51100000000E-03 0.  1.
         11   -1    0    0    0    0 -0.00000000000E+00 -0.00000000000E+00 -0.45593999997E+02  0.45594000000E+02  0.51100000000E-03 0. -1.
    9900012    2    1    2    0    0  0.14536900379E+01 -0.20698183698E+02  0.24211436344E+02  0.59301926662E+02  0.49999968329E+02 0.  0.
         12    1    1    2    0    0 -0.14536900379E+01  0.20698183698E+02 -0.24211436344E+02  0.31886073338E+02  0.00000000000E+00 0. -1.
         11    1    3    3    0    0 -0.39045509104E+01 -0.57548849083E+01  0.14991413590E+02  0.16525940210E+02  0.51100000000E-03 0. -1.
        -11    1    3    3    0    0 -0.25465351261E+01 -0.25877840806E+02  0.12558245796E+02  0.28876582617E+02  0.51100000000E-03 0.  1.
         12    1    3    3    0    0  0.79047760744E+01  0.10934542016E+02 -0.33382230424E+01  0.13899403835E+02  0.00000000000E+00 0. -1.
</event>
<event>
 7    1  0.6061051E-012  0.5930200E+02  0.7816164E-02  0.1266605E+00
        -11   -1    0    0    0    0  0.00000000000E+00  0.00000000000E+00  0.45593999997E+02  0.45594000000E+02  0.51100000000E-03 0. -1.
         11   -1    0    0    0    0 -0.00000000000E+00 -0.00000000000E+00 -0.45593999997E+02  0.45594000000E+02  0.51100000000E-03 0.  1.
    9900012    2    1    2    0    0 -0.13792703430E+02  0.26520116874E+02 -0.11097817720E+02  0.59302002681E+02  0.50000106969E+02 0.  0.
         12    1    1    2    0    0  0.13792703430E+02 -0.26520116874E+02  0.11097817720E+02  0.31885997319E+02  0.00000000000E+00 0. -1.
         11    1    3    3    0    0 -0.74209291671E+01 -0.27046573015E+01  0.11951485610E+02  0.14325619337E+02  0.51100000000E-03 0. -1.
        -11    1    3    3    0    0  0.42673070915E+01  0.14159365529E+02  0.82081289666E+00  0.14811187531E+02  0.51100000000E-03 0.  1.
        -12    1    3    3    0    0 -0.10639081355E+02  0.15065408646E+02 -0.23870116227E+02  0.30165195813E+02  0.00000000000E+00 0.  1.
</event>
<event>
 7    1  0.6061051E-012  0.5930197E+02  0.7816164E-02  0.1266605E+00
        -11   -1    0    0    0    0  0.00000000000E+00  0.00000000000E+00  0.45593999997E+02  0.45594000000E+02  0.51100000000E-03 0.  1.
         11   -1    0    0    0    0 -0.00000000000E+00 -0.00000000000E+00 -0.45593999997E+02  0.45594000000E+02  0.51100000000E-03 0. -1.
    9900012    2    1    2    0    0  0.27619312502E+02  0.19469279818E+01  0.15814619810E+02  0.59301966202E+02  0.50000040440E+02 0.  0.
         12    1    1    2    0    0 -0.27619312502E+02 -0.19469279818E+01 -0.15814619810E+02  0.31886033798E+02  0.00000000000E+00 0. -1.
         11    1    3    3    0    0 -0.17876497875E+01 -0.98134297492E+00 -0.27412689944E+01  0.34166184683E+01  0.51100000000E-03 0. -1.
        -11    1    3    3    0    0  0.11339006540E+02  0.22151930390E+02  0.25209643276E+01  0.25012723777E+02  0.51100000000E-03 0.  1.
        -12    1    3    3    0    0  0.18067955749E+02 -0.19223659434E+02  0.16034924477E+02  0.30872623956E+02  0.00000000000E+00 0.  1.
</event>
<event>
 7    1  0.6061051E-012  0.5930193E+02  0.7816164E-02  0.1266605E+00
        -11   -1    0    0    0    0  0.00000000000E+00  0.00000000000E+00  0.45593999997E+02  0.45594000000E+02  0.51100000000E-03 0. -1.
         11   -1    0    0    0    0 -0.00000000000E+00 -0.00000000000E+00 -0.45593999997E+02  0.45594000000E+02  0.51100000000E-03 0.  1.
    9900012    2    1    2    0    0 -0.21248856097E+02  0.19397608163E+02 -0.13745553295E+02  0.59301932145E+02  0.49999978329E+02 0.  0.
         12    1    1    2    0    0  0.21248856097E+02 -0.19397608163E+02  0.13745553295E+02  0.31886067855E+02  0.00000000000E+00 0. -1.
         11    1    3    3    0    0  0.46532237737E+01  0.21007979524E+01  0.21612024049E+01  0.55440634575E+01  0.51100000000E-03 0. -1.
        -11    1    3    3    0    0 -0.38964410945E+01  0.15120410482E+02  0.10873910598E+02  0.19027637749E+02  0.51100000000E-03 0.  1.
        -12    1    3    3    0    0 -0.22005638776E+02  0.21763997284E+01 -0.26780666297E+02  0.34730230939E+02  0.00000000000E+00 0.  1.
</event>
<event>
 7    1  0.6061051E-012  0.5930194E+02  0.7816164E-02  0.1266605E+00
        -11   -1    0    0    0    0  0.00000000000E+00  0.00000000000E+00  0.45593999997E+02  0.45594000000E+02  0.51100000000E-03 0.  1.
         11   -1    0    0    0    0 -0.00000000000E+00 -0.00000000000E+00 -0.45593999997E+02  0.45594000000E+02  0.51100000000E-03 0. -1.
    9900012    2    1    2    0    0 -0.31009961071E+02  0.57018534747E+01  0.47530842270E+01  0.59301943041E+02  0.49999998201E+02 0.  0.
         12    1    1    2    0    0  0.31009961071E+02 -0.57018534747E+01 -0.47530842270E+01  0.31886056959E+02  0.00000000000E+00 0. -1.
         11    1    3    3    0    0 -0.15965680161E+02 -0.12004536466E+02 -0.13259650775E+01  0.20019241305E+02  0.51100000000E-03 0.  1.
        -11    1    3    3    0    0 -0.23560040068E+02  0.11615310903E+02  0.99941745852E+01  0.28104705322E+02  0.51100000000E-03 0. -1.
        -12    1    3    3    0    0  0.85157591571E+01  0.60910790384E+01 -0.39151252808E+01  0.11177996414E+02  0.00000000000E+00 0.  1.
</event>
<event>
 7    1  0.6061051E-012  0.5930186E+02  0.7816164E-02  0.1266605E+00
        -11   -1    0    0    0    0  0.00000000000E+00  0.00000000000E+00  0.45593999997E+02  0.45594000000E+02  0.51100000000E-03 0. -1.
         11   -1    0    0    0    0 -0.00000000000E+00 -0.00000000000E+00 -0.45593999997E+02  0.45594000000E+02  0.51100000000E-03 0.  1.
    9900012    2    1    2    0    0  0.16709070847E+02  0.57442690964E+01 -0.26543103886E+02  0.59301858184E+02  0.49999843442E+02 0.  0.
         12    1    1    2    0    0 -0.16709070847E+02 -0.57442690964E+01  0.26543103886E+02  0.31886141816E+02  0.00000000000E+00 0. -1.
         11    1    3    3    0    0  0.36495336744E+01  0.11636199768E+02  0.55694808437E+01  0.13406690800E+02  0.51100000000E-03 0. -1.
        -11    1    3    3    0    0  0.77487844611E+01  0.10880843002E+02 -0.65870039853E+01  0.14893791553E+02  0.51100000000E-03 0.  1.
         12    1    3    3    0    0  0.53107527113E+01 -0.16772773674E+02 -0.25525580744E+02  0.31001375831E+02  0.00000000000E+00 0. -1.
</event>
<event>
 7    1  0.6061051E-012  0.5930194E+02  0.7816164E-02  0.1266605E+00
        -11   -1    0    0    0    0  0.00000000000E+00  0.00000000000E+00  0.45593999997E+02  0.45594000000E+02  0.51100000000E-03 0. -1.
         11   -1    0    0    0    0 -0.00000000000E+00 -0.00000000000E+00 -0.45593999997E+02  0.45594000000E+02  0.51100000000E-03 0.  1.
    9900012    2    1    2    0    0  0.47234806995E+01 -0.22944837634E+02 -0.21632018262E+02  0.59301936303E+02  0.49999985912E+02 0.  0.
         12    1    1    2    0    0 -0.47234806995E+01  0.22944837634E+02  0.21632018262E+02  0.31886063697E+02  0.00000000000E+00 0. -1.
         11    1    3    3    0    0  0.12344975020E+02 -0.26036795002E+02 -0.26522266618E+02  0.39163040345E+02  0.51100000000E-03 0. -1.
        -11    1    3    3    0    0 -0.36352422804E+01 -0.67092360139E+01 -0.15018344348E+01  0.77771679459E+01  0.51100000000E-03 0.  1.
         12    1    3    3    0    0 -0.39862520401E+01  0.98011933823E+01  0.63920827906E+01  0.12361728012E+02  0.00000000000E+00 0. -1.
</event>
<event>
 7    1  0.6061051E-012  0.5930194E+02  0.7816164E-02  0.1266605E+00
        -11   -1    0    0    0    0  0.00000000000E+00  0.00000000000E+00  0.45593999997E+02  0.45594000000E+02  0.51100000000E-03 0.  1.
         11   -1    0    0    0    0 -0.00000000000E+00 -0.00000000000E+00 -0.45593999997E+02  0.45594000000E+02  0.51100000000E-03 0. -1.
    9900012    2    1    2    0    0  0.93557610744E+01  0.24260899559E+02  0.18455330147E+02  0.59301941549E+02  0.49999995479E+02 0.  0.
         12    1    1    2    0    0 -0.93557610744E+01 -0.24260899559E+02 -0.18455330147E+02  0.31886058451E+02  0.00000000000E+00 0. -1.
         11    1    3    3    0    0 -0.72429459336E+00 -0.89570388065E-01 -0.93927685988E+01  0.94210789045E+01  0.51100000000E-03 0. -1.
        -11    1    3    3    0    0 -0.10124440895E+02  0.15349676793E+01  0.33335509758E+01  0.10769075707E+02  0.51100000000E-03 0.  1.
        -12    1    3    3    0    0  0.20204496562E+02  0.22815502268E+02  0.24514547770E+02  0.39111786938E+02  0.00000000000E+00 0.  1.
</event>
<event>
 7    1  0.6061051E-012  0.5930193E+02  0.7816164E-02  0.1266605E+00
        -11   -1    0    0    0    0  0.00000000000E+00  0.00000000000E+00  0.45593999997E+02  0.45594000000E+02  0.51100000000E-03 0. -1.
         11   -1    0    0    0    0 -0.00000000000E+00 -0.00000000000E+00 -0.45593999997E+02  0.45594000000E+02  0.51100000000E-03 0.  1.
    9900012    2    1    2    0    0  0.26387392904E+02  0.11486721327E+02 -0.13728871244E+02  0.59301934442E+02  0.49999982517E+02 0.  0.
         12    1    1    2    0    0 -0.26387392904E+02 -0.11486721327E+02  0.13728871244E+02  0.31886065558E+02  0.00000000000E+00 0. -1.
         11    1    3    3    0    0  0.44406042097E+01  0.51360639158E+01  0.89198060420E+01  0.11209864334E+02  0.51100000000E-03 0. -1.
        -11    1    3    3    0    0 -0.45401585971E+01  0.13264271074E+02 -0.12847110897E+02  0.19015840394E+02  0.51100000000E-03 0.  1.
         12    1    3    3    0    0  0.26486947292E+02 -0.69136136626E+01 -0.98015663895E+01  0.29076229714E+02  0.00000000000E+00 0. -1.
</event>
<event>
 7    1  0.6061051E-012  0.5930195E+02  0.7816164E-02  0.1266605E+00
        -11   -1    0    0    0    0  0.00000000000E+00  0.00000000000E+00  0.45593999997E+02  0.45594000000E+02  0.51100000000E-03 0.  1.
         11   -1    0    0    0    0 -0.00000000000E+00 -0.00000000000E+00 -0.45593999997E+02  0.45594000000E+02  0.51100000000E-03 0. -1.
    9900012    2    1    2    0    0  0.35346687300E+01  0.12041698096E+02  0.29312519506E+02  0.59301950137E+02  0.50000011142E+02 0.  0.
         12    1    1    2    0    0 -0.35346687300E+01 -0.12041698096E+02 -0.29312519506E+02  0.31886049863E+02  0.00000000000E+00 0. -1.
         11    1    3    3    0    0 -0.69614942828E+01  0.16066511165E+02  0.51378427287E+01  0.18248085155E+02  0.51100000000E-03 0. -1.
        -11    1    3    3    0    0 -0.83113193081E+01 -0.37412311127E+00  0.19692743809E+02  0.21378076521E+02  0.51100000000E-03 0.  1.
        -12    1    3    3    0    0  0.18807482321E+02 -0.36506899582E+01  0.44819329688E+01  0.19675788461E+02  0.00000000000E+00 0.  1.
</event>
<event>
 7    1  0.6061051E-012  0.5930194E+02  0.7816164E-02  0.1266605E+00
        -11   -1    0    0    0    0  0.00000000000E+00  0.00000000000E+00  0.45593999997E+02  0.45594000000E+02  0.51100000000E-03 0.  1.
         11   -1    0    0    0    0 -0.00000000000E+00 -0.00000000000E+00 -0.45593999997E+02  0.45594000000E+02  0.51100000000E-03 0. -1.
    9900012    2    1    2    0    0 -0.18242284893E+02  0.23200613574E+02  0.12069436228E+02  0.59301941618E+02  0.49999995605E+02 0.  0.
         12    1    1    2    0    0  0.18242284893E+02 -0.23200613574E+02 -0.12069436228E+02  0.31886058382E+02  0.00000000000E+00 0. -1.
         11    1    3    3    0    0  0.21145123253E+01  0.15084318016E+02  0.15328252472E+02  0.21609329849E+02  0.51100000000E-03 0. -1.
        -11    1    3    3    0    0 -0.11605593992E+02  0.30753269382E+01  0.13537092540E+02  0.18094206874E+02  0.51100000000E-03 0.  1.
         12    1    3    3    0    0 -0.87512032264E+01  0.50409686190E+01 -0.16795908785E+02  0.19598404895E+02  0.00000000000E+00 0. -1.
</event>
<event>
 7    1  0.6061051E-012  0.5930199E+02  0.7816164E-02  0.1266605E+00
        -11   -1    0    0    0    0  0.00000000000E+00  0.00000000000E+00  0.45593999997E+02  0.45594000000E+02  0.51100000000E-03 0.  1.
         11   -1    0    0    0    0 -0.00000000000E+00 -0.00000000000E+00 -0.45593999997E+02  0.45594000000E+02  0.51100000000E-03 0. -1.
    9900012    2    1    2    0    0  0.27034000315E+01  0.24275859205E+02  0.20496142387E+02  0.59301991084E+02  0.50000085819E+02 0.  0.
         12    1    1    2    0    0 -0.27034000315E+01 -0.24275859205E+02 -0.20496142387E+02  0.31886008916E+02  0.00000000000E+00 0. -1.
         11    1    3    3    0    0 -0.42591438333E+01 -0.41220001810E+01  0.13695961403E+02  0.14923489897E+02  0.51100000000E-03 0. -1.
        -11    1    3    3    0    0  0.77667672717E+01  0.37149809533E+01  0.15882065473E+02  0.18065540714E+02  0.51100000000E-03 0.  1.
         12    1    3    3    0    0 -0.80422340682E+00  0.24682878433E+02 -0.90818844887E+01  0.26312960473E+02  0.00000000000E+00 0. -1.
</event>
<event>
 7    1  0.6061051E-012  0.5930193E+02  0.7816164E-02  0.1266605E+00
        -11   -1    0    0    0    0  0.00000000000E+00  0.00000000000E+00  0.45593999997E+02  0.45594000000E+02  0.51100000000E-03 0. -1.
         11   -1    0    0    0    0 -0.00000000000E+00 -0.00000000000E+00 -0.45593999997E+02  0.45594000000E+02  0.51100000000E-03 0.  1.
    9900012    2    1    2    0    0  0.17310410233E+02 -0.17164708222E+02  0.20553440620E+02  0.59301930438E+02  0.49999975215E+02 0.  0.
         12    1    1    2    0    0 -0.17310410233E+02  0.17164708222E+02 -0.20553440620E+02  0.31886069562E+02  0.00000000000E+00 0. -1.
         11    1    3    3    0    0 -0.71898252131E+01 -0.11895480212E+02  0.11832542072E+01  0.13949771570E+02  0.51100000000E-03 0. -1.
        -11    1    3    3    0    0  0.22978110188E+02 -0.74061687758E+01 -0.16220473617E+01  0.24196609714E+02  0.51100000000E-03 0.  1.
         12    1    3    3    0    0  0.15221252578E+01  0.21369407656E+01  0.20992233775E+02  0.21155549154E+02  0.00000000000E+00 0. -1.
</event>
<event>
 7    1  0.6061051E-012  0.5930171E+02  0.7816164E-02  0.1266606E+00
        -11   -1    0    0    0    0  0.00000000000E+00  0.00000000000E+00  0.45593999997E+02  0.45594000000E+02  0.51100000000E-03 0.  1.
         11   -1    0    0    0    0 -0.00000000000E+00 -0.00000000000E+00 -0.45593999997E+02  0.45594000000E+02  0.51100000000E-03 0. -1.
    9900012    2    1    2    0    0 -0.16810540702E+02 -0.25903735270E+02 -0.79459368455E+01  0.59301706833E+02  0.49999567411E+02 0.  0.
         12    1    1    2    0    0  0.16810540702E+02  0.25903735270E+02  0.79459368455E+01  0.31886293167E+02  0.00000000000E+00 0. -1.
         11    1    3    3    0    0 -0.45584901990E+01  0.44824693749E+00 -0.44283280273E+01  0.63710946932E+01  0.51100000000E-03 0. -1.
        -11    1    3    3    0    0 -0.19579142288E+02 -0.14727571046E+02  0.15852769838E+02  0.29181406297E+02  0.51100000000E-03 0.  1.
         12    1    3    3    0    0  0.73270917850E+01 -0.11624411161E+02 -0.19370378656E+02  0.23749205842E+02  0.00000000000E+00 0. -1.
</event>
<event>
 7    1  0.6061051E-012  0.5930196E+02  0.7816164E-02  0.1266605E+00
        -11   -1    0    0    0    0  0.00000000000E+00  0.00000000000E+00  0.45593999997E+02  0.45594000000E+02  0.51100000000E-03 0. -1.
         11   -1    0    0    0    0 -0.00000000000E+00 -0.00000000000E+00 -0.45593999997E+02  0.45594000000E+02  0.51100000000E-03 0.  1.
    9900012    2    1    2    0    0  0.26410420613E+02 -0.17612475849E+02  0.30016221590E+01  0.59301962961E+02  0.50000034529E+02 0.  0.
         12    1    1    2    0    0 -0.26410420613E+02  0.17612475849E+02 -0.30016221590E+01  0.31886037039E+02  0.00000000000E+00 0. -1.
         11    1    3    3    0    0  0.15463762101E+02 -0.20727026998E+02  0.53982759078E+00  0.25865594920E+02  0.51100000000E-03 0. -1.
        -11    1    3    3    0    0  0.81365044211E+01 -0.48212933757E+01 -0.12854486919E+02  0.15958866132E+02  0.51100000000E-03 0.  1.
        -12    1    3    3    0    0  0.28101540907E+01  0.79358445244E+01  0.15316281488E+02  0.17477501908E+02  0.00000000000E+00 0.  1.
</event>
<event>
 7    1  0.6061051E-012  0.5930189E+02  0.7816164E-02  0.1266605E+00
        -11   -1    0    0    0    0  0.00000000000E+00  0.00000000000E+00  0.45593999997E+02  0.45594000000E+02  0.51100000000E-03 0. -1.
         11   -1    0    0    0    0 -0.00000000000E+00 -0.00000000000E+00 -0.45593999997E+02  0.45594000000E+02  0.51100000000E-03 0.  1.
    9900012    2    1    2    0    0  0.14921427015E+02 -0.20268006108E+02 -0.19577614831E+02  0.59301889258E+02  0.49999900114E+02 0.  0.
         12    1    1    2    0    0 -0.14921427015E+02  0.20268006108E+02  0.19577614831E+02  0.31886110742E+02  0.00000000000E+00 0. -1.
         11    1    3    3    0    0 -0.88080997565E+01  0.32990981957E+01  0.20678649211E+01  0.96303029972E+01  0.51100000000E-03 0. -1.
        -11    1    3    3    0    0  0.20975247063E+02 -0.29495122254E+01 -0.19447072373E+02  0.28754986279E+02  0.51100000000E-03 0.  1.
         12    1    3    3    0    0  0.27542797084E+01 -0.20617592078E+02 -0.21984073785E+01  0.20916599982E+02  0.00000000000E+00 0. -1.
</event>
<event>
 7    1  0.6061051E-012  0.5930198E+02  0.7816164E-02  0.1266605E+00
        -11   -1    0    0    0    0  0.00000000000E+00  0.00000000000E+00  0.45593999997E+02  0.45594000000E+02  0.51100000000E-03 0. -1.
         11   -1    0    0    0    0 -0.00000000000E+00 -0.00000000000E+00 -0.45593999997E+02  0.45594000000E+02  0.51100000000E-03 0.  1.
    9900012    2    1    2    0    0 -0.89892188524E+01 -0.92126202585E+01 -0.29172589088E+02  0.59301978271E+02  0.50000062451E+02 0.  0.
         12    1    1    2    0    0  0.89892188524E+01  0.92126202585E+01  0.29172589088E+02  0.31886021729E+02  0.00000000000E+00 0. -1.
         11    1    3    3    0    0 -0.23010339503E+02 -0.25671140986E+01 -0.10553018239E+02  0.25444684967E+02  0.51100000000E-03 0. -1.
        -11    1    3    3    0    0  0.85686533348E+01 -0.44592800040E+01 -0.24012641777E+02  0.25882696218E+02  0.51100000000E-03 0.  1.
        -12    1    3    3    0    0  0.54524673163E+01 -0.21862261559E+01  0.53930709283E+01  0.79745970856E+01  0.00000000000E+00 0.  1.
</event>
<event>
 7    1  0.6061051E-012  0.5930194E+02  0.7816164E-02  0.1266605E+00
        -11   -1    0    0    0    0  0.00000000000E+00  0.00000000000E+00  0.45593999997E+02  0.45594000000E+02  0.51100000000E-03 0.  1.
         11   -1    0    0    0    0 -0.00000000000E+00 -0.00000000000E+00 -0.45593999997E+02  0.45594000000E+02  0.51100000000E-03 0. -1.
    9900012    2    1    2    0    0  0.25663807146E+01  0.30838846816E+02 -0.76876607169E+01  0.59301938622E+02  0.49999990141E+02 0.  0.
         12    1    1    2    0    0 -0.25663807146E+01 -0.30838846816E+02  0.76876607169E+01  0.31886061378E+02  0.00000000000E+00 0. -1.
         11    1    3    3    0    0 -0.11372351576E+00  0.19520739584E+02 -0.13125830229E+02  0.23523597225E+02  0.51100000000E-03 0. -1.
        -11    1    3    3    0    0  0.92705421607E+01  0.12929920153E+02 -0.10085163557E+02  0.18837099335E+02  0.51100000000E-03 0.  1.
        -12    1    3    3    0    0 -0.65904379303E+01 -0.16118129213E+01  0.15523333069E+02  0.16941242061E+02  0.00000000000E+00 0.  1.
</event>
<event>
 7    1  0.6061051E-012  0.5930194E+02  0.7816164E-02  0.1266605E+00
        -11   -1    0    0    0    0  0.00000000000E+00  0.00000000000E+00  0.45593999997E+02  0.45594000000E+02  0.51100000000E-03 0. -1.
         11   -1    0    0    0    0 -0.00000000000E+00 -0.00000000000E+00 -0.45593999997E+02  0.45594000000E+02  0.51100000000E-03 0.  1.
    9900012    2    1    2    0    0  0.99344835671E+01  0.26721164708E+02 -0.14283078029E+02  0.59301938389E+02  0.49999989716E+02 0.  0.
         12    1    1    2    0    0 -0.99344835671E+01 -0.26721164708E+02  0.14283078029E+02  0.31886061611E+02  0.00000000000E+00 0. -1.
         11    1    3    3    0    0  0.66220598217E+01  0.28558742276E+02  0.12733500460E+01  0.29344077039E+02  0.51100000000E-03 0. -1.
        -11    1    3    3    0    0  0.99037917624E+01  0.79370930072E+01 -0.12421330236E+02  0.17758715657E+02  0.51100000000E-03 0.  1.
        -12    1    3    3    0    0 -0.65913680170E+01 -0.97746705752E+01 -0.31350978387E+01  0.12199145693E+02  0.00000000000E+00 0.  1.
</event>
<event>
 7    1  0.6061051E-012  0.5930192E+02  0.7816164E-02  0.1266605E+00
        -11   -1    0    0    0    0  0.00000000000E+00  0.00000000000E+00  0.45593999997E+02  0.45594000000E+02  0.51100000000E-03 0.  1.
         11   -1    0    0    0    0 -0.00000000000E+00 -0.00000000000E+00 -0.45593999997E+02  0.45594000000E+02  0.51100000000E-03 0. -1.
    9900012    2    1    2    0    0  0.83953904720E+01  0.11973313677E+02  0.28335121956E+02  0.59301922194E+02  0.49999960181E+02 0.  0.
         12    1    1    2    0    0 -0.83953904720E+01 -0.11973313677E+02 -0.28335121956E+02  0.31886077806E+02  0.00000000000E+00 0. -1.
         11    1    3    3    0    0 -0.53660533483E+01 -0.16595937857E+01  0.51635663731E+01  0.76296263356E+01  0.51100000000E-03 0. -1.
        -11    1    3    3    0    0  0.20814611146E+01 -0.12670763343E+02  0.18493600583E+02  0.22514306271E+02  0.51100000000E-03 0.  1.
        -12    1    3    3    0    0  0.11679982706E+02  0.26303670805E+02  0.46779549994E+01  0.29157989588E+02  0.00000000000E+00 0.  1.
</event>
<event>
 7    1  0.6061051E-012  0.5930195E+02  0.7816164E-02  0.1266605E+00
        -11   -1    0    0    0    0  0.00000000000E+00  0.00000000000E+00  0.45593999997E+02  0.45594000000E+02  0.51100000000E-03 0. -1.
         11   -1    0    0    0    0 -0.00000000000E+00 -0.00000000000E+00 -0.45593999997E+02  0.45594000000E+02  0.51100000000E-03 0.  1.
    9900012    2    1    2    0    0  0.30358373695E+02 -0.95527473033E+01  0.19582212019E+01  0.59301945608E+02  0.50000002881E+02 0.  0.
         12    1    1    2    0    0 -0.30358373695E+02  0.95527473033E+01 -0.19582212019E+01  0.31886054392E+02  0.00000000000E+00 0. -1.
         11    1    3    3    0    0  0.20282852529E+02 -0.17918139610E+02 -0.69582833995E+01  0.27944078835E+02  0.51100000000E-03 0. -1.
        -11    1    3    3    0    0  0.15508824183E+02 -0.21564230727E+01 -0.13082445993E+01  0.15712583881E+02  0.51100000000E-03 0.  1.
         12    1    3    3    0    0 -0.54333030172E+01  0.10521815379E+02  0.10224749201E+02  0.15645282892E+02  0.00000000000E+00 0. -1.
</event>
<event>
 7    1  0.6061051E-012  0.5930195E+02  0.7816164E-02  0.1266605E+00
        -11   -1    0    0    0    0  0.00000000000E+00  0.00000000000E+00  0.45593999997E+02  0.45594000000E+02  0.51100000000E-03 0. -1.
         11   -1    0    0    0    0 -0.00000000000E+00 -0.00000000000E+00 -0.45593999997E+02  0.45594000000E+02  0.51100000000E-03 0.  1.
    9900012    2    1    2    0    0  0.19997714955E+02 -0.21084556306E+02 -0.13124519564E+02  0.59301950828E+02  0.50000012401E+02 0.  0.
         12    1    1    2    0    0 -0.19997714955E+02  0.21084556306E+02  0.13124519564E+02  0.31886049172E+02  0.00000000000E+00 0. -1.
         11    1    3    3    0    0  0.79670445542E+01 -0.20087954439E+02  0.73262741786E+01  0.22818282277E+02  0.51100000000E-03 0. -1.
        -11    1    3    3    0    0  0.12982208203E+02 -0.12180490743E+02 -0.17305408341E+02  0.24826986178E+02  0.51100000000E-03 0.  1.
         12    1    3    3    0    0 -0.95153780238E+00  0.11183888877E+02 -0.31453854015E+01  0.11656682372E+02  0.00000000000E+00 0. -1.
</event>
<event>
 7    1  0.6061051E-012  0.5930194E+02  0.7816164E-02  0.1266605E+00
        -11   -1    0    0    0    0  0.00000000000E+00  0.00000000000E+00  0.45593999997E+02  0.45594000000E+02  0.51100000000E-03 0. -1.
         11   -1    0    0    0    0 -0.00000000000E+00 -0.00000000000E+00 -0.45593999997E+02  0.45594000000E+02  0.51100000000E-03 0.  1.
    9900012    2    1    2    0    0 -0.16513892128E+02 -0.19542749784E+02 -0.19028744064E+02  0.59301940303E+02  0.49999993207E+02 0.  0.
         12    1    1    2    0    0  0.16513892128E+02  0.19542749784E+02  0.19028744064E+02  0.31886059697E+02  0.00000000000E+00 0. -1.
         11    1    3    3    0    0 -0.16839410511E+01  0.57885060298E+01 -0.63232812371E+01  0.87364950286E+01  0.51100000000E-03 0. -1.
        -11    1    3    3    0    0 -0.22380446097E+02 -0.42432125559E+01  0.33257751910E+01  0.23020642935E+02  0.51100000000E-03 0.  1.
        -12    1    3    3    0    0  0.75504950199E+01 -0.21088043258E+02 -0.16031238018E+02  0.27544802339E+02  0.00000000000E+00 0.  1.
</event>
<event>
 7    1  0.6061051E-012  0.5930197E+02  0.7816164E-02  0.1266605E+00
        -11   -1    0    0    0    0  0.00000000000E+00  0.00000000000E+00  0.45593999997E+02  0.45594000000E+02  0.51100000000E-03 0.  1.
         11   -1    0    0    0    0 -0.00000000000E+00 -0.00000000000E+00 -0.45593999997E+02  0.45594000000E+02  0.51100000000E-03 0. -1.
    9900012    2    1    2    0    0 -0.11510284691E+02  0.28867236104E+02  0.71354621682E+01  0.59301971801E+02  0.50000050651E+02 0.  0.
         12    1    1    2    0    0  0.11510284691E+02 -0.28867236104E+02 -0.71354621682E+01  0.31886028199E+02  0.00000000000E+00 0. -1.
         11    1    3    3    0    0 -0.89043894552E+01  0.57116810916E+01  0.26869728340E+01  0.10914727470E+02  0.51100000000E-03 0. -1.
        -11    1    3    3    0    0 -0.14162697087E+02  0.23875625949E+02 -0.10323728838E+02  0.29617678515E+02  0.51100000000E-03 0.  1.
         12    1    3    3    0    0  0.11556801851E+02 -0.72007093624E+00  0.14772218173E+02  0.18769565816E+02  0.00000000000E+00 0. -1.
</event>
<event>
 7    1  0.6061051E-012  0.5930193E+02  0.7816164E-02  0.1266605E+00
        -11   -1    0    0    0    0  0.00000000000E+00  0.00000000000E+00  0.45593999997E+02  0.45594000000E+02  0.51100000000E-03 0. -1.
         11   -1    0    0    0    0 -0.00000000000E+00 -0.00000000000E+00 -0.45593999997E+02  0.45594000000E+02  0.51100000000E-03 0.  1.
    9900012    2    1    2    0    0  0.25488406993E+02  0.18464347485E+02 -0.51117746118E+01  0.59301933156E+02  0.49999980172E+02 0.  0.
         12    1    1    2    0    0 -0.25488406993E+02 -0.18464347485E+02  0.51117746118E+01  0.31886066844E+02  0.00000000000E+00 0. -1.
         11    1    3    3    0    0  0.13696183372E+02  0.66611108811E+01  0.11972563113E+02  0.19372612237E+02  0.51100000000E-03 0. -1.
        -11    1    3    3    0    0 -0.45920145243E+01  0.17824492427E+02 -0.11004233670E+02  0.21445099361E+02  0.51100000000E-03 0.  1.
         12    1    3    3    0    0  0.16384238146E+02 -0.60212558228E+01 -0.60801040544E+01  0.18484221559E+02  0.00000000000E+00 0. -1.
</event>
<event>
 7    1  0.6061051E-012  0.5930194E+02  0.7816164E-02  0.1266605E+00
        -11   -1    0    0    0    0  0.00000000000E+00  0.00000000000E+00  0.45593999997E+02  0.45594000000E+02  0.51100000000E-03 0. -1.
         11   -1    0    0    0    0 -0.00000000000E+00 -0.00000000000E+00 -0.45593999997E+02  0.45594000000E+02  0.51100000000E-03 0.  1.
    9900012    2    1    2    0    0  0.16313440034E+02  0.12405664871E+02 -0.24427273103E+02  0.59301944774E+02  0.50000001361E+02 0.  0.
         12    1    1    2    0    0 -0.16313440034E+02 -0.12405664871E+02  0.24427273103E+02  0.31886055226E+02  0.00000000000E+00 0. -1.
         11    1    3    3    0    0  0.80082155829E+01 -0.59393434134E+01 -0.42531984765E+01  0.10839603985E+02  0.51100000000E-03 0. -1.
        -11    1    3    3    0    0  0.13105685528E+02 -0.82082769713E+01 -0.12708368984E+01  0.15516115193E+02  0.51100000000E-03 0.  1.
         12    1    3    3    0    0 -0.48004610772E+01  0.26553285256E+02 -0.18903237728E+02  0.32946225596E+02  0.00000000000E+00 0. -1.
</event>
<event>
 7    1  0.6061051E-012  0.5930194E+02  0.7816164E-02  0.1266605E+00
        -11   -1    0    0    0    0  0.00000000000E+00  0.00000000000E+00  0.45593999997E+02  0.45594000000E+02  0.51100000000E-03 0.  1.
         11   -1    0    0    0    0 -0.00000000000E+00 -0.00000000000E+00 -0.45593999997E+02  0.45594000000E+02  0.51100000000E-03 0. -1.
    9900012    2    1    2    0    0 -0.13427926637E+02  0.27391971440E+02  0.92785373673E+01  0.59301943976E+02  0.49999999905E+02 0.  0.
         12    1    1    2    0    0  0.13427926637E+02 -0.27391971440E+02 -0.92785373673E+01  0.31886056024E+02  0.00000000000E+00 0. -1.
         11    1    3    3    0    0 -0.15170275704E+02 -0.63921001287E+01  0.10412724772E+02  0.19478733183E+02  0.51100000000E-03 0. -1.
        -11    1    3    3    0    0 -0.86421774111E+01  0.72030200128E+01  0.23547708944E+00  0.11252829752E+02  0.51100000000E-03 0.  1.
        -12    1    3    3    0    0  0.10384526478E+02  0.26581051556E+02 -0.13696644939E+01  0.28570381040E+02  0.00000000000E+00 0.  1.
</event>
<event>
 7    1  0.6061051E-012  0.5930164E+02  0.7816164E-02  0.1266606E+00
        -11   -1    0    0    0    0  0.00000000000E+00  0.00000000000E+00  0.45593999997E+02  0.45594000000E+02  0.51100000000E-03 0. -1.
         11   -1    0    0    0    0 -0.00000000000E+00 -0.00000000000E+00 -0.45593999997E+02  0.45594000000E+02  0.51100000000E-03 0.  1.
    9900012    2    1    2    0    0  0.19512999662E+02  0.75130098512E+01 -0.24073588361E+02  0.59301637251E+02  0.49999440509E+02 0.  0.
         12    1    1    2    0    0 -0.19512999662E+02 -0.75130098512E+01  0.24073588361E+02  0.31886362749E+02  0.00000000000E+00 0. -1.
         11    1    3    3    0    0  0.45869827292E+01 -0.10678607310E+02 -0.39532239014E+01  0.12276035358E+02  0.51100000000E-03 0. -1.
        -11    1    3    3    0    0  0.11714521030E+02 -0.53516565186E+01  0.36799125831E+01  0.13394476001E+02  0.51100000000E-03 0.  1.
        -12    1    3    3    0    0  0.32114959028E+01  0.23543273679E+02 -0.23800277043E+02  0.33631125892E+02  0.00000000000E+00 0.  1.
</event>
<event>
 7    1  0.6061051E-012  0.5930198E+02  0.7816164E-02  0.1266605E+00
        -11   -1    0    0    0    0  0.00000000000E+00  0.00000000000E+00  0.45593999997E+02  0.45594000000E+02  0.51100000000E-03 0.  1.
         11   -1    0    0    0    0 -0.00000000000E+00 -0.00000000000E+00 -0.45593999997E+02  0.45594000000E+02  0.51100000000E-03 0. -1.
    9900012    2    1    2    0    0 -0.99382967939E+01 -0.26807620604E+02 -0.14117375982E+02  0.59301975315E+02  0.50000057060E+02 0.  0.
         12    1    1    2    0    0  0.99382967939E+01  0.26807620604E+02  0.14117375982E+02  0.31886024685E+02  0.00000000000E+00 0. -1.
         11    1    3    3    0    0  0.18980842308E+02 -0.47723386469E+01 -0.77315183825E+01  0.21043382990E+02  0.51100000000E-03 0. -1.
        -11    1    3    3    0    0 -0.12782564538E+02 -0.12075763879E+02  0.16535243911E+01  0.17662167834E+02  0.51100000000E-03 0.  1.
        -12    1    3    3    0    0 -0.16136574564E+02 -0.99595180782E+01 -0.80393819910E+01  0.20596424491E+02  0.00000000000E+00 0.  1.
</event>
<event>
 7    1  0.6061051E-012  0.5930197E+02  0.7816164E-02  0.1266605E+00
        -11   -1    0    0    0    0  0.00000000000E+00  0.00000000000E+00  0.45593999997E+02  0.45594000000E+02  0.51100000000E-03 0. -1.
         11   -1    0    0    0    0 -0.00000000000E+00 -0.00000000000E+00 -0.45593999997E+02  0.45594000000E+02  0.51100000000E-03 0.  1.
    9900012    2    1    2    0    0 -0.44862143757E+01 -0.26017774390E+02 -0.17879275979E+02  0.59301965233E+02  0.50000038673E+02 0.  0.
         12    1    1    2    0    0  0.44862143757E+01  0.26017774390E+02  0.17879275979E+02  0.31886034767E+02  0.00000000000E+00 0. -1.
         11    1    3    3    0    0 -0.53757134931E+01 -0.22068436567E+02  0.16405796297E+01  0.22772915708E+02  0.51100000000E-03 0. -1.
        -11    1    3    3    0    0 -0.27320243296E+01 -0.17030765643E+02 -0.11994919538E+02  0.21009260585E+02  0.51100000000E-03 0.  1.
        -12    1    3    3    0    0  0.36215234470E+01  0.13081427820E+02 -0.75249360702E+01  0.15519788940E+02  0.00000000000E+00 0.  1.
</event>
<event>
 7    1  0.6061051E-012  0.5930194E+02  0.7816164E-02  0.1266605E+00
        -11   -1    0    0    0    0  0.00000000000E+00  0.00000000000E+00  0.45593999997E+02  0.45594000000E+02  0.51100000000E-03 0.  1.
         11   -1    0    0    0    0 -0.00000000000E+00 -0.00000000000E+00 -0.45593999997E+02  0.45594000000E+02  0.51100000000E-03 0. -1.
    9900012    2    1    2    0    0  0.23274845918E+02  0.20966625824E+01  0.21693464894E+02  0.59301939321E+02  0.49999991416E+02 0.  0.
         12    1    1    2    0    0 -0.23274845918E+02 -0.20966625824E+01 -0.21693464894E+02  0.31886060679E+02  0.00000000000E+00 0. -1.
         11    1    3    3    0    0 -0.17983567131E+01  0.10231318987E+02 -0.56052685426E+00  0.10403276681E+02  0.51100000000E-03 0. -1.
        -11    1    3    3    0    0 -0.12431459660E+01 -0.13733866337E+02  0.16284610123E+02  0.21339002404E+02  0.51100000000E-03 0.  1.
        -12    1    3    3    0    0  0.26316348597E+02  0.55992099328E+01  0.59693816253E+01  0.27559660237E+02  0.00000000000E+00 0.  1.
</event>
<event>
 7    1  0.6061051E-012  0.5930195E+02  0.7816164E-02  0.1266605E+00
        -11   -1    0    0    0    0  0.00000000000E+00  0.00000000000E+00  0.45593999997E+02  0.45594000000E+02  0.51100000000E-03 0. -1.
         11   -1    0    0    0    0 -0.00000000000E+00 -0.00000000000E+00 -0.45593999997E+02  0.45594000000E+02  0.51100000000E-03 0.  1.
    9900012    2    1    2    0    0  0.78971383192E+00  0.26097889185E+02 -0.18302919697E+02  0.59301947606E+02  0.50000006526E+02 0.  0.
         12    1    1    2    0    0 -0.78971383192E+00 -0.26097889185E+02  0.18302919697E+02  0.31886052394E+02  0.00000000000E+00 0. -1.
         11    1    3    3    0    0 -0.11285376796E+02  0.29212550370E+02 -0.70028664534E+01  0.32090075839E+02  0.51100000000E-03 0. -1.
        -11    1    3    3    0    0 -0.32745192787E+01  0.25586341927E+01 -0.99605225047E+01  0.10792640746E+02  0.51100000000E-03 0.  1.
        -12    1    3    3    0    0  0.15349609907E+02 -0.56732953778E+01 -0.13395307389E+01  0.16419231021E+02  0.00000000000E+00 0.  1.
</event>
<event>
 7    1  0.6061051E-012  0.5930194E+02  0.7816164E-02  0.1266605E+00
        -11   -1    0    0    0    0  0.00000000000E+00  0.00000000000E+00  0.45593999997E+02  0.45594000000E+02  0.51100000000E-03 0.  1.
         11   -1    0    0    0    0 -0.00000000000E+00 -0.00000000000E+00 -0.45593999997E+02  0.45594000000E+02  0.51100000000E-03 0. -1.
    9900012    2    1    2    0    0 -0.20694787363E+02  0.24187182804E+02  0.18510873277E+01  0.59301944109E+02  0.50000000148E+02 0.  0.
         12    1    1    2    0    0  0.20694787363E+02 -0.24187182804E+02 -0.18510873277E+01  0.31886055891E+02  0.00000000000E+00 0. -1.
         11    1    3    3    0    0  0.78718707805E+01  0.16224407850E+02 -0.63049540367E+01  0.19103669944E+02  0.51100000000E-03 0. -1.
        -11    1    3    3    0    0 -0.96596216826E+01  0.14930600872E+02 -0.15154355202E+01  0.17847343739E+02  0.51100000000E-03 0.  1.
        -12    1    3    3    0    0 -0.18907036461E+02 -0.69678259184E+01  0.96714768846E+01  0.22350930425E+02  0.00000000000E+00 0.  1.
</event>
<event>
 7    1  0.6061051E-012  0.5930195E+02  0.7816164E-02  0.1266605E+00
        -11   -1    0    0    0    0  0.00000000000E+00  0.00000000000E+00  0.45593999997E+02  0.45594000000E+02  0.51100000000E-03 0. -1.
         11   -1    0    0    0    0 -0.00000000000E+00 -0.00000000000E+00 -0.45593999997E+02  0.45594000000E+02  0.51100000000E-03 0.  1.
    9900012    2    1    2    0    0  0.26329341358E+02 -0.25584734363E+01 -0.17802818632E+02  0.59301947344E+02  0.50000006049E+02 0.  0.
         12    1    1    2    0    0 -0.26329341358E+02  0.25584734363E+01  0.17802818632E+02  0.31886052656E+02  0.00000000000E+00 0. -1.
         11    1    3    3    0    0  0.11457108413E+02  0.10101164273E+02  0.10598950497E+02  0.18591304547E+02  0.51100000000E-03 0. -1.
        -11    1    3    3    0    0  0.10969500038E+02 -0.51408757288E+01 -0.11456920974E+01  0.12168448750E+02  0.51100000000E-03 0.  1.
        -12    1    3    3    0    0  0.39027329074E+01 -0.75187619808E+01 -0.27256077032E+02  0.28542194047E+02  0.00000000000E+00 0.  1.
</event>
<event>
 7    1  0.6061051E-012  0.5930192E+02  0.7816164E-02  0.1266605E+00
        -11   -1    0    0    0    0  0.00000000000E+00  0.00000000000E+00  0.45593999997E+02  0.45594000000E+02  0.51100000000E-03 0.  1.
         11   -1    0    0    0    0 -0.00000000000E+00 -0.00000000000E+00 -0.45593999997E+02  0.45594000000E+02  0.51100000000E-03 0. -1.
    9900012    2    1    2    0    0 -0.88532471314E+01 -0.26507597775E+02  0.15352184798E+02  0.59301916788E+02  0.49999950321E+02 0.  0.
         12    1    1    2    0    0  0.88532471314E+01  0.26507597775E+02 -0.15352184798E+02  0.31886083212E+02  0.00000000000E+00 0. -1.
         11    1    3    3    0    0 -0.11140912386E+02 -0.45681301350E+01 -0.87952118953E+01  0.14911186883E+02  0.51100000000E-03 0. -1.
        -11    1    3    3    0    0 -0.10799164908E+02 -0.34217854170E+01  0.17345758948E+02  0.20717285824E+02  0.51100000000E-03 0.  1.
         12    1    3    3    0    0  0.13086830163E+02 -0.18517682223E+02  0.68016377449E+01  0.23673444080E+02  0.00000000000E+00 0. -1.
</event>
<event>
 7    1  0.6061051E-012  0.5930194E+02  0.7816164E-02  0.1266605E+00
        -11   -1    0    0    0    0  0.00000000000E+00  0.00000000000E+00  0.45593999997E+02  0.45594000000E+02  0.51100000000E-03 0. -1.
         11   -1    0    0    0    0 -0.00000000000E+00 -0.00000000000E+00 -0.45593999997E+02  0.45594000000E+02  0.51100000000E-03 0.  1.
    9900012    2    1    2    0    0 -0.10690012383E+02 -0.27291023877E+02  0.12555665152E+02  0.59301936016E+02  0.49999985388E+02 0.  0.
         12    1    1    2    0    0  0.10690012383E+02  0.27291023877E+02 -0.12555665152E+02  0.31886063984E+02  0.00000000000E+00 0. -1.
         11    1    3    3    0    0  0.11326601293E+02 -0.10471812891E+02  0.83644003254E+01  0.17547477173E+02  0.51100000000E-03 0. -1.
        -11    1    3    3    0    0 -0.12657408473E+01  0.36331398818E+01 -0.89877631937E+01  0.97765890157E+01  0.51100000000E-03 0.  1.
         12    1    3    3    0    0 -0.20750872829E+02 -0.20452350867E+02  0.13179028020E+02  0.31977869827E+02  0.00000000000E+00 0. -1.
</event>
<event>
 7    1  0.6061051E-012  0.5930196E+02  0.7816164E-02  0.1266605E+00
        -11   -1    0    0    0    0  0.00000000000E+00  0.00000000000E+00  0.45593999997E+02  0.45594000000E+02  0.51100000000E-03 0.  1.
         11   -1    0    0    0    0 -0.00000000000E+00 -0.00000000000E+00 -0.45593999997E+02  0.45594000000E+02  0.51100000000E-03 0. -1.
    9900012    2    1    2    0    0 -0.67470278740E+01 -0.23069856256E+02  0.20951816405E+02  0.59301964444E+02  0.50000037235E+02 0.  0.
         12    1    1    2    0    0  0.67470278740E+01  0.23069856256E+02 -0.20951816405E+02  0.31886035556E+02  0.00000000000E+00 0. -1.
         11    1    3    3    0    0 -0.16741459281E+02  0.28460944157E+01  0.14553377640E+00  0.16982281726E+02  0.51100000000E-03 0. -1.
        -11    1    3    3    0    0  0.85173633763E+00  0.41766003239E+01  0.64881093505E+01  0.77630540549E+01  0.51100000000E-03 0.  1.
        -12    1    3    3    0    0  0.91426950693E+01 -0.30092550996E+02  0.14318173278E+02  0.34556628663E+02  0.00000000000E+00 0.  1.
</event>
<event>
 7    1  0.6061051E-012  0.5930196E+02  0.7816164E-02  0.1266605E+00
        -11   -1    0    0    0    0  0.00000000000E+00  0.00000000000E+00  0.45593999997E+02  0.45594000000E+02  0.51100000000E-03 0.  1.
         11   -1    0    0    0    0 -0.00000000000E+00 -0.00000000000E+00 -0.45593999997E+02  0.45594000000E+02  0.51100000000E-03 0. -1.
    9900012    2    1    2    0    0  0.24424280354E+01  0.13554101591E+02  0.28758307618E+02  0.59301962590E+02  0.50000033854E+02 0.  0.
         12    1    1    2    0    0 -0.24424280354E+01 -0.13554101591E+02 -0.28758307618E+02  0.31886037410E+02  0.00000000000E+00 0. -1.
         11    1    3    3    0    0  0.13811483109E+01 -0.51983655763E+01 -0.11965654894E+02  0.13118973764E+02  0.51100000000E-03 0. -1.
        -11    1    3    3    0    0  0.53320510980E+01  0.48086217466E+01  0.12563117337E+02  0.14470159968E+02  0.51100000000E-03 0.  1.
        -12    1    3    3    0    0 -0.42707713735E+01  0.13943845421E+02  0.28160845175E+02  0.31712828858E+02  0.00000000000E+00 0.  1.
</event>
<event>
 7    1  0.6061051E-012  0.5930194E+02  0.7816164E-02  0.1266605E+00
        -11   -1    0    0    0    0  0.00000000000E+00  0.00000000000E+00  0.45593999997E+02  0.45594000000E+02  0.51100000000E-03 0.  1.
         11   -1    0    0    0    0 -0.00000000000E+00 -0.00000000000E+00 -0.45593999997E+02  0.45594000000E+02  0.51100000000E-03 0. -1.
    9900012    2    1    2    0    0 -0.34880397112E+01 -0.31231442801E+02  0.53992184224E+01  0.59301937213E+02  0.49999987572E+02 0.  0.
         12    1    1    2    0    0  0.34880397112E+01  0.31231442801E+02 -0.53992184224E+01  0.31886062787E+02  0.00000000000E+00 0. -1.
         11    1    3    3    0    0 -0.14625502554E+02  0.22656341778E+01 -0.69890161144E+01  0.16367185760E+02  0.51100000000E-03 0. -1.
        -11    1    3    3    0    0  0.14765087351E+01  0.26202824738E+01 -0.10800542963E+01  0.31956964548E+01  0.51100000000E-03 0.  1.
        -12    1    3    3    0    0  0.96609541075E+01 -0.36117359453E+02  0.13468288833E+02  0.39739054999E+02  0.00000000000E+00 0.  1.
</event>
<event>
 7    1  0.6061051E-012  0.5930193E+02  0.7816164E-02  0.1266605E+00
        -11   -1    0    0    0    0  0.00000000000E+00  0.00000000000E+00  0.45593999997E+02  0.45594000000E+02  0.51100000000E-03 0. -1.
         11   -1    0    0    0    0 -0.00000000000E+00 -0.00000000000E+00 -0.45593999997E+02  0.45594000000E+02  0.51100000000E-03 0.  1.
    9900012    2    1    2    0    0 -0.20693726091E+02  0.71994477674E+00 -0.24248157293E+02  0.59301925420E+02  0.49999966063E+02 0.  0.
         12    1    1    2    0    0  0.20693726091E+02 -0.71994477674E+00  0.24248157293E+02  0.31886074580E+02  0.00000000000E+00 0. -1.
         11    1    3    3    0    0 -0.89558758797E+01 -0.83143080379E+01 -0.22395599120E+01  0.12423810196E+02  0.51100000000E-03 0. -1.
        -11    1    3    3    0    0  0.42504405022E+01 -0.13270105725E+02 -0.79802959168E+01  0.16057617308E+02  0.51100000000E-03 0.  1.
         12    1    3    3    0    0 -0.15988290714E+02  0.22304358540E+02 -0.14028301465E+02  0.30820497916E+02  0.00000000000E+00 0. -1.
</event>
<event>
 7    1  0.6061051E-012  0.5930196E+02  0.7816164E-02  0.1266605E+00
        -11   -1    0    0    0    0  0.00000000000E+00  0.00000000000E+00  0.45593999997E+02  0.45594000000E+02  0.51100000000E-03 0. -1.
         11   -1    0    0    0    0 -0.00000000000E+00 -0.00000000000E+00 -0.45593999997E+02  0.45594000000E+02  0.51100000000E-03 0.  1.
    9900012    2    1    2    0    0  0.27065657549E+02  0.66454665381E+01 -0.15492183996E+02  0.59301955889E+02  0.50000021632E+02 0.  0.
         12    1    1    2    0    0 -0.27065657549E+02 -0.66454665381E+01  0.15492183996E+02  0.31886044111E+02  0.00000000000E+00 0. -1.
         11    1    3    3    0    0  0.22444595647E+02 -0.89008253998E+01 -0.11335438132E+02  0.26673521036E+02  0.51100000000E-03 0. -1.
        -11    1    3    3    0    0 -0.81099898234E+01 -0.39842772738E+01 -0.15792745015E+01  0.91728135565E+01  0.51100000000E-03 0.  1.
        -12    1    3    3    0    0  0.12731051725E+02  0.19530569212E+02 -0.25774713627E+01  0.23455621296E+02  0.00000000000E+00 0.  1.
</event>
<event>
 7    1  0.6061051E-012  0.5930194E+02  0.7816164E-02  0.1266605E+00
        -11   -1    0    0    0    0  0.00000000000E+00  0.00000000000E+00  0.45593999997E+02  0.45594000000E+02  0.51100000000E-03 0. -1.
         11   -1    0    0    0    0 -0.00000000000E+00 -0.00000000000E+00 -0.45593999997E+02  0.45594000000E+02  0.51100000000E-03 0.  1.
    9900012    2    1    2    0    0 -0.12064528140E+02 -0.20820807237E+02 -0.20920365531E+02  0.59301944314E+02  0.50000000523E+02 0.  0.
         12    1    1    2    0    0  0.12064528140E+02  0.20820807237E+02  0.20920365531E+02  0.31886055686E+02  0.00000000000E+00 0. -1.
         11    1    3    3    0    0 -0.58660899680E+01 -0.30075012576E+02 -0.46710332702E+00  0.30645319034E+02  0.51100000000E-03 0. -1.
        -11    1    3    3    0    0 -0.66282540207E+00 -0.45858406118E+01 -0.79467049740E+01  0.91988799229E+01  0.51100000000E-03 0.  1.
         12    1    3    3    0    0 -0.55356127704E+01  0.13840045950E+02 -0.12506557230E+02  0.19457745357E+02  0.00000000000E+00 0. -1.
</event>
<event>
 7    1  0.6061051E-012  0.5930193E+02  0.7816164E-02  0.1266605E+00
        -11   -1    0    0    0    0  0.00000000000E+00  0.00000000000E+00  0.45593999997E+02  0.45594000000E+02  0.51100000000E-03 0. -1.
         11   -1    0    0    0    0 -0.00000000000E+00 -0.00000000000E+00 -0.45593999997E+02  0.45594000000E+02  0.51100000000E-03 0.  1.
    9900012    2    1    2    0    0 -0.23715386553E+02  0.15177794352E+02 -0.14964499044E+02  0.59301933569E+02  0.49999980926E+02 0.  0.
         12    1    1    2    0    0  0.23715386553E+02 -0.15177794352E+02  0.14964499044E+02  0.31886066431E+02  0.00000000000E+00 0. -1.
         11    1    3    3    0    0 -0.91261508662E+01 -0.43129099907E+01 -0.16629038083E+01  0.10230008385E+02  0.51100000000E-03 0. -1.
        -11    1    3    3    0    0 -0.24707379399E+02  0.10594205855E+02  0.39618224599E+01  0.27173292623E+02  0.51100000000E-03 0.  1.
        -12    1    3    3    0    0  0.10118143712E+02  0.88964984877E+01 -0.17263417696E+02  0.21898632562E+02  0.00000000000E+00 0.  1.
</event>
<event>
 7    1  0.6061051E-012  0.5930194E+02  0.7816164E-02  0.1266605E+00
        -11   -1    0    0    0    0  0.00000000000E+00  0.00000000000E+00  0.45593999997E+02  0.45594000000E+02  0.51100000000E-03 0.  1.
         11   -1    0    0    0    0 -0.00000000000E+00 -0.00000000000E+00 -0.45593999997E+02  0.45594000000E+02  0.51100000000E-03 0. -1.
    9900012    2    1    2    0    0  0.92251541948E+00  0.20200487737E+02  0.24653800915E+02  0.59301942873E+02  0.49999997894E+02 0.  0.
         12    1    1    2    0    0 -0.92251541948E+00 -0.20200487737E+02 -0.24653800915E+02  0.31886057127E+02  0.00000000000E+00 0. -1.
         11    1    3    3    0    0  0.10986649442E+01 -0.36069608159E+01 -0.32107460999E+01  0.49523854622E+01  0.51100000000E-03 0. -1.
        -11    1    3    3    0    0 -0.17142845278E+02  0.85089204408E+01  0.11132119980E+01  0.19170761917E+02  0.51100000000E-03 0.  1.
         12    1    3    3    0    0  0.16966695753E+02  0.15298528112E+02  0.26751335017E+02  0.35178795494E+02  0.00000000000E+00 0. -1.
</event>
<event>
 7    1  0.6061051E-012  0.5930196E+02  0.7816164E-02  0.1266605E+00
        -11   -1    0    0    0    0  0.00000000000E+00  0.00000000000E+00  0.45593999997E+02  0.45594000000E+02  0.51100000000E-03 0. -1.
         11   -1    0    0    0    0 -0.00000000000E+00 -0.00000000000E+00 -0.45593999997E+02  0.45594000000E+02  0.51100000000E-03 0.  1.
    9900012    2    1    2    0    0 -0.84487532227E+01 -0.29110988847E+02 -0.98938457353E+01  0.59301964089E+02  0.50000036587E+02 0.  0.
         12    1    1    2    0    0  0.84487532227E+01  0.29110988847E+02  0.98938457353E+01  0.31886035911E+02  0.00000000000E+00 0. -1.
         11    1    3    3    0    0  0.25940912124E+01  0.16626749656E+01 -0.29181036163E+01  0.42437160881E+01  0.51100000000E-03 0. -1.
        -11    1    3    3    0    0  0.14184342720E+02  0.56019601676E+00  0.19639370839E+00  0.14196759092E+02  0.51100000000E-03 0.  1.
         12    1    3    3    0    0 -0.25227187155E+02 -0.31333859829E+02 -0.71721358274E+01  0.40861488909E+02  0.00000000000E+00 0. -1.
</event>
<event>
 7    1  0.6061051E-012  0.5930192E+02  0.7816164E-02  0.1266605E+00
        -11   -1    0    0    0    0  0.00000000000E+00  0.00000000000E+00  0.45593999997E+02  0.45594000000E+02  0.51100000000E-03 0. -1.
         11   -1    0    0    0    0 -0.00000000000E+00 -0.00000000000E+00 -0.45593999997E+02  0.45594000000E+02  0.51100000000E-03 0.  1.
    9900012    2    1    2    0    0  0.31075540026E+02  0.49961468735E+01  0.51060466608E+01  0.59301915512E+02  0.49999947994E+02 0.  0.
         12    1    1    2    0    0 -0.31075540026E+02 -0.49961468735E+01 -0.51060466608E+01  0.31886084488E+02  0.00000000000E+00 0. -1.
         11    1    3    3    0    0  0.71655470537E+01 -0.13773189909E+02  0.19280846394E+01  0.15644914046E+02  0.51100000000E-03 0. -1.
        -11    1    3    3    0    0  0.11176813997E+02  0.29323867198E+01 -0.13210487921E+02  0.17550984427E+02  0.51100000000E-03 0.  1.
        -12    1    3    3    0    0  0.12733178975E+02  0.15836950063E+02  0.16388449942E+02  0.26106017039E+02  0.00000000000E+00 0.  1.
</event>
<event>
 7    1  0.6061051E-012  0.5930177E+02  0.7816164E-02  0.1266605E+00
        -11   -1    0    0    0    0  0.00000000000E+00  0.00000000000E+00  0.45593999997E+02  0.45594000000E+02  0.51100000000E-03 0. -1.
         11   -1    0    0    0    0 -0.00000000000E+00 -0.00000000000E+00 -0.45593999997E+02  0.45594000000E+02  0.51100000000E-03 0.  1.
    9900012    2    1    2    0    0  0.22835964288E+02 -0.12968429781E+02 -0.18085083615E+02  0.59301769660E+02  0.49999681994E+02 0.  0.
         12    1    1    2    0    0 -0.22835964288E+02  0.12968429781E+02  0.18085083615E+02  0.31886230340E+02  0.00000000000E+00 0. -1.
         11    1    3    3    0    0  0.21773976831E+02 -0.73745658569E+01  0.37234948929E+01  0.23288510109E+02  0.51100000000E-03 0. -1.
        -11    1    3    3    0    0 -0.20113679893E+01  0.53008129622E+01  0.45869921100E+01  0.72927852105E+01  0.51100000000E-03 0.  1.
        -12    1    3    3    0    0  0.30733554466E+01 -0.10894676886E+02 -0.26395570617E+02  0.28720474341E+02  0.00000000000E+00 0.  1.
</event>
<event>
 7    1  0.6061051E-012  0.5930194E+02  0.7816164E-02  0.1266605E+00
        -11   -1    0    0    0    0  0.00000000000E+00  0.00000000000E+00  0.45593999997E+02  0.45594000000E+02  0.51100000000E-03 0. -1.
         11   -1    0    0    0    0 -0.00000000000E+00 -0.00000000000E+00 -0.45593999997E+02  0.45594000000E+02  0.51100000000E-03 0.  1.
    9900012    2    1    2    0    0  0.80843478500E+01 -0.29749499862E+02 -0.81444036032E+01  0.59301941412E+02  0.49999995230E+02 0.  0.
         12    1    1    2    0    0 -0.80843478500E+01  0.29749499862E+02  0.81444036032E+01  0.31886058588E+02  0.00000000000E+00 0. -1.
         11    1    3    3    0    0  0.50998175125E+01 -0.59222071434E+01  0.87902186734E+01  0.11762169047E+02  0.51100000000E-03 0. -1.
        -11    1    3    3    0    0 -0.40814648977E+01 -0.32410294418E+02 -0.90067666092E+01  0.33885208941E+02  0.51100000000E-03 0.  1.
         12    1    3    3    0    0  0.70659952352E+01  0.85830016989E+01 -0.79278556674E+01  0.13654563424E+02  0.00000000000E+00 0. -1.
</event>
<event>
 7    1  0.6061051E-012  0.5930192E+02  0.7816164E-02  0.1266605E+00
        -11   -1    0    0    0    0  0.00000000000E+00  0.00000000000E+00  0.45593999997E+02  0.45594000000E+02  0.51100000000E-03 0. -1.
         11   -1    0    0    0    0 -0.00000000000E+00 -0.00000000000E+00 -0.45593999997E+02  0.45594000000E+02  0.51100000000E-03 0.  1.
    9900012    2    1    2    0    0 -0.45288426610E+01 -0.19129031814E+02 -0.25105616027E+02  0.59301917925E+02  0.49999952395E+02 0.  0.
         12    1    1    2    0    0  0.45288426610E+01  0.19129031814E+02  0.25105616027E+02  0.31886082075E+02  0.00000000000E+00 0. -1.
         11    1    3    3    0    0  0.44071120364E+01 -0.43422742170E+01  0.39875470266E+01  0.73606055068E+01  0.51100000000E-03 0. -1.
        -11    1    3    3    0    0 -0.10732187684E+02 -0.25055453395E+02 -0.31069282405E+02  0.41331052572E+02  0.51100000000E-03 0.  1.
         12    1    3    3    0    0  0.17962329861E+01  0.10268695798E+02  0.19761193508E+01  0.10610259847E+02  0.00000000000E+00 0. -1.
</event>
<event>
 7    1  0.6061051E-012  0.5930194E+02  0.7816164E-02  0.1266605E+00
        -11   -1    0    0    0    0  0.00000000000E+00  0.00000000000E+00  0.45593999997E+02  0.45594000000E+02  0.51100000000E-03 0.  1.
         11   -1    0    0    0    0 -0.00000000000E+00 -0.00000000000E+00 -0.45593999997E+02  0.45594000000E+02  0.51100000000E-03 0. -1.
    9900012    2    1    2    0    0  0.18450112790E+02  0.59020860784E+01  0.25327441366E+02  0.59301943985E+02  0.49999999922E+02 0.  0.
         12    1    1    2    0    0 -0.18450112790E+02 -0.59020860784E+01 -0.25327441366E+02  0.31886056015E+02  0.00000000000E+00 0. -1.
         11    1    3    3    0    0  0.14175601729E+02  0.67008521010E+01 -0.70876427985E+01  0.17207085283E+02  0.51100000000E-03 0. -1.
        -11    1    3    3    0    0  0.82618612201E+00  0.12454388861E+02  0.10793649654E+02  0.16501432015E+02  0.51100000000E-03 0.  1.
        -12    1    3    3    0    0  0.34483249390E+01 -0.13253154884E+02  0.21621434511E+02  0.25593426687E+02  0.00000000000E+00 0.  1.
</event>
<event>
 7    1  0.6061051E-012  0.5930195E+02  0.7816164E-02  0.1266605E+00
        -11   -1    0    0    0    0  0.00000000000E+00  0.00000000000E+00  0.45593999997E+02  0.45594000000E+02  0.51100000000E-03 0. -1.
         11   -1    0    0    0    0 -0.00000000000E+00 -0.00000000000E+00 -0.45593999997E+02  0.45594000000E+02  0.51100000000E-03 0.  1.
    9900012    2    1    2    0    0  0.29350875134E+02  0.31892854297E+01  0.12044693182E+02  0.59301952165E+02  0.50000014841E+02 0.  0.
         12    1    1    2    0    0 -0.29350875134E+02 -0.31892854297E+01 -0.12044693182E+02  0.31886047835E+02  0.00000000000E+00 0. -1.
         11    1    3    3    0    0 -0.83868172442E+00  0.15249999876E+01  0.74300746676E+01  0.76311874452E+01  0.51100000000E-03 0. -1.
        -11    1    3    3    0    0  0.14588149249E+02  0.20514081551E+02  0.91530614956E+01  0.26784700398E+02  0.51100000000E-03 0.  1.
        -12    1    3    3    0    0  0.15601407610E+02 -0.18849796109E+02 -0.45384429812E+01  0.24886064322E+02  0.00000000000E+00 0.  1.
</event>
<event>
 7    1  0.6061051E-012  0.5930195E+02  0.7816164E-02  0.1266605E+00
        -11   -1    0    0    0    0  0.00000000000E+00  0.00000000000E+00  0.45593999997E+02  0.45594000000E+02  0.51100000000E-03 0. -1.
         11   -1    0    0    0    0 -0.00000000000E+00 -0.00000000000E+00 -0.45593999997E+02  0.45594000000E+02  0.51100000000E-03 0.  1.
    9900012    2    1    2    0    0 -0.10417025067E+02  0.21449094857E+02 -0.21169372706E+02  0.59301946274E+02  0.50000004097E+02 0.  0.
         12    1    1    2    0    0  0.10417025067E+02 -0.21449094857E+02  0.21169372706E+02  0.31886053726E+02  0.00000000000E+00 0. -1.
         11    1    3    3    0    0  0.42884368298E+01  0.35888108329E+01  0.14514986643E+02  0.15554905694E+02  0.51100000000E-03 0. -1.
        -11    1    3    3    0    0 -0.14397288519E+01 -0.10738444606E+01 -0.97666858450E+00  0.20444664042E+01  0.51100000000E-03 0.  1.
        -12    1    3    3    0    0 -0.13265733045E+02  0.18934128485E+02 -0.34707690765E+02  0.41702574176E+02  0.00000000000E+00 0.  1.
</event>
<event>
 7    1  0.6061051E-012  0.5930198E+02  0.7816164E-02  0.1266605E+00
        -11   -1    0    0    0    0  0.00000000000E+00  0.00000000000E+00  0.45593999997E+02  0.45594000000E+02  0.51100000000E-03 0.  1.
         11   -1    0    0    0    0 -0.00000000000E+00 -0.00000000000E+00 -0.45593999997E+02  0.45594000000E+02  0.51100000000E-03 0. -1.
    9900012    2    1    2    0    0 -0.15632148865E+02 -0.25785016596E+02  0.10367604586E+02  0.59301978237E+02  0.50000062390E+02 0.  0.
         12    1    1    2    0    0  0.15632148865E+02  0.25785016596E+02 -0.10367604586E+02  0.31886021763E+02  0.00000000000E+00 0. -1.
         11    1    3    3    0    0  0.65064695997E+01 -0.25360122526E+02  0.44711414282E+01  0.26560517072E+02  0.51100000000E-03 0. -1.
        -11    1    3    3    0    0  0.35310332085E+01 -0.49319883559E+01  0.22892431859E+00  0.60700174025E+01  0.51100000000E-03 0.  1.
        -12    1    3    3    0    0 -0.25669651673E+02  0.45070942857E+01  0.56675388388E+01  0.26671443763E+02  0.00000000000E+00 0.  1.
</event>
<event>
 7    1  0.6061051E-012  0.5930198E+02  0.7816164E-02  0.1266605E+00
        -11   -1    0    0    0    0  0.00000000000E+00  0.00000000000E+00  0.45593999997E+02  0.45594000000E+02  0.51100000000E-03 0.  1.
         11   -1    0    0    0    0 -0.00000000000E+00 -0.00000000000E+00 -0.45593999997E+02  0.45594000000E+02  0.51100000000E-03 0. -1.
    9900012    2    1    2    0    0  0.25625240986E+02  0.18113175634E+02  0.56549174815E+01  0.59301981138E+02  0.50000067681E+02 0.  0.
         12    1    1    2    0    0 -0.25625240986E+02 -0.18113175634E+02 -0.56549174815E+01  0.31886018862E+02  0.00000000000E+00 0. -1.
         11    1    3    3    0    0  0.70783992621E-01  0.18051227853E+02  0.58857346346E+01  0.18986671900E+02  0.51100000000E-03 0. -1.
        -11    1    3    3    0    0  0.31376212478E+02  0.48354190173E+01  0.34529319576E+01  0.31933849218E+02  0.51100000000E-03 0.  1.
         12    1    3    3    0    0 -0.58217554848E+01 -0.47734712359E+01 -0.36837491108E+01  0.83814600205E+01  0.00000000000E+00 0. -1.
</event>
<event>
 7    1  0.6061051E-012  0.5930202E+02  0.7816164E-02  0.1266605E+00
        -11   -1    0    0    0    0  0.00000000000E+00  0.00000000000E+00  0.45593999997E+02  0.45594000000E+02  0.51100000000E-03 0.  1.
         11   -1    0    0    0    0 -0.00000000000E+00 -0.00000000000E+00 -0.45593999997E+02  0.45594000000E+02  0.51100000000E-03 0. -1.
    9900012    2    1    2    0    0  0.16053807133E+02  0.11460685646E+01  0.27525944422E+02  0.59302018551E+02  0.50000135913E+02 0.  0.
         12    1    1    2    0    0 -0.16053807133E+02 -0.11460685646E+01 -0.27525944422E+02  0.31885981449E+02  0.00000000000E+00 0. -1.
         11    1    3    3    0    0  0.55278625077E+01 -0.48486353269E+01 -0.58186360173E+01  0.93767293765E+01  0.51100000000E-03 0. -1.
        -11    1    3    3    0    0  0.72412468561E+00  0.15965483905E+02  0.26551970875E+01  0.16200959994E+02  0.51100000000E-03 0.  1.
        -12    1    3    3    0    0  0.98018199398E+01 -0.99707800137E+01  0.30689383352E+02  0.33724329181E+02  0.00000000000E+00 0.  1.
</event>
<event>
 7    1  0.6061051E-012  0.5930191E+02  0.7816164E-02  0.1266605E+00
        -11   -1    0    0    0    0  0.00000000000E+00  0.00000000000E+00  0.45593999997E+02  0.45594000000E+02  0.51100000000E-03 0.  1.
         11   -1    0    0    0    0 -0.00000000000E+00 -0.00000000000E+00 -0.45593999997E+02  0.45594000000E+02  0.51100000000E-03 0. -1.
    9900012    2    1    2    0    0  0.16130686973E+02  0.26878207855E+02  0.58382780658E+01  0.59301911960E+02  0.49999941516E+02 0.  0.
         12    1    1    2    0    0 -0.16130686973E+02 -0.26878207855E+02 -0.58382780658E+01  0.31886088040E+02  0.00000000000E+00 0. -1.
         11    1    3    3    0    0  0.75366812082E+01  0.30235715598E+02  0.57997949924E+01  0.31696019995E+02  0.51100000000E-03 0. -1.
        -11    1    3    3    0    0  0.84095570722E+01  0.89264012199E+01  0.63324089809E+01  0.13802198834E+02  0.51100000000E-03 0.  1.
        -12    1    3    3    0    0  0.18444869274E+00 -0.12283908962E+02 -0.62939259074E+01  0.13803693131E+02  0.00000000000E+00 0.  1.
</event>
<event>
 7    1  0.6061051E-012  0.5930196E+02  0.7816164E-02  0.1266605E+00
        -11   -1    0    0    0    0  0.00000000000E+00  0.00000000000E+00  0.45593999997E+02  0.45594000000E+02  0.51100000000E-03 0. -1.
         11   -1    0    0    0    0 -0.00000000000E+00 -0.00000000000E+00 -0.45593999997E+02  0.45594000000E+02  0.51100000000E-03 0.  1.
    9900012    2    1    2    0    0  0.19943854455E+01 -0.33767585977E+00 -0.31821819288E+02  0.59301956327E+02  0.50000022431E+02 0.  0.
         12    1    1    2    0    0 -0.19943854455E+01  0.33767585977E+00  0.31821819288E+02  0.31886043673E+02  0.00000000000E+00 0. -1.
         11    1    3    3    0    0 -0.87933778627E+00 -0.38033513922E+01  0.29117309781E+01  0.48699994153E+01  0.51100000000E-03 0. -1.
        -11    1    3    3    0    0 -0.17516941872E+02  0.10357989220E+02 -0.15762554899E+02  0.25740810602E+02  0.51100000000E-03 0.  1.
         12    1    3    3    0    0  0.20390665104E+02 -0.68923136873E+01 -0.18970995367E+02  0.28691146310E+02  0.00000000000E+00 0. -1.
</event>
<event>
 7    1  0.6061051E-012  0.5930206E+02  0.7816164E-02  0.1266604E+00
        -11   -1    0    0    0    0  0.00000000000E+00  0.00000000000E+00  0.45593999997E+02  0.45594000000E+02  0.51100000000E-03 0. -1.
         11   -1    0    0    0    0 -0.00000000000E+00 -0.00000000000E+00 -0.45593999997E+02  0.45594000000E+02  0.51100000000E-03 0.  1.
    9900012    2    1    2    0    0 -0.71435249045E+01  0.20359005791E+02 -0.23477520996E+02  0.59302061767E+02  0.50000214728E+02 0.  0.
         12    1    1    2    0    0  0.71435249045E+01 -0.20359005791E+02  0.23477520996E+02  0.31885938233E+02  0.00000000000E+00 0. -1.
         11    1    3    3    0    0 -0.48220031380E+01  0.78572301866E+01 -0.80166689727E+01  0.12216986623E+02  0.51100000000E-03 0.  1.
        -11    1    3    3    0    0  0.85945973744E+01 -0.58445778476E+01 -0.22353471254E+02  0.24651650484E+02  0.51100000000E-03 0. -1.
         12    1    3    3    0    0 -0.10916119141E+02  0.18346353452E+02  0.68926192306E+01  0.22433424660E+02  0.00000000000E+00 0. -1.
</event>
<event>
 7    1  0.6061051E-012  0.5930197E+02  0.7816164E-02  0.1266605E+00
        -11   -1    0    0    0    0  0.00000000000E+00  0.00000000000E+00  0.45593999997E+02  0.45594000000E+02  0.51100000000E-03 0. -1.
         11   -1    0    0    0    0 -0.00000000000E+00 -0.00000000000E+00 -0.45593999997E+02  0.45594000000E+02  0.51100000000E-03 0.  1.
    9900012    2    1    2    0    0  0.12124806356E+02  0.25424261438E+02 -0.14943732250E+02  0.59301966499E+02  0.50000040982E+02 0.  0.
         12    1    1    2    0    0 -0.12124806356E+02 -0.25424261438E+02  0.14943732250E+02  0.31886033501E+02  0.00000000000E+00 0. -1.
         11    1    3    3    0    0  0.48121198795E+01  0.38190892039E+01  0.10799785242E+02  0.12424866261E+02  0.51100000000E-03 0. -1.
        -11    1    3    3    0    0  0.18882359903E+02  0.17482150628E+02 -0.11841315109E+02  0.28326416114E+02  0.51100000000E-03 0.  1.
        -12    1    3    3    0    0 -0.11569673427E+02  0.41230216068E+01 -0.13902202383E+02  0.18550684124E+02  0.00000000000E+00 0.  1.
</event>
<event>
 7    1  0.6061051E-012  0.5930195E+02  0.7816164E-02  0.1266605E+00
        -11   -1    0    0    0    0  0.00000000000E+00  0.00000000000E+00  0.45593999997E+02  0.45594000000E+02  0.51100000000E-03 0. -1.
         11   -1    0    0    0    0 -0.00000000000E+00 -0.00000000000E+00 -0.45593999997E+02  0.45594000000E+02  0.51100000000E-03 0.  1.
    9900012    2    1    2    0    0  0.20964775954E+01  0.22063460811E+02  0.22924407052E+02  0.59301953523E+02  0.50000017318E+02 0.  0.
         12    1    1    2    0    0 -0.20964775954E+01 -0.22063460811E+02 -0.22924407052E+02  0.31886046477E+02  0.00000000000E+00 0. -1.
         11    1    3    3    0    0 -0.16492322692E+02  0.18845093846E+02  0.21715258971E+02  0.33146443885E+02  0.51100000000E-03 0. -1.
        -11    1    3    3    0    0 -0.23771785684E+01 -0.33399515430E+01 -0.45532745893E+00  0.41247518242E+01  0.51100000000E-03 0.  1.
        -12    1    3    3    0    0  0.20965978856E+02  0.65583185078E+01  0.16644755397E+01  0.22030757814E+02  0.00000000000E+00 0.  1.
</event>
<event>
 7    1  0.6061051E-012  0.5930195E+02  0.7816164E-02  0.1266605E+00
        -11   -1    0    0    0    0  0.00000000000E+00  0.00000000000E+00  0.45593999997E+02  0.45594000000E+02  0.51100000000E-03 0. -1.
         11   -1    0    0    0    0 -0.00000000000E+00 -0.00000000000E+00 -0.45593999997E+02  0.45594000000E+02  0.51100000000E-03 0.  1.
    9900012    2    1    2    0    0 -0.19807129976E+02 -0.17784381266E+02 -0.17553173008E+02  0.59301945093E+02  0.50000001943E+02 0.  0.
         12    1    1    2    0    0  0.19807129976E+02  0.17784381266E+02  0.17553173008E+02  0.31886054907E+02  0.00000000000E+00 0. -1.
         11    1    3    3    0    0 -0.21526477117E+02 -0.16492971300E+02 -0.26756905070E+01  0.27250075951E+02  0.51100000000E-03 0. -1.
        -11    1    3    3    0    0 -0.61028547070E+01 -0.71343757923E+01 -0.19201346519E+02  0.21373718954E+02  0.51100000000E-03 0.  1.
         12    1    3    3    0    0  0.78222018476E+01  0.58429658266E+01  0.43238640181E+01  0.10678150188E+02  0.00000000000E+00 0. -1.
</event>
<event>
 7    1  0.6061051E-012  0.5930197E+02  0.7816164E-02  0.1266605E+00
        -11   -1    0    0    0    0  0.00000000000E+00  0.00000000000E+00  0.45593999997E+02  0.45594000000E+02  0.51100000000E-03 0. -1.
         11   -1    0    0    0    0 -0.00000000000E+00 -0.00000000000E+00 -0.45593999997E+02  0.45594000000E+02  0.51100000000E-03 0.  1.
    9900012    2    1    2    0    0  0.10722406680E+02 -0.29687701598E+02  0.45154705819E+01  0.59301966917E+02  0.50000041744E+02 0.  0.
         12    1    1    2    0    0 -0.10722406680E+02  0.29687701598E+02 -0.45154705819E+01  0.31886033083E+02  0.00000000000E+00 0. -1.
         11    1    3    3    0    0 -0.51098294824E+01  0.59689993920E+01 -0.70224645191E+01  0.10538231316E+02  0.51100000000E-03 0. -1.
        -11    1    3    3    0    0 -0.49939499153E+01 -0.90106999540E+01  0.10815539058E+02  0.14936804705E+02  0.51100000000E-03 0.  1.
        -12    1    3    3    0    0  0.20826186078E+02 -0.26646001036E+02  0.72239604257E+00  0.33826930896E+02  0.00000000000E+00 0.  1.
</event>
<event>
 7    1  0.6061051E-012  0.5930195E+02  0.7816164E-02  0.1266605E+00
        -11   -1    0    0    0    0  0.00000000000E+00  0.00000000000E+00  0.45593999997E+02  0.45594000000E+02  0.51100000000E-03 0.  1.
         11   -1    0    0    0    0 -0.00000000000E+00 -0.00000000000E+00 -0.45593999997E+02  0.45594000000E+02  0.51100000000E-03 0. -1.
    9900012    2    1    2    0    0  0.15952290539E+02  0.27570778599E+02 -0.14480424301E+01  0.59301949244E+02  0.50000009513E+02 0.  0.
         12    1    1    2    0    0 -0.15952290539E+02 -0.27570778599E+02  0.14480424301E+01  0.31886050756E+02  0.00000000000E+00 0. -1.
         11    1    3    3    0    0  0.22114081908E+02  0.29233310559E+02  0.13771164097E+02  0.39156915427E+02  0.51100000000E-03 0.  1.
        -11    1    3    3    0    0 -0.17371467496E+01  0.49275750492E+01 -0.53231104369E+01  0.74588323268E+01  0.51100000000E-03 0. -1.
        -12    1    3    3    0    0 -0.44246446201E+01 -0.65901070100E+01 -0.98960960901E+01  0.12686201490E+02  0.00000000000E+00 0.  1.
</event>
<event>
 7    1  0.6061051E-012  0.5930194E+02  0.7816164E-02  0.1266605E+00
        -11   -1    0    0    0    0  0.00000000000E+00  0.00000000000E+00  0.45593999997E+02  0.45594000000E+02  0.51100000000E-03 0.  1.
         11   -1    0    0    0    0 -0.00000000000E+00 -0.00000000000E+00 -0.45593999997E+02  0.45594000000E+02  0.51100000000E-03 0. -1.
    9900012    2    1    2    0    0 -0.95008809268E+01  0.14836620333E+01  0.30401524481E+02  0.59301942197E+02  0.49999996662E+02 0.  0.
         12    1    1    2    0    0  0.95008809268E+01 -0.14836620333E+01 -0.30401524481E+02  0.31886057803E+02  0.00000000000E+00 0. -1.
         11    1    3    3    0    0  0.48673739384E+01  0.11251303031E+01  0.16063717140E+02  0.16822611446E+02  0.51100000000E-03 0. -1.
        -11    1    3    3    0    0 -0.51320065970E+01 -0.18018213773E+02  0.10754765685E+02  0.21602280076E+02  0.51100000000E-03 0.  1.
         12    1    3    3    0    0 -0.92362482682E+01  0.18376745503E+02  0.35830416561E+01  0.20877050675E+02  0.00000000000E+00 0. -1.
</event>
<event>
 7    1  0.6061051E-012  0.5930194E+02  0.7816164E-02  0.1266605E+00
        -11   -1    0    0    0    0  0.00000000000E+00  0.00000000000E+00  0.45593999997E+02  0.45594000000E+02  0.51100000000E-03 0. -1.
         11   -1    0    0    0    0 -0.00000000000E+00 -0.00000000000E+00 -0.45593999997E+02  0.45594000000E+02  0.51100000000E-03 0.  1.
    9900012    2    1    2    0    0  0.21446392279E+02 -0.11584664902E+02 -0.20556471725E+02  0.59301941409E+02  0.49999995224E+02 0.  0.
         12    1    1    2    0    0 -0.21446392279E+02  0.11584664902E+02  0.20556471725E+02  0.31886058591E+02  0.00000000000E+00 0. -1.
         11    1    3    3    0    0 -0.68191670884E+01 -0.52516369791E+01 -0.13625492331E+02  0.16116289035E+02  0.51100000000E-03 0. -1.
        -11    1    3    3    0    0  0.14570104212E+02 -0.16810364193E+01 -0.19240183395E+02  0.24192942721E+02  0.51100000000E-03 0.  1.
         12    1    3    3    0    0  0.13695455155E+02 -0.46519915034E+01  0.12309204000E+02  0.18992709653E+02  0.00000000000E+00 0. -1.
</event>
<event>
 7    1  0.6061051E-012  0.5930174E+02  0.7816164E-02  0.1266605E+00
        -11   -1    0    0    0    0  0.00000000000E+00  0.00000000000E+00  0.45593999997E+02  0.45594000000E+02  0.51100000000E-03 0. -1.
         11   -1    0    0    0    0 -0.00000000000E+00 -0.00000000000E+00 -0.45593999997E+02  0.45594000000E+02  0.51100000000E-03 0.  1.
    9900012    2    1    2    0    0  0.15058518544E+02  0.21706990146E+01  0.28022537937E+02  0.59301740461E+02  0.49999628742E+02 0.  0.
         12    1    1    2    0    0 -0.15058518544E+02 -0.21706990146E+01 -0.28022537937E+02  0.31886259539E+02  0.00000000000E+00 0. -1.
         11    1    3    3    0    0 -0.30097759282E+01 -0.10093803801E+02 -0.45051352025E+01  0.11455997109E+02  0.51100000000E-03 0. -1.
        -11    1    3    3    0    0  0.10340229950E+02 -0.21799017084E+01 -0.91423531530E+00  0.10606986063E+02  0.51100000000E-03 0.  1.
         12    1    3    3    0    0  0.77280645226E+01  0.14444404524E+02  0.33441908455E+02  0.37238757289E+02  0.00000000000E+00 0. -1.
</event>
<event>
 7    1  0.6061051E-012  0.5930186E+02  0.7816164E-02  0.1266605E+00
        -11   -1    0    0    0    0  0.00000000000E+00  0.00000000000E+00  0.45593999997E+02  0.45594000000E+02  0.51100000000E-03 0.  1.
         11   -1    0    0    0    0 -0.00000000000E+00 -0.00000000000E+00 -0.45593999997E+02  0.45594000000E+02  0.51100000000E-03 0. -1.
    9900012    2    1    2    0    0 -0.37206096563E+01  0.29968320841E+02  0.10236345973E+02  0.59301859294E+02  0.49999845465E+02 0.  0.
         12    1    1    2    0    0  0.37206096563E+01 -0.29968320841E+02 -0.10236345973E+02  0.31886140706E+02  0.00000000000E+00 0. -1.
         11    1    3    3    0    0 -0.47460486188E+01 -0.59342718016E+01 -0.10064303678E+02  0.12610740188E+02  0.51100000000E-03 0. -1.
        -11    1    3    3    0    0  0.71692605569E+01  0.41809309558E+01  0.95182773751E+01  0.12628384102E+02  0.51100000000E-03 0.  1.
         12    1    3    3    0    0 -0.61438215944E+01  0.31721661687E+02  0.10782372276E+02  0.34062735003E+02  0.00000000000E+00 0. -1.
</event>
<event>
 7    1  0.6061051E-012  0.5930193E+02  0.7816164E-02  0.1266605E+00
        -11   -1    0    0    0    0  0.00000000000E+00  0.00000000000E+00  0.45593999997E+02  0.45594000000E+02  0.51100000000E-03 0.  1.
         11   -1    0    0    0    0 -0.00000000000E+00 -0.00000000000E+00 -0.45593999997E+02  0.45594000000E+02  0.51100000000E-03 0. -1.
    9900012    2    1    2    0    0 -0.29029479889E+02  0.17643093649E+01  0.13072801935E+02  0.59301927169E+02  0.49999969253E+02 0.  0.
         12    1    1    2    0    0  0.29029479889E+02 -0.17643093649E+01 -0.13072801935E+02  0.31886072831E+02  0.00000000000E+00 0. -1.
         11    1    3    3    0    0 -0.22234744767E+02  0.51925970025E+01 -0.26148205993E+01  0.22982258930E+02  0.51100000000E-03 0. -1.
        -11    1    3    3    0    0 -0.58448465172E+01  0.12068586900E+02  0.15890568212E+02  0.20792382714E+02  0.51100000000E-03 0.  1.
        -12    1    3    3    0    0 -0.94988860487E+00 -0.15496874538E+02 -0.20294567763E+00  0.15527285524E+02  0.00000000000E+00 0.  1.
</event>
<event>
 7    1  0.6061051E-012  0.5930195E+02  0.7816164E-02  0.1266605E+00
        -11   -1    0    0    0    0  0.00000000000E+00  0.00000000000E+00  0.45593999997E+02  0.45594000000E+02  0.51100000000E-03 0.  1.
         11   -1    0    0    0    0 -0.00000000000E+00 -0.00000000000E+00 -0.45593999997E+02  0.45594000000E+02  0.51100000000E-03 0. -1.
    9900012    2    1    2    0    0  0.19352815046E+02  0.55660348344E+01  0.24722619675E+02  0.59301951051E+02  0.50000012809E+02 0.  0.
         12    1    1    2    0    0 -0.19352815046E+02 -0.55660348344E+01 -0.24722619675E+02  0.31886048949E+02  0.00000000000E+00 0. -1.
         11    1    3    3    0    0  0.30128716199E+01  0.19860818010E+01 -0.77774071498E+01  0.85737960410E+01  0.51100000000E-03 0. -1.
        -11    1    3    3    0    0 -0.54450610514E+01 -0.49098880250E+01 -0.32431185782E+01  0.80170760658E+01  0.51100000000E-03 0.  1.
        -12    1    3    3    0    0  0.21785004478E+02  0.84898410583E+01  0.35743145403E+02  0.42711078944E+02  0.00000000000E+00 0.  1.
</event>
<event>
 7    1  0.6061051E-012  0.5930194E+02  0.7816164E-02  0.1266605E+00
        -11   -1    0    0    0    0  0.00000000000E+00  0.00000000000E+00  0.45593999997E+02  0.45594000000E+02  0.51100000000E-03 0.  1.
         11   -1    0    0    0    0 -0.00000000000E+00 -0.00000000000E+00 -0.45593999997E+02  0.45594000000E+02  0.51100000000E-03 0. -1.
    9900012    2    1    2    0    0 -0.21431856080E+02  0.16586905849E+02  0.16800914338E+02  0.59301943121E+02  0.49999998347E+02 0.  0.
         12    1    1    2    0    0  0.21431856080E+02 -0.16586905849E+02 -0.16800914338E+02  0.31886056879E+02  0.00000000000E+00 0. -1.
         11    1    3    3    0    0  0.74048861879E+00  0.14813553624E+02  0.13606449148E+02  0.20127721009E+02  0.51100000000E-03 0. -1.
        -11    1    3    3    0    0 -0.42050442498E+01 -0.51967739988E+01  0.15105450406E+02  0.16518580125E+02  0.51100000000E-03 0.  1.
         12    1    3    3    0    0 -0.17967300449E+02  0.69701262239E+01 -0.11910985216E+02  0.22655641986E+02  0.00000000000E+00 0. -1.
</event>
<event>
 7    1  0.6061051E-012  0.5930196E+02  0.7816164E-02  0.1266605E+00
        -11   -1    0    0    0    0  0.00000000000E+00  0.00000000000E+00  0.45593999997E+02  0.45594000000E+02  0.51100000000E-03 0.  1.
         11   -1    0    0    0    0 -0.00000000000E+00 -0.00000000000E+00 -0.45593999997E+02  0.45594000000E+02  0.51100000000E-03 0. -1.
    9900012    2    1    2    0    0 -0.26876586261E+02  0.20938039522E+01 -0.17028934960E+02  0.59301960266E+02  0.50000029615E+02 0.  0.
         12    1    1    2    0    0  0.26876586261E+02 -0.20938039522E+01  0.17028934960E+02  0.31886039734E+02  0.00000000000E+00 0. -1.
         11    1    3    3    0    0  0.71134220303E+01  0.11374067382E+02 -0.11708826064E+02  0.17806369362E+02  0.51100000000E-03 0. -1.
        -11    1    3    3    0    0 -0.10613334772E+02  0.37744488199E+01  0.55996736748E+01  0.12579574095E+02  0.51100000000E-03 0.  1.
        -12    1    3    3    0    0 -0.23376673519E+02 -0.13054712250E+02 -0.10919782570E+02  0.28916016809E+02  0.00000000000E+00 0.  1.
</event>
<event>
 7    1  0.6061051E-012  0.5930195E+02  0.7816164E-02  0.1266605E+00
        -11   -1    0    0    0    0  0.00000000000E+00  0.00000000000E+00  0.45593999997E+02  0.45594000000E+02  0.51100000000E-03 0.  1.
         11   -1    0    0    0    0 -0.00000000000E+00 -0.00000000000E+00 -0.45593999997E+02  0.45594000000E+02  0.51100000000E-03 0. -1.
    9900012    2    1    2    0    0  0.10728212083E+02  0.10847477794E+02  0.27999253136E+02  0.59301945287E+02  0.50000002297E+02 0.  0.
         12    1    1    2    0    0 -0.10728212083E+02 -0.10847477794E+02 -0.27999253136E+02  0.31886054713E+02  0.00000000000E+00 0. -1.
         11    1    3    3    0    0  0.16024333781E+02  0.81537493250E+01  0.13445337461E+02  0.22450835193E+02  0.51100000000E-03 0. -1.
        -11    1    3    3    0    0 -0.14447374981E+01  0.11798717633E+02  0.21638610781E+02  0.24688590097E+02  0.51100000000E-03 0.  1.
         12    1    3    3    0    0 -0.38513841997E+01 -0.91049891640E+01 -0.70846951056E+01  0.12162519997E+02  0.00000000000E+00 0. -1.
</event>
<event>
 7    1  0.6061051E-012  0.5930173E+02  0.7816164E-02  0.1266606E+00
        -11   -1    0    0    0    0  0.00000000000E+00  0.00000000000E+00  0.45593999997E+02  0.45594000000E+02  0.51100000000E-03 0. -1.
         11   -1    0    0    0    0 -0.00000000000E+00 -0.00000000000E+00 -0.45593999997E+02  0.45594000000E+02  0.51100000000E-03 0.  1.
    9900012    2    1    2    0    0  0.15703127669E+02  0.23229323481E+02  0.15183692331E+02  0.59301730215E+02  0.49999610056E+02 0.  0.
         12    1    1    2    0    0 -0.15703127669E+02 -0.23229323481E+02 -0.15183692331E+02  0.31886269785E+02  0.00000000000E+00 0. -1.
         11    1    3    3    0    0  0.77464189036E+01  0.13448613574E+02 -0.48999529288E+00  0.15527791489E+02  0.51100000000E-03 0. -1.
        -11    1    3    3    0    0  0.32964616492E+01  0.18719486455E+02  0.24059150930E+02  0.30661516210E+02  0.51100000000E-03 0.  1.
         12    1    3    3    0    0  0.46602471166E+01 -0.89387765484E+01 -0.83854633065E+01  0.13112422516E+02  0.00000000000E+00 0. -1.
</event>
<event>
 7    1  0.6061051E-012  0.5930195E+02  0.7816164E-02  0.1266605E+00
        -11   -1    0    0    0    0  0.00000000000E+00  0.00000000000E+00  0.45593999997E+02  0.45594000000E+02  0.51100000000E-03 0.  1.
         11   -1    0    0    0    0 -0.00000000000E+00 -0.00000000000E+00 -0.45593999997E+02  0.45594000000E+02  0.51100000000E-03 0. -1.
    9900012    2    1    2    0    0 -0.57976492206E+00 -0.37325221435E+01  0.31661530315E+02  0.59301947394E+02  0.50000006140E+02 0.  0.
         12    1    1    2    0    0  0.57976492206E+00  0.37325221435E+01 -0.31661530315E+02  0.31886052606E+02  0.00000000000E+00 0. -1.
         11    1    3    3    0    0  0.11755610998E+00  0.12916025119E+02  0.23579144240E+02  0.26885192350E+02  0.51100000000E-03 0. -1.
        -11    1    3    3    0    0  0.54176174978E+00 -0.61550635191E+01  0.17315361976E+02  0.18384778305E+02  0.51100000000E-03 0.  1.
         12    1    3    3    0    0 -0.12390827818E+01 -0.10493483743E+02 -0.92329759017E+01  0.14031976739E+02  0.00000000000E+00 0. -1.
</event>
<event>
 7    1  0.6061051E-012  0.5930198E+02  0.7816164E-02  0.1266605E+00
        -11   -1    0    0    0    0  0.00000000000E+00  0.00000000000E+00  0.45593999997E+02  0.45594000000E+02  0.51100000000E-03 0.  1.
         11   -1    0    0    0    0 -0.00000000000E+00 -0.00000000000E+00 -0.45593999997E+02  0.45594000000E+02  0.51100000000E-03 0. -1.
    9900012    2    1    2    0    0 -0.21392336009E+02 -0.87494376898E+01  0.21966647240E+02  0.59301979697E+02  0.50000065052E+02 0.  0.
         12    1    1    2    0    0  0.21392336009E+02  0.87494376898E+01 -0.21966647240E+02  0.31886020303E+02  0.00000000000E+00 0. -1.
         11    1    3    3    0    0 -0.86265609748E+01 -0.18514037751E+02 -0.31356648538E+01  0.20664451176E+02  0.51100000000E-03 0. -1.
        -11    1    3    3    0    0 -0.34179908588E+01 -0.75894762559E+01  0.25946923459E+01  0.87186719161E+01  0.51100000000E-03 0.  1.
         12    1    3    3    0    0 -0.93477841751E+01  0.17354076317E+02  0.22507619748E+02  0.29918856604E+02  0.00000000000E+00 0. -1.
</event>
<event>
 7    1  0.6061051E-012  0.5930210E+02  0.7816164E-02  0.1266604E+00
        -11   -1    0    0    0    0  0.00000000000E+00  0.00000000000E+00  0.45593999997E+02  0.45594000000E+02  0.51100000000E-03 0.  1.
         11   -1    0    0    0    0 -0.00000000000E+00 -0.00000000000E+00 -0.45593999997E+02  0.45594000000E+02  0.51100000000E-03 0. -1.
    9900012    2    1    2    0    0 -0.29020531450E+02  0.12101573313E+02  0.52982080791E+01  0.59302104511E+02  0.50000292683E+02 0.  0.
         12    1    1    2    0    0  0.29020531450E+02 -0.12101573313E+02 -0.52982080791E+01  0.31885895489E+02  0.00000000000E+00 0. -1.
         11    1    3    3    0    0  0.36184347731E+01  0.18018479452E+02  0.44654809165E+01  0.18912937161E+02  0.51100000000E-03 0.  1.
        -11    1    3    3    0    0 -0.13427583882E+02  0.51997196711E+01 -0.80327720722E+01  0.16488254031E+02  0.51100000000E-03 0. -1.
        -12    1    3    3    0    0 -0.19211382341E+02 -0.11116625810E+02  0.88654992348E+01  0.23900913320E+02  0.00000000000E+00 0.  1.
</event>
<event>
 7    1  0.6061051E-012  0.5930194E+02  0.7816164E-02  0.1266605E+00
        -11   -1    0    0    0    0  0.00000000000E+00  0.00000000000E+00  0.45593999997E+02  0.45594000000E+02  0.51100000000E-03 0.  1.
         11   -1    0    0    0    0 -0.00000000000E+00 -0.00000000000E+00 -0.45593999997E+02  0.45594000000E+02  0.51100000000E-03 0. -1.
    9900012    2    1    2    0    0  0.31180539753E+02  0.28850915740E+01  0.60142306673E+01  0.59301940614E+02  0.49999993774E+02 0.  0.
         12    1    1    2    0    0 -0.31180539753E+02 -0.28850915740E+01 -0.60142306673E+01  0.31886059386E+02  0.00000000000E+00 0. -1.
         11    1    3    3    0    0  0.84243693383E+01  0.80917070075E+01  0.67226460968E+01  0.13477377039E+02  0.51100000000E-03 0.  1.
        -11    1    3    3    0    0  0.23279456133E+02 -0.19715875265E+02  0.35040335393E+01  0.30707117524E+02  0.51100000000E-03 0. -1.
         12    1    3    3    0    0 -0.52328571881E+00  0.14509259831E+02 -0.42124489688E+01  0.15117446051E+02  0.00000000000E+00 0. -1.
</event>
<event>
 7    1  0.6061051E-012  0.5930194E+02  0.7816164E-02  0.1266605E+00
        -11   -1    0    0    0    0  0.00000000000E+00  0.00000000000E+00  0.45593999997E+02  0.45594000000E+02  0.51100000000E-03 0. -1.
         11   -1    0    0    0    0 -0.00000000000E+00 -0.00000000000E+00 -0.45593999997E+02  0.45594000000E+02  0.51100000000E-03 0.  1.
    9900012    2    1    2    0    0 -0.12219332769E+02 -0.17442751798E+02 -0.23730973951E+02  0.59301940220E+02  0.49999993056E+02 0.  0.
         12    1    1    2    0    0  0.12219332769E+02  0.17442751798E+02  0.23730973951E+02  0.31886059780E+02  0.00000000000E+00 0. -1.
         11    1    3    3    0    0 -0.11955253752E+02 -0.25200566029E+02 -0.11722566068E+02  0.30255828793E+02  0.51100000000E-03 0. -1.
        -11    1    3    3    0    0 -0.23891362946E+01 -0.87430583316E+01 -0.10499964486E+01  0.91242278592E+01  0.51100000000E-03 0.  1.
        -12    1    3    3    0    0  0.21250572783E+01  0.16500872562E+02 -0.10958411434E+02  0.19921883568E+02  0.00000000000E+00 0.  1.
</event>
<event>
 7    1  0.6061051E-012  0.5930196E+02  0.7816164E-02  0.1266605E+00
        -11   -1    0    0    0    0  0.00000000000E+00  0.00000000000E+00  0.45593999997E+02  0.45594000000E+02  0.51100000000E-03 0.  1.
         11   -1    0    0    0    0 -0.00000000000E+00 -0.00000000000E+00 -0.45593999997E+02  0.45594000000E+02  0.51100000000E-03 0. -1.
    9900012    2    1    2    0    0  0.29156315316E+01 -0.31342205132E+02 -0.50877201199E+01  0.59301958763E+02  0.50000026873E+02 0.  0.
         12    1    1    2    0    0 -0.29156315316E+01  0.31342205132E+02  0.50877201199E+01  0.31886041237E+02  0.00000000000E+00 0. -1.
         11    1    3    3    0    0  0.66502193683E+01  0.55320097298E+01 -0.41391170349E+01  0.95896214413E+01  0.51100000000E-03 0. -1.
        -11    1    3    3    0    0  0.60870502299E+00 -0.18833897476E+01 -0.12464017033E+02  0.12620198081E+02  0.51100000000E-03 0.  1.
        -12    1    3    3    0    0 -0.43432928596E+01 -0.34990825114E+02  0.11515413948E+02  0.37092139240E+02  0.00000000000E+00 0.  1.
</event>
<event>
 7    1  0.6061051E-012  0.5930195E+02  0.7816164E-02  0.1266605E+00
        -11   -1    0    0    0    0  0.00000000000E+00  0.00000000000E+00  0.45593999997E+02  0.45594000000E+02  0.51100000000E-03 0.  1.
         11   -1    0    0    0    0 -0.00000000000E+00 -0.00000000000E+00 -0.45593999997E+02  0.45594000000E+02  0.51100000000E-03 0. -1.
    9900012    2    1    2    0    0  0.16563642262E+02 -0.15256112452E+02  0.22574700528E+02  0.59301947938E+02  0.50000007132E+02 0.  0.
         12    1    1    2    0    0 -0.16563642262E+02  0.15256112452E+02 -0.22574700528E+02  0.31886052062E+02  0.00000000000E+00 0. -1.
         11    1    3    3    0    0 -0.82793214966E+01 -0.74603262379E+01 -0.28904549802E+00  0.11148416012E+02  0.51100000000E-03 0. -1.
        -11    1    3    3    0    0  0.11018728283E+01 -0.16854234022E+02  0.77016549877E+01  0.18563265284E+02  0.51100000000E-03 0.  1.
        -12    1    3    3    0    0  0.23741090931E+02  0.90584478079E+01  0.15162091039E+02  0.29590266642E+02  0.00000000000E+00 0.  1.
</event>
<event>
 7    1  0.6061051E-012  0.5930194E+02  0.7816164E-02  0.1266605E+00
        -11   -1    0    0    0    0  0.00000000000E+00  0.00000000000E+00  0.45593999997E+02  0.45594000000E+02  0.51100000000E-03 0.  1.
         11   -1    0    0    0    0 -0.00000000000E+00 -0.00000000000E+00 -0.45593999997E+02  0.45594000000E+02  0.51100000000E-03 0. -1.
    9900012    2    1    2    0    0 -0.15971649909E+02  0.97685724384E+01  0.25810894173E+02  0.59301939310E+02  0.49999991396E+02 0.  0.
         12    1    1    2    0    0  0.15971649909E+02 -0.97685724384E+01 -0.25810894173E+02  0.31886060690E+02  0.00000000000E+00 0. -1.
         11    1    3    3    0    0  0.13649975985E+02 -0.33686401908E+01  0.26309154751E+01  0.14303541437E+02  0.51100000000E-03 0. -1.
        -11    1    3    3    0    0 -0.81199668854E+01  0.98844541119E+00  0.17990216444E+02  0.19762559918E+02  0.51100000000E-03 0.  1.
        -12    1    3    3    0    0 -0.21501659009E+02  0.12148767218E+02  0.51897622540E+01  0.25235837955E+02  0.00000000000E+00 0.  1.
</event>
<event>
 7    1  0.6061051E-012  0.5930194E+02  0.7816164E-02  0.1266605E+00
        -11   -1    0    0    0    0  0.00000000000E+00  0.00000000000E+00  0.45593999997E+02  0.45594000000E+02  0.51100000000E-03 0. -1.
         11   -1    0    0    0    0 -0.00000000000E+00 -0.00000000000E+00 -0.45593999997E+02  0.45594000000E+02  0.51100000000E-03 0.  1.
    9900012    2    1    2    0    0 -0.22414948245E+02  0.14051240287E+02 -0.17800384800E+02  0.59301937881E+02  0.49999988790E+02 0.  0.
         12    1    1    2    0    0  0.22414948245E+02 -0.14051240287E+02  0.17800384800E+02  0.31886062119E+02  0.00000000000E+00 0. -1.
         11    1    3    3    0    0 -0.32660264246E+02  0.13180550449E+02 -0.17417387098E+02  0.39291031347E+02  0.51100000000E-03 0. -1.
        -11    1    3    3    0    0 -0.41776185033E+01 -0.22279719872E+01 -0.20610199104E+01  0.51637349726E+01  0.51100000000E-03 0.  1.
         12    1    3    3    0    0  0.14422934504E+02  0.30986618256E+01  0.16780222088E+01  0.14847171561E+02  0.00000000000E+00 0. -1.
</event>
<event>
 7    1  0.6061051E-012  0.5930193E+02  0.7816164E-02  0.1266605E+00
        -11   -1    0    0    0    0  0.00000000000E+00  0.00000000000E+00  0.45593999997E+02  0.45594000000E+02  0.51100000000E-03 0. -1.
         11   -1    0    0    0    0 -0.00000000000E+00 -0.00000000000E+00 -0.45593999997E+02  0.45594000000E+02  0.51100000000E-03 0.  1.
    9900012    2    1    2    0    0  0.26875249197E+02  0.17119940259E+02 -0.11618099685E+01  0.59301934450E+02  0.49999982532E+02 0.  0.
         12    1    1    2    0    0 -0.26875249197E+02 -0.17119940259E+02  0.11618099685E+01  0.31886065550E+02  0.00000000000E+00 0. -1.
         11    1    3    3    0    0 -0.69399804516E+01 -0.31900818158E+01  0.10957995395E+02  0.13357305642E+02  0.51100000000E-03 0. -1.
        -11    1    3    3    0    0  0.21027503807E+01 -0.11388684298E+01 -0.69035236300E+01  0.73059714779E+01  0.51100000000E-03 0.  1.
        -12    1    3    3    0    0  0.31712479267E+02  0.21448890505E+02 -0.52162817338E+01  0.38638657330E+02  0.00000000000E+00 0.  1.
</event>
<event>
 7    1  0.6061051E-012  0.5930187E+02  0.7816164E-02  0.1266605E+00
        -11   -1    0    0    0    0  0.00000000000E+00  0.00000000000E+00  0.45593999997E+02  0.45594000000E+02  0.51100000000E-03 0.  1.
         11   -1    0    0    0    0 -0.00000000000E+00 -0.00000000000E+00 -0.45593999997E+02  0.45594000000E+02  0.51100000000E-03 0. -1.
    9900012    2    1    2    0    0  0.23294113756E+01  0.31798173616E+02 -0.41857876044E+00  0.59301871184E+02  0.49999867151E+02 0.  0.
         12    1    1    2    0    0 -0.23294113756E+01 -0.31798173616E+02  0.41857876044E+00  0.31886128816E+02  0.00000000000E+00 0. -1.
         11    1    3    3    0    0 -0.19665981814E+00 -0.41090985061E+01  0.43726960125E+01  0.60036519133E+01  0.51100000000E-03 0. -1.
        -11    1    3    3    0    0  0.95645635273E+01  0.35498201555E+02  0.89641182721E+01  0.37841228915E+02  0.51100000000E-03 0.  1.
         12    1    3    3    0    0 -0.70384923336E+01  0.40907056709E+00 -0.13755393045E+02  0.15456990357E+02  0.00000000000E+00 0. -1.
</event>
<event>
 7    1  0.6061051E-012  0.5930193E+02  0.7816164E-02  0.1266605E+00
        -11   -1    0    0    0    0  0.00000000000E+00  0.00000000000E+00  0.45593999997E+02  0.45594000000E+02  0.51100000000E-03 0. -1.
         11   -1    0    0    0    0 -0.00000000000E+00 -0.00000000000E+00 -0.45593999997E+02  0.45594000000E+02  0.51100000000E-03 0.  1.
    9900012    2    1    2    0    0  0.26755703281E+02  0.34982941422E+01  0.16988689202E+02  0.59301932811E+02  0.49999979544E+02 0.  0.
         12    1    1    2    0    0 -0.26755703281E+02 -0.34982941422E+01 -0.16988689202E+02  0.31886067189E+02  0.00000000000E+00 0. -1.
         11    1    3    3    0    0 -0.29070897736E+01  0.17172934701E+02 -0.36739456928E+01  0.17800526240E+02  0.51100000000E-03 0. -1.
        -11    1    3    3    0    0  0.61269669008E+01  0.15517097847E+01 -0.55556142033E+00  0.63447754423E+01  0.51100000000E-03 0.  1.
         12    1    3    3    0    0  0.23535826154E+02 -0.15226350343E+02  0.21218196315E+02  0.35156631130E+02  0.00000000000E+00 0. -1.
</event>
<event>
 7    1  0.6061051E-012  0.5930193E+02  0.7816164E-02  0.1266605E+00
        -11   -1    0    0    0    0  0.00000000000E+00  0.00000000000E+00  0.45593999997E+02  0.45594000000E+02  0.51100000000E-03 0. -1.
         11   -1    0    0    0    0 -0.00000000000E+00 -0.00000000000E+00 -0.45593999997E+02  0.45594000000E+02  0.51100000000E-03 0.  1.
    9900012    2    1    2    0    0  0.18523742904E+02 -0.12395169189E+02 -0.22802455614E+02  0.59301933256E+02  0.49999980354E+02 0.  0.
         12    1    1    2    0    0 -0.18523742904E+02  0.12395169189E+02  0.22802455614E+02  0.31886066744E+02  0.00000000000E+00 0. -1.
         11    1    3    3    0    0 -0.42201645013E+01 -0.26857637440E+01 -0.21929369897E+02  0.22492673910E+02  0.51100000000E-03 0. -1.
        -11    1    3    3    0    0  0.12378374846E-01 -0.70902936297E+01 -0.99288055334E+01  0.12200557223E+02  0.51100000000E-03 0.  1.
        -12    1    3    3    0    0  0.22731529030E+02 -0.26191118152E+01  0.90557198159E+01  0.24608702122E+02  0.00000000000E+00 0.  1.
</event>
<event>
 7    1  0.6061051E-012  0.5930194E+02  0.7816164E-02  0.1266605E+00
        -11   -1    0    0    0    0  0.00000000000E+00  0.00000000000E+00  0.45593999997E+02  0.45594000000E+02  0.51100000000E-03 0.  1.
         11   -1    0    0    0    0 -0.00000000000E+00 -0.00000000000E+00 -0.45593999997E+02  0.45594000000E+02  0.51100000000E-03 0. -1.
    9900012    2    1    2    0    0  0.15484094930E+01  0.26738608756E+02  0.17302319808E+02  0.59301936572E+02  0.49999986403E+02 0.  0.
         12    1    1    2    0    0 -0.15484094930E+01 -0.26738608756E+02 -0.17302319808E+02  0.31886063428E+02  0.00000000000E+00 0. -1.
         11    1    3    3    0    0 -0.46375649159E+01  0.11698420911E+01 -0.13365205409E+02  0.14195219433E+02  0.51100000000E-03 0. -1.
        -11    1    3    3    0    0 -0.12667762163E+00 -0.13817306286E+01  0.11153998684E+02  0.11239969468E+02  0.51100000000E-03 0.  1.
         12    1    3    3    0    0  0.63126520306E+01  0.26950497294E+02  0.19513526533E+02  0.33866747671E+02  0.00000000000E+00 0. -1.
</event>
<event>
 7    1  0.6061051E-012  0.5930196E+02  0.7816164E-02  0.1266605E+00
        -11   -1    0    0    0    0  0.00000000000E+00  0.00000000000E+00  0.45593999997E+02  0.45594000000E+02  0.51100000000E-03 0.  1.
         11   -1    0    0    0    0 -0.00000000000E+00 -0.00000000000E+00 -0.45593999997E+02  0.45594000000E+02  0.51100000000E-03 0. -1.
    9900012    2    1    2    0    0  0.20162369613E+02 -0.15070199529E+02  0.19572623535E+02  0.59301958316E+02  0.50000026058E+02 0.  0.
         12    1    1    2    0    0 -0.20162369613E+02  0.15070199529E+02 -0.19572623535E+02  0.31886041684E+02  0.00000000000E+00 0. -1.
         11    1    3    3    0    0  0.72642063206E+01 -0.50447920203E+01 -0.39607269003E+01  0.96905096788E+01  0.51100000000E-03 0. -1.
        -11    1    3    3    0    0  0.56074262654E+01  0.15837937652E+02  0.88189154281E+01  0.18975161870E+02  0.51100000000E-03 0.  1.
         12    1    3    3    0    0  0.72907370272E+01 -0.25863345161E+02  0.14714435007E+02  0.30636286767E+02  0.00000000000E+00 0. -1.
</event>
<event>
 7    1  0.6061051E-012  0.5930195E+02  0.7816164E-02  0.1266605E+00
        -11   -1    0    0    0    0  0.00000000000E+00  0.00000000000E+00  0.45593999997E+02  0.45594000000E+02  0.51100000000E-03 0.  1.
         11   -1    0    0    0    0 -0.00000000000E+00 -0.00000000000E+00 -0.45593999997E+02  0.45594000000E+02  0.51100000000E-03 0. -1.
    9900012    2    1    2    0    0 -0.42100629926E+01 -0.31565855465E+02 -0.16100300560E+01  0.59301951979E+02  0.50000014500E+02 0.  0.
         12    1    1    2    0    0  0.42100629926E+01  0.31565855465E+02  0.16100300560E+01  0.31886048021E+02  0.00000000000E+00 0. -1.
         11    1    3    3    0    0 -0.42629973907E+01 -0.15343134673E+02 -0.10362237918E+02  0.18998971111E+02  0.51100000000E-03 0. -1.
        -11    1    3    3    0    0 -0.17652579984E+02 -0.91819411388E+01  0.16416578873E+01  0.19965386649E+02  0.51100000000E-03 0.  1.
        -12    1    3    3    0    0  0.17705514382E+02 -0.70407796532E+01  0.71105499744E+01  0.20337594219E+02  0.00000000000E+00 0.  1.
</event>
<event>
 7    1  0.6061051E-012  0.5930234E+02  0.7816164E-02  0.1266603E+00
        -11   -1    0    0    0    0  0.00000000000E+00  0.00000000000E+00  0.45593999997E+02  0.45594000000E+02  0.51100000000E-03 0.  1.
         11   -1    0    0    0    0 -0.00000000000E+00 -0.00000000000E+00 -0.45593999997E+02  0.45594000000E+02  0.51100000000E-03 0. -1.
    9900012    2    1    2    0    0 -0.87169875238E-01  0.23545149133E+02  0.21501477784E+02  0.59302341889E+02  0.50000725598E+02 0.  0.
         12    1    1    2    0    0  0.87169875238E-01 -0.23545149133E+02 -0.21501477784E+02  0.31885658111E+02  0.00000000000E+00 0. -1.
         11    1    3    3    0    0 -0.73695716429E+01 -0.35689857487E+01 -0.90889105626E+00  0.82385877848E+01  0.51100000000E-03 0. -1.
        -11    1    3    3    0    0  0.45102458455E+01 -0.68515627780E+00  0.22670927693E+02  0.23125369607E+02  0.51100000000E-03 0.  1.
        -12    1    3    3    0    0  0.27721559222E+01  0.27799291159E+02 -0.26055885257E+00  0.27938384497E+02  0.00000000000E+00 0.  1.
</event>
<event>
 7    1  0.6061051E-012  0.5930193E+02  0.7816164E-02  0.1266605E+00
        -11   -1    0    0    0    0  0.00000000000E+00  0.00000000000E+00  0.45593999997E+02  0.45594000000E+02  0.51100000000E-03 0.  1.
         11   -1    0    0    0    0 -0.00000000000E+00 -0.00000000000E+00 -0.45593999997E+02  0.45594000000E+02  0.51100000000E-03 0. -1.
    9900012    2    1    2    0    0 -0.21402939049E+02  0.21903154769E+02  0.88818487465E+01  0.59301933672E+02  0.49999981113E+02 0.  0.
         12    1    1    2    0    0  0.21402939049E+02 -0.21903154769E+02 -0.88818487465E+01  0.31886066328E+02  0.00000000000E+00 0. -1.
         11    1    3    3    0    0 -0.30330887705E+01  0.79367255585E+01 -0.76114101300E+01  0.11407225978E+02  0.51100000000E-03 0. -1.
        -11    1    3    3    0    0 -0.10379118685E+02 -0.81077542821E+00 -0.11334012556E+02  0.15389714174E+02  0.51100000000E-03 0.  1.
        -12    1    3    3    0    0 -0.79907315938E+01  0.14777204638E+02  0.27827271433E+02  0.32504993520E+02  0.00000000000E+00 0.  1.
</event>
<event>
 7    1  0.6061051E-012  0.5930195E+02  0.7816164E-02  0.1266605E+00
        -11   -1    0    0    0    0  0.00000000000E+00  0.00000000000E+00  0.45593999997E+02  0.45594000000E+02  0.51100000000E-03 0.  1.
         11   -1    0    0    0    0 -0.00000000000E+00 -0.00000000000E+00 -0.45593999997E+02  0.45594000000E+02  0.51100000000E-03 0. -1.
    9900012    2    1    2    0    0  0.17102172854E+02 -0.25692807475E+02 -0.80072212740E+01  0.59301948743E+02  0.50000008599E+02 0.  0.
         12    1    1    2    0    0 -0.17102172854E+02  0.25692807475E+02  0.80072212740E+01  0.31886051257E+02  0.00000000000E+00 0. -1.
         11    1    3    3    0    0  0.48400997732E+01  0.38051236947E+01 -0.10989678404E+02  0.12596767991E+02  0.51100000000E-03 0. -1.
        -11    1    3    3    0    0 -0.24102235493E+01 -0.11985899520E+02 -0.13740779132E+02  0.18392389085E+02  0.51100000000E-03 0.  1.
        -12    1    3    3    0    0  0.14672296630E+02 -0.17512031650E+02  0.16723236261E+02  0.28312791666E+02  0.00000000000E+00 0.  1.
</event>
<event>
 7    1  0.6061051E-012  0.5930165E+02  0.7816164E-02  0.1266606E+00
        -11   -1    0    0    0    0  0.00000000000E+00  0.00000000000E+00  0.45593999997E+02  0.45594000000E+02  0.51100000000E-03 0.  1.
         11   -1    0    0    0    0 -0.00000000000E+00 -0.00000000000E+00 -0.45593999997E+02  0.45594000000E+02  0.51100000000E-03 0. -1.
    9900012    2    1    2    0    0  0.21898133204E+02  0.16800292793E+02  0.15967502211E+02  0.59301651783E+02  0.49999467013E+02 0.  0.
         12    1    1    2    0    0 -0.21898133204E+02 -0.16800292793E+02 -0.15967502211E+02  0.31886348217E+02  0.00000000000E+00 0. -1.
         11    1    3    3    0    0  0.15177672333E+02 -0.49269253801E+01  0.48650516717E+01  0.16682477609E+02  0.51100000000E-03 0. -1.
        -11    1    3    3    0    0  0.55028319978E+01 -0.28899066068E+01 -0.89146032144E+01  0.10867514478E+02  0.51100000000E-03 0.  1.
        -12    1    3    3    0    0  0.12176288734E+01  0.24617124780E+02  0.20017053754E+02  0.31751659697E+02  0.00000000000E+00 0.  1.
</event>
<event>
 7    1  0.6061051E-012  0.5930224E+02  0.7816164E-02  0.1266604E+00
        -11   -1    0    0    0    0  0.00000000000E+00  0.00000000000E+00  0.45593999997E+02  0.45594000000E+02  0.51100000000E-03 0. -1.
         11   -1    0    0    0    0 -0.00000000000E+00 -0.00000000000E+00 -0.45593999997E+02  0.45594000000E+02  0.51100000000E-03 0.  1.
    9900012    2    1    2    0    0 -0.71022771540E+01 -0.20929989816E+02 -0.22982496786E+02  0.59302235575E+02  0.50000531710E+02 0.  0.
         12    1    1    2    0    0  0.71022771540E+01  0.20929989816E+02  0.22982496786E+02  0.31885764425E+02  0.00000000000E+00 0. -1.
         11    1    3    3    0    0  0.67861748521E+01 -0.16535358120E+02 -0.12825753465E+02  0.21999322478E+02  0.51100000000E-03 0. -1.
        -11    1    3    3    0    0 -0.93974452066E+01 -0.11473675164E+02 -0.19662377047E+02  0.24628566129E+02  0.51100000000E-03 0.  1.
        -12    1    3    3    0    0 -0.44910067995E+01  0.70790434689E+01  0.95056337266E+01  0.12674346968E+02  0.00000000000E+00 0.  1.
</event>
<event>
 7    1  0.6061051E-012  0.5930192E+02  0.7816164E-02  0.1266605E+00
        -11   -1    0    0    0    0  0.00000000000E+00  0.00000000000E+00  0.45593999997E+02  0.45594000000E+02  0.51100000000E-03 0.  1.
         11   -1    0    0    0    0 -0.00000000000E+00 -0.00000000000E+00 -0.45593999997E+02  0.45594000000E+02  0.51100000000E-03 0. -1.
    9900012    2    1    2    0    0  0.28827606620E+02  0.13292122478E+02  0.30017483122E+01  0.59301922845E+02  0.49999961367E+02 0.  0.
         12    1    1    2    0    0 -0.28827606620E+02 -0.13292122478E+02 -0.30017483122E+01  0.31886077155E+02  0.00000000000E+00 0. -1.
         11    1    3    3    0    0  0.69466229274E+01 -0.11513273340E+01 -0.26322701124E+01  0.75173114164E+01  0.51100000000E-03 0. -1.
        -11    1    3    3    0    0  0.21637105257E+02  0.83585152073E+01  0.23433562712E+02  0.32972124015E+02  0.51100000000E-03 0.  1.
         12    1    3    3    0    0  0.24387843569E+00  0.60849346050E+01 -0.17799544288E+02  0.18812487414E+02  0.00000000000E+00 0. -1.
</event>
<event>
 7    1  0.6061051E-012  0.5930193E+02  0.7816164E-02  0.1266605E+00
        -11   -1    0    0    0    0  0.00000000000E+00  0.00000000000E+00  0.45593999997E+02  0.45594000000E+02  0.51100000000E-03 0. -1.
         11   -1    0    0    0    0 -0.00000000000E+00 -0.00000000000E+00 -0.45593999997E+02  0.45594000000E+02  0.51100000000E-03 0.  1.
    9900012    2    1    2    0    0 -0.13039560810E+02 -0.24172389096E+02 -0.16198361951E+02  0.59301929834E+02  0.49999974114E+02 0.  0.
         12    1    1    2    0    0  0.13039560810E+02  0.24172389096E+02  0.16198361951E+02  0.31886070166E+02  0.00000000000E+00 0. -1.
         11    1    3    3    0    0 -0.10445701795E+02 -0.11776188341E+02 -0.19779495977E+02  0.25278840148E+02  0.51100000000E-03 0. -1.
        -11    1    3    3    0    0 -0.53114349897E+01 -0.20558385321E+02 -0.50619278711E+01  0.21828459925E+02  0.51100000000E-03 0.  1.
         12    1    3    3    0    0  0.27175759737E+01  0.81621845661E+01  0.86430618975E+01  0.12194629762E+02  0.00000000000E+00 0. -1.
</event>
<event>
 7    1  0.6061051E-012  0.5930196E+02  0.7816164E-02  0.1266605E+00
        -11   -1    0    0    0    0  0.00000000000E+00  0.00000000000E+00  0.45593999997E+02  0.45594000000E+02  0.51100000000E-03 0.  1.
         11   -1    0    0    0    0 -0.00000000000E+00 -0.00000000000E+00 -0.45593999997E+02  0.45594000000E+02  0.51100000000E-03 0. -1.
    9900012    2    1    2    0    0  0.23274471036E+02 -0.19927432698E+02  0.88270194494E+01  0.59301955274E+02  0.50000020510E+02 0.  0.
         12    1    1    2    0    0 -0.23274471036E+02  0.19927432698E+02 -0.88270194494E+01  0.31886044726E+02  0.00000000000E+00 0. -1.
         11    1    3    3    0    0 -0.21976515036E+01 -0.14893075094E+01  0.13672996942E+01  0.29861710774E+01  0.51100000000E-03 0. -1.
        -11    1    3    3    0    0  0.50629104072E+01 -0.18178594354E+02 -0.16340499254E+02  0.24962096679E+02  0.51100000000E-03 0.  1.
        -12    1    3    3    0    0  0.20409212132E+02 -0.25953083435E+00  0.23800219009E+02  0.31353687518E+02  0.00000000000E+00 0.  1.
</event>
<event>
 7    1  0.6061051E-012  0.5930194E+02  0.7816164E-02  0.1266605E+00
        -11   -1    0    0    0    0  0.00000000000E+00  0.00000000000E+00  0.45593999997E+02  0.45594000000E+02  0.51100000000E-03 0.  1.
         11   -1    0    0    0    0 -0.00000000000E+00 -0.00000000000E+00 -0.45593999997E+02  0.45594000000E+02  0.51100000000E-03 0. -1.
    9900012    2    1    2    0    0  0.23040398815E+02 -0.21474015213E+02  0.49726706619E+01  0.59301940970E+02  0.49999994423E+02 0.  0.
         12    1    1    2    0    0 -0.23040398815E+02  0.21474015213E+02 -0.49726706619E+01  0.31886059030E+02  0.00000000000E+00 0. -1.
         11    1    3    3    0    0  0.79890172117E+01 -0.18471598838E+02 -0.20559684755E+01  0.20229962093E+02  0.51100000000E-03 0. -1.
        -11    1    3    3    0    0  0.10768258562E+02 -0.15152118205E+02 -0.71485862162E+01  0.19915932409E+02  0.51100000000E-03 0.  1.
         12    1    3    3    0    0  0.42831230418E+01  0.12149701830E+02  0.14177225354E+02  0.19156046468E+02  0.00000000000E+00 0. -1.
</event>
<event>
 7    1  0.6061051E-012  0.5930192E+02  0.7816164E-02  0.1266605E+00
        -11   -1    0    0    0    0  0.00000000000E+00  0.00000000000E+00  0.45593999997E+02  0.45594000000E+02  0.51100000000E-03 0.  1.
         11   -1    0    0    0    0 -0.00000000000E+00 -0.00000000000E+00 -0.45593999997E+02  0.45594000000E+02  0.51100000000E-03 0. -1.
    9900012    2    1    2    0    0  0.25619096887E+02 -0.17016991578E+01  0.18907356328E+02  0.59301921084E+02  0.49999958156E+02 0.  0.
         12    1    1    2    0    0 -0.25619096887E+02  0.17016991578E+01 -0.18907356328E+02  0.31886078916E+02  0.00000000000E+00 0. -1.
         11    1    3    3    0    0  0.64596276216E+01 -0.12269009614E+02 -0.43420959753E+01  0.14529596816E+02  0.51100000000E-03 0. -1.
        -11    1    3    3    0    0 -0.13406442521E+00 -0.91763471857E+01  0.83900084445E+00  0.92155978439E+01  0.51100000000E-03 0.  1.
        -12    1    3    3    0    0  0.19293533691E+02  0.19743657642E+02  0.22410451459E+02  0.35556726424E+02  0.00000000000E+00 0.  1.
</event>
<event>
 7    1  0.6061051E-012  0.5930196E+02  0.7816164E-02  0.1266605E+00
        -11   -1    0    0    0    0  0.00000000000E+00  0.00000000000E+00  0.45593999997E+02  0.45594000000E+02  0.51100000000E-03 0.  1.
         11   -1    0    0    0    0 -0.00000000000E+00 -0.00000000000E+00 -0.45593999997E+02  0.45594000000E+02  0.51100000000E-03 0. -1.
    9900012    2    1    2    0    0  0.26496235233E+02  0.17720570486E+02  0.80669802371E+00  0.59301955065E+02  0.50000020129E+02 0.  0.
         12    1    1    2    0    0 -0.26496235233E+02 -0.17720570486E+02 -0.80669802371E+00  0.31886044935E+02  0.00000000000E+00 0. -1.
         11    1    3    3    0    0  0.68056221659E+01 -0.32083782078E+01  0.50699209894E+01  0.90727219118E+01  0.51100000000E-03 0. -1.
        -11    1    3    3    0    0  0.28739314802E+02  0.26248578008E+02 -0.65946138057E+01  0.39476891902E+02  0.51100000000E-03 0.  1.
         12    1    3    3    0    0 -0.90487017349E+01 -0.53196293138E+01  0.23313908400E+01  0.10752341251E+02  0.00000000000E+00 0. -1.
</event>
<event>
 7    1  0.6061051E-012  0.5930192E+02  0.7816164E-02  0.1266605E+00
        -11   -1    0    0    0    0  0.00000000000E+00  0.00000000000E+00  0.45593999997E+02  0.45594000000E+02  0.51100000000E-03 0. -1.
         11   -1    0    0    0    0 -0.00000000000E+00 -0.00000000000E+00 -0.45593999997E+02  0.45594000000E+02  0.51100000000E-03 0.  1.
    9900012    2    1    2    0    0  0.27508445945E+02 -0.10437411790E+02 -0.12290967705E+02  0.59301920745E+02  0.49999957537E+02 0.  0.
         12    1    1    2    0    0 -0.27508445945E+02  0.10437411790E+02  0.12290967705E+02  0.31886079255E+02  0.00000000000E+00 0. -1.
         11    1    3    3    0    0 -0.18594242943E+01  0.62681950771E+01 -0.14337048713E+02  0.15757496447E+02  0.51100000000E-03 0. -1.
        -11    1    3    3    0    0  0.99640386971E+01  0.35945191180E+01 -0.84651997462E+01  0.13559581183E+02  0.51100000000E-03 0.  1.
        -12    1    3    3    0    0  0.19403831542E+02 -0.20300125985E+02  0.10511280754E+02  0.29984843115E+02  0.00000000000E+00 0.  1.
</event>
<event>
 7    1  0.6061051E-012  0.5930194E+02  0.7816164E-02  0.1266605E+00
        -11   -1    0    0    0    0  0.00000000000E+00  0.00000000000E+00  0.45593999997E+02  0.45594000000E+02  0.51100000000E-03 0. -1.
         11   -1    0    0    0    0 -0.00000000000E+00 -0.00000000000E+00 -0.45593999997E+02  0.45594000000E+02  0.51100000000E-03 0.  1.
    9900012    2    1    2    0    0 -0.10017966404E+02  0.12384525542E+02 -0.27622174997E+02  0.59301942305E+02  0.49999996858E+02 0.  0.
         12    1    1    2    0    0  0.10017966404E+02 -0.12384525542E+02  0.27622174997E+02  0.31886057695E+02  0.00000000000E+00 0. -1.
         11    1    3    3    0    0  0.76933940554E+01 -0.91256978296E+01 -0.46975191055E+01  0.12827055741E+02  0.51100000000E-03 0. -1.
        -11    1    3    3    0    0 -0.60712275034E+01 -0.55549917178E+01  0.13015507313E+01  0.83313726930E+01  0.51100000000E-03 0.  1.
         12    1    3    3    0    0 -0.11640132956E+02  0.27065215090E+02 -0.24226206623E+02  0.38143513871E+02  0.00000000000E+00 0. -1.
</event>
<event>
 7    1  0.6061051E-012  0.5930195E+02  0.7816164E-02  0.1266605E+00
        -11   -1    0    0    0    0  0.00000000000E+00  0.00000000000E+00  0.45593999997E+02  0.45594000000E+02  0.51100000000E-03 0.  1.
         11   -1    0    0    0    0 -0.00000000000E+00 -0.00000000000E+00 -0.45593999997E+02  0.45594000000E+02  0.51100000000E-03 0. -1.
    9900012    2    1    2    0    0  0.27086260681E+02 -0.14240701927E+02 -0.89586319634E+01  0.59301949826E+02  0.50000010574E+02 0.  0.
         12    1    1    2    0    0 -0.27086260681E+02  0.14240701927E+02  0.89586319634E+01  0.31886050174E+02  0.00000000000E+00 0. -1.
         11    1    3    3    0    0  0.18648275693E+02 -0.21667990509E+01  0.69205837690E+01  0.20008690222E+02  0.51100000000E-03 0. -1.
        -11    1    3    3    0    0  0.80435565781E+01  0.82919857209E+01  0.25427632105E+01  0.11828840798E+02  0.51100000000E-03 0.  1.
         12    1    3    3    0    0  0.39442841003E+00 -0.20365888597E+02 -0.18421978943E+02  0.27464418805E+02  0.00000000000E+00 0. -1.
</event>
<event>
 7    1  0.6061051E-012  0.5930195E+02  0.7816164E-02  0.1266605E+00
        -11   -1    0    0    0    0  0.00000000000E+00  0.00000000000E+00  0.45593999997E+02  0.45594000000E+02  0.51100000000E-03 0.  1.
         11   -1    0    0    0    0 -0.00000000000E+00 -0.00000000000E+00 -0.45593999997E+02  0.45594000000E+02  0.51100000000E-03 0. -1.
    9900012    2    1    2    0    0 -0.21924699739E+02 -0.35084065016E+01  0.22884903839E+02  0.59301949781E+02  0.50000010493E+02 0.  0.
         12    1    1    2    0    0  0.21924699739E+02  0.35084065016E+01 -0.22884903839E+02  0.31886050219E+02  0.00000000000E+00 0. -1.
         11    1    3    3    0    0  0.32950955517E+01 -0.89935988728E+01 -0.50346138567E+00  0.95914518717E+01  0.51100000000E-03 0. -1.
        -11    1    3    3    0    0  0.20923983168E+01  0.22546808947E+01  0.21956230941E+02  0.22170651638E+02  0.51100000000E-03 0.  1.
        -12    1    3    3    0    0 -0.27312193607E+02  0.32305114764E+01  0.14321342836E+01  0.27539846271E+02  0.00000000000E+00 0.  1.
</event>
<event>
 7    1  0.6061051E-012  0.5930192E+02  0.7816164E-02  0.1266605E+00
        -11   -1    0    0    0    0  0.00000000000E+00  0.00000000000E+00  0.45593999997E+02  0.45594000000E+02  0.51100000000E-03 0.  1.
         11   -1    0    0    0    0 -0.00000000000E+00 -0.00000000000E+00 -0.45593999997E+02  0.45594000000E+02  0.51100000000E-03 0. -1.
    9900012    2    1    2    0    0 -0.30174419880E+02 -0.84649318927E+01 -0.58797450149E+01  0.59301920146E+02  0.49999956445E+02 0.  0.
         12    1    1    2    0    0  0.30174419880E+02  0.84649318927E+01  0.58797450149E+01  0.31886079854E+02  0.00000000000E+00 0. -1.
         11    1    3    3    0    0 -0.65090533048E+01  0.15526270186E+01  0.96707859633E+01  0.11760209479E+02  0.51100000000E-03 0. -1.
        -11    1    3    3    0    0 -0.23746164248E+02 -0.22333538764E+02 -0.11769218693E+02  0.34658069466E+02  0.51100000000E-03 0.  1.
         12    1    3    3    0    0  0.80797672486E-01  0.12315979853E+02 -0.37813122851E+01  0.12883641201E+02  0.00000000000E+00 0. -1.
</event>
<event>
 7    1  0.6061051E-012  0.5930194E+02  0.7816164E-02  0.1266605E+00
        -11   -1    0    0    0    0  0.00000000000E+00  0.00000000000E+00  0.45593999997E+02  0.45594000000E+02  0.51100000000E-03 0.  1.
         11   -1    0    0    0    0 -0.00000000000E+00 -0.00000000000E+00 -0.45593999997E+02  0.45594000000E+02  0.51100000000E-03 0. -1.
    9900012    2    1    2    0    0  0.29665864485E+02 -0.11681708854E+02  0.44135714781E+00  0.59301942960E+02  0.49999998053E+02 0.  0.
         12    1    1    2    0    0 -0.29665864485E+02  0.11681708854E+02 -0.44135714781E+00  0.31886057040E+02  0.00000000000E+00 0. -1.
         11    1    3    3    0    0  0.29267163282E+02 -0.26438344545E+01  0.68867828189E+01  0.30182519528E+02  0.51100000000E-03 0. -1.
        -11    1    3    3    0    0 -0.41841584735E+01  0.85828850240E+01  0.66888808205E+00  0.95718602682E+01  0.51100000000E-03 0.  1.
        -12    1    3    3    0    0  0.45828596770E+01 -0.17620759423E+02 -0.71143137531E+01  0.19547563164E+02  0.00000000000E+00 0.  1.
</event>
<event>
 7    1  0.6061051E-012  0.5930194E+02  0.7816164E-02  0.1266605E+00
        -11   -1    0    0    0    0  0.00000000000E+00  0.00000000000E+00  0.45593999997E+02  0.45594000000E+02  0.51100000000E-03 0.  1.
         11   -1    0    0    0    0 -0.00000000000E+00 -0.00000000000E+00 -0.45593999997E+02  0.45594000000E+02  0.51100000000E-03 0. -1.
    9900012    2    1    2    0    0  0.73471546648E+01 -0.84648441402E+01  0.29851077082E+02  0.59301936101E+02  0.49999985544E+02 0.  0.
         12    1    1    2    0    0 -0.73471546648E+01  0.84648441402E+01 -0.29851077082E+02  0.31886063899E+02  0.00000000000E+00 0. -1.
         11    1    3    3    0    0  0.73430240189E+01 -0.84906798198E+01  0.41154494213E+01  0.11956110143E+02  0.51100000000E-03 0. -1.
        -11    1    3    3    0    0  0.62180097155E+01  0.11273808850E+02 -0.51707818328E+01  0.13874415153E+02  0.51100000000E-03 0.  1.
         12    1    3    3    0    0 -0.62138790697E+01 -0.11247973170E+02  0.30906409494E+02  0.33471410806E+02  0.00000000000E+00 0. -1.
</event>
<event>
 7    1  0.6061051E-012  0.5930194E+02  0.7816164E-02  0.1266605E+00
        -11   -1    0    0    0    0  0.00000000000E+00  0.00000000000E+00  0.45593999997E+02  0.45594000000E+02  0.51100000000E-03 0.  1.
         11   -1    0    0    0    0 -0.00000000000E+00 -0.00000000000E+00 -0.45593999997E+02  0.45594000000E+02  0.51100000000E-03 0. -1.
    9900012    2    1    2    0    0 -0.12503473304E+02  0.29331838771E+02 -0.16481290034E+00  0.59301940764E+02  0.49999994047E+02 0.  0.
         12    1    1    2    0    0  0.12503473304E+02 -0.29331838771E+02  0.16481290034E+00  0.31886059236E+02  0.00000000000E+00 0. -1.
         11    1    3    3    0    0 -0.36850674437E+01 -0.10233860681E+02 -0.77976369455E+01  0.13383376581E+02  0.51100000000E-03 0. -1.
        -11    1    3    3    0    0  0.94047735416E+00  0.18381009710E+02 -0.54248345246E+01  0.19187882777E+02  0.51100000000E-03 0.  1.
        -12    1    3    3    0    0 -0.97588832140E+01  0.21184689743E+02  0.13057658570E+02  0.26730681405E+02  0.00000000000E+00 0.  1.
</event>
<event>
 7    1  0.6061051E-012  0.5930202E+02  0.7816164E-02  0.1266604E+00
        -11   -1    0    0    0    0  0.00000000000E+00  0.00000000000E+00  0.45593999997E+02  0.45594000000E+02  0.51100000000E-03 0. -1.
         11   -1    0    0    0    0 -0.00000000000E+00 -0.00000000000E+00 -0.45593999997E+02  0.45594000000E+02  0.51100000000E-03 0.  1.
    9900012    2    1    2    0    0 -0.11415169467E+02 -0.13961791545E+02 -0.26295965401E+02  0.59302023247E+02  0.50000144477E+02 0.  0.
         12    1    1    2    0    0  0.11415169467E+02  0.13961791545E+02  0.26295965401E+02  0.31885976753E+02  0.00000000000E+00 0. -1.
         11    1    3    3    0    0  0.11186920158E+02 -0.63434404212E+01 -0.89334707114E+00  0.12891256271E+02  0.51100000000E-03 0. -1.
        -11    1    3    3    0    0  0.28326837029E+01  0.71889650159E+01 -0.30712910029E+00  0.77330229216E+01  0.51100000000E-03 0.  1.
        -12    1    3    3    0    0 -0.25434773328E+02 -0.14807316140E+02 -0.25095489229E+02  0.38677744055E+02  0.00000000000E+00 0.  1.
</event>
<event>
 7    1  0.6061051E-012  0.5930196E+02  0.7816164E-02  0.1266605E+00
        -11   -1    0    0    0    0  0.00000000000E+00  0.00000000000E+00  0.45593999997E+02  0.45594000000E+02  0.51100000000E-03 0.  1.
         11   -1    0    0    0    0 -0.00000000000E+00 -0.00000000000E+00 -0.45593999997E+02  0.45594000000E+02  0.51100000000E-03 0. -1.
    9900012    2    1    2    0    0  0.28849846274E+02 -0.66980297062E+01  0.11812802443E+02  0.59301960210E+02  0.50000029512E+02 0.  0.
         12    1    1    2    0    0 -0.28849846274E+02  0.66980297062E+01 -0.11812802443E+02  0.31886039790E+02  0.00000000000E+00 0. -1.
         11    1    3    3    0    0  0.14243216614E+02 -0.40557408841E+00 -0.18594880916E+02  0.23426551312E+02  0.51100000000E-03 0.  1.
        -11    1    3    3    0    0 -0.11857611014E+01 -0.20795920739E+01  0.20833945824E+01  0.31735257728E+01  0.51100000000E-03 0. -1.
        -12    1    3    3    0    0  0.15792390761E+02 -0.42128635439E+01  0.28324288777E+02  0.32701883124E+02  0.00000000000E+00 0.  1.
</event>
<event>
 7    1  0.6061051E-012  0.5930199E+02  0.7816164E-02  0.1266605E+00
        -11   -1    0    0    0    0  0.00000000000E+00  0.00000000000E+00  0.45593999997E+02  0.45594000000E+02  0.51100000000E-03 0. -1.
         11   -1    0    0    0    0 -0.00000000000E+00 -0.00000000000E+00 -0.45593999997E+02  0.45594000000E+02  0.51100000000E-03 0.  1.
    9900012    2    1    2    0    0 -0.39364273345E+01  0.29245420623E+02 -0.12080050275E+02  0.59301988926E+02  0.50000081883E+02 0.  0.
         12    1    1    2    0    0  0.39364273345E+01 -0.29245420623E+02  0.12080050275E+02  0.31886011074E+02  0.00000000000E+00 0. -1.
         11    1    3    3    0    0  0.94313863846E+01  0.28199126684E+02  0.50499647088E+01  0.30160304022E+02  0.51100000000E-03 0. -1.
        -11    1    3    3    0    0  0.59043391482E+00  0.47763455757E+01 -0.13373737162E+02  0.14213336526E+02  0.51100000000E-03 0.  1.
         12    1    3    3    0    0 -0.13958247634E+02 -0.37300516363E+01 -0.37562778224E+01  0.14928348378E+02  0.00000000000E+00 0. -1.
</event>
<event>
 7    1  0.6061051E-012  0.5930194E+02  0.7816164E-02  0.1266605E+00
        -11   -1    0    0    0    0  0.00000000000E+00  0.00000000000E+00  0.45593999997E+02  0.45594000000E+02  0.51100000000E-03 0.  1.
         11   -1    0    0    0    0 -0.00000000000E+00 -0.00000000000E+00 -0.45593999997E+02  0.45594000000E+02  0.51100000000E-03 0. -1.
    9900012    2    1    2    0    0 -0.28169192084E+02  0.11130384016E+02  0.99665310867E+01  0.59301943911E+02  0.49999999787E+02 0.  0.
         12    1    1    2    0    0  0.28169192084E+02 -0.11130384016E+02 -0.99665310867E+01  0.31886056089E+02  0.00000000000E+00 0. -1.
         11    1    3    3    0    0 -0.14860924639E+02 -0.10699001893E+02 -0.82210966720E+01  0.20072422708E+02  0.51100000000E-03 0. -1.
        -11    1    3    3    0    0 -0.67410468786E+01 -0.41526904013E+01  0.49691469666E+01  0.93476720324E+01  0.51100000000E-03 0.  1.
        -12    1    3    3    0    0 -0.65672205669E+01  0.25982076310E+02  0.13218480792E+02  0.29881849170E+02  0.00000000000E+00 0.  1.
</event>
<event>
 7    1  0.6061051E-012  0.5930195E+02  0.7816164E-02  0.1266605E+00
        -11   -1    0    0    0    0  0.00000000000E+00  0.00000000000E+00  0.45593999997E+02  0.45594000000E+02  0.51100000000E-03 0. -1.
         11   -1    0    0    0    0 -0.00000000000E+00 -0.00000000000E+00 -0.45593999997E+02  0.45594000000E+02  0.51100000000E-03 0.  1.
    9900012    2    1    2    0    0 -0.24977338066E+02  0.14742173989E+02  0.13248437133E+02  0.59301949802E+02  0.50000010531E+02 0.  0.
         12    1    1    2    0    0  0.24977338066E+02 -0.14742173989E+02 -0.13248437133E+02  0.31886050198E+02  0.00000000000E+00 0. -1.
         11    1    3    3    0    0  0.43352035136E+01 -0.48481849137E+01  0.12179214490E+01  0.66168133855E+01  0.51100000000E-03 0. -1.
        -11    1    3    3    0    0 -0.15596272369E+02  0.16348863293E+02 -0.11426289271E+02  0.25319737944E+02  0.51100000000E-03 0.  1.
         12    1    3    3    0    0 -0.13716269211E+02  0.32414956091E+01  0.23456804955E+02  0.27365398472E+02  0.00000000000E+00 0. -1.
</event>
<event>
 7    1  0.6061051E-012  0.5930198E+02  0.7816164E-02  0.1266605E+00
        -11   -1    0    0    0    0  0.00000000000E+00  0.00000000000E+00  0.45593999997E+02  0.45594000000E+02  0.51100000000E-03 0. -1.
         11   -1    0    0    0    0 -0.00000000000E+00 -0.00000000000E+00 -0.45593999997E+02  0.45594000000E+02  0.51100000000E-03 0.  1.
    9900012    2    1    2    0    0 -0.13282806469E+02  0.16136525149E+02  0.24081067555E+02  0.59301981024E+02  0.50000067472E+02 0.  0.
         12    1    1    2    0    0  0.13282806469E+02 -0.16136525149E+02 -0.24081067555E+02  0.31886018976E+02  0.00000000000E+00 0. -1.
         11    1    3    3    0    0  0.69400397468E+01 -0.38593376409E+01  0.10766294732E+01  0.80135990664E+01  0.51100000000E-03 0. -1.
        -11    1    3    3    0    0 -0.16681963805E+01 -0.90209916903E+01  0.12053061525E+02  0.15147193226E+02  0.51100000000E-03 0.  1.
        -12    1    3    3    0    0 -0.18554649835E+02  0.29016854480E+02  0.10951376556E+02  0.36141188731E+02  0.00000000000E+00 0.  1.
</event>
<event>
 7    1  0.6061051E-012  0.5930195E+02  0.7816164E-02  0.1266605E+00
        -11   -1    0    0    0    0  0.00000000000E+00  0.00000000000E+00  0.45593999997E+02  0.45594000000E+02  0.51100000000E-03 0.  1.
         11   -1    0    0    0    0 -0.00000000000E+00 -0.00000000000E+00 -0.45593999997E+02  0.45594000000E+02  0.51100000000E-03 0. -1.
    9900012    2    1    2    0    0 -0.14993223932E+02 -0.15270507272E+02  0.23637574066E+02  0.59301951892E+02  0.50000014342E+02 0.  0.
         12    1    1    2    0    0  0.14993223932E+02  0.15270507272E+02 -0.23637574066E+02  0.31886048108E+02  0.00000000000E+00 0. -1.
         11    1    3    3    0    0 -0.45541232413E+01 -0.27818014737E+01 -0.39204035367E+01  0.66217839053E+01  0.51100000000E-03 0. -1.
        -11    1    3    3    0    0 -0.16709797050E+01  0.15391330421E+02  0.72793704109E+01  0.17107730976E+02  0.51100000000E-03 0.  1.
        -12    1    3    3    0    0 -0.87681209857E+01 -0.27880036220E+02  0.20278607192E+02  0.35572437011E+02  0.00000000000E+00 0.  1.
</event>
<event>
 7    1  0.6061051E-012  0.5930192E+02  0.7816164E-02  0.1266605E+00
        -11   -1    0    0    0    0  0.00000000000E+00  0.00000000000E+00  0.45593999997E+02  0.45594000000E+02  0.51100000000E-03 0.  1.
         11   -1    0    0    0    0 -0.00000000000E+00 -0.00000000000E+00 -0.45593999997E+02  0.45594000000E+02  0.51100000000E-03 0. -1.
    9900012    2    1    2    0    0 -0.12800087279E+01 -0.42954806112E+01  0.31569487978E+02  0.59301919224E+02  0.49999954764E+02 0.  0.
         12    1    1    2    0    0  0.12800087279E+01  0.42954806112E+01 -0.31569487978E+02  0.31886080776E+02  0.00000000000E+00 0. -1.
         11    1    3    3    0    0  0.23237220509E+01  0.11328760845E+02 -0.65552033910E+01  0.13293276429E+02  0.51100000000E-03 0. -1.
        -11    1    3    3    0    0  0.71297002037E+01 -0.73785544466E+00  0.13649228743E+02  0.15416825263E+02  0.51100000000E-03 0.  1.
         12    1    3    3    0    0 -0.10733430983E+02 -0.14886386012E+02  0.24475462626E+02  0.30591817532E+02  0.00000000000E+00 0. -1.
</event>
<event>
 7    1  0.6061051E-012  0.5930195E+02  0.7816164E-02  0.1266605E+00
        -11   -1    0    0    0    0  0.00000000000E+00  0.00000000000E+00  0.45593999997E+02  0.45594000000E+02  0.51100000000E-03 0. -1.
         11   -1    0    0    0    0 -0.00000000000E+00 -0.00000000000E+00 -0.45593999997E+02  0.45594000000E+02  0.51100000000E-03 0.  1.
    9900012    2    1    2    0    0 -0.90288996036E+01 -0.23434678712E+02 -0.19647266038E+02  0.59301948862E+02  0.50000008817E+02 0.  0.
         12    1    1    2    0    0  0.90288996036E+01  0.23434678712E+02  0.19647266038E+02  0.31886051138E+02  0.00000000000E+00 0. -1.
         11    1    3    3    0    0 -0.13539529714E+02 -0.61779966491E+01 -0.27822931344E+01  0.15140266273E+02  0.51100000000E-03 0. -1.
        -11    1    3    3    0    0  0.13174896766E+02  0.25837945814E+00 -0.20417386625E+02  0.24300500851E+02  0.51100000000E-03 0.  1.
         12    1    3    3    0    0 -0.86642666556E+01 -0.17515061522E+02  0.35524137219E+01  0.19861181738E+02  0.00000000000E+00 0. -1.
</event>
<event>
 7    1  0.6061051E-012  0.5930192E+02  0.7816164E-02  0.1266605E+00
        -11   -1    0    0    0    0  0.00000000000E+00  0.00000000000E+00  0.45593999997E+02  0.45594000000E+02  0.51100000000E-03 0. -1.
         11   -1    0    0    0    0 -0.00000000000E+00 -0.00000000000E+00 -0.45593999997E+02  0.45594000000E+02  0.51100000000E-03 0.  1.
    9900012    2    1    2    0    0  0.11306139713E+02 -0.27915535066E+02 -0.10469779150E+02  0.59301918888E+02  0.49999954152E+02 0.  0.
         12    1    1    2    0    0 -0.11306139713E+02  0.27915535066E+02  0.10469779150E+02  0.31886081112E+02  0.00000000000E+00 0. -1.
         11    1    3    3    0    0  0.59156458953E+01  0.33000298428E+01 -0.12655936315E+02  0.14354713080E+02  0.51100000000E-03 0. -1.
        -11    1    3    3    0    0  0.15196191683E+01 -0.29140812937E+02 -0.10895375061E+02  0.31148120634E+02  0.51100000000E-03 0.  1.
         12    1    3    3    0    0  0.38708746491E+01 -0.20747519719E+01  0.13081532226E+02  0.13799085175E+02  0.00000000000E+00 0. -1.
</event>
<event>
 7    1  0.6061051E-012  0.5930188E+02  0.7816164E-02  0.1266605E+00
        -11   -1    0    0    0    0  0.00000000000E+00  0.00000000000E+00  0.45593999997E+02  0.45594000000E+02  0.51100000000E-03 0. -1.
         11   -1    0    0    0    0 -0.00000000000E+00 -0.00000000000E+00 -0.45593999997E+02  0.45594000000E+02  0.51100000000E-03 0.  1.
    9900012    2    1    2    0    0 -0.23250491590E+02  0.17283615729E+02 -0.13319760254E+02  0.59301878489E+02  0.49999880472E+02 0.  0.
         12    1    1    2    0    0  0.23250491590E+02 -0.17283615729E+02  0.13319760254E+02  0.31886121511E+02  0.00000000000E+00 0. -1.
         11    1    3    3    0    0 -0.10711981273E+02  0.16963746341E+02 -0.44489399950E+01  0.20550141120E+02  0.51100000000E-03 0. -1.
        -11    1    3    3    0    0 -0.35458218277E+01  0.14823515300E+02 -0.14243043668E+02  0.20860818572E+02  0.51100000000E-03 0.  1.
         12    1    3    3    0    0 -0.89926884893E+01 -0.14503645913E+02  0.53722234093E+01  0.17890918797E+02  0.00000000000E+00 0. -1.
</event>
<event>
 7    1  0.6061051E-012  0.5930193E+02  0.7816164E-02  0.1266605E+00
        -11   -1    0    0    0    0  0.00000000000E+00  0.00000000000E+00  0.45593999997E+02  0.45594000000E+02  0.51100000000E-03 0. -1.
         11   -1    0    0    0    0 -0.00000000000E+00 -0.00000000000E+00 -0.45593999997E+02  0.45594000000E+02  0.51100000000E-03 0.  1.
    9900012    2    1    2    0    0  0.67381907954E+01 -0.23116484658E+02 -0.20903263500E+02  0.59301929325E+02  0.49999973187E+02 0.  0.
         12    1    1    2    0    0 -0.67381907954E+01  0.23116484658E+02  0.20903263500E+02  0.31886070675E+02  0.00000000000E+00 0. -1.
         11    1    3    3    0    0  0.58318930122E+01 -0.99616387301E+00 -0.47185826587E+01  0.75675848945E+01  0.51100000000E-03 0. -1.
        -11    1    3    3    0    0 -0.93593375554E+01 -0.11385917974E+02 -0.28731402818E+02  0.32291327562E+02  0.51100000000E-03 0.  1.
         12    1    3    3    0    0  0.10265635339E+02 -0.10734402811E+02  0.12546721977E+02  0.19443016869E+02  0.00000000000E+00 0. -1.
</event>
<event>
 7    1  0.6061051E-012  0.5930193E+02  0.7816164E-02  0.1266605E+00
        -11   -1    0    0    0    0  0.00000000000E+00  0.00000000000E+00  0.45593999997E+02  0.45594000000E+02  0.51100000000E-03 0.  1.
         11   -1    0    0    0    0 -0.00000000000E+00 -0.00000000000E+00 -0.45593999997E+02  0.45594000000E+02  0.51100000000E-03 0. -1.
    9900012    2    1    2    0    0 -0.69328647302E+01  0.31045214470E+02  0.22026785830E+01  0.59301925488E+02  0.49999966188E+02 0.  0.
         12    1    1    2    0    0  0.69328647302E+01 -0.31045214470E+02 -0.22026785830E+01  0.31886074512E+02  0.00000000000E+00 0. -1.
         11    1    3    3    0    0 -0.15221855492E+01  0.33857567018E+01  0.73455878989E+01  0.82303134285E+01  0.51100000000E-03 0. -1.
        -11    1    3    3    0    0  0.48114699007E+01 -0.89697520681E+01  0.55160024626E+01  0.11577261256E+02  0.51100000000E-03 0.  1.
         12    1    3    3    0    0 -0.10222149082E+02  0.36629209836E+02 -0.10658911779E+02  0.39494350803E+02  0.00000000000E+00 0. -1.
</event>
<event>
 7    1  0.6061051E-012  0.5930199E+02  0.7816164E-02  0.1266605E+00
        -11   -1    0    0    0    0  0.00000000000E+00  0.00000000000E+00  0.45593999997E+02  0.45594000000E+02  0.51100000000E-03 0. -1.
         11   -1    0    0    0    0 -0.00000000000E+00 -0.00000000000E+00 -0.45593999997E+02  0.45594000000E+02  0.51100000000E-03 0.  1.
    9900012    2    1    2    0    0  0.19064889340E+02  0.94178110656E+01  0.23760318985E+02  0.59301985368E+02  0.50000075395E+02 0.  0.
         12    1    1    2    0    0 -0.19064889340E+02 -0.94178110656E+01 -0.23760318985E+02  0.31886014632E+02  0.00000000000E+00 0. -1.
         11    1    3    3    0    0  0.65163417847E+01  0.13981383409E+02  0.16201803610E+02  0.22370521513E+02  0.51100000000E-03 0. -1.
        -11    1    3    3    0    0  0.16838279483E+02 -0.23778617727E+00  0.18121181017E+02  0.24737853584E+02  0.51100000000E-03 0.  1.
         12    1    3    3    0    0 -0.42897319276E+01 -0.43257861660E+01 -0.10562665643E+02  0.12193610271E+02  0.00000000000E+00 0. -1.
</event>
<event>
 7    1  0.6061051E-012  0.5930194E+02  0.7816164E-02  0.1266605E+00
        -11   -1    0    0    0    0  0.00000000000E+00  0.00000000000E+00  0.45593999997E+02  0.45594000000E+02  0.51100000000E-03 0.  1.
         11   -1    0    0    0    0 -0.00000000000E+00 -0.00000000000E+00 -0.45593999997E+02  0.45594000000E+02  0.51100000000E-03 0. -1.
    9900012    2    1    2    0    0 -0.10514443083E+02 -0.26530852861E+02  0.14222553397E+02  0.59301942044E+02  0.49999996382E+02 0.  0.
         12    1    1    2    0    0  0.10514443083E+02  0.26530852861E+02 -0.14222553397E+02  0.31886057956E+02  0.00000000000E+00 0. -1.
         11    1    3    3    0    0 -0.14215553956E+02 -0.52444777847E+01 -0.12670801523E+00  0.15152642565E+02  0.51100000000E-03 0. -1.
        -11    1    3    3    0    0 -0.46803392612E+01  0.13598438355E+01 -0.92054934158E+01  0.10416134607E+02  0.51100000000E-03 0.  1.
        -12    1    3    3    0    0  0.83814501339E+01 -0.22646218911E+02  0.23554754828E+02  0.33733164873E+02  0.00000000000E+00 0.  1.
</event>
<event>
 7    1  0.6061051E-012  0.5930189E+02  0.7816164E-02  0.1266605E+00
        -11   -1    0    0    0    0  0.00000000000E+00  0.00000000000E+00  0.45593999997E+02  0.45594000000E+02  0.51100000000E-03 0. -1.
         11   -1    0    0    0    0 -0.00000000000E+00 -0.00000000000E+00 -0.45593999997E+02  0.45594000000E+02  0.51100000000E-03 0.  1.
    9900012    2    1    2    0    0  0.22113373715E+02 -0.13653118253E+02 -0.18474710972E+02  0.59301892044E+02  0.49999905193E+02 0.  0.
         12    1    1    2    0    0 -0.22113373715E+02  0.13653118253E+02  0.18474710972E+02  0.31886107956E+02  0.00000000000E+00 0. -1.
         11    1    3    3    0    0  0.73903418347E+01 -0.48420416985E+01  0.53888004117E+01  0.10348994656E+02  0.51100000000E-03 0. -1.
        -11    1    3    3    0    0  0.23703355704E+02  0.79115452788E-01 -0.27004498142E+02  0.35931855658E+02  0.51100000000E-03 0.  1.
         12    1    3    3    0    0 -0.89803238235E+01 -0.88901920076E+01  0.31409867586E+01  0.13021041730E+02  0.00000000000E+00 0. -1.
</event>
<event>
 7    1  0.6061051E-012  0.5930195E+02  0.7816164E-02  0.1266605E+00
        -11   -1    0    0    0    0  0.00000000000E+00  0.00000000000E+00  0.45593999997E+02  0.45594000000E+02  0.51100000000E-03 0.  1.
         11   -1    0    0    0    0 -0.00000000000E+00 -0.00000000000E+00 -0.45593999997E+02  0.45594000000E+02  0.51100000000E-03 0. -1.
    9900012    2    1    2    0    0 -0.20998496243E+02 -0.74521752239E+01  0.22808950307E+02  0.59301953301E+02  0.50000016912E+02 0.  0.
         12    1    1    2    0    0  0.20998496243E+02  0.74521752239E+01 -0.22808950307E+02  0.31886046699E+02  0.00000000000E+00 0. -1.
         11    1    3    3    0    0 -0.78176782386E+01 -0.13312265900E+02 -0.56400185829E+01  0.16436007006E+02  0.51100000000E-03 0. -1.
        -11    1    3    3    0    0 -0.66153163504E+01  0.19965886957E+01 -0.50199590475E+01  0.85410049722E+01  0.51100000000E-03 0.  1.
        -12    1    3    3    0    0 -0.65655016537E+01  0.38635019805E+01  0.33468927937E+02  0.34324941322E+02  0.00000000000E+00 0.  1.
</event>
<event>
 7    1  0.6061051E-012  0.5930192E+02  0.7816164E-02  0.1266605E+00
        -11   -1    0    0    0    0  0.00000000000E+00  0.00000000000E+00  0.45593999997E+02  0.45594000000E+02  0.51100000000E-03 0.  1.
         11   -1    0    0    0    0 -0.00000000000E+00 -0.00000000000E+00 -0.45593999997E+02  0.45594000000E+02  0.51100000000E-03 0. -1.
    9900012    2    1    2    0    0 -0.75026966816E+00 -0.31537323695E+02  0.46428580241E+01  0.59301924339E+02  0.49999964093E+02 0.  0.
         12    1    1    2    0    0  0.75026966816E+00  0.31537323695E+02 -0.46428580241E+01  0.31886075661E+02  0.00000000000E+00 0. -1.
         11    1    3    3    0    0 -0.17236479108E+01 -0.68529194060E+01  0.41540942668E+01  0.81969485752E+01  0.51100000000E-03 0.  1.
        -11    1    3    3    0    0 -0.17825635840E+02 -0.24215626857E+02 -0.69843954295E+01  0.30869591137E+02  0.51100000000E-03 0. -1.
         12    1    3    3    0    0  0.18799014083E+02 -0.46877743204E+00  0.74731591868E+01  0.20235384627E+02  0.00000000000E+00 0. -1.
</event>
<event>
 7    1  0.6061051E-012  0.5930196E+02  0.7816164E-02  0.1266605E+00
        -11   -1    0    0    0    0  0.00000000000E+00  0.00000000000E+00  0.45593999997E+02  0.45594000000E+02  0.51100000000E-03 0.  1.
         11   -1    0    0    0    0 -0.00000000000E+00 -0.00000000000E+00 -0.45593999997E+02  0.45594000000E+02  0.51100000000E-03 0. -1.
    9900012    2    1    2    0    0  0.30192566937E+02 -0.81505065288E+01  0.62207534388E+01  0.59301958724E+02  0.50000026803E+02 0.  0.
         12    1    1    2    0    0 -0.30192566937E+02  0.81505065288E+01 -0.62207534388E+01  0.31886041276E+02  0.00000000000E+00 0. -1.
         11    1    3    3    0    0  0.11733592307E+02 -0.13934341023E+02 -0.74761526779E+01  0.19691010825E+02  0.51100000000E-03 0. -1.
        -11    1    3    3    0    0  0.20968042288E+02 -0.37076800863E+01 -0.16883818455E+01  0.21360157362E+02  0.51100000000E-03 0.  1.
        -12    1    3    3    0    0 -0.25090676584E+01  0.94915145809E+01  0.15385287962E+02  0.18250790537E+02  0.00000000000E+00 0.  1.
</event>
<event>
 7    1  0.6061051E-012  0.5930192E+02  0.7816164E-02  0.1266605E+00
        -11   -1    0    0    0    0  0.00000000000E+00  0.00000000000E+00  0.45593999997E+02  0.45594000000E+02  0.51100000000E-03 0. -1.
         11   -1    0    0    0    0 -0.00000000000E+00 -0.00000000000E+00 -0.45593999997E+02  0.45594000000E+02  0.51100000000E-03 0.  1.
    9900012    2    1    2    0    0 -0.25570482848E+01 -0.31093476836E+02 -0.65862767806E+01  0.59301924050E+02  0.49999963565E+02 0.  0.
         12    1    1    2    0    0  0.25570482848E+01  0.31093476836E+02  0.65862767806E+01  0.31886075950E+02  0.00000000000E+00 0. -1.
         11    1    3    3    0    0  0.95678170603E+00  0.52803025582E+00 -0.14009703856E+02  0.14052261369E+02  0.51100000000E-03 0. -1.
        -11    1    3    3    0    0 -0.88701190013E+01 -0.72147763913E+01 -0.96701536044E+01  0.14974774805E+02  0.51100000000E-03 0.  1.
         12    1    3    3    0    0  0.53562890105E+01 -0.24406730700E+02  0.17093580680E+02  0.30274887876E+02  0.00000000000E+00 0. -1.
</event>
<event>
 7    1  0.6061051E-012  0.5930194E+02  0.7816164E-02  0.1266605E+00
        -11   -1    0    0    0    0  0.00000000000E+00  0.00000000000E+00  0.45593999997E+02  0.45594000000E+02  0.51100000000E-03 0.  1.
         11   -1    0    0    0    0 -0.00000000000E+00 -0.00000000000E+00 -0.45593999997E+02  0.45594000000E+02  0.51100000000E-03 0. -1.
    9900012    2    1    2    0    0  0.28982324860E+02 -0.32952472933E+01  0.12879704769E+02  0.59301943424E+02  0.49999998900E+02 0.  0.
         12    1    1    2    0    0 -0.28982324860E+02  0.32952472933E+01 -0.12879704769E+02  0.31886056576E+02  0.00000000000E+00 0. -1.
         11    1    3    3    0    0 -0.10509263186E+02 -0.45734585138E+01  0.40374882170E+01  0.12151643792E+02  0.51100000000E-03 0. -1.
        -11    1    3    3    0    0  0.14364108005E+02 -0.55986015232E+01 -0.67057528013E+01  0.16811872552E+02  0.51100000000E-03 0.  1.
        -12    1    3    3    0    0  0.25127480040E+02  0.68768127437E+01  0.15547969354E+02  0.30338427080E+02  0.00000000000E+00 0.  1.
</event>
<event>
 7    1  0.6061051E-012  0.5930194E+02  0.7816164E-02  0.1266605E+00
        -11   -1    0    0    0    0  0.00000000000E+00  0.00000000000E+00  0.45593999997E+02  0.45594000000E+02  0.51100000000E-03 0.  1.
         11   -1    0    0    0    0 -0.00000000000E+00 -0.00000000000E+00 -0.45593999997E+02  0.45594000000E+02  0.51100000000E-03 0. -1.
    9900012    2    1    2    0    0  0.15790066326E+02 -0.24617879667E+02  0.12702537725E+02  0.59301942568E+02  0.49999997339E+02 0.  0.
         12    1    1    2    0    0 -0.15790066326E+02  0.24617879667E+02 -0.12702537725E+02  0.31886057432E+02  0.00000000000E+00 0. -1.
         11    1    3    3    0    0  0.11116620068E+02  0.61888087364E+01  0.25870794281E+01  0.12983588700E+02  0.51100000000E-03 0. -1.
        -11    1    3    3    0    0  0.16214597924E+02 -0.27046922751E+02  0.12546602990E+02  0.33939158254E+02  0.51100000000E-03 0.  1.
         12    1    3    3    0    0 -0.11541151666E+02 -0.37597656523E+01 -0.24311446931E+01  0.12379195614E+02  0.00000000000E+00 0. -1.
</event>
<event>
 7    1  0.6061051E-012  0.5930193E+02  0.7816164E-02  0.1266605E+00
        -11   -1    0    0    0    0  0.00000000000E+00  0.00000000000E+00  0.45593999997E+02  0.45594000000E+02  0.51100000000E-03 0.  1.
         11   -1    0    0    0    0 -0.00000000000E+00 -0.00000000000E+00 -0.45593999997E+02  0.45594000000E+02  0.51100000000E-03 0. -1.
    9900012    2    1    2    0    0 -0.22924720060E+01  0.31310662405E+02 -0.55774871801E+01  0.59301931390E+02  0.49999976952E+02 0.  0.
         12    1    1    2    0    0  0.22924720060E+01 -0.31310662405E+02  0.55774871801E+01  0.31886068610E+02  0.00000000000E+00 0. -1.
         11    1    3    3    0    0 -0.26864035186E+01  0.15569245957E+02  0.97217741857E+01  0.18550770257E+02  0.51100000000E-03 0. -1.
        -11    1    3    3    0    0  0.20436291025E+01  0.29967190969E+01  0.10944478618E+02  0.11529889754E+02  0.51100000000E-03 0.  1.
         12    1    3    3    0    0 -0.16496975898E+01  0.12744697351E+02 -0.26243739984E+02  0.29221271380E+02  0.00000000000E+00 0. -1.
</event>
<event>
 7    1  0.6061051E-012  0.5930195E+02  0.7816164E-02  0.1266605E+00
        -11   -1    0    0    0    0  0.00000000000E+00  0.00000000000E+00  0.45593999997E+02  0.45594000000E+02  0.51100000000E-03 0.  1.
         11   -1    0    0    0    0 -0.00000000000E+00 -0.00000000000E+00 -0.45593999997E+02  0.45594000000E+02  0.51100000000E-03 0. -1.
    9900012    2    1    2    0    0  0.26272432235E+02 -0.17107615046E+02  0.58145593445E+01  0.59301948371E+02  0.50000007921E+02 0.  0.
         12    1    1    2    0    0 -0.26272432235E+02  0.17107615046E+02 -0.58145593445E+01  0.31886051629E+02  0.00000000000E+00 0. -1.
         11    1    3    3    0    0  0.40462678002E+01  0.11944236585E+02  0.21087622684E+01  0.12786084204E+02  0.51100000000E-03 0. -1.
        -11    1    3    3    0    0  0.27188327991E+02 -0.18002105856E+02  0.81541596979E+01  0.33612070969E+02  0.51100000000E-03 0.  1.
         12    1    3    3    0    0 -0.49621635559E+01 -0.11049745775E+02 -0.44483626217E+01  0.12903793197E+02  0.00000000000E+00 0. -1.
</event>
<event>
 7    1  0.6061051E-012  0.5930195E+02  0.7816164E-02  0.1266605E+00
        -11   -1    0    0    0    0  0.00000000000E+00  0.00000000000E+00  0.45593999997E+02  0.45594000000E+02  0.51100000000E-03 0. -1.
         11   -1    0    0    0    0 -0.00000000000E+00 -0.00000000000E+00 -0.45593999997E+02  0.45594000000E+02  0.51100000000E-03 0.  1.
    9900012    2    1    2    0    0  0.75376900861E+01  0.13508893135E+02 -0.27882128158E+02  0.59301952327E+02  0.50000015137E+02 0.  0.
         12    1    1    2    0    0 -0.75376900861E+01 -0.13508893135E+02  0.27882128158E+02  0.31886047673E+02  0.00000000000E+00 0. -1.
         11    1    3    3    0    0  0.22660723678E+02 -0.55840770204E+01 -0.14022785609E+02  0.27227354449E+02  0.51100000000E-03 0. -1.
        -11    1    3    3    0    0  0.13087033131E+01  0.10456400164E+01 -0.63070565791E+01  0.65257206773E+01  0.51100000000E-03 0.  1.
         12    1    3    3    0    0 -0.16431736905E+02  0.18047330139E+02 -0.75522859695E+01  0.25548877201E+02  0.00000000000E+00 0. -1.
</event>
<event>
 7    1  0.6061051E-012  0.5930195E+02  0.7816164E-02  0.1266605E+00
        -11   -1    0    0    0    0  0.00000000000E+00  0.00000000000E+00  0.45593999997E+02  0.45594000000E+02  0.51100000000E-03 0. -1.
         11   -1    0    0    0    0 -0.00000000000E+00 -0.00000000000E+00 -0.45593999997E+02  0.45594000000E+02  0.51100000000E-03 0.  1.
    9900012    2    1    2    0    0  0.19950634025E+02 -0.24842964631E+02 -0.12327110575E+01  0.59301948720E+02  0.50000008558E+02 0.  0.
         12    1    1    2    0    0 -0.19950634025E+02  0.24842964631E+02  0.12327110575E+01  0.31886051280E+02  0.00000000000E+00 0. -1.
         11    1    3    3    0    0 -0.84038186494E+01 -0.70740435209E+01  0.60285120605E+01  0.12530331901E+02  0.51100000000E-03 0. -1.
        -11    1    3    3    0    0  0.40491837353E+01  0.91014217688E+01 -0.19859935710E+01  0.10157555703E+02  0.51100000000E-03 0.  1.
        -12    1    3    3    0    0  0.24305268939E+02 -0.26870342879E+02 -0.52752295469E+01  0.36614061116E+02  0.00000000000E+00 0.  1.
</event>
<event>
 7    1  0.6061051E-012  0.5930195E+02  0.7816164E-02  0.1266605E+00
        -11   -1    0    0    0    0  0.00000000000E+00  0.00000000000E+00  0.45593999997E+02  0.45594000000E+02  0.51100000000E-03 0. -1.
         11   -1    0    0    0    0 -0.00000000000E+00 -0.00000000000E+00 -0.45593999997E+02  0.45594000000E+02  0.51100000000E-03 0.  1.
    9900012    2    1    2    0    0 -0.24614574452E+02 -0.17162983209E+02  0.10783095198E+02  0.59301946464E+02  0.50000004443E+02 0.  0.
         12    1    1    2    0    0  0.24614574452E+02  0.17162983209E+02 -0.10783095198E+02  0.31886053536E+02  0.00000000000E+00 0. -1.
         11    1    3    3    0    0  0.65947249988E+01  0.27726175248E+01  0.83456456590E+01  0.10992161183E+02  0.51100000000E-03 0. -1.
        -11    1    3    3    0    0 -0.19327294077E+02  0.29694547485E+01  0.92360817293E+01  0.21625613605E+02  0.51100000000E-03 0.  1.
        -12    1    3    3    0    0 -0.11882005374E+02 -0.22905055482E+02 -0.67986321900E+01  0.26684171675E+02  0.00000000000E+00 0.  1.
</event>
<event>
 7    1  0.6061051E-012  0.5930195E+02  0.7816164E-02  0.1266605E+00
        -11   -1    0    0    0    0  0.00000000000E+00  0.00000000000E+00  0.45593999997E+02  0.45594000000E+02  0.51100000000E-03 0.  1.
         11   -1    0    0    0    0 -0.00000000000E+00 -0.00000000000E+00 -0.45593999997E+02  0.45594000000E+02  0.51100000000E-03 0. -1.
    9900012    2    1    2    0    0  0.13038276181E+02 -0.23768787919E+02 -0.16785947322E+02  0.59301953641E+02  0.50000017532E+02 0.  0.
         12    1    1    2    0    0 -0.13038276181E+02  0.23768787919E+02  0.16785947322E+02  0.31886046359E+02  0.00000000000E+00 0. -1.
         11    1    3    3    0    0  0.85108897100E+01 -0.10770112323E+02 -0.92502980801E+01  0.16552902402E+02  0.51100000000E-03 0. -1.
        -11    1    3    3    0    0  0.13122652570E+02 -0.24430247296E+02 -0.40260223486E+01  0.28022309855E+02  0.51100000000E-03 0.  1.
         12    1    3    3    0    0 -0.85952660993E+01  0.11431571700E+02 -0.35096268933E+01  0.14726741383E+02  0.00000000000E+00 0. -1.
</event>
<event>
 7    1  0.6061051E-012  0.5930192E+02  0.7816164E-02  0.1266605E+00
        -11   -1    0    0    0    0  0.00000000000E+00  0.00000000000E+00  0.45593999997E+02  0.45594000000E+02  0.51100000000E-03 0. -1.
         11   -1    0    0    0    0 -0.00000000000E+00 -0.00000000000E+00 -0.45593999997E+02  0.45594000000E+02  0.51100000000E-03 0.  1.
    9900012    2    1    2    0    0 -0.75385799506E+01 -0.29924593116E+02 -0.80256194694E+01  0.59301921083E+02  0.49999958154E+02 0.  0.
         12    1    1    2    0    0  0.75385799506E+01  0.29924593116E+02  0.80256194694E+01  0.31886078917E+02  0.00000000000E+00 0. -1.
         11    1    3    3    0    0 -0.61707813283E+01  0.55175262216E+01  0.10271338031E+02  0.13191740712E+02  0.51100000000E-03 0. -1.
        -11    1    3    3    0    0  0.29418727917E+01 -0.31990574336E+01  0.46012686257E+01  0.63293172787E+01  0.51100000000E-03 0.  1.
        -12    1    3    3    0    0 -0.43096714140E+01 -0.32243061904E+02 -0.22898226126E+02  0.39780863092E+02  0.00000000000E+00 0.  1.
</event>
<event>
 7    1  0.6061051E-012  0.5930194E+02  0.7816164E-02  0.1266605E+00
        -11   -1    0    0    0    0  0.00000000000E+00  0.00000000000E+00  0.45593999997E+02  0.45594000000E+02  0.51100000000E-03 0.  1.
         11   -1    0    0    0    0 -0.00000000000E+00 -0.00000000000E+00 -0.45593999997E+02  0.45594000000E+02  0.51100000000E-03 0. -1.
    9900012    2    1    2    0    0 -0.18847794925E+02 -0.10472826924E-01  0.25719274544E+02  0.59301944015E+02  0.49999999977E+02 0.  0.
         12    1    1    2    0    0  0.18847794925E+02  0.10472826924E-01 -0.25719274544E+02  0.31886055985E+02  0.00000000000E+00 0. -1.
         11    1    3    3    0    0  0.33333807334E+01 -0.13507708544E+02  0.23191618421E+02  0.27044792151E+02  0.51100000000E-03 0. -1.
        -11    1    3    3    0    0 -0.15651444660E+01  0.84079282279E+01 -0.47830537535E+01  0.97990069780E+01  0.51100000000E-03 0.  1.
        -12    1    3    3    0    0 -0.20616031192E+02  0.50893074896E+01  0.73107098762E+01  0.22458144886E+02  0.00000000000E+00 0.  1.
</event>
<event>
 7    1  0.6061051E-012  0.5930195E+02  0.7816164E-02  0.1266605E+00
        -11   -1    0    0    0    0  0.00000000000E+00  0.00000000000E+00  0.45593999997E+02  0.45594000000E+02  0.51100000000E-03 0. -1.
         11   -1    0    0    0    0 -0.00000000000E+00 -0.00000000000E+00 -0.45593999997E+02  0.45594000000E+02  0.51100000000E-03 0.  1.
    9900012    2    1    2    0    0 -0.41913236286E+01 -0.23711273090E+02 -0.20902832183E+02  0.59301951976E+02  0.50000014496E+02 0.  0.
         12    1    1    2    0    0  0.41913236286E+01  0.23711273090E+02  0.20902832183E+02  0.31886048024E+02  0.00000000000E+00 0. -1.
         11    1    3    3    0    0  0.78770219966E+01  0.12950507109E+01  0.15800503013E+01  0.81376403886E+01  0.51100000000E-03 0. -1.
        -11    1    3    3    0    0  0.53692288997E+00  0.85025561232E+01  0.64243672333E+00  0.85436802387E+01  0.51100000000E-03 0.  1.
        -12    1    3    3    0    0 -0.12605268515E+02 -0.33508879924E+02 -0.23125319208E+02  0.42620631349E+02  0.00000000000E+00 0.  1.
</event>
<event>
 7    1  0.6061051E-012  0.5930195E+02  0.7816164E-02  0.1266605E+00
        -11   -1    0    0    0    0  0.00000000000E+00  0.00000000000E+00  0.45593999997E+02  0.45594000000E+02  0.51100000000E-03 0. -1.
         11   -1    0    0    0    0 -0.00000000000E+00 -0.00000000000E+00 -0.45593999997E+02  0.45594000000E+02  0.51100000000E-03 0.  1.
    9900012    2    1    2    0    0 -0.30521761631E+02  0.36532641820E+00 -0.92200379870E+01  0.59301945102E+02  0.50000001959E+02 0.  0.
         12    1    1    2    0    0  0.30521761631E+02 -0.36532641820E+00  0.92200379870E+01  0.31886054898E+02  0.00000000000E+00 0. -1.
         11    1    3    3    0    0 -0.32306071418E+02  0.36202305547E+01 -0.59534523002E+00  0.32513731806E+02  0.51100000000E-03 0. -1.
        -11    1    3    3    0    0 -0.81171975850E+01  0.66036973932E+01 -0.72878199471E+01  0.12751864010E+02  0.51100000000E-03 0.  1.
         12    1    3    3    0    0  0.99015073718E+01 -0.98586015297E+01 -0.13368728099E+01  0.14036349286E+02  0.00000000000E+00 0. -1.
</event>
<event>
 7    1  0.6061051E-012  0.5930196E+02  0.7816164E-02  0.1266605E+00
        -11   -1    0    0    0    0  0.00000000000E+00  0.00000000000E+00  0.45593999997E+02  0.45594000000E+02  0.51100000000E-03 0.  1.
         11   -1    0    0    0    0 -0.00000000000E+00 -0.00000000000E+00 -0.45593999997E+02  0.45594000000E+02  0.51100000000E-03 0. -1.
    9900012    2    1    2    0    0  0.11743127849E+02  0.27012855504E+02 -0.12211636731E+02  0.59301960957E+02  0.50000030876E+02 0.  0.
         12    1    1    2    0    0 -0.11743127849E+02 -0.27012855504E+02  0.12211636731E+02  0.31886039043E+02  0.00000000000E+00 0. -1.
         11    1    3    3    0    0  0.20257894857E+01  0.94801366261E+01 -0.15950496125E+02  0.18665345976E+02  0.51100000000E-03 0. -1.
        -11    1    3    3    0    0 -0.80299661682E+01 -0.10502224556E+01 -0.88723593300E+01  0.12012580248E+02  0.51100000000E-03 0.  1.
        -12    1    3    3    0    0  0.17747304531E+02  0.18582941334E+02  0.12611218724E+02  0.28624034734E+02  0.00000000000E+00 0.  1.
</event>
<event>
 7    1  0.6061051E-012  0.5930194E+02  0.7816164E-02  0.1266605E+00
        -11   -1    0    0    0    0  0.00000000000E+00  0.00000000000E+00  0.45593999997E+02  0.45594000000E+02  0.51100000000E-03 0. -1.
         11   -1    0    0    0    0 -0.00000000000E+00 -0.00000000000E+00 -0.45593999997E+02  0.45594000000E+02  0.51100000000E-03 0.  1.
    9900012    2    1    2    0    0 -0.73362359620E+01 -0.30926201182E+01 -0.30876143622E+02  0.59301938747E+02  0.49999990369E+02 0.  0.
         12    1    1    2    0    0  0.73362359620E+01  0.30926201182E+01  0.30876143622E+02  0.31886061253E+02  0.00000000000E+00 0. -1.
         11    1    3    3    0    0  0.63464666673E+01 -0.57474664926E+01  0.78870425805E+01  0.11641153344E+02  0.51100000000E-03 0. -1.
        -11    1    3    3    0    0  0.27916994817E+01  0.86639193638E+01 -0.20025799038E+02  0.21997493315E+02  0.51100000000E-03 0.  1.
        -12    1    3    3    0    0 -0.16474402111E+02 -0.60090729894E+01 -0.18737387164E+02  0.25663292089E+02  0.00000000000E+00 0.  1.
</event>
<event>
 7    1  0.6061051E-012  0.5930193E+02  0.7816164E-02  0.1266605E+00
        -11   -1    0    0    0    0  0.00000000000E+00  0.00000000000E+00  0.45593999997E+02  0.45594000000E+02  0.51100000000E-03 0.  1.
         11   -1    0    0    0    0 -0.00000000000E+00 -0.00000000000E+00 -0.45593999997E+02  0.45594000000E+02  0.51100000000E-03 0. -1.
    9900012    2    1    2    0    0 -0.21042812224E+02 -0.24927792523E+01  0.23826611629E+02  0.59301932252E+02  0.49999978524E+02 0.  0.
         12    1    1    2    0    0  0.21042812224E+02  0.24927792523E+01 -0.23826611629E+02  0.31886067748E+02  0.00000000000E+00 0. -1.
         11    1    3    3    0    0  0.36151919582E+01 -0.66769841680E+01 -0.10537729333E+02  0.12988282035E+02  0.51100000000E-03 0. -1.
        -11    1    3    3    0    0 -0.98763233807E+01  0.10493610149E+02  0.11881136339E+02  0.18676697204E+02  0.51100000000E-03 0.  1.
        -12    1    3    3    0    0 -0.14781680802E+02 -0.63094052333E+01  0.22483204623E+02  0.27636953013E+02  0.00000000000E+00 0.  1.
</event>
<event>
 7    1  0.6061051E-012  0.5930200E+02  0.7816164E-02  0.1266605E+00
        -11   -1    0    0    0    0  0.00000000000E+00  0.00000000000E+00  0.45593999997E+02  0.45594000000E+02  0.51100000000E-03 0.  1.
         11   -1    0    0    0    0 -0.00000000000E+00 -0.00000000000E+00 -0.45593999997E+02  0.45594000000E+02  0.51100000000E-03 0. -1.
    9900012    2    1    2    0    0 -0.15333184765E+02 -0.27563765408E+02  0.46743060382E+01  0.59302002204E+02  0.50000106100E+02 0.  0.
         12    1    1    2    0    0  0.15333184765E+02  0.27563765408E+02 -0.46743060382E+01  0.31885997796E+02  0.00000000000E+00 0. -1.
         11    1    3    3    0    0  0.38502943945E+01 -0.63761018726E+00 -0.59863410292E+01  0.71461593079E+01  0.51100000000E-03 0. -1.
        -11    1    3    3    0    0  0.36855339027E+01  0.60853309268E+01 -0.53719551490E+01  0.89147246183E+01  0.51100000000E-03 0.  1.
         12    1    3    3    0    0 -0.22869013062E+02 -0.33011486147E+02  0.16032602216E+02  0.43241118278E+02  0.00000000000E+00 0. -1.
</event>
<event>
 7    1  0.6061051E-012  0.5930195E+02  0.7816164E-02  0.1266605E+00
        -11   -1    0    0    0    0  0.00000000000E+00  0.00000000000E+00  0.45593999997E+02  0.45594000000E+02  0.51100000000E-03 0. -1.
         11   -1    0    0    0    0 -0.00000000000E+00 -0.00000000000E+00 -0.45593999997E+02  0.45594000000E+02  0.51100000000E-03 0.  1.
    9900012    2    1    2    0    0 -0.17622233577E+01 -0.29009005528E+02  0.13118393429E+02  0.59301951656E+02  0.50000013911E+02 0.  0.
         12    1    1    2    0    0  0.17622233577E+01  0.29009005528E+02 -0.13118393429E+02  0.31886048344E+02  0.00000000000E+00 0. -1.
         11    1    3    3    0    0  0.10880442831E+02  0.32370905436E+01 -0.48193483532E+01  0.12332433264E+02  0.51100000000E-03 0. -1.
        -11    1    3    3    0    0  0.21622109428E+01 -0.71718159529E+01 -0.57415874478E+01  0.94380043921E+01  0.51100000000E-03 0.  1.
         12    1    3    3    0    0 -0.14804877132E+02 -0.25074280118E+02  0.23679329230E+02  0.37531514000E+02  0.00000000000E+00 0. -1.
</event>
<event>
 7    1  0.6061051E-012  0.5930190E+02  0.7816164E-02  0.1266605E+00
        -11   -1    0    0    0    0  0.00000000000E+00  0.00000000000E+00  0.45593999997E+02  0.45594000000E+02  0.51100000000E-03 0.  1.
         11   -1    0    0    0    0 -0.00000000000E+00 -0.00000000000E+00 -0.45593999997E+02  0.45594000000E+02  0.51100000000E-03 0. -1.
    9900012    2    1    2    0    0  0.50781101266E+01  0.30062019311E+02 -0.93386996882E+01  0.59301897708E+02  0.49999915524E+02 0.  0.
         12    1    1    2    0    0 -0.50781101266E+01 -0.30062019311E+02  0.93386996882E+01  0.31886102292E+02  0.00000000000E+00 0. -1.
         11    1    3    3    0    0 -0.12203556896E+02  0.23543789321E+02 -0.94726842495E+01  0.28159697507E+02  0.51100000000E-03 0. -1.
        -11    1    3    3    0    0 -0.57232566428E+01 -0.19729119453E+01  0.24078669525E+01  0.65150496287E+01  0.51100000000E-03 0.  1.
        -12    1    3    3    0    0  0.23004923666E+02  0.84911419348E+01 -0.22738823912E+01  0.24627150573E+02  0.00000000000E+00 0.  1.
</event>
<event>
 7    1  0.6061051E-012  0.5930194E+02  0.7816164E-02  0.1266605E+00
        -11   -1    0    0    0    0  0.00000000000E+00  0.00000000000E+00  0.45593999997E+02  0.45594000000E+02  0.51100000000E-03 0.  1.
         11   -1    0    0    0    0 -0.00000000000E+00 -0.00000000000E+00 -0.45593999997E+02  0.45594000000E+02  0.51100000000E-03 0. -1.
    9900012    2    1    2    0    0 -0.80807062473E+01 -0.28061328160E+02  0.12805647344E+02  0.59301944184E+02  0.50000000286E+02 0.  0.
         12    1    1    2    0    0  0.80807062473E+01  0.28061328160E+02 -0.12805647344E+02  0.31886055816E+02  0.00000000000E+00 0. -1.
         11    1    3    3    0    0 -0.10689486683E+02 -0.13836630315E+01  0.16277155784E+02  0.19522434520E+02  0.51100000000E-03 0. -1.
        -11    1    3    3    0    0  0.11217585447E+02 -0.14371384799E+02  0.89317415599E+01  0.20301402214E+02  0.51100000000E-03 0.  1.
        -12    1    3    3    0    0 -0.86088050112E+01 -0.12306280330E+02 -0.12403250000E+02  0.19478107450E+02  0.00000000000E+00 0.  1.
</event>
<event>
 7    1  0.6061051E-012  0.5930196E+02  0.7816164E-02  0.1266605E+00
        -11   -1    0    0    0    0  0.00000000000E+00  0.00000000000E+00  0.45593999997E+02  0.45594000000E+02  0.51100000000E-03 0.  1.
         11   -1    0    0    0    0 -0.00000000000E+00 -0.00000000000E+00 -0.45593999997E+02  0.45594000000E+02  0.51100000000E-03 0. -1.
    9900012    2    1    2    0    0 -0.13035558624E+02  0.57216997190E+00  0.29094098255E+02  0.59301957279E+02  0.50000024168E+02 0.  0.
         12    1    1    2    0    0  0.13035558624E+02 -0.57216997190E+00 -0.29094098255E+02  0.31886042721E+02  0.00000000000E+00 0. -1.
         11    1    3    3    0    0  0.13183917094E+02 -0.10648230429E+02  0.20228395156E+02  0.26389173008E+02  0.51100000000E-03 0.  1.
        -11    1    3    3    0    0 -0.45210930490E+01  0.75503811034E+01  0.61563324231E+01  0.10740063609E+02  0.51100000000E-03 0. -1.
        -12    1    3    3    0    0 -0.21698382669E+02  0.36700192975E+01  0.27093706755E+01  0.22172720662E+02  0.00000000000E+00 0.  1.
</event>
<event>
 7    1  0.6061051E-012  0.5930196E+02  0.7816164E-02  0.1266605E+00
        -11   -1    0    0    0    0  0.00000000000E+00  0.00000000000E+00  0.45593999997E+02  0.45594000000E+02  0.51100000000E-03 0. -1.
         11   -1    0    0    0    0 -0.00000000000E+00 -0.00000000000E+00 -0.45593999997E+02  0.45594000000E+02  0.51100000000E-03 0.  1.
    9900012    2    1    2    0    0 -0.21056412496E+02 -0.13522745334E+00 -0.23944281728E+02  0.59301961972E+02  0.50000032727E+02 0.  0.
         12    1    1    2    0    0  0.21056412496E+02  0.13522745334E+00  0.23944281728E+02  0.31886038028E+02  0.00000000000E+00 0. -1.
         11    1    3    3    0    0  0.56303714535E+01  0.13234165079E+01  0.27332875467E+01  0.63971380345E+01  0.51100000000E-03 0. -1.
        -11    1    3    3    0    0 -0.10176597875E+02 -0.15275825297E+02  0.34014459373E+00  0.18358368158E+02  0.51100000000E-03 0.  1.
        -12    1    3    3    0    0 -0.16510186075E+02  0.13817181336E+02 -0.27017713868E+02  0.34546455780E+02  0.00000000000E+00 0.  1.
</event>
<event>
 7    1  0.6061051E-012  0.5930189E+02  0.7816164E-02  0.1266605E+00
        -11   -1    0    0    0    0  0.00000000000E+00  0.00000000000E+00  0.45593999997E+02  0.45594000000E+02  0.51100000000E-03 0. -1.
         11   -1    0    0    0    0 -0.00000000000E+00 -0.00000000000E+00 -0.45593999997E+02  0.45594000000E+02  0.51100000000E-03 0.  1.
    9900012    2    1    2    0    0  0.72282026995E+01 -0.19310103826E+02 -0.24322772260E+02  0.59301885868E+02  0.49999893930E+02 0.  0.
         12    1    1    2    0    0 -0.72282026995E+01  0.19310103826E+02  0.24322772260E+02  0.31886114132E+02  0.00000000000E+00 0. -1.
         11    1    3    3    0    0 -0.28315845661E+01 -0.15441070257E+02 -0.19861114454E+00  0.15699807912E+02  0.51100000000E-03 0. -1.
        -11    1    3    3    0    0  0.18963337461E+01 -0.17076335616E+02 -0.22025644966E+02  0.27934322189E+02  0.51100000000E-03 0.  1.
        -12    1    3    3    0    0  0.81634535195E+01  0.13207302047E+02 -0.20985161497E+01  0.15667755766E+02  0.00000000000E+00 0.  1.
</event>
<event>
 7    1  0.6061051E-012  0.5930196E+02  0.7816164E-02  0.1266605E+00
        -11   -1    0    0    0    0  0.00000000000E+00  0.00000000000E+00  0.45593999997E+02  0.45594000000E+02  0.51100000000E-03 0.  1.
         11   -1    0    0    0    0 -0.00000000000E+00 -0.00000000000E+00 -0.45593999997E+02  0.45594000000E+02  0.51100000000E-03 0. -1.
    9900012    2    1    2    0    0 -0.10683752056E+02 -0.27291817978E+02  0.12559212845E+02  0.59301957382E+02  0.50000024356E+02 0.  0.
         12    1    1    2    0    0  0.10683752056E+02  0.27291817978E+02 -0.12559212845E+02  0.31886042618E+02  0.00000000000E+00 0. -1.
         11    1    3    3    0    0 -0.77977565400E+01 -0.12660123057E+02 -0.35401421954E+01  0.15284512747E+02  0.51100000000E-03 0. -1.
        -11    1    3    3    0    0 -0.91410016975E+01 -0.12566676340E+02  0.27074622599E+02  0.31217214088E+02  0.51100000000E-03 0.  1.
         12    1    3    3    0    0  0.62550061817E+01 -0.20650185803E+01 -0.10975267559E+02  0.12800230547E+02  0.00000000000E+00 0. -1.
</event>
<event>
 7    1  0.6061051E-012  0.5930192E+02  0.7816164E-02  0.1266605E+00
        -11   -1    0    0    0    0  0.00000000000E+00  0.00000000000E+00  0.45593999997E+02  0.45594000000E+02  0.51100000000E-03 0. -1.
         11   -1    0    0    0    0 -0.00000000000E+00 -0.00000000000E+00 -0.45593999997E+02  0.45594000000E+02  0.51100000000E-03 0.  1.
    9900012    2    1    2    0    0 -0.43771666987E+01  0.26105922682E+02 -0.17777608512E+02  0.59301919153E+02  0.49999954634E+02 0.  0.
         12    1    1    2    0    0  0.43771666987E+01 -0.26105922682E+02  0.17777608512E+02  0.31886080847E+02  0.00000000000E+00 0. -1.
         11    1    3    3    0    0 -0.16882183117E+02  0.50633833113E+01 -0.52445894471E+01  0.18388900894E+02  0.51100000000E-03 0. -1.
        -11    1    3    3    0    0 -0.48080525590E+01  0.11479625259E+02 -0.16573150247E+02  0.20726033746E+02  0.51100000000E-03 0.  1.
         12    1    3    3    0    0  0.17313068978E+02  0.95629141116E+01  0.40401311815E+01  0.20186984512E+02  0.00000000000E+00 0. -1.
</event>
<event>
 7    1  0.6061051E-012  0.5930197E+02  0.7816164E-02  0.1266605E+00
        -11   -1    0    0    0    0  0.00000000000E+00  0.00000000000E+00  0.45593999997E+02  0.45594000000E+02  0.51100000000E-03 0.  1.
         11   -1    0    0    0    0 -0.00000000000E+00 -0.00000000000E+00 -0.45593999997E+02  0.45594000000E+02  0.51100000000E-03 0. -1.
    9900012    2    1    2    0    0 -0.27612580850E+02  0.72820293376E+01  0.14185775293E+02  0.59301971820E+02  0.50000050686E+02 0.  0.
         12    1    1    2    0    0  0.27612580850E+02 -0.72820293376E+01 -0.14185775293E+02  0.31886028180E+02  0.00000000000E+00 0. -1.
         11    1    3    3    0    0  0.58602824991E+01 -0.58561338858E+01 -0.33199022391E+01  0.89251871799E+01  0.51100000000E-03 0. -1.
        -11    1    3    3    0    0 -0.67141587507E+01  0.91433418382E+00 -0.86666010050E+01  0.11001177572E+02  0.51100000000E-03 0.  1.
         12    1    3    3    0    0 -0.26758704598E+02  0.12223829040E+02  0.26172278537E+02  0.39375607068E+02  0.00000000000E+00 0. -1.
</event>
<event>
 7    1  0.6061051E-012  0.5930192E+02  0.7816164E-02  0.1266605E+00
        -11   -1    0    0    0    0  0.00000000000E+00  0.00000000000E+00  0.45593999997E+02  0.45594000000E+02  0.51100000000E-03 0.  1.
         11   -1    0    0    0    0 -0.00000000000E+00 -0.00000000000E+00 -0.45593999997E+02  0.45594000000E+02  0.51100000000E-03 0. -1.
    9900012    2    1    2    0    0 -0.62110881441E+01 -0.20863454794E+01  0.31205632885E+02  0.59301921892E+02  0.49999959629E+02 0.  0.
         12    1    1    2    0    0  0.62110881441E+01  0.20863454794E+01 -0.31205632885E+02  0.31886078108E+02  0.00000000000E+00 0. -1.
         11    1    3    3    0    0  0.48767034741E+01 -0.61803365361E+00 -0.11958977169E+02  0.12929862240E+02  0.51100000000E-03 0. -1.
        -11    1    3    3    0    0 -0.25002223324E+01  0.33429140063E+01  0.27888355067E+02  0.28199052012E+02  0.51100000000E-03 0.  1.
        -12    1    3    3    0    0 -0.85875692858E+01 -0.48112258320E+01  0.15276254986E+02  0.18173007639E+02  0.00000000000E+00 0.  1.
</event>
<event>
 7    1  0.6061051E-012  0.5930194E+02  0.7816164E-02  0.1266605E+00
        -11   -1    0    0    0    0  0.00000000000E+00  0.00000000000E+00  0.45593999997E+02  0.45594000000E+02  0.51100000000E-03 0. -1.
         11   -1    0    0    0    0 -0.00000000000E+00 -0.00000000000E+00 -0.45593999997E+02  0.45594000000E+02  0.51100000000E-03 0.  1.
    9900012    2    1    2    0    0  0.13999930477E+01  0.14650614113E+02 -0.28286394284E+02  0.59301943863E+02  0.49999999699E+02 0.  0.
         12    1    1    2    0    0 -0.13999930477E+01 -0.14650614113E+02  0.28286394284E+02  0.31886056137E+02  0.00000000000E+00 0. -1.
         11    1    3    3    0    0 -0.33719976933E+01  0.20197436759E+02 -0.11420526306E+02  0.23446433449E+02  0.51100000000E-03 0. -1.
        -11    1    3    3    0    0 -0.63850573260E+01  0.27408316401E+01 -0.20369745309E+02  0.21522259160E+02  0.51100000000E-03 0.  1.
         12    1    3    3    0    0  0.11157048067E+02 -0.82876542869E+01  0.35038773314E+01  0.14333251254E+02  0.00000000000E+00 0. -1.
</event>
<event>
 7    1  0.6061051E-012  0.5930197E+02  0.7816164E-02  0.1266605E+00
        -11   -1    0    0    0    0  0.00000000000E+00  0.00000000000E+00  0.45593999997E+02  0.45594000000E+02  0.51100000000E-03 0. -1.
         11   -1    0    0    0    0 -0.00000000000E+00 -0.00000000000E+00 -0.45593999997E+02  0.45594000000E+02  0.51100000000E-03 0.  1.
    9900012    2    1    2    0    0  0.92030919920E+01  0.57964559630E+01 -0.29973711481E+02  0.59301965692E+02  0.50000039511E+02 0.  0.
         12    1    1    2    0    0 -0.92030919920E+01 -0.57964559630E+01  0.29973711481E+02  0.31886034308E+02  0.00000000000E+00 0. -1.
         11    1    3    3    0    0  0.12457435319E+00 -0.68596116669E+01 -0.30729699685E+02  0.31486254684E+02  0.51100000000E-03 0. -1.
        -11    1    3    3    0    0 -0.71591178325E+01  0.79420313435E+01  0.19367688008E+01  0.10866457732E+02  0.51100000000E-03 0.  1.
        -12    1    3    3    0    0  0.16237635471E+02  0.47140362864E+01 -0.11807805962E+01  0.16949253276E+02  0.00000000000E+00 0.  1.
</event>
<event>
 7    1  0.6061051E-012  0.5930193E+02  0.7816164E-02  0.1266605E+00
        -11   -1    0    0    0    0  0.00000000000E+00  0.00000000000E+00  0.45593999997E+02  0.45594000000E+02  0.51100000000E-03 0. -1.
         11   -1    0    0    0    0 -0.00000000000E+00 -0.00000000000E+00 -0.45593999997E+02  0.45594000000E+02  0.51100000000E-03 0.  1.
    9900012    2    1    2    0    0 -0.26484591487E+02  0.16597205460E+02  0.63103549372E+01  0.59301931024E+02  0.49999976285E+02 0.  0.
         12    1    1    2    0    0  0.26484591487E+02 -0.16597205460E+02 -0.63103549372E+01  0.31886068976E+02  0.00000000000E+00 0. -1.
         11    1    3    3    0    0 -0.52582712942E+01  0.45805253223E+01  0.76757577879E+01  0.10370529741E+02  0.51100000000E-03 0. -1.
        -11    1    3    3    0    0  0.81030266128E+01  0.90995822449E+01  0.11515986107E+02  0.16765421963E+02  0.51100000000E-03 0.  1.
        -12    1    3    3    0    0 -0.29329346805E+02  0.29170978930E+01 -0.12881388958E+02  0.32165979320E+02  0.00000000000E+00 0.  1.
</event>
<event>
 7    1  0.6061051E-012  0.5930193E+02  0.7816164E-02  0.1266605E+00
        -11   -1    0    0    0    0  0.00000000000E+00  0.00000000000E+00  0.45593999997E+02  0.45594000000E+02  0.51100000000E-03 0. -1.
         11   -1    0    0    0    0 -0.00000000000E+00 -0.00000000000E+00 -0.45593999997E+02  0.45594000000E+02  0.51100000000E-03 0.  1.
    9900012    2    1    2    0    0 -0.17803507017E+02 -0.22341079555E+02  0.14164487903E+02  0.59301930701E+02  0.49999975696E+02 0.  0.
         12    1    1    2    0    0  0.17803507017E+02  0.22341079555E+02 -0.14164487903E+02  0.31886069299E+02  0.00000000000E+00 0. -1.
         11    1    3    3    0    0 -0.18079086358E+01 -0.24637919976E+02  0.15774299948E+02  0.29310820075E+02  0.51100000000E-03 0.  1.
        -11    1    3    3    0    0  0.53251790344E+00 -0.91322520695E+01 -0.35289079736E+01  0.98048352829E+01  0.51100000000E-03 0. -1.
        -12    1    3    3    0    0 -0.16528116284E+02  0.11429092490E+02  0.19190959287E+01  0.20186275343E+02  0.00000000000E+00 0.  1.
</event>
<event>
 7    1  0.6061051E-012  0.5930189E+02  0.7816164E-02  0.1266605E+00
        -11   -1    0    0    0    0  0.00000000000E+00  0.00000000000E+00  0.45593999997E+02  0.45594000000E+02  0.51100000000E-03 0.  1.
         11   -1    0    0    0    0 -0.00000000000E+00 -0.00000000000E+00 -0.45593999997E+02  0.45594000000E+02  0.51100000000E-03 0. -1.
    9900012    2    1    2    0    0 -0.16008265706E+02  0.23686767181E+02  0.14120776394E+02  0.59301892737E+02  0.49999906458E+02 0.  0.
         12    1    1    2    0    0  0.16008265706E+02 -0.23686767181E+02 -0.14120776394E+02  0.31886107263E+02  0.00000000000E+00 0. -1.
         11    1    3    3    0    0  0.90597311164E+01  0.12824873675E+01  0.48934157893E+00  0.91631303162E+01  0.51100000000E-03 0. -1.
        -11    1    3    3    0    0  0.82637440474E+01  0.99554678414E+00  0.45900323009E+01  0.95052078285E+01  0.51100000000E-03 0.  1.
        -12    1    3    3    0    0 -0.33331740870E+02  0.21408733029E+02  0.90414025146E+01  0.40633554592E+02  0.00000000000E+00 0.  1.
</event>
<event>
 7    1  0.6061051E-012  0.5930194E+02  0.7816164E-02  0.1266605E+00
        -11   -1    0    0    0    0  0.00000000000E+00  0.00000000000E+00  0.45593999997E+02  0.45594000000E+02  0.51100000000E-03 0.  1.
         11   -1    0    0    0    0 -0.00000000000E+00 -0.00000000000E+00 -0.45593999997E+02  0.45594000000E+02  0.51100000000E-03 0. -1.
    9900012    2    1    2    0    0  0.10040231241E+02 -0.29618922910E+02 -0.62156134187E+01  0.59301942108E+02  0.49999996499E+02 0.  0.
         12    1    1    2    0    0 -0.10040231241E+02  0.29618922910E+02  0.62156134187E+01  0.31886057892E+02  0.00000000000E+00 0. -1.
         11    1    3    3    0    0  0.16523911410E+02 -0.42845975461E+01  0.10995813355E+01  0.17105744760E+02  0.51100000000E-03 0. -1.
        -11    1    3    3    0    0  0.86926852963E+01 -0.23465972315E+02  0.48853300828E+00  0.25029049105E+02  0.51100000000E-03 0.  1.
         12    1    3    3    0    0 -0.15176365465E+02 -0.18683530490E+01 -0.78037277624E+01  0.17167148244E+02  0.00000000000E+00 0. -1.
</event>
<event>
 7    1  0.6061051E-012  0.5930198E+02  0.7816164E-02  0.1266605E+00
        -11   -1    0    0    0    0  0.00000000000E+00  0.00000000000E+00  0.45593999997E+02  0.45594000000E+02  0.51100000000E-03 0.  1.
         11   -1    0    0    0    0 -0.00000000000E+00 -0.00000000000E+00 -0.45593999997E+02  0.45594000000E+02  0.51100000000E-03 0. -1.
    9900012    2    1    2    0    0  0.59317533877E+00  0.53407189164E+01  0.31429976596E+02  0.59301975407E+02  0.50000057229E+02 0.  0.
         12    1    1    2    0    0 -0.59317533877E+00 -0.53407189164E+01 -0.31429976596E+02  0.31886024593E+02  0.00000000000E+00 0. -1.
         11    1    3    3    0    0 -0.12032445775E+02  0.19014832395E+01  0.12710815367E+02  0.17605687075E+02  0.51100000000E-03 0. -1.
        -11    1    3    3    0    0  0.90287779077E+01  0.16160964637E+02  0.21306340338E+02  0.28225090741E+02  0.51100000000E-03 0.  1.
         12    1    3    3    0    0  0.35968432058E+01 -0.12721728960E+02 -0.25871791087E+01  0.13471197591E+02  0.00000000000E+00 0. -1.
</event>
<event>
 7    1  0.6061051E-012  0.5930196E+02  0.7816164E-02  0.1266605E+00
        -11   -1    0    0    0    0  0.00000000000E+00  0.00000000000E+00  0.45593999997E+02  0.45594000000E+02  0.51100000000E-03 0. -1.
         11   -1    0    0    0    0 -0.00000000000E+00 -0.00000000000E+00 -0.45593999997E+02  0.45594000000E+02  0.51100000000E-03 0.  1.
    9900012    2    1    2    0    0 -0.41749627177E+01 -0.31056264975E+02  0.58989510359E+01  0.59301960246E+02  0.50000029578E+02 0.  0.
         12    1    1    2    0    0  0.41749627177E+01  0.31056264975E+02 -0.58989510359E+01  0.31886039754E+02  0.00000000000E+00 0. -1.
         11    1    3    3    0    0  0.65622734725E+01 -0.11941301999E+02  0.91655330547E+01  0.16421483581E+02  0.51100000000E-03 0. -1.
        -11    1    3    3    0    0 -0.11845066788E+01  0.10431093462E+02 -0.53036356695E+01  0.11761773611E+02  0.51100000000E-03 0.  1.
         12    1    3    3    0    0 -0.95527295114E+01 -0.29546056439E+02  0.20370536507E+01  0.31118703054E+02  0.00000000000E+00 0. -1.
</event>
<event>
 7    1  0.6061051E-012  0.5930194E+02  0.7816164E-02  0.1266605E+00
        -11   -1    0    0    0    0  0.00000000000E+00  0.00000000000E+00  0.45593999997E+02  0.45594000000E+02  0.51100000000E-03 0. -1.
         11   -1    0    0    0    0 -0.00000000000E+00 -0.00000000000E+00 -0.45593999997E+02  0.45594000000E+02  0.51100000000E-03 0.  1.
    9900012    2    1    2    0    0  0.29363561687E+02 -0.30200816207E+01 -0.12057398817E+02  0.59301944832E+02  0.50000001467E+02 0.  0.
         12    1    1    2    0    0 -0.29363561687E+02  0.30200816207E+01  0.12057398817E+02  0.31886055168E+02  0.00000000000E+00 0. -1.
         11    1    3    3    0    0 -0.34971724470E-01 -0.18021066931E+02 -0.44806289239E+01  0.18569763385E+02  0.51100000000E-03 0. -1.
        -11    1    3    3    0    0 -0.11186815361E+01  0.87671246247E+01 -0.23921236447E+01  0.91562098249E+01  0.51100000000E-03 0.  1.
        -12    1    3    3    0    0  0.30517214947E+02  0.62338606856E+01 -0.51846462488E+01  0.31575971623E+02  0.00000000000E+00 0.  1.
</event>
<event>
 7    1  0.6061051E-012  0.5930195E+02  0.7816164E-02  0.1266605E+00
        -11   -1    0    0    0    0  0.00000000000E+00  0.00000000000E+00  0.45593999997E+02  0.45594000000E+02  0.51100000000E-03 0. -1.
         11   -1    0    0    0    0 -0.00000000000E+00 -0.00000000000E+00 -0.45593999997E+02  0.45594000000E+02  0.51100000000E-03 0.  1.
    9900012    2    1    2    0    0  0.46923856815E+01 -0.30034531180E+02 -0.96243892748E+01  0.59301946379E+02  0.50000004289E+02 0.  0.
         12    1    1    2    0    0 -0.46923856815E+01  0.30034531180E+02  0.96243892748E+01  0.31886053621E+02  0.00000000000E+00 0. -1.
         11    1    3    3    0    0  0.37382172913E+01  0.59701661059E+01  0.10589938341E+02  0.12718645611E+02  0.51100000000E-03 0. -1.
        -11    1    3    3    0    0  0.99554913775E+01 -0.19515470695E+02 -0.51553191933E+01  0.22506503977E+02  0.51100000000E-03 0.  1.
        -12    1    3    3    0    0 -0.90013229872E+01 -0.16489226591E+02 -0.15059008422E+02  0.24076796792E+02  0.00000000000E+00 0.  1.
</event>
<event>
 7    1  0.6061051E-012  0.5930200E+02  0.7816164E-02  0.1266605E+00
        -11   -1    0    0    0    0  0.00000000000E+00  0.00000000000E+00  0.45593999997E+02  0.45594000000E+02  0.51100000000E-03 0.  1.
         11   -1    0    0    0    0 -0.00000000000E+00 -0.00000000000E+00 -0.45593999997E+02  0.45594000000E+02  0.51100000000E-03 0. -1.
    9900012    2    1    2    0    0 -0.23909985295E+02 -0.94067259502E+01  0.18882356080E+02  0.59301995843E+02  0.50000094499E+02 0.  0.
         12    1    1    2    0    0  0.23909985295E+02  0.94067259502E+01 -0.18882356080E+02  0.31886004157E+02  0.00000000000E+00 0. -1.
         11    1    3    3    0    0 -0.23372503381E+02 -0.15501344333E+02  0.13907000704E+02  0.31304476665E+02  0.51100000000E-03 0. -1.
        -11    1    3    3    0    0 -0.93037456453E+01  0.14905077376E+01 -0.75194057214E+01  0.12054988968E+02  0.51100000000E-03 0.  1.
        -12    1    3    3    0    0  0.87662637307E+01  0.46041106454E+01  0.12494761098E+02  0.15942530211E+02  0.00000000000E+00 0.  1.
</event>
<event>
 7    1  0.6061051E-012  0.5930195E+02  0.7816164E-02  0.1266605E+00
        -11   -1    0    0    0    0  0.00000000000E+00  0.00000000000E+00  0.45593999997E+02  0.45594000000E+02  0.51100000000E-03 0. -1.
         11   -1    0    0    0    0 -0.00000000000E+00 -0.00000000000E+00 -0.45593999997E+02  0.45594000000E+02  0.51100000000E-03 0.  1.
    9900012    2    1    2    0    0 -0.78326762153E+01  0.61310727650E-01 -0.30908986388E+02  0.59301952656E+02  0.50000015736E+02 0.  0.
         12    1    1    2    0    0  0.78326762153E+01 -0.61310727650E-01  0.30908986388E+02  0.31886047344E+02  0.00000000000E+00 0. -1.
         11    1    3    3    0    0  0.20511029547E+01 -0.72775852002E+01 -0.24855859988E+02  0.25980455071E+02  0.51100000000E-03 0. -1.
        -11    1    3    3    0    0 -0.49469634029E+01  0.55972067608E+01 -0.18428210298E+02  0.19884670112E+02  0.51100000000E-03 0.  1.
         12    1    3    3    0    0 -0.49368157671E+01  0.17416891671E+01  0.12375083897E+02  0.13436827473E+02  0.00000000000E+00 0. -1.
</event>
<event>
 7    1  0.6061051E-012  0.5930194E+02  0.7816164E-02  0.1266605E+00
        -11   -1    0    0    0    0  0.00000000000E+00  0.00000000000E+00  0.45593999997E+02  0.45594000000E+02  0.51100000000E-03 0. -1.
         11   -1    0    0    0    0 -0.00000000000E+00 -0.00000000000E+00 -0.45593999997E+02  0.45594000000E+02  0.51100000000E-03 0.  1.
    9900012    2    1    2    0    0  0.30733753843E+02  0.12860178118E+01  0.83966238287E+01  0.59301940996E+02  0.49999994470E+02 0.  0.
         12    1    1    2    0    0 -0.30733753843E+02 -0.12860178118E+01 -0.83966238287E+01  0.31886059004E+02  0.00000000000E+00 0. -1.
         11    1    3    3    0    0  0.26208974097E+01 -0.52722798130E+01 -0.13367461608E+02  0.14606678875E+02  0.51100000000E-03 0.  1.
        -11    1    3    3    0    0  0.33156800446E+01 -0.16780049882E+01 -0.56890797899E+01  0.67952236178E+01  0.51100000000E-03 0. -1.
         12    1    3    3    0    0  0.24797176389E+02  0.82363026130E+01  0.27453165226E+02  0.37900038503E+02  0.00000000000E+00 0. -1.
</event>
<event>
 7    1  0.6061051E-012  0.5930200E+02  0.7816164E-02  0.1266605E+00
        -11   -1    0    0    0    0  0.00000000000E+00  0.00000000000E+00  0.45593999997E+02  0.45594000000E+02  0.51100000000E-03 0.  1.
         11   -1    0    0    0    0 -0.00000000000E+00 -0.00000000000E+00 -0.45593999997E+02  0.45594000000E+02  0.51100000000E-03 0. -1.
    9900012    2    1    2    0    0 -0.19950760050E+02  0.22394965730E+02  0.10823575317E+02  0.59301998381E+02  0.50000099127E+02 0.  0.
         12    1    1    2    0    0  0.19950760050E+02 -0.22394965730E+02 -0.10823575317E+02  0.31886001619E+02  0.00000000000E+00 0. -1.
         11    1    3    3    0    0 -0.81442837944E+01 -0.92459074663E+01  0.83405699150E+01  0.14878886725E+02  0.51100000000E-03 0. -1.
        -11    1    3    3    0    0  0.62062368359E+01  0.40252895885E+01  0.81084740241E+01  0.10975777111E+02  0.51100000000E-03 0.  1.
        -12    1    3    3    0    0 -0.18012713091E+02  0.27615583608E+02 -0.56254686224E+01  0.33447334545E+02  0.00000000000E+00 0.  1.
</event>
<event>
 7    1  0.6061051E-012  0.5930193E+02  0.7816164E-02  0.1266605E+00
        -11   -1    0    0    0    0  0.00000000000E+00  0.00000000000E+00  0.45593999997E+02  0.45594000000E+02  0.51100000000E-03 0.  1.
         11   -1    0    0    0    0 -0.00000000000E+00 -0.00000000000E+00 -0.45593999997E+02  0.45594000000E+02  0.51100000000E-03 0. -1.
    9900012    2    1    2    0    0 -0.16236396515E+02  0.54930157463E+01  0.26887319106E+02  0.59301925884E+02  0.49999966911E+02 0.  0.
         12    1    1    2    0    0  0.16236396515E+02 -0.54930157463E+01 -0.26887319106E+02  0.31886074116E+02  0.00000000000E+00 0. -1.
         11    1    3    3    0    0 -0.51468020303E+01 -0.11772033601E+02 -0.97061970860E+00  0.12884581837E+02  0.51100000000E-03 0. -1.
        -11    1    3    3    0    0 -0.19301069968E+02  0.15150398424E+01  0.14121716903E+02  0.23963504255E+02  0.51100000000E-03 0.  1.
        -12    1    3    3    0    0  0.82114754825E+01  0.15750009505E+02  0.13736221912E+02  0.22453839792E+02  0.00000000000E+00 0.  1.
</event>
<event>
 7    1  0.6061051E-012  0.5930196E+02  0.7816164E-02  0.1266605E+00
        -11   -1    0    0    0    0  0.00000000000E+00  0.00000000000E+00  0.45593999997E+02  0.45594000000E+02  0.51100000000E-03 0. -1.
         11   -1    0    0    0    0 -0.00000000000E+00 -0.00000000000E+00 -0.45593999997E+02  0.45594000000E+02  0.51100000000E-03 0.  1.
    9900012    2    1    2    0    0  0.26970723771E+02  0.63320137665E+00 -0.16997013408E+02  0.59301963095E+02  0.50000034774E+02 0.  0.
         12    1    1    2    0    0 -0.26970723771E+02 -0.63320137665E+00  0.16997013408E+02  0.31886036905E+02  0.00000000000E+00 0. -1.
         11    1    3    3    0    0 -0.91096278487E+00 -0.98583345920E+00 -0.21441385676E+02  0.21483359625E+02  0.51100000000E-03 0. -1.
        -11    1    3    3    0    0  0.12663231015E+02  0.13164560528E+02  0.28513317168E+00  0.18268671950E+02  0.51100000000E-03 0.  1.
        -12    1    3    3    0    0  0.15218455541E+02 -0.11545525692E+02  0.41592390965E+01  0.19549931520E+02  0.00000000000E+00 0.  1.
</event>
<event>
 7    1  0.6061051E-012  0.5930198E+02  0.7816164E-02  0.1266605E+00
        -11   -1    0    0    0    0  0.00000000000E+00  0.00000000000E+00  0.45593999997E+02  0.45594000000E+02  0.51100000000E-03 0. -1.
         11   -1    0    0    0    0 -0.00000000000E+00 -0.00000000000E+00 -0.45593999997E+02  0.45594000000E+02  0.51100000000E-03 0.  1.
    9900012    2    1    2    0    0  0.24371458789E+02 -0.19798220365E+02 -0.55480386256E+01  0.59301980089E+02  0.50000065768E+02 0.  0.
         12    1    1    2    0    0 -0.24371458789E+02  0.19798220365E+02  0.55480386256E+01  0.31886019911E+02  0.00000000000E+00 0. -1.
         11    1    3    3    0    0  0.10646843167E+01 -0.40356740137E+01 -0.15332643500E+02  0.15890568725E+02  0.51100000000E-03 0. -1.
        -11    1    3    3    0    0  0.47586922375E+01 -0.22076523153E+02  0.36246816627E+01  0.22872611214E+02  0.51100000000E-03 0.  1.
         12    1    3    3    0    0  0.18548082235E+02  0.63139768017E+01  0.61599232116E+01  0.20538800150E+02  0.00000000000E+00 0. -1.
</event>
<event>
 7    1  0.6061051E-012  0.5930193E+02  0.7816164E-02  0.1266605E+00
        -11   -1    0    0    0    0  0.00000000000E+00  0.00000000000E+00  0.45593999997E+02  0.45594000000E+02  0.51100000000E-03 0.  1.
         11   -1    0    0    0    0 -0.00000000000E+00 -0.00000000000E+00 -0.45593999997E+02  0.45594000000E+02  0.51100000000E-03 0. -1.
    9900012    2    1    2    0    0 -0.12101863392E+02 -0.27578432584E+02  0.10473620718E+02  0.59301925104E+02  0.49999965488E+02 0.  0.
         12    1    1    2    0    0  0.12101863392E+02  0.27578432584E+02 -0.10473620718E+02  0.31886074896E+02  0.00000000000E+00 0. -1.
         11    1    3    3    0    0 -0.85537473635E+01  0.15468522424E+00  0.48032607127E+01  0.98113115950E+01  0.51100000000E-03 0. -1.
        -11    1    3    3    0    0 -0.11808894248E+02 -0.35752110883E+02  0.43219915430E+01  0.37899116443E+02  0.51100000000E-03 0.  1.
         12    1    3    3    0    0  0.82607782192E+01  0.80189930755E+01  0.13483684620E+01  0.11591497066E+02  0.00000000000E+00 0. -1.
</event>
<event>
 7    1  0.6061051E-012  0.5930195E+02  0.7816164E-02  0.1266605E+00
        -11   -1    0    0    0    0  0.00000000000E+00  0.00000000000E+00  0.45593999997E+02  0.45594000000E+02  0.51100000000E-03 0.  1.
         11   -1    0    0    0    0 -0.00000000000E+00 -0.00000000000E+00 -0.45593999997E+02  0.45594000000E+02  0.51100000000E-03 0. -1.
    9900012    2    1    2    0    0  0.76223358003E+01 -0.25746817218E+02  0.17196553550E+02  0.59301952049E+02  0.50000014630E+02 0.  0.
         12    1    1    2    0    0 -0.76223358003E+01  0.25746817218E+02 -0.17196553550E+02  0.31886047951E+02  0.00000000000E+00 0. -1.
         11    1    3    3    0    0 -0.15475594740E+01 -0.25779666993E+01 -0.10142731712E+02  0.10579029231E+02  0.51100000000E-03 0. -1.
        -11    1    3    3    0    0 -0.45999570003E+01  0.12958395410E+01 -0.42968536977E+01  0.64266442629E+01  0.51100000000E-03 0.  1.
        -12    1    3    3    0    0  0.13769852275E+02 -0.24464690060E+02  0.31636138960E+02  0.42296278556E+02  0.00000000000E+00 0.  1.
</event>
<event>
 7    1  0.6061051E-012  0.5930194E+02  0.7816164E-02  0.1266605E+00
        -11   -1    0    0    0    0  0.00000000000E+00  0.00000000000E+00  0.45593999997E+02  0.45594000000E+02  0.51100000000E-03 0. -1.
         11   -1    0    0    0    0 -0.00000000000E+00 -0.00000000000E+00 -0.45593999997E+02  0.45594000000E+02  0.51100000000E-03 0.  1.
    9900012    2    1    2    0    0 -0.16221942181E+02 -0.24549921798E+02 -0.12282938802E+02  0.59301942640E+02  0.49999997468E+02 0.  0.
         12    1    1    2    0    0  0.16221942181E+02  0.24549921798E+02  0.12282938802E+02  0.31886057360E+02  0.00000000000E+00 0. -1.
         11    1    3    3    0    0  0.34398170777E+01 -0.73817587920E+01  0.13332309565E+02  0.15622841707E+02  0.51100000000E-03 0. -1.
        -11    1    3    3    0    0  0.25495294112E+01 -0.11969476887E+02 -0.61751540360E+01  0.13707698742E+02  0.51100000000E-03 0.  1.
        -12    1    3    3    0    0 -0.22211288669E+02 -0.51986861183E+01 -0.19440094331E+02  0.29971402191E+02  0.00000000000E+00 0.  1.
</event>
<event>
 7    1  0.6061051E-012  0.5930195E+02  0.7816164E-02  0.1266605E+00
        -11   -1    0    0    0    0  0.00000000000E+00  0.00000000000E+00  0.45593999997E+02  0.45594000000E+02  0.51100000000E-03 0. -1.
         11   -1    0    0    0    0 -0.00000000000E+00 -0.00000000000E+00 -0.45593999997E+02  0.45594000000E+02  0.51100000000E-03 0.  1.
    9900012    2    1    2    0    0 -0.12792582910E+02 -0.11359980588E+02 -0.26907631219E+02  0.59301953612E+02  0.50000017479E+02 0.  0.
         12    1    1    2    0    0  0.12792582910E+02  0.11359980588E+02  0.26907631219E+02  0.31886046388E+02  0.00000000000E+00 0. -1.
         11    1    3    3    0    0  0.16719533645E+01 -0.23405826141E+01  0.27317426876E+01  0.39668845961E+01  0.51100000000E-03 0. -1.
        -11    1    3    3    0    0  0.31548392430E+01  0.14719185814E+02 -0.26096767589E+01  0.15278018678E+02  0.51100000000E-03 0.  1.
        -12    1    3    3    0    0 -0.17619375518E+02 -0.23738583787E+02 -0.27029697148E+02  0.40057050338E+02  0.00000000000E+00 0.  1.
</event>
<event>
 7    1  0.6061051E-012  0.5930186E+02  0.7816164E-02  0.1266605E+00
        -11   -1    0    0    0    0  0.00000000000E+00  0.00000000000E+00  0.45593999997E+02  0.45594000000E+02  0.51100000000E-03 0. -1.
         11   -1    0    0    0    0 -0.00000000000E+00 -0.00000000000E+00 -0.45593999997E+02  0.45594000000E+02  0.51100000000E-03 0.  1.
    9900012    2    1    2    0    0 -0.31836102540E+02  0.42623387089E+00  0.17339393332E+01  0.59301864363E+02  0.49999854711E+02 0.  0.
         12    1    1    2    0    0  0.31836102540E+02 -0.42623387089E+00 -0.17339393332E+01  0.31886135637E+02  0.00000000000E+00 0. -1.
         11    1    3    3    0    0  0.23856049019E+01  0.13028503541E+02  0.23627279979E+01  0.13454200055E+02  0.51100000000E-03 0. -1.
        -11    1    3    3    0    0  0.17994202354E+01 -0.67591140767E+01  0.54316523819E+01  0.88558672159E+01  0.51100000000E-03 0.  1.
        -12    1    3    3    0    0 -0.36021127677E+02 -0.58431555934E+01 -0.60604410466E+01  0.36991797092E+02  0.00000000000E+00 0.  1.
</event>
<event>
 7    1  0.6061051E-012  0.5930196E+02  0.7816164E-02  0.1266605E+00
        -11   -1    0    0    0    0  0.00000000000E+00  0.00000000000E+00  0.45593999997E+02  0.45594000000E+02  0.51100000000E-03 0.  1.
         11   -1    0    0    0    0 -0.00000000000E+00 -0.00000000000E+00 -0.45593999997E+02  0.45594000000E+02  0.51100000000E-03 0. -1.
    9900012    2    1    2    0    0  0.10580793045E+02  0.50338406135E+01  0.29655134018E+02  0.59301957498E+02  0.50000024567E+02 0.  0.
         12    1    1    2    0    0 -0.10580793045E+02 -0.50338406135E+01 -0.29655134018E+02  0.31886042502E+02  0.00000000000E+00 0. -1.
         11    1    3    3    0    0 -0.24563978761E+00  0.16788230041E+02  0.36477462597E+01  0.17181707128E+02  0.51100000000E-03 0. -1.
        -11    1    3    3    0    0 -0.34502051983E+01  0.42641767065E+01  0.18644805627E+02  0.19434914356E+02  0.51100000000E-03 0.  1.
        -12    1    3    3    0    0  0.14276638031E+02 -0.16018566134E+02  0.73625821315E+01  0.22685336014E+02  0.00000000000E+00 0.  1.
</event>
<event>
 7    1  0.6061051E-012  0.5930194E+02  0.7816164E-02  0.1266605E+00
        -11   -1    0    0    0    0  0.00000000000E+00  0.00000000000E+00  0.45593999997E+02  0.45594000000E+02  0.51100000000E-03 0.  1.
         11   -1    0    0    0    0 -0.00000000000E+00 -0.00000000000E+00 -0.45593999997E+02  0.45594000000E+02  0.51100000000E-03 0. -1.
    9900012    2    1    2    0    0  0.27497448306E+02  0.69204105076E+01  0.14584902535E+02  0.59301935224E+02  0.49999983944E+02 0.  0.
         12    1    1    2    0    0 -0.27497448306E+02 -0.69204105076E+01 -0.14584902535E+02  0.31886064776E+02  0.00000000000E+00 0. -1.
         11    1    3    3    0    0  0.21298881772E+02  0.10786219130E-01 -0.80137097465E+01  0.22756582020E+02  0.51100000000E-03 0. -1.
        -11    1    3    3    0    0  0.10394214850E+02 -0.53783817743E+01  0.20193761460E+02  0.23339980613E+02  0.51100000000E-03 0.  1.
        -12    1    3    3    0    0 -0.41956483158E+01  0.12288006063E+02  0.24048508214E+01  0.13205372591E+02  0.00000000000E+00 0.  1.
</event>
<event>
 7    1  0.6061051E-012  0.5930195E+02  0.7816164E-02  0.1266605E+00
        -11   -1    0    0    0    0  0.00000000000E+00  0.00000000000E+00  0.45593999997E+02  0.45594000000E+02  0.51100000000E-03 0.  1.
         11   -1    0    0    0    0 -0.00000000000E+00 -0.00000000000E+00 -0.45593999997E+02  0.45594000000E+02  0.51100000000E-03 0. -1.
    9900012    2    1    2    0    0  0.12816520841E+02 -0.71929319597E+01  0.28296978224E+02  0.59301945788E+02  0.50000003210E+02 0.  0.
         12    1    1    2    0    0 -0.12816520841E+02  0.71929319597E+01 -0.28296978224E+02  0.31886054212E+02  0.00000000000E+00 0. -1.
         11    1    3    3    0    0 -0.29309333469E+01  0.31905167295E+01  0.31916814880E+01  0.53811335485E+01  0.51100000000E-03 0. -1.
        -11    1    3    3    0    0  0.33174368983E+01  0.38446122191E+01 -0.11586589571E+02  0.12650513382E+02  0.51100000000E-03 0.  1.
        -12    1    3    3    0    0  0.12430017290E+02 -0.14228060908E+02  0.36691886306E+02  0.41270298857E+02  0.00000000000E+00 0.  1.
</event>
<event>
 7    1  0.6061051E-012  0.5930196E+02  0.7816164E-02  0.1266605E+00
        -11   -1    0    0    0    0  0.00000000000E+00  0.00000000000E+00  0.45593999997E+02  0.45594000000E+02  0.51100000000E-03 0. -1.
         11   -1    0    0    0    0 -0.00000000000E+00 -0.00000000000E+00 -0.45593999997E+02  0.45594000000E+02  0.51100000000E-03 0.  1.
    9900012    2    1    2    0    0  0.26439255674E+02  0.17459513342E+02 -0.35847746173E+01  0.59301961428E+02  0.50000031734E+02 0.  0.
         12    1    1    2    0    0 -0.26439255674E+02 -0.17459513342E+02  0.35847746173E+01  0.31886038572E+02  0.00000000000E+00 0. -1.
         11    1    3    3    0    0 -0.15352610576E+01  0.62289909338E+01  0.37944840465E+01  0.74535537839E+01  0.51100000000E-03 0. -1.
        -11    1    3    3    0    0  0.25978121849E+02  0.14786351106E+01  0.13060238912E+02  0.29113897322E+02  0.51100000000E-03 0.  1.
         12    1    3    3    0    0  0.19963948834E+01  0.97518872977E+01 -0.20439497576E+02  0.22734510322E+02  0.00000000000E+00 0. -1.
</event>
<event>
 7    1  0.6061051E-012  0.5930192E+02  0.7816164E-02  0.1266605E+00
        -11   -1    0    0    0    0  0.00000000000E+00  0.00000000000E+00  0.45593999997E+02  0.45594000000E+02  0.51100000000E-03 0.  1.
         11   -1    0    0    0    0 -0.00000000000E+00 -0.00000000000E+00 -0.45593999997E+02  0.45594000000E+02  0.51100000000E-03 0. -1.
    9900012    2    1    2    0    0  0.57542124614E+01 -0.27789204460E+02  0.14538619425E+02  0.59301916823E+02  0.49999950385E+02 0.  0.
         12    1    1    2    0    0 -0.57542124614E+01  0.27789204460E+02 -0.14538619425E+02  0.31886083177E+02  0.00000000000E+00 0. -1.
         11    1    3    3    0    0  0.11355942544E+01 -0.17630169520E+02 -0.13778497689E+01  0.17720353322E+02  0.51100000000E-03 0. -1.
        -11    1    3    3    0    0 -0.15445772684E+02  0.50470651547E+00  0.41900393390E+01  0.16011965913E+02  0.51100000000E-03 0.  1.
         12    1    3    3    0    0  0.20064390891E+02 -0.10663741456E+02  0.11726429855E+02  0.25569597588E+02  0.00000000000E+00 0. -1.
</event>
<event>
 7    1  0.6061051E-012  0.5930194E+02  0.7816164E-02  0.1266605E+00
        -11   -1    0    0    0    0  0.00000000000E+00  0.00000000000E+00  0.45593999997E+02  0.45594000000E+02  0.51100000000E-03 0.  1.
         11   -1    0    0    0    0 -0.00000000000E+00 -0.00000000000E+00 -0.45593999997E+02  0.45594000000E+02  0.51100000000E-03 0. -1.
    9900012    2    1    2    0    0  0.16327477917E+02  0.12585135816E+02  0.24325881155E+02  0.59301942347E+02  0.49999996936E+02 0.  0.
         12    1    1    2    0    0 -0.16327477917E+02 -0.12585135816E+02 -0.24325881155E+02  0.31886057653E+02  0.00000000000E+00 0. -1.
         11    1    3    3    0    0  0.14628332473E+02  0.22657671596E+01  0.22969632138E+02  0.27326284280E+02  0.51100000000E-03 0. -1.
        -11    1    3    3    0    0  0.14801214456E+02  0.95963118484E+01  0.50411572571E+01  0.18346073618E+02  0.51100000000E-03 0.  1.
         12    1    3    3    0    0 -0.13102069011E+02  0.72305680817E+00 -0.36849082397E+01  0.13629584449E+02  0.00000000000E+00 0. -1.
</event>
<event>
 7    1  0.6061051E-012  0.5930194E+02  0.7816164E-02  0.1266605E+00
        -11   -1    0    0    0    0  0.00000000000E+00  0.00000000000E+00  0.45593999997E+02  0.45594000000E+02  0.51100000000E-03 0.  1.
         11   -1    0    0    0    0 -0.00000000000E+00 -0.00000000000E+00 -0.45593999997E+02  0.45594000000E+02  0.51100000000E-03 0. -1.
    9900012    2    1    2    0    0  0.18617333312E+02 -0.13910726290E+02  0.21831337282E+02  0.59301942027E+02  0.49999996351E+02 0.  0.
         12    1    1    2    0    0 -0.18617333312E+02  0.13910726290E+02 -0.21831337282E+02  0.31886057973E+02  0.00000000000E+00 0. -1.
         11    1    3    3    0    0 -0.11660588319E+02  0.51042591520E+01  0.12588273692E+02  0.17902162334E+02  0.51100000000E-03 0. -1.
        -11    1    3    3    0    0  0.19946366846E+02 -0.23450537323E+01  0.94904411398E+00  0.20106156081E+02  0.51100000000E-03 0.  1.
        -12    1    3    3    0    0  0.10331554785E+02 -0.16669931709E+02  0.82940194759E+01  0.21293623612E+02  0.00000000000E+00 0.  1.
</event>
<event>
 7    1  0.6061051E-012  0.5930191E+02  0.7816164E-02  0.1266605E+00
        -11   -1    0    0    0    0  0.00000000000E+00  0.00000000000E+00  0.45593999997E+02  0.45594000000E+02  0.51100000000E-03 0.  1.
         11   -1    0    0    0    0 -0.00000000000E+00 -0.00000000000E+00 -0.45593999997E+02  0.45594000000E+02  0.51100000000E-03 0. -1.
    9900012    2    1    2    0    0 -0.47995542360E+01 -0.85726055548E+01  0.30334758174E+02  0.59301908356E+02  0.49999934943E+02 0.  0.
         12    1    1    2    0    0  0.47995542360E+01  0.85726055548E+01 -0.30334758174E+02  0.31886091644E+02  0.00000000000E+00 0. -1.
         11    1    3    3    0    0 -0.17843488646E+01 -0.35899953802E+01  0.52951774912E+01  0.66416016611E+01  0.51100000000E-03 0. -1.
        -11    1    3    3    0    0 -0.85962558367E+01 -0.70852132237E+01  0.37352917469E+02  0.38978664736E+02  0.51100000000E-03 0.  1.
         12    1    3    3    0    0  0.55810504652E+01  0.21026030491E+01 -0.12313336787E+02  0.13681641959E+02  0.00000000000E+00 0. -1.
</event>
<event>
 7    1  0.6061051E-012  0.5930205E+02  0.7816164E-02  0.1266604E+00
        -11   -1    0    0    0    0  0.00000000000E+00  0.00000000000E+00  0.45593999997E+02  0.45594000000E+02  0.51100000000E-03 0. -1.
         11   -1    0    0    0    0 -0.00000000000E+00 -0.00000000000E+00 -0.45593999997E+02  0.45594000000E+02  0.51100000000E-03 0.  1.
    9900012    2    1    2    0    0  0.53996486990E+01 -0.27728296789E+02 -0.14788479322E+02  0.59302050594E+02  0.50000194350E+02 0.  0.
         12    1    1    2    0    0 -0.53996486990E+01  0.27728296789E+02  0.14788479322E+02  0.31885949406E+02  0.00000000000E+00 0. -1.
         11    1    3    3    0    0 -0.10490539696E+02  0.57577777360E+01 -0.56113017770E+00  0.11979912141E+02  0.51100000000E-03 0. -1.
        -11    1    3    3    0    0  0.21440534188E+01 -0.18406171104E+02  0.50971053412E+01  0.19218860083E+02  0.51100000000E-03 0.  1.
         12    1    3    3    0    0  0.13746134976E+02 -0.15079903421E+02 -0.19324454485E+02  0.28103278370E+02  0.00000000000E+00 0. -1.
</event>
<event>
 7    1  0.6061051E-012  0.5930211E+02  0.7816164E-02  0.1266604E+00
        -11   -1    0    0    0    0  0.00000000000E+00  0.00000000000E+00  0.45593999997E+02  0.45594000000E+02  0.51100000000E-03 0.  1.
         11   -1    0    0    0    0 -0.00000000000E+00 -0.00000000000E+00 -0.45593999997E+02  0.45594000000E+02  0.51100000000E-03 0. -1.
    9900012    2    1    2    0    0 -0.19366281274E+01  0.26235538182E+02  0.18018213212E+02  0.59302109710E+02  0.50000302164E+02 0.  0.
         12    1    1    2    0    0  0.19366281274E+01 -0.26235538182E+02 -0.18018213212E+02  0.31885890290E+02  0.00000000000E+00 0. -1.
         11    1    3    3    0    0 -0.10104096629E+02  0.34702877973E+01  0.52584493290E+01  0.11907432791E+02  0.51100000000E-03 0. -1.
        -11    1    3    3    0    0  0.22000927335E+02  0.11780474037E+02  0.15704605883E+02  0.29486522656E+02  0.51100000000E-03 0.  1.
         12    1    3    3    0    0 -0.13833458834E+02  0.10984776347E+02 -0.29448419998E+01  0.17908154263E+02  0.00000000000E+00 0. -1.
</event>
<event>
 7    1  0.6061051E-012  0.5930194E+02  0.7816164E-02  0.1266605E+00
        -11   -1    0    0    0    0  0.00000000000E+00  0.00000000000E+00  0.45593999997E+02  0.45594000000E+02  0.51100000000E-03 0. -1.
         11   -1    0    0    0    0 -0.00000000000E+00 -0.00000000000E+00 -0.45593999997E+02  0.45594000000E+02  0.51100000000E-03 0.  1.
    9900012    2    1    2    0    0 -0.10771158890E+02  0.28762979901E+02 -0.85670111043E+01  0.59301944178E+02  0.50000000274E+02 0.  0.
         12    1    1    2    0    0  0.10771158890E+02 -0.28762979901E+02  0.85670111043E+01  0.31886055822E+02  0.00000000000E+00 0. -1.
         11    1    3    3    0    0 -0.18157542681E+02  0.16675173127E+01  0.61607638603E+00  0.18244355856E+02  0.51100000000E-03 0. -1.
        -11    1    3    3    0    0 -0.10359228509E+02  0.11612632279E+02 -0.79500870495E+01  0.17474859888E+02  0.51100000000E-03 0.  1.
        -12    1    3    3    0    0  0.17745612301E+02  0.15482830310E+02 -0.12330004408E+01  0.23582728434E+02  0.00000000000E+00 0.  1.
</event>
<event>
 7    1  0.6061051E-012  0.5930196E+02  0.7816164E-02  0.1266605E+00
        -11   -1    0    0    0    0  0.00000000000E+00  0.00000000000E+00  0.45593999997E+02  0.45594000000E+02  0.51100000000E-03 0.  1.
         11   -1    0    0    0    0 -0.00000000000E+00 -0.00000000000E+00 -0.45593999997E+02  0.45594000000E+02  0.51100000000E-03 0. -1.
    9900012    2    1    2    0    0  0.16653686437E+02  0.21655382669E+02  0.16444420463E+02  0.59301955484E+02  0.50000020894E+02 0.  0.
         12    1    1    2    0    0 -0.16653686437E+02 -0.21655382669E+02 -0.16444420463E+02  0.31886044516E+02  0.00000000000E+00 0. -1.
         11    1    3    3    0    0  0.38512328329E+01  0.14525163331E+01 -0.66873561379E+01  0.78525492935E+01  0.51100000000E-03 0. -1.
        -11    1    3    3    0    0  0.16860566746E+02  0.32257783685E+01  0.28427373828E+02  0.33208431762E+02  0.51100000000E-03 0.  1.
         12    1    3    3    0    0 -0.40581131420E+01  0.16977087968E+02 -0.52955972264E+01  0.18240974429E+02  0.00000000000E+00 0. -1.
</event>
<event>
 7    1  0.6061051E-012  0.5930195E+02  0.7816164E-02  0.1266605E+00
        -11   -1    0    0    0    0  0.00000000000E+00  0.00000000000E+00  0.45593999997E+02  0.45594000000E+02  0.51100000000E-03 0.  1.
         11   -1    0    0    0    0 -0.00000000000E+00 -0.00000000000E+00 -0.45593999997E+02  0.45594000000E+02  0.51100000000E-03 0. -1.
    9900012    2    1    2    0    0 -0.27239494937E+00 -0.16916446513E+02  0.27027391648E+02  0.59301948803E+02  0.50000008709E+02 0.  0.
         12    1    1    2    0    0  0.27239494937E+00  0.16916446513E+02 -0.27027391648E+02  0.31886051197E+02  0.00000000000E+00 0. -1.
         11    1    3    3    0    0 -0.12120263272E+02 -0.20903697209E+02  0.17199015891E+01  0.24224438084E+02  0.51100000000E-03 0. -1.
        -11    1    3    3    0    0 -0.44012091306E+01 -0.24971132943E+01  0.10480573948E+01  0.51676533533E+01  0.51100000000E-03 0.  1.
         12    1    3    3    0    0  0.16249077453E+02  0.64843639902E+01  0.24259432664E+02  0.29909857365E+02  0.00000000000E+00 0. -1.
</event>
<event>
 7    1  0.6061051E-012  0.5930183E+02  0.7816164E-02  0.1266605E+00
        -11   -1    0    0    0    0  0.00000000000E+00  0.00000000000E+00  0.45593999997E+02  0.45594000000E+02  0.51100000000E-03 0. -1.
         11   -1    0    0    0    0 -0.00000000000E+00 -0.00000000000E+00 -0.45593999997E+02  0.45594000000E+02  0.51100000000E-03 0.  1.
    9900012    2    1    2    0    0  0.22422275619E+02 -0.13435656007E+02 -0.18260689859E+02  0.59301826031E+02  0.49999784801E+02 0.  0.
         12    1    1    2    0    0 -0.22422275619E+02  0.13435656007E+02  0.18260689859E+02  0.31886173969E+02  0.00000000000E+00 0. -1.
         11    1    3    3    0    0 -0.37771821883E+00 -0.24854690308E+01 -0.79435993469E+01  0.83319264400E+01  0.51100000000E-03 0. -1.
        -11    1    3    3    0    0  0.12485211290E+02  0.82202317824E+01 -0.21741840945E+02  0.26384850946E+02  0.51100000000E-03 0.  1.
         12    1    3    3    0    0  0.10314782548E+02 -0.19170418759E+02  0.11424750433E+02  0.24585048645E+02  0.00000000000E+00 0. -1.
</event>
<event>
 7    1  0.6061051E-012  0.5930197E+02  0.7816164E-02  0.1266605E+00
        -11   -1    0    0    0    0  0.00000000000E+00  0.00000000000E+00  0.45593999997E+02  0.45594000000E+02  0.51100000000E-03 0.  1.
         11   -1    0    0    0    0 -0.00000000000E+00 -0.00000000000E+00 -0.45593999997E+02  0.45594000000E+02  0.51100000000E-03 0. -1.
    9900012    2    1    2    0    0  0.10380715057E+02  0.18702436731E+02  0.23646958426E+02  0.59301968143E+02  0.50000043981E+02 0.  0.
         12    1    1    2    0    0 -0.10380715057E+02 -0.18702436731E+02 -0.23646958426E+02  0.31886031857E+02  0.00000000000E+00 0. -1.
         11    1    3    3    0    0  0.61186929909E+01  0.97856887933E+01 -0.50798548657E+00  0.11552322649E+02  0.51100000000E-03 0. -1.
        -11    1    3    3    0    0  0.14366285644E+01  0.24528459267E+02  0.10139912331E+02  0.26580576329E+02  0.51100000000E-03 0.  1.
         12    1    3    3    0    0  0.28253935022E+01 -0.15611711330E+02  0.14015031581E+02  0.21169069165E+02  0.00000000000E+00 0. -1.
</event>
<event>
 7    1  0.6061051E-012  0.5930219E+02  0.7816164E-02  0.1266604E+00
        -11   -1    0    0    0    0  0.00000000000E+00  0.00000000000E+00  0.45593999997E+02  0.45594000000E+02  0.51100000000E-03 0.  1.
         11   -1    0    0    0    0 -0.00000000000E+00 -0.00000000000E+00 -0.45593999997E+02  0.45594000000E+02  0.51100000000E-03 0. -1.
    9900012    2    1    2    0    0 -0.11864259391E+02  0.49522296571E+01  0.29179100340E+02  0.59302186130E+02  0.50000441534E+02 0.  0.
         12    1    1    2    0    0  0.11864259391E+02 -0.49522296571E+01 -0.29179100340E+02  0.31885813870E+02  0.00000000000E+00 0. -1.
         11    1    3    3    0    0 -0.58666235144E+01  0.12798475549E+02  0.76139502390E+01  0.16005951591E+02  0.51100000000E-03 0. -1.
        -11    1    3    3    0    0 -0.40113459918E+01 -0.32467733474E+01  0.31632735655E+02  0.32050934450E+02  0.51100000000E-03 0.  1.
        -12    1    3    3    0    0 -0.19862898850E+01 -0.45994725446E+01 -0.10067585554E+02  0.11245300088E+02  0.00000000000E+00 0.  1.
</event>
<event>
 7    1  0.6061051E-012  0.5930200E+02  0.7816164E-02  0.1266605E+00
        -11   -1    0    0    0    0  0.00000000000E+00  0.00000000000E+00  0.45593999997E+02  0.45594000000E+02  0.51100000000E-03 0.  1.
         11   -1    0    0    0    0 -0.00000000000E+00 -0.00000000000E+00 -0.45593999997E+02  0.45594000000E+02  0.51100000000E-03 0. -1.
    9900012    2    1    2    0    0  0.26529470397E+01 -0.10290208114E+02  0.30063103485E+02  0.59302004607E+02  0.50000110482E+02 0.  0.
         12    1    1    2    0    0 -0.26529470397E+01  0.10290208114E+02 -0.30063103485E+02  0.31885995393E+02  0.00000000000E+00 0. -1.
         11    1    3    3    0    0  0.20722913685E+01  0.10295097373E+02  0.43362823577E+01  0.11361635727E+02  0.51100000000E-03 0. -1.
        -11    1    3    3    0    0  0.17625079164E+02 -0.11982259665E+02  0.12407256632E+02  0.24660859264E+02  0.51100000000E-03 0.  1.
        -12    1    3    3    0    0 -0.17044423493E+02 -0.86030458220E+01  0.13319564495E+02  0.23279509616E+02  0.00000000000E+00 0.  1.
</event>
<event>
 7    1  0.6061051E-012  0.5930194E+02  0.7816164E-02  0.1266605E+00
        -11   -1    0    0    0    0  0.00000000000E+00  0.00000000000E+00  0.45593999997E+02  0.45594000000E+02  0.51100000000E-03 0.  1.
         11   -1    0    0    0    0 -0.00000000000E+00 -0.00000000000E+00 -0.45593999997E+02  0.45594000000E+02  0.51100000000E-03 0. -1.
    9900012    2    1    2    0    0 -0.15611251280E+02 -0.10099693246E+02  0.25903785231E+02  0.59301936281E+02  0.49999985872E+02 0.  0.
         12    1    1    2    0    0  0.15611251280E+02  0.10099693246E+02 -0.25903785231E+02  0.31886063719E+02  0.00000000000E+00 0. -1.
         11    1    3    3    0    0 -0.63978994282E+01  0.10801455008E+02  0.72645672864E+00  0.12575066084E+02  0.51100000000E-03 0. -1.
        -11    1    3    3    0    0 -0.52715775594E+01 -0.10473504577E+01 -0.69311206400E+01  0.87707985117E+01  0.51100000000E-03 0.  1.
        -12    1    3    3    0    0 -0.39417742923E+01 -0.19853797795E+02  0.32108449143E+02  0.37956071686E+02  0.00000000000E+00 0.  1.
</event>
<event>
 7    1  0.6061051E-012  0.5930192E+02  0.7816164E-02  0.1266605E+00
        -11   -1    0    0    0    0  0.00000000000E+00  0.00000000000E+00  0.45593999997E+02  0.45594000000E+02  0.51100000000E-03 0.  1.
         11   -1    0    0    0    0 -0.00000000000E+00 -0.00000000000E+00 -0.45593999997E+02  0.45594000000E+02  0.51100000000E-03 0. -1.
    9900012    2    1    2    0    0  0.12494558495E+01  0.22128872562E+02  0.22923219362E+02  0.59301919546E+02  0.49999955352E+02 0.  0.
         12    1    1    2    0    0 -0.12494558495E+01 -0.22128872562E+02 -0.22923219362E+02  0.31886080454E+02  0.00000000000E+00 0. -1.
         11    1    3    3    0    0  0.50352827819E+01  0.11842353932E+02 -0.56518952437E+01  0.14054868888E+02  0.51100000000E-03 0. -1.
        -11    1    3    3    0    0 -0.57084271385E+01 -0.83503004024E+01 -0.10765513494E+01  0.10172149246E+02  0.51100000000E-03 0.  1.
         12    1    3    3    0    0  0.19226002060E+01  0.18636819032E+02  0.29651665955E+02  0.35074901413E+02  0.00000000000E+00 0. -1.
</event>
<event>
 7    1  0.6061051E-012  0.5930198E+02  0.7816164E-02  0.1266605E+00
        -11   -1    0    0    0    0  0.00000000000E+00  0.00000000000E+00  0.45593999997E+02  0.45594000000E+02  0.51100000000E-03 0. -1.
         11   -1    0    0    0    0 -0.00000000000E+00 -0.00000000000E+00 -0.45593999997E+02  0.45594000000E+02  0.51100000000E-03 0.  1.
    9900012    2    1    2    0    0 -0.30378936194E+02 -0.94590742007E+01  0.20891736889E+01  0.59301976484E+02  0.50000059192E+02 0.  0.
         12    1    1    2    0    0  0.30378936194E+02  0.94590742007E+01 -0.20891736889E+01  0.31886023516E+02  0.00000000000E+00 0. -1.
         11    1    3    3    0    0 -0.67256620698E+01  0.47816486171E-01 -0.90717978832E+01  0.11293110014E+02  0.51100000000E-03 0. -1.
        -11    1    3    3    0    0 -0.14101359622E+02  0.14154328726E+02  0.10298408451E+02  0.22477779734E+02  0.51100000000E-03 0.  1.
        -12    1    3    3    0    0 -0.95519145014E+01 -0.23661219413E+02  0.86256312083E+00  0.25531086735E+02  0.00000000000E+00 0.  1.
</event>
<event>
 7    1  0.6061051E-012  0.5930196E+02  0.7816164E-02  0.1266605E+00
        -11   -1    0    0    0    0  0.00000000000E+00  0.00000000000E+00  0.45593999997E+02  0.45594000000E+02  0.51100000000E-03 0.  1.
         11   -1    0    0    0    0 -0.00000000000E+00 -0.00000000000E+00 -0.45593999997E+02  0.45594000000E+02  0.51100000000E-03 0. -1.
    9900012    2    1    2    0    0  0.21666549216E+02 -0.22297165322E+02  0.70793177820E+01  0.59301957966E+02  0.50000025421E+02 0.  0.
         12    1    1    2    0    0 -0.21666549216E+02  0.22297165322E+02 -0.70793177820E+01  0.31886042034E+02  0.00000000000E+00 0. -1.
         11    1    3    3    0    0  0.64106172390E+01  0.52892785414E+01 -0.59390929225E+01  0.10214955011E+02  0.51100000000E-03 0. -1.
        -11    1    3    3    0    0  0.24249168827E+02 -0.28328106874E+02  0.14370166458E+02  0.39962551372E+02  0.51100000000E-03 0.  1.
         12    1    3    3    0    0 -0.89932368507E+01  0.74166301055E+00 -0.13517557535E+01  0.91244515830E+01  0.00000000000E+00 0. -1.
</event>
<event>
 7    1  0.6061051E-012  0.5930192E+02  0.7816164E-02  0.1266605E+00
        -11   -1    0    0    0    0  0.00000000000E+00  0.00000000000E+00  0.45593999997E+02  0.45594000000E+02  0.51100000000E-03 0.  1.
         11   -1    0    0    0    0 -0.00000000000E+00 -0.00000000000E+00 -0.45593999997E+02  0.45594000000E+02  0.51100000000E-03 0. -1.
    9900012    2    1    2    0    0  0.23993178938E+02 -0.13643497657E+02 -0.15965733734E+02  0.59301916554E+02  0.49999949894E+02 0.  0.
         12    1    1    2    0    0 -0.23993178938E+02  0.13643497657E+02  0.15965733734E+02  0.31886083446E+02  0.00000000000E+00 0. -1.
         11    1    3    3    0    0  0.23584365165E+02 -0.19362262402E+02 -0.90566146895E+01  0.31829887770E+02  0.51100000000E-03 0. -1.
        -11    1    3    3    0    0  0.11150785471E+02  0.55530709972E+01  0.30476084486E+01  0.12824372563E+02  0.51100000000E-03 0.  1.
         12    1    3    3    0    0 -0.10741971698E+02  0.16569374761E+00 -0.99567274929E+01  0.14647656220E+02  0.00000000000E+00 0. -1.
</event>
<event>
 7    1  0.6061051E-012  0.5930195E+02  0.7816164E-02  0.1266605E+00
        -11   -1    0    0    0    0  0.00000000000E+00  0.00000000000E+00  0.45593999997E+02  0.45594000000E+02  0.51100000000E-03 0. -1.
         11   -1    0    0    0    0 -0.00000000000E+00 -0.00000000000E+00 -0.45593999997E+02  0.45594000000E+02  0.51100000000E-03 0.  1.
    9900012    2    1    2    0    0 -0.18325966353E+02 -0.35279937166E+01 -0.25854055618E+02  0.59301953297E+02  0.50000016905E+02 0.  0.
         12    1    1    2    0    0  0.18325966353E+02  0.35279937166E+01  0.25854055618E+02  0.31886046703E+02  0.00000000000E+00 0. -1.
         11    1    3    3    0    0 -0.66803800392E+01 -0.87550206617E+00 -0.10998625911E+02  0.12898207377E+02  0.51100000000E-03 0. -1.
        -11    1    3    3    0    0  0.42246865822E+01 -0.18670628943E+02 -0.14219442906E+02  0.23846025217E+02  0.51100000000E-03 0.  1.
         12    1    3    3    0    0 -0.15870272896E+02  0.16018137292E+02 -0.63598680009E+00  0.22557720703E+02  0.00000000000E+00 0. -1.
</event>
<event>
 7    1  0.6061051E-012  0.5930182E+02  0.7816164E-02  0.1266605E+00
        -11   -1    0    0    0    0  0.00000000000E+00  0.00000000000E+00  0.45593999997E+02  0.45594000000E+02  0.51100000000E-03 0.  1.
         11   -1    0    0    0    0 -0.00000000000E+00 -0.00000000000E+00 -0.45593999997E+02  0.45594000000E+02  0.51100000000E-03 0. -1.
    9900012    2    1    2    0    0  0.20303889707E+02  0.19276594129E+02  0.15260846571E+02  0.59301820290E+02  0.49999774332E+02 0.  0.
         12    1    1    2    0    0 -0.20303889707E+02 -0.19276594129E+02 -0.15260846571E+02  0.31886179710E+02  0.00000000000E+00 0. -1.
         11    1    3    3    0    0 -0.17643806325E+01  0.92187632037E+01 -0.74356419248E+01  0.11974448009E+02  0.51100000000E-03 0. -1.
        -11    1    3    3    0    0  0.68282504507E+01  0.16392644329E+02 -0.17363424654E+01  0.17842608490E+02  0.51100000000E-03 0.  1.
         12    1    3    3    0    0  0.15240019889E+02 -0.63348134042E+01  0.24432830961E+02  0.29484763791E+02  0.00000000000E+00 0. -1.
</event>
<event>
 7    1  0.6061051E-012  0.5930195E+02  0.7816164E-02  0.1266605E+00
        -11   -1    0    0    0    0  0.00000000000E+00  0.00000000000E+00  0.45593999997E+02  0.45594000000E+02  0.51100000000E-03 0.  1.
         11   -1    0    0    0    0 -0.00000000000E+00 -0.00000000000E+00 -0.45593999997E+02  0.45594000000E+02  0.51100000000E-03 0. -1.
    9900012    2    1    2    0    0  0.14350007240E+02 -0.22529576427E+02  0.17413093980E+02  0.59301947191E+02  0.50000005770E+02 0.  0.
         12    1    1    2    0    0 -0.14350007240E+02  0.22529576427E+02 -0.17413093980E+02  0.31886052809E+02  0.00000000000E+00 0. -1.
         11    1    3    3    0    0  0.11964123187E+02 -0.74366460058E+01 -0.30779142265E+01  0.14419344774E+02  0.51100000000E-03 0. -1.
        -11    1    3    3    0    0  0.99467377635E+01 -0.24830408615E+02  0.18174002828E+02  0.32338539904E+02  0.51100000000E-03 0.  1.
         12    1    3    3    0    0 -0.75608537112E+01  0.97374781937E+01  0.23170053790E+01  0.12544062513E+02  0.00000000000E+00 0. -1.
</event>
<event>
 7    1  0.6061051E-012  0.5930195E+02  0.7816164E-02  0.1266605E+00
        -11   -1    0    0    0    0  0.00000000000E+00  0.00000000000E+00  0.45593999997E+02  0.45594000000E+02  0.51100000000E-03 0. -1.
         11   -1    0    0    0    0 -0.00000000000E+00 -0.00000000000E+00 -0.45593999997E+02  0.45594000000E+02  0.51100000000E-03 0.  1.
    9900012    2    1    2    0    0  0.13199542014E+02 -0.23362696349E+02 -0.17224313737E+02  0.59301945465E+02  0.50000002622E+02 0.  0.
         12    1    1    2    0    0 -0.13199542014E+02  0.23362696349E+02  0.17224313737E+02  0.31886054535E+02  0.00000000000E+00 0. -1.
         11    1    3    3    0    0 -0.47256291043E+01 -0.81026801058E+00 -0.69365547266E+01  0.84323126375E+01  0.51100000000E-03 0. -1.
        -11    1    3    3    0    0 -0.20803765627E+01  0.10760281023E+02 -0.21471819496E+01  0.11167900650E+02  0.51100000000E-03 0.  1.
        -12    1    3    3    0    0  0.20005547681E+02 -0.33312709362E+02 -0.81405770609E+01  0.39701732178E+02  0.00000000000E+00 0.  1.
</event>
<event>
 7    1  0.6061051E-012  0.5930194E+02  0.7816164E-02  0.1266605E+00
        -11   -1    0    0    0    0  0.00000000000E+00  0.00000000000E+00  0.45593999997E+02  0.45594000000E+02  0.51100000000E-03 0. -1.
         11   -1    0    0    0    0 -0.00000000000E+00 -0.00000000000E+00 -0.45593999997E+02  0.45594000000E+02  0.51100000000E-03 0.  1.
    9900012    2    1    2    0    0 -0.10536623268E+02 -0.19231174439E+02 -0.23148695349E+02  0.59301943540E+02  0.49999999111E+02 0.  0.
         12    1    1    2    0    0  0.10536623268E+02  0.19231174439E+02  0.23148695349E+02  0.31886056460E+02  0.00000000000E+00 0. -1.
         11    1    3    3    0    0 -0.23204696756E+01 -0.13840720348E+01  0.33709520436E+01  0.43201334301E+01  0.51100000000E-03 0. -1.
        -11    1    3    3    0    0 -0.57705845617E+01  0.69918496521E+01 -0.28536017079E+02  0.29941440826E+02  0.51100000000E-03 0.  1.
         12    1    3    3    0    0 -0.24455690302E+01 -0.24838952057E+02  0.20163696865E+01  0.25040369284E+02  0.00000000000E+00 0. -1.
</event>
<event>
 7    1  0.6061051E-012  0.5930201E+02  0.7816164E-02  0.1266605E+00
        -11   -1    0    0    0    0  0.00000000000E+00  0.00000000000E+00  0.45593999997E+02  0.45594000000E+02  0.51100000000E-03 0.  1.
         11   -1    0    0    0    0 -0.00000000000E+00 -0.00000000000E+00 -0.45593999997E+02  0.45594000000E+02  0.51100000000E-03 0. -1.
    9900012    2    1    2    0    0 -0.16756026043E+02  0.10969790455E+00  0.27128218246E+02  0.59302005150E+02  0.50000111472E+02 0.  0.
         12    1    1    2    0    0  0.16756026043E+02 -0.10969790455E+00 -0.27128218246E+02  0.31885994850E+02  0.00000000000E+00 0. -1.
         11    1    3    3    0    0 -0.12351547920E+02  0.63886021116E+01 -0.46822474492E+01  0.14673050616E+02  0.51100000000E-03 0. -1.
        -11    1    3    3    0    0 -0.16609462471E+02 -0.27376712703E+01  0.10569918441E+02  0.19876927923E+02  0.51100000000E-03 0.  1.
        -12    1    3    3    0    0  0.12204984348E+02 -0.35412329367E+01  0.21240547254E+02  0.24752026610E+02  0.00000000000E+00 0.  1.
</event>
<event>
 7    1  0.6061051E-012  0.5930195E+02  0.7816164E-02  0.1266605E+00
        -11   -1    0    0    0    0  0.00000000000E+00  0.00000000000E+00  0.45593999997E+02  0.45594000000E+02  0.51100000000E-03 0.  1.
         11   -1    0    0    0    0 -0.00000000000E+00 -0.00000000000E+00 -0.45593999997E+02  0.45594000000E+02  0.51100000000E-03 0. -1.
    9900012    2    1    2    0    0 -0.21325772551E+01 -0.10038457086E+02  0.30189434479E+02  0.59301945672E+02  0.50000002999E+02 0.  0.
         12    1    1    2    0    0  0.21325772551E+01  0.10038457086E+02 -0.30189434479E+02  0.31886054328E+02  0.00000000000E+00 0. -1.
         11    1    3    3    0    0 -0.92677390032E+01 -0.92251035028E-01  0.57063323794E+01  0.10884012402E+02  0.51100000000E-03 0. -1.
        -11    1    3    3    0    0  0.84027879220E+01  0.15168199411E+01  0.32996359618E+02  0.34083241276E+02  0.51100000000E-03 0.  1.
         12    1    3    3    0    0 -0.12676261739E+01 -0.11463025992E+02 -0.85132575177E+01  0.14334691994E+02  0.00000000000E+00 0. -1.
</event>
<event>
 7    1  0.6061051E-012  0.5930194E+02  0.7816164E-02  0.1266605E+00
        -11   -1    0    0    0    0  0.00000000000E+00  0.00000000000E+00  0.45593999997E+02  0.45594000000E+02  0.51100000000E-03 0. -1.
         11   -1    0    0    0    0 -0.00000000000E+00 -0.00000000000E+00 -0.45593999997E+02  0.45594000000E+02  0.51100000000E-03 0.  1.
    9900012    2    1    2    0    0 -0.18044072689E+02  0.37787194512E+01 -0.26016409897E+02  0.59301939349E+02  0.49999991467E+02 0.  0.
         12    1    1    2    0    0  0.18044072689E+02 -0.37787194512E+01  0.26016409897E+02  0.31886060651E+02  0.00000000000E+00 0. -1.
         11    1    3    3    0    0 -0.78414582233E+00 -0.92462952712E+00 -0.33578073932E+02  0.33599953477E+02  0.51100000000E-03 0.  1.
        -11    1    3    3    0    0 -0.15221267440E+02  0.99825526576E+01  0.30324965817E+01  0.18453573525E+02  0.51100000000E-03 0. -1.
        -12    1    3    3    0    0 -0.20386594266E+01 -0.52792036793E+01  0.45291674530E+01  0.72484123477E+01  0.00000000000E+00 0.  1.
</event>
<event>
 7    1  0.6061051E-012  0.5930195E+02  0.7816164E-02  0.1266605E+00
        -11   -1    0    0    0    0  0.00000000000E+00  0.00000000000E+00  0.45593999997E+02  0.45594000000E+02  0.51100000000E-03 0. -1.
         11   -1    0    0    0    0 -0.00000000000E+00 -0.00000000000E+00 -0.45593999997E+02  0.45594000000E+02  0.51100000000E-03 0.  1.
    9900012    2    1    2    0    0  0.24679976960E+02 -0.18952489698E+02  0.69585792516E+01  0.59301953620E+02  0.50000017495E+02 0.  0.
         12    1    1    2    0    0 -0.24679976960E+02  0.18952489698E+02 -0.69585792516E+01  0.31886046380E+02  0.00000000000E+00 0. -1.
         11    1    3    3    0    0 -0.32667527525E+00 -0.42208125247E+01  0.87360251737E+01  0.97077346071E+01  0.51100000000E-03 0. -1.
        -11    1    3    3    0    0  0.31340571025E+01 -0.24622745909E+02 -0.51597826279E+01  0.25352027277E+02  0.51100000000E-03 0.  1.
         12    1    3    3    0    0  0.21872595133E+02  0.98910687354E+01  0.33823367057E+01  0.24242191736E+02  0.00000000000E+00 0. -1.
</event>
<event>
 7    1  0.6113473E-012  0.5930194E+02  0.7816164E-02  0.1266605E+00
        -11   -1    0    0    0    0  0.00000000000E+00  0.00000000000E+00  0.45593999997E+02  0.45594000000E+02  0.51100000000E-03 0. -1.
         11   -1    0    0    0    0 -0.00000000000E+00 -0.00000000000E+00 -0.45593999997E+02  0.45594000000E+02  0.51100000000E-03 0.  1.
    9900012    2    1    2    0    0  0.92574690638E+01  0.14052540951E+02 -0.27084062723E+02  0.59301935736E+02  0.49999984879E+02 0.  0.
         12    1    1    2    0    0 -0.92574690638E+01 -0.14052540951E+02  0.27084062723E+02  0.31886064264E+02  0.00000000000E+00 0. -1.
         11    1    3    3    0    0  0.93677857774E+01  0.25035729548E+01  0.63724438945E+01  0.11603074134E+02  0.51100000000E-03 0. -1.
        -11    1    3    3    0    0  0.14375745329E+02  0.13038344635E+02 -0.20060222657E+02  0.27911879512E+02  0.51100000000E-03 0.  1.
         12    1    3    3    0    0 -0.14486062043E+02 -0.14893766388E+01 -0.13396283960E+02  0.19786982090E+02  0.00000000000E+00 0. -1.
</event>
<event>
 7    1  0.6061051E-012  0.5930194E+02  0.7816164E-02  0.1266605E+00
        -11   -1    0    0    0    0  0.00000000000E+00  0.00000000000E+00  0.45593999997E+02  0.45594000000E+02  0.51100000000E-03 0.  1.
         11   -1    0    0    0    0 -0.00000000000E+00 -0.00000000000E+00 -0.45593999997E+02  0.45594000000E+02  0.51100000000E-03 0. -1.
    9900012    2    1    2    0    0 -0.22394264469E+02  0.10208765038E+02 -0.20273102638E+02  0.59301942619E+02  0.49999997431E+02 0.  0.
         12    1    1    2    0    0  0.22394264469E+02 -0.10208765038E+02  0.20273102638E+02  0.31886057381E+02  0.00000000000E+00 0. -1.
         11    1    3    3    0    0 -0.94249671664E+01 -0.14114025908E+02 -0.15199321696E+02  0.22782781079E+02  0.51100000000E-03 0. -1.
        -11    1    3    3    0    0  0.67816437274E+01  0.83057725887E+01 -0.10573070643E+01  0.10774713380E+02  0.51100000000E-03 0.  1.
        -12    1    3    3    0    0 -0.19750941030E+02  0.16017018357E+02 -0.40164738783E+01  0.25744448160E+02  0.00000000000E+00 0.  1.
</event>
<event>
 7    1  0.6061051E-012  0.5930193E+02  0.7816164E-02  0.1266605E+00
        -11   -1    0    0    0    0  0.00000000000E+00  0.00000000000E+00  0.45593999997E+02  0.45594000000E+02  0.51100000000E-03 0.  1.
         11   -1    0    0    0    0 -0.00000000000E+00 -0.00000000000E+00 -0.45593999997E+02  0.45594000000E+02  0.51100000000E-03 0. -1.
    9900012    2    1    2    0    0 -0.46255253048E+01 -0.26454256750E+02  0.17190054813E+02  0.59301934563E+02  0.49999982739E+02 0.  0.
         12    1    1    2    0    0  0.46255253048E+01  0.26454256750E+02 -0.17190054813E+02  0.31886065437E+02  0.00000000000E+00 0. -1.
         11    1    3    3    0    0  0.11307806854E+01  0.67557894960E+01  0.13118142086E+02  0.14798817815E+02  0.51100000000E-03 0. -1.
        -11    1    3    3    0    0  0.10673281844E+02 -0.12962375622E+02  0.71443453951E+01  0.18247843666E+02  0.51100000000E-03 0.  1.
        -12    1    3    3    0    0 -0.16429587834E+02 -0.20247670624E+02 -0.30724326681E+01  0.26255273082E+02  0.00000000000E+00 0.  1.
</event>
<event>
 7    1  0.6061051E-012  0.5930157E+02  0.7816164E-02  0.1266606E+00
        -11   -1    0    0    0    0  0.00000000000E+00  0.00000000000E+00  0.45593999997E+02  0.45594000000E+02  0.51100000000E-03 0.  1.
         11   -1    0    0    0    0 -0.00000000000E+00 -0.00000000000E+00 -0.45593999997E+02  0.45594000000E+02  0.51100000000E-03 0. -1.
    9900012    2    1    2    0    0  0.44083488822E+01  0.14038496734E+02  0.28288364657E+02  0.59301568632E+02  0.49999315363E+02 0.  0.
         12    1    1    2    0    0 -0.44083488822E+01 -0.14038496734E+02 -0.28288364657E+02  0.31886431368E+02  0.00000000000E+00 0. -1.
         11    1    3    3    0    0  0.18060266765E+02  0.43307340779E+00  0.49692923465E+01  0.18736452570E+02  0.51100000000E-03 0. -1.
        -11    1    3    3    0    0 -0.30057978299E+01 -0.17540920751E+01  0.21509649868E+02  0.21789371200E+02  0.51100000000E-03 0.  1.
        -12    1    3    3    0    0 -0.10646120053E+02  0.15359515401E+02  0.18094224434E+01  0.18775744862E+02  0.00000000000E+00 0.  1.
</event>
<event>
 7    1  0.6061051E-012  0.5930193E+02  0.7816164E-02  0.1266605E+00
        -11   -1    0    0    0    0  0.00000000000E+00  0.00000000000E+00  0.45593999997E+02  0.45594000000E+02  0.51100000000E-03 0.  1.
         11   -1    0    0    0    0 -0.00000000000E+00 -0.00000000000E+00 -0.45593999997E+02  0.45594000000E+02  0.51100000000E-03 0. -1.
    9900012    2    1    2    0    0 -0.26361911597E+01 -0.30743482387E+02  0.80380342626E+01  0.59301933954E+02  0.49999981628E+02 0.  0.
         12    1    1    2    0    0  0.26361911597E+01  0.30743482387E+02 -0.80380342626E+01  0.31886066046E+02  0.00000000000E+00 0. -1.
         11    1    3    3    0    0  0.10565456672E+02 -0.92313947576E+01 -0.82517821782E+01  0.16276960196E+02  0.51100000000E-03 0. -1.
        -11    1    3    3    0    0  0.31167620009E+01  0.65187783207E+01  0.15111011962E+01  0.73818766754E+01  0.51100000000E-03 0.  1.
        -12    1    3    3    0    0 -0.16318409832E+02 -0.28030865950E+02  0.14778715245E+02  0.35643097082E+02  0.00000000000E+00 0.  1.
</event>
<event>
 7    1  0.6061051E-012  0.5930193E+02  0.7816164E-02  0.1266605E+00
        -11   -1    0    0    0    0  0.00000000000E+00  0.00000000000E+00  0.45593999997E+02  0.45594000000E+02  0.51100000000E-03 0.  1.
         11   -1    0    0    0    0 -0.00000000000E+00 -0.00000000000E+00 -0.45593999997E+02  0.45594000000E+02  0.51100000000E-03 0. -1.
    9900012    2    1    2    0    0  0.99282860796E+01  0.25201782624E+02  0.16823229118E+02  0.59301925456E+02  0.49999966129E+02 0.  0.
         12    1    1    2    0    0 -0.99282860796E+01 -0.25201782624E+02 -0.16823229118E+02  0.31886074544E+02  0.00000000000E+00 0. -1.
         11    1    3    3    0    0  0.20219525557E+02  0.13539244995E+02  0.80000923764E+01  0.25615265899E+02  0.51100000000E-03 0. -1.
        -11    1    3    3    0    0  0.84752006919E+01  0.12409968195E+00  0.79786954421E+01  0.11640618915E+02  0.51100000000E-03 0.  1.
         12    1    3    3    0    0 -0.18766440169E+02  0.11538437947E+02  0.84444129903E+00  0.22046040642E+02  0.00000000000E+00 0. -1.
</event>
<event>
 7    1  0.6061051E-012  0.5930218E+02  0.7816164E-02  0.1266604E+00
        -11   -1    0    0    0    0  0.00000000000E+00  0.00000000000E+00  0.45593999997E+02  0.45594000000E+02  0.51100000000E-03 0. -1.
         11   -1    0    0    0    0 -0.00000000000E+00 -0.00000000000E+00 -0.45593999997E+02  0.45594000000E+02  0.51100000000E-03 0.  1.
    9900012    2    1    2    0    0  0.26116934210E+02  0.20011537009E+00  0.18291287857E+02  0.59302180109E+02  0.50000430553E+02 0.  0.
         12    1    1    2    0    0 -0.26116934210E+02 -0.20011537009E+00 -0.18291287857E+02  0.31885819891E+02  0.00000000000E+00 0. -1.
         11    1    3    3    0    0  0.57015842883E+01  0.13655623881E+02  0.14801217640E+01  0.14871949693E+02  0.51100000000E-03 0. -1.
        -11    1    3    3    0    0 -0.69076209199E+01 -0.47972181311E+01  0.13046230299E+02  0.15522005471E+02  0.51100000000E-03 0.  1.
        -12    1    3    3    0    0  0.27322970841E+02 -0.86582903799E+01  0.37649357937E+01  0.28908224944E+02  0.00000000000E+00 0.  1.
</event>
<event>
 7    1  0.6061051E-012  0.5930195E+02  0.7816164E-02  0.1266605E+00
        -11   -1    0    0    0    0  0.00000000000E+00  0.00000000000E+00  0.45593999997E+02  0.45594000000E+02  0.51100000000E-03 0.  1.
         11   -1    0    0    0    0 -0.00000000000E+00 -0.00000000000E+00 -0.45593999997E+02  0.45594000000E+02  0.51100000000E-03 0. -1.
    9900012    2    1    2    0    0  0.23425584189E+02 -0.11303068987E+02  0.18444584892E+02  0.59301951720E+02  0.50000014028E+02 0.  0.
         12    1    1    2    0    0 -0.23425584189E+02  0.11303068987E+02 -0.18444584892E+02  0.31886048280E+02  0.00000000000E+00 0. -1.
         11    1    3    3    0    0 -0.16885062620E+01  0.68233804310E+01  0.65213477718E+01  0.95884071109E+01  0.51100000000E-03 0. -1.
        -11    1    3    3    0    0  0.10954544416E+02  0.10631635736E+02  0.85103711682E+01  0.17477417986E+02  0.51100000000E-03 0.  1.
         12    1    3    3    0    0  0.14159546034E+02 -0.28758085154E+02  0.34128659520E+01  0.32236126622E+02  0.00000000000E+00 0. -1.
</event>
<event>
 7    1  0.6061051E-012  0.5930194E+02  0.7816164E-02  0.1266605E+00
        -11   -1    0    0    0    0  0.00000000000E+00  0.00000000000E+00  0.45593999997E+02  0.45594000000E+02  0.51100000000E-03 0. -1.
         11   -1    0    0    0    0 -0.00000000000E+00 -0.00000000000E+00 -0.45593999997E+02  0.45594000000E+02  0.51100000000E-03 0.  1.
    9900012    2    1    2    0    0 -0.47596767387E+01 -0.17637623071E+02 -0.26133897916E+02  0.59301938930E+02  0.49999990704E+02 0.  0.
         12    1    1    2    0    0  0.47596767387E+01  0.17637623071E+02  0.26133897916E+02  0.31886061070E+02  0.00000000000E+00 0. -1.
         11    1    3    3    0    0 -0.14063509417E+02 -0.11151143441E+02  0.86508188191E+01  0.19924029804E+02  0.51100000000E-03 0. -1.
        -11    1    3    3    0    0  0.82111412151E+01  0.20362382399E+01 -0.97443219250E+01  0.12904298364E+02  0.51100000000E-03 0.  1.
        -12    1    3    3    0    0  0.10926914629E+01 -0.85227178705E+01 -0.25040394810E+02  0.26473610762E+02  0.00000000000E+00 0.  1.
</event>
<event>
 7    1  0.6061051E-012  0.5930195E+02  0.7816164E-02  0.1266605E+00
        -11   -1    0    0    0    0  0.00000000000E+00  0.00000000000E+00  0.45593999997E+02  0.45594000000E+02  0.51100000000E-03 0.  1.
         11   -1    0    0    0    0 -0.00000000000E+00 -0.00000000000E+00 -0.45593999997E+02  0.45594000000E+02  0.51100000000E-03 0. -1.
    9900012    2    1    2    0    0  0.18817806313E+02 -0.13944784234E+02  0.21636850878E+02  0.59301950422E+02  0.50000011662E+02 0.  0.
         12    1    1    2    0    0 -0.18817806313E+02  0.13944784234E+02 -0.21636850878E+02  0.31886049578E+02  0.00000000000E+00 0. -1.
         11    1    3    3    0    0  0.43598927535E+01  0.22686182106E+00  0.55351687018E+00  0.44007399713E+01  0.51100000000E-03 0. -1.
        -11    1    3    3    0    0  0.26399676372E+02 -0.19243753077E+02  0.25233340685E+02  0.41279370482E+02  0.51100000000E-03 0.  1.
        -12    1    3    3    0    0 -0.11941762812E+02  0.50721070220E+01 -0.41500066775E+01  0.13621839969E+02  0.00000000000E+00 0.  1.
</event>
<event>
 7    1  0.6061051E-012  0.5930194E+02  0.7816164E-02  0.1266605E+00
        -11   -1    0    0    0    0  0.00000000000E+00  0.00000000000E+00  0.45593999997E+02  0.45594000000E+02  0.51100000000E-03 0.  1.
         11   -1    0    0    0    0 -0.00000000000E+00 -0.00000000000E+00 -0.45593999997E+02  0.45594000000E+02  0.51100000000E-03 0. -1.
    9900012    2    1    2    0    0 -0.21386998735E+02 -0.19192100681E+02  0.13819561060E+02  0.59301941740E+02  0.49999995828E+02 0.  0.
         12    1    1    2    0    0  0.21386998735E+02  0.19192100681E+02 -0.13819561060E+02  0.31886058260E+02  0.00000000000E+00 0. -1.
         11    1    3    3    0    0 -0.24443079798E+02 -0.10039056033E+02 -0.50115479809E+01  0.26895397551E+02  0.51100000000E-03 0. -1.
        -11    1    3    3    0    0 -0.10525043799E+02 -0.12396305271E+01  0.65424097192E+01  0.12454571691E+02  0.51100000000E-03 0.  1.
         12    1    3    3    0    0  0.13581124861E+02 -0.79134141209E+01  0.12288699322E+02  0.19951972498E+02  0.00000000000E+00 0. -1.
</event>
<event>
 7    1  0.6061051E-012  0.5930195E+02  0.7816164E-02  0.1266605E+00
        -11   -1    0    0    0    0  0.00000000000E+00  0.00000000000E+00  0.45593999997E+02  0.45594000000E+02  0.51100000000E-03 0. -1.
         11   -1    0    0    0    0 -0.00000000000E+00 -0.00000000000E+00 -0.45593999997E+02  0.45594000000E+02  0.51100000000E-03 0.  1.
    9900012    2    1    2    0    0 -0.60617580921E+01  0.20605409783E+02 -0.23566765099E+02  0.59301949120E+02  0.50000009288E+02 0.  0.
         12    1    1    2    0    0  0.60617580921E+01 -0.20605409783E+02  0.23566765099E+02  0.31886050880E+02  0.00000000000E+00 0. -1.
         11    1    3    3    0    0 -0.45933756518E+00 -0.24625679711E+01  0.11219071281E+02  0.11495337868E+02  0.51100000000E-03 0. -1.
        -11    1    3    3    0    0 -0.26080340059E+01  0.11312953797E+02 -0.70469527068E+00  0.11631051572E+02  0.51100000000E-03 0.  1.
         12    1    3    3    0    0 -0.29943865210E+01  0.11755023956E+02 -0.34081141110E+02  0.36175559680E+02  0.00000000000E+00 0. -1.
</event>
<event>
 7    1  0.6061051E-012  0.5930195E+02  0.7816164E-02  0.1266605E+00
        -11   -1    0    0    0    0  0.00000000000E+00  0.00000000000E+00  0.45593999997E+02  0.45594000000E+02  0.51100000000E-03 0. -1.
         11   -1    0    0    0    0 -0.00000000000E+00 -0.00000000000E+00 -0.45593999997E+02  0.45594000000E+02  0.51100000000E-03 0.  1.
    9900012    2    1    2    0    0 -0.29442021551E+02 -0.28481524717E+01 -0.11906962718E+02  0.59301947145E+02  0.50000005685E+02 0.  0.
         12    1    1    2    0    0  0.29442021551E+02  0.28481524717E+01  0.11906962718E+02  0.31886052855E+02  0.00000000000E+00 0. -1.
         11    1    3    3    0    0 -0.25571710024E+01 -0.21806675419E+01 -0.53848538070E+01  0.63475259155E+01  0.51100000000E-03 0. -1.
        -11    1    3    3    0    0 -0.35471856269E+02 -0.10052888499E+02 -0.12457923600E+02  0.38916744661E+02  0.51100000000E-03 0.  1.
         12    1    3    3    0    0  0.85870057204E+01  0.93854035693E+01  0.59358146897E+01  0.14037676568E+02  0.00000000000E+00 0. -1.
</event>
<event>
 7    1  0.6061051E-012  0.5930201E+02  0.7816164E-02  0.1266605E+00
        -11   -1    0    0    0    0  0.00000000000E+00  0.00000000000E+00  0.45593999997E+02  0.45594000000E+02  0.51100000000E-03 0.  1.
         11   -1    0    0    0    0 -0.00000000000E+00 -0.00000000000E+00 -0.45593999997E+02  0.45594000000E+02  0.51100000000E-03 0. -1.
    9900012    2    1    2    0    0  0.66844211689E+01  0.25111687701E+02  0.18478039381E+02  0.59302011151E+02  0.50000122416E+02 0.  0.
         12    1    1    2    0    0 -0.66844211689E+01 -0.25111687701E+02 -0.18478039381E+02  0.31885988849E+02  0.00000000000E+00 0. -1.
         11    1    3    3    0    0  0.13961028760E+02  0.20812837283E+02  0.10440989371E+02  0.27149563148E+02  0.51100000000E-03 0. -1.
        -11    1    3    3    0    0 -0.58124710063E+00  0.14087018659E+02  0.13111475874E+02  0.19253382631E+02  0.51100000000E-03 0.  1.
         12    1    3    3    0    0 -0.66953604904E+01 -0.97881682411E+01 -0.50744258643E+01  0.12899065372E+02  0.00000000000E+00 0. -1.
</event>
<event>
 7    1  0.6061051E-012  0.5930194E+02  0.7816164E-02  0.1266605E+00
        -11   -1    0    0    0    0  0.00000000000E+00  0.00000000000E+00  0.45593999997E+02  0.45594000000E+02  0.51100000000E-03 0.  1.
         11   -1    0    0    0    0 -0.00000000000E+00 -0.00000000000E+00 -0.45593999997E+02  0.45594000000E+02  0.51100000000E-03 0. -1.
    9900012    2    1    2    0    0  0.24475393422E+01  0.88555186555E+01  0.30533754907E+02  0.59301939594E+02  0.49999991914E+02 0.  0.
         12    1    1    2    0    0 -0.24475393422E+01 -0.88555186555E+01 -0.30533754907E+02  0.31886060406E+02  0.00000000000E+00 0. -1.
         11    1    3    3    0    0  0.20884954151E+02 -0.70895276944E+01  0.16800819259E+02  0.27725624265E+02  0.51100000000E-03 0. -1.
        -11    1    3    3    0    0  0.20194394211E+01  0.37602102404E+01  0.40031803901E+00  0.42869069760E+01  0.51100000000E-03 0.  1.
         12    1    3    3    0    0 -0.20456854230E+02  0.12184836109E+02  0.13332617609E+02  0.27289408354E+02  0.00000000000E+00 0. -1.
</event>
<event>
 7    1  0.6061051E-012  0.5930192E+02  0.7816164E-02  0.1266605E+00
        -11   -1    0    0    0    0  0.00000000000E+00  0.00000000000E+00  0.45593999997E+02  0.45594000000E+02  0.51100000000E-03 0. -1.
         11   -1    0    0    0    0 -0.00000000000E+00 -0.00000000000E+00 -0.45593999997E+02  0.45594000000E+02  0.51100000000E-03 0.  1.
    9900012    2    1    2    0    0  0.14815371014E+02  0.25548493333E+02 -0.12020866373E+02  0.59301922188E+02  0.49999960170E+02 0.  0.
         12    1    1    2    0    0 -0.14815371014E+02 -0.25548493333E+02  0.12020866373E+02  0.31886077812E+02  0.00000000000E+00 0. -1.
         11    1    3    3    0    0  0.11737037528E+02  0.24626671017E+01 -0.27996143050E+01  0.12315056626E+02  0.51100000000E-03 0. -1.
        -11    1    3    3    0    0  0.38642973646E+01 -0.10454554807E+02 -0.74183046861E+01  0.13388866831E+02  0.51100000000E-03 0.  1.
         12    1    3    3    0    0 -0.78596387882E+00  0.33540381039E+02 -0.18029473816E+01  0.33597998731E+02  0.00000000000E+00 0. -1.
</event>
<event>
 7    1  0.6061051E-012  0.5930195E+02  0.7816164E-02  0.1266605E+00
        -11   -1    0    0    0    0  0.00000000000E+00  0.00000000000E+00  0.45593999997E+02  0.45594000000E+02  0.51100000000E-03 0.  1.
         11   -1    0    0    0    0 -0.00000000000E+00 -0.00000000000E+00 -0.45593999997E+02  0.45594000000E+02  0.51100000000E-03 0. -1.
    9900012    2    1    2    0    0  0.50792471694E+01 -0.30714806055E+02  0.68936291901E+01  0.59301949975E+02  0.50000010846E+02 0.  0.
         12    1    1    2    0    0 -0.50792471694E+01  0.30714806055E+02 -0.68936291901E+01  0.31886050025E+02  0.00000000000E+00 0. -1.
         11    1    3    3    0    0  0.10925258822E+02 -0.60767703925E+01 -0.10789788396E+02  0.16513871522E+02  0.51100000000E-03 0. -1.
        -11    1    3    3    0    0  0.76323513043E+01 -0.24000409335E+02  0.13938445567E+02  0.28784591360E+02  0.51100000000E-03 0.  1.
         12    1    3    3    0    0 -0.13478362957E+02 -0.63762632778E+00  0.37449720190E+01  0.14003487093E+02  0.00000000000E+00 0. -1.
</event>
<event>
 7    1  0.6061051E-012  0.5930197E+02  0.7816164E-02  0.1266605E+00
        -11   -1    0    0    0    0  0.00000000000E+00  0.00000000000E+00  0.45593999997E+02  0.45594000000E+02  0.51100000000E-03 0.  1.
         11   -1    0    0    0    0 -0.00000000000E+00 -0.00000000000E+00 -0.45593999997E+02  0.45594000000E+02  0.51100000000E-03 0. -1.
    9900012    2    1    2    0    0 -0.35735377346E+01 -0.72797570302E+00  0.31676788047E+02  0.59301968238E+02  0.50000044153E+02 0.  0.
         12    1    1    2    0    0  0.35735377346E+01  0.72797570302E+00 -0.31676788047E+02  0.31886031762E+02  0.00000000000E+00 0. -1.
         11    1    3    3    0    0 -0.15637221603E+02  0.12725821880E+01  0.13442253341E+02  0.20660017910E+02  0.51100000000E-03 0. -1.
        -11    1    3    3    0    0  0.37039229042E+01 -0.11720085220E+02  0.22068703355E+02  0.25260782064E+02  0.51100000000E-03 0.  1.
        -12    1    3    3    0    0  0.83597609641E+01  0.97195273288E+01 -0.38341686492E+01  0.13381168264E+02  0.00000000000E+00 0.  1.
</event>
<event>
 7    1  0.6061051E-012  0.5930194E+02  0.7816164E-02  0.1266605E+00
        -11   -1    0    0    0    0  0.00000000000E+00  0.00000000000E+00  0.45593999997E+02  0.45594000000E+02  0.51100000000E-03 0.  1.
         11   -1    0    0    0    0 -0.00000000000E+00 -0.00000000000E+00 -0.45593999997E+02  0.45594000000E+02  0.51100000000E-03 0. -1.
    9900012    2    1    2    0    0  0.28358190505E+02 -0.40977640938E+01  0.13990786151E+02  0.59301941348E+02  0.49999995112E+02 0.  0.
         12    1    1    2    0    0 -0.28358190505E+02  0.40977640938E+01 -0.13990786151E+02  0.31886058652E+02  0.00000000000E+00 0. -1.
         11    1    3    3    0    0 -0.42965819797E+01 -0.12003524750E+02 -0.45564725160E+00  0.12757462044E+02  0.51100000000E-03 0. -1.
        -11    1    3    3    0    0 -0.10380590146E+01 -0.10663664776E+01 -0.59612750500E+01  0.61442252941E+01  0.51100000000E-03 0.  1.
        -12    1    3    3    0    0  0.33692831499E+02  0.89721271337E+01  0.20407708453E+02  0.40400254009E+02  0.00000000000E+00 0.  1.
</event>
<event>
 7    1  0.6061051E-012  0.5930194E+02  0.7816164E-02  0.1266605E+00
        -11   -1    0    0    0    0  0.00000000000E+00  0.00000000000E+00  0.45593999997E+02  0.45594000000E+02  0.51100000000E-03 0. -1.
         11   -1    0    0    0    0 -0.00000000000E+00 -0.00000000000E+00 -0.45593999997E+02  0.45594000000E+02  0.51100000000E-03 0.  1.
    9900012    2    1    2    0    0  0.27036523365E+02  0.15939731203E+02 -0.56277887348E+01  0.59301942976E+02  0.49999998082E+02 0.  0.
         12    1    1    2    0    0 -0.27036523365E+02 -0.15939731203E+02  0.56277887348E+01  0.31886057024E+02  0.00000000000E+00 0. -1.
         11    1    3    3    0    0  0.17860074861E+02  0.14999204869E+02 -0.14404441911E+01  0.23367355445E+02  0.51100000000E-03 0. -1.
        -11    1    3    3    0    0  0.17086156441E+02  0.96140739144E+01 -0.10880271863E+02  0.22422031024E+02  0.51100000000E-03 0.  1.
        -12    1    3    3    0    0 -0.79097079373E+01 -0.86735475799E+01  0.66929273197E+01  0.13512556508E+02  0.00000000000E+00 0.  1.
</event>
<event>
 7    1  0.6061051E-012  0.5930194E+02  0.7816164E-02  0.1266605E+00
        -11   -1    0    0    0    0  0.00000000000E+00  0.00000000000E+00  0.45593999997E+02  0.45594000000E+02  0.51100000000E-03 0. -1.
         11   -1    0    0    0    0 -0.00000000000E+00 -0.00000000000E+00 -0.45593999997E+02  0.45594000000E+02  0.51100000000E-03 0.  1.
    9900012    2    1    2    0    0  0.11378774183E+02 -0.20749584502E+02 -0.21370512591E+02  0.59301943999E+02  0.49999999947E+02 0.  0.
         12    1    1    2    0    0 -0.11378774183E+02  0.20749584502E+02  0.21370512591E+02  0.31886056001E+02  0.00000000000E+00 0. -1.
         11    1    3    3    0    0  0.10189117351E+02  0.13537374287E+01  0.66775462232E+01  0.12257256677E+02  0.51100000000E-03 0. -1.
        -11    1    3    3    0    0 -0.11966340003E+02  0.61250604040E-01 -0.80622527821E+01  0.14429032015E+02  0.51100000000E-03 0.  1.
        -12    1    3    3    0    0  0.13155996834E+02 -0.22164572535E+02 -0.19985806032E+02  0.32615655307E+02  0.00000000000E+00 0.  1.
</event>
<event>
 7    1  0.6061051E-012  0.5930195E+02  0.7816164E-02  0.1266605E+00
        -11   -1    0    0    0    0  0.00000000000E+00  0.00000000000E+00  0.45593999997E+02  0.45594000000E+02  0.51100000000E-03 0.  1.
         11   -1    0    0    0    0 -0.00000000000E+00 -0.00000000000E+00 -0.45593999997E+02  0.45594000000E+02  0.51100000000E-03 0. -1.
    9900012    2    1    2    0    0  0.64610961702E+01  0.29119684326E+02 -0.11270238614E+02  0.59301951995E+02  0.50000014531E+02 0.  0.
         12    1    1    2    0    0 -0.64610961702E+01 -0.29119684326E+02  0.11270238614E+02  0.31886048005E+02  0.00000000000E+00 0. -1.
         11    1    3    3    0    0 -0.39594725449E+01  0.15362403917E+02  0.21746493163E+01  0.16012806651E+02  0.51100000000E-03 0. -1.
        -11    1    3    3    0    0  0.15877699686E+00  0.25103334784E+02 -0.43101642777E+01  0.25471162984E+02  0.51100000000E-03 0.  1.
         12    1    3    3    0    0  0.10261791718E+02 -0.11346054375E+02 -0.91347236531E+01  0.17817982360E+02  0.00000000000E+00 0. -1.
</event>
<event>
 7    1  0.6061051E-012  0.5930193E+02  0.7816164E-02  0.1266605E+00
        -11   -1    0    0    0    0  0.00000000000E+00  0.00000000000E+00  0.45593999997E+02  0.45594000000E+02  0.51100000000E-03 0. -1.
         11   -1    0    0    0    0 -0.00000000000E+00 -0.00000000000E+00 -0.45593999997E+02  0.45594000000E+02  0.51100000000E-03 0.  1.
    9900012    2    1    2    0    0  0.44294751785E+01  0.31464084542E+02 -0.26669760039E+01  0.59301927375E+02  0.49999969630E+02 0.  0.
         12    1    1    2    0    0 -0.44294751785E+01 -0.31464084542E+02  0.26669760039E+01  0.31886072625E+02  0.00000000000E+00 0. -1.
         11    1    3    3    0    0 -0.14189693561E+01  0.25393773717E+02 -0.86156781512E+01  0.26853065521E+02  0.51100000000E-03 0. -1.
        -11    1    3    3    0    0  0.56069266514E+01  0.18228337507E+02  0.68281146866E+01  0.20256679520E+02  0.51100000000E-03 0.  1.
         12    1    3    3    0    0  0.24151788326E+00 -0.12158026681E+02 -0.87941253931E+00  0.12192182335E+02  0.00000000000E+00 0. -1.
</event>
<event>
 7    1  0.6061051E-012  0.5930182E+02  0.7816164E-02  0.1266605E+00
        -11   -1    0    0    0    0  0.00000000000E+00  0.00000000000E+00  0.45593999997E+02  0.45594000000E+02  0.51100000000E-03 0. -1.
         11   -1    0    0    0    0 -0.00000000000E+00 -0.00000000000E+00 -0.45593999997E+02  0.45594000000E+02  0.51100000000E-03 0.  1.
    9900012    2    1    2    0    0  0.24074805149E+02 -0.13078149885E+02 -0.16312392416E+02  0.59301821274E+02  0.49999776126E+02 0.  0.
         12    1    1    2    0    0 -0.24074805149E+02  0.13078149885E+02  0.16312392416E+02  0.31886178726E+02  0.00000000000E+00 0. -1.
         11    1    3    3    0    0 -0.78846444404E+00  0.59803112971E+01  0.64870281074E+01  0.88581788940E+01  0.51100000000E-03 0. -1.
        -11    1    3    3    0    0 -0.43195423984E+01 -0.48116218339E+01  0.46155140224E+01  0.79443767003E+01  0.51100000000E-03 0.  1.
        -12    1    3    3    0    0  0.29182811992E+02 -0.14246839349E+02 -0.27414934546E+02  0.42499265680E+02  0.00000000000E+00 0.  1.
</event>
<event>
 7    1  0.6061051E-012  0.5930209E+02  0.7816164E-02  0.1266604E+00
        -11   -1    0    0    0    0  0.00000000000E+00  0.00000000000E+00  0.45593999997E+02  0.45594000000E+02  0.51100000000E-03 0. -1.
         11   -1    0    0    0    0 -0.00000000000E+00 -0.00000000000E+00 -0.45593999997E+02  0.45594000000E+02  0.51100000000E-03 0.  1.
    9900012    2    1    2    0    0 -0.31519011142E+02  0.18622635868E+01 -0.44492009779E+01  0.59302086521E+02  0.50000259873E+02 0.  0.
         12    1    1    2    0    0  0.31519011142E+02 -0.18622635868E+01  0.44492009779E+01  0.31885913479E+02  0.00000000000E+00 0. -1.
         11    1    3    3    0    0  0.34269607232E+01 -0.57845405295E+01 -0.27940529436E+01  0.72809134763E+01  0.51100000000E-03 0. -1.
        -11    1    3    3    0    0 -0.22501419464E+02 -0.48091603756E+01 -0.17045663074E+02  0.28635581560E+02  0.51100000000E-03 0.  1.
        -12    1    3    3    0    0 -0.12444552401E+02  0.12455964492E+02  0.15390515039E+02  0.23385591484E+02  0.00000000000E+00 0.  1.
</event>
<event>
 7    1  0.6061051E-012  0.5930192E+02  0.7816164E-02  0.1266605E+00
        -11   -1    0    0    0    0  0.00000000000E+00  0.00000000000E+00  0.45593999997E+02  0.45594000000E+02  0.51100000000E-03 0.  1.
         11   -1    0    0    0    0 -0.00000000000E+00 -0.00000000000E+00 -0.45593999997E+02  0.45594000000E+02  0.51100000000E-03 0. -1.
    9900012    2    1    2    0    0  0.30371056291E+02  0.93372935616E+01  0.26713821354E+01  0.59301915358E+02  0.49999947713E+02 0.  0.
         12    1    1    2    0    0 -0.30371056291E+02 -0.93372935616E+01 -0.26713821354E+01  0.31886084642E+02  0.00000000000E+00 0. -1.
         11    1    3    3    0    0  0.11186331954E+02  0.25870590188E+01  0.28776045164E+01  0.11836701608E+02  0.51100000000E-03 0. -1.
        -11    1    3    3    0    0 -0.11675304427E+02  0.11217768544E+02 -0.14716104049E+01  0.16257819719E+02  0.51100000000E-03 0.  1.
         12    1    3    3    0    0  0.30860028763E+02 -0.44675340018E+01  0.12653880239E+01  0.31207394031E+02  0.00000000000E+00 0. -1.
</event>
<event>
 7    1  0.6061051E-012  0.5930223E+02  0.7816164E-02  0.1266604E+00
        -11   -1    0    0    0    0  0.00000000000E+00  0.00000000000E+00  0.45593999997E+02  0.45594000000E+02  0.51100000000E-03 0. -1.
         11   -1    0    0    0    0 -0.00000000000E+00 -0.00000000000E+00 -0.45593999997E+02  0.45594000000E+02  0.51100000000E-03 0.  1.
    9900012    2    1    2    0    0  0.73974741547E+01  0.29650187968E+02 -0.91019763675E+01  0.59302231322E+02  0.50000523953E+02 0.  0.
         12    1    1    2    0    0 -0.73974741547E+01 -0.29650187968E+02  0.91019763675E+01  0.31885768678E+02  0.00000000000E+00 0. -1.
         11    1    3    3    0    0 -0.46551726003E+01  0.71137514155E+01  0.74407385191E+01  0.11297817538E+02  0.51100000000E-03 0. -1.
        -11    1    3    3    0    0 -0.34215826095E+00  0.30384518501E+02 -0.11552994024E+02  0.32508578991E+02  0.51100000000E-03 0.  1.
        -12    1    3    3    0    0  0.12394805016E+02 -0.78480819491E+01 -0.49897208626E+01  0.15495834794E+02  0.00000000000E+00 0.  1.
</event>
<event>
 7    1  0.6061051E-012  0.5930194E+02  0.7816164E-02  0.1266605E+00
        -11   -1    0    0    0    0  0.00000000000E+00  0.00000000000E+00  0.45593999997E+02  0.45594000000E+02  0.51100000000E-03 0. -1.
         11   -1    0    0    0    0 -0.00000000000E+00 -0.00000000000E+00 -0.45593999997E+02  0.45594000000E+02  0.51100000000E-03 0.  1.
    9900012    2    1    2    0    0 -0.30590029404E+02 -0.55582977870E+01 -0.70764358207E+01  0.59301944786E+02  0.50000001382E+02 0.  0.
         12    1    1    2    0    0  0.30590029404E+02  0.55582977870E+01  0.70764358207E+01  0.31886055214E+02  0.00000000000E+00 0. -1.
         11    1    3    3    0    0  0.21246513611E+01  0.29485290830E+01  0.21943021595E+01  0.42453420814E+01  0.51100000000E-03 0. -1.
        -11    1    3    3    0    0 -0.22707719275E+02  0.15774892938E+02 -0.79094253611E+01  0.28758420883E+02  0.51100000000E-03 0.  1.
        -12    1    3    3    0    0 -0.10006961490E+02 -0.24281719808E+02 -0.13613126191E+01  0.26298181821E+02  0.00000000000E+00 0.  1.
</event>
<event>
 7    1  0.6061051E-012  0.5930193E+02  0.7816164E-02  0.1266605E+00
        -11   -1    0    0    0    0  0.00000000000E+00  0.00000000000E+00  0.45593999997E+02  0.45594000000E+02  0.51100000000E-03 0. -1.
         11   -1    0    0    0    0 -0.00000000000E+00 -0.00000000000E+00 -0.45593999997E+02  0.45594000000E+02  0.51100000000E-03 0.  1.
    9900012    2    1    2    0    0 -0.14176316363E+02 -0.58650595020E+01 -0.27952723566E+02  0.59301927439E+02  0.49999969746E+02 0.  0.
         12    1    1    2    0    0  0.14176316363E+02  0.58650595020E+01  0.27952723566E+02  0.31886072561E+02  0.00000000000E+00 0. -1.
         11    1    3    3    0    0 -0.11671064716E+02 -0.93378587087E+01 -0.89094142841E+01  0.17400776420E+02  0.51100000000E-03 0.  1.
        -11    1    3    3    0    0  0.31441732931E+01 -0.16617279692E+01  0.10657362073E+02  0.11235058173E+02  0.51100000000E-03 0. -1.
         12    1    3    3    0    0 -0.56494249397E+01  0.51345271759E+01 -0.29700671355E+02  0.30666092846E+02  0.00000000000E+00 0. -1.
</event>
<event>
 7    1  0.6061051E-012  0.5930201E+02  0.7816164E-02  0.1266605E+00
        -11   -1    0    0    0    0  0.00000000000E+00  0.00000000000E+00  0.45593999997E+02  0.45594000000E+02  0.51100000000E-03 0.  1.
         11   -1    0    0    0    0 -0.00000000000E+00 -0.00000000000E+00 -0.45593999997E+02  0.45594000000E+02  0.51100000000E-03 0. -1.
    9900012    2    1    2    0    0 -0.13298542858E+02  0.24939337149E+02  0.14761243157E+02  0.59302014378E+02  0.50000128302E+02 0.  0.
         12    1    1    2    0    0  0.13298542858E+02 -0.24939337149E+02 -0.14761243157E+02  0.31885985622E+02  0.00000000000E+00 0. -1.
         11    1    3    3    0    0  0.51960842499E+01  0.10502431924E+02 -0.62456730845E+00  0.11734157509E+02  0.51100000000E-03 0. -1.
        -11    1    3    3    0    0  0.90383390642E+01 -0.43366661318E+01 -0.16203947906E+01  0.10154995112E+02  0.51100000000E-03 0.  1.
        -12    1    3    3    0    0 -0.27532966172E+02  0.18773571357E+02  0.17006205256E+02  0.37412861758E+02  0.00000000000E+00 0.  1.
</event>
<event>
 7    1  0.6061051E-012  0.5930194E+02  0.7816164E-02  0.1266605E+00
        -11   -1    0    0    0    0  0.00000000000E+00  0.00000000000E+00  0.45593999997E+02  0.45594000000E+02  0.51100000000E-03 0.  1.
         11   -1    0    0    0    0 -0.00000000000E+00 -0.00000000000E+00 -0.45593999997E+02  0.45594000000E+02  0.51100000000E-03 0. -1.
    9900012    2    1    2    0    0 -0.18174930673E+02 -0.24168986180E+02 -0.10112015118E+02  0.59301939602E+02  0.49999991929E+02 0.  0.
         12    1    1    2    0    0  0.18174930673E+02  0.24168986180E+02  0.10112015118E+02  0.31886060398E+02  0.00000000000E+00 0. -1.
         11    1    3    3    0    0 -0.16389217061E+02 -0.10565592735E+02 -0.31790709287E+00  0.19502288350E+02  0.51100000000E-03 0. -1.
        -11    1    3    3    0    0  0.25835018841E+01 -0.22814327181E+02  0.33094300437E+01  0.23197420852E+02  0.51100000000E-03 0.  1.
        -12    1    3    3    0    0 -0.43692154964E+01  0.92109337360E+01 -0.13103538068E+02  0.16602230400E+02  0.00000000000E+00 0.  1.
</event>
<event>
 7    1  0.6061051E-012  0.5930191E+02  0.7816164E-02  0.1266605E+00
        -11   -1    0    0    0    0  0.00000000000E+00  0.00000000000E+00  0.45593999997E+02  0.45594000000E+02  0.51100000000E-03 0.  1.
         11   -1    0    0    0    0 -0.00000000000E+00 -0.00000000000E+00 -0.45593999997E+02  0.45594000000E+02  0.51100000000E-03 0. -1.
    9900012    2    1    2    0    0 -0.73299032630E+01  0.16264934219E+02  0.26428151159E+02  0.59301909919E+02  0.49999937793E+02 0.  0.
         12    1    1    2    0    0  0.73299032630E+01 -0.16264934219E+02 -0.26428151159E+02  0.31886090081E+02  0.00000000000E+00 0. -1.
         11    1    3    3    0    0 -0.42262840521E+01  0.58264596104E+01  0.50500281696E+00  0.72155482527E+01  0.51100000000E-03 0. -1.
        -11    1    3    3    0    0  0.82340675964E+01  0.14997609777E+02  0.33564675171E+02  0.37673805061E+02  0.51100000000E-03 0.  1.
         12    1    3    3    0    0 -0.11337686807E+02 -0.45591351676E+01 -0.76415268291E+01  0.14412556605E+02  0.00000000000E+00 0. -1.
</event>
<event>
 7    1  0.6061051E-012  0.5930198E+02  0.7816164E-02  0.1266605E+00
        -11   -1    0    0    0    0  0.00000000000E+00  0.00000000000E+00  0.45593999997E+02  0.45594000000E+02  0.51100000000E-03 0. -1.
         11   -1    0    0    0    0 -0.00000000000E+00 -0.00000000000E+00 -0.45593999997E+02  0.45594000000E+02  0.51100000000E-03 0.  1.
    9900012    2    1    2    0    0  0.12605656954E+02 -0.14022418519E+02 -0.25713561294E+02  0.59301983586E+02  0.50000072144E+02 0.  0.
         12    1    1    2    0    0 -0.12605656954E+02  0.14022418519E+02  0.25713561294E+02  0.31886016414E+02  0.00000000000E+00 0. -1.
         11    1    3    3    0    0 -0.67120289419E+01 -0.71654472620E+01 -0.49138957905E+01  0.10979131982E+02  0.51100000000E-03 0. -1.
        -11    1    3    3    0    0  0.12883893359E+02 -0.87376237237E+01  0.88621532977E+01  0.17913082866E+02  0.51100000000E-03 0.  1.
        -12    1    3    3    0    0  0.64337925363E+01  0.18806524664E+01 -0.29661818801E+02  0.30409768738E+02  0.00000000000E+00 0.  1.
</event>
<event>
 7    1  0.6061051E-012  0.5930198E+02  0.7816164E-02  0.1266605E+00
        -11   -1    0    0    0    0  0.00000000000E+00  0.00000000000E+00  0.45593999997E+02  0.45594000000E+02  0.51100000000E-03 0.  1.
         11   -1    0    0    0    0 -0.00000000000E+00 -0.00000000000E+00 -0.45593999997E+02  0.45594000000E+02  0.51100000000E-03 0. -1.
    9900012    2    1    2    0    0 -0.21661227644E+02  0.22378092879E+02  0.68359741312E+01  0.59301978513E+02  0.50000062893E+02 0.  0.
         12    1    1    2    0    0  0.21661227644E+02 -0.22378092879E+02 -0.68359741312E+01  0.31886021487E+02  0.00000000000E+00 0. -1.
         11    1    3    3    0    0 -0.13003141524E+02  0.71080758361E+01 -0.12776469934E+02  0.19566415508E+02  0.51100000000E-03 0. -1.
        -11    1    3    3    0    0  0.24216835562E+01 -0.53339258440E+01 -0.35213562393E+01  0.68348567052E+01  0.51100000000E-03 0.  1.
         12    1    3    3    0    0 -0.11079769676E+02  0.20603942887E+02  0.23133800304E+02  0.32900706300E+02  0.00000000000E+00 0. -1.
</event>
<event>
 7    1  0.6061051E-012  0.5930192E+02  0.7816164E-02  0.1266605E+00
        -11   -1    0    0    0    0  0.00000000000E+00  0.00000000000E+00  0.45593999997E+02  0.45594000000E+02  0.51100000000E-03 0. -1.
         11   -1    0    0    0    0 -0.00000000000E+00 -0.00000000000E+00 -0.45593999997E+02  0.45594000000E+02  0.51100000000E-03 0.  1.
    9900012    2    1    2    0    0 -0.30736082180E+02 -0.70672387843E+01 -0.46978189513E+01  0.59301919734E+02  0.49999955695E+02 0.  0.
         12    1    1    2    0    0  0.30736082180E+02  0.70672387843E+01  0.46978189513E+01  0.31886080266E+02  0.00000000000E+00 0. -1.
         11    1    3    3    0    0 -0.28474131753E+02  0.13851889580E+02 -0.74425770508E+01  0.32527572572E+02  0.51100000000E-03 0. -1.
        -11    1    3    3    0    0  0.46669455722E+01 -0.43585125049E+01  0.57257959754E+01  0.85768147958E+01  0.51100000000E-03 0.  1.
         12    1    3    3    0    0 -0.69288959993E+01 -0.16560615859E+02 -0.29810378759E+01  0.18197532367E+02  0.00000000000E+00 0. -1.
</event>
<event>
 7    1  0.6061051E-012  0.5930194E+02  0.7816164E-02  0.1266605E+00
        -11   -1    0    0    0    0  0.00000000000E+00  0.00000000000E+00  0.45593999997E+02  0.45594000000E+02  0.51100000000E-03 0.  1.
         11   -1    0    0    0    0 -0.00000000000E+00 -0.00000000000E+00 -0.45593999997E+02  0.45594000000E+02  0.51100000000E-03 0. -1.
    9900012    2    1    2    0    0  0.23695451327E+02 -0.13287471841E+01  0.21295091217E+02  0.59301938898E+02  0.49999990644E+02 0.  0.
         12    1    1    2    0    0 -0.23695451327E+02  0.13287471841E+01 -0.21295091217E+02  0.31886061102E+02  0.00000000000E+00 0. -1.
         11    1    3    3    0    0 -0.69897985171E+01 -0.11526310250E+01  0.99352566184E+00  0.71535260600E+01  0.51100000000E-03 0. -1.
        -11    1    3    3    0    0  0.16846822008E+01 -0.11068897289E+02 -0.48920155966E+01  0.12218447453E+02  0.51100000000E-03 0.  1.
         12    1    3    3    0    0  0.29000567643E+02  0.10892781130E+02  0.25193581152E+02  0.39929965385E+02  0.00000000000E+00 0. -1.
</event>
<event>
 7    1  0.6061051E-012  0.5930195E+02  0.7816164E-02  0.1266605E+00
        -11   -1    0    0    0    0  0.00000000000E+00  0.00000000000E+00  0.45593999997E+02  0.45594000000E+02  0.51100000000E-03 0. -1.
         11   -1    0    0    0    0 -0.00000000000E+00 -0.00000000000E+00 -0.45593999997E+02  0.45594000000E+02  0.51100000000E-03 0.  1.
    9900012    2    1    2    0    0  0.65446150316E+01  0.28800591241E+02 -0.12017248574E+02  0.59301948112E+02  0.50000007449E+02 0.  0.
         12    1    1    2    0    0 -0.65446150316E+01 -0.28800591241E+02  0.12017248574E+02  0.31886051888E+02  0.00000000000E+00 0. -1.
         11    1    3    3    0    0  0.85132819085E+01  0.10467215222E+01  0.84288009877E+01  0.12025650966E+02  0.51100000000E-03 0. -1.
        -11    1    3    3    0    0 -0.98790503537E+01  0.35666091151E+01  0.46941593963E+01  0.11504410857E+02  0.51100000000E-03 0.  1.
        -12    1    3    3    0    0  0.79103834767E+01  0.24187260603E+02 -0.25140208958E+02  0.35771886289E+02  0.00000000000E+00 0.  1.
</event>
<event>
 7    1  0.6061051E-012  0.5930196E+02  0.7816164E-02  0.1266605E+00
        -11   -1    0    0    0    0  0.00000000000E+00  0.00000000000E+00  0.45593999997E+02  0.45594000000E+02  0.51100000000E-03 0.  1.
         11   -1    0    0    0    0 -0.00000000000E+00 -0.00000000000E+00 -0.45593999997E+02  0.45594000000E+02  0.51100000000E-03 0. -1.
    9900012    2    1    2    0    0 -0.19883886190E+02 -0.24850977067E+02  0.19441416264E+01  0.59301957946E+02  0.50000025383E+02 0.  0.
         12    1    1    2    0    0  0.19883886190E+02  0.24850977067E+02 -0.19441416264E+01  0.31886042054E+02  0.00000000000E+00 0. -1.
         11    1    3    3    0    0  0.41572867072E+01  0.24245338609E+01  0.16272240146E+01  0.50802810417E+01  0.51100000000E-03 0. -1.
        -11    1    3    3    0    0 -0.13472679535E+02 -0.35851839151E+02 -0.67434888353E+01  0.38888842954E+02  0.51100000000E-03 0.  1.
         12    1    3    3    0    0 -0.10568493363E+02  0.85763282231E+01  0.70604064470E+01  0.15332833950E+02  0.00000000000E+00 0. -1.
</event>
<event>
 7    1  0.6061051E-012  0.5930193E+02  0.7816164E-02  0.1266605E+00
        -11   -1    0    0    0    0  0.00000000000E+00  0.00000000000E+00  0.45593999997E+02  0.45594000000E+02  0.51100000000E-03 0.  1.
         11   -1    0    0    0    0 -0.00000000000E+00 -0.00000000000E+00 -0.45593999997E+02  0.45594000000E+02  0.51100000000E-03 0. -1.
    9900012    2    1    2    0    0  0.10240696674E+02 -0.57390944152E+01  0.29646452440E+02  0.59301933837E+02  0.49999981415E+02 0.  0.
         12    1    1    2    0    0 -0.10240696674E+02  0.57390944152E+01 -0.29646452440E+02  0.31886066163E+02  0.00000000000E+00 0. -1.
         11    1    3    3    0    0  0.22614861883E+02 -0.66008670603E+01  0.16626173298E+02  0.28834581022E+02  0.51100000000E-03 0. -1.
        -11    1    3    3    0    0  0.55995450572E+01  0.64024643666E+01  0.22694146955E+01  0.88032208954E+01  0.51100000000E-03 0.  1.
         12    1    3    3    0    0 -0.17973710267E+02 -0.55406917215E+01  0.10750864446E+02  0.21664131920E+02  0.00000000000E+00 0. -1.
</event>
<event>
 7    1  0.6061051E-012  0.5930194E+02  0.7816164E-02  0.1266605E+00
        -11   -1    0    0    0    0  0.00000000000E+00  0.00000000000E+00  0.45593999997E+02  0.45594000000E+02  0.51100000000E-03 0.  1.
         11   -1    0    0    0    0 -0.00000000000E+00 -0.00000000000E+00 -0.45593999997E+02  0.45594000000E+02  0.51100000000E-03 0. -1.
    9900012    2    1    2    0    0 -0.26170545359E+02 -0.86182606269E+01  0.16048336893E+02  0.59301937565E+02  0.49999988213E+02 0.  0.
         12    1    1    2    0    0  0.26170545359E+02  0.86182606269E+01 -0.16048336893E+02  0.31886062435E+02  0.00000000000E+00 0. -1.
         11    1    3    3    0    0 -0.22005057503E+02  0.38304282674E+01  0.18839952673E+02  0.29220515967E+02  0.51100000000E-03 0. -1.
        -11    1    3    3    0    0 -0.46225656650E+01  0.71564148890E+01  0.38877820691E+01  0.93646802971E+01  0.51100000000E-03 0.  1.
         12    1    3    3    0    0  0.45707780896E+00 -0.19605103783E+02 -0.66793978494E+01  0.20716741300E+02  0.00000000000E+00 0. -1.
</event>
<event>
 7    1  0.6061051E-012  0.5930196E+02  0.7816164E-02  0.1266605E+00
        -11   -1    0    0    0    0  0.00000000000E+00  0.00000000000E+00  0.45593999997E+02  0.45594000000E+02  0.51100000000E-03 0.  1.
         11   -1    0    0    0    0 -0.00000000000E+00 -0.00000000000E+00 -0.45593999997E+02  0.45594000000E+02  0.51100000000E-03 0. -1.
    9900012    2    1    2    0    0 -0.21467497747E+02  0.14593418817E+02  0.18517508506E+02  0.59301961463E+02  0.50000031798E+02 0.  0.
         12    1    1    2    0    0  0.21467497747E+02 -0.14593418817E+02 -0.18517508506E+02  0.31886038537E+02  0.00000000000E+00 0. -1.
         11    1    3    3    0    0 -0.10245518532E+02  0.12820994566E+02  0.16360024712E+02  0.23173238023E+02  0.51100000000E-03 0. -1.
        -11    1    3    3    0    0  0.85481669395E+01  0.13482600254E+01  0.11390285684E+02  0.14304809378E+02  0.51100000000E-03 0.  1.
         12    1    3    3    0    0 -0.19770146155E+02  0.42416422637E+00 -0.92328018894E+01  0.21823914062E+02  0.00000000000E+00 0. -1.
</event>
<event>
 7    1  0.6061051E-012  0.5930170E+02  0.7816164E-02  0.1266606E+00
        -11   -1    0    0    0    0  0.00000000000E+00  0.00000000000E+00  0.45593999997E+02  0.45594000000E+02  0.51100000000E-03 0.  1.
         11   -1    0    0    0    0 -0.00000000000E+00 -0.00000000000E+00 -0.45593999997E+02  0.45594000000E+02  0.51100000000E-03 0. -1.
    9900012    2    1    2    0    0  0.82525432317E+00 -0.83958479193E+01  0.30750035372E+02  0.59301702279E+02  0.49999559107E+02 0.  0.
         12    1    1    2    0    0 -0.82525432317E+00  0.83958479193E+01 -0.30750035372E+02  0.31886297721E+02  0.00000000000E+00 0. -1.
         11    1    3    3    0    0  0.27548210581E+01  0.47817848430E+01  0.10400742298E+02  0.11774121876E+02  0.51100000000E-03 0. -1.
        -11    1    3    3    0    0  0.46225773497E+01  0.83092924942E+01  0.23019210322E+02  0.24905754500E+02  0.51100000000E-03 0.  1.
         12    1    3    3    0    0 -0.65521440847E+01 -0.21486925256E+02 -0.26699172479E+01  0.22621825903E+02  0.00000000000E+00 0. -1.
</event>
<event>
 7    1  0.6061051E-012  0.5930197E+02  0.7816164E-02  0.1266605E+00
        -11   -1    0    0    0    0  0.00000000000E+00  0.00000000000E+00  0.45593999997E+02  0.45594000000E+02  0.51100000000E-03 0. -1.
         11   -1    0    0    0    0 -0.00000000000E+00 -0.00000000000E+00 -0.45593999997E+02  0.45594000000E+02  0.51100000000E-03 0.  1.
    9900012    2    1    2    0    0  0.25071340433E+02 -0.19179519208E+02  0.45047840319E+01  0.59301966265E+02  0.50000040556E+02 0.  0.
         12    1    1    2    0    0 -0.25071340433E+02  0.19179519208E+02 -0.45047840319E+01  0.31886033735E+02  0.00000000000E+00 0. -1.
         11    1    3    3    0    0  0.15075024155E+01  0.47390384408E+01  0.10539991053E+02  0.11654289362E+02  0.51100000000E-03 0. -1.
        -11    1    3    3    0    0 -0.30197223228E+01  0.57382165959E+01 -0.43042494939E+01  0.77828283146E+01  0.51100000000E-03 0.  1.
         12    1    3    3    0    0  0.26583560340E+02 -0.29656774245E+02 -0.17309575276E+01  0.39864848588E+02  0.00000000000E+00 0. -1.
</event>
<event>
 7    1  0.6061051E-012  0.5930194E+02  0.7816164E-02  0.1266605E+00
        -11   -1    0    0    0    0  0.00000000000E+00  0.00000000000E+00  0.45593999997E+02  0.45594000000E+02  0.51100000000E-03 0. -1.
         11   -1    0    0    0    0 -0.00000000000E+00 -0.00000000000E+00 -0.45593999997E+02  0.45594000000E+02  0.51100000000E-03 0.  1.
    9900012    2    1    2    0    0  0.29939120347E+02  0.54202277988E+01  0.95389082969E+01  0.59301943987E+02  0.49999999926E+02 0.  0.
         12    1    1    2    0    0 -0.29939120347E+02 -0.54202277988E+01 -0.95389082969E+01  0.31886056013E+02  0.00000000000E+00 0. -1.
         11    1    3    3    0    0  0.21632946638E+02  0.60225846360E+01 -0.34151254220E+01  0.22713850133E+02  0.51100000000E-03 0. -1.
        -11    1    3    3    0    0  0.14594952955E+02 -0.13489147722E+02  0.72186157136E+01  0.21144223115E+02  0.51100000000E-03 0.  1.
         12    1    3    3    0    0 -0.62887792464E+01  0.12886790885E+02  0.57354180053E+01  0.15443870740E+02  0.00000000000E+00 0. -1.
</event>
<event>
 7    1  0.6061051E-012  0.5930194E+02  0.7816164E-02  0.1266605E+00
        -11   -1    0    0    0    0  0.00000000000E+00  0.00000000000E+00  0.45593999997E+02  0.45594000000E+02  0.51100000000E-03 0. -1.
         11   -1    0    0    0    0 -0.00000000000E+00 -0.00000000000E+00 -0.45593999997E+02  0.45594000000E+02  0.51100000000E-03 0.  1.
    9900012    2    1    2    0    0 -0.55850601017E+01 -0.19860418972E+02 -0.24312377042E+02  0.59301940107E+02  0.49999992849E+02 0.  0.
         12    1    1    2    0    0  0.55850601017E+01  0.19860418972E+02  0.24312377042E+02  0.31886059893E+02  0.00000000000E+00 0. -1.
         11    1    3    3    0    0  0.12498097518E+02 -0.11834372177E+02 -0.22572141966E+02  0.28385848580E+02  0.51100000000E-03 0.  1.
        -11    1    3    3    0    0 -0.68642580092E+01 -0.15752717735E+02 -0.19393689346E+01  0.17292406027E+02  0.51100000000E-03 0. -1.
         12    1    3    3    0    0 -0.11218899611E+02  0.77266709408E+01  0.19913385870E+00  0.13623685500E+02  0.00000000000E+00 0. -1.
</event>
<event>
 7    1  0.6061051E-012  0.5930193E+02  0.7816164E-02  0.1266605E+00
        -11   -1    0    0    0    0  0.00000000000E+00  0.00000000000E+00  0.45593999997E+02  0.45594000000E+02  0.51100000000E-03 0.  1.
         11   -1    0    0    0    0 -0.00000000000E+00 -0.00000000000E+00 -0.45593999997E+02  0.45594000000E+02  0.51100000000E-03 0. -1.
    9900012    2    1    2    0    0  0.78888926188E+01  0.28079590410E+02 -0.12885018446E+02  0.59301925850E+02  0.49999966848E+02 0.  0.
         12    1    1    2    0    0 -0.78888926188E+01 -0.28079590410E+02  0.12885018446E+02  0.31886074150E+02  0.00000000000E+00 0. -1.
         11    1    3    3    0    0  0.46877320087E+01 -0.69658337436E+01 -0.10905669228E+00  0.83969973653E+01  0.51100000000E-03 0. -1.
        -11    1    3    3    0    0 -0.39086707357E+01 -0.37676395237E+01  0.52242562637E+01  0.75342994546E+01  0.51100000000E-03 0.  1.
         12    1    3    3    0    0  0.71098313458E+01  0.38813063677E+02 -0.18000218018E+02  0.43370629030E+02  0.00000000000E+00 0. -1.
</event>
<event>
 7    1  0.6061051E-012  0.5930191E+02  0.7816164E-02  0.1266605E+00
        -11   -1    0    0    0    0  0.00000000000E+00  0.00000000000E+00  0.45593999997E+02  0.45594000000E+02  0.51100000000E-03 0. -1.
         11   -1    0    0    0    0 -0.00000000000E+00 -0.00000000000E+00 -0.45593999997E+02  0.45594000000E+02  0.51100000000E-03 0.  1.
    9900012    2    1    2    0    0  0.20909126573E+02  0.22139337612E+02  0.94541362113E+01  0.59301913137E+02  0.49999943662E+02 0.  0.
         12    1    1    2    0    0 -0.20909126573E+02 -0.22139337612E+02 -0.94541362113E+01  0.31886086863E+02  0.00000000000E+00 0. -1.
         11    1    3    3    0    0  0.73513815623E+01  0.20574758405E+02  0.11807053851E+02  0.24834854845E+02  0.51100000000E-03 0. -1.
        -11    1    3    3    0    0  0.22944041271E+02  0.64020695839E+01 -0.19422405794E+01  0.23899536053E+02  0.51100000000E-03 0.  1.
         12    1    3    3    0    0 -0.93862962600E+01 -0.48374903764E+01 -0.41067705991E+00  0.10567522239E+02  0.00000000000E+00 0. -1.
</event>
<event>
 7    1  0.6061051E-012  0.5930193E+02  0.7816164E-02  0.1266605E+00
        -11   -1    0    0    0    0  0.00000000000E+00  0.00000000000E+00  0.45593999997E+02  0.45594000000E+02  0.51100000000E-03 0.  1.
         11   -1    0    0    0    0 -0.00000000000E+00 -0.00000000000E+00 -0.45593999997E+02  0.45594000000E+02  0.51100000000E-03 0. -1.
    9900012    2    1    2    0    0  0.15048768695E+02 -0.16763208077E+02  0.22566583451E+02  0.59301932934E+02  0.49999979768E+02 0.  0.
         12    1    1    2    0    0 -0.15048768695E+02  0.16763208077E+02 -0.22566583451E+02  0.31886067066E+02  0.00000000000E+00 0. -1.
         11    1    3    3    0    0  0.21371148887E+02  0.59757547487E+01  0.13802418327E+02  0.26133166695E+02  0.51100000000E-03 0. -1.
        -11    1    3    3    0    0  0.36549720689E+01 -0.46798194668E+01  0.10914278409E+02  0.12425015273E+02  0.51100000000E-03 0.  1.
         12    1    3    3    0    0 -0.99773522607E+01 -0.18059143359E+02 -0.21501132864E+01  0.20743750966E+02  0.00000000000E+00 0. -1.
</event>
<event>
 7    1  0.6061051E-012  0.5930194E+02  0.7816164E-02  0.1266605E+00
        -11   -1    0    0    0    0  0.00000000000E+00  0.00000000000E+00  0.45593999997E+02  0.45594000000E+02  0.51100000000E-03 0.  1.
         11   -1    0    0    0    0 -0.00000000000E+00 -0.00000000000E+00 -0.45593999997E+02  0.45594000000E+02  0.51100000000E-03 0. -1.
    9900012    2    1    2    0    0 -0.19249423404E+02  0.76146326536E+01  0.24252789880E+02  0.59301941152E+02  0.49999994756E+02 0.  0.
         12    1    1    2    0    0  0.19249423404E+02 -0.76146326536E+01 -0.24252789880E+02  0.31886058848E+02  0.00000000000E+00 0. -1.
         11    1    3    3    0    0 -0.11432349816E+02  0.95554423470E+01 -0.15492955794E+01  0.14980167483E+02  0.51100000000E-03 0. -1.
        -11    1    3    3    0    0  0.93771536632E+01  0.58892442863E+01  0.22589412466E+02  0.25157419679E+02  0.51100000000E-03 0.  1.
         12    1    3    3    0    0 -0.17194227252E+02 -0.78300539797E+01  0.32126729939E+01  0.19164353990E+02  0.00000000000E+00 0. -1.
</event>
<event>
 7    1  0.6061051E-012  0.5930196E+02  0.7816164E-02  0.1266605E+00
        -11   -1    0    0    0    0  0.00000000000E+00  0.00000000000E+00  0.45593999997E+02  0.45594000000E+02  0.51100000000E-03 0.  1.
         11   -1    0    0    0    0 -0.00000000000E+00 -0.00000000000E+00 -0.45593999997E+02  0.45594000000E+02  0.51100000000E-03 0. -1.
    9900012    2    1    2    0    0  0.33823097250E+01 -0.16015374322E+02  0.27363978478E+02  0.59301959921E+02  0.50000028986E+02 0.  0.
         12    1    1    2    0    0 -0.33823097250E+01  0.16015374322E+02 -0.27363978478E+02  0.31886040079E+02  0.00000000000E+00 0. -1.
         11    1    3    3    0    0  0.91079034668E+01  0.16378514929E+01  0.45150995328E+01  0.10296727010E+02  0.51100000000E-03 0. -1.
        -11    1    3    3    0    0  0.15793370694E+02 -0.10841300649E+02  0.39335716056E+01  0.19556005305E+02  0.51100000000E-03 0.  1.
         12    1    3    3    0    0 -0.21518964436E+02 -0.68119251661E+01  0.18915307340E+02  0.29449227606E+02  0.00000000000E+00 0. -1.
</event>
<event>
 7    1  0.6061051E-012  0.5930193E+02  0.7816164E-02  0.1266605E+00
        -11   -1    0    0    0    0  0.00000000000E+00  0.00000000000E+00  0.45593999997E+02  0.45594000000E+02  0.51100000000E-03 0.  1.
         11   -1    0    0    0    0 -0.00000000000E+00 -0.00000000000E+00 -0.45593999997E+02  0.45594000000E+02  0.51100000000E-03 0. -1.
    9900012    2    1    2    0    0  0.20971325303E+01 -0.30698838127E+02  0.83609146407E+01  0.59301929047E+02  0.49999972679E+02 0.  0.
         12    1    1    2    0    0 -0.20971325303E+01  0.30698838127E+02 -0.83609146407E+01  0.31886070953E+02  0.00000000000E+00 0. -1.
         11    1    3    3    0    0  0.23040150910E+01 -0.31072007124E+02 -0.69582874097E+01  0.31924847317E+02  0.51100000000E-03 0. -1.
        -11    1    3    3    0    0  0.10417435565E+02 -0.30722540670E+01  0.42820234247E+01  0.11674649188E+02  0.51100000000E-03 0.  1.
         12    1    3    3    0    0 -0.10624318125E+02  0.34454230644E+01  0.11037178626E+02  0.15702432542E+02  0.00000000000E+00 0. -1.
</event>
<event>
 7    1  0.6061051E-012  0.5930191E+02  0.7816164E-02  0.1266605E+00
        -11   -1    0    0    0    0  0.00000000000E+00  0.00000000000E+00  0.45593999997E+02  0.45594000000E+02  0.51100000000E-03 0.  1.
         11   -1    0    0    0    0 -0.00000000000E+00 -0.00000000000E+00 -0.45593999997E+02  0.45594000000E+02  0.51100000000E-03 0. -1.
    9900012    2    1    2    0    0  0.25637988556E+02  0.13062658870E+02 -0.13739850161E+02  0.59301905908E+02  0.49999930480E+02 0.  0.
         12    1    1    2    0    0 -0.25637988556E+02 -0.13062658870E+02  0.13739850161E+02  0.31886094092E+02  0.00000000000E+00 0. -1.
         11    1    3    3    0    0 -0.29010385446E+01  0.28859457373E+01 -0.58522377154E+01  0.71409658993E+01  0.51100000000E-03 0. -1.
        -11    1    3    3    0    0  0.13181397401E+02  0.16562903813E+02 -0.21866742306E+02  0.30434083516E+02  0.51100000000E-03 0.  1.
         12    1    3    3    0    0  0.15357629700E+02 -0.63861906808E+01  0.13979129860E+02  0.21726856493E+02  0.00000000000E+00 0. -1.
</event>
<event>
 7    1  0.6061051E-012  0.5930195E+02  0.7816164E-02  0.1266605E+00
        -11   -1    0    0    0    0  0.00000000000E+00  0.00000000000E+00  0.45593999997E+02  0.45594000000E+02  0.51100000000E-03 0. -1.
         11   -1    0    0    0    0 -0.00000000000E+00 -0.00000000000E+00 -0.45593999997E+02  0.45594000000E+02  0.51100000000E-03 0.  1.
    9900012    2    1    2    0    0 -0.23058250038E+02 -0.21971973537E+02  0.15066376980E+01  0.59301945477E+02  0.50000002643E+02 0.  0.
         12    1    1    2    0    0  0.23058250038E+02  0.21971973537E+02 -0.15066376980E+01  0.31886054523E+02  0.00000000000E+00 0. -1.
         11    1    3    3    0    0  0.12602368996E+01 -0.42640217476E+01  0.75039999836E+00  0.45092326316E+01  0.51100000000E-03 0. -1.
        -11    1    3    3    0    0 -0.99268847390E+01 -0.24453757320E+02 -0.16662985970E+02  0.31211927037E+02  0.51100000000E-03 0.  1.
         12    1    3    3    0    0 -0.14391602198E+02  0.67458055313E+01  0.17419223669E+02  0.23580785808E+02  0.00000000000E+00 0. -1.
</event>
<event>
 7    1  0.6061051E-012  0.5930195E+02  0.7816164E-02  0.1266605E+00
        -11   -1    0    0    0    0  0.00000000000E+00  0.00000000000E+00  0.45593999997E+02  0.45594000000E+02  0.51100000000E-03 0. -1.
         11   -1    0    0    0    0 -0.00000000000E+00 -0.00000000000E+00 -0.45593999997E+02  0.45594000000E+02  0.51100000000E-03 0.  1.
    9900012    2    1    2    0    0  0.24649186863E+00  0.29751430807E+02 -0.11467848115E+02  0.59301953934E+02  0.50000018067E+02 0.  0.
         12    1    1    2    0    0 -0.24649186863E+00 -0.29751430807E+02  0.11467848115E+02  0.31886046066E+02  0.00000000000E+00 0. -1.
         11    1    3    3    0    0 -0.58431786582E+01  0.22254565233E+02 -0.14631056125E+02  0.27266760242E+02  0.51100000000E-03 0. -1.
        -11    1    3    3    0    0  0.36576312064E+00  0.41421606022E+01 -0.13486127644E+02  0.14112650927E+02  0.51100000000E-03 0.  1.
         12    1    3    3    0    0  0.57239074062E+01  0.33547049725E+01  0.16649335654E+02  0.17922542765E+02  0.00000000000E+00 0. -1.
</event>
<event>
 7    1  0.6061051E-012  0.5930200E+02  0.7816164E-02  0.1266605E+00
        -11   -1    0    0    0    0  0.00000000000E+00  0.00000000000E+00  0.45593999997E+02  0.45594000000E+02  0.51100000000E-03 0.  1.
         11   -1    0    0    0    0 -0.00000000000E+00 -0.00000000000E+00 -0.45593999997E+02  0.45594000000E+02  0.51100000000E-03 0. -1.
    9900012    2    1    2    0    0 -0.11741377928E+02 -0.15974674551E+02  0.24973323934E+02  0.59301998511E+02  0.50000099364E+02 0.  0.
         12    1    1    2    0    0  0.11741377928E+02  0.15974674551E+02 -0.24973323934E+02  0.31886001489E+02  0.00000000000E+00 0. -1.
         11    1    3    3    0    0 -0.68857141640E+01 -0.29224069409E+01 -0.15015914069E+01  0.76294363417E+01  0.51100000000E-03 0. -1.
        -11    1    3    3    0    0 -0.18708384426E+02 -0.20734815713E+02  0.20891920902E+02  0.34877049613E+02  0.51100000000E-03 0.  1.
        -12    1    3    3    0    0  0.13852720662E+02  0.76825481030E+01  0.55829944389E+01  0.16795512556E+02  0.00000000000E+00 0.  1.
</event>
<event>
 7    1  0.6061051E-012  0.5930196E+02  0.7816164E-02  0.1266605E+00
        -11   -1    0    0    0    0  0.00000000000E+00  0.00000000000E+00  0.45593999997E+02  0.45594000000E+02  0.51100000000E-03 0.  1.
         11   -1    0    0    0    0 -0.00000000000E+00 -0.00000000000E+00 -0.45593999997E+02  0.45594000000E+02  0.51100000000E-03 0. -1.
    9900012    2    1    2    0    0  0.90948632596E+01 -0.30553549595E+02  0.69562140994E+00  0.59301955722E+02  0.50000021328E+02 0.  0.
         12    1    1    2    0    0 -0.90948632596E+01  0.30553549595E+02 -0.69562140994E+00  0.31886044278E+02  0.00000000000E+00 0. -1.
         11    1    3    3    0    0  0.18646225285E+01  0.55244171395E+01 -0.90148977393E+01  0.10736125158E+02  0.51100000000E-03 0. -1.
        -11    1    3    3    0    0  0.98417541867E+01 -0.15245095590E+01 -0.47300282481E+01  0.11025308266E+02  0.51100000000E-03 0.  1.
        -12    1    3    3    0    0 -0.26115134556E+01 -0.34553457175E+02  0.14440547397E+02  0.37540522298E+02  0.00000000000E+00 0.  1.
</event>
<event>
 7    1  0.6061051E-012  0.5930195E+02  0.7816164E-02  0.1266605E+00
        -11   -1    0    0    0    0  0.00000000000E+00  0.00000000000E+00  0.45593999997E+02  0.45594000000E+02  0.51100000000E-03 0.  1.
         11   -1    0    0    0    0 -0.00000000000E+00 -0.00000000000E+00 -0.45593999997E+02  0.45594000000E+02  0.51100000000E-03 0. -1.
    9900012    2    1    2    0    0  0.61934602423E+01 -0.29950658813E+02  0.90177112165E+01  0.59301952445E+02  0.50000015351E+02 0.  0.
         12    1    1    2    0    0 -0.61934602423E+01  0.29950658813E+02 -0.90177112165E+01  0.31886047555E+02  0.00000000000E+00 0. -1.
         11    1    3    3    0    0 -0.30434791457E+00 -0.14412280852E+02 -0.18427366407E+02  0.23396031714E+02  0.51100000000E-03 0. -1.
        -11    1    3    3    0    0  0.84618007202E+00  0.24430254905E+01 -0.31659949749E-01  0.25856134427E+01  0.51100000000E-03 0.  1.
        -12    1    3    3    0    0  0.56516280849E+01 -0.17981403451E+02  0.27476737574E+02  0.33320307288E+02  0.00000000000E+00 0.  1.
</event>
<event>
 7    1  0.6061051E-012  0.5930196E+02  0.7816164E-02  0.1266605E+00
        -11   -1    0    0    0    0  0.00000000000E+00  0.00000000000E+00  0.45593999997E+02  0.45594000000E+02  0.51100000000E-03 0.  1.
         11   -1    0    0    0    0 -0.00000000000E+00 -0.00000000000E+00 -0.45593999997E+02  0.45594000000E+02  0.51100000000E-03 0. -1.
    9900012    2    1    2    0    0 -0.41953766792E+01  0.63792048389E+01  0.30958429690E+02  0.59301955894E+02  0.50000021641E+02 0.  0.
         12    1    1    2    0    0  0.41953766792E+01 -0.63792048389E+01 -0.30958429690E+02  0.31886044106E+02  0.00000000000E+00 0. -1.
         11    1    3    3    0    0 -0.10425282990E+02  0.25799667579E+01  0.12413800425E+02  0.16414785870E+02  0.51100000000E-03 0. -1.
        -11    1    3    3    0    0  0.29738502782E+01  0.87713160840E+01  0.29228845561E+02  0.30661134754E+02  0.51100000000E-03 0.  1.
         12    1    3    3    0    0  0.32560560324E+01 -0.49720780030E+01 -0.10684216296E+02  0.12226035270E+02  0.00000000000E+00 0. -1.
</event>
<event>
 7    1  0.6061051E-012  0.5930194E+02  0.7816164E-02  0.1266605E+00
        -11   -1    0    0    0    0  0.00000000000E+00  0.00000000000E+00  0.45593999997E+02  0.45594000000E+02  0.51100000000E-03 0. -1.
         11   -1    0    0    0    0 -0.00000000000E+00 -0.00000000000E+00 -0.45593999997E+02  0.45594000000E+02  0.51100000000E-03 0.  1.
    9900012    2    1    2    0    0  0.85245258356E+01 -0.28567113411E+02 -0.11312541114E+02  0.59301935712E+02  0.49999984833E+02 0.  0.
         12    1    1    2    0    0 -0.85245258356E+01  0.28567113411E+02  0.11312541114E+02  0.31886064288E+02  0.00000000000E+00 0. -1.
         11    1    3    3    0    0  0.60350954287E+01 -0.14717815186E+01  0.95601599212E+01  0.11401104142E+02  0.51100000000E-03 0. -1.
        -11    1    3    3    0    0  0.14908181031E+02 -0.17149885851E+02 -0.14170195931E+01  0.22767968534E+02  0.51100000000E-03 0.  1.
        -12    1    3    3    0    0 -0.12418750624E+02 -0.99454460407E+01 -0.19455681442E+02  0.25132863036E+02  0.00000000000E+00 0.  1.
</event>
<event>
 7    1  0.6061051E-012  0.5930196E+02  0.7816164E-02  0.1266605E+00
        -11   -1    0    0    0    0  0.00000000000E+00  0.00000000000E+00  0.45593999997E+02  0.45594000000E+02  0.51100000000E-03 0. -1.
         11   -1    0    0    0    0 -0.00000000000E+00 -0.00000000000E+00 -0.45593999997E+02  0.45594000000E+02  0.51100000000E-03 0.  1.
    9900012    2    1    2    0    0  0.14366991087E+02 -0.21931132398E+02 -0.18147579618E+02  0.59301958428E+02  0.50000026263E+02 0.  0.
         12    1    1    2    0    0 -0.14366991087E+02  0.21931132398E+02  0.18147579618E+02  0.31886041572E+02  0.00000000000E+00 0. -1.
         11    1    3    3    0    0  0.18140699721E+01 -0.32761973330E+01 -0.34766059920E+01  0.51099029651E+01  0.51100000000E-03 0.  1.
        -11    1    3    3    0    0 -0.45067774719E+01 -0.30635204905E+02 -0.11854532087E+02  0.33156549188E+02  0.51100000000E-03 0. -1.
         12    1    3    3    0    0  0.17059698587E+02  0.11980269840E+02 -0.28164415391E+01  0.21035506275E+02  0.00000000000E+00 0. -1.
</event>
<event>
 7    1  0.6061051E-012  0.5930194E+02  0.7816164E-02  0.1266605E+00
        -11   -1    0    0    0    0  0.00000000000E+00  0.00000000000E+00  0.45593999997E+02  0.45594000000E+02  0.51100000000E-03 0.  1.
         11   -1    0    0    0    0 -0.00000000000E+00 -0.00000000000E+00 -0.45593999997E+02  0.45594000000E+02  0.51100000000E-03 0. -1.
    9900012    2    1    2    0    0 -0.27985881332E+01 -0.31634187420E+02  0.28577615562E+01  0.59301941755E+02  0.49999995855E+02 0.  0.
         12    1    1    2    0    0  0.27985881332E+01  0.31634187420E+02 -0.28577615562E+01  0.31886058245E+02  0.00000000000E+00 0. -1.
         11    1    3    3    0    0 -0.93622785899E+01 -0.72780921302E+01 -0.19504920136E+02  0.22826843742E+02  0.51100000000E-03 0. -1.
        -11    1    3    3    0    0  0.56046114602E+01 -0.49795009398E+01  0.91149608439E+00  0.75523456358E+01  0.51100000000E-03 0.  1.
        -12    1    3    3    0    0  0.95907899648E+00 -0.19376594350E+02  0.21451185607E+02  0.28922752378E+02  0.00000000000E+00 0.  1.
</event>
<event>
 7    1  0.6061051E-012  0.5930193E+02  0.7816164E-02  0.1266605E+00
        -11   -1    0    0    0    0  0.00000000000E+00  0.00000000000E+00  0.45593999997E+02  0.45594000000E+02  0.51100000000E-03 0.  1.
         11   -1    0    0    0    0 -0.00000000000E+00 -0.00000000000E+00 -0.45593999997E+02  0.45594000000E+02  0.51100000000E-03 0. -1.
    9900012    2    1    2    0    0 -0.51654031012E+01  0.20298671913E+02  0.24041708835E+02  0.59301933540E+02  0.49999980872E+02 0.  0.
         12    1    1    2    0    0  0.51654031012E+01 -0.20298671913E+02 -0.24041708835E+02  0.31886066460E+02  0.00000000000E+00 0. -1.
         11    1    3    3    0    0  0.91043993566E+01  0.85249394439E+01 -0.98045057062E+01  0.15864835725E+02  0.51100000000E-03 0. -1.
        -11    1    3    3    0    0  0.30124323389E+01 -0.25598887549E+01  0.96494443204E+01  0.10427825995E+02  0.51100000000E-03 0.  1.
        -12    1    3    3    0    0 -0.17282234797E+02  0.14333621224E+02  0.24196770221E+02  0.33009271820E+02  0.00000000000E+00 0.  1.
</event>
<event>
 7    1  0.6061051E-012  0.5930195E+02  0.7816164E-02  0.1266605E+00
        -11   -1    0    0    0    0  0.00000000000E+00  0.00000000000E+00  0.45593999997E+02  0.45594000000E+02  0.51100000000E-03 0.  1.
         11   -1    0    0    0    0 -0.00000000000E+00 -0.00000000000E+00 -0.45593999997E+02  0.45594000000E+02  0.51100000000E-03 0. -1.
    9900012    2    1    2    0    0  0.10376380419E+02  0.24292632018E+02  0.17858305520E+02  0.59301947924E+02  0.50000007106E+02 0.  0.
         12    1    1    2    0    0 -0.10376380419E+02 -0.24292632018E+02 -0.17858305520E+02  0.31886052076E+02  0.00000000000E+00 0. -1.
         11    1    3    3    0    0 -0.92465999938E+01 -0.33467445940E+01  0.50739415560E+01  0.11065495651E+02  0.51100000000E-03 0. -1.
        -11    1    3    3    0    0  0.35363944963E+01  0.51418327546E+01 -0.10412370631E+02  0.12139274794E+02  0.51100000000E-03 0.  1.
        -12    1    3    3    0    0  0.16086585917E+02  0.22497543857E+02  0.23196734595E+02  0.36097177479E+02  0.00000000000E+00 0.  1.
</event>
<event>
 7    1  0.6061051E-012  0.5930199E+02  0.7816164E-02  0.1266605E+00
        -11   -1    0    0    0    0  0.00000000000E+00  0.00000000000E+00  0.45593999997E+02  0.45594000000E+02  0.51100000000E-03 0. -1.
         11   -1    0    0    0    0 -0.00000000000E+00 -0.00000000000E+00 -0.45593999997E+02  0.45594000000E+02  0.51100000000E-03 0.  1.
    9900012    2    1    2    0    0  0.10762312428E+02  0.17832113015E+02 -0.24143451549E+02  0.59301986200E+02  0.50000076911E+02 0.  0.
         12    1    1    2    0    0 -0.10762312428E+02 -0.17832113015E+02  0.24143451549E+02  0.31886013800E+02  0.00000000000E+00 0. -1.
         11    1    3    3    0    0  0.32859860293E+01  0.19044363980E+02 -0.28280600776E+02  0.34253144150E+02  0.51100000000E-03 0. -1.
        -11    1    3    3    0    0 -0.79808728197E+01  0.29506156342E+01 -0.24084816382E-01  0.85088802980E+01  0.51100000000E-03 0.  1.
        -12    1    3    3    0    0  0.15457199218E+02 -0.41628665998E+01  0.41612340435E+01  0.16539961752E+02  0.00000000000E+00 0.  1.
</event>
<event>
 7    1  0.6061051E-012  0.5930197E+02  0.7816164E-02  0.1266605E+00
        -11   -1    0    0    0    0  0.00000000000E+00  0.00000000000E+00  0.45593999997E+02  0.45594000000E+02  0.51100000000E-03 0.  1.
         11   -1    0    0    0    0 -0.00000000000E+00 -0.00000000000E+00 -0.45593999997E+02  0.45594000000E+02  0.51100000000E-03 0. -1.
    9900012    2    1    2    0    0 -0.30276271050E+02 -0.30922334431E+01 -0.95133736207E+01  0.59301972119E+02  0.50000051233E+02 0.  0.
         12    1    1    2    0    0  0.30276271050E+02  0.30922334431E+01  0.95133736207E+01  0.31886027881E+02  0.00000000000E+00 0. -1.
         11    1    3    3    0    0 -0.80298879053E+01 -0.22732086054E+01 -0.24265008955E+02  0.25660031897E+02  0.51100000000E-03 0. -1.
        -11    1    3    3    0    0 -0.80348415244E+01 -0.96770515863E+01  0.10448943501E+02  0.16351893660E+02  0.51100000000E-03 0.  1.
        -12    1    3    3    0    0 -0.14211541620E+02  0.88580267486E+01  0.43026918327E+01  0.17290046562E+02  0.00000000000E+00 0.  1.
</event>
<event>
 7    1  0.6061051E-012  0.5930209E+02  0.7816164E-02  0.1266604E+00
        -11   -1    0    0    0    0  0.00000000000E+00  0.00000000000E+00  0.45593999997E+02  0.45594000000E+02  0.51100000000E-03 0.  1.
         11   -1    0    0    0    0 -0.00000000000E+00 -0.00000000000E+00 -0.45593999997E+02  0.45594000000E+02  0.51100000000E-03 0. -1.
    9900012    2    1    2    0    0 -0.26323622616E+02 -0.95626686393E+01  0.15242487288E+02  0.59302091548E+02  0.50000269040E+02 0.  0.
         12    1    1    2    0    0  0.26323622616E+02  0.95626686393E+01 -0.15242487288E+02  0.31885908452E+02  0.00000000000E+00 0. -1.
         11    1    3    3    0    0  0.90173752793E+01 -0.72238116706E+01 -0.78550606764E+01  0.13971345335E+02  0.51100000000E-03 0. -1.
        -11    1    3    3    0    0 -0.22406620242E+01  0.25747802799E+00  0.89680094922E+01  0.92472728820E+01  0.51100000000E-03 0.  1.
         12    1    3    3    0    0 -0.33100335871E+02 -0.25963349966E+01  0.14129538472E+02  0.36083473331E+02  0.00000000000E+00 0. -1.
</event>
<event>
 7    1  0.6061051E-012  0.5930194E+02  0.7816164E-02  0.1266605E+00
        -11   -1    0    0    0    0  0.00000000000E+00  0.00000000000E+00  0.45593999997E+02  0.45594000000E+02  0.51100000000E-03 0. -1.
         11   -1    0    0    0    0 -0.00000000000E+00 -0.00000000000E+00 -0.45593999997E+02  0.45594000000E+02  0.51100000000E-03 0.  1.
    9900012    2    1    2    0    0  0.22899041018E+02  0.32907522401E+01 -0.21943698357E+02  0.59301936784E+02  0.49999986789E+02 0.  0.
         12    1    1    2    0    0 -0.22899041018E+02 -0.32907522401E+01  0.21943698357E+02  0.31886063216E+02  0.00000000000E+00 0. -1.
         11    1    3    3    0    0  0.24288634094E+02 -0.60204708241E+01 -0.26442521234E+02  0.36405916340E+02  0.51100000000E-03 0. -1.
        -11    1    3    3    0    0  0.66956083498E+01  0.10002763787E+02 -0.23658392507E+01  0.12267177759E+02  0.51100000000E-03 0.  1.
        -12    1    3    3    0    0 -0.80852014258E+01 -0.69154072334E+00  0.68646621279E+01  0.10628842684E+02  0.00000000000E+00 0.  1.
</event>
<event>
 7    1  0.6061051E-012  0.5930234E+02  0.7816164E-02  0.1266603E+00
        -11   -1    0    0    0    0  0.00000000000E+00  0.00000000000E+00  0.45593999997E+02  0.45594000000E+02  0.51100000000E-03 0.  1.
         11   -1    0    0    0    0 -0.00000000000E+00 -0.00000000000E+00 -0.45593999997E+02  0.45594000000E+02  0.51100000000E-03 0. -1.
    9900012    2    1    2    0    0  0.25871038074E+02 -0.11761329036E+02  0.14458755202E+02  0.59302343763E+02  0.50000729015E+02 0.  0.
         12    1    1    2    0    0 -0.25871038074E+02  0.11761329036E+02 -0.14458755202E+02  0.31885656237E+02  0.00000000000E+00 0. -1.
         11    1    3    3    0    0  0.62926919775E+01 -0.11708949661E+02 -0.48839686044E+01  0.14161589744E+02  0.51100000000E-03 0. -1.
        -11    1    3    3    0    0  0.94380562019E+01 -0.16440952335E+02  0.17355172119E+01  0.19036644631E+02  0.51100000000E-03 0.  1.
        -12    1    3    3    0    0  0.10140289894E+02  0.16388572961E+02  0.17607206594E+02  0.26104109387E+02  0.00000000000E+00 0.  1.
</event>
<event>
 7    1  0.6061051E-012  0.5930202E+02  0.7816164E-02  0.1266605E+00
        -11   -1    0    0    0    0  0.00000000000E+00  0.00000000000E+00  0.45593999997E+02  0.45594000000E+02  0.51100000000E-03 0. -1.
         11   -1    0    0    0    0 -0.00000000000E+00 -0.00000000000E+00 -0.45593999997E+02  0.45594000000E+02  0.51100000000E-03 0.  1.
    9900012    2    1    2    0    0 -0.14393177625E+02  0.19587284249E+00 -0.28451958379E+02  0.59302017753E+02  0.50000134456E+02 0.  0.
         12    1    1    2    0    0  0.14393177625E+02 -0.19587284249E+00  0.28451958379E+02  0.31885982247E+02  0.00000000000E+00 0. -1.
         11    1    3    3    0    0  0.66535291283E+01  0.48859180167E+01 -0.60964688416E+01  0.10261996751E+02  0.51100000000E-03 0.  1.
        -11    1    3    3    0    0 -0.24148433251E+02 -0.78525078094E+01 -0.30549654695E+02  0.39725182311E+02  0.51100000000E-03 0. -1.
         12    1    3    3    0    0  0.31017264985E+01  0.31624626352E+01  0.81941651579E+01  0.93148386903E+01  0.00000000000E+00 0. -1.
</event>
<event>
 7    1  0.6061051E-012  0.5930197E+02  0.7816164E-02  0.1266605E+00
        -11   -1    0    0    0    0  0.00000000000E+00  0.00000000000E+00  0.45593999997E+02  0.45594000000E+02  0.51100000000E-03 0. -1.
         11   -1    0    0    0    0 -0.00000000000E+00 -0.00000000000E+00 -0.45593999997E+02  0.45594000000E+02  0.51100000000E-03 0.  1.
    9900012    2    1    2    0    0 -0.25857351358E+02  0.10957118287E+02 -0.15101579934E+02  0.59301972074E+02  0.50000051149E+02 0.  0.
         12    1    1    2    0    0  0.25857351358E+02 -0.10957118287E+02  0.15101579934E+02  0.31886027926E+02  0.00000000000E+00 0. -1.
         11    1    3    3    0    0  0.20756305161E+01  0.18976868463E+01 -0.25995035009E+02  0.26146726426E+02  0.51100000000E-03 0.  1.
        -11    1    3    3    0    0 -0.12260593215E+01  0.37930248979E+01  0.23375694525E+01  0.46210919210E+01  0.51100000000E-03 0. -1.
        -12    1    3    3    0    0 -0.26706922552E+02  0.52664065432E+01  0.85558856225E+01  0.28534153726E+02  0.00000000000E+00 0.  1.
</event>
<event>
 7    1  0.6061051E-012  0.5930192E+02  0.7816164E-02  0.1266605E+00
        -11   -1    0    0    0    0  0.00000000000E+00  0.00000000000E+00  0.45593999997E+02  0.45594000000E+02  0.51100000000E-03 0. -1.
         11   -1    0    0    0    0 -0.00000000000E+00 -0.00000000000E+00 -0.45593999997E+02  0.45594000000E+02  0.51100000000E-03 0.  1.
    9900012    2    1    2    0    0  0.22645821063E+01  0.14231569488E+02 -0.28443915340E+02  0.59301918051E+02  0.49999952624E+02 0.  0.
         12    1    1    2    0    0 -0.22645821063E+01 -0.14231569488E+02  0.28443915340E+02  0.31886081949E+02  0.00000000000E+00 0. -1.
         11    1    3    3    0    0 -0.14525822870E+02  0.16365549940E+02 -0.13665033604E+02  0.25798525123E+02  0.51100000000E-03 0. -1.
        -11    1    3    3    0    0 -0.65906699754E+01 -0.90574501735E+00 -0.34181887166E+01  0.74793929650E+01  0.51100000000E-03 0.  1.
         12    1    3    3    0    0  0.23381074952E+02 -0.12282354341E+01 -0.11360693019E+02  0.26023999963E+02  0.00000000000E+00 0. -1.
</event>
<event>
 7    1  0.6061051E-012  0.5930192E+02  0.7816164E-02  0.1266605E+00
        -11   -1    0    0    0    0  0.00000000000E+00  0.00000000000E+00  0.45593999997E+02  0.45594000000E+02  0.51100000000E-03 0.  1.
         11   -1    0    0    0    0 -0.00000000000E+00 -0.00000000000E+00 -0.45593999997E+02  0.45594000000E+02  0.51100000000E-03 0. -1.
    9900012    2    1    2    0    0 -0.11647729958E+02  0.13607784733E+02  0.26379545014E+02  0.59301924455E+02  0.49999964303E+02 0.  0.
         12    1    1    2    0    0  0.11647729958E+02 -0.13607784733E+02 -0.26379545014E+02  0.31886075545E+02  0.00000000000E+00 0. -1.
         11    1    3    3    0    0 -0.95461945132E+01  0.97881605823E+01  0.44006410974E+01  0.14363271201E+02  0.51100000000E-03 0. -1.
        -11    1    3    3    0    0 -0.35052162308E+01  0.12641067500E+02  0.30120143314E+02  0.32852795343E+02  0.51100000000E-03 0.  1.
         12    1    3    3    0    0  0.14036807859E+01 -0.88214433489E+01 -0.81412393970E+01  0.12085857910E+02  0.00000000000E+00 0. -1.
</event>
<event>
 7    1  0.6061051E-012  0.5930194E+02  0.7816164E-02  0.1266605E+00
        -11   -1    0    0    0    0  0.00000000000E+00  0.00000000000E+00  0.45593999997E+02  0.45594000000E+02  0.51100000000E-03 0. -1.
         11   -1    0    0    0    0 -0.00000000000E+00 -0.00000000000E+00 -0.45593999997E+02  0.45594000000E+02  0.51100000000E-03 0.  1.
    9900012    2    1    2    0    0 -0.28242499747E+02  0.11354089477E+02 -0.94955979758E+01  0.59301944729E+02  0.50000001280E+02 0.  0.
         12    1    1    2    0    0  0.28242499747E+02 -0.11354089477E+02  0.94955979758E+01  0.31886055271E+02  0.00000000000E+00 0. -1.
         11    1    3    3    0    0 -0.10101629630E+02  0.88643620161E+01 -0.25940123718E+02  0.29214890961E+02  0.51100000000E-03 0. -1.
        -11    1    3    3    0    0 -0.68784309992E+01 -0.36733112957E+01 -0.15813810814E+01  0.79565567472E+01  0.51100000000E-03 0.  1.
         12    1    3    3    0    0 -0.11262439117E+02  0.61630387564E+01  0.18025906823E+02  0.22130497021E+02  0.00000000000E+00 0. -1.
</event>
<event>
 7    1  0.6061051E-012  0.5930193E+02  0.7816164E-02  0.1266605E+00
        -11   -1    0    0    0    0  0.00000000000E+00  0.00000000000E+00  0.45593999997E+02  0.45594000000E+02  0.51100000000E-03 0. -1.
         11   -1    0    0    0    0 -0.00000000000E+00 -0.00000000000E+00 -0.45593999997E+02  0.45594000000E+02  0.51100000000E-03 0.  1.
    9900012    2    1    2    0    0 -0.27748789212E+01 -0.13752632684E+02 -0.28633666920E+02  0.59301925609E+02  0.49999966409E+02 0.  0.
         12    1    1    2    0    0  0.27748789212E+01  0.13752632684E+02  0.28633666920E+02  0.31886074391E+02  0.00000000000E+00 0. -1.
         11    1    3    3    0    0 -0.13247785927E+01  0.44158575065E+01  0.44692655500E+01  0.64209945222E+01  0.51100000000E-03 0. -1.
        -11    1    3    3    0    0 -0.81767343054E+01 -0.27073279969E+02 -0.16100111484E+02  0.32542818904E+02  0.51100000000E-03 0.  1.
         12    1    3    3    0    0  0.67266339768E+01  0.89047897788E+01 -0.17002820986E+02  0.20338112183E+02  0.00000000000E+00 0. -1.
</event>
<event>
 7    1  0.6061051E-012  0.5930167E+02  0.7816164E-02  0.1266606E+00
        -11   -1    0    0    0    0  0.00000000000E+00  0.00000000000E+00  0.45593999997E+02  0.45594000000E+02  0.51100000000E-03 0.  1.
         11   -1    0    0    0    0 -0.00000000000E+00 -0.00000000000E+00 -0.45593999997E+02  0.45594000000E+02  0.51100000000E-03 0. -1.
    9900012    2    1    2    0    0 -0.18835132032E+02  0.19818609053E+02 -0.16407262887E+02  0.59301674735E+02  0.49999508872E+02 0.  0.
         12    1    1    2    0    0  0.18835132032E+02 -0.19818609053E+02  0.16407262887E+02  0.31886325265E+02  0.00000000000E+00 0. -1.
         11    1    3    3    0    0 -0.11959784377E+02  0.10452320126E+02 -0.29441446326E+01  0.16154114839E+02  0.51100000000E-03 0.  1.
        -11    1    3    3    0    0  0.10091807793E+02 -0.10693306699E+02 -0.54267000978E+01  0.15672921454E+02  0.51100000000E-03 0. -1.
         12    1    3    3    0    0 -0.16967155447E+02  0.20059595627E+02 -0.80364181565E+01  0.27474638441E+02  0.00000000000E+00 0. -1.
</event>
<event>
 7    1  0.6061051E-012  0.5930194E+02  0.7816164E-02  0.1266605E+00
        -11   -1    0    0    0    0  0.00000000000E+00  0.00000000000E+00  0.45593999997E+02  0.45594000000E+02  0.51100000000E-03 0.  1.
         11   -1    0    0    0    0 -0.00000000000E+00 -0.00000000000E+00 -0.45593999997E+02  0.45594000000E+02  0.51100000000E-03 0. -1.
    9900012    2    1    2    0    0 -0.27178952118E+02  0.88115127537E+01  0.14155664121E+02  0.59301936869E+02  0.49999986945E+02 0.  0.
         12    1    1    2    0    0  0.27178952118E+02 -0.88115127537E+01 -0.14155664121E+02  0.31886063131E+02  0.00000000000E+00 0. -1.
         11    1    3    3    0    0  0.83070612819E+01 -0.23833003127E+00 -0.91470427533E+01  0.12358497471E+02  0.51100000000E-03 0. -1.
        -11    1    3    3    0    0 -0.11488618719E+02 -0.54251278685E+01  0.65718757799E+01  0.14304192532E+02  0.51100000000E-03 0.  1.
        -12    1    3    3    0    0 -0.23997394681E+02  0.14474970654E+02  0.16730831095E+02  0.32639246867E+02  0.00000000000E+00 0.  1.
</event>
<event>
 7    1  0.6061051E-012  0.5930197E+02  0.7816164E-02  0.1266605E+00
        -11   -1    0    0    0    0  0.00000000000E+00  0.00000000000E+00  0.45593999997E+02  0.45594000000E+02  0.51100000000E-03 0. -1.
         11   -1    0    0    0    0 -0.00000000000E+00 -0.00000000000E+00 -0.45593999997E+02  0.45594000000E+02  0.51100000000E-03 0.  1.
    9900012    2    1    2    0    0  0.30192562358E+02  0.10248318731E+02  0.31610814757E+00  0.59301971980E+02  0.50000050978E+02 0.  0.
         12    1    1    2    0    0 -0.30192562358E+02 -0.10248318731E+02 -0.31610814757E+00  0.31886028020E+02  0.00000000000E+00 0. -1.
         11    1    3    3    0    0  0.27300581989E+02  0.64974258596E+01 -0.10786589568E+02  0.30064744046E+02  0.51100000000E-03 0.  1.
        -11    1    3    3    0    0  0.66557619781E+01  0.14338387585E+02  0.62881690995E+01  0.17012630512E+02  0.51100000000E-03 0. -1.
        -12    1    3    3    0    0 -0.37637816094E+01 -0.10587494714E+02  0.48145286162E+01  0.12224597422E+02  0.00000000000E+00 0.  1.
</event>
<event>
 7    1  0.6061051E-012  0.5930195E+02  0.7816164E-02  0.1266605E+00
        -11   -1    0    0    0    0  0.00000000000E+00  0.00000000000E+00  0.45593999997E+02  0.45594000000E+02  0.51100000000E-03 0. -1.
         11   -1    0    0    0    0 -0.00000000000E+00 -0.00000000000E+00 -0.45593999997E+02  0.45594000000E+02  0.51100000000E-03 0.  1.
    9900012    2    1    2    0    0 -0.19259362608E+02 -0.20966572026E+02  0.14359664702E+02  0.59301950370E+02  0.50000011568E+02 0.  0.
         12    1    1    2    0    0  0.19259362608E+02  0.20966572026E+02 -0.14359664702E+02  0.31886049630E+02  0.00000000000E+00 0. -1.
         11    1    3    3    0    0 -0.76478234297E+01 -0.51363147559E+01  0.25032632090E+02  0.26674024858E+02  0.51100000000E-03 0. -1.
        -11    1    3    3    0    0 -0.96294454296E+01 -0.11864052722E+02  0.52051505334E+01  0.16142352945E+02  0.51100000000E-03 0.  1.
        -12    1    3    3    0    0 -0.19820937490E+01 -0.39662045482E+01 -0.15878117921E+02  0.16485572567E+02  0.00000000000E+00 0.  1.
</event>
<event>
 7    1  0.6061051E-012  0.5930194E+02  0.7816164E-02  0.1266605E+00
        -11   -1    0    0    0    0  0.00000000000E+00  0.00000000000E+00  0.45593999997E+02  0.45594000000E+02  0.51100000000E-03 0. -1.
         11   -1    0    0    0    0 -0.00000000000E+00 -0.00000000000E+00 -0.45593999997E+02  0.45594000000E+02  0.51100000000E-03 0.  1.
    9900012    2    1    2    0    0  0.90398431288E+00 -0.16710666206E+02 -0.27141433265E+02  0.59301937961E+02  0.49999988936E+02 0.  0.
         12    1    1    2    0    0 -0.90398431288E+00  0.16710666206E+02  0.27141433265E+02  0.31886062039E+02  0.00000000000E+00 0. -1.
         11    1    3    3    0    0  0.21357969057E+01  0.13715873285E+02 -0.17040824489E+02  0.21979001522E+02  0.51100000000E-03 0. -1.
        -11    1    3    3    0    0 -0.21953185410E+00  0.56924198049E+00  0.34326041251E+01  0.34864024450E+01  0.51100000000E-03 0.  1.
        -12    1    3    3    0    0 -0.10122807388E+01 -0.30995781471E+02 -0.13533212902E+02  0.33836533994E+02  0.00000000000E+00 0.  1.
</event>
<event>
 7    1  0.6061051E-012  0.5930195E+02  0.7816164E-02  0.1266605E+00
        -11   -1    0    0    0    0  0.00000000000E+00  0.00000000000E+00  0.45593999997E+02  0.45594000000E+02  0.51100000000E-03 0.  1.
         11   -1    0    0    0    0 -0.00000000000E+00 -0.00000000000E+00 -0.45593999997E+02  0.45594000000E+02  0.51100000000E-03 0. -1.
    9900012    2    1    2    0    0 -0.11377157192E+02  0.22344246529E+02  0.19698099584E+02  0.59301949979E+02  0.50000010854E+02 0.  0.
         12    1    1    2    0    0  0.11377157192E+02 -0.22344246529E+02 -0.19698099584E+02  0.31886050021E+02  0.00000000000E+00 0. -1.
         11    1    3    3    0    0  0.27691085147E+01  0.19145399394E+02  0.26496941733E+02  0.32807044996E+02  0.51100000000E-03 0. -1.
        -11    1    3    3    0    0  0.14366834619E+01  0.37047655597E+01  0.53958592648E+01  0.67010927981E+01  0.51100000000E-03 0.  1.
         12    1    3    3    0    0 -0.15582949168E+02 -0.50591842532E+00 -0.12194701413E+02  0.19793812185E+02  0.00000000000E+00 0. -1.
</event>
<event>
 7    1  0.6061051E-012  0.5930201E+02  0.7816164E-02  0.1266605E+00
        -11   -1    0    0    0    0  0.00000000000E+00  0.00000000000E+00  0.45593999997E+02  0.45594000000E+02  0.51100000000E-03 0.  1.
         11   -1    0    0    0    0 -0.00000000000E+00 -0.00000000000E+00 -0.45593999997E+02  0.45594000000E+02  0.51100000000E-03 0. -1.
    9900012    2    1    2    0    0 -0.22693372707E+02 -0.19925001943E+02 -0.10233347787E+02  0.59302011319E+02  0.50000122723E+02 0.  0.
         12    1    1    2    0    0  0.22693372707E+02  0.19925001943E+02  0.10233347787E+02  0.31885988681E+02  0.00000000000E+00 0. -1.
         11    1    3    3    0    0 -0.16862482214E+02 -0.47903103922E+01 -0.20597423854E+02  0.27047074699E+02  0.51100000000E-03 0. -1.
        -11    1    3    3    0    0 -0.11597677665E+02  0.18257984344E+01  0.79500035688E+01  0.14178935932E+02  0.51100000000E-03 0.  1.
        -12    1    3    3    0    0  0.57667871727E+01 -0.16960489986E+02  0.24140724987E+01  0.18076000688E+02  0.00000000000E+00 0.  1.
</event>
<event>
 7    1  0.6061051E-012  0.5930195E+02  0.7816164E-02  0.1266605E+00
        -11   -1    0    0    0    0  0.00000000000E+00  0.00000000000E+00  0.45593999997E+02  0.45594000000E+02  0.51100000000E-03 0.  1.
         11   -1    0    0    0    0 -0.00000000000E+00 -0.00000000000E+00 -0.45593999997E+02  0.45594000000E+02  0.51100000000E-03 0. -1.
    9900012    2    1    2    0    0 -0.27083903472E+02 -0.13755348051E+02  0.96939564423E+01  0.59301949464E+02  0.50000009915E+02 0.  0.
         12    1    1    2    0    0  0.27083903472E+02  0.13755348051E+02 -0.96939564423E+01  0.31886050536E+02  0.00000000000E+00 0. -1.
         11    1    3    3    0    0 -0.50012416238E+01  0.55454717365E+01 -0.15012032588E+01  0.76169735489E+01  0.51100000000E-03 0. -1.
        -11    1    3    3    0    0 -0.81092571980E+01  0.12357528787E+02  0.83182077495E+01  0.16960576360E+02  0.51100000000E-03 0.  1.
        -12    1    3    3    0    0 -0.13973404650E+02 -0.31658348574E+02  0.28769519517E+01  0.34724399556E+02  0.00000000000E+00 0.  1.
</event>
<event>
 7    1  0.6061051E-012  0.5930195E+02  0.7816164E-02  0.1266605E+00
        -11   -1    0    0    0    0  0.00000000000E+00  0.00000000000E+00  0.45593999997E+02  0.45594000000E+02  0.51100000000E-03 0. -1.
         11   -1    0    0    0    0 -0.00000000000E+00 -0.00000000000E+00 -0.45593999997E+02  0.45594000000E+02  0.51100000000E-03 0.  1.
    9900012    2    1    2    0    0  0.90774776180E+01 -0.18378242611E+02 -0.24424574666E+02  0.59301948990E+02  0.50000009051E+02 0.  0.
         12    1    1    2    0    0 -0.90774776180E+01  0.18378242611E+02  0.24424574666E+02  0.31886051010E+02  0.00000000000E+00 0. -1.
         11    1    3    3    0    0  0.10322857772E+02 -0.84887440414E+00 -0.25789032626E+02  0.27791296918E+02  0.51100000000E-03 0. -1.
        -11    1    3    3    0    0  0.70337938228E+01 -0.93512944200E+01 -0.98903771930E+01  0.15321244210E+02  0.51100000000E-03 0.  1.
        -12    1    3    3    0    0 -0.82791739764E+01 -0.81780737867E+01  0.11254835153E+02  0.16189407862E+02  0.00000000000E+00 0.  1.
</event>
<event>
 7    1  0.6061051E-012  0.5930189E+02  0.7816164E-02  0.1266605E+00
        -11   -1    0    0    0    0  0.00000000000E+00  0.00000000000E+00  0.45593999997E+02  0.45594000000E+02  0.51100000000E-03 0.  1.
         11   -1    0    0    0    0 -0.00000000000E+00 -0.00000000000E+00 -0.45593999997E+02  0.45594000000E+02  0.51100000000E-03 0. -1.
    9900012    2    1    2    0    0  0.50330769275E+01 -0.30038883342E+02 -0.94370423228E+01  0.59301887919E+02  0.49999897672E+02 0.  0.
         12    1    1    2    0    0 -0.50330769275E+01  0.30038883342E+02  0.94370423228E+01  0.31886112081E+02  0.00000000000E+00 0. -1.
         11    1    3    3    0    0  0.14504731212E+00 -0.10503965920E+02  0.12871202149E+02  0.16613915366E+02  0.51100000000E-03 0. -1.
        -11    1    3    3    0    0  0.11652956466E+02 -0.70884311333E+01  0.27393569891E+01  0.13911913143E+02  0.51100000000E-03 0.  1.
         12    1    3    3    0    0 -0.67649268504E+01 -0.12446486289E+02 -0.25047601461E+02  0.28776059410E+02  0.00000000000E+00 0. -1.
</event>
<event>
 7    1  0.6061051E-012  0.5930189E+02  0.7816164E-02  0.1266605E+00
        -11   -1    0    0    0    0  0.00000000000E+00  0.00000000000E+00  0.45593999997E+02  0.45594000000E+02  0.51100000000E-03 0. -1.
         11   -1    0    0    0    0 -0.00000000000E+00 -0.00000000000E+00 -0.45593999997E+02  0.45594000000E+02  0.51100000000E-03 0.  1.
    9900012    2    1    2    0    0  0.14258974237E+02 -0.16572125305E+02 -0.23211422308E+02  0.59301893167E+02  0.49999907242E+02 0.  0.
         12    1    1    2    0    0 -0.14258974237E+02  0.16572125305E+02  0.23211422308E+02  0.31886106833E+02  0.00000000000E+00 0. -1.
         11    1    3    3    0    0 -0.12140276201E+02 -0.16693646676E+02 -0.20551875454E+02  0.29128057445E+02  0.51100000000E-03 0. -1.
        -11    1    3    3    0    0 -0.11563856929E+01  0.46307948376E+00 -0.22977817145E+01  0.26137083900E+01  0.51100000000E-03 0.  1.
         12    1    3    3    0    0  0.27555636131E+02 -0.34155811275E+00 -0.36176513998E+00  0.27560127332E+02  0.00000000000E+00 0. -1.
</event>
<event>
 7    1  0.6061051E-012  0.5930193E+02  0.7816164E-02  0.1266605E+00
        -11   -1    0    0    0    0  0.00000000000E+00  0.00000000000E+00  0.45593999997E+02  0.45594000000E+02  0.51100000000E-03 0. -1.
         11   -1    0    0    0    0 -0.00000000000E+00 -0.00000000000E+00 -0.45593999997E+02  0.45594000000E+02  0.51100000000E-03 0.  1.
    9900012    2    1    2    0    0 -0.35205404679E+01  0.55109749644E+01 -0.31208277514E+02  0.59301927246E+02  0.49999969395E+02 0.  0.
         12    1    1    2    0    0  0.35205404679E+01 -0.55109749644E+01  0.31208277514E+02  0.31886072754E+02  0.00000000000E+00 0. -1.
         11    1    3    3    0    0 -0.86346640500E+01  0.35299861525E+01 -0.20575939598E+01  0.95525870139E+01  0.51100000000E-03 0. -1.
        -11    1    3    3    0    0 -0.13278997786E+02  0.79462860965E+01 -0.25857753608E+02  0.30134675489E+02  0.51100000000E-03 0.  1.
         12    1    3    3    0    0  0.18393121368E+02 -0.59652972846E+01 -0.32929299469E+01  0.19614664744E+02  0.00000000000E+00 0. -1.
</event>
<event>
 7    1  0.6061051E-012  0.5930194E+02  0.7816164E-02  0.1266605E+00
        -11   -1    0    0    0    0  0.00000000000E+00  0.00000000000E+00  0.45593999997E+02  0.45594000000E+02  0.51100000000E-03 0.  1.
         11   -1    0    0    0    0 -0.00000000000E+00 -0.00000000000E+00 -0.45593999997E+02  0.45594000000E+02  0.51100000000E-03 0. -1.
    9900012    2    1    2    0    0 -0.18351698384E+02  0.25807643754E+02  0.37284678605E+01  0.59301940628E+02  0.49999993799E+02 0.  0.
         12    1    1    2    0    0  0.18351698384E+02 -0.25807643754E+02 -0.37284678605E+01  0.31886059372E+02  0.00000000000E+00 0. -1.
         11    1    3    3    0    0  0.45285191560E+01  0.39656802669E+01 -0.41918011211E+01  0.73352097874E+01  0.51100000000E-03 0. -1.
        -11    1    3    3    0    0  0.83454106211E+01  0.17753146831E+02  0.55430896118E+01  0.20384944040E+02  0.51100000000E-03 0.  1.
        -12    1    3    3    0    0 -0.31225628161E+02  0.40888166565E+01  0.23771793698E+01  0.31581786800E+02  0.00000000000E+00 0.  1.
</event>
<event>
 7    1  0.6061051E-012  0.5930204E+02  0.7816164E-02  0.1266604E+00
        -11   -1    0    0    0    0  0.00000000000E+00  0.00000000000E+00  0.45593999997E+02  0.45594000000E+02  0.51100000000E-03 0.  1.
         11   -1    0    0    0    0 -0.00000000000E+00 -0.00000000000E+00 -0.45593999997E+02  0.45594000000E+02  0.51100000000E-03 0. -1.
    9900012    2    1    2    0    0  0.20263992077E+02  0.14751051828E+02  0.19710182758E+02  0.59302043698E+02  0.50000181774E+02 0.  0.
         12    1    1    2    0    0 -0.20263992077E+02 -0.14751051828E+02 -0.19710182758E+02  0.31885956302E+02  0.00000000000E+00 0. -1.
         11    1    3    3    0    0 -0.74519969928E+01  0.58269679665E+01  0.68373408425E+00  0.94843717463E+01  0.51100000000E-03 0. -1.
        -11    1    3    3    0    0 -0.56223589543E+01  0.72652794912E+01  0.12968717896E+02  0.15892855326E+02  0.51100000000E-03 0.  1.
        -12    1    3    3    0    0  0.33338348024E+02  0.16588043704E+01  0.60577307785E+01  0.33924816626E+02  0.00000000000E+00 0.  1.
</event>
<event>
 7    1  0.6061051E-012  0.5930193E+02  0.7816164E-02  0.1266605E+00
        -11   -1    0    0    0    0  0.00000000000E+00  0.00000000000E+00  0.45593999997E+02  0.45594000000E+02  0.51100000000E-03 0.  1.
         11   -1    0    0    0    0 -0.00000000000E+00 -0.00000000000E+00 -0.45593999997E+02  0.45594000000E+02  0.51100000000E-03 0. -1.
    9900012    2    1    2    0    0 -0.64204630693E+01  0.14774982487E+02  0.27517250706E+02  0.59301928747E+02  0.49999972132E+02 0.  0.
         12    1    1    2    0    0  0.64204630693E+01 -0.14774982487E+02 -0.27517250706E+02  0.31886071253E+02  0.00000000000E+00 0. -1.
         11    1    3    3    0    0  0.75182300189E+01  0.55426697212E+01 -0.60115339475E+01  0.11107813057E+02  0.51100000000E-03 0. -1.
        -11    1    3    3    0    0  0.89186948051E+01  0.92860649171E+00  0.15552978074E+02  0.17952731109E+02  0.51100000000E-03 0.  1.
         12    1    3    3    0    0 -0.22857387893E+02  0.83037062738E+01  0.17975806580E+02  0.30241384581E+02  0.00000000000E+00 0. -1.
</event>
<event>
 7    1  0.6061051E-012  0.5930193E+02  0.7816164E-02  0.1266605E+00
        -11   -1    0    0    0    0  0.00000000000E+00  0.00000000000E+00  0.45593999997E+02  0.45594000000E+02  0.51100000000E-03 0.  1.
         11   -1    0    0    0    0 -0.00000000000E+00 -0.00000000000E+00 -0.45593999997E+02  0.45594000000E+02  0.51100000000E-03 0. -1.
    9900012    2    1    2    0    0  0.16213958510E+02 -0.25294976862E+02  0.10676764521E+02  0.59301927716E+02  0.49999970252E+02 0.  0.
         12    1    1    2    0    0 -0.16213958510E+02  0.25294976862E+02 -0.10676764521E+02  0.31886072284E+02  0.00000000000E+00 0. -1.
         11    1    3    3    0    0  0.47124169758E+01 -0.18967395101E+01  0.20515575039E+01  0.54784471318E+01  0.51100000000E-03 0. -1.
        -11    1    3    3    0    0  0.88016310776E+01  0.13321318515E+02  0.54381505718E+01  0.16867119449E+02  0.51100000000E-03 0.  1.
         12    1    3    3    0    0  0.26999104564E+01 -0.36719555868E+02  0.31870564457E+01  0.36956361135E+02  0.00000000000E+00 0. -1.
</event>
<event>
 7    1  0.6061051E-012  0.5930195E+02  0.7816164E-02  0.1266605E+00
        -11   -1    0    0    0    0  0.00000000000E+00  0.00000000000E+00  0.45593999997E+02  0.45594000000E+02  0.51100000000E-03 0.  1.
         11   -1    0    0    0    0 -0.00000000000E+00 -0.00000000000E+00 -0.45593999997E+02  0.45594000000E+02  0.51100000000E-03 0. -1.
    9900012    2    1    2    0    0 -0.99705291730E+01 -0.28284714897E+02  0.10829755623E+02  0.59301950454E+02  0.50000011720E+02 0.  0.
         12    1    1    2    0    0  0.99705291730E+01  0.28284714897E+02 -0.10829755623E+02  0.31886049546E+02  0.00000000000E+00 0. -1.
         11    1    3    3    0    0  0.10529200140E+02  0.78387101482E+00  0.60708614597E+01  0.12179239241E+02  0.51100000000E-03 0. -1.
        -11    1    3    3    0    0 -0.16237797233E+02 -0.18482458454E+02  0.17368929324E+02  0.30115561353E+02  0.51100000000E-03 0.  1.
         12    1    3    3    0    0 -0.42619320804E+01 -0.10586127458E+02 -0.12610035161E+02  0.17007149860E+02  0.00000000000E+00 0. -1.
</event>
<event>
 7    1  0.6061051E-012  0.5930193E+02  0.7816164E-02  0.1266605E+00
        -11   -1    0    0    0    0  0.00000000000E+00  0.00000000000E+00  0.45593999997E+02  0.45594000000E+02  0.51100000000E-03 0.  1.
         11   -1    0    0    0    0 -0.00000000000E+00 -0.00000000000E+00 -0.45593999997E+02  0.45594000000E+02  0.51100000000E-03 0. -1.
    9900012    2    1    2    0    0  0.31190336850E+02 -0.47299751934E+01 -0.46380504436E+01  0.59301932665E+02  0.49999979278E+02 0.  0.
         12    1    1    2    0    0 -0.31190336850E+02  0.47299751934E+01  0.46380504436E+01  0.31886067335E+02  0.00000000000E+00 0. -1.
         11    1    3    3    0    0  0.51072750858E+01  0.29701630881E+01 -0.26459048360E+01  0.64735570001E+01  0.51100000000E-03 0. -1.
        -11    1    3    3    0    0  0.22404305508E+02  0.82446055232E+01  0.15821279350E+02  0.28639820287E+02  0.51100000000E-03 0.  1.
         12    1    3    3    0    0  0.36787562563E+01 -0.15944743805E+02 -0.17813424957E+02  0.24188555379E+02  0.00000000000E+00 0. -1.
</event>
<event>
 7    1  0.6061051E-012  0.5930194E+02  0.7816164E-02  0.1266605E+00
        -11   -1    0    0    0    0  0.00000000000E+00  0.00000000000E+00  0.45593999997E+02  0.45594000000E+02  0.51100000000E-03 0.  1.
         11   -1    0    0    0    0 -0.00000000000E+00 -0.00000000000E+00 -0.45593999997E+02  0.45594000000E+02  0.51100000000E-03 0. -1.
    9900012    2    1    2    0    0 -0.10483803759E+02  0.21786475233E+02 -0.20788466071E+02  0.59301937749E+02  0.49999988549E+02 0.  0.
         12    1    1    2    0    0  0.10483803759E+02 -0.21786475233E+02  0.20788466071E+02  0.31886062251E+02  0.00000000000E+00 0. -1.
         11    1    3    3    0    0  0.92890491655E+01  0.23855330677E+01  0.12800754055E+00  0.95913288239E+01  0.51100000000E-03 0. -1.
        -11    1    3    3    0    0  0.97972002791E+01  0.19145929306E+00 -0.37482762477E+01  0.10491490126E+02  0.51100000000E-03 0.  1.
        -12    1    3    3    0    0 -0.29570053203E+02  0.19209482872E+02 -0.17168197364E+02  0.39219118799E+02  0.00000000000E+00 0.  1.
</event>
<event>
 7    1  0.6061051E-012  0.5930196E+02  0.7816164E-02  0.1266605E+00
        -11   -1    0    0    0    0  0.00000000000E+00  0.00000000000E+00  0.45593999997E+02  0.45594000000E+02  0.51100000000E-03 0. -1.
         11   -1    0    0    0    0 -0.00000000000E+00 -0.00000000000E+00 -0.45593999997E+02  0.45594000000E+02  0.51100000000E-03 0.  1.
    9900012    2    1    2    0    0 -0.28056852928E+02 -0.73475860447E+00 -0.15132507505E+02  0.59301958386E+02  0.50000026185E+02 0.  0.
         12    1    1    2    0    0  0.28056852928E+02  0.73475860447E+00  0.15132507505E+02  0.31886041614E+02  0.00000000000E+00 0. -1.
         11    1    3    3    0    0  0.10384393297E+01  0.60520056233E+01 -0.34452087560E+01  0.70409226625E+01  0.51100000000E-03 0. -1.
        -11    1    3    3    0    0 -0.34551260001E+02 -0.23778178286E+00 -0.20356880873E+02  0.40102976286E+02  0.51100000000E-03 0.  1.
         12    1    3    3    0    0  0.54559677433E+01 -0.65489824449E+01  0.86695821238E+01  0.12158059437E+02  0.00000000000E+00 0. -1.
</event>
<event>
 7    1  0.6061051E-012  0.5930197E+02  0.7816164E-02  0.1266605E+00
        -11   -1    0    0    0    0  0.00000000000E+00  0.00000000000E+00  0.45593999997E+02  0.45594000000E+02  0.51100000000E-03 0.  1.
         11   -1    0    0    0    0 -0.00000000000E+00 -0.00000000000E+00 -0.45593999997E+02  0.45594000000E+02  0.51100000000E-03 0. -1.
    9900012    2    1    2    0    0 -0.23296193871E+02  0.11724111388E+01  0.21740096329E+02  0.59301968809E+02  0.50000045194E+02 0.  0.
         12    1    1    2    0    0  0.23296193871E+02 -0.11724111388E+01 -0.21740096329E+02  0.31886031191E+02  0.00000000000E+00 0. -1.
         11    1    3    3    0    0 -0.17708545249E+02  0.21975985025E+01 -0.10171137269E+02  0.20539572723E+02  0.51100000000E-03 0. -1.
        -11    1    3    3    0    0  0.20929557438E+01 -0.54583451870E+01  0.21593753944E+00  0.58498397591E+01  0.51100000000E-03 0.  1.
        -12    1    3    3    0    0 -0.76806043652E+01  0.44331578232E+01  0.31695296059E+02  0.32912556327E+02  0.00000000000E+00 0.  1.
</event>
<event>
 7    1  0.6061051E-012  0.5930195E+02  0.7816164E-02  0.1266605E+00
        -11   -1    0    0    0    0  0.00000000000E+00  0.00000000000E+00  0.45593999997E+02  0.45594000000E+02  0.51100000000E-03 0.  1.
         11   -1    0    0    0    0 -0.00000000000E+00 -0.00000000000E+00 -0.45593999997E+02  0.45594000000E+02  0.51100000000E-03 0. -1.
    9900012    2    1    2    0    0  0.37172732440E+00  0.75097367832E+01  0.30986866684E+02  0.59301949215E+02  0.50000009461E+02 0.  0.
         12    1    1    2    0    0 -0.37172732440E+00 -0.75097367832E+01 -0.30986866684E+02  0.31886050785E+02  0.00000000000E+00 0. -1.
         11    1    3    3    0    0 -0.86775142871E+00  0.18654781975E+02  0.10686033688E+02  0.21516161352E+02  0.51100000000E-03 0. -1.
        -11    1    3    3    0    0 -0.98852514964E+01  0.32358877759E+01  0.16030669561E+02  0.19109461889E+02  0.51100000000E-03 0.  1.
         12    1    3    3    0    0  0.11124730250E+02 -0.14380932968E+02  0.42701634352E+01  0.18676325975E+02  0.00000000000E+00 0. -1.
</event>
<event>
 7    1  0.6061051E-012  0.5930194E+02  0.7816164E-02  0.1266605E+00
        -11   -1    0    0    0    0  0.00000000000E+00  0.00000000000E+00  0.45593999997E+02  0.45594000000E+02  0.51100000000E-03 0.  1.
         11   -1    0    0    0    0 -0.00000000000E+00 -0.00000000000E+00 -0.45593999997E+02  0.45594000000E+02  0.51100000000E-03 0. -1.
    9900012    2    1    2    0    0  0.14237118636E+02  0.17883414493E+02  0.22230800119E+02  0.59301944506E+02  0.50000000873E+02 0.  0.
         12    1    1    2    0    0 -0.14237118636E+02 -0.17883414493E+02 -0.22230800119E+02  0.31886055494E+02  0.00000000000E+00 0. -1.
         11    1    3    3    0    0  0.60442671582E+01 -0.42466943775E+01 -0.87720046715E-01  0.73875079481E+01  0.51100000000E-03 0. -1.
        -11    1    3    3    0    0  0.24350634141E+02  0.17079382892E+02  0.16501669020E+02  0.34014170338E+02  0.51100000000E-03 0.  1.
         12    1    3    3    0    0 -0.16157782663E+02  0.50507259790E+01  0.58168511457E+01  0.17900266220E+02  0.00000000000E+00 0. -1.
</event>
<event>
 7    1  0.6061051E-012  0.5930195E+02  0.7816164E-02  0.1266605E+00
        -11   -1    0    0    0    0  0.00000000000E+00  0.00000000000E+00  0.45593999997E+02  0.45594000000E+02  0.51100000000E-03 0.  1.
         11   -1    0    0    0    0 -0.00000000000E+00 -0.00000000000E+00 -0.45593999997E+02  0.45594000000E+02  0.51100000000E-03 0. -1.
    9900012    2    1    2    0    0  0.19956587045E+02 -0.17260121134E+02  0.17903713794E+02  0.59301951081E+02  0.50000012864E+02 0.  0.
         12    1    1    2    0    0 -0.19956587045E+02  0.17260121134E+02 -0.17903713794E+02  0.31886048919E+02  0.00000000000E+00 0. -1.
         11    1    3    3    0    0 -0.64849972173E+01  0.22965832134E+01  0.15220187247E+02  0.16702801665E+02  0.51100000000E-03 0. -1.
        -11    1    3    3    0    0 -0.40173901974E+01 -0.94786107402E+01  0.21220761910E+01  0.10511265061E+02  0.51100000000E-03 0.  1.
         12    1    3    3    0    0  0.30458974460E+02 -0.10078093607E+02  0.56145035540E+00  0.32087884355E+02  0.00000000000E+00 0. -1.
</event>
<event>
 7    1  0.6061051E-012  0.5930192E+02  0.7816164E-02  0.1266605E+00
        -11   -1    0    0    0    0  0.00000000000E+00  0.00000000000E+00  0.45593999997E+02  0.45594000000E+02  0.51100000000E-03 0.  1.
         11   -1    0    0    0    0 -0.00000000000E+00 -0.00000000000E+00 -0.45593999997E+02  0.45594000000E+02  0.51100000000E-03 0. -1.
    9900012    2    1    2    0    0 -0.63290755540E+01 -0.80144474253E+01  0.30206513724E+02  0.59301920965E+02  0.49999957939E+02 0.  0.
         12    1    1    2    0    0  0.63290755540E+01  0.80144474253E+01 -0.30206513724E+02  0.31886079035E+02  0.00000000000E+00 0. -1.
         11    1    3    3    0    0  0.46722772844E+01 -0.85601087425E+01  0.14256629231E+01  0.98558688981E+01  0.51100000000E-03 0.  1.
        -11    1    3    3    0    0 -0.99431556322E+01  0.78986574580E+01 -0.58829601881E+01  0.13995154676E+02  0.51100000000E-03 0. -1.
         12    1    3    3    0    0 -0.10581972062E+01 -0.73529961408E+01  0.34663810989E+02  0.35450897391E+02  0.00000000000E+00 0. -1.
</event>
<event>
 7    1  0.6061051E-012  0.5930189E+02  0.7816164E-02  0.1266605E+00
        -11   -1    0    0    0    0  0.00000000000E+00  0.00000000000E+00  0.45593999997E+02  0.45594000000E+02  0.51100000000E-03 0.  1.
         11   -1    0    0    0    0 -0.00000000000E+00 -0.00000000000E+00 -0.45593999997E+02  0.45594000000E+02  0.51100000000E-03 0. -1.
    9900012    2    1    2    0    0  0.44491199414E+01  0.31232186990E+02 -0.46346025802E+01  0.59301894664E+02  0.49999909972E+02 0.  0.
         12    1    1    2    0    0 -0.44491199414E+01 -0.31232186990E+02  0.46346025802E+01  0.31886105336E+02  0.00000000000E+00 0. -1.
         11    1    3    3    0    0 -0.56784775258E+01 -0.26198118564E+01 -0.12949754974E+02  0.14380704966E+02  0.51100000000E-03 0. -1.
        -11    1    3    3    0    0  0.46817335702E+01  0.17073666324E+01  0.11132526492E+02  0.12197002763E+02  0.51100000000E-03 0.  1.
         12    1    3    3    0    0  0.54458638970E+01  0.32144632214E+02 -0.28173740981E+01  0.32724186935E+02  0.00000000000E+00 0. -1.
</event>
<event>
 7    1  0.6061051E-012  0.5930194E+02  0.7816164E-02  0.1266605E+00
        -11   -1    0    0    0    0  0.00000000000E+00  0.00000000000E+00  0.45593999997E+02  0.45594000000E+02  0.51100000000E-03 0. -1.
         11   -1    0    0    0    0 -0.00000000000E+00 -0.00000000000E+00 -0.45593999997E+02  0.45594000000E+02  0.51100000000E-03 0.  1.
    9900012    2    1    2    0    0  0.61724365364E+01 -0.33802670488E+01 -0.31099766890E+02  0.59301942251E+02  0.49999996760E+02 0.  0.
         12    1    1    2    0    0 -0.61724365364E+01  0.33802670488E+01  0.31099766890E+02  0.31886057749E+02  0.00000000000E+00 0. -1.
         11    1    3    3    0    0 -0.25813647107E+01  0.30150290367E+01 -0.56755858656E+01  0.69257576510E+01  0.51100000000E-03 0. -1.
        -11    1    3    3    0    0  0.88096178039E+01 -0.18962438190E+01 -0.37982146968E+02  0.39036503366E+02  0.51100000000E-03 0.  1.
         12    1    3    3    0    0 -0.55816556761E-01 -0.44990522664E+01  0.12557965944E+02  0.13339681234E+02  0.00000000000E+00 0. -1.
</event>
<event>
 7    1  0.6061051E-012  0.5930185E+02  0.7816164E-02  0.1266605E+00
        -11   -1    0    0    0    0  0.00000000000E+00  0.00000000000E+00  0.45593999997E+02  0.45594000000E+02  0.51100000000E-03 0.  1.
         11   -1    0    0    0    0 -0.00000000000E+00 -0.00000000000E+00 -0.45593999997E+02  0.45594000000E+02  0.51100000000E-03 0. -1.
    9900012    2    1    2    0    0  0.15374182124E+02 -0.26186124651E+02 -0.97287067902E+01  0.59301853540E+02  0.49999834972E+02 0.  0.
         12    1    1    2    0    0 -0.15374182124E+02  0.26186124651E+02  0.97287067902E+01  0.31886146460E+02  0.00000000000E+00 0. -1.
         11    1    3    3    0    0 -0.74538758656E+01 -0.10888208968E+02 -0.42560747611E+01  0.13864614404E+02  0.51100000000E-03 0. -1.
        -11    1    3    3    0    0 -0.93539044489E+01 -0.41081087773E+01  0.23407428870E+01  0.10480990587E+02  0.51100000000E-03 0.  1.
        -12    1    3    3    0    0  0.32181962439E+02 -0.11189806906E+02 -0.78133749160E+01  0.34956248549E+02  0.00000000000E+00 0.  1.
</event>
<event>
 7    1  0.6061051E-012  0.5930195E+02  0.7816164E-02  0.1266605E+00
        -11   -1    0    0    0    0  0.00000000000E+00  0.00000000000E+00  0.45593999997E+02  0.45594000000E+02  0.51100000000E-03 0. -1.
         11   -1    0    0    0    0 -0.00000000000E+00 -0.00000000000E+00 -0.45593999997E+02  0.45594000000E+02  0.51100000000E-03 0.  1.
    9900012    2    1    2    0    0  0.12793027427E+02 -0.24170777057E+02 -0.16396101214E+02  0.59301950553E+02  0.50000011901E+02 0.  0.
         12    1    1    2    0    0 -0.12793027427E+02  0.24170777057E+02  0.16396101214E+02  0.31886049447E+02  0.00000000000E+00 0. -1.
         11    1    3    3    0    0 -0.12074639533E+02 -0.22052000018E+02 -0.90065792293E+01  0.26705918713E+02  0.51100000000E-03 0. -1.
        -11    1    3    3    0    0  0.43399938432E+01 -0.58446325938E+01 -0.91109120034E+01  0.11662075052E+02  0.51100000000E-03 0.  1.
        -12    1    3    3    0    0  0.20527673117E+02  0.37258555547E+01  0.17213900183E+01  0.20933956788E+02  0.00000000000E+00 0.  1.
</event>
<event>
 7    1  0.6061051E-012  0.5930188E+02  0.7816164E-02  0.1266605E+00
        -11   -1    0    0    0    0  0.00000000000E+00  0.00000000000E+00  0.45593999997E+02  0.45594000000E+02  0.51100000000E-03 0.  1.
         11   -1    0    0    0    0 -0.00000000000E+00 -0.00000000000E+00 -0.45593999997E+02  0.45594000000E+02  0.51100000000E-03 0. -1.
    9900012    2    1    2    0    0  0.27880086618E+02 -0.23435844838E+01  0.15294864179E+02  0.59301882514E+02  0.49999887814E+02 0.  0.
         12    1    1    2    0    0 -0.27880086618E+02  0.23435844838E+01 -0.15294864179E+02  0.31886117486E+02  0.00000000000E+00 0. -1.
         11    1    3    3    0    0  0.61713141694E+01  0.15723858681E+02 -0.50596445391E+01  0.17633061377E+02  0.51100000000E-03 0. -1.
        -11    1    3    3    0    0  0.48943558175E+01  0.55202310066E+01  0.46069220226E+01  0.86977813274E+01  0.51100000000E-03 0.  1.
        -12    1    3    3    0    0  0.16814416631E+02 -0.23587674171E+02  0.15747586695E+02  0.32971039810E+02  0.00000000000E+00 0.  1.
</event>
<event>
 7    1  0.6061051E-012  0.5930197E+02  0.7816164E-02  0.1266605E+00
        -11   -1    0    0    0    0  0.00000000000E+00  0.00000000000E+00  0.45593999997E+02  0.45594000000E+02  0.51100000000E-03 0.  1.
         11   -1    0    0    0    0 -0.00000000000E+00 -0.00000000000E+00 -0.45593999997E+02  0.45594000000E+02  0.51100000000E-03 0. -1.
    9900012    2    1    2    0    0  0.13179028425E+02 -0.27811010255E+02  0.83414637344E+01  0.59301967025E+02  0.50000041942E+02 0.  0.
         12    1    1    2    0    0 -0.13179028425E+02  0.27811010255E+02 -0.83414637344E+01  0.31886032975E+02  0.00000000000E+00 0. -1.
         11    1    3    3    0    0  0.11318668703E+02 -0.33460755094E+02  0.50788985255E+00  0.35326935121E+02  0.51100000000E-03 0. -1.
        -11    1    3    3    0    0  0.10618164821E+02 -0.22621264679E+01  0.38137847150E+01  0.11506849892E+02  0.51100000000E-03 0.  1.
         12    1    3    3    0    0 -0.87578050989E+01  0.79118713078E+01  0.40197891668E+01  0.12468182012E+02  0.00000000000E+00 0. -1.
</event>
<event>
 7    1  0.6061051E-012  0.5930192E+02  0.7816164E-02  0.1266605E+00
        -11   -1    0    0    0    0  0.00000000000E+00  0.00000000000E+00  0.45593999997E+02  0.45594000000E+02  0.51100000000E-03 0. -1.
         11   -1    0    0    0    0 -0.00000000000E+00 -0.00000000000E+00 -0.45593999997E+02  0.45594000000E+02  0.51100000000E-03 0.  1.
    9900012    2    1    2    0    0  0.25960516718E+02 -0.16827979627E+02 -0.77196319511E+01  0.59301920842E+02  0.49999957715E+02 0.  0.
         12    1    1    2    0    0 -0.25960516718E+02  0.16827979627E+02  0.77196319511E+01  0.31886079158E+02  0.00000000000E+00 0. -1.
         11    1    3    3    0    0  0.72772703193E+01  0.10893464049E+02  0.14766755856E+01  0.13183580445E+02  0.51100000000E-03 0. -1.
        -11    1    3    3    0    0  0.16776601057E+02  0.15373746565E+00 -0.24473963336E+00  0.16779090439E+02  0.51100000000E-03 0.  1.
        -12    1    3    3    0    0  0.19066453422E+01 -0.27875181142E+02 -0.89515679034E+01  0.29339249958E+02  0.00000000000E+00 0.  1.
</event>
<event>
 7    1  0.6061051E-012  0.5930193E+02  0.7816164E-02  0.1266605E+00
        -11   -1    0    0    0    0  0.00000000000E+00  0.00000000000E+00  0.45593999997E+02  0.45594000000E+02  0.51100000000E-03 0.  1.
         11   -1    0    0    0    0 -0.00000000000E+00 -0.00000000000E+00 -0.45593999997E+02  0.45594000000E+02  0.51100000000E-03 0. -1.
    9900012    2    1    2    0    0  0.30840875512E+02 -0.70204089273E+01  0.40343128438E+01  0.59301930565E+02  0.49999975448E+02 0.  0.
         12    1    1    2    0    0 -0.30840875512E+02  0.70204089273E+01 -0.40343128438E+01  0.31886069435E+02  0.00000000000E+00 0. -1.
         11    1    3    3    0    0  0.56240997660E-01 -0.49350320422E+01 -0.13089404992E+02  0.13988932326E+02  0.51100000000E-03 0. -1.
        -11    1    3    3    0    0  0.30301970876E+02 -0.22169094776E+01  0.22881483619E+01  0.30468996534E+02  0.51100000000E-03 0.  1.
        -12    1    3    3    0    0  0.48266363829E+00  0.13153259256E+00  0.14835569474E+02  0.14844001705E+02  0.00000000000E+00 0.  1.
</event>
<event>
 7    1  0.6061051E-012  0.5930194E+02  0.7816164E-02  0.1266605E+00
        -11   -1    0    0    0    0  0.00000000000E+00  0.00000000000E+00  0.45593999997E+02  0.45594000000E+02  0.51100000000E-03 0. -1.
         11   -1    0    0    0    0 -0.00000000000E+00 -0.00000000000E+00 -0.45593999997E+02  0.45594000000E+02  0.51100000000E-03 0.  1.
    9900012    2    1    2    0    0  0.92178070930E+01 -0.83769661299E+01 -0.29352673600E+02  0.59301937580E+02  0.49999988241E+02 0.  0.
         12    1    1    2    0    0 -0.92178070930E+01  0.83769661299E+01  0.29352673600E+02  0.31886062420E+02  0.00000000000E+00 0. -1.
         11    1    3    3    0    0 -0.14185713627E+02  0.45092271933E+01 -0.91258015289E+01  0.17459892748E+02  0.51100000000E-03 0. -1.
        -11    1    3    3    0    0  0.10712532222E+02 -0.86906905492E+01 -0.24236435476E+02  0.27887116267E+02  0.51100000000E-03 0.  1.
        -12    1    3    3    0    0  0.12690988497E+02 -0.41955027740E+01  0.40095634047E+01  0.13954928565E+02  0.00000000000E+00 0.  1.
</event>
<event>
 7    1  0.6061051E-012  0.5930191E+02  0.7816164E-02  0.1266605E+00
        -11   -1    0    0    0    0  0.00000000000E+00  0.00000000000E+00  0.45593999997E+02  0.45594000000E+02  0.51100000000E-03 0.  1.
         11   -1    0    0    0    0 -0.00000000000E+00 -0.00000000000E+00 -0.45593999997E+02  0.45594000000E+02  0.51100000000E-03 0. -1.
    9900012    2    1    2    0    0  0.16604454359E+02  0.23829032741E+02  0.13160233449E+02  0.59301914471E+02  0.49999946095E+02 0.  0.
         12    1    1    2    0    0 -0.16604454359E+02 -0.23829032741E+02 -0.13160233449E+02  0.31886085529E+02  0.00000000000E+00 0. -1.
         11    1    3    3    0    0  0.25416663397E+02 -0.34777985427E+01  0.13560623582E+01  0.25689312298E+02  0.51100000000E-03 0. -1.
        -11    1    3    3    0    0  0.13560579892E+01  0.21324666186E+01 -0.19359726542E+01  0.31834411457E+01  0.51100000000E-03 0.  1.
        -12    1    3    3    0    0 -0.10168267028E+02  0.25174364666E+02  0.13740143745E+02  0.30429161027E+02  0.00000000000E+00 0.  1.
</event>
<event>
 7    1  0.6061051E-012  0.5930194E+02  0.7816164E-02  0.1266605E+00
        -11   -1    0    0    0    0  0.00000000000E+00  0.00000000000E+00  0.45593999997E+02  0.45594000000E+02  0.51100000000E-03 0.  1.
         11   -1    0    0    0    0 -0.00000000000E+00 -0.00000000000E+00 -0.45593999997E+02  0.45594000000E+02  0.51100000000E-03 0. -1.
    9900012    2    1    2    0    0 -0.28009054615E+02 -0.15196846168E+02 -0.11267176850E+01  0.59301940873E+02  0.49999994247E+02 0.  0.
         12    1    1    2    0    0  0.28009054615E+02  0.15196846168E+02  0.11267176850E+01  0.31886059127E+02  0.00000000000E+00 0. -1.
         11    1    3    3    0    0  0.36949111718E+01  0.59699760678E+01  0.10975757878E+02  0.13029207347E+02  0.51100000000E-03 0. -1.
        -11    1    3    3    0    0 -0.22299410005E+02 -0.37642408965E+01  0.84552567748E+00  0.22630689561E+02  0.51100000000E-03 0.  1.
        -12    1    3    3    0    0 -0.94045557824E+01 -0.17402581339E+02 -0.12948001241E+02  0.23642043965E+02  0.00000000000E+00 0.  1.
</event>
<event>
 7    1  0.6061051E-012  0.5930176E+02  0.7816164E-02  0.1266605E+00
        -11   -1    0    0    0    0  0.00000000000E+00  0.00000000000E+00  0.45593999997E+02  0.45594000000E+02  0.51100000000E-03 0.  1.
         11   -1    0    0    0    0 -0.00000000000E+00 -0.00000000000E+00 -0.45593999997E+02  0.45594000000E+02  0.51100000000E-03 0. -1.
    9900012    2    1    2    0    0  0.69540409939E+00  0.25047026632E+02  0.19720419127E+02  0.59301763777E+02  0.49999671264E+02 0.  0.
         12    1    1    2    0    0 -0.69540409939E+00 -0.25047026632E+02 -0.19720419127E+02  0.31886236223E+02  0.00000000000E+00 0. -1.
         11    1    3    3    0    0  0.18079393506E+02  0.39261635788E+01  0.32705053591E+01  0.18787640500E+02  0.51100000000E-03 0. -1.
        -11    1    3    3    0    0 -0.83041820617E+01  0.10997262487E+02 -0.53813167379E+01  0.14793843044E+02  0.51100000000E-03 0.  1.
        -12    1    3    3    0    0 -0.90798073449E+01  0.10123600566E+02  0.21831230506E+02  0.25720280233E+02  0.00000000000E+00 0.  1.
</event>
<event>
 7    1  0.6061051E-012  0.5930194E+02  0.7816164E-02  0.1266605E+00
        -11   -1    0    0    0    0  0.00000000000E+00  0.00000000000E+00  0.45593999997E+02  0.45594000000E+02  0.51100000000E-03 0. -1.
         11   -1    0    0    0    0 -0.00000000000E+00 -0.00000000000E+00 -0.45593999997E+02  0.45594000000E+02  0.51100000000E-03 0.  1.
    9900012    2    1    2    0    0  0.30589220825E+02 -0.53134025843E+01 -0.72655409461E+01  0.59301940932E+02  0.49999994353E+02 0.  0.
         12    1    1    2    0    0 -0.30589220825E+02  0.53134025843E+01  0.72655409461E+01  0.31886059068E+02  0.00000000000E+00 0. -1.
         11    1    3    3    0    0  0.34404324822E+02  0.67317613741E+01 -0.14191711312E+02  0.37820349653E+02  0.51100000000E-03 0.  1.
        -11    1    3    3    0    0 -0.32969007517E+01 -0.31984381377E+01 -0.48916010959E+01  0.67102401320E+01  0.51100000000E-03 0. -1.
        -12    1    3    3    0    0 -0.51820324614E+00 -0.88467258208E+01  0.11817771462E+02  0.14771351146E+02  0.00000000000E+00 0.  1.
</event>
<event>
 7    1  0.6061051E-012  0.5930206E+02  0.7816164E-02  0.1266604E+00
        -11   -1    0    0    0    0  0.00000000000E+00  0.00000000000E+00  0.45593999997E+02  0.45594000000E+02  0.51100000000E-03 0. -1.
         11   -1    0    0    0    0 -0.00000000000E+00 -0.00000000000E+00 -0.45593999997E+02  0.45594000000E+02  0.51100000000E-03 0.  1.
    9900012    2    1    2    0    0  0.16351563505E+02 -0.13286750029E+01 -0.27341805924E+02  0.59302057055E+02  0.50000206134E+02 0.  0.
         12    1    1    2    0    0 -0.16351563505E+02  0.13286750029E+01  0.27341805924E+02  0.31885942945E+02  0.00000000000E+00 0. -1.
         11    1    3    3    0    0 -0.41296144902E+01  0.51050795511E+01 -0.22599509312E+01  0.69442732905E+01  0.51100000000E-03 0. -1.
        -11    1    3    3    0    0 -0.60071348643E+01 -0.80349160442E+01  0.58416536808E+01  0.11609068141E+02  0.51100000000E-03 0.  1.
        -12    1    3    3    0    0  0.26488312860E+02  0.16011614902E+01 -0.30923508673E+02  0.40748715623E+02  0.00000000000E+00 0.  1.
</event>
<event>
 7    1  0.6061051E-012  0.5930194E+02  0.7816164E-02  0.1266605E+00
        -11   -1    0    0    0    0  0.00000000000E+00  0.00000000000E+00  0.45593999997E+02  0.45594000000E+02  0.51100000000E-03 0. -1.
         11   -1    0    0    0    0 -0.00000000000E+00 -0.00000000000E+00 -0.45593999997E+02  0.45594000000E+02  0.51100000000E-03 0.  1.
    9900012    2    1    2    0    0 -0.92456909869E+01 -0.15168846055E+02 -0.26479130927E+02  0.59301936161E+02  0.49999985654E+02 0.  0.
         12    1    1    2    0    0  0.92456909869E+01  0.15168846055E+02  0.26479130927E+02  0.31886063839E+02  0.00000000000E+00 0. -1.
         11    1    3    3    0    0 -0.14463224136E+02  0.82050411435E+01 -0.11239873506E+02  0.20070931949E+02  0.51100000000E-03 0. -1.
        -11    1    3    3    0    0 -0.59901688350E+01 -0.47692760111E+01  0.53202978546E+01  0.93238235647E+01  0.51100000000E-03 0.  1.
        -12    1    3    3    0    0  0.11207701984E+02 -0.18604611188E+02 -0.20559555275E+02  0.29907180648E+02  0.00000000000E+00 0.  1.
</event>
<event>
 7    1  0.6061051E-012  0.5930194E+02  0.7816164E-02  0.1266605E+00
        -11   -1    0    0    0    0  0.00000000000E+00  0.00000000000E+00  0.45593999997E+02  0.45594000000E+02  0.51100000000E-03 0. -1.
         11   -1    0    0    0    0 -0.00000000000E+00 -0.00000000000E+00 -0.45593999997E+02  0.45594000000E+02  0.51100000000E-03 0.  1.
    9900012    2    1    2    0    0 -0.25871204109E+02  0.18369731704E+02 -0.31550732185E+01  0.59301941417E+02  0.49999995238E+02 0.  0.
         12    1    1    2    0    0  0.25871204109E+02 -0.18369731704E+02  0.31550732185E+01  0.31886058583E+02  0.00000000000E+00 0. -1.
         11    1    3    3    0    0 -0.17884104952E+01  0.17645579785E+02  0.38978861723E+01  0.18159251497E+02  0.51100000000E-03 0. -1.
        -11    1    3    3    0    0 -0.53079698144E+01  0.13153070329E+02  0.56764892063E+01  0.15277445225E+02  0.51100000000E-03 0.  1.
        -12    1    3    3    0    0 -0.18774823800E+02 -0.12428918410E+02 -0.12729448597E+02  0.25865244695E+02  0.00000000000E+00 0.  1.
</event>
<event>
 7    1  0.6061051E-012  0.5930198E+02  0.7816164E-02  0.1266605E+00
        -11   -1    0    0    0    0  0.00000000000E+00  0.00000000000E+00  0.45593999997E+02  0.45594000000E+02  0.51100000000E-03 0.  1.
         11   -1    0    0    0    0 -0.00000000000E+00 -0.00000000000E+00 -0.45593999997E+02  0.45594000000E+02  0.51100000000E-03 0. -1.
    9900012    2    1    2    0    0  0.28040579830E+02 -0.41732268045E+01  0.14595500894E+02  0.59301975075E+02  0.50000056623E+02 0.  0.
         12    1    1    2    0    0 -0.28040579830E+02  0.41732268045E+01 -0.14595500894E+02  0.31886024925E+02  0.00000000000E+00 0. -1.
         11    1    3    3    0    0 -0.10504096204E+01 -0.18888405457E+02  0.98066719912E+01  0.21308356035E+02  0.51100000000E-03 0.  1.
        -11    1    3    3    0    0  0.88108918674E+01  0.14955137778E+02  0.31981465995E+01  0.17649818792E+02  0.51100000000E-03 0. -1.
        -12    1    3    3    0    0  0.20280097583E+02 -0.23995912513E+00  0.15906823033E+01  0.20343800248E+02  0.00000000000E+00 0.  1.
</event>
<event>
 7    1  0.6061051E-012  0.5930182E+02  0.7816164E-02  0.1266605E+00
        -11   -1    0    0    0    0  0.00000000000E+00  0.00000000000E+00  0.45593999997E+02  0.45594000000E+02  0.51100000000E-03 0.  1.
         11   -1    0    0    0    0 -0.00000000000E+00 -0.00000000000E+00 -0.45593999997E+02  0.45594000000E+02  0.51100000000E-03 0. -1.
    9900012    2    1    2    0    0 -0.28360754315E+02  0.14392566115E+02  0.22913174431E+01  0.59301819917E+02  0.49999773651E+02 0.  0.
         12    1    1    2    0    0  0.28360754315E+02 -0.14392566115E+02 -0.22913174431E+01  0.31886180083E+02  0.00000000000E+00 0. -1.
         11    1    3    3    0    0 -0.69658096285E+01  0.25109745196E+02 -0.55265878045E+01  0.26637660945E+02  0.51100000000E-03 0. -1.
        -11    1    3    3    0    0 -0.21734873955E+01  0.41554615936E+00  0.10095377254E+02  0.10335055308E+02  0.51100000000E-03 0.  1.
        -12    1    3    3    0    0 -0.19221457291E+02 -0.11132725241E+02 -0.22774720060E+01  0.22329103663E+02  0.00000000000E+00 0.  1.
</event>
<event>
 7    1  0.6061051E-012  0.5930193E+02  0.7816164E-02  0.1266605E+00
        -11   -1    0    0    0    0  0.00000000000E+00  0.00000000000E+00  0.45593999997E+02  0.45594000000E+02  0.51100000000E-03 0.  1.
         11   -1    0    0    0    0 -0.00000000000E+00 -0.00000000000E+00 -0.45593999997E+02  0.45594000000E+02  0.51100000000E-03 0. -1.
    9900012    2    1    2    0    0  0.14548654905E+01 -0.22243119247E+02  0.22800179628E+02  0.59301934415E+02  0.49999982468E+02 0.  0.
         12    1    1    2    0    0 -0.14548654905E+01  0.22243119247E+02 -0.22800179628E+02  0.31886065585E+02  0.00000000000E+00 0. -1.
         11    1    3    3    0    0 -0.49275085417E+01 -0.10304367134E+02  0.76210212334E+01  0.13730997319E+02  0.51100000000E-03 0.  1.
        -11    1    3    3    0    0 -0.13521303669E+02 -0.36638004662E+01 -0.61021777301E+01  0.15280237566E+02  0.51100000000E-03 0. -1.
         12    1    3    3    0    0  0.19903677701E+02 -0.82749516467E+01  0.21281336125E+02  0.30290699530E+02  0.00000000000E+00 0. -1.
</event>
<event>
 7    1  0.6061051E-012  0.5930194E+02  0.7816164E-02  0.1266605E+00
        -11   -1    0    0    0    0  0.00000000000E+00  0.00000000000E+00  0.45593999997E+02  0.45594000000E+02  0.51100000000E-03 0.  1.
         11   -1    0    0    0    0 -0.00000000000E+00 -0.00000000000E+00 -0.45593999997E+02  0.45594000000E+02  0.51100000000E-03 0. -1.
    9900012    2    1    2    0    0  0.16795131446E+02 -0.12283444712E+02  0.24161154248E+02  0.59301939897E+02  0.49999992467E+02 0.  0.
         12    1    1    2    0    0 -0.16795131446E+02  0.12283444712E+02 -0.24161154248E+02  0.31886060103E+02  0.00000000000E+00 0. -1.
         11    1    3    3    0    0 -0.44971599054E+01  0.95286165091E+01  0.10381121672E+02  0.14791438984E+02  0.51100000000E-03 0. -1.
        -11    1    3    3    0    0  0.42816952303E+01  0.69288047026E+01 -0.56048239528E+00  0.81642751931E+01  0.51100000000E-03 0.  1.
        -12    1    3    3    0    0  0.17010596121E+02 -0.28740865924E+02  0.14340514971E+02  0.36346225720E+02  0.00000000000E+00 0.  1.
</event>
<event>
 7    1  0.6061051E-012  0.5930195E+02  0.7816164E-02  0.1266605E+00
        -11   -1    0    0    0    0  0.00000000000E+00  0.00000000000E+00  0.45593999997E+02  0.45594000000E+02  0.51100000000E-03 0. -1.
         11   -1    0    0    0    0 -0.00000000000E+00 -0.00000000000E+00 -0.45593999997E+02  0.45594000000E+02  0.51100000000E-03 0.  1.
    9900012    2    1    2    0    0  0.24300059205E+02  0.23508231894E+01 -0.20510997968E+02  0.59301948431E+02  0.50000008030E+02 0.  0.
         12    1    1    2    0    0 -0.24300059205E+02 -0.23508231894E+01  0.20510997968E+02  0.31886051569E+02  0.00000000000E+00 0. -1.
         11    1    3    3    0    0  0.11799704384E+02  0.11881809064E+02  0.24213225930E+01  0.16919610324E+02  0.51100000000E-03 0. -1.
        -11    1    3    3    0    0  0.10737930535E+02 -0.34377175558E+01  0.59937630419E+01  0.12768956490E+02  0.51100000000E-03 0.  1.
         12    1    3    3    0    0  0.17624242860E+01 -0.60932683185E+01 -0.28926083603E+02  0.29613381616E+02  0.00000000000E+00 0. -1.
</event>
<event>
 7    1  0.6061051E-012  0.5930194E+02  0.7816164E-02  0.1266605E+00
        -11   -1    0    0    0    0  0.00000000000E+00  0.00000000000E+00  0.45593999997E+02  0.45594000000E+02  0.51100000000E-03 0.  1.
         11   -1    0    0    0    0 -0.00000000000E+00 -0.00000000000E+00 -0.45593999997E+02  0.45594000000E+02  0.51100000000E-03 0. -1.
    9900012    2    1    2    0    0 -0.30224107131E+01 -0.28581011662E+02  0.13809835398E+02  0.59301941168E+02  0.49999994784E+02 0.  0.
         12    1    1    2    0    0  0.30224107131E+01  0.28581011662E+02 -0.13809835398E+02  0.31886058832E+02  0.00000000000E+00 0. -1.
         11    1    3    3    0    0 -0.30789644228E+01 -0.17134441883E+01  0.16305409948E+02  0.16681795669E+02  0.51100000000E-03 0. -1.
        -11    1    3    3    0    0 -0.14269553557E+02 -0.20358251263E+02  0.47262998199E+01  0.25306451024E+02  0.51100000000E-03 0.  1.
         12    1    3    3    0    0  0.14326107267E+02 -0.65093162111E+01 -0.72218743694E+01  0.17313694475E+02  0.00000000000E+00 0. -1.
</event>
<event>
 7    1  0.6061051E-012  0.5930194E+02  0.7816164E-02  0.1266605E+00
        -11   -1    0    0    0    0  0.00000000000E+00  0.00000000000E+00  0.45593999997E+02  0.45594000000E+02  0.51100000000E-03 0. -1.
         11   -1    0    0    0    0 -0.00000000000E+00 -0.00000000000E+00 -0.45593999997E+02  0.45594000000E+02  0.51100000000E-03 0.  1.
    9900012    2    1    2    0    0 -0.98573412754E+01 -0.30247160388E+02  0.21594024970E+01  0.59301938661E+02  0.49999990212E+02 0.  0.
         12    1    1    2    0    0  0.98573412754E+01  0.30247160388E+02 -0.21594024970E+01  0.31886061339E+02  0.00000000000E+00 0. -1.
         11    1    3    3    0    0  0.41769720920E+01  0.13660213294E+01  0.41696335674E+01  0.60579661998E+01  0.51100000000E-03 0.  1.
        -11    1    3    3    0    0  0.74345234344E+01 -0.43507754158E+01  0.12870428027E+02  0.15487068905E+02  0.51100000000E-03 0. -1.
        -12    1    3    3    0    0 -0.21468836802E+02 -0.27262406302E+02 -0.14880659097E+02  0.37756903556E+02  0.00000000000E+00 0.  1.
</event>
<event>
 7    1  0.6061051E-012  0.5930195E+02  0.7816164E-02  0.1266605E+00
        -11   -1    0    0    0    0  0.00000000000E+00  0.00000000000E+00  0.45593999997E+02  0.45594000000E+02  0.51100000000E-03 0. -1.
         11   -1    0    0    0    0 -0.00000000000E+00 -0.00000000000E+00 -0.45593999997E+02  0.45594000000E+02  0.51100000000E-03 0.  1.
    9900012    2    1    2    0    0  0.18940587022E+02  0.24070408665E+02 -0.88651005865E+01  0.59301946333E+02  0.50000004204E+02 0.  0.
         12    1    1    2    0    0 -0.18940587022E+02 -0.24070408665E+02  0.88651005865E+01  0.31886053667E+02  0.00000000000E+00 0. -1.
         11    1    3    3    0    0  0.12088055100E+01 -0.36915221940E+01  0.32723098832E+01  0.50790313154E+01  0.51100000000E-03 0. -1.
        -11    1    3    3    0    0 -0.45228826458E+01 -0.71604842684E+01 -0.95017963070E+01  0.12728438070E+02  0.51100000000E-03 0.  1.
        -12    1    3    3    0    0  0.22254664158E+02  0.34922415127E+02 -0.26356141628E+01  0.41494476947E+02  0.00000000000E+00 0.  1.
</event>
<event>
 7    1  0.6061051E-012  0.5930196E+02  0.7816164E-02  0.1266605E+00
        -11   -1    0    0    0    0  0.00000000000E+00  0.00000000000E+00  0.45593999997E+02  0.45594000000E+02  0.51100000000E-03 0. -1.
         11   -1    0    0    0    0 -0.00000000000E+00 -0.00000000000E+00 -0.45593999997E+02  0.45594000000E+02  0.51100000000E-03 0.  1.
    9900012    2    1    2    0    0  0.36196707048E+01 -0.24932869715E+02 -0.19544049105E+02  0.59301955033E+02  0.50000020070E+02 0.  0.
         12    1    1    2    0    0 -0.36196707048E+01  0.24932869715E+02  0.19544049105E+02  0.31886044967E+02  0.00000000000E+00 0. -1.
         11    1    3    3    0    0  0.21702793341E+01  0.13347873473E+02 -0.90733188300E+01  0.16284991664E+02  0.51100000000E-03 0. -1.
        -11    1    3    3    0    0  0.56196194549E+01 -0.48614126628E+01  0.86761894033E+00  0.74810573306E+01  0.51100000000E-03 0.  1.
         12    1    3    3    0    0 -0.41702280842E+01 -0.33419330525E+02 -0.11338349216E+02  0.35535906038E+02  0.00000000000E+00 0. -1.
</event>
<event>
 7    1  0.6061051E-012  0.5930210E+02  0.7816164E-02  0.1266604E+00
        -11   -1    0    0    0    0  0.00000000000E+00  0.00000000000E+00  0.45593999997E+02  0.45594000000E+02  0.51100000000E-03 0. -1.
         11   -1    0    0    0    0 -0.00000000000E+00 -0.00000000000E+00 -0.45593999997E+02  0.45594000000E+02  0.51100000000E-03 0.  1.
    9900012    2    1    2    0    0  0.17676548885E+02 -0.24016747367E+02  0.11289202583E+02  0.59302099832E+02  0.50000284149E+02 0.  0.
         12    1    1    2    0    0 -0.17676548885E+02  0.24016747367E+02 -0.11289202583E+02  0.31885900168E+02  0.00000000000E+00 0. -1.
         11    1    3    3    0    0 -0.12544041314E+02 -0.15361106020E+02  0.70736341558E+01  0.21055945742E+02  0.51100000000E-03 0. -1.
        -11    1    3    3    0    0  0.92266578495E+00  0.78448584044E+00 -0.57622439203E+01  0.58881393872E+01  0.51100000000E-03 0.  1.
        -12    1    3    3    0    0  0.29297924414E+02 -0.94401271872E+01  0.99778123475E+01  0.32358014703E+02  0.00000000000E+00 0.  1.
</event>
<event>
 7    1  0.6061051E-012  0.5930166E+02  0.7816164E-02  0.1266606E+00
        -11   -1    0    0    0    0  0.00000000000E+00  0.00000000000E+00  0.45593999997E+02  0.45594000000E+02  0.51100000000E-03 0.  1.
         11   -1    0    0    0    0 -0.00000000000E+00 -0.00000000000E+00 -0.45593999997E+02  0.45594000000E+02  0.51100000000E-03 0. -1.
    9900012    2    1    2    0    0 -0.30162809940E+02 -0.73543766846E+01 -0.72702798791E+01  0.59301656067E+02  0.49999474827E+02 0.  0.
         12    1    1    2    0    0  0.30162809940E+02  0.73543766846E+01  0.72702798791E+01  0.31886343933E+02  0.00000000000E+00 0. -1.
         11    1    3    3    0    0 -0.18049886583E+02 -0.14017747631E+02  0.41333574858E+01  0.23224562400E+02  0.51100000000E-03 0. -1.
        -11    1    3    3    0    0 -0.69508804880E+01 -0.12521152064E+02 -0.39251085068E+01  0.14849258083E+02  0.51100000000E-03 0.  1.
         12    1    3    3    0    0 -0.51620428688E+01  0.19184523010E+02 -0.74785288580E+01  0.21227835584E+02  0.00000000000E+00 0. -1.
</event>
<event>
 7    1  0.6061051E-012  0.5930195E+02  0.7816164E-02  0.1266605E+00
        -11   -1    0    0    0    0  0.00000000000E+00  0.00000000000E+00  0.45593999997E+02  0.45594000000E+02  0.51100000000E-03 0. -1.
         11   -1    0    0    0    0 -0.00000000000E+00 -0.00000000000E+00 -0.45593999997E+02  0.45594000000E+02  0.51100000000E-03 0.  1.
    9900012    2    1    2    0    0  0.18461479549E+02  0.99667870444E+01 -0.24011609893E+02  0.59301945355E+02  0.50000002421E+02 0.  0.
         12    1    1    2    0    0 -0.18461479549E+02 -0.99667870444E+01  0.24011609893E+02  0.31886054645E+02  0.00000000000E+00 0. -1.
         11    1    3    3    0    0 -0.10945517664E+02 -0.60099978703E+01  0.12731567172E+00  0.12487619504E+02  0.51100000000E-03 0. -1.
        -11    1    3    3    0    0 -0.16502668865E+01  0.67507544643E+01 -0.80691181411E+01  0.10649259809E+02  0.51100000000E-03 0.  1.
        -12    1    3    3    0    0  0.31057264100E+02  0.92260304503E+01 -0.16069807424E+02  0.36165066043E+02  0.00000000000E+00 0.  1.
</event>
<event>
 7    1  0.6061051E-012  0.5930195E+02  0.7816164E-02  0.1266605E+00
        -11   -1    0    0    0    0  0.00000000000E+00  0.00000000000E+00  0.45593999997E+02  0.45594000000E+02  0.51100000000E-03 0.  1.
         11   -1    0    0    0    0 -0.00000000000E+00 -0.00000000000E+00 -0.45593999997E+02  0.45594000000E+02  0.51100000000E-03 0. -1.
    9900012    2    1    2    0    0 -0.82755668476E+00  0.31566052796E+02  0.44294275055E+01  0.59301947136E+02  0.50000005670E+02 0.  0.
         12    1    1    2    0    0  0.82755668476E+00 -0.31566052796E+02 -0.44294275055E+01  0.31886052864E+02  0.00000000000E+00 0. -1.
         11    1    3    3    0    0  0.35029331686E+01  0.12501252909E+02 -0.75626994852E+01  0.15024855701E+02  0.51100000000E-03 0. -1.
        -11    1    3    3    0    0  0.13973956631E+02 -0.24984491888E+01  0.23171830385E+01  0.14383429694E+02  0.51100000000E-03 0.  1.
        -12    1    3    3    0    0 -0.18304446484E+02  0.21563249076E+02  0.96749439521E+01  0.29893661741E+02  0.00000000000E+00 0.  1.
</event>
<event>
 7    1  0.6061051E-012  0.5930195E+02  0.7816164E-02  0.1266605E+00
        -11   -1    0    0    0    0  0.00000000000E+00  0.00000000000E+00  0.45593999997E+02  0.45594000000E+02  0.51100000000E-03 0.  1.
         11   -1    0    0    0    0 -0.00000000000E+00 -0.00000000000E+00 -0.45593999997E+02  0.45594000000E+02  0.51100000000E-03 0. -1.
    9900012    2    1    2    0    0  0.11550091267E+02  0.68848433146E+01  0.28912188606E+02  0.59301947787E+02  0.50000006857E+02 0.  0.
         12    1    1    2    0    0 -0.11550091267E+02 -0.68848433146E+01 -0.28912188606E+02  0.31886052213E+02  0.00000000000E+00 0. -1.
         11    1    3    3    0    0  0.65154197567E+01  0.15633925707E+01  0.23669236104E+02  0.24599342043E+02  0.51100000000E-03 0. -1.
        -11    1    3    3    0    0  0.15634850607E+01 -0.91152975180E+01  0.14504940687E+02  0.17202512577E+02  0.51100000000E-03 0.  1.
         12    1    3    3    0    0  0.34711864496E+01  0.14436748262E+02 -0.92619881848E+01  0.17500093168E+02  0.00000000000E+00 0. -1.
</event>
<event>
 7    1  0.6061051E-012  0.5930193E+02  0.7816164E-02  0.1266605E+00
        -11   -1    0    0    0    0  0.00000000000E+00  0.00000000000E+00  0.45593999997E+02  0.45594000000E+02  0.51100000000E-03 0. -1.
         11   -1    0    0    0    0 -0.00000000000E+00 -0.00000000000E+00 -0.45593999997E+02  0.45594000000E+02  0.51100000000E-03 0.  1.
    9900012    2    1    2    0    0 -0.19333032375E+02 -0.11069495305E+02  0.22812744199E+02  0.59301934627E+02  0.49999982854E+02 0.  0.
         12    1    1    2    0    0  0.19333032375E+02  0.11069495305E+02 -0.22812744199E+02  0.31886065373E+02  0.00000000000E+00 0. -1.
         11    1    3    3    0    0  0.10918838392E+02 -0.32899858055E+01  0.52291720364E+00  0.11415712028E+02  0.51100000000E-03 0. -1.
        -11    1    3    3    0    0 -0.80983766746E+01 -0.28072841355E+01  0.23635620257E+02  0.25141740079E+02  0.51100000000E-03 0.  1.
        -12    1    3    3    0    0 -0.22153494093E+02 -0.49722253641E+01 -0.13457932622E+01  0.22744482520E+02  0.00000000000E+00 0.  1.
</event>
<event>
 7    1  0.6061051E-012  0.5930192E+02  0.7816164E-02  0.1266605E+00
        -11   -1    0    0    0    0  0.00000000000E+00  0.00000000000E+00  0.45593999997E+02  0.45594000000E+02  0.51100000000E-03 0. -1.
         11   -1    0    0    0    0 -0.00000000000E+00 -0.00000000000E+00 -0.45593999997E+02  0.45594000000E+02  0.51100000000E-03 0.  1.
    9900012    2    1    2    0    0  0.15446264239E+00  0.26906155662E+02 -0.17110140523E+02  0.59301921847E+02  0.49999959548E+02 0.  0.
         12    1    1    2    0    0 -0.15446264239E+00 -0.26906155662E+02  0.17110140523E+02  0.31886078153E+02  0.00000000000E+00 0. -1.
         11    1    3    3    0    0 -0.10777003270E+00  0.38981478727E+02 -0.14187245265E+02  0.41483071567E+02  0.51100000000E-03 0. -1.
        -11    1    3    3    0    0  0.23676364387E+01 -0.77319359052E+01 -0.76003836083E+01  0.11097493699E+02  0.51100000000E-03 0.  1.
        -12    1    3    3    0    0 -0.21054037636E+01 -0.43433871598E+01  0.46774883503E+01  0.67213565815E+01  0.00000000000E+00 0.  1.
</event>
<event>
 7    1  0.6061051E-012  0.5930196E+02  0.7816164E-02  0.1266605E+00
        -11   -1    0    0    0    0  0.00000000000E+00  0.00000000000E+00  0.45593999997E+02  0.45594000000E+02  0.51100000000E-03 0.  1.
         11   -1    0    0    0    0 -0.00000000000E+00 -0.00000000000E+00 -0.45593999997E+02  0.45594000000E+02  0.51100000000E-03 0. -1.
    9900012    2    1    2    0    0  0.98432596985E+01 -0.29871565781E+02  0.52458865433E+01  0.59301960275E+02  0.50000029631E+02 0.  0.
         12    1    1    2    0    0 -0.98432596985E+01  0.29871565781E+02 -0.52458865433E+01  0.31886039725E+02  0.00000000000E+00 0. -1.
         11    1    3    3    0    0  0.73333416540E+01  0.73119793739E+01  0.64004087400E+01  0.12174077972E+02  0.51100000000E-03 0. -1.
        -11    1    3    3    0    0  0.53946748813E+01 -0.41138328509E+02  0.15802995875E+01  0.41520620620E+02  0.51100000000E-03 0.  1.
         12    1    3    3    0    0 -0.28847568369E+01  0.39547833540E+01 -0.27348217842E+01  0.56072616825E+01  0.00000000000E+00 0. -1.
</event>
<event>
 7    1  0.6061051E-012  0.5930191E+02  0.7816164E-02  0.1266605E+00
        -11   -1    0    0    0    0  0.00000000000E+00  0.00000000000E+00  0.45593999997E+02  0.45594000000E+02  0.51100000000E-03 0. -1.
         11   -1    0    0    0    0 -0.00000000000E+00 -0.00000000000E+00 -0.45593999997E+02  0.45594000000E+02  0.51100000000E-03 0.  1.
    9900012    2    1    2    0    0 -0.19294018299E+02 -0.22095051748E+02  0.12500884669E+02  0.59301912573E+02  0.49999942634E+02 0.  0.
         12    1    1    2    0    0  0.19294018299E+02  0.22095051748E+02 -0.12500884669E+02  0.31886087427E+02  0.00000000000E+00 0. -1.
         11    1    3    3    0    0  0.37360023160E+01  0.94452769187E+00  0.10972068012E+02  0.11629106697E+02  0.51100000000E-03 0. -1.
        -11    1    3    3    0    0 -0.99835654951E+01 -0.16263556873E+02  0.17551693037E+02  0.25927529595E+02  0.51100000000E-03 0.  1.
        -12    1    3    3    0    0 -0.13046455120E+02 -0.67760225668E+01 -0.16022876380E+02  0.21745276281E+02  0.00000000000E+00 0.  1.
</event>
<event>
 7    1  0.6061051E-012  0.5930200E+02  0.7816164E-02  0.1266605E+00
        -11   -1    0    0    0    0  0.00000000000E+00  0.00000000000E+00  0.45593999997E+02  0.45594000000E+02  0.51100000000E-03 0.  1.
         11   -1    0    0    0    0 -0.00000000000E+00 -0.00000000000E+00 -0.45593999997E+02  0.45594000000E+02  0.51100000000E-03 0. -1.
    9900012    2    1    2    0    0 -0.53058223241E+01 -0.31354071861E+02 -0.23425666057E+01  0.59301996940E+02  0.50000096500E+02 0.  0.
         12    1    1    2    0    0  0.53058223241E+01  0.31354071861E+02  0.23425666057E+01  0.31886003060E+02  0.00000000000E+00 0. -1.
         11    1    3    3    0    0  0.38332226761E+01 -0.27227834514E+02 -0.16799300214E+02  0.32222120606E+02  0.51100000000E-03 0. -1.
        -11    1    3    3    0    0 -0.76307299544E+01 -0.30318105169E+01 -0.35725796937E+01  0.89545095106E+01  0.51100000000E-03 0.  1.
        -12    1    3    3    0    0 -0.15083150457E+01 -0.10944268303E+01  0.18029313302E+02  0.18125366824E+02  0.00000000000E+00 0.  1.
</event>
<event>
 7    1  0.6061051E-012  0.5930194E+02  0.7816164E-02  0.1266605E+00
        -11   -1    0    0    0    0  0.00000000000E+00  0.00000000000E+00  0.45593999997E+02  0.45594000000E+02  0.51100000000E-03 0.  1.
         11   -1    0    0    0    0 -0.00000000000E+00 -0.00000000000E+00 -0.45593999997E+02  0.45594000000E+02  0.51100000000E-03 0. -1.
    9900012    2    1    2    0    0  0.29313537722E+02  0.11010102064E+02  0.60178673942E+01  0.59301943969E+02  0.49999999894E+02 0.  0.
         12    1    1    2    0    0 -0.29313537722E+02 -0.11010102064E+02 -0.60178673942E+01  0.31886056031E+02  0.00000000000E+00 0. -1.
         11    1    3    3    0    0 -0.58845576069E+01  0.56931821484E+01  0.11150614208E+02  0.13833890945E+02  0.51100000000E-03 0. -1.
        -11    1    3    3    0    0  0.11403666385E+02 -0.96887661722E+00  0.11134177608E+02  0.15967223935E+02  0.51100000000E-03 0.  1.
         12    1    3    3    0    0  0.23794428944E+02  0.62857965324E+01 -0.16266924422E+02  0.29500829089E+02  0.00000000000E+00 0. -1.
</event>
<event>
 7    1  0.6061051E-012  0.5930202E+02  0.7816164E-02  0.1266604E+00
        -11   -1    0    0    0    0  0.00000000000E+00  0.00000000000E+00  0.45593999997E+02  0.45594000000E+02  0.51100000000E-03 0.  1.
         11   -1    0    0    0    0 -0.00000000000E+00 -0.00000000000E+00 -0.45593999997E+02  0.45594000000E+02  0.51100000000E-03 0. -1.
    9900012    2    1    2    0    0  0.23381745813E+02  0.11487972099E+02  0.18385758693E+02  0.59302020904E+02  0.50000140203E+02 0.  0.
         12    1    1    2    0    0 -0.23381745813E+02 -0.11487972099E+02 -0.18385758693E+02  0.31885979096E+02  0.00000000000E+00 0. -1.
         11    1    3    3    0    0  0.10647839274E+02 -0.10522729250E+02  0.95590502894E+01  0.17761749766E+02  0.51100000000E-03 0. -1.
        -11    1    3    3    0    0  0.11338840899E+02  0.37399136035E+01  0.17565493194E+02  0.21239181201E+02  0.51100000000E-03 0.  1.
        -12    1    3    3    0    0  0.13950656399E+01  0.18270787746E+02 -0.87387847897E+01  0.20301089936E+02  0.00000000000E+00 0.  1.
</event>
<event>
 7    1  0.6061051E-012  0.5930194E+02  0.7816164E-02  0.1266605E+00
        -11   -1    0    0    0    0  0.00000000000E+00  0.00000000000E+00  0.45593999997E+02  0.45594000000E+02  0.51100000000E-03 0.  1.
         11   -1    0    0    0    0 -0.00000000000E+00 -0.00000000000E+00 -0.45593999997E+02  0.45594000000E+02  0.51100000000E-03 0. -1.
    9900012    2    1    2    0    0 -0.79855301503E+01  0.17601564296E+02  0.25360152410E+02  0.59301935839E+02  0.49999985066E+02 0.  0.
         12    1    1    2    0    0  0.79855301503E+01 -0.17601564296E+02 -0.25360152410E+02  0.31886064161E+02  0.00000000000E+00 0. -1.
         11    1    3    3    0    0  0.10351611554E+02 -0.23918529624E+01  0.41468862272E+00  0.10632440420E+02  0.51100000000E-03 0. -1.
        -11    1    3    3    0    0 -0.13704748330E+01  0.10825876092E+02  0.27148070113E+02  0.29259109787E+02  0.51100000000E-03 0.  1.
         12    1    3    3    0    0 -0.16966666872E+02  0.91675411661E+01 -0.22026063261E+01  0.19410385632E+02  0.00000000000E+00 0. -1.
</event>
<event>
 7    1  0.6061051E-012  0.5930196E+02  0.7816164E-02  0.1266605E+00
        -11   -1    0    0    0    0  0.00000000000E+00  0.00000000000E+00  0.45593999997E+02  0.45594000000E+02  0.51100000000E-03 0.  1.
         11   -1    0    0    0    0 -0.00000000000E+00 -0.00000000000E+00 -0.45593999997E+02  0.45594000000E+02  0.51100000000E-03 0. -1.
    9900012    2    1    2    0    0  0.28796898767E+02 -0.13679376007E+02 -0.57667791903E+00  0.59301964437E+02  0.50000037221E+02 0.  0.
         12    1    1    2    0    0 -0.28796898767E+02  0.13679376007E+02  0.57667791903E+00  0.31886035563E+02  0.00000000000E+00 0. -1.
         11    1    3    3    0    0  0.15698207336E+02 -0.21251356659E+02  0.14562719182E+02  0.30168305615E+02  0.51100000000E-03 0. -1.
        -11    1    3    3    0    0  0.75425364578E+01 -0.52219784706E+01 -0.92765251613E+00  0.92205994825E+01  0.51100000000E-03 0.  1.
         12    1    3    3    0    0  0.55561549731E+01  0.12793959123E+02 -0.14211744585E+02  0.19913059340E+02  0.00000000000E+00 0. -1.
</event>
<event>
 7    1  0.6061051E-012  0.5930180E+02  0.7816164E-02  0.1266605E+00
        -11   -1    0    0    0    0  0.00000000000E+00  0.00000000000E+00  0.45593999997E+02  0.45594000000E+02  0.51100000000E-03 0.  1.
         11   -1    0    0    0    0 -0.00000000000E+00 -0.00000000000E+00 -0.45593999997E+02  0.45594000000E+02  0.51100000000E-03 0. -1.
    9900012    2    1    2    0    0  0.22732102492E+02 -0.22326413812E+02 -0.12298664591E+01  0.59301799083E+02  0.49999735655E+02 0.  0.
         12    1    1    2    0    0 -0.22732102492E+02  0.22326413812E+02  0.12298664591E+01  0.31886200917E+02  0.00000000000E+00 0. -1.
         11    1    3    3    0    0  0.28786752055E+02 -0.11893138327E+02 -0.88617285950E+01  0.32382928637E+02  0.51100000000E-03 0. -1.
        -11    1    3    3    0    0  0.87371130318E+01 -0.46165893457E+01  0.36402586886E+01  0.10530979294E+02  0.51100000000E-03 0.  1.
        -12    1    3    3    0    0 -0.14791762595E+02 -0.58166861395E+01  0.39916034473E+01  0.16387891152E+02  0.00000000000E+00 0.  1.
</event>
<event>
 7    1  0.6061051E-012  0.5930194E+02  0.7816164E-02  0.1266605E+00
        -11   -1    0    0    0    0  0.00000000000E+00  0.00000000000E+00  0.45593999997E+02  0.45594000000E+02  0.51100000000E-03 0.  1.
         11   -1    0    0    0    0 -0.00000000000E+00 -0.00000000000E+00 -0.45593999997E+02  0.45594000000E+02  0.51100000000E-03 0. -1.
    9900012    2    1    2    0    0 -0.87511931190E+01  0.18452792910E+00  0.30661105080E+02  0.59301940409E+02  0.49999993399E+02 0.  0.
         12    1    1    2    0    0  0.87511931190E+01 -0.18452792910E+00 -0.30661105080E+02  0.31886059591E+02  0.00000000000E+00 0. -1.
         11    1    3    3    0    0 -0.91257681437E+01  0.16125432863E+02  0.23928724299E+01  0.18682480241E+02  0.51100000000E-03 0. -1.
        -11    1    3    3    0    0 -0.71865728444E+01  0.10566038403E+01  0.17909539322E+02  0.19326532019E+02  0.51100000000E-03 0.  1.
         12    1    3    3    0    0  0.75611478692E+01 -0.16997508775E+02  0.10358693328E+02  0.21292928148E+02  0.00000000000E+00 0. -1.
</event>
<event>
 7    1  0.6061051E-012  0.5930194E+02  0.7816164E-02  0.1266605E+00
        -11   -1    0    0    0    0  0.00000000000E+00  0.00000000000E+00  0.45593999997E+02  0.45594000000E+02  0.51100000000E-03 0.  1.
         11   -1    0    0    0    0 -0.00000000000E+00 -0.00000000000E+00 -0.45593999997E+02  0.45594000000E+02  0.51100000000E-03 0. -1.
    9900012    2    1    2    0    0 -0.30343095761E+02 -0.37036856821E+01  0.90719216385E+01  0.59301944894E+02  0.50000001580E+02 0.  0.
         12    1    1    2    0    0  0.30343095761E+02  0.37036856821E+01 -0.90719216385E+01  0.31886055106E+02  0.00000000000E+00 0. -1.
         11    1    3    3    0    0  0.42474916621E+01 -0.14329097384E+02  0.15224219200E+01  0.15022715667E+02  0.51100000000E-03 0. -1.
        -11    1    3    3    0    0 -0.12005198095E+01 -0.29842977846E+01 -0.51321510633E+01  0.60569180181E+01  0.51100000000E-03 0.  1.
        -12    1    3    3    0    0 -0.33390067614E+02  0.13609709486E+02  0.12681650782E+02  0.38222311209E+02  0.00000000000E+00 0.  1.
</event>
<event>
 7    1  0.6061051E-012  0.5930197E+02  0.7816164E-02  0.1266605E+00
        -11   -1    0    0    0    0  0.00000000000E+00  0.00000000000E+00  0.45593999997E+02  0.45594000000E+02  0.51100000000E-03 0. -1.
         11   -1    0    0    0    0 -0.00000000000E+00 -0.00000000000E+00 -0.45593999997E+02  0.45594000000E+02  0.51100000000E-03 0.  1.
    9900012    2    1    2    0    0  0.19064795348E+02  0.25558298905E+02  0.16087788183E+00  0.59301969418E+02  0.50000046305E+02 0.  0.
         12    1    1    2    0    0 -0.19064795348E+02 -0.25558298905E+02 -0.16087788183E+00  0.31886030582E+02  0.00000000000E+00 0. -1.
         11    1    3    3    0    0 -0.10900331017E+02  0.16088573169E+02 -0.86824996756E+01  0.21284858556E+02  0.51100000000E-03 0. -1.
        -11    1    3    3    0    0  0.16267289720E+02 -0.17187758543E+01 -0.31356791604E+01  0.16655671386E+02  0.51100000000E-03 0.  1.
        -12    1    3    3    0    0  0.13697836645E+02  0.11188501591E+02  0.11979056718E+02  0.21361439475E+02  0.00000000000E+00 0.  1.
</event>
<event>
 7    1  0.6061051E-012  0.5930196E+02  0.7816164E-02  0.1266605E+00
        -11   -1    0    0    0    0  0.00000000000E+00  0.00000000000E+00  0.45593999997E+02  0.45594000000E+02  0.51100000000E-03 0.  1.
         11   -1    0    0    0    0 -0.00000000000E+00 -0.00000000000E+00 -0.45593999997E+02  0.45594000000E+02  0.51100000000E-03 0. -1.
    9900012    2    1    2    0    0  0.29449456614E+01 -0.30864405577E+02 -0.74454963496E+01  0.59301958345E+02  0.50000026111E+02 0.  0.
         12    1    1    2    0    0 -0.29449456614E+01  0.30864405577E+02  0.74454963496E+01  0.31886041655E+02  0.00000000000E+00 0. -1.
         11    1    3    3    0    0 -0.62762326218E+01 -0.22594414172E+02 -0.19385741878E+01  0.23529911131E+02  0.51100000000E-03 0. -1.
        -11    1    3    3    0    0  0.23090146000E+01 -0.10219011019E+02  0.12544818738E+02  0.16344179761E+02  0.51100000000E-03 0.  1.
         12    1    3    3    0    0  0.69121636832E+01  0.19490196144E+01 -0.18051740900E+02  0.19427867453E+02  0.00000000000E+00 0. -1.
</event>
<event>
 7    1  0.6061051E-012  0.5930200E+02  0.7816164E-02  0.1266605E+00
        -11   -1    0    0    0    0  0.00000000000E+00  0.00000000000E+00  0.45593999997E+02  0.45594000000E+02  0.51100000000E-03 0. -1.
         11   -1    0    0    0    0 -0.00000000000E+00 -0.00000000000E+00 -0.45593999997E+02  0.45594000000E+02  0.51100000000E-03 0.  1.
    9900012    2    1    2    0    0  0.19466885031E+02  0.12698207183E+02 -0.21829173799E+02  0.59302001393E+02  0.50000104620E+02 0.  0.
         12    1    1    2    0    0 -0.19466885031E+02 -0.12698207183E+02  0.21829173799E+02  0.31885998607E+02  0.00000000000E+00 0. -1.
         11    1    3    3    0    0 -0.44668040723E+01 -0.11092012603E+01  0.63829426370E+01  0.78692199756E+01  0.51100000000E-03 0. -1.
        -11    1    3    3    0    0  0.16980346155E+02  0.16935502055E+02 -0.19216374743E+01  0.24059012371E+02  0.51100000000E-03 0.  1.
        -12    1    3    3    0    0  0.69533429476E+01 -0.31280936121E+01 -0.26290478961E+02  0.27373769047E+02  0.00000000000E+00 0.  1.
</event>
<event>
 7    1  0.6061051E-012  0.5930193E+02  0.7816164E-02  0.1266605E+00
        -11   -1    0    0    0    0  0.00000000000E+00  0.00000000000E+00  0.45593999997E+02  0.45594000000E+02  0.51100000000E-03 0. -1.
         11   -1    0    0    0    0 -0.00000000000E+00 -0.00000000000E+00 -0.45593999997E+02  0.45594000000E+02  0.51100000000E-03 0.  1.
    9900012    2    1    2    0    0  0.29145449883E+02 -0.57605397220E+01 -0.11579309275E+02  0.59301929843E+02  0.49999974131E+02 0.  0.
         12    1    1    2    0    0 -0.29145449883E+02  0.57605397220E+01  0.11579309275E+02  0.31886070157E+02  0.00000000000E+00 0. -1.
         11    1    3    3    0    0  0.15181284440E+02  0.81534292243E+01  0.97904570626E+01  0.19819254656E+02  0.51100000000E-03 0. -1.
        -11    1    3    3    0    0  0.11132437174E+02  0.32498679187E+00  0.26207991835E+01  0.11441388136E+02  0.51100000000E-03 0.  1.
        -12    1    3    3    0    0  0.28317282691E+01 -0.14238955738E+02 -0.23990565521E+02  0.28041287052E+02  0.00000000000E+00 0.  1.
</event>
<event>
 7    1  0.6061051E-012  0.5930194E+02  0.7816164E-02  0.1266605E+00
        -11   -1    0    0    0    0  0.00000000000E+00  0.00000000000E+00  0.45593999997E+02  0.45594000000E+02  0.51100000000E-03 0.  1.
         11   -1    0    0    0    0 -0.00000000000E+00 -0.00000000000E+00 -0.45593999997E+02  0.45594000000E+02  0.51100000000E-03 0. -1.
    9900012    2    1    2    0    0  0.11894050639E+02  0.12657803301E+02  0.26740095591E+02  0.59301935062E+02  0.49999983649E+02 0.  0.
         12    1    1    2    0    0 -0.11894050639E+02 -0.12657803301E+02 -0.26740095591E+02  0.31886064938E+02  0.00000000000E+00 0. -1.
         11    1    3    3    0    0  0.29200130897E+01  0.25331879008E+02  0.46961894860E+01  0.25928454764E+02  0.51100000000E-03 0. -1.
        -11    1    3    3    0    0 -0.28421909212E+01 -0.81702140616E+00 -0.23576776438E+01  0.37820916626E+01  0.51100000000E-03 0.  1.
        -12    1    3    3    0    0  0.11816228470E+02 -0.11857054301E+02  0.24401583749E+02  0.29591388636E+02  0.00000000000E+00 0.  1.
</event>
<event>
 7    1  0.6061051E-012  0.5930194E+02  0.7816164E-02  0.1266605E+00
        -11   -1    0    0    0    0  0.00000000000E+00  0.00000000000E+00  0.45593999997E+02  0.45594000000E+02  0.51100000000E-03 0. -1.
         11   -1    0    0    0    0 -0.00000000000E+00 -0.00000000000E+00 -0.45593999997E+02  0.45594000000E+02  0.51100000000E-03 0.  1.
    9900012    2    1    2    0    0  0.18271580823E+02 -0.21006327565E+02 -0.15543620811E+02  0.59301943306E+02  0.49999998684E+02 0.  0.
         12    1    1    2    0    0 -0.18271580823E+02  0.21006327565E+02  0.15543620811E+02  0.31886056694E+02  0.00000000000E+00 0. -1.
         11    1    3    3    0    0  0.97553165165E+00 -0.12492193558E+02  0.45298911224E+01  0.13323906174E+02  0.51100000000E-03 0. -1.
        -11    1    3    3    0    0  0.68376237620E+01 -0.20683895593E+02 -0.20517512846E+02  0.29925657374E+02  0.51100000000E-03 0.  1.
         12    1    3    3    0    0  0.10458425410E+02  0.12169761586E+02  0.44400091248E+00  0.16052379759E+02  0.00000000000E+00 0. -1.
</event>
<event>
 7    1  0.6061051E-012  0.5930194E+02  0.7816164E-02  0.1266605E+00
        -11   -1    0    0    0    0  0.00000000000E+00  0.00000000000E+00  0.45593999997E+02  0.45594000000E+02  0.51100000000E-03 0. -1.
         11   -1    0    0    0    0 -0.00000000000E+00 -0.00000000000E+00 -0.45593999997E+02  0.45594000000E+02  0.51100000000E-03 0.  1.
    9900012    2    1    2    0    0  0.17294950877E+02 -0.23354534107E+02 -0.13121397049E+02  0.59301942706E+02  0.49999997590E+02 0.  0.
         12    1    1    2    0    0 -0.17294950877E+02  0.23354534107E+02  0.13121397049E+02  0.31886057294E+02  0.00000000000E+00 0. -1.
         11    1    3    3    0    0  0.10367272147E+02 -0.15736610650E+01 -0.34823790164E+01  0.11049149506E+02  0.51100000000E-03 0. -1.
        -11    1    3    3    0    0  0.11376653289E+02  0.32260585408E+01 -0.17978747817E+02  0.21519086112E+02  0.51100000000E-03 0.  1.
        -12    1    3    3    0    0 -0.44489745590E+01 -0.25006931583E+02  0.83397297842E+01  0.26733707089E+02  0.00000000000E+00 0.  1.
</event>
<event>
 7    1  0.6061051E-012  0.5930203E+02  0.7816164E-02  0.1266604E+00
        -11   -1    0    0    0    0  0.00000000000E+00  0.00000000000E+00  0.45593999997E+02  0.45594000000E+02  0.51100000000E-03 0.  1.
         11   -1    0    0    0    0 -0.00000000000E+00 -0.00000000000E+00 -0.45593999997E+02  0.45594000000E+02  0.51100000000E-03 0. -1.
    9900012    2    1    2    0    0  0.17460245558E+02  0.86251635415E+01  0.25247993748E+02  0.59302034288E+02  0.50000164613E+02 0.  0.
         12    1    1    2    0    0 -0.17460245558E+02 -0.86251635415E+01 -0.25247993748E+02  0.31885965712E+02  0.00000000000E+00 0. -1.
         11    1    3    3    0    0  0.16908237350E+02  0.54074312225E+01  0.36054713595E+01  0.18114309998E+02  0.51100000000E-03 0. -1.
        -11    1    3    3    0    0  0.16503767390E+02  0.55446975426E+01  0.17183001920E+02  0.24461675416E+02  0.51100000000E-03 0.  1.
         12    1    3    3    0    0 -0.15951759182E+02 -0.23269652235E+01  0.44595204683E+01  0.16726048875E+02  0.00000000000E+00 0. -1.
</event>
<event>
 7    1  0.6061051E-012  0.5930195E+02  0.7816164E-02  0.1266605E+00
        -11   -1    0    0    0    0  0.00000000000E+00  0.00000000000E+00  0.45593999997E+02  0.45594000000E+02  0.51100000000E-03 0.  1.
         11   -1    0    0    0    0 -0.00000000000E+00 -0.00000000000E+00 -0.45593999997E+02  0.45594000000E+02  0.51100000000E-03 0. -1.
    9900012    2    1    2    0    0 -0.31143413801E+02 -0.36325784244E+01  0.57976067304E+01  0.59301951437E+02  0.50000013512E+02 0.  0.
         12    1    1    2    0    0  0.31143413801E+02  0.36325784244E+01 -0.57976067304E+01  0.31886048563E+02  0.00000000000E+00 0. -1.
         11    1    3    3    0    0 -0.24508294808E+02 -0.91052214540E+01 -0.11374165339E+02  0.28511983613E+02  0.51100000000E-03 0.  1.
        -11    1    3    3    0    0 -0.26156089025E+01 -0.77241410283E+01 -0.73206751109E+00  0.81877767225E+01  0.51100000000E-03 0. -1.
         12    1    3    3    0    0 -0.40195100902E+01  0.13196784058E+02  0.17903839581E+02  0.22602191101E+02  0.00000000000E+00 0. -1.
</event>
<event>
 7    1  0.6061051E-012  0.5930192E+02  0.7816164E-02  0.1266605E+00
        -11   -1    0    0    0    0  0.00000000000E+00  0.00000000000E+00  0.45593999997E+02  0.45594000000E+02  0.51100000000E-03 0.  1.
         11   -1    0    0    0    0 -0.00000000000E+00 -0.00000000000E+00 -0.45593999997E+02  0.45594000000E+02  0.51100000000E-03 0. -1.
    9900012    2    1    2    0    0 -0.72366573024E+01 -0.12100211195E+02  0.28599612651E+02  0.59301918967E+02  0.49999954294E+02 0.  0.
         12    1    1    2    0    0  0.72366573024E+01  0.12100211195E+02 -0.28599612651E+02  0.31886081033E+02  0.00000000000E+00 0. -1.
         11    1    3    3    0    0 -0.58209646160E+01 -0.37189231754E+01  0.35864117653E+01  0.77830821823E+01  0.51100000000E-03 0. -1.
        -11    1    3    3    0    0  0.18986972746E+02 -0.86651231435E+01  0.22933280437E+02  0.31008464087E+02  0.51100000000E-03 0.  1.
         12    1    3    3    0    0 -0.20402665432E+02  0.28383512436E+00  0.20799204486E+01  0.20510372697E+02  0.00000000000E+00 0. -1.
</event>
<event>
 7    1  0.6061051E-012  0.5930188E+02  0.7816164E-02  0.1266605E+00
        -11   -1    0    0    0    0  0.00000000000E+00  0.00000000000E+00  0.45593999997E+02  0.45594000000E+02  0.51100000000E-03 0.  1.
         11   -1    0    0    0    0 -0.00000000000E+00 -0.00000000000E+00 -0.45593999997E+02  0.45594000000E+02  0.51100000000E-03 0. -1.
    9900012    2    1    2    0    0 -0.14207716558E+02 -0.22068106659E+02  0.18107020484E+02  0.59301878691E+02  0.49999880841E+02 0.  0.
         12    1    1    2    0    0  0.14207716558E+02  0.22068106659E+02 -0.18107020484E+02  0.31886121309E+02  0.00000000000E+00 0. -1.
         11    1    3    3    0    0 -0.33927865905E+01 -0.11342591077E+02  0.61847048597E+01  0.13357243265E+02  0.51100000000E-03 0. -1.
        -11    1    3    3    0    0 -0.11783452218E+02 -0.23653423156E+02  0.17643066007E+02  0.31774391443E+02  0.51100000000E-03 0.  1.
         12    1    3    3    0    0  0.96852224993E+00  0.12927907574E+02 -0.57207503829E+01  0.14170243983E+02  0.00000000000E+00 0. -1.
</event>
<event>
 7    1  0.6061051E-012  0.5930199E+02  0.7816164E-02  0.1266605E+00
        -11   -1    0    0    0    0  0.00000000000E+00  0.00000000000E+00  0.45593999997E+02  0.45594000000E+02  0.51100000000E-03 0.  1.
         11   -1    0    0    0    0 -0.00000000000E+00 -0.00000000000E+00 -0.45593999997E+02  0.45594000000E+02  0.51100000000E-03 0. -1.
    9900012    2    1    2    0    0 -0.58725368544E+01  0.31045610701E+02 -0.42896546144E+01  0.59301987869E+02  0.50000079955E+02 0.  0.
         12    1    1    2    0    0  0.58725368544E+01 -0.31045610701E+02  0.42896546144E+01  0.31886012131E+02  0.00000000000E+00 0. -1.
         11    1    3    3    0    0  0.52568069499E+01  0.25461300598E+02 -0.11097473149E+02  0.28267751202E+02  0.51100000000E-03 0. -1.
        -11    1    3    3    0    0  0.63104726911E+01  0.77169308253E+01  0.88704695977E+01  0.13343849448E+02  0.51100000000E-03 0.  1.
        -12    1    3    3    0    0 -0.17439816495E+02 -0.21326207223E+01 -0.20626510636E+01  0.17690387219E+02  0.00000000000E+00 0.  1.
</event>
<event>
 7    1  0.6061051E-012  0.5930198E+02  0.7816164E-02  0.1266605E+00
        -11   -1    0    0    0    0  0.00000000000E+00  0.00000000000E+00  0.45593999997E+02  0.45594000000E+02  0.51100000000E-03 0.  1.
         11   -1    0    0    0    0 -0.00000000000E+00 -0.00000000000E+00 -0.45593999997E+02  0.45594000000E+02  0.51100000000E-03 0. -1.
    9900012    2    1    2    0    0  0.13060356077E+02 -0.28811400557E+02  0.40060866840E+01  0.59301977460E+02  0.50000060972E+02 0.  0.
         12    1    1    2    0    0 -0.13060356077E+02  0.28811400557E+02 -0.40060866840E+01  0.31886022540E+02  0.00000000000E+00 0. -1.
         11    1    3    3    0    0 -0.13009572433E+01 -0.16802477192E+01  0.67605172578E+00  0.22299704805E+01  0.51100000000E-03 0. -1.
        -11    1    3    3    0    0  0.16718338289E+02 -0.33134684156E+02 -0.13150460355E+02  0.39374417292E+02  0.51100000000E-03 0.  1.
         12    1    3    3    0    0 -0.23570249688E+01  0.60035313182E+01  0.16480495313E+02  0.17697589688E+02  0.00000000000E+00 0. -1.
</event>
<event>
 7    1  0.6061051E-012  0.5930196E+02  0.7816164E-02  0.1266605E+00
        -11   -1    0    0    0    0  0.00000000000E+00  0.00000000000E+00  0.45593999997E+02  0.45594000000E+02  0.51100000000E-03 0.  1.
         11   -1    0    0    0    0 -0.00000000000E+00 -0.00000000000E+00 -0.45593999997E+02  0.45594000000E+02  0.51100000000E-03 0. -1.
    9900012    2    1    2    0    0 -0.17076081807E+02 -0.25408119604E+02  0.89193234976E+01  0.59301961623E+02  0.50000032090E+02 0.  0.
         12    1    1    2    0    0  0.17076081807E+02  0.25408119604E+02 -0.89193234976E+01  0.31886038377E+02  0.00000000000E+00 0. -1.
         11    1    3    3    0    0  0.79428718176E+01 -0.16215181079E+01 -0.89085345895E+01  0.12044937629E+02  0.51100000000E-03 0. -1.
        -11    1    3    3    0    0 -0.11394961562E+01 -0.71370337620E+01  0.16617423438E+02  0.18121105496E+02  0.51100000000E-03 0.  1.
        -12    1    3    3    0    0 -0.23879457469E+02 -0.16649567734E+02  0.12104346493E+01  0.29135918499E+02  0.00000000000E+00 0.  1.
</event>
<event>
 7    1  0.6061051E-012  0.5930194E+02  0.7816164E-02  0.1266605E+00
        -11   -1    0    0    0    0  0.00000000000E+00  0.00000000000E+00  0.45593999997E+02  0.45594000000E+02  0.51100000000E-03 0. -1.
         11   -1    0    0    0    0 -0.00000000000E+00 -0.00000000000E+00 -0.45593999997E+02  0.45594000000E+02  0.51100000000E-03 0.  1.
    9900012    2    1    2    0    0 -0.15227959039E+02 -0.94120477746E+01 -0.26386420142E+02  0.59301944306E+02  0.50000000508E+02 0.  0.
         12    1    1    2    0    0  0.15227959039E+02  0.94120477746E+01  0.26386420142E+02  0.31886055694E+02  0.00000000000E+00 0. -1.
         11    1    3    3    0    0 -0.11919346812E+02 -0.40572560328E+01 -0.21769002788E+02  0.25147994703E+02  0.51100000000E-03 0. -1.
        -11    1    3    3    0    0 -0.27148881695E+01 -0.11657291051E+02 -0.16680628483E+02  0.20530621502E+02  0.51100000000E-03 0.  1.
         12    1    3    3    0    0 -0.59372405775E+00  0.63024993087E+01  0.12063211129E+02  0.13623328101E+02  0.00000000000E+00 0. -1.
</event>
<event>
 7    1  0.6061051E-012  0.5930196E+02  0.7816164E-02  0.1266605E+00
        -11   -1    0    0    0    0  0.00000000000E+00  0.00000000000E+00  0.45593999997E+02  0.45594000000E+02  0.51100000000E-03 0.  1.
         11   -1    0    0    0    0 -0.00000000000E+00 -0.00000000000E+00 -0.45593999997E+02  0.45594000000E+02  0.51100000000E-03 0. -1.
    9900012    2    1    2    0    0  0.17835556115E+02  0.99570757299E+01  0.24484064624E+02  0.59301955411E+02  0.50000020760E+02 0.  0.
         12    1    1    2    0    0 -0.17835556115E+02 -0.99570757299E+01 -0.24484064624E+02  0.31886044589E+02  0.00000000000E+00 0. -1.
         11    1    3    3    0    0  0.32313580090E+01  0.60668304687E+01 -0.44649130038E+01  0.81965575037E+01  0.51100000000E-03 0. -1.
        -11    1    3    3    0    0 -0.11110347293E+02 -0.77607438349E+01  0.64672891606E+01  0.15016483982E+02  0.51100000000E-03 0.  1.
        -12    1    3    3    0    0  0.25714545399E+02  0.11650989096E+02  0.22481688467E+02  0.36088913925E+02  0.00000000000E+00 0.  1.
</event>
<event>
 7    1  0.6061051E-012  0.5930194E+02  0.7816164E-02  0.1266605E+00
        -11   -1    0    0    0    0  0.00000000000E+00  0.00000000000E+00  0.45593999997E+02  0.45594000000E+02  0.51100000000E-03 0. -1.
         11   -1    0    0    0    0 -0.00000000000E+00 -0.00000000000E+00 -0.45593999997E+02  0.45594000000E+02  0.51100000000E-03 0.  1.
    9900012    2    1    2    0    0 -0.20260489094E+02 -0.96107548336E+01 -0.22668625077E+02  0.59301943648E+02  0.49999999308E+02 0.  0.
         12    1    1    2    0    0  0.20260489094E+02  0.96107548336E+01  0.22668625077E+02  0.31886056352E+02  0.00000000000E+00 0. -1.
         11    1    3    3    0    0 -0.15162434387E+02 -0.88692843084E+00 -0.22484023283E+02  0.27133325669E+02  0.51100000000E-03 0. -1.
        -11    1    3    3    0    0 -0.26267070581E+01 -0.14361720471E+02 -0.11965270103E+02  0.18876607051E+02  0.51100000000E-03 0.  1.
         12    1    3    3    0    0 -0.24713476485E+01  0.56378940679E+01  0.11780668309E+02  0.13292010929E+02  0.00000000000E+00 0. -1.
</event>
<event>
 7    1  0.6061051E-012  0.5930196E+02  0.7816164E-02  0.1266605E+00
        -11   -1    0    0    0    0  0.00000000000E+00  0.00000000000E+00  0.45593999997E+02  0.45594000000E+02  0.51100000000E-03 0.  1.
         11   -1    0    0    0    0 -0.00000000000E+00 -0.00000000000E+00 -0.45593999997E+02  0.45594000000E+02  0.51100000000E-03 0. -1.
    9900012    2    1    2    0    0  0.16346384372E+02 -0.26428906248E+02 -0.71434224667E+01  0.59301955215E+02  0.50000020402E+02 0.  0.
         12    1    1    2    0    0 -0.16346384372E+02  0.26428906248E+02  0.71434224667E+01  0.31886044785E+02  0.00000000000E+00 0. -1.
         11    1    3    3    0    0  0.17409062820E+02 -0.31789505296E+02 -0.19885822397E+00  0.36244829425E+02  0.51100000000E-03 0. -1.
        -11    1    3    3    0    0  0.10113857345E+02  0.29109383390E+01 -0.38208780044E+01  0.11196552210E+02  0.51100000000E-03 0.  1.
         12    1    3    3    0    0 -0.11176535793E+02  0.24496607087E+01 -0.31236862384E+01  0.11860573579E+02  0.00000000000E+00 0. -1.
</event>
<event>
 7    1  0.6061051E-012  0.5930193E+02  0.7816164E-02  0.1266605E+00
        -11   -1    0    0    0    0  0.00000000000E+00  0.00000000000E+00  0.45593999997E+02  0.45594000000E+02  0.51100000000E-03 0.  1.
         11   -1    0    0    0    0 -0.00000000000E+00 -0.00000000000E+00 -0.45593999997E+02  0.45594000000E+02  0.51100000000E-03 0. -1.
    9900012    2    1    2    0    0 -0.79549209672E+01 -0.57741566110E+01  0.30333151618E+02  0.59301925622E+02  0.49999966432E+02 0.  0.
         12    1    1    2    0    0  0.79549209672E+01  0.57741566110E+01 -0.30333151618E+02  0.31886074378E+02  0.00000000000E+00 0. -1.
         11    1    3    3    0    0  0.22287815404E+01  0.14667482401E+02 -0.10280354155E+01  0.14871427780E+02  0.51100000000E-03 0. -1.
        -11    1    3    3    0    0  0.50642687159E+01 -0.57850409260E-02  0.98310905436E+01  0.11058806112E+02  0.51100000000E-03 0.  1.
        -12    1    3    3    0    0 -0.15247971224E+02 -0.20435853972E+02  0.21530096490E+02  0.33371691729E+02  0.00000000000E+00 0.  1.
</event>
<event>
 7    1  0.6061051E-012  0.5930195E+02  0.7816164E-02  0.1266605E+00
        -11   -1    0    0    0    0  0.00000000000E+00  0.00000000000E+00  0.45593999997E+02  0.45594000000E+02  0.51100000000E-03 0. -1.
         11   -1    0    0    0    0 -0.00000000000E+00 -0.00000000000E+00 -0.45593999997E+02  0.45594000000E+02  0.51100000000E-03 0.  1.
    9900012    2    1    2    0    0  0.25245933890E+01  0.21202876562E+02 -0.23680897457E+02  0.59301945828E+02  0.50000003284E+02 0.  0.
         12    1    1    2    0    0 -0.25245933890E+01 -0.21202876562E+02  0.23680897457E+02  0.31886054172E+02  0.00000000000E+00 0. -1.
         11    1    3    3    0    0 -0.10141797208E+02  0.11852116164E+02  0.30806396943E+01  0.15900284569E+02  0.51100000000E-03 0. -1.
        -11    1    3    3    0    0 -0.49898906937E+01  0.14670162814E+02 -0.97133495894E+01  0.18288298079E+02  0.51100000000E-03 0.  1.
         12    1    3    3    0    0  0.17656281291E+02 -0.53194024160E+01 -0.17048187561E+02  0.25113363180E+02  0.00000000000E+00 0. -1.
</event>
<event>
 7    1  0.6061051E-012  0.5930196E+02  0.7816164E-02  0.1266605E+00
        -11   -1    0    0    0    0  0.00000000000E+00  0.00000000000E+00  0.45593999997E+02  0.45594000000E+02  0.51100000000E-03 0.  1.
         11   -1    0    0    0    0 -0.00000000000E+00 -0.00000000000E+00 -0.45593999997E+02  0.45594000000E+02  0.51100000000E-03 0. -1.
    9900012    2    1    2    0    0  0.13876759641E+02  0.27457235417E+02  0.83818522688E+01  0.59301957876E+02  0.50000025256E+02 0.  0.
         12    1    1    2    0    0 -0.13876759641E+02 -0.27457235417E+02 -0.83818522688E+01  0.31886042124E+02  0.00000000000E+00 0. -1.
         11    1    3    3    0    0 -0.80352828375E+01  0.14557266123E+02 -0.89598710372E+01  0.18888066511E+02  0.51100000000E-03 0. -1.
        -11    1    3    3    0    0 -0.57354862875E+01 -0.51927987440E+00  0.23474058571E+01  0.62189845683E+01  0.51100000000E-03 0.  1.
        -12    1    3    3    0    0  0.27647528766E+02  0.13419249169E+02  0.14994317449E+02  0.34194906797E+02  0.00000000000E+00 0.  1.
</event>
<event>
 7    1  0.6061051E-012  0.5930195E+02  0.7816164E-02  0.1266605E+00
        -11   -1    0    0    0    0  0.00000000000E+00  0.00000000000E+00  0.45593999997E+02  0.45594000000E+02  0.51100000000E-03 0.  1.
         11   -1    0    0    0    0 -0.00000000000E+00 -0.00000000000E+00 -0.45593999997E+02  0.45594000000E+02  0.51100000000E-03 0. -1.
    9900012    2    1    2    0    0  0.62300646398E+01 -0.17129097575E+02  0.26162959423E+02  0.59301950779E+02  0.50000012313E+02 0.  0.
         12    1    1    2    0    0 -0.62300646398E+01  0.17129097575E+02 -0.26162959423E+02  0.31886049221E+02  0.00000000000E+00 0. -1.
         11    1    3    3    0    0  0.77300708007E+01 -0.97752159158E+00  0.35728269716E+01  0.85717347063E+01  0.51100000000E-03 0. -1.
        -11    1    3    3    0    0  0.21363760386E+00 -0.30712116704E+02  0.14180233577E+02  0.33828372382E+02  0.51100000000E-03 0.  1.
         12    1    3    3    0    0 -0.17136437647E+01  0.14560540721E+02  0.84098988750E+01  0.16901843691E+02  0.00000000000E+00 0. -1.
</event>
<event>
 7    1  0.6061051E-012  0.5930176E+02  0.7816164E-02  0.1266605E+00
        -11   -1    0    0    0    0  0.00000000000E+00  0.00000000000E+00  0.45593999997E+02  0.45594000000E+02  0.51100000000E-03 0.  1.
         11   -1    0    0    0    0 -0.00000000000E+00 -0.00000000000E+00 -0.45593999997E+02  0.45594000000E+02  0.51100000000E-03 0. -1.
    9900012    2    1    2    0    0 -0.21752884580E+02 -0.89951956248E+01  0.21508850614E+02  0.59301761799E+02  0.49999667658E+02 0.  0.
         12    1    1    2    0    0  0.21752884580E+02  0.89951956248E+01 -0.21508850614E+02  0.31886238201E+02  0.00000000000E+00 0. -1.
         11    1    3    3    0    0 -0.13918462292E+02  0.61326044308E+01 -0.37464534092E-01  0.15209662506E+02  0.51100000000E-03 0. -1.
        -11    1    3    3    0    0  0.65869632056E+01  0.75676431784E+01  0.67986405857E+00  0.10055820352E+02  0.51100000000E-03 0.  1.
        -12    1    3    3    0    0 -0.14421385493E+02 -0.22695443234E+02  0.20866451089E+02  0.34036278942E+02  0.00000000000E+00 0.  1.
</event>
<event>
 7    1  0.6061051E-012  0.5930195E+02  0.7816164E-02  0.1266605E+00
        -11   -1    0    0    0    0  0.00000000000E+00  0.00000000000E+00  0.45593999997E+02  0.45594000000E+02  0.51100000000E-03 0.  1.
         11   -1    0    0    0    0 -0.00000000000E+00 -0.00000000000E+00 -0.45593999997E+02  0.45594000000E+02  0.51100000000E-03 0. -1.
    9900012    2    1    2    0    0 -0.14501870292E+01 -0.24476204638E+02  0.20384619383E+02  0.59301947512E+02  0.50000006354E+02 0.  0.
         12    1    1    2    0    0  0.14501870292E+01  0.24476204638E+02 -0.20384619383E+02  0.31886052488E+02  0.00000000000E+00 0. -1.
         11    1    3    3    0    0 -0.10328097448E+02  0.49717672230E+01  0.66565574088E+01  0.13255105545E+02  0.51100000000E-03 0. -1.
        -11    1    3    3    0    0 -0.99775877369E+01 -0.55325425039E+01  0.10352723480E+02  0.15405848478E+02  0.51100000000E-03 0.  1.
         12    1    3    3    0    0  0.18855498155E+02 -0.23915429357E+02  0.33753384942E+01  0.30640993489E+02  0.00000000000E+00 0. -1.
</event>
<event>
 7    1  0.6061051E-012  0.5930194E+02  0.7816164E-02  0.1266605E+00
        -11   -1    0    0    0    0  0.00000000000E+00  0.00000000000E+00  0.45593999997E+02  0.45594000000E+02  0.51100000000E-03 0.  1.
         11   -1    0    0    0    0 -0.00000000000E+00 -0.00000000000E+00 -0.45593999997E+02  0.45594000000E+02  0.51100000000E-03 0. -1.
    9900012    2    1    2    0    0  0.10147312898E+02 -0.50041943414E+01  0.29811253241E+02  0.59301941294E+02  0.49999995014E+02 0.  0.
         12    1    1    2    0    0 -0.10147312898E+02  0.50041943414E+01 -0.29811253241E+02  0.31886058706E+02  0.00000000000E+00 0. -1.
         11    1    3    3    0    0 -0.66070724445E+01 -0.81534898408E+01  0.49081667266E+01  0.11585460878E+02  0.51100000000E-03 0. -1.
        -11    1    3    3    0    0  0.18505283739E+02 -0.66218096041E+01 -0.12987917660E+01  0.19697226937E+02  0.51100000000E-03 0.  1.
        -12    1    3    3    0    0 -0.17508983962E+01  0.97711051035E+01  0.26201878280E+02  0.28019253479E+02  0.00000000000E+00 0.  1.
</event>
<event>
 7    1  0.6061051E-012  0.5930212E+02  0.7816164E-02  0.1266604E+00
        -11   -1    0    0    0    0  0.00000000000E+00  0.00000000000E+00  0.45593999997E+02  0.45594000000E+02  0.51100000000E-03 0.  1.
         11   -1    0    0    0    0 -0.00000000000E+00 -0.00000000000E+00 -0.45593999997E+02  0.45594000000E+02  0.51100000000E-03 0. -1.
    9900012    2    1    2    0    0 -0.11576426083E+01 -0.24665737121E+02  0.20173518097E+02  0.59302116657E+02  0.50000314834E+02 0.  0.
         12    1    1    2    0    0  0.11576426083E+01  0.24665737121E+02 -0.20173518097E+02  0.31885883343E+02  0.00000000000E+00 0. -1.
         11    1    3    3    0    0  0.73844278322E+01 -0.16591089581E+02 -0.48607155915E+01  0.18799483616E+02  0.51100000000E-03 0. -1.
        -11    1    3    3    0    0  0.92158212466E+01 -0.97955055757E+01  0.71113697422E+01  0.15213640938E+02  0.51100000000E-03 0.  1.
        -12    1    3    3    0    0 -0.17757891687E+02  0.17208580356E+01  0.17922863946E+02  0.25288992103E+02  0.00000000000E+00 0.  1.
</event>
<event>
 7    1  0.6061051E-012  0.5930195E+02  0.7816164E-02  0.1266605E+00
        -11   -1    0    0    0    0  0.00000000000E+00  0.00000000000E+00  0.45593999997E+02  0.45594000000E+02  0.51100000000E-03 0. -1.
         11   -1    0    0    0    0 -0.00000000000E+00 -0.00000000000E+00 -0.45593999997E+02  0.45594000000E+02  0.51100000000E-03 0.  1.
    9900012    2    1    2    0    0 -0.12193803865E+02  0.93375906296E+00 -0.29447569121E+02  0.59301951549E+02  0.50000013718E+02 0.  0.
         12    1    1    2    0    0  0.12193803865E+02 -0.93375906296E+00  0.29447569121E+02  0.31886048451E+02  0.00000000000E+00 0. -1.
         11    1    3    3    0    0  0.10272862718E+01  0.19486872843E+01  0.57582795260E+01  0.61652641936E+01  0.51100000000E-03 0. -1.
        -11    1    3    3    0    0  0.62546461257E+01  0.12928942708E+02 -0.65416130863E+01  0.15781978955E+02  0.51100000000E-03 0.  1.
        -12    1    3    3    0    0 -0.19475736262E+02 -0.13943870929E+02 -0.28664235560E+02  0.37354708401E+02  0.00000000000E+00 0.  1.
</event>
<event>
 7    1  0.6061051E-012  0.5930196E+02  0.7816164E-02  0.1266605E+00
        -11   -1    0    0    0    0  0.00000000000E+00  0.00000000000E+00  0.45593999997E+02  0.45594000000E+02  0.51100000000E-03 0. -1.
         11   -1    0    0    0    0 -0.00000000000E+00 -0.00000000000E+00 -0.45593999997E+02  0.45594000000E+02  0.51100000000E-03 0.  1.
    9900012    2    1    2    0    0 -0.17997888876E+02  0.24243307496E+02 -0.10249746760E+02  0.59301964326E+02  0.50000037019E+02 0.  0.
         12    1    1    2    0    0  0.17997888876E+02 -0.24243307496E+02  0.10249746760E+02  0.31886035674E+02  0.00000000000E+00 0. -1.
         11    1    3    3    0    0 -0.92933462284E+01  0.24561942316E+02  0.21482304900E+01  0.26349007362E+02  0.51100000000E-03 0. -1.
        -11    1    3    3    0    0  0.34890929312E+01  0.11985741808E+02 -0.17141520892E+01  0.12600400542E+02  0.51100000000E-03 0.  1.
        -12    1    3    3    0    0 -0.12193635579E+02 -0.12304376628E+02 -0.10683825161E+02  0.20352556422E+02  0.00000000000E+00 0.  1.
</event>
<event>
 7    1  0.6061051E-012  0.5930157E+02  0.7816164E-02  0.1266606E+00
        -11   -1    0    0    0    0  0.00000000000E+00  0.00000000000E+00  0.45593999997E+02  0.45594000000E+02  0.51100000000E-03 0.  1.
         11   -1    0    0    0    0 -0.00000000000E+00 -0.00000000000E+00 -0.45593999997E+02  0.45594000000E+02  0.51100000000E-03 0. -1.
    9900012    2    1    2    0    0 -0.62764813696E+01 -0.28029128798E+02  0.13846229036E+02  0.59301571256E+02  0.49999320148E+02 0.  0.
         12    1    1    2    0    0  0.62764813696E+01  0.28029128798E+02 -0.13846229036E+02  0.31886428744E+02  0.00000000000E+00 0. -1.
         11    1    3    3    0    0  0.76224283774E+00 -0.51504490610E+01  0.19716432305E+02  0.20392298614E+02  0.51100000000E-03 0. -1.
        -11    1    3    3    0    0 -0.10420594732E+01 -0.57258663021E+01  0.12054113851E+02  0.13385555418E+02  0.51100000000E-03 0.  1.
         12    1    3    3    0    0 -0.59966647341E+01 -0.17152813435E+02 -0.17924317120E+02  0.25523717223E+02  0.00000000000E+00 0. -1.
</event>
<event>
 7    1  0.6061051E-012  0.5930194E+02  0.7816164E-02  0.1266605E+00
        -11   -1    0    0    0    0  0.00000000000E+00  0.00000000000E+00  0.45593999997E+02  0.45594000000E+02  0.51100000000E-03 0. -1.
         11   -1    0    0    0    0 -0.00000000000E+00 -0.00000000000E+00 -0.45593999997E+02  0.45594000000E+02  0.51100000000E-03 0.  1.
    9900012    2    1    2    0    0  0.77849502645E+01 -0.26494925309E+02 -0.15941597675E+02  0.59301936364E+02  0.49999986023E+02 0.  0.
         12    1    1    2    0    0 -0.77849502645E+01  0.26494925309E+02  0.15941597675E+02  0.31886063636E+02  0.00000000000E+00 0. -1.
         11    1    3    3    0    0  0.96258623893E+01 -0.31012433121E+02 -0.25073175687E+02  0.41025508822E+02  0.51100000000E-03 0.  1.
        -11    1    3    3    0    0  0.64137380764E+01  0.30112214511E+01  0.22792103041E+01  0.74430027954E+01  0.51100000000E-03 0. -1.
        -12    1    3    3    0    0 -0.82546502012E+01  0.15062863607E+01  0.68523677075E+01  0.10833424747E+02  0.00000000000E+00 0.  1.
</event>
<event>
 7    1  0.6061051E-012  0.5930202E+02  0.7816164E-02  0.1266605E+00
        -11   -1    0    0    0    0  0.00000000000E+00  0.00000000000E+00  0.45593999997E+02  0.45594000000E+02  0.51100000000E-03 0.  1.
         11   -1    0    0    0    0 -0.00000000000E+00 -0.00000000000E+00 -0.45593999997E+02  0.45594000000E+02  0.51100000000E-03 0. -1.
    9900012    2    1    2    0    0 -0.60743115835E+01  0.59947544996E+01  0.30722656305E+02  0.59302016353E+02  0.50000131903E+02 0.  0.
         12    1    1    2    0    0  0.60743115835E+01 -0.59947544996E+01 -0.30722656305E+02  0.31885983647E+02  0.00000000000E+00 0. -1.
         11    1    3    3    0    0  0.42922085514E+01  0.11524034800E+02  0.19197281134E+02  0.22798290189E+02  0.51100000000E-03 0. -1.
        -11    1    3    3    0    0 -0.14857040682E+02  0.84912244872E+01  0.13302727623E+02  0.21674757521E+02  0.51100000000E-03 0.  1.
        -12    1    3    3    0    0  0.44905205470E+01 -0.14020504787E+02 -0.17773524525E+01  0.14828968643E+02  0.00000000000E+00 0.  1.
</event>
<event>
 7    1  0.6061051E-012  0.5930194E+02  0.7816164E-02  0.1266605E+00
        -11   -1    0    0    0    0  0.00000000000E+00  0.00000000000E+00  0.45593999997E+02  0.45594000000E+02  0.51100000000E-03 0. -1.
         11   -1    0    0    0    0 -0.00000000000E+00 -0.00000000000E+00 -0.45593999997E+02  0.45594000000E+02  0.51100000000E-03 0.  1.
    9900012    2    1    2    0    0 -0.30491486262E+02 -0.39225864340E+01 -0.84618756557E+01  0.59301941002E+02  0.49999994482E+02 0.  0.
         12    1    1    2    0    0  0.30491486262E+02  0.39225864340E+01  0.84618756557E+01  0.31886058998E+02  0.00000000000E+00 0. -1.
         11    1    3    3    0    0 -0.12708189251E+02 -0.61185534004E+01  0.47167836063E+01  0.14872216298E+02  0.51100000000E-03 0. -1.
        -11    1    3    3    0    0 -0.25730728504E+02 -0.63565645920E+01  0.41897928853E+00  0.26507580928E+02  0.51100000000E-03 0.  1.
        -12    1    3    3    0    0  0.79474314930E+01  0.85525315584E+01 -0.13597638551E+02  0.17922143776E+02  0.00000000000E+00 0.  1.
</event>
<event>
 7    1  0.6061051E-012  0.5930194E+02  0.7816164E-02  0.1266605E+00
        -11   -1    0    0    0    0  0.00000000000E+00  0.00000000000E+00  0.45593999997E+02  0.45594000000E+02  0.51100000000E-03 0. -1.
         11   -1    0    0    0    0 -0.00000000000E+00 -0.00000000000E+00 -0.45593999997E+02  0.45594000000E+02  0.51100000000E-03 0.  1.
    9900012    2    1    2    0    0 -0.29638864451E+01 -0.23990285352E+02 -0.20794285741E+02  0.59301941391E+02  0.49999995191E+02 0.  0.
         12    1    1    2    0    0  0.29638864451E+01  0.23990285352E+02  0.20794285741E+02  0.31886058609E+02  0.00000000000E+00 0. -1.
         11    1    3    3    0    0  0.47738423909E+01  0.40509324732E+01  0.25671821212E+00  0.62662213157E+01  0.51100000000E-03 0. -1.
        -11    1    3    3    0    0  0.59079940870E+01  0.76943572700E+01 -0.74910611567E+00  0.97297835620E+01  0.51100000000E-03 0.  1.
        -12    1    3    3    0    0 -0.13645722923E+02 -0.35735575095E+02 -0.20301897837E+02  0.43305936513E+02  0.00000000000E+00 0.  1.
</event>
<event>
 7    1  0.6061051E-012  0.5930194E+02  0.7816164E-02  0.1266605E+00
        -11   -1    0    0    0    0  0.00000000000E+00  0.00000000000E+00  0.45593999997E+02  0.45594000000E+02  0.51100000000E-03 0.  1.
         11   -1    0    0    0    0 -0.00000000000E+00 -0.00000000000E+00 -0.45593999997E+02  0.45594000000E+02  0.51100000000E-03 0. -1.
    9900012    2    1    2    0    0  0.22679296438E+02 -0.15473222484E+02  0.16215719266E+02  0.59301942667E+02  0.49999997518E+02 0.  0.
         12    1    1    2    0    0 -0.22679296438E+02  0.15473222484E+02 -0.16215719266E+02  0.31886057333E+02  0.00000000000E+00 0. -1.
         11    1    3    3    0    0 -0.41104872396E+01 -0.24571914930E+01 -0.16415377377E+01  0.50624640034E+01  0.51100000000E-03 0. -1.
        -11    1    3    3    0    0  0.33860916362E+01 -0.66832780523E+00  0.26252478035E+02  0.26478385182E+02  0.51100000000E-03 0.  1.
        -12    1    3    3    0    0  0.23403692041E+02 -0.12347703185E+02 -0.83952210306E+01  0.27761093481E+02  0.00000000000E+00 0.  1.
</event>
<event>
 7    1  0.6061051E-012  0.5930195E+02  0.7816164E-02  0.1266605E+00
        -11   -1    0    0    0    0  0.00000000000E+00  0.00000000000E+00  0.45593999997E+02  0.45594000000E+02  0.51100000000E-03 0.  1.
         11   -1    0    0    0    0 -0.00000000000E+00 -0.00000000000E+00 -0.45593999997E+02  0.45594000000E+02  0.51100000000E-03 0. -1.
    9900012    2    1    2    0    0 -0.23944563466E+02  0.53422614422E+01  0.20367580873E+02  0.59301949327E+02  0.50000009664E+02 0.  0.
         12    1    1    2    0    0  0.23944563466E+02 -0.53422614422E+01 -0.20367580873E+02  0.31886050673E+02  0.00000000000E+00 0. -1.
         11    1    3    3    0    0 -0.90901279325E+01 -0.12530759707E+02  0.29998549625E+01  0.15768623742E+02  0.51100000000E-03 0. -1.
        -11    1    3    3    0    0  0.26333721533E+01 -0.25532646561E+01  0.16208818464E+02  0.16618652339E+02  0.51100000000E-03 0.  1.
        -12    1    3    3    0    0 -0.17487807687E+02  0.20426285805E+02  0.11589074471E+01  0.26914673246E+02  0.00000000000E+00 0.  1.
</event>
<event>
 7    1  0.6061051E-012  0.5930199E+02  0.7816164E-02  0.1266605E+00
        -11   -1    0    0    0    0  0.00000000000E+00  0.00000000000E+00  0.45593999997E+02  0.45594000000E+02  0.51100000000E-03 0. -1.
         11   -1    0    0    0    0 -0.00000000000E+00 -0.00000000000E+00 -0.45593999997E+02  0.45594000000E+02  0.51100000000E-03 0.  1.
    9900012    2    1    2    0    0  0.19443798880E+02 -0.21102721880E+02  0.13904363090E+02  0.59301992120E+02  0.50000087708E+02 0.  0.
         12    1    1    2    0    0 -0.19443798880E+02  0.21102721880E+02 -0.13904363090E+02  0.31886007880E+02  0.00000000000E+00 0. -1.
         11    1    3    3    0    0  0.23241402879E+02 -0.31264493257E+02  0.11870698700E+02  0.40725235841E+02  0.51100000000E-03 0. -1.
        -11    1    3    3    0    0  0.22370170842E+01  0.35750176473E+01  0.71360773385E+01  0.82890648842E+01  0.51100000000E-03 0.  1.
        -12    1    3    3    0    0 -0.60346210835E+01  0.65867537303E+01 -0.51024129484E+01  0.10287691394E+02  0.00000000000E+00 0.  1.
</event>
<event>
 7    1  0.6061051E-012  0.5930195E+02  0.7816164E-02  0.1266605E+00
        -11   -1    0    0    0    0  0.00000000000E+00  0.00000000000E+00  0.45593999997E+02  0.45594000000E+02  0.51100000000E-03 0.  1.
         11   -1    0    0    0    0 -0.00000000000E+00 -0.00000000000E+00 -0.45593999997E+02  0.45594000000E+02  0.51100000000E-03 0. -1.
    9900012    2    1    2    0    0  0.21022727565E+02 -0.82307456652E+01  0.22517109665E+02  0.59301945428E+02  0.50000002554E+02 0.  0.
         12    1    1    2    0    0 -0.21022727565E+02  0.82307456652E+01 -0.22517109665E+02  0.31886054572E+02  0.00000000000E+00 0. -1.
         11    1    3    3    0    0  0.24957479584E+01  0.11891595730E+02  0.17917835276E+01  0.12282072111E+02  0.51100000000E-03 0. -1.
        -11    1    3    3    0    0  0.27302825560E+02 -0.11069716745E+02  0.16216838753E+02  0.33629879152E+02  0.51100000000E-03 0.  1.
         12    1    3    3    0    0 -0.87758459528E+01 -0.90526246501E+01  0.45084873840E+01  0.13389994165E+02  0.00000000000E+00 0. -1.
</event>
<event>
 7    1  0.6061051E-012  0.5930197E+02  0.7816164E-02  0.1266605E+00
        -11   -1    0    0    0    0  0.00000000000E+00  0.00000000000E+00  0.45593999997E+02  0.45594000000E+02  0.51100000000E-03 0.  1.
         11   -1    0    0    0    0 -0.00000000000E+00 -0.00000000000E+00 -0.45593999997E+02  0.45594000000E+02  0.51100000000E-03 0. -1.
    9900012    2    1    2    0    0  0.23353635589E+02 -0.21709352334E+02 -0.17484904180E+00  0.59301970987E+02  0.50000049168E+02 0.  0.
         12    1    1    2    0    0 -0.23353635589E+02  0.21709352334E+02  0.17484904180E+00  0.31886029013E+02  0.00000000000E+00 0. -1.
         11    1    3    3    0    0 -0.42093390064E+01 -0.25635724465E+02 -0.32528965901E+01  0.26181868539E+02  0.51100000000E-03 0. -1.
        -11    1    3    3    0    0  0.21898852039E+01 -0.35746898492E+01  0.50793546647E+01  0.65858825373E+01  0.51100000000E-03 0.  1.
         12    1    3    3    0    0  0.25373089392E+02  0.75010619801E+01 -0.20013071164E+01  0.26534219911E+02  0.00000000000E+00 0. -1.
</event>
<event>
 7    1  0.6061051E-012  0.5930193E+02  0.7816164E-02  0.1266605E+00
        -11   -1    0    0    0    0  0.00000000000E+00  0.00000000000E+00  0.45593999997E+02  0.45594000000E+02  0.51100000000E-03 0. -1.
         11   -1    0    0    0    0 -0.00000000000E+00 -0.00000000000E+00 -0.45593999997E+02  0.45594000000E+02  0.51100000000E-03 0.  1.
    9900012    2    1    2    0    0 -0.26617236212E+02 -0.24697768850E+01 -0.17382304919E+02  0.59301928029E+02  0.49999970823E+02 0.  0.
         12    1    1    2    0    0  0.26617236212E+02  0.24697768850E+01  0.17382304919E+02  0.31886071971E+02  0.00000000000E+00 0. -1.
         11    1    3    3    0    0 -0.14620025955E+02 -0.30644641041E+01 -0.68138385147E+01  0.16418419374E+02  0.51100000000E-03 0. -1.
        -11    1    3    3    0    0 -0.11541999758E+02 -0.96980734718E+01  0.11212954197E+02  0.18788313644E+02  0.51100000000E-03 0.  1.
        -12    1    3    3    0    0 -0.45521049857E+00  0.10292760691E+02 -0.21781420601E+02  0.24095195012E+02  0.00000000000E+00 0.  1.
</event>
<event>
 7    1  0.6061051E-012  0.5930195E+02  0.7816164E-02  0.1266605E+00
        -11   -1    0    0    0    0  0.00000000000E+00  0.00000000000E+00  0.45593999997E+02  0.45594000000E+02  0.51100000000E-03 0. -1.
         11   -1    0    0    0    0 -0.00000000000E+00 -0.00000000000E+00 -0.45593999997E+02  0.45594000000E+02  0.51100000000E-03 0.  1.
    9900012    2    1    2    0    0 -0.24375297786E+02 -0.91917442870E+01 -0.18386860219E+02  0.59301953931E+02  0.50000018061E+02 0.  0.
         12    1    1    2    0    0  0.24375297786E+02  0.91917442870E+01  0.18386860219E+02  0.31886046069E+02  0.00000000000E+00 0. -1.
         11    1    3    3    0    0 -0.33024387899E+02 -0.65256570052E+01  0.46483056042E+01  0.33982365143E+02  0.51100000000E-03 0. -1.
        -11    1    3    3    0    0  0.30105641572E-01 -0.16961655674E+01 -0.24320260335E+01  0.29652377426E+01  0.51100000000E-03 0.  1.
        -12    1    3    3    0    0  0.86189844714E+01 -0.96992171441E+00 -0.20603139790E+02  0.22354351045E+02  0.00000000000E+00 0.  1.
</event>
<event>
 7    1  0.6061051E-012  0.5930192E+02  0.7816164E-02  0.1266605E+00
        -11   -1    0    0    0    0  0.00000000000E+00  0.00000000000E+00  0.45593999997E+02  0.45594000000E+02  0.51100000000E-03 0.  1.
         11   -1    0    0    0    0 -0.00000000000E+00 -0.00000000000E+00 -0.45593999997E+02  0.45594000000E+02  0.51100000000E-03 0. -1.
    9900012    2    1    2    0    0  0.69030954599E+01 -0.15847325152E+02  0.26794250686E+02  0.59301916653E+02  0.49999950075E+02 0.  0.
         12    1    1    2    0    0 -0.69030954599E+01  0.15847325152E+02 -0.26794250686E+02  0.31886083347E+02  0.00000000000E+00 0. -1.
         11    1    3    3    0    0 -0.35013165214E+01 -0.86438412437E+01  0.89832637365E+01  0.12948908697E+02  0.51100000000E-03 0.  1.
        -11    1    3    3    0    0  0.17892486796E+02 -0.18480112232E+02  0.23895807779E+01  0.25833422700E+02  0.51100000000E-03 0. -1.
        -12    1    3    3    0    0 -0.74880748145E+01  0.11276628323E+02  0.15421406171E+02  0.20519585256E+02  0.00000000000E+00 0.  1.
</event>
<event>
 7    1  0.6061051E-012  0.5930197E+02  0.7816164E-02  0.1266605E+00
        -11   -1    0    0    0    0  0.00000000000E+00  0.00000000000E+00  0.45593999997E+02  0.45594000000E+02  0.51100000000E-03 0.  1.
         11   -1    0    0    0    0 -0.00000000000E+00 -0.00000000000E+00 -0.45593999997E+02  0.45594000000E+02  0.51100000000E-03 0. -1.
    9900012    2    1    2    0    0  0.18544234058E+02  0.24802768470E+02  0.75929445433E+01  0.59301972537E+02  0.50000051993E+02 0.  0.
         12    1    1    2    0    0 -0.18544234058E+02 -0.24802768470E+02 -0.75929445433E+01  0.31886027463E+02  0.00000000000E+00 0. -1.
         11    1    3    3    0    0  0.15393190583E+02  0.12764277219E+02 -0.79476821550E+01  0.21518427943E+02  0.51100000000E-03 0. -1.
        -11    1    3    3    0    0  0.13040618217E+02  0.18346341532E+02  0.82533355214E+01  0.23974226131E+02  0.51100000000E-03 0.  1.
         12    1    3    3    0    0 -0.98895747413E+01 -0.63078502805E+01  0.72872911769E+01  0.13809318463E+02  0.00000000000E+00 0. -1.
</event>
<event>
 7    1  0.6061051E-012  0.5930196E+02  0.7816164E-02  0.1266605E+00
        -11   -1    0    0    0    0  0.00000000000E+00  0.00000000000E+00  0.45593999997E+02  0.45594000000E+02  0.51100000000E-03 0.  1.
         11   -1    0    0    0    0 -0.00000000000E+00 -0.00000000000E+00 -0.45593999997E+02  0.45594000000E+02  0.51100000000E-03 0. -1.
    9900012    2    1    2    0    0  0.43042584218E+00 -0.28498110652E+02 -0.14296562981E+02  0.59301964024E+02  0.50000036469E+02 0.  0.
         12    1    1    2    0    0 -0.43042584218E+00  0.28498110652E+02  0.14296562981E+02  0.31886035976E+02  0.00000000000E+00 0. -1.
         11    1    3    3    0    0  0.12014748431E+00 -0.48625526681E+01 -0.13108771337E+02  0.13982086400E+02  0.51100000000E-03 0. -1.
        -11    1    3    3    0    0 -0.12375903539E+02 -0.27043846028E+02 -0.76081084531E+01  0.30698793313E+02  0.51100000000E-03 0.  1.
         12    1    3    3    0    0  0.12686181897E+02  0.34082880440E+01  0.64203168086E+01  0.14621084311E+02  0.00000000000E+00 0. -1.
</event>
<event>
 7    1  0.6061051E-012  0.5930197E+02  0.7816164E-02  0.1266605E+00
        -11   -1    0    0    0    0  0.00000000000E+00  0.00000000000E+00  0.45593999997E+02  0.45594000000E+02  0.51100000000E-03 0.  1.
         11   -1    0    0    0    0 -0.00000000000E+00 -0.00000000000E+00 -0.45593999997E+02  0.45594000000E+02  0.51100000000E-03 0. -1.
    9900012    2    1    2    0    0  0.97749194040E+01  0.40582109296E+01  0.30078248414E+02  0.59301966177E+02  0.50000040395E+02 0.  0.
         12    1    1    2    0    0 -0.97749194040E+01 -0.40582109296E+01 -0.30078248414E+02  0.31886033823E+02  0.00000000000E+00 0. -1.
         11    1    3    3    0    0  0.24734322830E+00 -0.35764292270E+01 -0.10493718383E+01  0.37353990690E+01  0.51100000000E-03 0. -1.
        -11    1    3    3    0    0  0.30654180259E+01 -0.16586280308E+02  0.24308935857E+02  0.29587596132E+02  0.51100000000E-03 0.  1.
         12    1    3    3    0    0  0.64621581498E+01  0.24220920464E+02  0.68186843952E+01  0.25978970976E+02  0.00000000000E+00 0. -1.
</event>
<event>
 7    1  0.6061051E-012  0.5930190E+02  0.7816164E-02  0.1266605E+00
        -11   -1    0    0    0    0  0.00000000000E+00  0.00000000000E+00  0.45593999997E+02  0.45594000000E+02  0.51100000000E-03 0. -1.
         11   -1    0    0    0    0 -0.00000000000E+00 -0.00000000000E+00 -0.45593999997E+02  0.45594000000E+02  0.51100000000E-03 0.  1.
    9900012    2    1    2    0    0  0.10334528433E+00  0.31302324653E+02 -0.60726399000E+01  0.59301903277E+02  0.49999925680E+02 0.  0.
         12    1    1    2    0    0 -0.10334528433E+00 -0.31302324653E+02  0.60726399000E+01  0.31886096723E+02  0.00000000000E+00 0. -1.
         11    1    3    3    0    0 -0.47722857343E+01  0.10730211976E+02  0.49789622753E+01  0.12755478265E+02  0.51100000000E-03 0. -1.
        -11    1    3    3    0    0 -0.84073686771E+01 -0.40556873037E+01  0.83277082390E+01  0.12509323417E+02  0.51100000000E-03 0.  1.
        -12    1    3    3    0    0  0.13282999696E+02  0.24627799981E+02 -0.19379310414E+02  0.34037101594E+02  0.00000000000E+00 0.  1.
</event>
<event>
 7    1  0.6061051E-012  0.5930187E+02  0.7816164E-02  0.1266605E+00
        -11   -1    0    0    0    0  0.00000000000E+00  0.00000000000E+00  0.45593999997E+02  0.45594000000E+02  0.51100000000E-03 0. -1.
         11   -1    0    0    0    0 -0.00000000000E+00 -0.00000000000E+00 -0.45593999997E+02  0.45594000000E+02  0.51100000000E-03 0.  1.
    9900012    2    1    2    0    0  0.21180551771E+02  0.10210279756E+01 -0.23813172217E+02  0.59301867552E+02  0.49999860526E+02 0.  0.
         12    1    1    2    0    0 -0.21180551771E+02 -0.10210279756E+01  0.23813172217E+02  0.31886132448E+02  0.00000000000E+00 0. -1.
         11    1    3    3    0    0  0.17510961009E+02  0.73739544965E+01 -0.19880664930E+01  0.19103962129E+02  0.51100000000E-03 0. -1.
        -11    1    3    3    0    0  0.13787187883E+01  0.13568942632E+02 -0.10067511867E+02  0.16952046045E+02  0.51100000000E-03 0.  1.
        -12    1    3    3    0    0  0.22908719743E+01 -0.19921869153E+02 -0.11757593857E+02  0.23245859378E+02  0.00000000000E+00 0.  1.
</event>
<event>
 7    1  0.6061051E-012  0.5930193E+02  0.7816164E-02  0.1266605E+00
        -11   -1    0    0    0    0  0.00000000000E+00  0.00000000000E+00  0.45593999997E+02  0.45594000000E+02  0.51100000000E-03 0. -1.
         11   -1    0    0    0    0 -0.00000000000E+00 -0.00000000000E+00 -0.45593999997E+02  0.45594000000E+02  0.51100000000E-03 0.  1.
    9900012    2    1    2    0    0  0.13116443837E+02 -0.87057510882E+00 -0.29050348677E+02  0.59301925325E+02  0.49999965891E+02 0.  0.
         12    1    1    2    0    0 -0.13116443837E+02  0.87057510882E+00  0.29050348677E+02  0.31886074675E+02  0.00000000000E+00 0. -1.
         11    1    3    3    0    0  0.13944525499E+02  0.11924810551E+02 -0.55323210198E+01  0.19163962904E+02  0.51100000000E-03 0. -1.
        -11    1    3    3    0    0  0.79732465898E+01  0.13126404172E+01  0.31810589941E+01  0.86841708085E+01  0.51100000000E-03 0.  1.
         12    1    3    3    0    0 -0.88013282519E+01 -0.14108026077E+02 -0.26699086651E+02  0.31453791612E+02  0.00000000000E+00 0. -1.
</event>
<event>
 7    1  0.6061051E-012  0.5930195E+02  0.7816164E-02  0.1266605E+00
        -11   -1    0    0    0    0  0.00000000000E+00  0.00000000000E+00  0.45593999997E+02  0.45594000000E+02  0.51100000000E-03 0. -1.
         11   -1    0    0    0    0 -0.00000000000E+00 -0.00000000000E+00 -0.45593999997E+02  0.45594000000E+02  0.51100000000E-03 0.  1.
    9900012    2    1    2    0    0 -0.29391052674E+02 -0.87402941374E+01 -0.87460538964E+01  0.59301950109E+02  0.50000011090E+02 0.  0.
         12    1    1    2    0    0  0.29391052674E+02  0.87402941374E+01  0.87460538964E+01  0.31886049891E+02  0.00000000000E+00 0. -1.
         11    1    3    3    0    0 -0.12431095939E+00 -0.37552831584E+01  0.13043138606E+01  0.39772905001E+01  0.51100000000E-03 0. -1.
        -11    1    3    3    0    0 -0.99392371225E+01 -0.11018269477E+02 -0.25739298576E+02  0.29710304412E+02  0.51100000000E-03 0.  1.
         12    1    3    3    0    0 -0.19327504592E+02  0.60332584977E+01  0.15688930819E+02  0.25614355196E+02  0.00000000000E+00 0. -1.
</event>
<event>
 7    1  0.6061051E-012  0.5930200E+02  0.7816164E-02  0.1266605E+00
        -11   -1    0    0    0    0  0.00000000000E+00  0.00000000000E+00  0.45593999997E+02  0.45594000000E+02  0.51100000000E-03 0. -1.
         11   -1    0    0    0    0 -0.00000000000E+00 -0.00000000000E+00 -0.45593999997E+02  0.45594000000E+02  0.51100000000E-03 0.  1.
    9900012    2    1    2    0    0  0.31577028951E+02 -0.41700713081E+01 -0.14896382275E+01  0.59301995638E+02  0.50000094125E+02 0.  0.
         12    1    1    2    0    0 -0.31577028951E+02  0.41700713081E+01  0.14896382275E+01  0.31886004362E+02  0.00000000000E+00 0. -1.
         11    1    3    3    0    0  0.14934454130E+01 -0.10317900636E+02  0.90749772062E+01  0.13821890764E+02  0.51100000000E-03 0. -1.
        -11    1    3    3    0    0  0.59149011013E+00  0.22676496046E+01  0.93786886654E+01  0.96670521165E+01  0.51100000000E-03 0.  1.
        -12    1    3    3    0    0  0.29492093428E+02  0.38801797231E+01 -0.19943304099E+02  0.35813052758E+02  0.00000000000E+00 0.  1.
</event>
<event>
 7    1  0.6061051E-012  0.5930194E+02  0.7816164E-02  0.1266605E+00
        -11   -1    0    0    0    0  0.00000000000E+00  0.00000000000E+00  0.45593999997E+02  0.45594000000E+02  0.51100000000E-03 0. -1.
         11   -1    0    0    0    0 -0.00000000000E+00 -0.00000000000E+00 -0.45593999997E+02  0.45594000000E+02  0.51100000000E-03 0.  1.
    9900012    2    1    2    0    0 -0.74013640348E+01 -0.25293311188E+02 -0.17949617270E+02  0.59301944418E+02  0.50000000712E+02 0.  0.
         12    1    1    2    0    0  0.74013640348E+01  0.25293311188E+02  0.17949617270E+02  0.31886055582E+02  0.00000000000E+00 0. -1.
         11    1    3    3    0    0  0.49797836179E+01  0.79551712153E+01  0.49174563916E+01  0.10595488265E+02  0.51100000000E-03 0. -1.
        -11    1    3    3    0    0  0.67343283418E+01 -0.40537730285E+01 -0.63202841224E+01  0.10086141266E+02  0.51100000000E-03 0.  1.
        -12    1    3    3    0    0 -0.19115475995E+02 -0.29194709375E+02 -0.16546789539E+02  0.38620314888E+02  0.00000000000E+00 0.  1.
</event>
<event>
 7    1  0.6061051E-012  0.5930198E+02  0.7816164E-02  0.1266605E+00
        -11   -1    0    0    0    0  0.00000000000E+00  0.00000000000E+00  0.45593999997E+02  0.45594000000E+02  0.51100000000E-03 0.  1.
         11   -1    0    0    0    0 -0.00000000000E+00 -0.00000000000E+00 -0.45593999997E+02  0.45594000000E+02  0.51100000000E-03 0. -1.
    9900012    2    1    2    0    0 -0.20250959698E+02  0.53311884404E+01  0.24045697380E+02  0.59301976395E+02  0.50000059030E+02 0.  0.
         12    1    1    2    0    0  0.20250959698E+02 -0.53311884404E+01 -0.24045697380E+02  0.31886023605E+02  0.00000000000E+00 0. -1.
         11    1    3    3    0    0 -0.10898438264E+02 -0.16631877581E+01  0.90960701940E+00  0.11062076447E+02  0.51100000000E-03 0. -1.
        -11    1    3    3    0    0 -0.17810301675E+02 -0.89120245122E+01  0.22729356139E+02  0.30220103531E+02  0.51100000000E-03 0.  1.
         12    1    3    3    0    0  0.84577802419E+01  0.15906400711E+02  0.40673422137E+00  0.18019796417E+02  0.00000000000E+00 0. -1.
</event>
<event>
 7    1  0.6061051E-012  0.5930196E+02  0.7816164E-02  0.1266605E+00
        -11   -1    0    0    0    0  0.00000000000E+00  0.00000000000E+00  0.45593999997E+02  0.45594000000E+02  0.51100000000E-03 0.  1.
         11   -1    0    0    0    0 -0.00000000000E+00 -0.00000000000E+00 -0.45593999997E+02  0.45594000000E+02  0.51100000000E-03 0. -1.
    9900012    2    1    2    0    0 -0.20878649885E+02  0.17620139865E+02  0.16441777182E+02  0.59301962511E+02  0.50000033708E+02 0.  0.
         12    1    1    2    0    0  0.20878649885E+02 -0.17620139865E+02 -0.16441777182E+02  0.31886037489E+02  0.00000000000E+00 0. -1.
         11    1    3    3    0    0  0.10430337572E+02  0.46822765755E+01  0.18364407810E+01  0.11579644675E+02  0.51100000000E-03 0. -1.
        -11    1    3    3    0    0  0.11952716422E+01  0.31697387251E+01  0.13334676996E+02  0.13758253114E+02  0.51100000000E-03 0.  1.
         12    1    3    3    0    0 -0.32504259100E+02  0.97681245641E+01  0.12706594043E+01  0.33964064722E+02  0.00000000000E+00 0. -1.
</event>
<event>
 7    1  0.6061051E-012  0.5930185E+02  0.7816164E-02  0.1266605E+00
        -11   -1    0    0    0    0  0.00000000000E+00  0.00000000000E+00  0.45593999997E+02  0.45594000000E+02  0.51100000000E-03 0.  1.
         11   -1    0    0    0    0 -0.00000000000E+00 -0.00000000000E+00 -0.45593999997E+02  0.45594000000E+02  0.51100000000E-03 0. -1.
    9900012    2    1    2    0    0 -0.78881573034E+01  0.32477161304E+01  0.30723868859E+02  0.59301846213E+02  0.49999821609E+02 0.  0.
         12    1    1    2    0    0  0.78881573034E+01 -0.32477161304E+01 -0.30723868859E+02  0.31886153787E+02  0.00000000000E+00 0. -1.
         11    1    3    3    0    0  0.10403324823E+02  0.60120163255E+01  0.20945159024E+02  0.24146908590E+02  0.51100000000E-03 0. -1.
        -11    1    3    3    0    0  0.22316962097E+00 -0.37718819454E+01  0.15338692434E+02  0.15797227096E+02  0.51100000000E-03 0.  1.
         12    1    3    3    0    0 -0.18514651747E+02  0.10075817504E+01 -0.55599825992E+01  0.19357710526E+02  0.00000000000E+00 0. -1.
</event>
<event>
 7    1  0.6061051E-012  0.5930194E+02  0.7816164E-02  0.1266605E+00
        -11   -1    0    0    0    0  0.00000000000E+00  0.00000000000E+00  0.45593999997E+02  0.45594000000E+02  0.51100000000E-03 0. -1.
         11   -1    0    0    0    0 -0.00000000000E+00 -0.00000000000E+00 -0.45593999997E+02  0.45594000000E+02  0.51100000000E-03 0.  1.
    9900012    2    1    2    0    0  0.66571282824E+00  0.30468840946E+02  0.93769760149E+01  0.59301935311E+02  0.49999984103E+02 0.  0.
         12    1    1    2    0    0 -0.66571282824E+00 -0.30468840946E+02 -0.93769760149E+01  0.31886064689E+02  0.00000000000E+00 0. -1.
         11    1    3    3    0    0  0.66745614348E+01  0.21530921581E+02  0.11415639693E+01  0.22570634085E+02  0.51100000000E-03 0. -1.
        -11    1    3    3    0    0 -0.66474123479E+01  0.11482037221E+02 -0.11051194957E+02  0.17267141625E+02  0.51100000000E-03 0.  1.
         12    1    3    3    0    0  0.63856374138E+00 -0.25441178554E+01  0.19286607002E+02  0.19464159601E+02  0.00000000000E+00 0. -1.
</event>
<event>
 7    1  0.6061051E-012  0.5930196E+02  0.7816164E-02  0.1266605E+00
        -11   -1    0    0    0    0  0.00000000000E+00  0.00000000000E+00  0.45593999997E+02  0.45594000000E+02  0.51100000000E-03 0.  1.
         11   -1    0    0    0    0 -0.00000000000E+00 -0.00000000000E+00 -0.45593999997E+02  0.45594000000E+02  0.51100000000E-03 0. -1.
    9900012    2    1    2    0    0 -0.11140196310E+02 -0.76057098544E+00  0.29866995169E+02  0.59301955365E+02  0.50000020676E+02 0.  0.
         12    1    1    2    0    0  0.11140196310E+02  0.76057098544E+00 -0.29866995169E+02  0.31886044635E+02  0.00000000000E+00 0. -1.
         11    1    3    3    0    0  0.11233696200E+02 -0.78716788332E+01  0.10953663512E+02  0.17553973982E+02  0.51100000000E-03 0. -1.
        -11    1    3    3    0    0 -0.97575498082E+01 -0.11279059185E+02  0.78029478688E+01  0.16831902746E+02  0.51100000000E-03 0.  1.
         12    1    3    3    0    0 -0.12616342703E+02  0.18390167033E+02  0.11110383789E+02  0.24916078636E+02  0.00000000000E+00 0. -1.
</event>
<event>
 7    1  0.6061051E-012  0.5930193E+02  0.7816164E-02  0.1266605E+00
        -11   -1    0    0    0    0  0.00000000000E+00  0.00000000000E+00  0.45593999997E+02  0.45594000000E+02  0.51100000000E-03 0. -1.
         11   -1    0    0    0    0 -0.00000000000E+00 -0.00000000000E+00 -0.45593999997E+02  0.45594000000E+02  0.51100000000E-03 0.  1.
    9900012    2    1    2    0    0  0.82652955586E+01 -0.16011150138E+02 -0.26306834450E+02  0.59301928147E+02  0.49999971038E+02 0.  0.
         12    1    1    2    0    0 -0.82652955586E+01  0.16011150138E+02  0.26306834450E+02  0.31886071853E+02  0.00000000000E+00 0. -1.
         11    1    3    3    0    0 -0.11546258666E+02 -0.74257499485E+01 -0.29391068472E+01  0.14039095441E+02  0.51100000000E-03 0. -1.
        -11    1    3    3    0    0  0.86963558885E+01  0.12128916542E+02 -0.12000417826E+02  0.19150646216E+02  0.51100000000E-03 0.  1.
         12    1    3    3    0    0  0.11115198336E+02 -0.20714316732E+02 -0.11367309777E+02  0.26112186490E+02  0.00000000000E+00 0. -1.
</event>
<event>
 7    1  0.6061051E-012  0.5930200E+02  0.7816164E-02  0.1266605E+00
        -11   -1    0    0    0    0  0.00000000000E+00  0.00000000000E+00  0.45593999997E+02  0.45594000000E+02  0.51100000000E-03 0. -1.
         11   -1    0    0    0    0 -0.00000000000E+00 -0.00000000000E+00 -0.45593999997E+02  0.45594000000E+02  0.51100000000E-03 0.  1.
    9900012    2    1    2    0    0 -0.12307899119E+02  0.19658355788E+02 -0.21881080134E+02  0.59301999924E+02  0.50000101941E+02 0.  0.
         12    1    1    2    0    0  0.12307899119E+02 -0.19658355788E+02  0.21881080134E+02  0.31886000076E+02  0.00000000000E+00 0. -1.
         11    1    3    3    0    0 -0.85544291016E+01  0.27699760748E+02 -0.16457046777E+02  0.33336007434E+02  0.51100000000E-03 0. -1.
        -11    1    3    3    0    0  0.19844133652E+01  0.79748682811E+01 -0.40495513503E+00  0.82280258524E+01  0.51100000000E-03 0.  1.
         12    1    3    3    0    0 -0.57378833828E+01 -0.16016273241E+02 -0.50190782221E+01  0.17737966638E+02  0.00000000000E+00 0. -1.
</event>
<event>
 7    1  0.6061051E-012  0.5930201E+02  0.7816164E-02  0.1266605E+00
        -11   -1    0    0    0    0  0.00000000000E+00  0.00000000000E+00  0.45593999997E+02  0.45594000000E+02  0.51100000000E-03 0.  1.
         11   -1    0    0    0    0 -0.00000000000E+00 -0.00000000000E+00 -0.45593999997E+02  0.45594000000E+02  0.51100000000E-03 0. -1.
    9900012    2    1    2    0    0  0.12525773617E+02  0.17987568426E+02  0.23157480114E+02  0.59302007655E+02  0.50000116041E+02 0.  0.
         12    1    1    2    0    0 -0.12525773617E+02 -0.17987568426E+02 -0.23157480114E+02  0.31885992345E+02  0.00000000000E+00 0. -1.
         11    1    3    3    0    0  0.73071865371E+00 -0.10524032840E+02 -0.22411371255E+01  0.10784800084E+02  0.51100000000E-03 0. -1.
        -11    1    3    3    0    0  0.12626516846E+02 -0.15270505998E-01  0.57881518205E+01  0.13889991455E+02  0.51100000000E-03 0.  1.
        -12    1    3    3    0    0 -0.83146188284E+00  0.28526871773E+02  0.19610465419E+02  0.34627216116E+02  0.00000000000E+00 0.  1.
</event>
<event>
 7    1  0.6061051E-012  0.5930195E+02  0.7816164E-02  0.1266605E+00
        -11   -1    0    0    0    0  0.00000000000E+00  0.00000000000E+00  0.45593999997E+02  0.45594000000E+02  0.51100000000E-03 0.  1.
         11   -1    0    0    0    0 -0.00000000000E+00 -0.00000000000E+00 -0.45593999997E+02  0.45594000000E+02  0.51100000000E-03 0. -1.
    9900012    2    1    2    0    0 -0.88140426920E+01 -0.18188944334E+02  0.24661611164E+02  0.59301951174E+02  0.50000013032E+02 0.  0.
         12    1    1    2    0    0  0.88140426920E+01  0.18188944334E+02 -0.24661611164E+02  0.31886048826E+02  0.00000000000E+00 0. -1.
         11    1    3    3    0    0 -0.25723467066E+00  0.74443196090E+01  0.24712740574E+02  0.25810920384E+02  0.51100000000E-03 0. -1.
        -11    1    3    3    0    0  0.58388299265E+01 -0.11470365483E+02  0.25761994753E+01  0.13126234160E+02  0.51100000000E-03 0.  1.
        -12    1    3    3    0    0 -0.14395637948E+02 -0.14162898460E+02 -0.26273288851E+01  0.20364796630E+02  0.00000000000E+00 0.  1.
</event>
<event>
 7    1  0.6061051E-012  0.5930195E+02  0.7816164E-02  0.1266605E+00
        -11   -1    0    0    0    0  0.00000000000E+00  0.00000000000E+00  0.45593999997E+02  0.45594000000E+02  0.51100000000E-03 0. -1.
         11   -1    0    0    0    0 -0.00000000000E+00 -0.00000000000E+00 -0.45593999997E+02  0.45594000000E+02  0.51100000000E-03 0.  1.
    9900012    2    1    2    0    0 -0.17861413345E+02  0.12827729312E+02 -0.23089816891E+02  0.59301947092E+02  0.50000005589E+02 0.  0.
         12    1    1    2    0    0  0.17861413345E+02 -0.12827729312E+02  0.23089816891E+02  0.31886052908E+02  0.00000000000E+00 0. -1.
         11    1    3    3    0    0  0.10967114390E+02  0.17954493467E+02 -0.11749891506E+02  0.24097746458E+02  0.51100000000E-03 0. -1.
        -11    1    3    3    0    0 -0.22322254196E+01 -0.25957966274E+01  0.32867274916E+01  0.47459001591E+01  0.51100000000E-03 0.  1.
        -12    1    3    3    0    0 -0.26596302315E+02 -0.25309675280E+01 -0.14626652877E+02  0.30458300475E+02  0.00000000000E+00 0.  1.
</event>
<event>
 7    1  0.6061051E-012  0.5930191E+02  0.7816164E-02  0.1266605E+00
        -11   -1    0    0    0    0  0.00000000000E+00  0.00000000000E+00  0.45593999997E+02  0.45594000000E+02  0.51100000000E-03 0. -1.
         11   -1    0    0    0    0 -0.00000000000E+00 -0.00000000000E+00 -0.45593999997E+02  0.45594000000E+02  0.51100000000E-03 0.  1.
    9900012    2    1    2    0    0  0.19971092758E+02 -0.23917512366E+02 -0.67698384722E+01  0.59301911237E+02  0.49999940197E+02 0.  0.
         12    1    1    2    0    0 -0.19971092758E+02  0.23917512366E+02  0.67698384722E+01  0.31886088763E+02  0.00000000000E+00 0. -1.
         11    1    3    3    0    0  0.38443376737E+01 -0.28529557719E+02  0.13419201079E+01  0.28818663148E+02  0.51100000000E-03 0. -1.
        -11    1    3    3    0    0  0.42273701022E+01 -0.55951969987E+01  0.61214606864E+01  0.93085535199E+01  0.51100000000E-03 0.  1.
         12    1    3    3    0    0  0.11899384982E+02  0.10207242352E+02 -0.14233219267E+02  0.21174694569E+02  0.00000000000E+00 0. -1.
</event>
<event>
 7    1  0.6061051E-012  0.5930193E+02  0.7816164E-02  0.1266605E+00
        -11   -1    0    0    0    0  0.00000000000E+00  0.00000000000E+00  0.45593999997E+02  0.45594000000E+02  0.51100000000E-03 0. -1.
         11   -1    0    0    0    0 -0.00000000000E+00 -0.00000000000E+00 -0.45593999997E+02  0.45594000000E+02  0.51100000000E-03 0.  1.
    9900012    2    1    2    0    0 -0.28681322278E+01  0.29590134689E+01 -0.31618661034E+02  0.59301926727E+02  0.49999968448E+02 0.  0.
         12    1    1    2    0    0  0.28681322278E+01 -0.29590134689E+01  0.31618661034E+02  0.31886073273E+02  0.00000000000E+00 0. -1.
         11    1    3    3    0    0  0.44913169866E+01 -0.37685525390E+01 -0.19336838499E+02  0.20206118873E+02  0.51100000000E-03 0. -1.
        -11    1    3    3    0    0 -0.50154320905E+01 -0.14283392471E+02 -0.92434537267E+01  0.17737285491E+02  0.51100000000E-03 0.  1.
         12    1    3    3    0    0 -0.23440171239E+01  0.21010958479E+02 -0.30383688078E+01  0.21358522362E+02  0.00000000000E+00 0. -1.
</event>
<event>
 7    1  0.6061051E-012  0.5930196E+02  0.7816164E-02  0.1266605E+00
        -11   -1    0    0    0    0  0.00000000000E+00  0.00000000000E+00  0.45593999997E+02  0.45594000000E+02  0.51100000000E-03 0.  1.
         11   -1    0    0    0    0 -0.00000000000E+00 -0.00000000000E+00 -0.45593999997E+02  0.45594000000E+02  0.51100000000E-03 0. -1.
    9900012    2    1    2    0    0  0.25129896777E+02  0.19577157066E+02  0.13939131534E+01  0.59301956271E+02  0.50000022329E+02 0.  0.
         12    1    1    2    0    0 -0.25129896777E+02 -0.19577157066E+02 -0.13939131534E+01  0.31886043729E+02  0.00000000000E+00 0. -1.
         11    1    3    3    0    0  0.22228560268E+02  0.13629268001E+02 -0.89761035921E+01  0.27576009025E+02  0.51100000000E-03 0.  1.
        -11    1    3    3    0    0  0.72207592150E+00  0.70611695468E+00 -0.10269983915E+02  0.10319523471E+02  0.51100000000E-03 0. -1.
        -12    1    3    3    0    0  0.21792605879E+01  0.52417721102E+01  0.20640000660E+02  0.21406423775E+02  0.00000000000E+00 0.  1.
</event>
<event>
 7    1  0.6061051E-012  0.5930184E+02  0.7816164E-02  0.1266605E+00
        -11   -1    0    0    0    0  0.00000000000E+00  0.00000000000E+00  0.45593999997E+02  0.45594000000E+02  0.51100000000E-03 0.  1.
         11   -1    0    0    0    0 -0.00000000000E+00 -0.00000000000E+00 -0.45593999997E+02  0.45594000000E+02  0.51100000000E-03 0. -1.
    9900012    2    1    2    0    0 -0.15391665223E+02  0.23977811848E+02 -0.14313915168E+02  0.59301843336E+02  0.49999816362E+02 0.  0.
         12    1    1    2    0    0  0.15391665223E+02 -0.23977811848E+02  0.14313915168E+02  0.31886156664E+02  0.00000000000E+00 0. -1.
         11    1    3    3    0    0 -0.23637174786E+02  0.10639917754E+02 -0.14785469577E+02  0.29841816174E+02  0.51100000000E-03 0. -1.
        -11    1    3    3    0    0  0.47232596194E+01  0.20706926813E+02  0.11083820304E+01  0.21267687003E+02  0.51100000000E-03 0.  1.
         12    1    3    3    0    0  0.35222499436E+01 -0.73690327187E+01 -0.63682762160E+00  0.81923401598E+01  0.00000000000E+00 0. -1.
</event>
<event>
 7    1  0.6061051E-012  0.5930192E+02  0.7816164E-02  0.1266605E+00
        -11   -1    0    0    0    0  0.00000000000E+00  0.00000000000E+00  0.45593999997E+02  0.45594000000E+02  0.51100000000E-03 0. -1.
         11   -1    0    0    0    0 -0.00000000000E+00 -0.00000000000E+00 -0.45593999997E+02  0.45594000000E+02  0.51100000000E-03 0.  1.
    9900012    2    1    2    0    0 -0.29085936595E+02  0.13019756322E+02  0.11029552736E+01  0.59301917258E+02  0.49999951179E+02 0.  0.
         12    1    1    2    0    0  0.29085936595E+02 -0.13019756322E+02 -0.11029552736E+01  0.31886082742E+02  0.00000000000E+00 0. -1.
         11    1    3    3    0    0 -0.24335720943E+01  0.15323183621E+02  0.15315694640E+02  0.21801209416E+02  0.51100000000E-03 0. -1.
        -11    1    3    3    0    0 -0.49684231988E+01  0.78773248727E+01  0.60552652103E+00  0.93329598124E+01  0.51100000000E-03 0.  1.
        -12    1    3    3    0    0 -0.21683941302E+02 -0.10180752172E+02 -0.14818265887E+02  0.28167748030E+02  0.00000000000E+00 0.  1.
</event>
<event>
 7    1  0.6061051E-012  0.5930195E+02  0.7816164E-02  0.1266605E+00
        -11   -1    0    0    0    0  0.00000000000E+00  0.00000000000E+00  0.45593999997E+02  0.45594000000E+02  0.51100000000E-03 0.  1.
         11   -1    0    0    0    0 -0.00000000000E+00 -0.00000000000E+00 -0.45593999997E+02  0.45594000000E+02  0.51100000000E-03 0. -1.
    9900012    2    1    2    0    0 -0.50931006435E+01  0.56730903787E+01  0.30961209143E+02  0.59301951323E+02  0.50000013305E+02 0.  0.
         12    1    1    2    0    0  0.50931006435E+01 -0.56730903787E+01 -0.30961209143E+02  0.31886048677E+02  0.00000000000E+00 0. -1.
         11    1    3    3    0    0  0.17507113630E+02  0.66622362211E+01  0.36063718851E+01  0.19075909875E+02  0.51100000000E-03 0. -1.
        -11    1    3    3    0    0  0.28619580029E+01 -0.27417935856E+01  0.33746994288E+01  0.52054617636E+01  0.51100000000E-03 0.  1.
         12    1    3    3    0    0 -0.25462172277E+02  0.17526477432E+01  0.23980137829E+02  0.35020579685E+02  0.00000000000E+00 0. -1.
</event>
<event>
 7    1  0.6061051E-012  0.5930195E+02  0.7816164E-02  0.1266605E+00
        -11   -1    0    0    0    0  0.00000000000E+00  0.00000000000E+00  0.45593999997E+02  0.45594000000E+02  0.51100000000E-03 0.  1.
         11   -1    0    0    0    0 -0.00000000000E+00 -0.00000000000E+00 -0.45593999997E+02  0.45594000000E+02  0.51100000000E-03 0. -1.
    9900012    2    1    2    0    0  0.23924042898E+02  0.92644670197E+00  0.21059488769E+02  0.59301949769E+02  0.50000010471E+02 0.  0.
         12    1    1    2    0    0 -0.23924042898E+02 -0.92644670197E+00 -0.21059488769E+02  0.31886050231E+02  0.00000000000E+00 0. -1.
         11    1    3    3    0    0 -0.56533975390E+01  0.19517337593E+01 -0.51529252962E+01  0.78944795757E+01  0.51100000000E-03 0. -1.
        -11    1    3    3    0    0 -0.25068897637E+01 -0.60003071272E+01  0.16159677874E+02  0.17419051959E+02  0.51100000000E-03 0.  1.
        -12    1    3    3    0    0  0.32084330201E+02  0.49750200699E+01  0.10052736191E+02  0.33988418234E+02  0.00000000000E+00 0.  1.
</event>
<event>
 7    1  0.6061051E-012  0.5930196E+02  0.7816164E-02  0.1266605E+00
        -11   -1    0    0    0    0  0.00000000000E+00  0.00000000000E+00  0.45593999997E+02  0.45594000000E+02  0.51100000000E-03 0. -1.
         11   -1    0    0    0    0 -0.00000000000E+00 -0.00000000000E+00 -0.45593999997E+02  0.45594000000E+02  0.51100000000E-03 0.  1.
    9900012    2    1    2    0    0 -0.61426410673E+01 -0.13531343249E+02 -0.28211532515E+02  0.59301955149E+02  0.50000020282E+02 0.  0.
         12    1    1    2    0    0  0.61426410673E+01  0.13531343249E+02  0.28211532515E+02  0.31886044851E+02  0.00000000000E+00 0. -1.
         11    1    3    3    0    0  0.87402674526E+00 -0.95333050521E+01 -0.25869536679E+01  0.99166606027E+01  0.51100000000E-03 0. -1.
        -11    1    3    3    0    0  0.16610776350E+02 -0.55519883337E+01 -0.56377325316E+01  0.18399089482E+02  0.51100000000E-03 0.  1.
        -12    1    3    3    0    0 -0.23627444162E+02  0.15539501369E+01 -0.19986846316E+02  0.30986205065E+02  0.00000000000E+00 0.  1.
</event>
<event>
 7    1  0.6061051E-012  0.5930192E+02  0.7816164E-02  0.1266605E+00
        -11   -1    0    0    0    0  0.00000000000E+00  0.00000000000E+00  0.45593999997E+02  0.45594000000E+02  0.51100000000E-03 0. -1.
         11   -1    0    0    0    0 -0.00000000000E+00 -0.00000000000E+00 -0.45593999997E+02  0.45594000000E+02  0.51100000000E-03 0.  1.
    9900012    2    1    2    0    0  0.31728311395E+02 -0.25632562551E+01  0.18616817701E+01  0.59301923326E+02  0.49999962246E+02 0.  0.
         12    1    1    2    0    0 -0.31728311395E+02  0.25632562551E+01 -0.18616817701E+01  0.31886076674E+02  0.00000000000E+00 0. -1.
         11    1    3    3    0    0  0.12941582010E+02  0.35493800466E+01  0.10178190759E+02  0.16842749509E+02  0.51100000000E-03 0. -1.
        -11    1    3    3    0    0  0.14150976665E+02  0.59138081456E+01  0.11255828925E+02  0.19024115022E+02  0.51100000000E-03 0.  1.
        -12    1    3    3    0    0  0.46357527206E+01 -0.12026444447E+02 -0.19572337913E+02  0.23435058795E+02  0.00000000000E+00 0.  1.
</event>
<event>
 7    1  0.6061051E-012  0.5930194E+02  0.7816164E-02  0.1266605E+00
        -11   -1    0    0    0    0  0.00000000000E+00  0.00000000000E+00  0.45593999997E+02  0.45594000000E+02  0.51100000000E-03 0.  1.
         11   -1    0    0    0    0 -0.00000000000E+00 -0.00000000000E+00 -0.45593999997E+02  0.45594000000E+02  0.51100000000E-03 0. -1.
    9900012    2    1    2    0    0 -0.80357695082E+01 -0.86969311008E+01  0.29605917679E+02  0.59301944054E+02  0.50000000047E+02 0.  0.
         12    1    1    2    0    0  0.80357695082E+01  0.86969311008E+01 -0.29605917679E+02  0.31886055946E+02  0.00000000000E+00 0. -1.
         11    1    3    3    0    0  0.81784836480E+01  0.43435107604E+01 -0.33306051136E+01  0.98410675838E+01  0.51100000000E-03 0. -1.
        -11    1    3    3    0    0 -0.22801628104E+01  0.61670860206E+01 -0.23114866106E+01  0.69695812671E+01  0.51100000000E-03 0.  1.
        -12    1    3    3    0    0 -0.13934090346E+02 -0.19207527882E+02  0.35248009404E+02  0.42491295203E+02  0.00000000000E+00 0.  1.
</event>
<event>
 7    1  0.6061051E-012  0.5930189E+02  0.7816164E-02  0.1266605E+00
        -11   -1    0    0    0    0  0.00000000000E+00  0.00000000000E+00  0.45593999997E+02  0.45594000000E+02  0.51100000000E-03 0.  1.
         11   -1    0    0    0    0 -0.00000000000E+00 -0.00000000000E+00 -0.45593999997E+02  0.45594000000E+02  0.51100000000E-03 0. -1.
    9900012    2    1    2    0    0 -0.16071562755E+02 -0.69753187965E+01  0.26641580922E+02  0.59301889611E+02  0.49999900758E+02 0.  0.
         12    1    1    2    0    0  0.16071562755E+02  0.69753187965E+01 -0.26641580922E+02  0.31886110389E+02  0.00000000000E+00 0. -1.
         11    1    3    3    0    0  0.46204929871E+00 -0.56373134465E+01 -0.45803691529E+01  0.72782260398E+01  0.51100000000E-03 0. -1.
        -11    1    3    3    0    0  0.46464010678E+01  0.47900918693E+01 -0.58604940078E+01  0.88814082935E+01  0.51100000000E-03 0.  1.
        -12    1    3    3    0    0 -0.21180013122E+02 -0.61280972193E+01  0.37082444082E+02  0.43142255278E+02  0.00000000000E+00 0.  1.
</event>
<event>
 7    1  0.6061051E-012  0.5930192E+02  0.7816164E-02  0.1266605E+00
        -11   -1    0    0    0    0  0.00000000000E+00  0.00000000000E+00  0.45593999997E+02  0.45594000000E+02  0.51100000000E-03 0.  1.
         11   -1    0    0    0    0 -0.00000000000E+00 -0.00000000000E+00 -0.45593999997E+02  0.45594000000E+02  0.51100000000E-03 0. -1.
    9900012    2    1    2    0    0 -0.13846321888E+02  0.27681229762E+02 -0.76648992202E+01  0.59301924810E+02  0.49999964952E+02 0.  0.
         12    1    1    2    0    0  0.13846321888E+02 -0.27681229762E+02  0.76648992202E+01  0.31886075190E+02  0.00000000000E+00 0. -1.
         11    1    3    3    0    0 -0.12693876988E+02  0.12808090650E+02 -0.11776531014E+02  0.21537603907E+02  0.51100000000E-03 0. -1.
        -11    1    3    3    0    0  0.33378437922E+01  0.11679717702E+01 -0.14098343146E+02  0.14535083040E+02  0.51100000000E-03 0.  1.
        -12    1    3    3    0    0 -0.44902886918E+01  0.13705167342E+02  0.18209974940E+02  0.23229237863E+02  0.00000000000E+00 0.  1.
</event>
<event>
 7    1  0.6061051E-012  0.5930187E+02  0.7816164E-02  0.1266605E+00
        -11   -1    0    0    0    0  0.00000000000E+00  0.00000000000E+00  0.45593999997E+02  0.45594000000E+02  0.51100000000E-03 0. -1.
         11   -1    0    0    0    0 -0.00000000000E+00 -0.00000000000E+00 -0.45593999997E+02  0.45594000000E+02  0.51100000000E-03 0.  1.
    9900012    2    1    2    0    0 -0.24475905924E+02  0.14286235563E+02 -0.14613647907E+02  0.59301871315E+02  0.49999867390E+02 0.  0.
         12    1    1    2    0    0  0.24475905924E+02 -0.14286235563E+02  0.14613647907E+02  0.31886128685E+02  0.00000000000E+00 0. -1.
         11    1    3    3    0    0 -0.58549692897E+01  0.41482880980E+01 -0.48221609970E+01  0.86453569313E+01  0.51100000000E-03 0. -1.
        -11    1    3    3    0    0 -0.19492586849E+02  0.19220070712E+02  0.97748335813E+01  0.29067497863E+02  0.51100000000E-03 0.  1.
         12    1    3    3    0    0  0.87165021456E+00 -0.90821232472E+01 -0.19566320491E+02  0.21589016521E+02  0.00000000000E+00 0. -1.
</event>
<event>
 7    1  0.6061051E-012  0.5930193E+02  0.7816164E-02  0.1266605E+00
        -11   -1    0    0    0    0  0.00000000000E+00  0.00000000000E+00  0.45593999997E+02  0.45594000000E+02  0.51100000000E-03 0.  1.
         11   -1    0    0    0    0 -0.00000000000E+00 -0.00000000000E+00 -0.45593999997E+02  0.45594000000E+02  0.51100000000E-03 0. -1.
    9900012    2    1    2    0    0 -0.26762321507E+02  0.15220403352E+02  0.82969319738E+01  0.59301927636E+02  0.49999970105E+02 0.  0.
         12    1    1    2    0    0  0.26762321507E+02 -0.15220403352E+02 -0.82969319738E+01  0.31886072364E+02  0.00000000000E+00 0. -1.
         11    1    3    3    0    0 -0.99505438207E+01 -0.57188962111E+01  0.17881567464E+02  0.21247812862E+02  0.51100000000E-03 0. -1.
        -11    1    3    3    0    0 -0.10529634933E+01  0.13324440890E+02  0.59702102094E+01  0.14638745416E+02  0.51100000000E-03 0.  1.
         12    1    3    3    0    0 -0.15758814193E+02  0.76148586735E+01 -0.15554845700E+02  0.23415369357E+02  0.00000000000E+00 0. -1.
</event>
<event>
 7    1  0.6061051E-012  0.5930195E+02  0.7816164E-02  0.1266605E+00
        -11   -1    0    0    0    0  0.00000000000E+00  0.00000000000E+00  0.45593999997E+02  0.45594000000E+02  0.51100000000E-03 0.  1.
         11   -1    0    0    0    0 -0.00000000000E+00 -0.00000000000E+00 -0.45593999997E+02  0.45594000000E+02  0.51100000000E-03 0. -1.
    9900012    2    1    2    0    0 -0.33048232025E+01 -0.10053458144E+01  0.31698387179E+02  0.59301947777E+02  0.50000006838E+02 0.  0.
         12    1    1    2    0    0  0.33048232025E+01  0.10053458144E+01 -0.31698387179E+02  0.31886052223E+02  0.00000000000E+00 0. -1.
         11    1    3    3    0    0  0.79757490048E+01  0.11792258553E+02  0.81748575858E+01  0.16416401274E+02  0.51100000000E-03 0. -1.
        -11    1    3    3    0    0 -0.75494135958E+01 -0.44937916767E+01 -0.68732675067E+01  0.11154802363E+02  0.51100000000E-03 0.  1.
        -12    1    3    3    0    0 -0.37311586115E+01 -0.83038126909E+01  0.30396797100E+02  0.31730744141E+02  0.00000000000E+00 0.  1.
</event>
<event>
 7    1  0.6061051E-012  0.5930199E+02  0.7816164E-02  0.1266605E+00
        -11   -1    0    0    0    0  0.00000000000E+00  0.00000000000E+00  0.45593999997E+02  0.45594000000E+02  0.51100000000E-03 0. -1.
         11   -1    0    0    0    0 -0.00000000000E+00 -0.00000000000E+00 -0.45593999997E+02  0.45594000000E+02  0.51100000000E-03 0.  1.
    9900012    2    1    2    0    0  0.28368257962E+02 -0.13140448913E+02 -0.62680050031E+01  0.59301994541E+02  0.50000092124E+02 0.  0.
         12    1    1    2    0    0 -0.28368257962E+02  0.13140448913E+02  0.62680050031E+01  0.31886005459E+02  0.00000000000E+00 0. -1.
         11    1    3    3    0    0  0.86007500635E+01  0.80518122898E+01  0.75846364672E+01  0.14011826912E+02  0.51100000000E-03 0. -1.
        -11    1    3    3    0    0 -0.52586254892E+01 -0.26592970723E+01  0.59593900590E+01  0.83808909485E+01  0.51100000000E-03 0.  1.
        -12    1    3    3    0    0  0.25026133388E+02 -0.18532964130E+02 -0.19812031529E+02  0.36909276681E+02  0.00000000000E+00 0.  1.
</event>
<event>
 7    1  0.6061051E-012  0.5930185E+02  0.7816164E-02  0.1266605E+00
        -11   -1    0    0    0    0  0.00000000000E+00  0.00000000000E+00  0.45593999997E+02  0.45594000000E+02  0.51100000000E-03 0.  1.
         11   -1    0    0    0    0 -0.00000000000E+00 -0.00000000000E+00 -0.45593999997E+02  0.45594000000E+02  0.51100000000E-03 0. -1.
    9900012    2    1    2    0    0  0.26716884242E+02 -0.15630136685E+02  0.76572353263E+01  0.59301853647E+02  0.49999835167E+02 0.  0.
         12    1    1    2    0    0 -0.26716884242E+02  0.15630136685E+02 -0.76572353263E+01  0.31886146353E+02  0.00000000000E+00 0. -1.
         11    1    3    3    0    0  0.29780978115E+01  0.20410216650E+01 -0.65415479909E+01  0.74717257973E+01  0.51100000000E-03 0. -1.
        -11    1    3    3    0    0  0.17296463163E+01  0.32604717404E+01  0.20483589424E+02  0.20813452100E+02  0.51100000000E-03 0.  1.
        -12    1    3    3    0    0  0.22009140115E+02 -0.20931630090E+02 -0.62848061068E+01  0.31016675750E+02  0.00000000000E+00 0.  1.
</event>
<event>
 7    1  0.6061051E-012  0.5930194E+02  0.7816164E-02  0.1266605E+00
        -11   -1    0    0    0    0  0.00000000000E+00  0.00000000000E+00  0.45593999997E+02  0.45594000000E+02  0.51100000000E-03 0.  1.
         11   -1    0    0    0    0 -0.00000000000E+00 -0.00000000000E+00 -0.45593999997E+02  0.45594000000E+02  0.51100000000E-03 0. -1.
    9900012    2    1    2    0    0  0.80472297226E+01  0.43020778833E+01  0.30552497138E+02  0.59301939382E+02  0.49999991528E+02 0.  0.
         12    1    1    2    0    0 -0.80472297226E+01 -0.43020778833E+01 -0.30552497138E+02  0.31886060618E+02  0.00000000000E+00 0. -1.
         11    1    3    3    0    0  0.18297649123E+02  0.14821532055E+02  0.37445447908E+01  0.23843309163E+02  0.51100000000E-03 0. -1.
        -11    1    3    3    0    0 -0.27341754977E+01 -0.64560333664E+01 -0.31847611988E+00  0.70183694531E+01  0.51100000000E-03 0.  1.
        -12    1    3    3    0    0 -0.75162439030E+01 -0.40634208051E+01  0.27126428468E+02  0.28440260766E+02  0.00000000000E+00 0.  1.
</event>
<event>
 7    1  0.6061051E-012  0.5930195E+02  0.7816164E-02  0.1266605E+00
        -11   -1    0    0    0    0  0.00000000000E+00  0.00000000000E+00  0.45593999997E+02  0.45594000000E+02  0.51100000000E-03 0.  1.
         11   -1    0    0    0    0 -0.00000000000E+00 -0.00000000000E+00 -0.45593999997E+02  0.45594000000E+02  0.51100000000E-03 0. -1.
    9900012    2    1    2    0    0  0.14945427419E+01  0.21777914185E+02  0.23242398653E+02  0.59301948200E+02  0.50000007609E+02 0.  0.
         12    1    1    2    0    0 -0.14945427419E+01 -0.21777914185E+02 -0.23242398653E+02  0.31886051800E+02  0.00000000000E+00 0. -1.
         11    1    3    3    0    0  0.21425179341E+02  0.76974629028E+01  0.98847161482E+01  0.24819284005E+02  0.51100000000E-03 0. -1.
        -11    1    3    3    0    0  0.27612131511E+01  0.74272987949E+01  0.51554891251E+01  0.94534720518E+01  0.51100000000E-03 0.  1.
        -12    1    3    3    0    0 -0.22691849750E+02  0.66531524870E+01  0.82021933796E+01  0.25029192143E+02  0.00000000000E+00 0.  1.
</event>
<event>
 7    1  0.6061051E-012  0.5930191E+02  0.7816164E-02  0.1266605E+00
        -11   -1    0    0    0    0  0.00000000000E+00  0.00000000000E+00  0.45593999997E+02  0.45594000000E+02  0.51100000000E-03 0.  1.
         11   -1    0    0    0    0 -0.00000000000E+00 -0.00000000000E+00 -0.45593999997E+02  0.45594000000E+02  0.51100000000E-03 0. -1.
    9900012    2    1    2    0    0  0.67911586133E+01 -0.27791029070E+02  0.14080536409E+02  0.59301911534E+02  0.49999940740E+02 0.  0.
         12    1    1    2    0    0 -0.67911586133E+01  0.27791029070E+02 -0.14080536409E+02  0.31886088466E+02  0.00000000000E+00 0. -1.
         11    1    3    3    0    0 -0.75824648649E+01 -0.27839324969E+01 -0.29209521539E+01  0.85892965556E+01  0.51100000000E-03 0. -1.
        -11    1    3    3    0    0  0.33293593711E+01  0.92884122275E+01 -0.18652699954E+01  0.10041835885E+02  0.51100000000E-03 0.  1.
        -12    1    3    3    0    0  0.11044264107E+02 -0.34295508801E+02  0.18866758558E+02  0.40670779093E+02  0.00000000000E+00 0.  1.
</event>
<event>
 7    1  0.6061051E-012  0.5930196E+02  0.7816164E-02  0.1266605E+00
        -11   -1    0    0    0    0  0.00000000000E+00  0.00000000000E+00  0.45593999997E+02  0.45594000000E+02  0.51100000000E-03 0.  1.
         11   -1    0    0    0    0 -0.00000000000E+00 -0.00000000000E+00 -0.45593999997E+02  0.45594000000E+02  0.51100000000E-03 0. -1.
    9900012    2    1    2    0    0  0.12103026409E+02  0.99152252842E+01  0.27783531787E+02  0.59301959492E+02  0.50000028204E+02 0.  0.
         12    1    1    2    0    0 -0.12103026409E+02 -0.99152252842E+01 -0.27783531787E+02  0.31886040508E+02  0.00000000000E+00 0. -1.
         11    1    3    3    0    0  0.73729066818E+01  0.35671197654E+01  0.20241675682E+01  0.84369041102E+01  0.51100000000E-03 0.  1.
        -11    1    3    3    0    0  0.13893044212E+02 -0.68409615476E+01 -0.49097272440E+01  0.16245641084E+02  0.51100000000E-03 0. -1.
         12    1    3    3    0    0 -0.91629244846E+01  0.13189067066E+02  0.30669091463E+02  0.34619414298E+02  0.00000000000E+00 0. -1.
</event>
<event>
 7    1  0.6061051E-012  0.5930192E+02  0.7816164E-02  0.1266605E+00
        -11   -1    0    0    0    0  0.00000000000E+00  0.00000000000E+00  0.45593999997E+02  0.45594000000E+02  0.51100000000E-03 0.  1.
         11   -1    0    0    0    0 -0.00000000000E+00 -0.00000000000E+00 -0.45593999997E+02  0.45594000000E+02  0.51100000000E-03 0. -1.
    9900012    2    1    2    0    0 -0.14318501254E+02  0.28446842312E+02  0.15748114826E+01  0.59301916093E+02  0.49999949054E+02 0.  0.
         12    1    1    2    0    0  0.14318501254E+02 -0.28446842312E+02 -0.15748114826E+01  0.31886083907E+02  0.00000000000E+00 0. -1.
         11    1    3    3    0    0  0.12011832883E+02  0.10393788315E+02  0.20835251257E+01  0.16020488194E+02  0.51100000000E-03 0. -1.
        -11    1    3    3    0    0 -0.19427884174E+02  0.20635758126E+02  0.10337277473E+02  0.30168468684E+02  0.51100000000E-03 0.  1.
        -12    1    3    3    0    0 -0.69024499636E+01 -0.25827041289E+01 -0.10845991116E+02  0.13112959216E+02  0.00000000000E+00 0.  1.
</event>
<event>
 7    1  0.6061051E-012  0.5930181E+02  0.7816164E-02  0.1266605E+00
        -11   -1    0    0    0    0  0.00000000000E+00  0.00000000000E+00  0.45593999997E+02  0.45594000000E+02  0.51100000000E-03 0. -1.
         11   -1    0    0    0    0 -0.00000000000E+00 -0.00000000000E+00 -0.45593999997E+02  0.45594000000E+02  0.51100000000E-03 0.  1.
    9900012    2    1    2    0    0 -0.30587264829E+02 -0.47323310382E+01 -0.76650755283E+01  0.59301810049E+02  0.49999755654E+02 0.  0.
         12    1    1    2    0    0  0.30587264829E+02  0.47323310382E+01  0.76650755283E+01  0.31886189951E+02  0.00000000000E+00 0. -1.
         11    1    3    3    0    0 -0.17854751670E+02  0.28517860025E+00  0.13317315097E+02  0.22276094040E+02  0.51100000000E-03 0. -1.
        -11    1    3    3    0    0  0.81135898421E+01 -0.20540601867E+01 -0.18404933940E+01  0.85695343847E+01  0.51100000000E-03 0.  1.
        -12    1    3    3    0    0 -0.20846103001E+02 -0.29634494517E+01 -0.19141897232E+02  0.28456181624E+02  0.00000000000E+00 0.  1.
</event>
<event>
 7    1  0.6061051E-012  0.5930198E+02  0.7816164E-02  0.1266605E+00
        -11   -1    0    0    0    0  0.00000000000E+00  0.00000000000E+00  0.45593999997E+02  0.45594000000E+02  0.51100000000E-03 0. -1.
         11   -1    0    0    0    0 -0.00000000000E+00 -0.00000000000E+00 -0.45593999997E+02  0.45594000000E+02  0.51100000000E-03 0.  1.
    9900012    2    1    2    0    0  0.18132715001E+02  0.78595142769E+01 -0.25023003668E+02  0.59301983777E+02  0.50000072494E+02 0.  0.
         12    1    1    2    0    0 -0.18132715001E+02 -0.78595142769E+01  0.25023003668E+02  0.31886016223E+02  0.00000000000E+00 0. -1.
         11    1    3    3    0    0  0.53787274087E+01 -0.24314574409E+01  0.54277708510E+01  0.80189394870E+01  0.51100000000E-03 0. -1.
        -11    1    3    3    0    0  0.12270863848E+02  0.22821388661E+02 -0.11019856780E+02  0.28157186004E+02  0.51100000000E-03 0.  1.
        -12    1    3    3    0    0  0.48312374514E+00 -0.12530416943E+02 -0.19430917739E+02  0.23125858286E+02  0.00000000000E+00 0.  1.
</event>
<event>
 7    1  0.6061051E-012  0.5930190E+02  0.7816164E-02  0.1266605E+00
        -11   -1    0    0    0    0  0.00000000000E+00  0.00000000000E+00  0.45593999997E+02  0.45594000000E+02  0.51100000000E-03 0. -1.
         11   -1    0    0    0    0 -0.00000000000E+00 -0.00000000000E+00 -0.45593999997E+02  0.45594000000E+02  0.51100000000E-03 0.  1.
    9900012    2    1    2    0    0 -0.12539923814E+02 -0.80648922123E+01 -0.28185651137E+02  0.59301904195E+02  0.49999927355E+02 0.  0.
         12    1    1    2    0    0  0.12539923814E+02  0.80648922123E+01  0.28185651137E+02  0.31886095805E+02  0.00000000000E+00 0. -1.
         11    1    3    3    0    0 -0.88865329138E+01  0.10474933081E+02  0.50117579720E+01  0.14622325688E+02  0.51100000000E-03 0. -1.
        -11    1    3    3    0    0 -0.42177101691E+01 -0.10935506464E+02 -0.11951920269E+01  0.11781462767E+02  0.51100000000E-03 0.  1.
        -12    1    3    3    0    0  0.56431926853E+00 -0.76043188300E+01 -0.32002217082E+02  0.32898115740E+02  0.00000000000E+00 0.  1.
</event>
<event>
 7    1  0.6061051E-012  0.5930194E+02  0.7816164E-02  0.1266605E+00
        -11   -1    0    0    0    0  0.00000000000E+00  0.00000000000E+00  0.45593999997E+02  0.45594000000E+02  0.51100000000E-03 0. -1.
         11   -1    0    0    0    0 -0.00000000000E+00 -0.00000000000E+00 -0.45593999997E+02  0.45594000000E+02  0.51100000000E-03 0.  1.
    9900012    2    1    2    0    0  0.93204771425E+01 -0.39215378790E+01 -0.30240222079E+02  0.59301940587E+02  0.49999993724E+02 0.  0.
         12    1    1    2    0    0 -0.93204771425E+01  0.39215378790E+01  0.30240222079E+02  0.31886059413E+02  0.00000000000E+00 0. -1.
         11    1    3    3    0    0 -0.74503337559E+01 -0.56792238020E+00 -0.15057480766E+02  0.16809453774E+02  0.51100000000E-03 0. -1.
        -11    1    3    3    0    0  0.20911291729E+02 -0.15139144432E+02 -0.48206502983E+01  0.26262415835E+02  0.51100000000E-03 0.  1.
         12    1    3    3    0    0 -0.41404808306E+01  0.11785528933E+02 -0.10362091015E+02  0.16230070978E+02  0.00000000000E+00 0. -1.
</event>
<event>
 7    1  0.6061051E-012  0.5930195E+02  0.7816164E-02  0.1266605E+00
        -11   -1    0    0    0    0  0.00000000000E+00  0.00000000000E+00  0.45593999997E+02  0.45594000000E+02  0.51100000000E-03 0.  1.
         11   -1    0    0    0    0 -0.00000000000E+00 -0.00000000000E+00 -0.45593999997E+02  0.45594000000E+02  0.51100000000E-03 0. -1.
    9900012    2    1    2    0    0 -0.10745070526E+02  0.25714929329E+02  0.15492128704E+02  0.59301950028E+02  0.50000010944E+02 0.  0.
         12    1    1    2    0    0  0.10745070526E+02 -0.25714929329E+02 -0.15492128704E+02  0.31886049972E+02  0.00000000000E+00 0. -1.
         11    1    3    3    0    0 -0.87778367743E+01 -0.27521900096E+00  0.15736229398E+02  0.18020962234E+02  0.51100000000E-03 0. -1.
        -11    1    3    3    0    0 -0.16772257121E+02  0.11152040649E+02  0.17945889716E+01  0.20221205933E+02  0.51100000000E-03 0.  1.
        -12    1    3    3    0    0  0.14805023368E+02  0.14838107680E+02 -0.20386896649E+01  0.21059781861E+02  0.00000000000E+00 0.  1.
</event>
<event>
 7    1  0.6061051E-012  0.5930192E+02  0.7816164E-02  0.1266605E+00
        -11   -1    0    0    0    0  0.00000000000E+00  0.00000000000E+00  0.45593999997E+02  0.45594000000E+02  0.51100000000E-03 0.  1.
         11   -1    0    0    0    0 -0.00000000000E+00 -0.00000000000E+00 -0.45593999997E+02  0.45594000000E+02  0.51100000000E-03 0. -1.
    9900012    2    1    2    0    0  0.18765047319E+02 -0.15364265766E+01  0.25733922284E+02  0.59301915831E+02  0.49999948576E+02 0.  0.
         12    1    1    2    0    0 -0.18765047319E+02  0.15364265766E+01 -0.25733922284E+02  0.31886084169E+02  0.00000000000E+00 0. -1.
         11    1    3    3    0    0 -0.49699437489E+01 -0.17768307490E+02  0.14333479345E+02  0.23363683834E+02  0.51100000000E-03 0.  1.
        -11    1    3    3    0    0  0.95882720304E+01 -0.11520254544E+01 -0.19478420207E+01  0.98517111191E+01  0.51100000000E-03 0. -1.
        -12    1    3    3    0    0  0.14146719037E+02  0.17383906368E+02  0.13348284960E+02  0.26086520878E+02  0.00000000000E+00 0.  1.
</event>
<event>
 7    1  0.6061051E-012  0.5930186E+02  0.7816164E-02  0.1266605E+00
        -11   -1    0    0    0    0  0.00000000000E+00  0.00000000000E+00  0.45593999997E+02  0.45594000000E+02  0.51100000000E-03 0. -1.
         11   -1    0    0    0    0 -0.00000000000E+00 -0.00000000000E+00 -0.45593999997E+02  0.45594000000E+02  0.51100000000E-03 0.  1.
    9900012    2    1    2    0    0  0.24645964014E+02 -0.96348774964E+01 -0.17789649139E+02  0.59301858449E+02  0.49999843924E+02 0.  0.
         12    1    1    2    0    0 -0.24645964014E+02  0.96348774964E+01  0.17789649139E+02  0.31886141551E+02  0.00000000000E+00 0. -1.
         11    1    3    3    0    0  0.86247556228E+01  0.50067263795E+01 -0.87835879114E+01  0.13289286491E+02  0.51100000000E-03 0. -1.
        -11    1    3    3    0    0  0.16446722324E+02 -0.12969222306E+02 -0.23463765420E+02  0.31452244600E+02  0.51100000000E-03 0.  1.
         12    1    3    3    0    0 -0.42551393366E+00 -0.16723815699E+01  0.14457704192E+02  0.14560327357E+02  0.00000000000E+00 0. -1.
</event>
<event>
 7    1  0.6061051E-012  0.5930194E+02  0.7816164E-02  0.1266605E+00
        -11   -1    0    0    0    0  0.00000000000E+00  0.00000000000E+00  0.45593999997E+02  0.45594000000E+02  0.51100000000E-03 0.  1.
         11   -1    0    0    0    0 -0.00000000000E+00 -0.00000000000E+00 -0.45593999997E+02  0.45594000000E+02  0.51100000000E-03 0. -1.
    9900012    2    1    2    0    0  0.93945328567E+01 -0.30467247973E+02  0.45847891985E+00  0.59301942709E+02  0.49999997595E+02 0.  0.
         12    1    1    2    0    0 -0.93945328567E+01  0.30467247973E+02 -0.45847891985E+00  0.31886057291E+02  0.00000000000E+00 0. -1.
         11    1    3    3    0    0 -0.37081018532E+01 -0.26238665932E+01 -0.92021218142E+01  0.10262248360E+02  0.51100000000E-03 0. -1.
        -11    1    3    3    0    0 -0.50274394854E+01 -0.27650418691E+02 -0.78533951009E+00  0.28114721410E+02  0.51100000000E-03 0.  1.
        -12    1    3    3    0    0  0.18130074195E+02 -0.19296268925E+00  0.10445940244E+02  0.20924972939E+02  0.00000000000E+00 0.  1.
</event>
<event>
 7    1  0.6061051E-012  0.5930187E+02  0.7816164E-02  0.1266605E+00
        -11   -1    0    0    0    0  0.00000000000E+00  0.00000000000E+00  0.45593999997E+02  0.45594000000E+02  0.51100000000E-03 0.  1.
         11   -1    0    0    0    0 -0.00000000000E+00 -0.00000000000E+00 -0.45593999997E+02  0.45594000000E+02  0.51100000000E-03 0. -1.
    9900012    2    1    2    0    0 -0.13698348658E+02 -0.27971167333E+02  0.68333246095E+01  0.59301870050E+02  0.49999865083E+02 0.  0.
         12    1    1    2    0    0  0.13698348658E+02  0.27971167333E+02 -0.68333246095E+01  0.31886129950E+02  0.00000000000E+00 0. -1.
         11    1    3    3    0    0 -0.10662064603E+02 -0.11553371518E+02 -0.57619623446E+01  0.16743960862E+02  0.51100000000E-03 0. -1.
        -11    1    3    3    0    0 -0.98286817812E+01  0.93235380230E+01  0.73882388758E+01  0.15431053780E+02  0.51100000000E-03 0.  1.
         12    1    3    3    0    0  0.67923977263E+01 -0.25741333838E+02  0.52070480783E+01  0.27126855408E+02  0.00000000000E+00 0. -1.
</event>
<event>
 7    1  0.6061051E-012  0.5930194E+02  0.7816164E-02  0.1266605E+00
        -11   -1    0    0    0    0  0.00000000000E+00  0.00000000000E+00  0.45593999997E+02  0.45594000000E+02  0.51100000000E-03 0. -1.
         11   -1    0    0    0    0 -0.00000000000E+00 -0.00000000000E+00 -0.45593999997E+02  0.45594000000E+02  0.51100000000E-03 0.  1.
    9900012    2    1    2    0    0 -0.14691108046E+01 -0.18303798843E+01 -0.31799566439E+02  0.59301937170E+02  0.49999987494E+02 0.  0.
         12    1    1    2    0    0  0.14691108046E+01  0.18303798843E+01  0.31799566439E+02  0.31886062830E+02  0.00000000000E+00 0. -1.
         11    1    3    3    0    0 -0.11269149988E+02 -0.23961878709E+01 -0.22339598939E+02  0.25135495595E+02  0.51100000000E-03 0. -1.
        -11    1    3    3    0    0  0.12096959732E+02 -0.19791933939E+01 -0.19792055778E+02  0.23280444872E+02  0.51100000000E-03 0.  1.
         12    1    3    3    0    0 -0.22969205484E+01  0.25450013804E+01  0.10332088279E+02  0.10885996703E+02  0.00000000000E+00 0. -1.
</event>
<event>
 7    1  0.6061051E-012  0.5930193E+02  0.7816164E-02  0.1266605E+00
        -11   -1    0    0    0    0  0.00000000000E+00  0.00000000000E+00  0.45593999997E+02  0.45594000000E+02  0.51100000000E-03 0.  1.
         11   -1    0    0    0    0 -0.00000000000E+00 -0.00000000000E+00 -0.45593999997E+02  0.45594000000E+02  0.51100000000E-03 0. -1.
    9900012    2    1    2    0    0 -0.13312139572E+02  0.20776969115E+02  0.20194705712E+02  0.59301927109E+02  0.49999969144E+02 0.  0.
         12    1    1    2    0    0  0.13312139572E+02 -0.20776969115E+02 -0.20194705712E+02  0.31886072891E+02  0.00000000000E+00 0. -1.
         11    1    3    3    0    0  0.10057017052E+02  0.19436320935E-01  0.12819065055E+02  0.16293323752E+02  0.51100000000E-03 0.  1.
        -11    1    3    3    0    0 -0.55198407237E+01  0.20287513952E+02 -0.45825936619E+01  0.21518643751E+02  0.51100000000E-03 0. -1.
        -12    1    3    3    0    0 -0.17849315900E+02  0.47001884226E+00  0.11958234319E+02  0.21489959606E+02  0.00000000000E+00 0.  1.
</event>
<event>
 7    1  0.6061051E-012  0.5930193E+02  0.7816164E-02  0.1266605E+00
        -11   -1    0    0    0    0  0.00000000000E+00  0.00000000000E+00  0.45593999997E+02  0.45594000000E+02  0.51100000000E-03 0. -1.
         11   -1    0    0    0    0 -0.00000000000E+00 -0.00000000000E+00 -0.45593999997E+02  0.45594000000E+02  0.51100000000E-03 0.  1.
    9900012    2    1    2    0    0 -0.18624620511E+02  0.27478578014E+01 -0.25735074582E+02  0.59301932895E+02  0.49999979697E+02 0.  0.
         12    1    1    2    0    0  0.18624620511E+02 -0.27478578014E+01  0.25735074582E+02  0.31886067105E+02  0.00000000000E+00 0. -1.
         11    1    3    3    0    0 -0.18036018774E+01  0.77701985605E+01  0.38552761872E+01  0.88595778761E+01  0.51100000000E-03 0. -1.
        -11    1    3    3    0    0  0.65767062053E+00  0.91859345259E+01 -0.26063639858E+02  0.27642851637E+02  0.51100000000E-03 0.  1.
        -12    1    3    3    0    0 -0.17478689254E+02 -0.14208275285E+02 -0.35267109115E+01  0.22799503382E+02  0.00000000000E+00 0.  1.
</event>
<event>
 7    1  0.6061051E-012  0.5930195E+02  0.7816164E-02  0.1266605E+00
        -11   -1    0    0    0    0  0.00000000000E+00  0.00000000000E+00  0.45593999997E+02  0.45594000000E+02  0.51100000000E-03 0. -1.
         11   -1    0    0    0    0 -0.00000000000E+00 -0.00000000000E+00 -0.45593999997E+02  0.45594000000E+02  0.51100000000E-03 0.  1.
    9900012    2    1    2    0    0  0.31074745071E+02 -0.63085449844E+01  0.33589451112E+01  0.59301952373E+02  0.50000015219E+02 0.  0.
         12    1    1    2    0    0 -0.31074745071E+02  0.63085449844E+01 -0.33589451112E+01  0.31886047627E+02  0.00000000000E+00 0. -1.
         11    1    3    3    0    0  0.10783384173E+02 -0.73909426711E+01 -0.92894926300E+01  0.16037521048E+02  0.51100000000E-03 0. -1.
        -11    1    3    3    0    0  0.11301154439E+02  0.53318886036E+01 -0.11603845118E+02  0.17052693322E+02  0.51100000000E-03 0.  1.
         12    1    3    3    0    0  0.89902064590E+01 -0.42494909170E+01  0.24252282860E+02  0.26211738003E+02  0.00000000000E+00 0. -1.
</event>
<event>
 7    1  0.6061051E-012  0.5930192E+02  0.7816164E-02  0.1266605E+00
        -11   -1    0    0    0    0  0.00000000000E+00  0.00000000000E+00  0.45593999997E+02  0.45594000000E+02  0.51100000000E-03 0.  1.
         11   -1    0    0    0    0 -0.00000000000E+00 -0.00000000000E+00 -0.45593999997E+02  0.45594000000E+02  0.51100000000E-03 0. -1.
    9900012    2    1    2    0    0 -0.34533101781E+01 -0.28496264452E+02  0.13883802288E+02  0.59301915184E+02  0.49999947396E+02 0.  0.
         12    1    1    2    0    0  0.34533101781E+01  0.28496264452E+02 -0.13883802288E+02  0.31886084816E+02  0.00000000000E+00 0. -1.
         11    1    3    3    0    0  0.15157778160E+02 -0.13240493800E+02 -0.82545815351E+01  0.21753322307E+02  0.51100000000E-03 0. -1.
        -11    1    3    3    0    0 -0.76485640504E+01 -0.36986571882E+01 -0.19052757363E+01  0.87069324634E+01  0.51100000000E-03 0.  1.
         12    1    3    3    0    0 -0.10962524288E+02 -0.11557113464E+02  0.24043659560E+02  0.28841660413E+02  0.00000000000E+00 0. -1.
</event>
<event>
 7    1  0.6061051E-012  0.5930187E+02  0.7816164E-02  0.1266605E+00
        -11   -1    0    0    0    0  0.00000000000E+00  0.00000000000E+00  0.45593999997E+02  0.45594000000E+02  0.51100000000E-03 0. -1.
         11   -1    0    0    0    0 -0.00000000000E+00 -0.00000000000E+00 -0.45593999997E+02  0.45594000000E+02  0.51100000000E-03 0.  1.
    9900012    2    1    2    0    0 -0.28842483044E+01 -0.31733556451E+02  0.11781700301E+01  0.59301865429E+02  0.49999856654E+02 0.  0.
         12    1    1    2    0    0  0.28842483044E+01  0.31733556451E+02 -0.11781700301E+01  0.31886134571E+02  0.00000000000E+00 0. -1.
         11    1    3    3    0    0 -0.29074890081E+01 -0.14241386720E+02  0.15820416369E+02  0.21483858182E+02  0.51100000000E-03 0. -1.
        -11    1    3    3    0    0 -0.34773723109E+01 -0.25078822940E+02 -0.15047613291E+02  0.29452846115E+02  0.51100000000E-03 0.  1.
         12    1    3    3    0    0  0.35006130146E+01  0.75866532091E+01  0.40536695168E+00  0.83651611317E+01  0.00000000000E+00 0. -1.
</event>
<event>
 7    1  0.6061051E-012  0.5930195E+02  0.7816164E-02  0.1266605E+00
        -11   -1    0    0    0    0  0.00000000000E+00  0.00000000000E+00  0.45593999997E+02  0.45594000000E+02  0.51100000000E-03 0. -1.
         11   -1    0    0    0    0 -0.00000000000E+00 -0.00000000000E+00 -0.45593999997E+02  0.45594000000E+02  0.51100000000E-03 0.  1.
    9900012    2    1    2    0    0 -0.11554236457E+02 -0.29346190386E+02  0.46926686655E+01  0.59301946474E+02  0.50000004461E+02 0.  0.
         12    1    1    2    0    0  0.11554236457E+02  0.29346190386E+02 -0.46926686655E+01  0.31886053526E+02  0.00000000000E+00 0. -1.
         11    1    3    3    0    0  0.61631928272E+01 -0.17633402669E+02  0.42539362789E+01  0.19157708883E+02  0.51100000000E-03 0. -1.
        -11    1    3    3    0    0  0.84137225299E+01  0.65730436375E+00  0.64411267870E+01  0.10616538531E+02  0.51100000000E-03 0.  1.
         12    1    3    3    0    0 -0.26131151814E+02 -0.12370092081E+02 -0.60023944004E+01  0.29527699059E+02  0.00000000000E+00 0. -1.
</event>
<event>
 7    1  0.6061051E-012  0.5930193E+02  0.7816164E-02  0.1266605E+00
        -11   -1    0    0    0    0  0.00000000000E+00  0.00000000000E+00  0.45593999997E+02  0.45594000000E+02  0.51100000000E-03 0. -1.
         11   -1    0    0    0    0 -0.00000000000E+00 -0.00000000000E+00 -0.45593999997E+02  0.45594000000E+02  0.51100000000E-03 0.  1.
    9900012    2    1    2    0    0 -0.15364741479E+02 -0.22556548801E+02 -0.16487825664E+02  0.59301928281E+02  0.49999971282E+02 0.  0.
         12    1    1    2    0    0  0.15364741479E+02  0.22556548801E+02  0.16487825664E+02  0.31886071719E+02  0.00000000000E+00 0. -1.
         11    1    3    3    0    0 -0.72986227122E+01  0.65819141236E+01  0.40384264867E+01  0.10625458850E+02  0.51100000000E-03 0. -1.
        -11    1    3    3    0    0 -0.20381920917E+02 -0.21388392646E+02 -0.12760514986E+02  0.32182554019E+02  0.51100000000E-03 0.  1.
         12    1    3    3    0    0  0.12315802149E+02 -0.77500702783E+01 -0.77657371646E+01  0.16493915412E+02  0.00000000000E+00 0. -1.
</event>
<event>
 7    1  0.6061051E-012  0.5930197E+02  0.7816164E-02  0.1266605E+00
        -11   -1    0    0    0    0  0.00000000000E+00  0.00000000000E+00  0.45593999997E+02  0.45594000000E+02  0.51100000000E-03 0.  1.
         11   -1    0    0    0    0 -0.00000000000E+00 -0.00000000000E+00 -0.45593999997E+02  0.45594000000E+02  0.51100000000E-03 0. -1.
    9900012    2    1    2    0    0  0.27866442537E+02  0.23366079831E+01  0.15320586471E+02  0.59301972866E+02  0.50000052595E+02 0.  0.
         12    1    1    2    0    0 -0.27866442537E+02 -0.23366079831E+01 -0.15320586471E+02  0.31886027134E+02  0.00000000000E+00 0. -1.
         11    1    3    3    0    0  0.25243448411E+02  0.17080093202E+02  0.88955294516E+01  0.31750460090E+02  0.51100000000E-03 0. -1.
        -11    1    3    3    0    0  0.11831608612E+02 -0.36776652996E+01  0.32543057065E+01  0.12810257229E+02  0.51100000000E-03 0.  1.
         12    1    3    3    0    0 -0.92086144849E+01 -0.11065819919E+02  0.31707513129E+01  0.14741255547E+02  0.00000000000E+00 0. -1.
</event>
<event>
 7    1  0.6061051E-012  0.5930195E+02  0.7816164E-02  0.1266605E+00
        -11   -1    0    0    0    0  0.00000000000E+00  0.00000000000E+00  0.45593999997E+02  0.45594000000E+02  0.51100000000E-03 0. -1.
         11   -1    0    0    0    0 -0.00000000000E+00 -0.00000000000E+00 -0.45593999997E+02  0.45594000000E+02  0.51100000000E-03 0.  1.
    9900012    2    1    2    0    0 -0.22956813497E+01 -0.24853543614E+02 -0.19843163769E+02  0.59301953971E+02  0.50000018134E+02 0.  0.
         12    1    1    2    0    0  0.22956813497E+01  0.24853543614E+02  0.19843163769E+02  0.31886046029E+02  0.00000000000E+00 0. -1.
         11    1    3    3    0    0 -0.56300734783E+01 -0.66084995626E+01  0.92066082852E+01  0.12654312712E+02  0.51100000000E-03 0. -1.
        -11    1    3    3    0    0 -0.79041568280E+01 -0.18377968122E+02 -0.58091841917E+01  0.20831995312E+02  0.51100000000E-03 0.  1.
         12    1    3    3    0    0  0.11238548957E+02  0.13292407040E+00 -0.23240587862E+02  0.25815645947E+02  0.00000000000E+00 0. -1.
</event>
<event>
 7    1  0.6061051E-012  0.5930195E+02  0.7816164E-02  0.1266605E+00
        -11   -1    0    0    0    0  0.00000000000E+00  0.00000000000E+00  0.45593999997E+02  0.45594000000E+02  0.51100000000E-03 0.  1.
         11   -1    0    0    0    0 -0.00000000000E+00 -0.00000000000E+00 -0.45593999997E+02  0.45594000000E+02  0.51100000000E-03 0. -1.
    9900012    2    1    2    0    0 -0.18073266707E+01 -0.30381779110E+02  0.95079504527E+01  0.59301952057E+02  0.50000014643E+02 0.  0.
         12    1    1    2    0    0  0.18073266707E+01  0.30381779110E+02 -0.95079504527E+01  0.31886047943E+02  0.00000000000E+00 0. -1.
         11    1    3    3    0    0 -0.15334967895E+02 -0.28883319395E+01 -0.11340109857E+02  0.19289940217E+02  0.51100000000E-03 0. -1.
        -11    1    3    3    0    0  0.51868405805E+01 -0.69916952646E+01 -0.11797775756E+01  0.87851575552E+01  0.51100000000E-03 0.  1.
        -12    1    3    3    0    0  0.83408006439E+01 -0.20501751906E+02  0.22027837886E+02  0.31226854285E+02  0.00000000000E+00 0.  1.
</event>
<event>
 7    1  0.6061051E-012  0.5930194E+02  0.7816164E-02  0.1266605E+00
        -11   -1    0    0    0    0  0.00000000000E+00  0.00000000000E+00  0.45593999997E+02  0.45594000000E+02  0.51100000000E-03 0.  1.
         11   -1    0    0    0    0 -0.00000000000E+00 -0.00000000000E+00 -0.45593999997E+02  0.45594000000E+02  0.51100000000E-03 0. -1.
    9900012    2    1    2    0    0  0.17338214076E+02 -0.12559643917E+02  0.23629689013E+02  0.59301944654E+02  0.50000001142E+02 0.  0.
         12    1    1    2    0    0 -0.17338214076E+02  0.12559643917E+02 -0.23629689013E+02  0.31886055346E+02  0.00000000000E+00 0. -1.
         11    1    3    3    0    0 -0.51474111221E+01 -0.29189215672E+01  0.51946258798E+01  0.78740131234E+01  0.51100000000E-03 0. -1.
        -11    1    3    3    0    0  0.15165686570E+02  0.37479251576E+00  0.30536840525E+02  0.34097465421E+02  0.51100000000E-03 0.  1.
        -12    1    3    3    0    0  0.73199386281E+01 -0.10015514866E+02 -0.12101777392E+02  0.17330466110E+02  0.00000000000E+00 0.  1.
</event>
<event>
 7    1  0.6061051E-012  0.5930195E+02  0.7816164E-02  0.1266605E+00
        -11   -1    0    0    0    0  0.00000000000E+00  0.00000000000E+00  0.45593999997E+02  0.45594000000E+02  0.51100000000E-03 0. -1.
         11   -1    0    0    0    0 -0.00000000000E+00 -0.00000000000E+00 -0.45593999997E+02  0.45594000000E+02  0.51100000000E-03 0.  1.
    9900012    2    1    2    0    0 -0.92796654364E+01  0.26540449473E+02 -0.15040365203E+02  0.59301949221E+02  0.50000009472E+02 0.  0.
         12    1    1    2    0    0  0.92796654364E+01 -0.26540449473E+02  0.15040365203E+02  0.31886050779E+02  0.00000000000E+00 0. -1.
         11    1    3    3    0    0  0.90462868811E+01  0.18842826912E+02 -0.12117105047E+02  0.24160125565E+02  0.51100000000E-03 0.  1.
        -11    1    3    3    0    0 -0.11953800336E+01  0.14542078211E+02  0.44815255778E+01  0.15263847610E+02  0.51100000000E-03 0. -1.
        -12    1    3    3    0    0 -0.17130572284E+02 -0.68444556493E+01 -0.74047857338E+01  0.19877976046E+02  0.00000000000E+00 0.  1.
</event>
<event>
 7    1  0.6061051E-012  0.5930194E+02  0.7816164E-02  0.1266605E+00
        -11   -1    0    0    0    0  0.00000000000E+00  0.00000000000E+00  0.45593999997E+02  0.45594000000E+02  0.51100000000E-03 0.  1.
         11   -1    0    0    0    0 -0.00000000000E+00 -0.00000000000E+00 -0.45593999997E+02  0.45594000000E+02  0.51100000000E-03 0. -1.
    9900012    2    1    2    0    0  0.16702606577E+02 -0.26400708148E+02  0.63833024157E+01  0.59301937105E+02  0.49999987375E+02 0.  0.
         12    1    1    2    0    0 -0.16702606577E+02  0.26400708148E+02 -0.63833024157E+01  0.31886062895E+02  0.00000000000E+00 0. -1.
         11    1    3    3    0    0  0.19714239320E+01  0.28592609856E+01 -0.27105820129E+01  0.44055806443E+01  0.51100000000E-03 0. -1.
        -11    1    3    3    0    0 -0.50487090962E+01  0.83150988645E+01  0.77063685996E+01  0.12410416992E+02  0.51100000000E-03 0.  1.
         12    1    3    3    0    0  0.19779891741E+02 -0.37575067998E+02  0.13875158290E+01  0.42485939469E+02  0.00000000000E+00 0. -1.
</event>
<event>
 7    1  0.6061051E-012  0.5930200E+02  0.7816164E-02  0.1266605E+00
        -11   -1    0    0    0    0  0.00000000000E+00  0.00000000000E+00  0.45593999997E+02  0.45594000000E+02  0.51100000000E-03 0. -1.
         11   -1    0    0    0    0 -0.00000000000E+00 -0.00000000000E+00 -0.45593999997E+02  0.45594000000E+02  0.51100000000E-03 0.  1.
    9900012    2    1    2    0    0  0.30649185209E+01  0.31724363121E+02 -0.94247035476E+00  0.59301996937E+02  0.50000096493E+02 0.  0.
         12    1    1    2    0    0 -0.30649185209E+01 -0.31724363121E+02  0.94247035476E+00  0.31886003063E+02  0.00000000000E+00 0. -1.
         11    1    3    3    0    0 -0.82768873046E+00  0.20970455687E+02 -0.10459521147E+02  0.23448809421E+02  0.51100000000E-03 0. -1.
        -11    1    3    3    0    0 -0.96225110771E+01  0.13667028869E+02 -0.32578301257E+01  0.17029205940E+02  0.51100000000E-03 0.  1.
         12    1    3    3    0    0  0.13515118329E+02 -0.29131214355E+01  0.12774880918E+02  0.18823981576E+02  0.00000000000E+00 0. -1.
</event>
<event>
 7    1  0.6061051E-012  0.5930199E+02  0.7816164E-02  0.1266605E+00
        -11   -1    0    0    0    0  0.00000000000E+00  0.00000000000E+00  0.45593999997E+02  0.45594000000E+02  0.51100000000E-03 0.  1.
         11   -1    0    0    0    0 -0.00000000000E+00 -0.00000000000E+00 -0.45593999997E+02  0.45594000000E+02  0.51100000000E-03 0. -1.
    9900012    2    1    2    0    0  0.18911744743E+02  0.66508487556E+01  0.24795755759E+02  0.59301993946E+02  0.50000091039E+02 0.  0.
         12    1    1    2    0    0 -0.18911744743E+02 -0.66508487556E+01 -0.24795755759E+02  0.31886006054E+02  0.00000000000E+00 0. -1.
         11    1    3    3    0    0  0.98004583936E+01  0.12471788965E+01  0.50359052800E+01  0.11088948651E+02  0.51100000000E-03 0.  1.
        -11    1    3    3    0    0 -0.13497441195E+02 -0.38470829912E+01 -0.35189346272E+01  0.14469411444E+02  0.51100000000E-03 0. -1.
         12    1    3    3    0    0  0.22608727545E+02  0.92507528503E+01  0.23278785106E+02  0.33743633852E+02  0.00000000000E+00 0. -1.
</event>
<event>
 7    1  0.6061051E-012  0.5930193E+02  0.7816164E-02  0.1266605E+00
        -11   -1    0    0    0    0  0.00000000000E+00  0.00000000000E+00  0.45593999997E+02  0.45594000000E+02  0.51100000000E-03 0.  1.
         11   -1    0    0    0    0 -0.00000000000E+00 -0.00000000000E+00 -0.45593999997E+02  0.45594000000E+02  0.51100000000E-03 0. -1.
    9900012    2    1    2    0    0  0.60797471978E+01  0.31271109905E+02  0.13694978750E+01  0.59301934625E+02  0.49999982852E+02 0.  0.
         12    1    1    2    0    0 -0.60797471978E+01 -0.31271109905E+02 -0.13694978750E+01  0.31886065375E+02  0.00000000000E+00 0. -1.
         11    1    3    3    0    0  0.45681616885E+01  0.72177410903E+01 -0.45224450206E+01  0.96652158219E+01  0.51100000000E-03 0. -1.
        -11    1    3    3    0    0 -0.42187019555E+01  0.29956166977E+02  0.17847537206E+02  0.35124122348E+02  0.51100000000E-03 0.  1.
         12    1    3    3    0    0  0.57302874649E+01 -0.59027981620E+01 -0.11955594310E+02  0.14512596455E+02  0.00000000000E+00 0. -1.
</event>
<event>
 7    1  0.6061051E-012  0.5930193E+02  0.7816164E-02  0.1266605E+00
        -11   -1    0    0    0    0  0.00000000000E+00  0.00000000000E+00  0.45593999997E+02  0.45594000000E+02  0.51100000000E-03 0. -1.
         11   -1    0    0    0    0 -0.00000000000E+00 -0.00000000000E+00 -0.45593999997E+02  0.45594000000E+02  0.51100000000E-03 0.  1.
    9900012    2    1    2    0    0 -0.14501109830E+02  0.16126900500E+02 -0.23374391525E+02  0.59301932742E+02  0.49999979417E+02 0.  0.
         12    1    1    2    0    0  0.14501109830E+02 -0.16126900500E+02  0.23374391525E+02  0.31886067258E+02  0.00000000000E+00 0. -1.
         11    1    3    3    0    0 -0.62772262066E+01 -0.68011352463E+01 -0.89538434798E+01  0.12877512291E+02  0.51100000000E-03 0. -1.
        -11    1    3    3    0    0 -0.19745870482E+02  0.55298559583E+01  0.91794797302E+00  0.20526113533E+02  0.51100000000E-03 0.  1.
        -12    1    3    3    0    0  0.11521986859E+02  0.17398179788E+02 -0.15338496018E+02  0.25898306918E+02  0.00000000000E+00 0.  1.
</event>
<event>
 7    1  0.6061051E-012  0.5930190E+02  0.7816164E-02  0.1266605E+00
        -11   -1    0    0    0    0  0.00000000000E+00  0.00000000000E+00  0.45593999997E+02  0.45594000000E+02  0.51100000000E-03 0.  1.
         11   -1    0    0    0    0 -0.00000000000E+00 -0.00000000000E+00 -0.45593999997E+02  0.45594000000E+02  0.51100000000E-03 0. -1.
    9900012    2    1    2    0    0 -0.65109648673E+01 -0.17951752143E+01  0.31162602665E+02  0.59301903933E+02  0.49999926877E+02 0.  0.
         12    1    1    2    0    0  0.65109648673E+01  0.17951752143E+01 -0.31162602665E+02  0.31886096067E+02  0.00000000000E+00 0. -1.
         11    1    3    3    0    0 -0.16936988556E+02  0.14368378216E+02  0.13994807983E+02  0.26251981347E+02  0.51100000000E-03 0. -1.
        -11    1    3    3    0    0  0.55209492124E+01 -0.12732135771E+01 -0.38345846010E+01  0.68414905059E+01  0.51100000000E-03 0.  1.
        -12    1    3    3    0    0  0.49050744764E+01 -0.14890339854E+02  0.21002379282E+02  0.26208432080E+02  0.00000000000E+00 0.  1.
</event>
<event>
 7    1  0.6061051E-012  0.5930194E+02  0.7816164E-02  0.1266605E+00
        -11   -1    0    0    0    0  0.00000000000E+00  0.00000000000E+00  0.45593999997E+02  0.45594000000E+02  0.51100000000E-03 0.  1.
         11   -1    0    0    0    0 -0.00000000000E+00 -0.00000000000E+00 -0.45593999997E+02  0.45594000000E+02  0.51100000000E-03 0. -1.
    9900012    2    1    2    0    0  0.11240702036E+02  0.20926502223E+02  0.21270853611E+02  0.59301935789E+02  0.49999984974E+02 0.  0.
         12    1    1    2    0    0 -0.11240702036E+02 -0.20926502223E+02 -0.21270853611E+02  0.31886064211E+02  0.00000000000E+00 0. -1.
         11    1    3    3    0    0 -0.22358329637E+01  0.16243107832E+02 -0.45781118530E+00  0.16402655042E+02  0.51100000000E-03 0. -1.
        -11    1    3    3    0    0  0.14366720054E+02  0.13468969549E+02  0.26378981987E+02  0.32919089853E+02  0.51100000000E-03 0.  1.
         12    1    3    3    0    0 -0.89018505409E+00 -0.87855751587E+01 -0.46503171908E+01  0.99801908937E+01  0.00000000000E+00 0. -1.
</event>
<event>
 7    1  0.6061051E-012  0.5930195E+02  0.7816164E-02  0.1266605E+00
        -11   -1    0    0    0    0  0.00000000000E+00  0.00000000000E+00  0.45593999997E+02  0.45594000000E+02  0.51100000000E-03 0.  1.
         11   -1    0    0    0    0 -0.00000000000E+00 -0.00000000000E+00 -0.45593999997E+02  0.45594000000E+02  0.51100000000E-03 0. -1.
    9900012    2    1    2    0    0  0.86039086670E+01  0.29181768869E+02  0.95455429019E+01  0.59301948693E+02  0.50000008508E+02 0.  0.
         12    1    1    2    0    0 -0.86039086670E+01 -0.29181768869E+02 -0.95455429019E+01  0.31886051307E+02  0.00000000000E+00 0. -1.
         11    1    3    3    0    0 -0.17657728102E+01 -0.21719967059E+01  0.15518652986E+01  0.32005951749E+01  0.51100000000E-03 0.  1.
        -11    1    3    3    0    0 -0.15375525296E+02  0.13796945140E+02 -0.66063856254E+01  0.21688863608E+02  0.51100000000E-03 0. -1.
        -12    1    3    3    0    0  0.25745206773E+02  0.17556820435E+02  0.14600063229E+02  0.34412489911E+02  0.00000000000E+00 0.  1.
</event>
<event>
 7    1  0.6061051E-012  0.5930195E+02  0.7816164E-02  0.1266605E+00
        -11   -1    0    0    0    0  0.00000000000E+00  0.00000000000E+00  0.45593999997E+02  0.45594000000E+02  0.51100000000E-03 0. -1.
         11   -1    0    0    0    0 -0.00000000000E+00 -0.00000000000E+00 -0.45593999997E+02  0.45594000000E+02  0.51100000000E-03 0.  1.
    9900012    2    1    2    0    0  0.18212336171E+02  0.13017514118E+02 -0.22706287400E+02  0.59301947405E+02  0.50000006159E+02 0.  0.
         12    1    1    2    0    0 -0.18212336171E+02 -0.13017514118E+02  0.22706287400E+02  0.31886052595E+02  0.00000000000E+00 0. -1.
         11    1    3    3    0    0 -0.11640052898E+02  0.28591763276E+01 -0.11228981003E+02  0.16424242308E+02  0.51100000000E-03 0. -1.
        -11    1    3    3    0    0  0.16415890239E+01  0.12372942078E+02 -0.67444835633E+01  0.14187056389E+02  0.51100000000E-03 0.  1.
        -12    1    3    3    0    0  0.28210800045E+02 -0.22146042880E+01 -0.47328228337E+01  0.28690648708E+02  0.00000000000E+00 0.  1.
</event>
<event>
 7    1  0.6061051E-012  0.5930192E+02  0.7816164E-02  0.1266605E+00
        -11   -1    0    0    0    0  0.00000000000E+00  0.00000000000E+00  0.45593999997E+02  0.45594000000E+02  0.51100000000E-03 0. -1.
         11   -1    0    0    0    0 -0.00000000000E+00 -0.00000000000E+00 -0.45593999997E+02  0.45594000000E+02  0.51100000000E-03 0.  1.
    9900012    2    1    2    0    0  0.27009120826E+02  0.19892617528E+01 -0.16830697352E+02  0.59301919283E+02  0.49999954871E+02 0.  0.
         12    1    1    2    0    0 -0.27009120826E+02 -0.19892617528E+01  0.16830697352E+02  0.31886080717E+02  0.00000000000E+00 0. -1.
         11    1    3    3    0    0 -0.92849650833E+00 -0.62256788455E+01 -0.15635321875E+02  0.16854805642E+02  0.51100000000E-03 0. -1.
        -11    1    3    3    0    0  0.15816314474E+02  0.13287412348E+02 -0.13310882551E+02  0.24574188185E+02  0.51100000000E-03 0.  1.
        -12    1    3    3    0    0  0.12121302861E+02 -0.50724717495E+01  0.12115507073E+02  0.17872925455E+02  0.00000000000E+00 0.  1.
</event>
<event>
 7    1  0.6061051E-012  0.5930195E+02  0.7816164E-02  0.1266605E+00
        -11   -1    0    0    0    0  0.00000000000E+00  0.00000000000E+00  0.45593999997E+02  0.45594000000E+02  0.51100000000E-03 0. -1.
         11   -1    0    0    0    0 -0.00000000000E+00 -0.00000000000E+00 -0.45593999997E+02  0.45594000000E+02  0.51100000000E-03 0.  1.
    9900012    2    1    2    0    0  0.19633873844E+02  0.24361371464E+02  0.61445054067E+01  0.59301947118E+02  0.50000005635E+02 0.  0.
         12    1    1    2    0    0 -0.19633873844E+02 -0.24361371464E+02 -0.61445054067E+01  0.31886052882E+02  0.00000000000E+00 0. -1.
         11    1    3    3    0    0 -0.31806130876E+01  0.10807321737E+02 -0.14084160829E+02  0.18035467537E+02  0.51100000000E-03 0.  1.
        -11    1    3    3    0    0 -0.28884914885E+01 -0.33160358765E+01  0.58683656818E+01  0.73332934654E+01  0.51100000000E-03 0. -1.
        -12    1    3    3    0    0  0.25702978420E+02  0.16870085603E+02  0.14360300554E+02  0.33933186115E+02  0.00000000000E+00 0.  1.
</event>
<event>
 7    1  0.6061051E-012  0.5930197E+02  0.7816164E-02  0.1266605E+00
        -11   -1    0    0    0    0  0.00000000000E+00  0.00000000000E+00  0.45593999997E+02  0.45594000000E+02  0.51100000000E-03 0.  1.
         11   -1    0    0    0    0 -0.00000000000E+00 -0.00000000000E+00 -0.45593999997E+02  0.45594000000E+02  0.51100000000E-03 0. -1.
    9900012    2    1    2    0    0  0.14920996664E+02  0.19522778231E+01  0.28111767542E+02  0.59301968506E+02  0.50000044642E+02 0.  0.
         12    1    1    2    0    0 -0.14920996664E+02 -0.19522778231E+01 -0.28111767542E+02  0.31886031494E+02  0.00000000000E+00 0. -1.
         11    1    3    3    0    0  0.12087159299E+02  0.91094323670E+00  0.15024741828E+02  0.19304717163E+02  0.51100000000E-03 0. -1.
        -11    1    3    3    0    0  0.38986028551E+01  0.13466601155E+02  0.20983977039E+02  0.25236397198E+02  0.51100000000E-03 0.  1.
         12    1    3    3    0    0 -0.10647654904E+01 -0.12425266569E+02 -0.78969513247E+01  0.14760854145E+02  0.00000000000E+00 0. -1.
</event>
<event>
 7    1  0.6061051E-012  0.5930198E+02  0.7816164E-02  0.1266605E+00
        -11   -1    0    0    0    0  0.00000000000E+00  0.00000000000E+00  0.45593999997E+02  0.45594000000E+02  0.51100000000E-03 0.  1.
         11   -1    0    0    0    0 -0.00000000000E+00 -0.00000000000E+00 -0.45593999997E+02  0.45594000000E+02  0.51100000000E-03 0. -1.
    9900012    2    1    2    0    0  0.20011351282E+02 -0.17347241479E+02  0.17757743405E+02  0.59301977704E+02  0.50000061417E+02 0.  0.
         12    1    1    2    0    0 -0.20011351282E+02  0.17347241479E+02 -0.17757743405E+02  0.31886022296E+02  0.00000000000E+00 0. -1.
         11    1    3    3    0    0 -0.92995921407E+01 -0.23067935349E+01 -0.28225675312E+01  0.99885233205E+01  0.51100000000E-03 0. -1.
        -11    1    3    3    0    0 -0.18410343674E+01 -0.12563755109E+02  0.17226074686E+01  0.12814239218E+02  0.51100000000E-03 0.  1.
        -12    1    3    3    0    0  0.31151977790E+02 -0.24766928348E+01  0.18857703467E+02  0.36499215165E+02  0.00000000000E+00 0.  1.
</event>
<event>
 7    1  0.6061051E-012  0.5930195E+02  0.7816164E-02  0.1266605E+00
        -11   -1    0    0    0    0  0.00000000000E+00  0.00000000000E+00  0.45593999997E+02  0.45594000000E+02  0.51100000000E-03 0.  1.
         11   -1    0    0    0    0 -0.00000000000E+00 -0.00000000000E+00 -0.45593999997E+02  0.45594000000E+02  0.51100000000E-03 0. -1.
    9900012    2    1    2    0    0 -0.19298291009E+01 -0.21779248691E+02  0.23209057380E+02  0.59301948844E+02  0.50000008783E+02 0.  0.
         12    1    1    2    0    0  0.19298291009E+01  0.21779248691E+02 -0.23209057380E+02  0.31886051156E+02  0.00000000000E+00 0. -1.
         11    1    3    3    0    0 -0.67577377915E+01  0.83490638209E+01  0.16119434072E+02  0.19370339228E+02  0.51100000000E-03 0. -1.
        -11    1    3    3    0    0 -0.95084501231E+01 -0.60423724673E+01  0.21956195670E+01  0.11477875863E+02  0.51100000000E-03 0.  1.
         12    1    3    3    0    0  0.14336358814E+02 -0.24085940044E+02  0.48940037405E+01  0.28453733753E+02  0.00000000000E+00 0. -1.
</event>
<event>
 7    1  0.6061051E-012  0.5930196E+02  0.7816164E-02  0.1266605E+00
        -11   -1    0    0    0    0  0.00000000000E+00  0.00000000000E+00  0.45593999997E+02  0.45594000000E+02  0.51100000000E-03 0.  1.
         11   -1    0    0    0    0 -0.00000000000E+00 -0.00000000000E+00 -0.45593999997E+02  0.45594000000E+02  0.51100000000E-03 0. -1.
    9900012    2    1    2    0    0 -0.10945100266E+00  0.31875811316E+02  0.79996792546E+00  0.59301964259E+02  0.50000036898E+02 0.  0.
         12    1    1    2    0    0  0.10945100266E+00 -0.31875811316E+02 -0.79996792546E+00  0.31886035741E+02  0.00000000000E+00 0. -1.
         11    1    3    3    0    0 -0.16571664307E+02  0.43371552209E+01 -0.12100010239E+02  0.20972391885E+02  0.51100000000E-03 0. -1.
        -11    1    3    3    0    0 -0.12867793004E+01  0.99550999498E+01 -0.36060712644E+00  0.10044394145E+02  0.51100000000E-03 0.  1.
         12    1    3    3    0    0  0.17748992605E+02  0.17583556145E+02  0.13260585291E+02  0.28285178229E+02  0.00000000000E+00 0. -1.
</event>
<event>
 7    1  0.6061051E-012  0.5930195E+02  0.7816164E-02  0.1266605E+00
        -11   -1    0    0    0    0  0.00000000000E+00  0.00000000000E+00  0.45593999997E+02  0.45594000000E+02  0.51100000000E-03 0.  1.
         11   -1    0    0    0    0 -0.00000000000E+00 -0.00000000000E+00 -0.45593999997E+02  0.45594000000E+02  0.51100000000E-03 0. -1.
    9900012    2    1    2    0    0 -0.18010321009E+02 -0.25060751212E+02  0.80191653888E+01  0.59301954029E+02  0.50000018240E+02 0.  0.
         12    1    1    2    0    0  0.18010321009E+02  0.25060751212E+02 -0.80191653888E+01  0.31886045971E+02  0.00000000000E+00 0. -1.
         11    1    3    3    0    0 -0.14507348885E+02 -0.23743404199E+02  0.11719277408E+02  0.30191950547E+02  0.51100000000E-03 0.  1.
        -11    1    3    3    0    0 -0.11962069873E+02 -0.89205487535E+01 -0.80232342894E+01  0.16942242899E+02  0.51100000000E-03 0. -1.
        -12    1    3    3    0    0  0.84590977492E+01  0.76032017407E+01  0.43231222701E+01  0.12167760583E+02  0.00000000000E+00 0.  1.
</event>
<event>
 7    1  0.6061051E-012  0.5930189E+02  0.7816164E-02  0.1266605E+00
        -11   -1    0    0    0    0  0.00000000000E+00  0.00000000000E+00  0.45593999997E+02  0.45594000000E+02  0.51100000000E-03 0.  1.
         11   -1    0    0    0    0 -0.00000000000E+00 -0.00000000000E+00 -0.45593999997E+02  0.45594000000E+02  0.51100000000E-03 0. -1.
    9900012    2    1    2    0    0  0.29367745295E+02 -0.13840757292E+01  0.12342779201E+02  0.59301885032E+02  0.49999892406E+02 0.  0.
         12    1    1    2    0    0 -0.29367745295E+02  0.13840757292E+01 -0.12342779201E+02  0.31886114968E+02  0.00000000000E+00 0. -1.
         11    1    3    3    0    0 -0.51439533567E+01 -0.40970308176E+01  0.55055647796E+00  0.65991689138E+01  0.51100000000E-03 0. -1.
        -11    1    3    3    0    0  0.26986996927E+02  0.19088987778E+02  0.10279415271E+02  0.34617247667E+02  0.51100000000E-03 0.  1.
         12    1    3    3    0    0  0.75247017254E+01 -0.16376032689E+02  0.15128074517E+01  0.18085468451E+02  0.00000000000E+00 0. -1.
</event>
<event>
 7    1  0.6061051E-012  0.5930189E+02  0.7816164E-02  0.1266605E+00
        -11   -1    0    0    0    0  0.00000000000E+00  0.00000000000E+00  0.45593999997E+02  0.45594000000E+02  0.51100000000E-03 0.  1.
         11   -1    0    0    0    0 -0.00000000000E+00 -0.00000000000E+00 -0.45593999997E+02  0.45594000000E+02  0.51100000000E-03 0. -1.
    9900012    2    1    2    0    0  0.27163389148E+01  0.13063424767E+02  0.28960183586E+02  0.59301893354E+02  0.49999907583E+02 0.  0.
         12    1    1    2    0    0 -0.27163389148E+01 -0.13063424767E+02 -0.28960183586E+02  0.31886106646E+02  0.00000000000E+00 0. -1.
         11    1    3    3    0    0 -0.33047143812E+01 -0.11807118669E+02  0.85570653491E+01  0.14951674022E+02  0.51100000000E-03 0. -1.
        -11    1    3    3    0    0  0.13577806716E+02  0.26800671714E+02  0.20799014372E+02  0.36540824274E+02  0.51100000000E-03 0.  1.
         12    1    3    3    0    0 -0.75567534199E+01 -0.19301282777E+01 -0.39589613561E+00  0.78093950577E+01  0.00000000000E+00 0. -1.
</event>
<event>
 7    1  0.6061051E-012  0.5930194E+02  0.7816164E-02  0.1266605E+00
        -11   -1    0    0    0    0  0.00000000000E+00  0.00000000000E+00  0.45593999997E+02  0.45594000000E+02  0.51100000000E-03 0.  1.
         11   -1    0    0    0    0 -0.00000000000E+00 -0.00000000000E+00 -0.45593999997E+02  0.45594000000E+02  0.51100000000E-03 0. -1.
    9900012    2    1    2    0    0  0.25701925912E+02 -0.17420452392E+02  0.72566776600E+01  0.59301944619E+02  0.50000001078E+02 0.  0.
         12    1    1    2    0    0 -0.25701925912E+02  0.17420452392E+02 -0.72566776600E+01  0.31886055381E+02  0.00000000000E+00 0. -1.
         11    1    3    3    0    0  0.27341577678E+02 -0.38525467019E+01  0.10805161101E+02  0.29650556363E+02  0.51100000000E-03 0. -1.
        -11    1    3    3    0    0  0.30293441859E+01  0.48210845229E+01  0.61185830488E+01  0.83580404976E+01  0.51100000000E-03 0.  1.
        -12    1    3    3    0    0 -0.46689959517E+01 -0.18388990213E+02 -0.96670664893E+01  0.21293347758E+02  0.00000000000E+00 0.  1.
</event>
<event>
 7    1  0.6061051E-012  0.5930189E+02  0.7816164E-02  0.1266605E+00
        -11   -1    0    0    0    0  0.00000000000E+00  0.00000000000E+00  0.45593999997E+02  0.45594000000E+02  0.51100000000E-03 0.  1.
         11   -1    0    0    0    0 -0.00000000000E+00 -0.00000000000E+00 -0.45593999997E+02  0.45594000000E+02  0.51100000000E-03 0. -1.
    9900012    2    1    2    0    0  0.15879215914E+02 -0.85420398925E+01  0.26298445601E+02  0.59301887277E+02  0.49999896500E+02 0.  0.
         12    1    1    2    0    0 -0.15879215914E+02  0.85420398925E+01 -0.26298445601E+02  0.31886112723E+02  0.00000000000E+00 0. -1.
         11    1    3    3    0    0  0.70327349475E+01  0.29548925246E+01 -0.50176052159E+01  0.91305592949E+01  0.51100000000E-03 0. -1.
        -11    1    3    3    0    0  0.20915987454E+02  0.36692617315E+00  0.10695236243E+02  0.23494706734E+02  0.51100000000E-03 0.  1.
        -12    1    3    3    0    0 -0.12069506488E+02 -0.11863858590E+02  0.20620814574E+02  0.26676621248E+02  0.00000000000E+00 0.  1.
</event>
<event>
 7    1  0.6061051E-012  0.5930192E+02  0.7816164E-02  0.1266605E+00
        -11   -1    0    0    0    0  0.00000000000E+00  0.00000000000E+00  0.45593999997E+02  0.45594000000E+02  0.51100000000E-03 0.  1.
         11   -1    0    0    0    0 -0.00000000000E+00 -0.00000000000E+00 -0.45593999997E+02  0.45594000000E+02  0.51100000000E-03 0. -1.
    9900012    2    1    2    0    0  0.44821765579E+01 -0.30349606942E+02  0.86910025310E+01  0.59301920385E+02  0.49999956882E+02 0.  0.
         12    1    1    2    0    0 -0.44821765579E+01  0.30349606942E+02 -0.86910025310E+01  0.31886079615E+02  0.00000000000E+00 0. -1.
         11    1    3    3    0    0  0.29833094192E+01 -0.49639981107E+01  0.21356410071E+01  0.61727121353E+01  0.51100000000E-03 0. -1.
        -11    1    3    3    0    0  0.22438062083E+02 -0.21965269912E+02  0.55680559141E+01  0.31889543102E+02  0.51100000000E-03 0.  1.
         12    1    3    3    0    0 -0.20939194944E+02 -0.34203389187E+01  0.98730560976E+00  0.21239665148E+02  0.00000000000E+00 0. -1.
</event>
<event>
 7    1  0.6061051E-012  0.5930198E+02  0.7816164E-02  0.1266605E+00
        -11   -1    0    0    0    0  0.00000000000E+00  0.00000000000E+00  0.45593999997E+02  0.45594000000E+02  0.51100000000E-03 0. -1.
         11   -1    0    0    0    0 -0.00000000000E+00 -0.00000000000E+00 -0.45593999997E+02  0.45594000000E+02  0.51100000000E-03 0.  1.
    9900012    2    1    2    0    0  0.13306702200E+02  0.87230378338E+01 -0.27632565628E+02  0.59301978052E+02  0.50000062053E+02 0.  0.
         12    1    1    2    0    0 -0.13306702200E+02 -0.87230378338E+01  0.27632565628E+02  0.31886021948E+02  0.00000000000E+00 0. -1.
         11    1    3    3    0    0 -0.83969019410E+01  0.21448447889E+01 -0.88834753451E+01  0.12410658961E+02  0.51100000000E-03 0. -1.
        -11    1    3    3    0    0  0.93547589338E+01  0.21459637312E+02 -0.12679983854E+02  0.26623477216E+02  0.51100000000E-03 0.  1.
         12    1    3    3    0    0  0.12348845207E+02 -0.14881444267E+02 -0.60691064281E+01  0.20267841875E+02  0.00000000000E+00 0. -1.
</event>
<event>
 7    1  0.6061051E-012  0.5930189E+02  0.7816164E-02  0.1266605E+00
        -11   -1    0    0    0    0  0.00000000000E+00  0.00000000000E+00  0.45593999997E+02  0.45594000000E+02  0.51100000000E-03 0.  1.
         11   -1    0    0    0    0 -0.00000000000E+00 -0.00000000000E+00 -0.45593999997E+02  0.45594000000E+02  0.51100000000E-03 0. -1.
    9900012    2    1    2    0    0  0.54841901177E+01  0.58053053646E+01  0.30869822350E+02  0.59301892625E+02  0.49999906254E+02 0.  0.
         12    1    1    2    0    0 -0.54841901177E+01 -0.58053053646E+01 -0.30869822350E+02  0.31886107375E+02  0.00000000000E+00 0. -1.
         11    1    3    3    0    0  0.11445910759E+02  0.22430678039E+01 -0.37489680538E+01  0.12251325969E+02  0.51100000000E-03 0. -1.
        -11    1    3    3    0    0  0.69156003768E+01 -0.64515876953E+01  0.78580803160E+00  0.94903112112E+01  0.51100000000E-03 0.  1.
        -12    1    3    3    0    0 -0.12877321018E+02  0.10013825256E+02  0.33832982372E+02  0.37560255444E+02  0.00000000000E+00 0.  1.
</event>
<event>
 7    1  0.6061051E-012  0.5930201E+02  0.7816164E-02  0.1266605E+00
        -11   -1    0    0    0    0  0.00000000000E+00  0.00000000000E+00  0.45593999997E+02  0.45594000000E+02  0.51100000000E-03 0.  1.
         11   -1    0    0    0    0 -0.00000000000E+00 -0.00000000000E+00 -0.45593999997E+02  0.45594000000E+02  0.51100000000E-03 0. -1.
    9900012    2    1    2    0    0 -0.18587836713E+02 -0.15474480996E+01  0.25861444527E+02  0.59302006487E+02  0.50000113911E+02 0.  0.
         12    1    1    2    0    0  0.18587836713E+02  0.15474480996E+01 -0.25861444527E+02  0.31885993513E+02  0.00000000000E+00 0. -1.
         11    1    3    3    0    0 -0.17820023789E+02 -0.17213060170E+00  0.22870375114E+02  0.28993739582E+02  0.51100000000E-03 0. -1.
        -11    1    3    3    0    0  0.26836363079E+01 -0.70574185475E+01  0.14880416134E+02  0.16686397004E+02  0.51100000000E-03 0.  1.
         12    1    3    3    0    0 -0.34514492316E+01  0.56821010496E+01 -0.11889346722E+02  0.13621869901E+02  0.00000000000E+00 0. -1.
</event>
<event>
 7    1  0.6061051E-012  0.5930193E+02  0.7816164E-02  0.1266605E+00
        -11   -1    0    0    0    0  0.00000000000E+00  0.00000000000E+00  0.45593999997E+02  0.45594000000E+02  0.51100000000E-03 0.  1.
         11   -1    0    0    0    0 -0.00000000000E+00 -0.00000000000E+00 -0.45593999997E+02  0.45594000000E+02  0.51100000000E-03 0. -1.
    9900012    2    1    2    0    0 -0.26700553690E+02  0.12766336757E+02  0.11866861180E+02  0.59301932262E+02  0.49999978543E+02 0.  0.
         12    1    1    2    0    0  0.26700553690E+02 -0.12766336757E+02 -0.11866861180E+02  0.31886067738E+02  0.00000000000E+00 0. -1.
         11    1    3    3    0    0  0.32156968252E+01 -0.27377439216E+01  0.15277230435E+01  0.44910896017E+01  0.51100000000E-03 0. -1.
        -11    1    3    3    0    0 -0.44554722704E+01 -0.65792010481E+00  0.22015926760E+02  0.22471874052E+02  0.51100000000E-03 0.  1.
         12    1    3    3    0    0 -0.25460778244E+02  0.16162000783E+02 -0.11676788624E+02  0.32338968609E+02  0.00000000000E+00 0. -1.
</event>
<event>
 7    1  0.6061051E-012  0.5930195E+02  0.7816164E-02  0.1266605E+00
        -11   -1    0    0    0    0  0.00000000000E+00  0.00000000000E+00  0.45593999997E+02  0.45594000000E+02  0.51100000000E-03 0.  1.
         11   -1    0    0    0    0 -0.00000000000E+00 -0.00000000000E+00 -0.45593999997E+02  0.45594000000E+02  0.51100000000E-03 0. -1.
    9900012    2    1    2    0    0 -0.15182471007E+02 -0.67464539267E+01  0.27215775081E+02  0.59301945373E+02  0.50000002453E+02 0.  0.
         12    1    1    2    0    0  0.15182471007E+02  0.67464539267E+01 -0.27215775081E+02  0.31886054627E+02  0.00000000000E+00 0. -1.
         11    1    3    3    0    0  0.37923832691E+01 -0.13118688249E+01  0.60723056587E+00  0.40585588446E+01  0.51100000000E-03 0. -1.
        -11    1    3    3    0    0 -0.26821830531E+01  0.87903727511E+01  0.31715229888E+02  0.33020002515E+02  0.51100000000E-03 0.  1.
        -12    1    3    3    0    0 -0.16292671223E+02 -0.14224957853E+02 -0.51066853727E+01  0.22223384013E+02  0.00000000000E+00 0.  1.
</event>
<event>
 7    1  0.6061051E-012  0.5930194E+02  0.7816164E-02  0.1266605E+00
        -11   -1    0    0    0    0  0.00000000000E+00  0.00000000000E+00  0.45593999997E+02  0.45594000000E+02  0.51100000000E-03 0. -1.
         11   -1    0    0    0    0 -0.00000000000E+00 -0.00000000000E+00 -0.45593999997E+02  0.45594000000E+02  0.51100000000E-03 0.  1.
    9900012    2    1    2    0    0 -0.20254479741E+02  0.11499785798E+02 -0.21776870636E+02  0.59301935369E+02  0.49999984208E+02 0.  0.
         12    1    1    2    0    0  0.20254479741E+02 -0.11499785798E+02  0.21776870636E+02  0.31886064631E+02  0.00000000000E+00 0. -1.
         11    1    3    3    0    0  0.44809519728E+01  0.79820014899E+01  0.18218537863E+01  0.93332968370E+01  0.51100000000E-03 0. -1.
        -11    1    3    3    0    0 -0.23810976197E+01  0.70769872746E+00 -0.27060239438E+02  0.27174013728E+02  0.51100000000E-03 0.  1.
         12    1    3    3    0    0 -0.22354334094E+02  0.28100855808E+01  0.34615150163E+01  0.22794624804E+02  0.00000000000E+00 0. -1.
</event>
<event>
 7    1  0.6061051E-012  0.5930193E+02  0.7816164E-02  0.1266605E+00
        -11   -1    0    0    0    0  0.00000000000E+00  0.00000000000E+00  0.45593999997E+02  0.45594000000E+02  0.51100000000E-03 0.  1.
         11   -1    0    0    0    0 -0.00000000000E+00 -0.00000000000E+00 -0.45593999997E+02  0.45594000000E+02  0.51100000000E-03 0. -1.
    9900012    2    1    2    0    0 -0.17106049867E+02  0.71966412250E+01  0.25928994332E+02  0.59301931976E+02  0.49999978020E+02 0.  0.
         12    1    1    2    0    0  0.17106049867E+02 -0.71966412250E+01 -0.25928994332E+02  0.31886068024E+02  0.00000000000E+00 0. -1.
         11    1    3    3    0    0 -0.18807211150E+02 -0.64467861765E+01  0.16839741604E+02  0.26054733558E+02  0.51100000000E-03 0.  1.
        -11    1    3    3    0    0 -0.13096467436E+02  0.44390377297E+01  0.54621907593E+00  0.13839106576E+02  0.51100000000E-03 0. -1.
         12    1    3    3    0    0  0.14797628719E+02  0.92043896719E+01  0.85430336521E+01  0.19408091841E+02  0.00000000000E+00 0. -1.
</event>
<event>
 7    1  0.6061051E-012  0.5930195E+02  0.7816164E-02  0.1266605E+00
        -11   -1    0    0    0    0  0.00000000000E+00  0.00000000000E+00  0.45593999997E+02  0.45594000000E+02  0.51100000000E-03 0.  1.
         11   -1    0    0    0    0 -0.00000000000E+00 -0.00000000000E+00 -0.45593999997E+02  0.45594000000E+02  0.51100000000E-03 0. -1.
    9900012    2    1    2    0    0  0.18245735375E+01  0.21501864509E+02  0.23474693417E+02  0.59301945416E+02  0.50000002531E+02 0.  0.
         12    1    1    2    0    0 -0.18245735375E+01 -0.21501864509E+02 -0.23474693417E+02  0.31886054584E+02  0.00000000000E+00 0. -1.
         11    1    3    3    0    0  0.37200121067E+00  0.65582410433E+01 -0.35308823685E+01  0.74576163111E+01  0.51100000000E-03 0. -1.
        -11    1    3    3    0    0  0.15920555812E+02  0.15280444224E+01 -0.26630381326E+01  0.16213907286E+02  0.51100000000E-03 0.  1.
        -12    1    3    3    0    0 -0.14467983485E+02  0.13415579043E+02  0.29668613918E+02  0.35630421819E+02  0.00000000000E+00 0.  1.
</event>
<event>
 7    1  0.6061051E-012  0.5930195E+02  0.7816164E-02  0.1266605E+00
        -11   -1    0    0    0    0  0.00000000000E+00  0.00000000000E+00  0.45593999997E+02  0.45594000000E+02  0.51100000000E-03 0.  1.
         11   -1    0    0    0    0 -0.00000000000E+00 -0.00000000000E+00 -0.45593999997E+02  0.45594000000E+02  0.51100000000E-03 0. -1.
    9900012    2    1    2    0    0  0.30750230243E+02 -0.14179844460E+01 -0.83146341314E+01  0.59301945359E+02  0.50000002427E+02 0.  0.
         12    1    1    2    0    0 -0.30750230243E+02  0.14179844460E+01  0.83146341314E+01  0.31886054641E+02  0.00000000000E+00 0. -1.
         11    1    3    3    0    0  0.12022728833E+02  0.12728145362E+02  0.95182729038E+01  0.19928602868E+02  0.51100000000E-03 0. -1.
        -11    1    3    3    0    0  0.66312142310E+01 -0.23080613747E+01  0.66095842535E+01  0.96429639505E+01  0.51100000000E-03 0.  1.
         12    1    3    3    0    0  0.12096287178E+02 -0.11838068433E+02 -0.24442491289E+02  0.29730378540E+02  0.00000000000E+00 0. -1.
</event>
<event>
 7    1  0.6061051E-012  0.5930183E+02  0.7816164E-02  0.1266605E+00
        -11   -1    0    0    0    0  0.00000000000E+00  0.00000000000E+00  0.45593999997E+02  0.45594000000E+02  0.51100000000E-03 0.  1.
         11   -1    0    0    0    0 -0.00000000000E+00 -0.00000000000E+00 -0.45593999997E+02  0.45594000000E+02  0.51100000000E-03 0. -1.
    9900012    2    1    2    0    0 -0.30191702670E+02  0.25380106421E+01  0.99371684695E+01  0.59301831755E+02  0.49999795241E+02 0.  0.
         12    1    1    2    0    0  0.30191702670E+02 -0.25380106421E+01 -0.99371684695E+01  0.31886168245E+02  0.00000000000E+00 0. -1.
         11    1    3    3    0    0  0.39840346170E+01  0.34194364263E+01 -0.71770704050E+01  0.88924359521E+01  0.51100000000E-03 0. -1.
        -11    1    3    3    0    0 -0.10733265638E+01  0.25017267603E+00  0.17252195748E+02  0.17287361703E+02  0.51100000000E-03 0.  1.
         12    1    3    3    0    0 -0.33102410724E+02 -0.11315984603E+01 -0.13795687319E+00  0.33122034100E+02  0.00000000000E+00 0. -1.
</event>
<event>
 7    1  0.6061051E-012  0.5930193E+02  0.7816164E-02  0.1266605E+00
        -11   -1    0    0    0    0  0.00000000000E+00  0.00000000000E+00  0.45593999997E+02  0.45594000000E+02  0.51100000000E-03 0. -1.
         11   -1    0    0    0    0 -0.00000000000E+00 -0.00000000000E+00 -0.45593999997E+02  0.45594000000E+02  0.51100000000E-03 0.  1.
    9900012    2    1    2    0    0  0.25626125489E+02 -0.95705976777E+01 -0.16383738176E+02  0.59301928996E+02  0.49999972586E+02 0.  0.
         12    1    1    2    0    0 -0.25626125489E+02  0.95705976777E+01  0.16383738176E+02  0.31886071004E+02  0.00000000000E+00 0. -1.
         11    1    3    3    0    0 -0.28106151414E+01  0.18503555003E+01  0.28714601724E+01  0.44236474468E+01  0.51100000000E-03 0. -1.
        -11    1    3    3    0    0  0.12185869064E+01 -0.56984555836E-01 -0.24830761533E+02  0.24860710365E+02  0.51100000000E-03 0.  1.
        -12    1    3    3    0    0  0.27218153724E+02 -0.11363968622E+02  0.55755631849E+01  0.30017571184E+02  0.00000000000E+00 0.  1.
</event>
<event>
 7    1  0.6061051E-012  0.5930194E+02  0.7816164E-02  0.1266605E+00
        -11   -1    0    0    0    0  0.00000000000E+00  0.00000000000E+00  0.45593999997E+02  0.45594000000E+02  0.51100000000E-03 0.  1.
         11   -1    0    0    0    0 -0.00000000000E+00 -0.00000000000E+00 -0.45593999997E+02  0.45594000000E+02  0.51100000000E-03 0. -1.
    9900012    2    1    2    0    0 -0.24902557093E+01  0.28631949367E+02  0.13810541760E+02  0.59301937814E+02  0.49999988668E+02 0.  0.
         12    1    1    2    0    0  0.24902557093E+01 -0.28631949367E+02 -0.13810541760E+02  0.31886062186E+02  0.00000000000E+00 0. -1.
         11    1    3    3    0    0  0.50357886467E+01 -0.16476896904E+01  0.61944592500E+01  0.81514032087E+01  0.51100000000E-03 0. -1.
        -11    1    3    3    0    0 -0.98688179360E+00  0.16914278383E+02  0.23768601480E+02  0.29189264559E+02  0.51100000000E-03 0.  1.
        -12    1    3    3    0    0 -0.65391625624E+01  0.13365360674E+02 -0.16152518970E+02  0.21961270046E+02  0.00000000000E+00 0.  1.
</event>
<event>
 7    1  0.6061051E-012  0.5930193E+02  0.7816164E-02  0.1266605E+00
        -11   -1    0    0    0    0  0.00000000000E+00  0.00000000000E+00  0.45593999997E+02  0.45594000000E+02  0.51100000000E-03 0.  1.
         11   -1    0    0    0    0 -0.00000000000E+00 -0.00000000000E+00 -0.45593999997E+02  0.45594000000E+02  0.51100000000E-03 0. -1.
    9900012    2    1    2    0    0 -0.75963373986E+01  0.88685029199E+01  0.29670973680E+02  0.59301931490E+02  0.49999977133E+02 0.  0.
         12    1    1    2    0    0  0.75963373986E+01 -0.88685029199E+01 -0.29670973680E+02  0.31886068510E+02  0.00000000000E+00 0. -1.
         11    1    3    3    0    0 -0.12266948777E+01 -0.63577157765E+01  0.23161294537E+02  0.24049342925E+02  0.51100000000E-03 0. -1.
        -11    1    3    3    0    0  0.41823091133E+01 -0.71979158449E+01  0.63485839281E+01  0.10469298935E+02  0.51100000000E-03 0.  1.
         12    1    3    3    0    0 -0.10551951634E+02  0.22424134541E+02  0.16109521478E+00  0.24783289630E+02  0.00000000000E+00 0. -1.
</event>
<event>
 7    1  0.6061051E-012  0.5930189E+02  0.7816164E-02  0.1266605E+00
        -11   -1    0    0    0    0  0.00000000000E+00  0.00000000000E+00  0.45593999997E+02  0.45594000000E+02  0.51100000000E-03 0. -1.
         11   -1    0    0    0    0 -0.00000000000E+00 -0.00000000000E+00 -0.45593999997E+02  0.45594000000E+02  0.51100000000E-03 0.  1.
    9900012    2    1    2    0    0  0.19172766967E+02  0.24592713347E+02 -0.66578937964E+01  0.59301888717E+02  0.49999899127E+02 0.  0.
         12    1    1    2    0    0 -0.19172766967E+02 -0.24592713347E+02  0.66578937964E+01  0.31886111283E+02  0.00000000000E+00 0. -1.
         11    1    3    3    0    0 -0.30047832492E+00  0.28931867140E+01 -0.13707767368E+02  0.14012983375E+02  0.51100000000E-03 0. -1.
        -11    1    3    3    0    0 -0.88259895201E+01  0.42111389903E+01  0.69924444790E+01  0.12021899295E+02  0.51100000000E-03 0.  1.
        -12    1    3    3    0    0  0.28299234812E+02  0.17488387643E+02  0.57429092837E-01  0.33267006047E+02  0.00000000000E+00 0.  1.
</event>
<event>
 7    1  0.6061051E-012  0.5930193E+02  0.7816164E-02  0.1266605E+00
        -11   -1    0    0    0    0  0.00000000000E+00  0.00000000000E+00  0.45593999997E+02  0.45594000000E+02  0.51100000000E-03 0.  1.
         11   -1    0    0    0    0 -0.00000000000E+00 -0.00000000000E+00 -0.45593999997E+02  0.45594000000E+02  0.51100000000E-03 0. -1.
    9900012    2    1    2    0    0 -0.23592234673E+01  0.26167680785E+02  0.18066759676E+02  0.59301933165E+02  0.49999980189E+02 0.  0.
         12    1    1    2    0    0  0.23592234673E+01 -0.26167680785E+02 -0.18066759676E+02  0.31886066835E+02  0.00000000000E+00 0. -1.
         11    1    3    3    0    0  0.54231170287E+01 -0.66707871538E+01  0.89468941741E+01  0.12407921469E+02  0.51100000000E-03 0. -1.
        -11    1    3    3    0    0 -0.34926394388E+01  0.96428425607E+01  0.18784580320E+02  0.21401948532E+02  0.51100000000E-03 0.  1.
         12    1    3    3    0    0 -0.42897010572E+01  0.23195625378E+02 -0.96647148184E+01  0.25492063164E+02  0.00000000000E+00 0. -1.
</event>
<event>
 7    1  0.6061051E-012  0.5930192E+02  0.7816164E-02  0.1266605E+00
        -11   -1    0    0    0    0  0.00000000000E+00  0.00000000000E+00  0.45593999997E+02  0.45594000000E+02  0.51100000000E-03 0. -1.
         11   -1    0    0    0    0 -0.00000000000E+00 -0.00000000000E+00 -0.45593999997E+02  0.45594000000E+02  0.51100000000E-03 0.  1.
    9900012    2    1    2    0    0  0.28065601586E+01  0.29996336279E+02  0.10443419739E+02  0.59301921753E+02  0.49999959377E+02 0.  0.
         12    1    1    2    0    0 -0.28065601586E+01 -0.29996336279E+02 -0.10443419739E+02  0.31886078247E+02  0.00000000000E+00 0. -1.
         11    1    3    3    0    0  0.54108274192E+01 -0.38768122673E+01 -0.82993702085E+01  0.10638903742E+02  0.51100000000E-03 0. -1.
        -11    1    3    3    0    0  0.65397144974E+01  0.20525749782E+02 -0.27975140518E+01  0.21723267594E+02  0.51100000000E-03 0.  1.
         12    1    3    3    0    0 -0.91439817579E+01  0.13347398765E+02  0.21540303999E+02  0.26939750417E+02  0.00000000000E+00 0. -1.
</event>
<event>
 7    1  0.6061051E-012  0.5930195E+02  0.7816164E-02  0.1266605E+00
        -11   -1    0    0    0    0  0.00000000000E+00  0.00000000000E+00  0.45593999997E+02  0.45594000000E+02  0.51100000000E-03 0. -1.
         11   -1    0    0    0    0 -0.00000000000E+00 -0.00000000000E+00 -0.45593999997E+02  0.45594000000E+02  0.51100000000E-03 0.  1.
    9900012    2    1    2    0    0  0.18201525942E+02 -0.23611846407E+02  0.11309535824E+02  0.59301946028E+02  0.50000003648E+02 0.  0.
         12    1    1    2    0    0 -0.18201525942E+02  0.23611846407E+02 -0.11309535824E+02  0.31886053972E+02  0.00000000000E+00 0. -1.
         11    1    3    3    0    0  0.20881264159E+01 -0.58240908763E+01  0.23389585792E+02  0.24194070147E+02  0.51100000000E-03 0. -1.
        -11    1    3    3    0    0  0.11547869672E+02 -0.88792522444E+01  0.49235620681E+01  0.15376471574E+02  0.51100000000E-03 0.  1.
         12    1    3    3    0    0  0.45655298543E+01 -0.89085032860E+01 -0.17003612036E+02  0.19731404307E+02  0.00000000000E+00 0. -1.
</event>
<event>
 7    1  0.6061051E-012  0.5930195E+02  0.7816164E-02  0.1266605E+00
        -11   -1    0    0    0    0  0.00000000000E+00  0.00000000000E+00  0.45593999997E+02  0.45594000000E+02  0.51100000000E-03 0. -1.
         11   -1    0    0    0    0 -0.00000000000E+00 -0.00000000000E+00 -0.45593999997E+02  0.45594000000E+02  0.51100000000E-03 0.  1.
    9900012    2    1    2    0    0  0.11748448495E+02  0.21686636447E+02 -0.20208514157E+02  0.59301948396E+02  0.50000007967E+02 0.  0.
         12    1    1    2    0    0 -0.11748448495E+02 -0.21686636447E+02  0.20208514157E+02  0.31886051604E+02  0.00000000000E+00 0. -1.
         11    1    3    3    0    0 -0.15275264497E+01  0.16083171206E+02  0.25077162495E+01  0.16349017529E+02  0.51100000000E-03 0. -1.
        -11    1    3    3    0    0  0.80590305726E+01 -0.49923091042E+01  0.64634192925E+01  0.11473748872E+02  0.51100000000E-03 0.  1.
        -12    1    3    3    0    0  0.52169443724E+01  0.10595774345E+02 -0.29179649699E+02  0.31479181996E+02  0.00000000000E+00 0.  1.
</event>
<event>
 7    1  0.6061051E-012  0.5930194E+02  0.7816164E-02  0.1266605E+00
        -11   -1    0    0    0    0  0.00000000000E+00  0.00000000000E+00  0.45593999997E+02  0.45594000000E+02  0.51100000000E-03 0. -1.
         11   -1    0    0    0    0 -0.00000000000E+00 -0.00000000000E+00 -0.45593999997E+02  0.45594000000E+02  0.51100000000E-03 0.  1.
    9900012    2    1    2    0    0  0.28266391547E+02  0.11123074833E+02 -0.96958469296E+01  0.59301935136E+02  0.49999983784E+02 0.  0.
         12    1    1    2    0    0 -0.28266391547E+02 -0.11123074833E+02  0.96958469296E+01  0.31886064864E+02  0.00000000000E+00 0. -1.
         11    1    3    3    0    0  0.20791487480E+01 -0.14561653523E+01  0.10119909031E+02  0.10433400026E+02  0.51100000000E-03 0. -1.
        -11    1    3    3    0    0  0.16255862852E+02  0.23884124089E+02 -0.87403966671E+01  0.30184416421E+02  0.51100000000E-03 0.  1.
         12    1    3    3    0    0  0.99313799470E+01 -0.11304883903E+02 -0.11075359293E+02  0.18684118689E+02  0.00000000000E+00 0. -1.
</event>
<event>
 7    1  0.6061051E-012  0.5930194E+02  0.7816164E-02  0.1266605E+00
        -11   -1    0    0    0    0  0.00000000000E+00  0.00000000000E+00  0.45593999997E+02  0.45594000000E+02  0.51100000000E-03 0.  1.
         11   -1    0    0    0    0 -0.00000000000E+00 -0.00000000000E+00 -0.45593999997E+02  0.45594000000E+02  0.51100000000E-03 0. -1.
    9900012    2    1    2    0    0  0.50759400159E+01  0.16103944865E+02  0.27048453575E+02  0.59301936460E+02  0.49999986198E+02 0.  0.
         12    1    1    2    0    0 -0.50759400159E+01 -0.16103944865E+02 -0.27048453575E+02  0.31886063540E+02  0.00000000000E+00 0. -1.
         11    1    3    3    0    0 -0.11981861716E+02  0.76629443934E+00  0.56957720342E+01  0.13288868901E+02  0.51100000000E-03 0. -1.
        -11    1    3    3    0    0  0.30706331229E+01 -0.60013376821E+01  0.19268262696E+02  0.20413495275E+02  0.51100000000E-03 0.  1.
        -12    1    3    3    0    0  0.13987168609E+02  0.21338988108E+02  0.20844188451E+01  0.25599572284E+02  0.00000000000E+00 0.  1.
</event>
<event>
 7    1  0.6061051E-012  0.5930192E+02  0.7816164E-02  0.1266605E+00
        -11   -1    0    0    0    0  0.00000000000E+00  0.00000000000E+00  0.45593999997E+02  0.45594000000E+02  0.51100000000E-03 0. -1.
         11   -1    0    0    0    0 -0.00000000000E+00 -0.00000000000E+00 -0.45593999997E+02  0.45594000000E+02  0.51100000000E-03 0.  1.
    9900012    2    1    2    0    0 -0.75736416465E+01 -0.41388026895E+00 -0.30970803949E+02  0.59301920876E+02  0.49999957776E+02 0.  0.
         12    1    1    2    0    0  0.75736416465E+01  0.41388026895E+00  0.30970803949E+02  0.31886079124E+02  0.00000000000E+00 0. -1.
         11    1    3    3    0    0 -0.40888294989E+01  0.72534153196E+01 -0.35212930567E+00  0.83339399913E+01  0.51100000000E-03 0. -1.
        -11    1    3    3    0    0 -0.16696001487E+02 -0.11656715804E+02 -0.36692431047E+01  0.20690549394E+02  0.51100000000E-03 0.  1.
        -12    1    3    3    0    0  0.13211189339E+02  0.39894202152E+01 -0.26949431539E+02  0.30277431491E+02  0.00000000000E+00 0.  1.
</event>
<event>
 7    1  0.6061051E-012  0.5930192E+02  0.7816164E-02  0.1266605E+00
        -11   -1    0    0    0    0  0.00000000000E+00  0.00000000000E+00  0.45593999997E+02  0.45594000000E+02  0.51100000000E-03 0. -1.
         11   -1    0    0    0    0 -0.00000000000E+00 -0.00000000000E+00 -0.45593999997E+02  0.45594000000E+02  0.51100000000E-03 0.  1.
    9900012    2    1    2    0    0  0.92174314486E+01  0.25095002783E+02  0.17378209753E+02  0.59301915552E+02  0.49999948067E+02 0.  0.
         12    1    1    2    0    0 -0.92174314486E+01 -0.25095002783E+02 -0.17378209753E+02  0.31886084448E+02  0.00000000000E+00 0. -1.
         11    1    3    3    0    0 -0.28157288394E+01  0.23961773898E+02  0.19167659307E+02  0.30813862154E+02  0.51100000000E-03 0. -1.
        -11    1    3    3    0    0  0.12006018649E+02 -0.18159525285E+01  0.10374915889E+02  0.15971256912E+02  0.51100000000E-03 0.  1.
        -12    1    3    3    0    0  0.27141638651E-01  0.29491814132E+01 -0.12164365442E+02  0.12516796487E+02  0.00000000000E+00 0.  1.
</event>
<event>
 7    1  0.6061051E-012  0.5930209E+02  0.7816164E-02  0.1266604E+00
        -11   -1    0    0    0    0  0.00000000000E+00  0.00000000000E+00  0.45593999997E+02  0.45594000000E+02  0.51100000000E-03 0. -1.
         11   -1    0    0    0    0 -0.00000000000E+00 -0.00000000000E+00 -0.45593999997E+02  0.45594000000E+02  0.51100000000E-03 0.  1.
    9900012    2    1    2    0    0 -0.10623115469E+01  0.17110068764E+02 -0.26885472149E+02  0.59302085060E+02  0.50000257208E+02 0.  0.
         12    1    1    2    0    0  0.10623115469E+01 -0.17110068764E+02  0.26885472149E+02  0.31885914940E+02  0.00000000000E+00 0. -1.
         11    1    3    3    0    0  0.15412110097E+02  0.25532832917E+01 -0.67402418471E+01  0.17014207406E+02  0.51100000000E-03 0. -1.
        -11    1    3    3    0    0  0.49836201903E+00 -0.85184193666E+01 -0.43971968600E+01  0.95993319399E+01  0.51100000000E-03 0.  1.
         12    1    3    3    0    0 -0.16972783663E+02  0.23075204839E+02 -0.15748033442E+02  0.32688545714E+02  0.00000000000E+00 0. -1.
</event>
<event>
 7    1  0.6061051E-012  0.5930199E+02  0.7816164E-02  0.1266605E+00
        -11   -1    0    0    0    0  0.00000000000E+00  0.00000000000E+00  0.45593999997E+02  0.45594000000E+02  0.51100000000E-03 0.  1.
         11   -1    0    0    0    0 -0.00000000000E+00 -0.00000000000E+00 -0.45593999997E+02  0.45594000000E+02  0.51100000000E-03 0. -1.
    9900012    2    1    2    0    0 -0.10127738238E+02  0.39403628015E+01  0.29976995606E+02  0.59301987293E+02  0.50000078905E+02 0.  0.
         12    1    1    2    0    0  0.10127738238E+02 -0.39403628015E+01 -0.29976995606E+02  0.31886012707E+02  0.00000000000E+00 0. -1.
         11    1    3    3    0    0 -0.15564685494E+01  0.17206682028E+02  0.20539423134E+02  0.26839530616E+02  0.51100000000E-03 0. -1.
        -11    1    3    3    0    0  0.17618934281E+01  0.74487854292E+01  0.57937060584E+00  0.76762193417E+01  0.51100000000E-03 0.  1.
         12    1    3    3    0    0 -0.10333163117E+02 -0.20715104656E+02  0.88582018656E+01  0.24786237334E+02  0.00000000000E+00 0. -1.
</event>
<event>
 7    1  0.6061051E-012  0.5930194E+02  0.7816164E-02  0.1266605E+00
        -11   -1    0    0    0    0  0.00000000000E+00  0.00000000000E+00  0.45593999997E+02  0.45594000000E+02  0.51100000000E-03 0.  1.
         11   -1    0    0    0    0 -0.00000000000E+00 -0.00000000000E+00 -0.45593999997E+02  0.45594000000E+02  0.51100000000E-03 0. -1.
    9900012    2    1    2    0    0  0.26541245200E+02 -0.11206487902E+01  0.17635956381E+02  0.59301944930E+02  0.50000001645E+02 0.  0.
         12    1    1    2    0    0 -0.26541245200E+02  0.11206487902E+01 -0.17635956381E+02  0.31886055070E+02  0.00000000000E+00 0. -1.
         11    1    3    3    0    0  0.17279502877E+01 -0.52604118348E+01  0.16616796571E+02  0.17515012801E+02  0.51100000000E-03 0. -1.
        -11    1    3    3    0    0  0.29860810269E+02  0.79496229138E+01  0.84441249901E+01  0.32033853054E+02  0.51100000000E-03 0.  1.
         12    1    3    3    0    0 -0.50475153566E+01 -0.38098598692E+01 -0.74249651806E+01  0.97530790744E+01  0.00000000000E+00 0. -1.
</event>
<event>
 7    1  0.6061051E-012  0.5930196E+02  0.7816164E-02  0.1266605E+00
        -11   -1    0    0    0    0  0.00000000000E+00  0.00000000000E+00  0.45593999997E+02  0.45594000000E+02  0.51100000000E-03 0.  1.
         11   -1    0    0    0    0 -0.00000000000E+00 -0.00000000000E+00 -0.45593999997E+02  0.45594000000E+02  0.51100000000E-03 0. -1.
    9900012    2    1    2    0    0 -0.23530821800E+02 -0.20986472079E+02  0.47527062137E+01  0.59301956011E+02  0.50000021855E+02 0.  0.
         12    1    1    2    0    0  0.23530821800E+02  0.20986472079E+02 -0.47527062137E+01  0.31886043989E+02  0.00000000000E+00 0. -1.
         11    1    3    3    0    0  0.16241089506E+01 -0.13773868626E+02  0.22043297500E+02  0.26043504982E+02  0.51100000000E-03 0. -1.
        -11    1    3    3    0    0  0.97210529126E-01  0.10035681533E+01  0.66027102030E+00  0.12052207294E+01  0.51100000000E-03 0.  1.
        -12    1    3    3    0    0 -0.25252141280E+02 -0.82161716061E+01 -0.17950862307E+02  0.32053230299E+02  0.00000000000E+00 0.  1.
</event>
<event>
 7    1  0.6061051E-012  0.5930194E+02  0.7816164E-02  0.1266605E+00
        -11   -1    0    0    0    0  0.00000000000E+00  0.00000000000E+00  0.45593999997E+02  0.45594000000E+02  0.51100000000E-03 0.  1.
         11   -1    0    0    0    0 -0.00000000000E+00 -0.00000000000E+00 -0.45593999997E+02  0.45594000000E+02  0.51100000000E-03 0. -1.
    9900012    2    1    2    0    0  0.14773555881E+02 -0.24869114210E+02  0.13416044719E+02  0.59301936416E+02  0.49999986118E+02 0.  0.
         12    1    1    2    0    0 -0.14773555881E+02  0.24869114210E+02 -0.13416044719E+02  0.31886063584E+02  0.00000000000E+00 0. -1.
         11    1    3    3    0    0  0.11671250555E+02 -0.36282600287E+00 -0.68764481553E+01  0.13551209234E+02  0.51100000000E-03 0. -1.
        -11    1    3    3    0    0 -0.30855346458E+01  0.62940472271E+01  0.10902843365E+02  0.12961772573E+02  0.51100000000E-03 0.  1.
        -12    1    3    3    0    0  0.61878399724E+01 -0.30800335434E+02  0.93896495099E+01  0.32788954609E+02  0.00000000000E+00 0.  1.
</event>
<event>
 7    1  0.6061051E-012  0.5930194E+02  0.7816164E-02  0.1266605E+00
        -11   -1    0    0    0    0  0.00000000000E+00  0.00000000000E+00  0.45593999997E+02  0.45594000000E+02  0.51100000000E-03 0.  1.
         11   -1    0    0    0    0 -0.00000000000E+00 -0.00000000000E+00 -0.45593999997E+02  0.45594000000E+02  0.51100000000E-03 0. -1.
    9900012    2    1    2    0    0  0.17508537740E+02  0.26615368688E+02  0.13394823662E+01  0.59301937885E+02  0.49999988797E+02 0.  0.
         12    1    1    2    0    0 -0.17508537740E+02 -0.26615368688E+02 -0.13394823662E+01  0.31886062115E+02  0.00000000000E+00 0. -1.
         11    1    3    3    0    0 -0.53918177506E+01 -0.41910707233E+00 -0.15738027084E+01  0.56324243999E+01  0.51100000000E-03 0. -1.
        -11    1    3    3    0    0 -0.35697565062E+01  0.19785057427E+02  0.13540263715E+02  0.24239026396E+02  0.51100000000E-03 0.  1.
         12    1    3    3    0    0  0.26470111996E+02  0.72494183335E+01 -0.10626978640E+02  0.29430487089E+02  0.00000000000E+00 0. -1.
</event>
<event>
 7    1  0.6061051E-012  0.5930195E+02  0.7816164E-02  0.1266605E+00
        -11   -1    0    0    0    0  0.00000000000E+00  0.00000000000E+00  0.45593999997E+02  0.45594000000E+02  0.51100000000E-03 0. -1.
         11   -1    0    0    0    0 -0.00000000000E+00 -0.00000000000E+00 -0.45593999997E+02  0.45594000000E+02  0.51100000000E-03 0.  1.
    9900012    2    1    2    0    0 -0.25045935107E+02 -0.10626880362E+02 -0.16628002036E+02  0.59301954411E+02  0.50000018936E+02 0.  0.
         12    1    1    2    0    0  0.25045935107E+02  0.10626880362E+02  0.16628002036E+02  0.31886045589E+02  0.00000000000E+00 0. -1.
         11    1    3    3    0    0 -0.48560879141E+01  0.71669302365E+01  0.13379957934E+01  0.87599493063E+01  0.51100000000E-03 0. -1.
        -11    1    3    3    0    0 -0.21338743672E+02  0.65544948728E+01 -0.12413922508E+02  0.25542295450E+02  0.51100000000E-03 0.  1.
         12    1    3    3    0    0  0.11488964792E+01 -0.24348305471E+02 -0.55520753211E+01  0.24999709654E+02  0.00000000000E+00 0. -1.
</event>
<event>
 7    1  0.6061051E-012  0.5930195E+02  0.7816164E-02  0.1266605E+00
        -11   -1    0    0    0    0  0.00000000000E+00  0.00000000000E+00  0.45593999997E+02  0.45594000000E+02  0.51100000000E-03 0. -1.
         11   -1    0    0    0    0 -0.00000000000E+00 -0.00000000000E+00 -0.45593999997E+02  0.45594000000E+02  0.51100000000E-03 0.  1.
    9900012    2    1    2    0    0  0.43116039972E+01  0.19787912414E+02 -0.24628622358E+02  0.59301945901E+02  0.50000003417E+02 0.  0.
         12    1    1    2    0    0 -0.43116039972E+01 -0.19787912414E+02  0.24628622358E+02  0.31886054099E+02  0.00000000000E+00 0. -1.
         11    1    3    3    0    0  0.21612695078E+01  0.59990635410E+00 -0.30883908710E+01  0.38169532290E+01  0.51100000000E-03 0. -1.
        -11    1    3    3    0    0 -0.14070690785E+02  0.42872719911E+01 -0.28762022250E+02  0.32305091927E+02  0.51100000000E-03 0.  1.
         12    1    3    3    0    0  0.16221025274E+02  0.14900734068E+02  0.72217907624E+01  0.23179900745E+02  0.00000000000E+00 0. -1.
</event>
<event>
 7    1  0.6061051E-012  0.5930198E+02  0.7816164E-02  0.1266605E+00
        -11   -1    0    0    0    0  0.00000000000E+00  0.00000000000E+00  0.45593999997E+02  0.45594000000E+02  0.51100000000E-03 0. -1.
         11   -1    0    0    0    0 -0.00000000000E+00 -0.00000000000E+00 -0.45593999997E+02  0.45594000000E+02  0.51100000000E-03 0.  1.
    9900012    2    1    2    0    0 -0.15277692941E+02  0.21650678170E+02 -0.17735804883E+02  0.59301975762E+02  0.50000057876E+02 0.  0.
         12    1    1    2    0    0  0.15277692941E+02 -0.21650678170E+02  0.17735804883E+02  0.31886024238E+02  0.00000000000E+00 0. -1.
         11    1    3    3    0    0 -0.32703976622E+01  0.49955721121E+01  0.12614555700E+02  0.13956298126E+02  0.51100000000E-03 0. -1.
        -11    1    3    3    0    0 -0.17150308184E+02  0.16873335931E+02 -0.13206087374E+02  0.27445277922E+02  0.51100000000E-03 0.  1.
        -12    1    3    3    0    0  0.51430129057E+01 -0.21822987284E+00 -0.17144273210E+02  0.17900399714E+02  0.00000000000E+00 0.  1.
</event>
<event>
 7    1  0.6061051E-012  0.5930194E+02  0.7816164E-02  0.1266605E+00
        -11   -1    0    0    0    0  0.00000000000E+00  0.00000000000E+00  0.45593999997E+02  0.45594000000E+02  0.51100000000E-03 0. -1.
         11   -1    0    0    0    0 -0.00000000000E+00 -0.00000000000E+00 -0.45593999997E+02  0.45594000000E+02  0.51100000000E-03 0.  1.
    9900012    2    1    2    0    0  0.29833338760E+02 -0.75997345138E+01  0.83028155047E+01  0.59301940169E+02  0.49999992962E+02 0.  0.
         12    1    1    2    0    0 -0.29833338760E+02  0.75997345138E+01 -0.83028155047E+01  0.31886059831E+02  0.00000000000E+00 0. -1.
         11    1    3    3    0    0  0.15891455109E+02 -0.85075091726E+00  0.80941073996E+01  0.17854318734E+02  0.51100000000E-03 0. -1.
        -11    1    3    3    0    0  0.25266931064E+02 -0.76906347181E+01 -0.78068322721E+01  0.27541065669E+02  0.51100000000E-03 0.  1.
         12    1    3    3    0    0 -0.11325047413E+02  0.94165112157E+00  0.80155403771E+01  0.13906555766E+02  0.00000000000E+00 0. -1.
</event>
<event>
 7    1  0.6061051E-012  0.5930195E+02  0.7816164E-02  0.1266605E+00
        -11   -1    0    0    0    0  0.00000000000E+00  0.00000000000E+00  0.45593999997E+02  0.45594000000E+02  0.51100000000E-03 0.  1.
         11   -1    0    0    0    0 -0.00000000000E+00 -0.00000000000E+00 -0.45593999997E+02  0.45594000000E+02  0.51100000000E-03 0. -1.
    9900012    2    1    2    0    0  0.44359208688E+01  0.97075240449E+01  0.30046744596E+02  0.59301948537E+02  0.50000008224E+02 0.  0.
         12    1    1    2    0    0 -0.44359208688E+01 -0.97075240449E+01 -0.30046744596E+02  0.31886051463E+02  0.00000000000E+00 0. -1.
         11    1    3    3    0    0 -0.24668395374E+01  0.71653584014E+01 -0.77322165412E+01  0.10826579849E+02  0.51100000000E-03 0. -1.
        -11    1    3    3    0    0 -0.83634081904E+01  0.10217020617E+02  0.18269245566E+02  0.22541061214E+02  0.51100000000E-03 0.  1.
         12    1    3    3    0    0  0.15266168597E+02 -0.76748549736E+01  0.19509715571E+02  0.25934307474E+02  0.00000000000E+00 0. -1.
</event>
<event>
 7    1  0.6061051E-012  0.5930194E+02  0.7816164E-02  0.1266605E+00
        -11   -1    0    0    0    0  0.00000000000E+00  0.00000000000E+00  0.45593999997E+02  0.45594000000E+02  0.51100000000E-03 0.  1.
         11   -1    0    0    0    0 -0.00000000000E+00 -0.00000000000E+00 -0.45593999997E+02  0.45594000000E+02  0.51100000000E-03 0. -1.
    9900012    2    1    2    0    0  0.12328391063E+02  0.29298512141E+02  0.25157476672E+01  0.59301936803E+02  0.49999986824E+02 0.  0.
         12    1    1    2    0    0 -0.12328391063E+02 -0.29298512141E+02 -0.25157476672E+01  0.31886063197E+02  0.00000000000E+00 0. -1.
         11    1    3    3    0    0  0.15000857840E+01  0.70256473360E-01 -0.10629067286E+02  0.10734629242E+02  0.51100000000E-03 0. -1.
        -11    1    3    3    0    0 -0.12105486317E+00 -0.71478390395E+01  0.71465697637E+01  0.10108398333E+02  0.51100000000E-03 0.  1.
         12    1    3    3    0    0  0.10949360142E+02  0.36376094707E+02  0.59982451897E+01  0.38458909228E+02  0.00000000000E+00 0. -1.
</event>
<event>
 7    1  0.6061051E-012  0.5930201E+02  0.7816164E-02  0.1266605E+00
        -11   -1    0    0    0    0  0.00000000000E+00  0.00000000000E+00  0.45593999997E+02  0.45594000000E+02  0.51100000000E-03 0. -1.
         11   -1    0    0    0    0 -0.00000000000E+00 -0.00000000000E+00 -0.45593999997E+02  0.45594000000E+02  0.51100000000E-03 0.  1.
    9900012    2    1    2    0    0  0.62365278144E-02  0.17919921561E+02 -0.26374092141E+02  0.59302009912E+02  0.50000120156E+02 0.  0.
         12    1    1    2    0    0 -0.62365278144E-02 -0.17919921561E+02  0.26374092141E+02  0.31885990088E+02  0.00000000000E+00 0. -1.
         11    1    3    3    0    0 -0.31442221708E+01  0.91177811641E+01  0.58968793298E+01  0.11304567772E+02  0.51100000000E-03 0. -1.
        -11    1    3    3    0    0  0.88484727386E+01  0.46669874260E+01  0.42025097461E+01  0.10850683383E+02  0.51100000000E-03 0.  1.
         12    1    3    3    0    0 -0.56980140400E+01  0.41351529706E+01 -0.36473481217E+02  0.37146758757E+02  0.00000000000E+00 0. -1.
</event>
<event>
 7    1  0.6061051E-012  0.5930200E+02  0.7816164E-02  0.1266605E+00
        -11   -1    0    0    0    0  0.00000000000E+00  0.00000000000E+00  0.45593999997E+02  0.45594000000E+02  0.51100000000E-03 0.  1.
         11   -1    0    0    0    0 -0.00000000000E+00 -0.00000000000E+00 -0.45593999997E+02  0.45594000000E+02  0.51100000000E-03 0. -1.
    9900012    2    1    2    0    0 -0.25355964833E+02  0.68695756739E+01  0.18072107474E+02  0.59301998509E+02  0.50000099361E+02 0.  0.
         12    1    1    2    0    0  0.25355964833E+02 -0.68695756739E+01 -0.18072107474E+02  0.31886001491E+02  0.00000000000E+00 0. -1.
         11    1    3    3    0    0 -0.22283695530E+01  0.17966914808E+02  0.50487859820E+01  0.18795369077E+02  0.51100000000E-03 0. -1.
        -11    1    3    3    0    0  0.14149058967E+01  0.51939132205E+01  0.93931790213E+01  0.10826380080E+02  0.51100000000E-03 0.  1.
         12    1    3    3    0    0 -0.24542501176E+02 -0.16291252355E+02  0.36301424707E+01  0.29680249353E+02  0.00000000000E+00 0. -1.
</event>
<event>
 7    1  0.6061051E-012  0.5930190E+02  0.7816164E-02  0.1266605E+00
        -11   -1    0    0    0    0  0.00000000000E+00  0.00000000000E+00  0.45593999997E+02  0.45594000000E+02  0.51100000000E-03 0.  1.
         11   -1    0    0    0    0 -0.00000000000E+00 -0.00000000000E+00 -0.45593999997E+02  0.45594000000E+02  0.51100000000E-03 0. -1.
    9900012    2    1    2    0    0  0.13035491379E+02  0.28795944808E+02  0.41943541077E+01  0.59301904610E+02  0.49999928111E+02 0.  0.
         12    1    1    2    0    0 -0.13035491379E+02 -0.28795944808E+02 -0.41943541077E+01  0.31886095390E+02  0.00000000000E+00 0. -1.
         11    1    3    3    0    0 -0.56088266060E+01  0.57404657588E+01  0.93296856834E+01  0.12306702167E+02  0.51100000000E-03 0. -1.
        -11    1    3    3    0    0  0.23450659817E+02  0.27229756736E+02  0.36774713985E+01  0.36123633454E+02  0.51100000000E-03 0.  1.
         12    1    3    3    0    0 -0.48063418320E+01 -0.41742776867E+01 -0.88128029742E+01  0.10871568989E+02  0.00000000000E+00 0. -1.
</event>
<event>
 7    1  0.6061051E-012  0.5930195E+02  0.7816164E-02  0.1266605E+00
        -11   -1    0    0    0    0  0.00000000000E+00  0.00000000000E+00  0.45593999997E+02  0.45594000000E+02  0.51100000000E-03 0. -1.
         11   -1    0    0    0    0 -0.00000000000E+00 -0.00000000000E+00 -0.45593999997E+02  0.45594000000E+02  0.51100000000E-03 0.  1.
    9900012    2    1    2    0    0 -0.29905710145E+02  0.11061791837E+02  0.73202671292E-01  0.59301951381E+02  0.50000013410E+02 0.  0.
         12    1    1    2    0    0  0.29905710145E+02 -0.11061791837E+02 -0.73202671292E-01  0.31886048619E+02  0.00000000000E+00 0. -1.
         11    1    3    3    0    0 -0.25543709123E+02  0.20228981226E+02 -0.31790265569E+01  0.32738340937E+02  0.51100000000E-03 0. -1.
        -11    1    3    3    0    0 -0.22917283935E+01  0.21282887337E+01 -0.91449494812E+01  0.96649745596E+01  0.51100000000E-03 0.  1.
         12    1    3    3    0    0 -0.20702726288E+01 -0.11295478123E+02  0.12397178709E+02  0.16898635884E+02  0.00000000000E+00 0. -1.
</event>
<event>
 7    1  0.6061051E-012  0.5930196E+02  0.7816164E-02  0.1266605E+00
        -11   -1    0    0    0    0  0.00000000000E+00  0.00000000000E+00  0.45593999997E+02  0.45594000000E+02  0.51100000000E-03 0.  1.
         11   -1    0    0    0    0 -0.00000000000E+00 -0.00000000000E+00 -0.45593999997E+02  0.45594000000E+02  0.51100000000E-03 0. -1.
    9900012    2    1    2    0    0  0.84728865753E+01 -0.28221396013E+02  0.12185354325E+02  0.59301955092E+02  0.50000020178E+02 0.  0.
         12    1    1    2    0    0 -0.84728865753E+01  0.28221396013E+02 -0.12185354325E+02  0.31886044908E+02  0.00000000000E+00 0. -1.
         11    1    3    3    0    0  0.13569415200E+02  0.26553634257E+01 -0.95352406112E+01  0.16795856560E+02  0.51100000000E-03 0. -1.
        -11    1    3    3    0    0  0.60677814536E+01 -0.10307013059E+02  0.24952259914E+01  0.12217963946E+02  0.51100000000E-03 0.  1.
        -12    1    3    3    0    0 -0.11164310078E+02 -0.20569746380E+02  0.19225368945E+02  0.30288134586E+02  0.00000000000E+00 0.  1.
</event>
<event>
 7    1  0.6061051E-012  0.5930194E+02  0.7816164E-02  0.1266605E+00
        -11   -1    0    0    0    0  0.00000000000E+00  0.00000000000E+00  0.45593999997E+02  0.45594000000E+02  0.51100000000E-03 0.  1.
         11   -1    0    0    0    0 -0.00000000000E+00 -0.00000000000E+00 -0.45593999997E+02  0.45594000000E+02  0.51100000000E-03 0. -1.
    9900012    2    1    2    0    0 -0.11856771832E+02  0.12619810114E+02  0.26774577096E+02  0.59301943106E+02  0.49999998319E+02 0.  0.
         12    1    1    2    0    0  0.11856771832E+02 -0.12619810114E+02 -0.26774577096E+02  0.31886056894E+02  0.00000000000E+00 0. -1.
         11    1    3    3    0    0 -0.68531352956E+01  0.20742970214E+02  0.17580152453E+02  0.28041006352E+02  0.51100000000E-03 0. -1.
        -11    1    3    3    0    0  0.33521859367E+00 -0.30788727451E+01  0.18864862073E+02  0.19117396532E+02  0.51100000000E-03 0.  1.
        -12    1    3    3    0    0 -0.53388551296E+01 -0.50442873556E+01 -0.96704374302E+01  0.12143540222E+02  0.00000000000E+00 0.  1.
</event>
<event>
 7    1  0.6061051E-012  0.5930201E+02  0.7816164E-02  0.1266605E+00
        -11   -1    0    0    0    0  0.00000000000E+00  0.00000000000E+00  0.45593999997E+02  0.45594000000E+02  0.51100000000E-03 0.  1.
         11   -1    0    0    0    0 -0.00000000000E+00 -0.00000000000E+00 -0.45593999997E+02  0.45594000000E+02  0.51100000000E-03 0. -1.
    9900012    2    1    2    0    0  0.22456323276E+02  0.75825427305E+01  0.21329204688E+02  0.59302009629E+02  0.50000119641E+02 0.  0.
         12    1    1    2    0    0 -0.22456323276E+02 -0.75825427305E+01 -0.21329204688E+02  0.31885990371E+02  0.00000000000E+00 0. -1.
         11    1    3    3    0    0  0.99785890553E+01 -0.32598958214E+01  0.11146823408E+02  0.15311787376E+02  0.51100000000E-03 0. -1.
        -11    1    3    3    0    0 -0.32587361404E+01  0.99818284702E+01  0.21942907976E+02  0.24325860140E+02  0.51100000000E-03 0.  1.
         12    1    3    3    0    0  0.15736470361E+02  0.86061008169E+00 -0.11760526697E+02  0.19664362113E+02  0.00000000000E+00 0. -1.
</event>
<event>
 7    1  0.6061051E-012  0.5930196E+02  0.7816164E-02  0.1266605E+00
        -11   -1    0    0    0    0  0.00000000000E+00  0.00000000000E+00  0.45593999997E+02  0.45594000000E+02  0.51100000000E-03 0.  1.
         11   -1    0    0    0    0 -0.00000000000E+00 -0.00000000000E+00 -0.45593999997E+02  0.45594000000E+02  0.51100000000E-03 0. -1.
    9900012    2    1    2    0    0 -0.14447835108E+02  0.65653790381E+01  0.27656375934E+02  0.59301964325E+02  0.50000037018E+02 0.  0.
         12    1    1    2    0    0  0.14447835108E+02 -0.65653790381E+01 -0.27656375934E+02  0.31886035675E+02  0.00000000000E+00 0. -1.
         11    1    3    3    0    0 -0.44157117950E+01  0.38425425626E+01 -0.67947725786E+01  0.89684211909E+01  0.51100000000E-03 0. -1.
        -11    1    3    3    0    0 -0.94360278632E+01 -0.15606358580E+02  0.19209096184E+02  0.26487476784E+02  0.51100000000E-03 0.  1.
        -12    1    3    3    0    0 -0.59609544988E+00  0.18329195055E+02  0.15242052329E+02  0.23846066350E+02  0.00000000000E+00 0.  1.
</event>
<event>
 7    1  0.6061051E-012  0.5930195E+02  0.7816164E-02  0.1266605E+00
        -11   -1    0    0    0    0  0.00000000000E+00  0.00000000000E+00  0.45593999997E+02  0.45594000000E+02  0.51100000000E-03 0.  1.
         11   -1    0    0    0    0 -0.00000000000E+00 -0.00000000000E+00 -0.45593999997E+02  0.45594000000E+02  0.51100000000E-03 0. -1.
    9900012    2    1    2    0    0  0.27542751491E+01 -0.25974780661E+00  0.31765810697E+02  0.59301949292E+02  0.50000009601E+02 0.  0.
         12    1    1    2    0    0 -0.27542751491E+01  0.25974780661E+00 -0.31765810697E+02  0.31886050708E+02  0.00000000000E+00 0. -1.
         11    1    3    3    0    0  0.14310874356E+02 -0.10050495853E+02  0.12869443831E+02  0.21712581065E+02  0.51100000000E-03 0. -1.
        -11    1    3    3    0    0 -0.21281077080E+01 -0.31809862610E+01  0.21062552144E+02  0.21407443077E+02  0.51100000000E-03 0.  1.
         12    1    3    3    0    0 -0.94284914988E+01  0.12971734308E+02 -0.21661852788E+01  0.16181925150E+02  0.00000000000E+00 0. -1.
</event>
<event>
 7    1  0.6061051E-012  0.5930194E+02  0.7816164E-02  0.1266605E+00
        -11   -1    0    0    0    0  0.00000000000E+00  0.00000000000E+00  0.45593999997E+02  0.45594000000E+02  0.51100000000E-03 0.  1.
         11   -1    0    0    0    0 -0.00000000000E+00 -0.00000000000E+00 -0.45593999997E+02  0.45594000000E+02  0.51100000000E-03 0. -1.
    9900012    2    1    2    0    0 -0.23560763268E+02  0.20801879082E+02  0.53752306552E+01  0.59301939665E+02  0.49999992043E+02 0.  0.
         12    1    1    2    0    0  0.23560763268E+02 -0.20801879082E+02 -0.53752306552E+01  0.31886060335E+02  0.00000000000E+00 0. -1.
         11    1    3    3    0    0 -0.62582640661E+01  0.11945878525E+02  0.18860495376E+02  0.23185947661E+02  0.51100000000E-03 0. -1.
        -11    1    3    3    0    0 -0.13498712591E+02 -0.11106992053E+00  0.56581305776E+01  0.14637008575E+02  0.51100000000E-03 0.  1.
         12    1    3    3    0    0 -0.38037866111E+01  0.89670704775E+01 -0.19143395299E+02  0.21478983428E+02  0.00000000000E+00 0. -1.
</event>
<event>
 7    1  0.6061051E-012  0.5930191E+02  0.7816164E-02  0.1266605E+00
        -11   -1    0    0    0    0  0.00000000000E+00  0.00000000000E+00  0.45593999997E+02  0.45594000000E+02  0.51100000000E-03 0. -1.
         11   -1    0    0    0    0 -0.00000000000E+00 -0.00000000000E+00 -0.45593999997E+02  0.45594000000E+02  0.51100000000E-03 0.  1.
    9900012    2    1    2    0    0  0.16579759296E+02  0.24560977488E+02  0.11772540240E+02  0.59301909974E+02  0.49999937893E+02 0.  0.
         12    1    1    2    0    0 -0.16579759296E+02 -0.24560977488E+02 -0.11772540240E+02  0.31886090026E+02  0.00000000000E+00 0. -1.
         11    1    3    3    0    0  0.36586648465E-01  0.13658312127E+02  0.89395458713E+01  0.16323795802E+02  0.51100000000E-03 0. -1.
        -11    1    3    3    0    0 -0.96807282966E+01  0.12688093008E+02  0.46720126088E+01  0.16629248528E+02  0.51100000000E-03 0.  1.
        -12    1    3    3    0    0  0.26223900944E+02 -0.17854276468E+01 -0.18390182405E+01  0.26348865643E+02  0.00000000000E+00 0.  1.
</event>
<event>
 7    1  0.6061051E-012  0.5930194E+02  0.7816164E-02  0.1266605E+00
        -11   -1    0    0    0    0  0.00000000000E+00  0.00000000000E+00  0.45593999997E+02  0.45594000000E+02  0.51100000000E-03 0.  1.
         11   -1    0    0    0    0 -0.00000000000E+00 -0.00000000000E+00 -0.45593999997E+02  0.45594000000E+02  0.51100000000E-03 0. -1.
    9900012    2    1    2    0    0 -0.12892550045E+01 -0.38408388946E+01  0.31627629023E+02  0.59301935027E+02  0.49999983584E+02 0.  0.
         12    1    1    2    0    0  0.12892550045E+01  0.38408388946E+01 -0.31627629023E+02  0.31886064973E+02  0.00000000000E+00 0. -1.
         11    1    3    3    0    0 -0.75114813596E+01 -0.16034494117E+01  0.22968066646E+02  0.24218288295E+02  0.51100000000E-03 0. -1.
        -11    1    3    3    0    0  0.97039956911E+01 -0.78686536515E+01  0.19039207110E+02  0.22772234196E+02  0.51100000000E-03 0.  1.
         12    1    3    3    0    0 -0.34817693360E+01  0.56312641686E+01 -0.10379644733E+02  0.12311412535E+02  0.00000000000E+00 0. -1.
</event>
<event>
 7    1  0.6061051E-012  0.5930194E+02  0.7816164E-02  0.1266605E+00
        -11   -1    0    0    0    0  0.00000000000E+00  0.00000000000E+00  0.45593999997E+02  0.45594000000E+02  0.51100000000E-03 0.  1.
         11   -1    0    0    0    0 -0.00000000000E+00 -0.00000000000E+00 -0.45593999997E+02  0.45594000000E+02  0.51100000000E-03 0. -1.
    9900012    2    1    2    0    0  0.21950989764E+02  0.20786468119E+02 -0.10138910070E+02  0.59301941826E+02  0.49999995984E+02 0.  0.
         12    1    1    2    0    0 -0.21950989764E+02 -0.20786468119E+02  0.10138910070E+02  0.31886058174E+02  0.00000000000E+00 0. -1.
         11    1    3    3    0    0  0.14375159498E+02  0.36208990790E+01 -0.92183676677E+01  0.17456644106E+02  0.51100000000E-03 0. -1.
        -11    1    3    3    0    0  0.20339720021E+02 -0.12711175265E+00 -0.24586398399E+00  0.20341603115E+02  0.51100000000E-03 0.  1.
         12    1    3    3    0    0 -0.12763889755E+02  0.17292680793E+02 -0.67467841788E+00  0.21503694604E+02  0.00000000000E+00 0. -1.
</event>
<event>
 7    1  0.6061051E-012  0.5930198E+02  0.7816164E-02  0.1266605E+00
        -11   -1    0    0    0    0  0.00000000000E+00  0.00000000000E+00  0.45593999997E+02  0.45594000000E+02  0.51100000000E-03 0. -1.
         11   -1    0    0    0    0 -0.00000000000E+00 -0.00000000000E+00 -0.45593999997E+02  0.45594000000E+02  0.51100000000E-03 0.  1.
    9900012    2    1    2    0    0  0.17146621471E+02 -0.26758357218E+02  0.25888587550E+01  0.59301976439E+02  0.50000059111E+02 0.  0.
         12    1    1    2    0    0 -0.17146621471E+02  0.26758357218E+02 -0.25888587550E+01  0.31886023561E+02  0.00000000000E+00 0. -1.
         11    1    3    3    0    0  0.20194802714E+02 -0.14125501901E+02  0.19105352030E+02  0.31182917391E+02  0.51100000000E-03 0.  1.
        -11    1    3    3    0    0 -0.53980233931E+01  0.29376030416E+01 -0.83870625318E+01  0.10397643308E+02  0.51100000000E-03 0. -1.
        -12    1    3    3    0    0  0.23498421506E+01 -0.15570458359E+02 -0.81294307428E+01  0.17721415740E+02  0.00000000000E+00 0.  1.
</event>
<event>
 7    1  0.6061051E-012  0.5930193E+02  0.7816164E-02  0.1266605E+00
        -11   -1    0    0    0    0  0.00000000000E+00  0.00000000000E+00  0.45593999997E+02  0.45594000000E+02  0.51100000000E-03 0. -1.
         11   -1    0    0    0    0 -0.00000000000E+00 -0.00000000000E+00 -0.45593999997E+02  0.45594000000E+02  0.51100000000E-03 0.  1.
    9900012    2    1    2    0    0  0.26375206725E+02  0.50280744181E+01  0.17198499063E+02  0.59301930438E+02  0.49999975215E+02 0.  0.
         12    1    1    2    0    0 -0.26375206725E+02 -0.50280744181E+01 -0.17198499063E+02  0.31886069562E+02  0.00000000000E+00 0. -1.
         11    1    3    3    0    0  0.11123114417E+02  0.62231492543E+01  0.12296900508E+02  0.17710590711E+02  0.51100000000E-03 0. -1.
        -11    1    3    3    0    0  0.26480630478E+02  0.63843339099E+01  0.63414854378E+01  0.27967801984E+02  0.51100000000E-03 0.  1.
         12    1    3    3    0    0 -0.11228538170E+02 -0.75794087462E+01 -0.14398868828E+01  0.13623537742E+02  0.00000000000E+00 0. -1.
</event>
<event>
 7    1  0.6061051E-012  0.5930194E+02  0.7816164E-02  0.1266605E+00
        -11   -1    0    0    0    0  0.00000000000E+00  0.00000000000E+00  0.45593999997E+02  0.45594000000E+02  0.51100000000E-03 0.  1.
         11   -1    0    0    0    0 -0.00000000000E+00 -0.00000000000E+00 -0.45593999997E+02  0.45594000000E+02  0.51100000000E-03 0. -1.
    9900012    2    1    2    0    0 -0.58181884126E+01  0.88695792740E+01  0.30069923275E+02  0.59301936607E+02  0.49999986467E+02 0.  0.
         12    1    1    2    0    0  0.58181884126E+01 -0.88695792740E+01 -0.30069923275E+02  0.31886063393E+02  0.00000000000E+00 0. -1.
         11    1    3    3    0    0  0.10052766424E+02  0.84033883587E+01 -0.48536717644E+00  0.13111469416E+02  0.51100000000E-03 0. -1.
        -11    1    3    3    0    0  0.29547513361E+01 -0.66956948157E+01  0.23871919728E+02  0.24968609018E+02  0.51100000000E-03 0.  1.
         12    1    3    3    0    0 -0.18825706173E+02  0.71618857310E+01  0.66833707239E+01  0.21221858174E+02  0.00000000000E+00 0. -1.
</event>
<event>
 7    1  0.6061051E-012  0.5930188E+02  0.7816164E-02  0.1266605E+00
        -11   -1    0    0    0    0  0.00000000000E+00  0.00000000000E+00  0.45593999997E+02  0.45594000000E+02  0.51100000000E-03 0.  1.
         11   -1    0    0    0    0 -0.00000000000E+00 -0.00000000000E+00 -0.45593999997E+02  0.45594000000E+02  0.51100000000E-03 0. -1.
    9900012    2    1    2    0    0  0.14788114162E+02  0.14954439493E+02  0.23966666300E+02  0.59301879594E+02  0.49999882488E+02 0.  0.
         12    1    1    2    0    0 -0.14788114162E+02 -0.14954439493E+02 -0.23966666300E+02  0.31886120406E+02  0.00000000000E+00 0. -1.
         11    1    3    3    0    0  0.36403663153E+01  0.24329049923E+02  0.17555428858E+02  0.30221648196E+02  0.51100000000E-03 0.  1.
        -11    1    3    3    0    0  0.11720693162E+02  0.21501760802E+01 -0.49346125306E+01  0.12897608556E+02  0.51100000000E-03 0. -1.
        -12    1    3    3    0    0 -0.57294531575E+00 -0.11524786509E+02  0.11345849973E+02  0.16182622842E+02  0.00000000000E+00 0.  1.
</event>
<event>
 7    1  0.6061051E-012  0.5930194E+02  0.7816164E-02  0.1266605E+00
        -11   -1    0    0    0    0  0.00000000000E+00  0.00000000000E+00  0.45593999997E+02  0.45594000000E+02  0.51100000000E-03 0.  1.
         11   -1    0    0    0    0 -0.00000000000E+00 -0.00000000000E+00 -0.45593999997E+02  0.45594000000E+02  0.51100000000E-03 0. -1.
    9900012    2    1    2    0    0 -0.17169817363E+02  0.11868484411E+02  0.24105125474E+02  0.59301943101E+02  0.49999998309E+02 0.  0.
         12    1    1    2    0    0  0.17169817363E+02 -0.11868484411E+02 -0.24105125474E+02  0.31886056899E+02  0.00000000000E+00 0. -1.
         11    1    3    3    0    0 -0.15380583978E+02  0.35947559747E+01 -0.19133922308E+01  0.15910553231E+02  0.51100000000E-03 0. -1.
        -11    1    3    3    0    0 -0.13978701637E+02  0.11661340695E+02  0.50326592254E+01  0.18886996199E+02  0.51100000000E-03 0.  1.
         12    1    3    3    0    0  0.12189468252E+02 -0.33876122593E+01  0.20985858479E+02  0.24504393671E+02  0.00000000000E+00 0. -1.
</event>
<event>
 7    1  0.6061051E-012  0.5930194E+02  0.7816164E-02  0.1266605E+00
        -11   -1    0    0    0    0  0.00000000000E+00  0.00000000000E+00  0.45593999997E+02  0.45594000000E+02  0.51100000000E-03 0. -1.
         11   -1    0    0    0    0 -0.00000000000E+00 -0.00000000000E+00 -0.45593999997E+02  0.45594000000E+02  0.51100000000E-03 0.  1.
    9900012    2    1    2    0    0 -0.16421334982E+02 -0.22011133240E+02 -0.16204028691E+02  0.59301940743E+02  0.49999994009E+02 0.  0.
         12    1    1    2    0    0  0.16421334982E+02  0.22011133240E+02  0.16204028691E+02  0.31886059257E+02  0.00000000000E+00 0. -1.
         11    1    3    3    0    0  0.88432810574E+01 -0.67076339779E+01 -0.16997475390E+02  0.20300496135E+02  0.51100000000E-03 0. -1.
        -11    1    3    3    0    0 -0.12465460130E+01 -0.11538445894E+02 -0.68999405379E+01  0.13501806927E+02  0.51100000000E-03 0.  1.
        -12    1    3    3    0    0 -0.24018070026E+02 -0.37650533685E+01  0.76933872368E+01  0.25499637680E+02  0.00000000000E+00 0.  1.
</event>
<event>
 7    1  0.6061051E-012  0.5930198E+02  0.7816164E-02  0.1266605E+00
        -11   -1    0    0    0    0  0.00000000000E+00  0.00000000000E+00  0.45593999997E+02  0.45594000000E+02  0.51100000000E-03 0.  1.
         11   -1    0    0    0    0 -0.00000000000E+00 -0.00000000000E+00 -0.45593999997E+02  0.45594000000E+02  0.51100000000E-03 0. -1.
    9900012    2    1    2    0    0  0.37564989266E+01 -0.12388694750E+02  0.29139788642E+02  0.59301979178E+02  0.50000064105E+02 0.  0.
         12    1    1    2    0    0 -0.37564989266E+01  0.12388694750E+02 -0.29139788642E+02  0.31886020822E+02  0.00000000000E+00 0. -1.
         11    1    3    3    0    0 -0.49135901624E+01  0.17039836113E+01  0.38058138422E-01  0.52008054294E+01  0.51100000000E-03 0. -1.
        -11    1    3    3    0    0  0.17245595557E+01  0.14044956798E+02  0.18387292626E+02  0.23201884568E+02  0.51100000000E-03 0.  1.
        -12    1    3    3    0    0  0.69455295333E+01 -0.28137635159E+02  0.10714437877E+02  0.30899289181E+02  0.00000000000E+00 0.  1.
</event>
<event>
 7    1  0.6061051E-012  0.5930197E+02  0.7816164E-02  0.1266605E+00
        -11   -1    0    0    0    0  0.00000000000E+00  0.00000000000E+00  0.45593999997E+02  0.45594000000E+02  0.51100000000E-03 0.  1.
         11   -1    0    0    0    0 -0.00000000000E+00 -0.00000000000E+00 -0.45593999997E+02  0.45594000000E+02  0.51100000000E-03 0. -1.
    9900012    2    1    2    0    0 -0.79748140140E+01 -0.17436465313E+02  0.25477261386E+02  0.59301971259E+02  0.50000049663E+02 0.  0.
         12    1    1    2    0    0  0.79748140140E+01  0.17436465313E+02 -0.25477261386E+02  0.31886028741E+02  0.00000000000E+00 0. -1.
         11    1    3    3    0    0  0.65850593668E+01 -0.50382169403E+01  0.60331996327E+01  0.10254078938E+02  0.51100000000E-03 0. -1.
        -11    1    3    3    0    0 -0.20032331005E+02 -0.19308627484E+02  0.25985906746E+02  0.38070785788E+02  0.51100000000E-03 0.  1.
         12    1    3    3    0    0  0.54724576239E+01  0.69103791117E+01 -0.65418449931E+01  0.10977106533E+02  0.00000000000E+00 0. -1.
</event>
<event>
 7    1  0.6061051E-012  0.5930202E+02  0.7816164E-02  0.1266605E+00
        -11   -1    0    0    0    0  0.00000000000E+00  0.00000000000E+00  0.45593999997E+02  0.45594000000E+02  0.51100000000E-03 0.  1.
         11   -1    0    0    0    0 -0.00000000000E+00 -0.00000000000E+00 -0.45593999997E+02  0.45594000000E+02  0.51100000000E-03 0. -1.
    9900012    2    1    2    0    0  0.14856597691E+02 -0.52162992209E+01  0.27727018946E+02  0.59302017936E+02  0.50000134791E+02 0.  0.
         12    1    1    2    0    0 -0.14856597691E+02  0.52162992209E+01 -0.27727018946E+02  0.31885982064E+02  0.00000000000E+00 0. -1.
         11    1    3    3    0    0  0.53096007095E+01  0.54719081899E+01 -0.70137168656E+01  0.10359819664E+02  0.51100000000E-03 0. -1.
        -11    1    3    3    0    0  0.71355398604E+01  0.90216050425E+01  0.36799809237E+01  0.12076735755E+02  0.51100000000E-03 0.  1.
        -12    1    3    3    0    0  0.24114571216E+01 -0.19709812453E+02  0.31060754888E+02  0.36865462517E+02  0.00000000000E+00 0.  1.
</event>
<event>
 7    1  0.6061051E-012  0.5930195E+02  0.7816164E-02  0.1266605E+00
        -11   -1    0    0    0    0  0.00000000000E+00  0.00000000000E+00  0.45593999997E+02  0.45594000000E+02  0.51100000000E-03 0. -1.
         11   -1    0    0    0    0 -0.00000000000E+00 -0.00000000000E+00 -0.45593999997E+02  0.45594000000E+02  0.51100000000E-03 0.  1.
    9900012    2    1    2    0    0  0.10759172420E+02  0.25465817489E+02 -0.15888745439E+02  0.59301954727E+02  0.50000019513E+02 0.  0.
         12    1    1    2    0    0 -0.10759172420E+02 -0.25465817489E+02  0.15888745439E+02  0.31886045273E+02  0.00000000000E+00 0. -1.
         11    1    3    3    0    0  0.19455645220E+02 -0.55341095395E+01 -0.16630065759E+02  0.26186018917E+02  0.51100000000E-03 0.  1.
        -11    1    3    3    0    0 -0.69378182762E+01  0.10911141943E+02 -0.14464812077E+00  0.12930864792E+02  0.51100000000E-03 0. -1.
        -12    1    3    3    0    0 -0.17586545232E+01  0.20088785085E+02  0.88596844061E+00  0.20185071018E+02  0.00000000000E+00 0.  1.
</event>
<event>
 7    1  0.6061051E-012  0.5930196E+02  0.7816164E-02  0.1266605E+00
        -11   -1    0    0    0    0  0.00000000000E+00  0.00000000000E+00  0.45593999997E+02  0.45594000000E+02  0.51100000000E-03 0. -1.
         11   -1    0    0    0    0 -0.00000000000E+00 -0.00000000000E+00 -0.45593999997E+02  0.45594000000E+02  0.51100000000E-03 0.  1.
    9900012    2    1    2    0    0  0.54614385561E+01  0.26121526185E+02 -0.17451592549E+02  0.59301960362E+02  0.50000029789E+02 0.  0.
         12    1    1    2    0    0 -0.54614385561E+01 -0.26121526185E+02  0.17451592549E+02  0.31886039638E+02  0.00000000000E+00 0. -1.
         11    1    3    3    0    0  0.16300102388E+02 -0.60230869932E+00 -0.10420746015E+02  0.19355827582E+02  0.51100000000E-03 0. -1.
        -11    1    3    3    0    0 -0.45214176727E+00  0.73027896891E+01  0.97980101814E+01  0.12228498403E+02  0.51100000000E-03 0.  1.
         12    1    3    3    0    0 -0.10386522064E+02  0.19421045195E+02 -0.16828856716E+02  0.27717634376E+02  0.00000000000E+00 0. -1.
</event>
<event>
 7    1  0.6061051E-012  0.5930194E+02  0.7816164E-02  0.1266605E+00
        -11   -1    0    0    0    0  0.00000000000E+00  0.00000000000E+00  0.45593999997E+02  0.45594000000E+02  0.51100000000E-03 0. -1.
         11   -1    0    0    0    0 -0.00000000000E+00 -0.00000000000E+00 -0.45593999997E+02  0.45594000000E+02  0.51100000000E-03 0.  1.
    9900012    2    1    2    0    0 -0.17532805467E+01 -0.14950591599E+02 -0.28109188106E+02  0.59301942894E+02  0.49999997932E+02 0.  0.
         12    1    1    2    0    0  0.17532805467E+01  0.14950591599E+02  0.28109188106E+02  0.31886057106E+02  0.00000000000E+00 0. -1.
         11    1    3    3    0    0 -0.91001602751E+01 -0.13628915696E+02 -0.14366804631E+02  0.21793699448E+02  0.51100000000E-03 0. -1.
        -11    1    3    3    0    0  0.65919638805E+01 -0.67191761338E+01 -0.24062158423E+02  0.25837739529E+02  0.51100000000E-03 0.  1.
         12    1    3    3    0    0  0.75491584787E+00  0.53975002314E+01  0.10319774948E+02  0.11670503916E+02  0.00000000000E+00 0. -1.
</event>
<event>
 7    1  0.6061051E-012  0.5930192E+02  0.7816164E-02  0.1266605E+00
        -11   -1    0    0    0    0  0.00000000000E+00  0.00000000000E+00  0.45593999997E+02  0.45594000000E+02  0.51100000000E-03 0. -1.
         11   -1    0    0    0    0 -0.00000000000E+00 -0.00000000000E+00 -0.45593999997E+02  0.45594000000E+02  0.51100000000E-03 0.  1.
    9900012    2    1    2    0    0  0.80953615116E+01 -0.21237329054E+02 -0.22364326594E+02  0.59301919536E+02  0.49999955333E+02 0.  0.
         12    1    1    2    0    0 -0.80953615116E+01  0.21237329054E+02  0.22364326594E+02  0.31886080464E+02  0.00000000000E+00 0. -1.
         11    1    3    3    0    0  0.77526749034E+01  0.41177423150E+01 -0.12342584837E+02  0.15145929178E+02  0.51100000000E-03 0. -1.
        -11    1    3    3    0    0 -0.23631327345E+01  0.79427214473E+01 -0.65609902462E+01  0.10569664781E+02  0.51100000000E-03 0.  1.
        -12    1    3    3    0    0  0.27058193428E+01 -0.33297792816E+02 -0.34607515109E+01  0.33586325577E+02  0.00000000000E+00 0.  1.
</event>
<event>
 7    1  0.6061051E-012  0.5930193E+02  0.7816164E-02  0.1266605E+00
        -11   -1    0    0    0    0  0.00000000000E+00  0.00000000000E+00  0.45593999997E+02  0.45594000000E+02  0.51100000000E-03 0. -1.
         11   -1    0    0    0    0 -0.00000000000E+00 -0.00000000000E+00 -0.45593999997E+02  0.45594000000E+02  0.51100000000E-03 0.  1.
    9900012    2    1    2    0    0  0.20687198661E+00 -0.14769420269E+02 -0.28258497018E+02  0.59301933689E+02  0.49999981144E+02 0.  0.
         12    1    1    2    0    0 -0.20687198661E+00  0.14769420269E+02  0.28258497018E+02  0.31886066311E+02  0.00000000000E+00 0. -1.
         11    1    3    3    0    0  0.29919459358E+01  0.80978133162E+01 -0.59192837344E+01  0.10467293880E+02  0.51100000000E-03 0. -1.
        -11    1    3    3    0    0  0.32044836781E+00  0.25693950058E+01 -0.23054213897E+02  0.23199164997E+02  0.51100000000E-03 0.  1.
         12    1    3    3    0    0 -0.31055223170E+01 -0.25436628591E+02  0.71500061388E+00  0.25635474812E+02  0.00000000000E+00 0. -1.
</event>
<event>
 7    1  0.6061051E-012  0.5930197E+02  0.7816164E-02  0.1266605E+00
        -11   -1    0    0    0    0  0.00000000000E+00  0.00000000000E+00  0.45593999997E+02  0.45594000000E+02  0.51100000000E-03 0.  1.
         11   -1    0    0    0    0 -0.00000000000E+00 -0.00000000000E+00 -0.45593999997E+02  0.45594000000E+02  0.51100000000E-03 0. -1.
    9900012    2    1    2    0    0  0.72467928012E+01 -0.28850303826E+02  0.11483161536E+02  0.59301968017E+02  0.50000043750E+02 0.  0.
         12    1    1    2    0    0 -0.72467928012E+01  0.28850303826E+02 -0.11483161536E+02  0.31886031983E+02  0.00000000000E+00 0. -1.
         11    1    3    3    0    0 -0.12358870555E+02 -0.13323029134E+02  0.13188550663E+02  0.22454012015E+02  0.51100000000E-03 0. -1.
        -11    1    3    3    0    0  0.67418734490E+01 -0.95612764937E+01  0.12259505864E+02  0.16945983302E+02  0.51100000000E-03 0.  1.
         12    1    3    3    0    0  0.12863789907E+02 -0.59659981981E+01 -0.13964894990E+02  0.19901972700E+02  0.00000000000E+00 0. -1.
</event>
<event>
 7    1  0.6061051E-012  0.5930195E+02  0.7816164E-02  0.1266605E+00
        -11   -1    0    0    0    0  0.00000000000E+00  0.00000000000E+00  0.45593999997E+02  0.45594000000E+02  0.51100000000E-03 0.  1.
         11   -1    0    0    0    0 -0.00000000000E+00 -0.00000000000E+00 -0.45593999997E+02  0.45594000000E+02  0.51100000000E-03 0. -1.
    9900012    2    1    2    0    0 -0.16713651507E+00 -0.24772041348E+02  0.20075819394E+02  0.59301945188E+02  0.50000002116E+02 0.  0.
         12    1    1    2    0    0  0.16713651507E+00  0.24772041348E+02 -0.20075819394E+02  0.31886054812E+02  0.00000000000E+00 0. -1.
         11    1    3    3    0    0  0.82355918834E+00 -0.22331132595E+02  0.55040544047E+00  0.22353091042E+02  0.51100000000E-03 0. -1.
        -11    1    3    3    0    0 -0.11065932294E+02 -0.15280798709E+01 -0.35760713097E+01  0.11729372187E+02  0.51100000000E-03 0.  1.
        -12    1    3    3    0    0  0.10075236591E+02 -0.91282888139E+00  0.23101485263E+02  0.25219481959E+02  0.00000000000E+00 0.  1.
</event>
<event>
 7    1  0.6061051E-012  0.5930193E+02  0.7816164E-02  0.1266605E+00
        -11   -1    0    0    0    0  0.00000000000E+00  0.00000000000E+00  0.45593999997E+02  0.45594000000E+02  0.51100000000E-03 0. -1.
         11   -1    0    0    0    0 -0.00000000000E+00 -0.00000000000E+00 -0.45593999997E+02  0.45594000000E+02  0.51100000000E-03 0.  1.
    9900012    2    1    2    0    0 -0.15923632209E+02  0.16816907246E+02 -0.21916911662E+02  0.59301930175E+02  0.49999974737E+02 0.  0.
         12    1    1    2    0    0  0.15923632209E+02 -0.16816907246E+02  0.21916911662E+02  0.31886069825E+02  0.00000000000E+00 0. -1.
         11    1    3    3    0    0  0.56147836955E+01  0.19217357057E+01 -0.19465230310E+02  0.20349792514E+02  0.51100000000E-03 0. -1.
        -11    1    3    3    0    0  0.67466409831E+01  0.54262108379E+01  0.17400182452E+01  0.88311150127E+01  0.51100000000E-03 0.  1.
         12    1    3    3    0    0 -0.28285056887E+02  0.94689607022E+01 -0.41916995977E+01  0.30121022649E+02  0.00000000000E+00 0. -1.
</event>
<event>
 7    1  0.6061051E-012  0.5930197E+02  0.7816164E-02  0.1266605E+00
        -11   -1    0    0    0    0  0.00000000000E+00  0.00000000000E+00  0.45593999997E+02  0.45594000000E+02  0.51100000000E-03 0.  1.
         11   -1    0    0    0    0 -0.00000000000E+00 -0.00000000000E+00 -0.45593999997E+02  0.45594000000E+02  0.51100000000E-03 0. -1.
    9900012    2    1    2    0    0  0.86311750439E+01 -0.17404349819E+02  0.25284588725E+02  0.59301968540E+02  0.50000044705E+02 0.  0.
         12    1    1    2    0    0 -0.86311750439E+01  0.17404349819E+02 -0.25284588725E+02  0.31886031460E+02  0.00000000000E+00 0. -1.
         11    1    3    3    0    0 -0.23024480856E+01 -0.18321173641E+02  0.11689608007E+02  0.21854372707E+02  0.51100000000E-03 0.  1.
        -11    1    3    3    0    0  0.20415958625E+01 -0.86021278999E+01 -0.81988748534E+01  0.12057622784E+02  0.51100000000E-03 0. -1.
         12    1    3    3    0    0  0.88920272670E+01  0.95189517219E+01  0.21793855572E+02  0.25389973050E+02  0.00000000000E+00 0. -1.
</event>
<event>
 7    1  0.6061051E-012  0.5930194E+02  0.7816164E-02  0.1266605E+00
        -11   -1    0    0    0    0  0.00000000000E+00  0.00000000000E+00  0.45593999997E+02  0.45594000000E+02  0.51100000000E-03 0. -1.
         11   -1    0    0    0    0 -0.00000000000E+00 -0.00000000000E+00 -0.45593999997E+02  0.45594000000E+02  0.51100000000E-03 0.  1.
    9900012    2    1    2    0    0 -0.29588168111E+02  0.38924859201E+00 -0.11878957078E+02  0.59301939913E+02  0.49999992495E+02 0.  0.
         12    1    1    2    0    0  0.29588168111E+02 -0.38924859201E+00  0.11878957078E+02  0.31886060087E+02  0.00000000000E+00 0. -1.
         11    1    3    3    0    0 -0.16946176182E+02  0.12845738507E+02  0.45112807460E+01  0.21737928586E+02  0.51100000000E-03 0. -1.
        -11    1    3    3    0    0  0.66169981390E+01 -0.43050277242E+01  0.35613889863E+01  0.86603360125E+01  0.51100000000E-03 0.  1.
        -12    1    3    3    0    0 -0.19258990068E+02 -0.81514621907E+01 -0.19951626811E+02  0.28903675314E+02  0.00000000000E+00 0.  1.
</event>
<event>
 7    1  0.6061051E-012  0.5930198E+02  0.7816164E-02  0.1266605E+00
        -11   -1    0    0    0    0  0.00000000000E+00  0.00000000000E+00  0.45593999997E+02  0.45594000000E+02  0.51100000000E-03 0. -1.
         11   -1    0    0    0    0 -0.00000000000E+00 -0.00000000000E+00 -0.45593999997E+02  0.45594000000E+02  0.51100000000E-03 0.  1.
    9900012    2    1    2    0    0  0.87111939441E+01 -0.18667885274E+02 -0.24338105856E+02  0.59301980537E+02  0.50000066585E+02 0.  0.
         12    1    1    2    0    0 -0.87111939441E+01  0.18667885274E+02  0.24338105856E+02  0.31886019463E+02  0.00000000000E+00 0. -1.
         11    1    3    3    0    0  0.65929481268E+01 -0.71622391786E+01 -0.23042170307E+02  0.25014120968E+02  0.51100000000E-03 0. -1.
        -11    1    3    3    0    0 -0.32810731168E+01  0.66226623074E+01 -0.10825327511E+02  0.13107738662E+02  0.51100000000E-03 0.  1.
         12    1    3    3    0    0  0.53993189341E+01 -0.18128308403E+02  0.95293919627E+01  0.21180120908E+02  0.00000000000E+00 0. -1.
</event>
<event>
 7    1  0.6061051E-012  0.5930231E+02  0.7816164E-02  0.1266603E+00
        -11   -1    0    0    0    0  0.00000000000E+00  0.00000000000E+00  0.45593999997E+02  0.45594000000E+02  0.51100000000E-03 0. -1.
         11   -1    0    0    0    0 -0.00000000000E+00 -0.00000000000E+00 -0.45593999997E+02  0.45594000000E+02  0.51100000000E-03 0.  1.
    9900012    2    1    2    0    0 -0.52896748304E+01 -0.19011862871E+02 -0.25045270146E+02  0.59302311262E+02  0.50000669743E+02 0.  0.
         12    1    1    2    0    0  0.52896748304E+01  0.19011862871E+02  0.25045270146E+02  0.31885688738E+02  0.00000000000E+00 0. -1.
         11    1    3    3    0    0 -0.75559113002E+01 -0.11147914703E+02 -0.19414682801E+02  0.23628324239E+02  0.51100000000E-03 0. -1.
        -11    1    3    3    0    0  0.18172247752E+02 -0.23800880402E+01 -0.17760942615E+01  0.18413308191E+02  0.51100000000E-03 0.  1.
         12    1    3    3    0    0 -0.15906011283E+02 -0.54838601272E+01 -0.38544930833E+01  0.17260678832E+02  0.00000000000E+00 0. -1.
</event>
<event>
 7    1  0.6061051E-012  0.5930214E+02  0.7816164E-02  0.1266604E+00
        -11   -1    0    0    0    0  0.00000000000E+00  0.00000000000E+00  0.45593999997E+02  0.45594000000E+02  0.51100000000E-03 0.  1.
         11   -1    0    0    0    0 -0.00000000000E+00 -0.00000000000E+00 -0.45593999997E+02  0.45594000000E+02  0.51100000000E-03 0. -1.
    9900012    2    1    2    0    0  0.26288943210E+02 -0.17503220697E+02  0.43860125980E+01  0.59302135163E+02  0.50000348584E+02 0.  0.
         12    1    1    2    0    0 -0.26288943210E+02  0.17503220697E+02 -0.43860125980E+01  0.31885864837E+02  0.00000000000E+00 0. -1.
         11    1    3    3    0    0  0.32631605348E+02 -0.12284200038E+02  0.55658534592E+01  0.35308666970E+02  0.51100000000E-03 0. -1.
        -11    1    3    3    0    0  0.71712590939E+01 -0.60278502348E+01  0.29799955847E+01  0.98306820410E+01  0.51100000000E-03 0.  1.
        -12    1    3    3    0    0 -0.13513921232E+02  0.80882957553E+00 -0.41598364459E+01  0.14162786153E+02  0.00000000000E+00 0.  1.
</event>
<event>
 7    1  0.6061051E-012  0.5930197E+02  0.7816164E-02  0.1266605E+00
        -11   -1    0    0    0    0  0.00000000000E+00  0.00000000000E+00  0.45593999997E+02  0.45594000000E+02  0.51100000000E-03 0.  1.
         11   -1    0    0    0    0 -0.00000000000E+00 -0.00000000000E+00 -0.45593999997E+02  0.45594000000E+02  0.51100000000E-03 0. -1.
    9900012    2    1    2    0    0  0.97313319244E+01  0.20603305905E+02  0.22305242926E+02  0.59301970187E+02  0.50000047709E+02 0.  0.
         12    1    1    2    0    0 -0.97313319244E+01 -0.20603305905E+02 -0.22305242926E+02  0.31886029813E+02  0.00000000000E+00 0. -1.
         11    1    3    3    0    0  0.13296248750E+02  0.19986214521E+02  0.19460011547E+02  0.30901958698E+02  0.51100000000E-03 0. -1.
        -11    1    3    3    0    0  0.53363383421E+01  0.10486608838E+02  0.79090818267E+01  0.14177413284E+02  0.51100000000E-03 0.  1.
        -12    1    3    3    0    0 -0.89012551681E+01 -0.98695174542E+01 -0.50638504476E+01  0.14222598205E+02  0.00000000000E+00 0.  1.
</event>
<event>
 7    1  0.6061051E-012  0.5930195E+02  0.7816164E-02  0.1266605E+00
        -11   -1    0    0    0    0  0.00000000000E+00  0.00000000000E+00  0.45593999997E+02  0.45594000000E+02  0.51100000000E-03 0.  1.
         11   -1    0    0    0    0 -0.00000000000E+00 -0.00000000000E+00 -0.45593999997E+02  0.45594000000E+02  0.51100000000E-03 0. -1.
    9900012    2    1    2    0    0  0.68068592654E+01  0.10704667831E+02  0.29254010319E+02  0.59301947153E+02  0.50000005699E+02 0.  0.
         12    1    1    2    0    0 -0.68068592654E+01 -0.10704667831E+02 -0.29254010319E+02  0.31886052847E+02  0.00000000000E+00 0. -1.
         11    1    3    3    0    0 -0.46337207257E+01 -0.55480212006E+01  0.29732319972E+02  0.30598411040E+02  0.51100000000E-03 0. -1.
        -11    1    3    3    0    0 -0.39034769861E+01 -0.22018357578E+01 -0.13712210150E+01  0.46867324031E+01  0.51100000000E-03 0.  1.
         12    1    3    3    0    0  0.15344056977E+02  0.18454524789E+02  0.89291136202E+00  0.24016803709E+02  0.00000000000E+00 0. -1.
</event>
<event>
 7    1  0.6061051E-012  0.5930195E+02  0.7816164E-02  0.1266605E+00
        -11   -1    0    0    0    0  0.00000000000E+00  0.00000000000E+00  0.45593999997E+02  0.45594000000E+02  0.51100000000E-03 0. -1.
         11   -1    0    0    0    0 -0.00000000000E+00 -0.00000000000E+00 -0.45593999997E+02  0.45594000000E+02  0.51100000000E-03 0.  1.
    9900012    2    1    2    0    0  0.24979326643E+01 -0.22857795013E+02 -0.22090760259E+02  0.59301950554E+02  0.50000011902E+02 0.  0.
         12    1    1    2    0    0 -0.24979326643E+01  0.22857795013E+02  0.22090760259E+02  0.31886049446E+02  0.00000000000E+00 0. -1.
         11    1    3    3    0    0  0.74558399241E+01 -0.23507575738E+02  0.89198142223E-01  0.24661784660E+02  0.51100000000E-03 0. -1.
        -11    1    3    3    0    0 -0.15478005828E+02 -0.23760987127E+01 -0.13270630782E+02  0.20526182088E+02  0.51100000000E-03 0.  1.
         12    1    3    3    0    0  0.10520098568E+02  0.30258794373E+01 -0.89093276188E+01  0.14113983806E+02  0.00000000000E+00 0. -1.
</event>
<event>
 7    1  0.6061051E-012  0.5930196E+02  0.7816164E-02  0.1266605E+00
        -11   -1    0    0    0    0  0.00000000000E+00  0.00000000000E+00  0.45593999997E+02  0.45594000000E+02  0.51100000000E-03 0. -1.
         11   -1    0    0    0    0 -0.00000000000E+00 -0.00000000000E+00 -0.45593999997E+02  0.45594000000E+02  0.51100000000E-03 0.  1.
    9900012    2    1    2    0    0 -0.41805998326E+00  0.16412340413E+02  0.27334593025E+02  0.59301958103E+02  0.50000025670E+02 0.  0.
         12    1    1    2    0    0  0.41805998326E+00 -0.16412340413E+02 -0.27334593025E+02  0.31886041897E+02  0.00000000000E+00 0. -1.
         11    1    3    3    0    0 -0.11360312853E+02 -0.17297846892E+00  0.10011166860E+02  0.15142988207E+02  0.51100000000E-03 0. -1.
        -11    1    3    3    0    0  0.74079665801E+01  0.27694654285E+02  0.14666127097E+02  0.32201973994E+02  0.51100000000E-03 0.  1.
         12    1    3    3    0    0  0.35342862899E+01 -0.11109335403E+02  0.26572990685E+01  0.11956995902E+02  0.00000000000E+00 0. -1.
</event>
<event>
 7    1  0.6061051E-012  0.5930193E+02  0.7816164E-02  0.1266605E+00
        -11   -1    0    0    0    0  0.00000000000E+00  0.00000000000E+00  0.45593999997E+02  0.45594000000E+02  0.51100000000E-03 0. -1.
         11   -1    0    0    0    0 -0.00000000000E+00 -0.00000000000E+00 -0.45593999997E+02  0.45594000000E+02  0.51100000000E-03 0.  1.
    9900012    2    1    2    0    0 -0.22025557955E+02  0.20896508407E+02 -0.97433066361E+01  0.59301932650E+02  0.49999979250E+02 0.  0.
         12    1    1    2    0    0  0.22025557955E+02 -0.20896508407E+02  0.97433066361E+01  0.31886067350E+02  0.00000000000E+00 0. -1.
         11    1    3    3    0    0  0.24310048402E+01  0.17896259075E+02 -0.48628312080E+01  0.18703823167E+02  0.51100000000E-03 0. -1.
        -11    1    3    3    0    0 -0.26011370552E+00 -0.11276764409E+01 -0.14270470322E+02  0.14317319468E+02  0.51100000000E-03 0.  1.
        -12    1    3    3    0    0 -0.24196449090E+02  0.41279257725E+01  0.93899948935E+01  0.26280790015E+02  0.00000000000E+00 0.  1.
</event>
<event>
 7    1  0.6061051E-012  0.5930195E+02  0.7816164E-02  0.1266605E+00
        -11   -1    0    0    0    0  0.00000000000E+00  0.00000000000E+00  0.45593999997E+02  0.45594000000E+02  0.51100000000E-03 0.  1.
         11   -1    0    0    0    0 -0.00000000000E+00 -0.00000000000E+00 -0.45593999997E+02  0.45594000000E+02  0.51100000000E-03 0. -1.
    9900012    2    1    2    0    0 -0.71203061906E+01 -0.20966145767E+02  0.22944331243E+02  0.59301947175E+02  0.50000005740E+02 0.  0.
         12    1    1    2    0    0  0.71203061906E+01  0.20966145767E+02 -0.22944331243E+02  0.31886052825E+02  0.00000000000E+00 0. -1.
         11    1    3    3    0    0 -0.13623461457E+02  0.86993350320E+01  0.64314992660E+01  0.17396589181E+02  0.51100000000E-03 0. -1.
        -11    1    3    3    0    0 -0.43770466504E+01 -0.10301499121E+02  0.16201541231E+02  0.19691860249E+02  0.51100000000E-03 0.  1.
        -12    1    3    3    0    0  0.10880201917E+02 -0.19363981678E+02  0.31129074532E+00  0.22213497745E+02  0.00000000000E+00 0.  1.
</event>
<event>
 7    1  0.6061051E-012  0.5930194E+02  0.7816164E-02  0.1266605E+00
        -11   -1    0    0    0    0  0.00000000000E+00  0.00000000000E+00  0.45593999997E+02  0.45594000000E+02  0.51100000000E-03 0.  1.
         11   -1    0    0    0    0 -0.00000000000E+00 -0.00000000000E+00 -0.45593999997E+02  0.45594000000E+02  0.51100000000E-03 0. -1.
    9900012    2    1    2    0    0  0.22573311573E+02 -0.12656072966E+02  0.18627678962E+02  0.59301937186E+02  0.49999987522E+02 0.  0.
         12    1    1    2    0    0 -0.22573311573E+02  0.12656072966E+02 -0.18627678962E+02  0.31886062814E+02  0.00000000000E+00 0. -1.
         11    1    3    3    0    0 -0.65357997549E+00 -0.53732562005E+00  0.11111182512E+02  0.11143350604E+02  0.51100000000E-03 0. -1.
        -11    1    3    3    0    0  0.30266777825E+02  0.33373356948E+01  0.65536340749E+01  0.31147484157E+02  0.51100000000E-03 0.  1.
         12    1    3    3    0    0 -0.70398862770E+01 -0.15456083041E+02  0.96286237502E+00  0.17011102425E+02  0.00000000000E+00 0. -1.
</event>
<event>
 7    1  0.6061051E-012  0.5930194E+02  0.7816164E-02  0.1266605E+00
        -11   -1    0    0    0    0  0.00000000000E+00  0.00000000000E+00  0.45593999997E+02  0.45594000000E+02  0.51100000000E-03 0.  1.
         11   -1    0    0    0    0 -0.00000000000E+00 -0.00000000000E+00 -0.45593999997E+02  0.45594000000E+02  0.51100000000E-03 0. -1.
    9900012    2    1    2    0    0  0.26188782167E+01 -0.21747693959E+02  0.23171098277E+02  0.59301944882E+02  0.50000001558E+02 0.  0.
         12    1    1    2    0    0 -0.26188782167E+01  0.21747693959E+02 -0.23171098277E+02  0.31886055118E+02  0.00000000000E+00 0. -1.
         11    1    3    3    0    0  0.17929106909E+01  0.93931636095E+01  0.38950595063E+01  0.10325576989E+02  0.51100000000E-03 0. -1.
        -11    1    3    3    0    0 -0.89528295342E+01  0.20316437268E+01  0.91003857265E+01  0.12926629628E+02  0.51100000000E-03 0.  1.
        -12    1    3    3    0    0  0.97787970599E+01 -0.33172501295E+02  0.10175653044E+02  0.36049738265E+02  0.00000000000E+00 0.  1.
</event>
<event>
 7    1  0.6061051E-012  0.5930195E+02  0.7816164E-02  0.1266605E+00
        -11   -1    0    0    0    0  0.00000000000E+00  0.00000000000E+00  0.45593999997E+02  0.45594000000E+02  0.51100000000E-03 0. -1.
         11   -1    0    0    0    0 -0.00000000000E+00 -0.00000000000E+00 -0.45593999997E+02  0.45594000000E+02  0.51100000000E-03 0.  1.
    9900012    2    1    2    0    0  0.30664092006E+02 -0.75090649476E+01 -0.44774885533E+01  0.59301945075E+02  0.50000001909E+02 0.  0.
         12    1    1    2    0    0 -0.30664092006E+02  0.75090649476E+01  0.44774885533E+01  0.31886054925E+02  0.00000000000E+00 0. -1.
         11    1    3    3    0    0  0.19316835080E+02 -0.76618407512E+01  0.94383979066E+01  0.22823831328E+02  0.51100000000E-03 0. -1.
        -11    1    3    3    0    0  0.21755010190E+02  0.48464704629E+01 -0.96968265962E+01  0.24306319972E+02  0.51100000000E-03 0.  1.
         12    1    3    3    0    0 -0.10407753263E+02 -0.46936946593E+01 -0.42190598637E+01  0.12171793774E+02  0.00000000000E+00 0. -1.
</event>
<event>
 7    1  0.6061051E-012  0.5930193E+02  0.7816164E-02  0.1266605E+00
        -11   -1    0    0    0    0  0.00000000000E+00  0.00000000000E+00  0.45593999997E+02  0.45594000000E+02  0.51100000000E-03 0.  1.
         11   -1    0    0    0    0 -0.00000000000E+00 -0.00000000000E+00 -0.45593999997E+02  0.45594000000E+02  0.51100000000E-03 0. -1.
    9900012    2    1    2    0    0 -0.14088662376E+02 -0.11626307307E+02  0.26135413043E+02  0.59301933387E+02  0.49999980593E+02 0.  0.
         12    1    1    2    0    0  0.14088662376E+02  0.11626307307E+02 -0.26135413043E+02  0.31886066613E+02  0.00000000000E+00 0. -1.
         11    1    3    3    0    0 -0.27704459362E+01  0.97499579299E+01  0.10151387302E+02  0.14345302880E+02  0.51100000000E-03 0. -1.
        -11    1    3    3    0    0  0.12390471167E+02 -0.60814324841E+01  0.54876761149E+01  0.14853356059E+02  0.51100000000E-03 0.  1.
         12    1    3    3    0    0 -0.23708687607E+02 -0.15294832753E+02  0.10496349626E+02  0.30103274448E+02  0.00000000000E+00 0. -1.
</event>
<event>
 7    1  0.6061051E-012  0.5930192E+02  0.7816164E-02  0.1266605E+00
        -11   -1    0    0    0    0  0.00000000000E+00  0.00000000000E+00  0.45593999997E+02  0.45594000000E+02  0.51100000000E-03 0.  1.
         11   -1    0    0    0    0 -0.00000000000E+00 -0.00000000000E+00 -0.45593999997E+02  0.45594000000E+02  0.51100000000E-03 0. -1.
    9900012    2    1    2    0    0 -0.18506299462E+02 -0.23958109950E+02 -0.10012395761E+02  0.59301918067E+02  0.49999952654E+02 0.  0.
         12    1    1    2    0    0  0.18506299462E+02  0.23958109950E+02  0.10012395761E+02  0.31886081933E+02  0.00000000000E+00 0. -1.
         11    1    3    3    0    0 -0.75768802345E+01 -0.15406563768E+02 -0.14914023678E+02  0.22742018902E+02  0.51100000000E-03 0. -1.
        -11    1    3    3    0    0 -0.17222113381E+02 -0.17963278966E+02  0.27655455042E+01  0.25038546737E+02  0.51100000000E-03 0.  1.
         12    1    3    3    0    0  0.62926941529E+01  0.94117327836E+01  0.21360824127E+01  0.11521352428E+02  0.00000000000E+00 0. -1.
</event>
<event>
 7    1  0.6061051E-012  0.5930195E+02  0.7816164E-02  0.1266605E+00
        -11   -1    0    0    0    0  0.00000000000E+00  0.00000000000E+00  0.45593999997E+02  0.45594000000E+02  0.51100000000E-03 0.  1.
         11   -1    0    0    0    0 -0.00000000000E+00 -0.00000000000E+00 -0.45593999997E+02  0.45594000000E+02  0.51100000000E-03 0. -1.
    9900012    2    1    2    0    0  0.24111379712E+02  0.11052254862E+02  0.17697721529E+02  0.59301947932E+02  0.50000007121E+02 0.  0.
         12    1    1    2    0    0 -0.24111379712E+02 -0.11052254862E+02 -0.17697721529E+02  0.31886052068E+02  0.00000000000E+00 0. -1.
         11    1    3    3    0    0  0.25794308597E+01 -0.13133327813E+02 -0.46644695833E+01  0.14173744733E+02  0.51100000000E-03 0. -1.
        -11    1    3    3    0    0 -0.25557374488E+01  0.65765996819E+01  0.11267766720E+02  0.13294586282E+02  0.51100000000E-03 0.  1.
        -12    1    3    3    0    0  0.24087686302E+02  0.17608982993E+02  0.11094424392E+02  0.31833616917E+02  0.00000000000E+00 0.  1.
</event>
<event>
 7    1  0.6061051E-012  0.5930164E+02  0.7816164E-02  0.1266606E+00
        -11   -1    0    0    0    0  0.00000000000E+00  0.00000000000E+00  0.45593999997E+02  0.45594000000E+02  0.51100000000E-03 0.  1.
         11   -1    0    0    0    0 -0.00000000000E+00 -0.00000000000E+00 -0.45593999997E+02  0.45594000000E+02  0.51100000000E-03 0. -1.
    9900012    2    1    2    0    0  0.26481860097E+02  0.16168097483E+02  0.73514467475E+01  0.59301638343E+02  0.49999442502E+02 0.  0.
         12    1    1    2    0    0 -0.26481860097E+02 -0.16168097483E+02 -0.73514467475E+01  0.31886361657E+02  0.00000000000E+00 0. -1.
         11    1    3    3    0    0  0.25616958704E+02  0.54083476181E+01  0.92840876458E+01  0.27779004317E+02  0.51100000000E-03 0. -1.
        -11    1    3    3    0    0  0.31546267243E+00 -0.75623609140E+01  0.77154678864E+01  0.10808203563E+02  0.51100000000E-03 0.  1.
         12    1    3    3    0    0  0.54943872113E+00  0.18322110779E+02 -0.96481087847E+01  0.20714430463E+02  0.00000000000E+00 0. -1.
</event>
<event>
 7    1  0.6061051E-012  0.5930186E+02  0.7816164E-02  0.1266605E+00
        -11   -1    0    0    0    0  0.00000000000E+00  0.00000000000E+00  0.45593999997E+02  0.45594000000E+02  0.51100000000E-03 0.  1.
         11   -1    0    0    0    0 -0.00000000000E+00 -0.00000000000E+00 -0.45593999997E+02  0.45594000000E+02  0.51100000000E-03 0. -1.
    9900012    2    1    2    0    0  0.26117717932E+02  0.16098829421E+02  0.86843891193E+01  0.59301857037E+02  0.49999841349E+02 0.  0.
         12    1    1    2    0    0 -0.26117717932E+02 -0.16098829421E+02 -0.86843891193E+01  0.31886142963E+02  0.00000000000E+00 0. -1.
         11    1    3    3    0    0  0.32773298691E+01 -0.84747551920E+00  0.22044135376E+00  0.33923001752E+01  0.51100000000E-03 0. -1.
        -11    1    3    3    0    0 -0.68515178479E+01  0.13571861693E+02  0.18900663915E+02  0.24256418189E+02  0.51100000000E-03 0.  1.
         12    1    3    3    0    0  0.29691905911E+02  0.33744432466E+01 -0.10436716150E+02  0.31653138673E+02  0.00000000000E+00 0. -1.
</event>
<event>
 7    1  0.6061051E-012  0.5930193E+02  0.7816164E-02  0.1266605E+00
        -11   -1    0    0    0    0  0.00000000000E+00  0.00000000000E+00  0.45593999997E+02  0.45594000000E+02  0.51100000000E-03 0. -1.
         11   -1    0    0    0    0 -0.00000000000E+00 -0.00000000000E+00 -0.45593999997E+02  0.45594000000E+02  0.51100000000E-03 0.  1.
    9900012    2    1    2    0    0  0.20143190859E+02 -0.18364214048E+02 -0.16544762569E+02  0.59301926801E+02  0.49999968583E+02 0.  0.
         12    1    1    2    0    0 -0.20143190859E+02  0.18364214048E+02  0.16544762569E+02  0.31886073199E+02  0.00000000000E+00 0. -1.
         11    1    3    3    0    0 -0.36841645151E+01 -0.44070318890E+01  0.64251560173E+01  0.86184469803E+01  0.51100000000E-03 0. -1.
        -11    1    3    3    0    0 -0.36859708639E+01 -0.17018147091E+02 -0.10381380531E+02  0.20272562088E+02  0.51100000000E-03 0.  1.
        -12    1    3    3    0    0  0.27513326238E+02  0.30609649320E+01 -0.12588538055E+02  0.30410917733E+02  0.00000000000E+00 0.  1.
</event>
<event>
 7    1  0.6061051E-012  0.5930193E+02  0.7816164E-02  0.1266605E+00
        -11   -1    0    0    0    0  0.00000000000E+00  0.00000000000E+00  0.45593999997E+02  0.45594000000E+02  0.51100000000E-03 0. -1.
         11   -1    0    0    0    0 -0.00000000000E+00 -0.00000000000E+00 -0.45593999997E+02  0.45594000000E+02  0.51100000000E-03 0.  1.
    9900012    2    1    2    0    0  0.31423351287E+02 -0.49105315294E+01 -0.22761926678E+01  0.59301931270E+02  0.49999976733E+02 0.  0.
         12    1    1    2    0    0 -0.31423351287E+02  0.49105315294E+01  0.22761926678E+01  0.31886068730E+02  0.00000000000E+00 0. -1.
         11    1    3    3    0    0 -0.42624878872E+01 -0.50225261455E+01  0.12465599485E+00  0.65886350065E+01  0.51100000000E-03 0. -1.
        -11    1    3    3    0    0  0.21477393378E+02 -0.78231330212E+01 -0.18810191295E+02  0.29602417696E+02  0.51100000000E-03 0.  1.
        -12    1    3    3    0    0  0.14208445796E+02  0.79351276373E+01  0.16409342633E+02  0.23110878568E+02  0.00000000000E+00 0.  1.
</event>
<event>
 7    1  0.6061051E-012  0.5930196E+02  0.7816164E-02  0.1266605E+00
        -11   -1    0    0    0    0  0.00000000000E+00  0.00000000000E+00  0.45593999997E+02  0.45594000000E+02  0.51100000000E-03 0.  1.
         11   -1    0    0    0    0 -0.00000000000E+00 -0.00000000000E+00 -0.45593999997E+02  0.45594000000E+02  0.51100000000E-03 0. -1.
    9900012    2    1    2    0    0 -0.20380198437E+02  0.11062070294E+02  0.21886010610E+02  0.59301963120E+02  0.50000034819E+02 0.  0.
         12    1    1    2    0    0  0.20380198437E+02 -0.11062070294E+02 -0.21886010610E+02  0.31886036880E+02  0.00000000000E+00 0. -1.
         11    1    3    3    0    0  0.79844492326E+01  0.10325147722E+02  0.29534763136E+01  0.13382194425E+02  0.51100000000E-03 0. -1.
        -11    1    3    3    0    0 -0.47841503737E+01  0.13597456920E+02  0.31097677205E+01  0.14746171877E+02  0.51100000000E-03 0.  1.
         12    1    3    3    0    0 -0.23580497296E+02 -0.12860534349E+02  0.15822766576E+02  0.31173596818E+02  0.00000000000E+00 0. -1.
</event>
<event>
 7    1  0.6061051E-012  0.5930193E+02  0.7816164E-02  0.1266605E+00
        -11   -1    0    0    0    0  0.00000000000E+00  0.00000000000E+00  0.45593999997E+02  0.45594000000E+02  0.51100000000E-03 0. -1.
         11   -1    0    0    0    0 -0.00000000000E+00 -0.00000000000E+00 -0.45593999997E+02  0.45594000000E+02  0.51100000000E-03 0.  1.
    9900012    2    1    2    0    0 -0.29678282255E+02  0.10956216222E+02 -0.39852630294E+01  0.59301930425E+02  0.49999975192E+02 0.  0.
         12    1    1    2    0    0  0.29678282255E+02 -0.10956216222E+02  0.39852630294E+01  0.31886069575E+02  0.00000000000E+00 0. -1.
         11    1    3    3    0    0 -0.43784531909E+01  0.95017006343E+01  0.28823471242E+01  0.10851778310E+02  0.51100000000E-03 0. -1.
        -11    1    3    3    0    0 -0.21901360168E+02  0.10178230764E+02  0.12311501250E+02  0.27107914380E+02  0.51100000000E-03 0.  1.
        -12    1    3    3    0    0 -0.33984688959E+01 -0.87237151763E+01 -0.19179111404E+02  0.21342237735E+02  0.00000000000E+00 0.  1.
</event>
<event>
 7    1  0.6061051E-012  0.5930195E+02  0.7816164E-02  0.1266605E+00
        -11   -1    0    0    0    0  0.00000000000E+00  0.00000000000E+00  0.45593999997E+02  0.45594000000E+02  0.51100000000E-03 0.  1.
         11   -1    0    0    0    0 -0.00000000000E+00 -0.00000000000E+00 -0.45593999997E+02  0.45594000000E+02  0.51100000000E-03 0. -1.
    9900012    2    1    2    0    0  0.11629907134E+02  0.12560159444E+02  0.26901812715E+02  0.59301954893E+02  0.50000019816E+02 0.  0.
         12    1    1    2    0    0 -0.11629907134E+02 -0.12560159444E+02 -0.26901812715E+02  0.31886045107E+02  0.00000000000E+00 0. -1.
         11    1    3    3    0    0  0.37945503955E+01  0.99987406171E+01 -0.72569286472E+01  0.12924257823E+02  0.51100000000E-03 0. -1.
        -11    1    3    3    0    0  0.18614060460E+02  0.67528399639E+01  0.21912548334E+02  0.29533775057E+02  0.51100000000E-03 0.  1.
         12    1    3    3    0    0 -0.10778703722E+02 -0.41914211368E+01  0.12246193028E+02  0.16843922012E+02  0.00000000000E+00 0. -1.
</event>
<event>
 7    1  0.6061051E-012  0.5930194E+02  0.7816164E-02  0.1266605E+00
        -11   -1    0    0    0    0  0.00000000000E+00  0.00000000000E+00  0.45593999997E+02  0.45594000000E+02  0.51100000000E-03 0. -1.
         11   -1    0    0    0    0 -0.00000000000E+00 -0.00000000000E+00 -0.45593999997E+02  0.45594000000E+02  0.51100000000E-03 0.  1.
    9900012    2    1    2    0    0 -0.17496575455E+02 -0.10980956089E+02 -0.24290112092E+02  0.59301935729E+02  0.49999984864E+02 0.  0.
         12    1    1    2    0    0  0.17496575455E+02  0.10980956089E+02  0.24290112092E+02  0.31886064271E+02  0.00000000000E+00 0. -1.
         11    1    3    3    0    0  0.31168891368E+01 -0.10873075411E+02 -0.10632864066E+02  0.15524064072E+02  0.51100000000E-03 0. -1.
        -11    1    3    3    0    0 -0.21481981217E+02 -0.49581569213E+01 -0.23836319991E+02  0.32468892621E+02  0.51100000000E-03 0.  1.
        -12    1    3    3    0    0  0.86851662481E+00  0.48502762439E+01  0.10179071965E+02  0.11308979036E+02  0.00000000000E+00 0.  1.
</event>
<event>
 7    1  0.6061051E-012  0.5930194E+02  0.7816164E-02  0.1266605E+00
        -11   -1    0    0    0    0  0.00000000000E+00  0.00000000000E+00  0.45593999997E+02  0.45594000000E+02  0.51100000000E-03 0.  1.
         11   -1    0    0    0    0 -0.00000000000E+00 -0.00000000000E+00 -0.45593999997E+02  0.45594000000E+02  0.51100000000E-03 0. -1.
    9900012    2    1    2    0    0 -0.14004684301E+02  0.18484559994E+02  0.21884032663E+02  0.59301936804E+02  0.49999986826E+02 0.  0.
         12    1    1    2    0    0  0.14004684301E+02 -0.18484559994E+02 -0.21884032663E+02  0.31886063196E+02  0.00000000000E+00 0. -1.
         11    1    3    3    0    0 -0.81747424787E+00  0.19461146082E+02  0.12345640573E+02  0.23061207956E+02  0.51100000000E-03 0. -1.
        -11    1    3    3    0    0 -0.16215068018E+02  0.12227660224E+02  0.12235335184E+01  0.20345543490E+02  0.51100000000E-03 0.  1.
         12    1    3    3    0    0  0.30278579649E+01 -0.13204246312E+02  0.83148585708E+01  0.15895185358E+02  0.00000000000E+00 0. -1.
</event>
<event>
 7    1  0.6061051E-012  0.5930189E+02  0.7816164E-02  0.1266605E+00
        -11   -1    0    0    0    0  0.00000000000E+00  0.00000000000E+00  0.45593999997E+02  0.45594000000E+02  0.51100000000E-03 0.  1.
         11   -1    0    0    0    0 -0.00000000000E+00 -0.00000000000E+00 -0.45593999997E+02  0.45594000000E+02  0.51100000000E-03 0. -1.
    9900012    2    1    2    0    0  0.27368427438E+02  0.35208234471E+01  0.15978008813E+02  0.59301893561E+02  0.49999907962E+02 0.  0.
         12    1    1    2    0    0 -0.27368427438E+02 -0.35208234471E+01 -0.15978008813E+02  0.31886106439E+02  0.00000000000E+00 0. -1.
         11    1    3    3    0    0  0.58865799550E+01 -0.85336467360E+01  0.90223692512E+01  0.13743292813E+02  0.51100000000E-03 0. -1.
        -11    1    3    3    0    0  0.70222193695E+01  0.18398575201E+01  0.21471053452E+02  0.22665012182E+02  0.51100000000E-03 0.  1.
         12    1    3    3    0    0  0.14459628114E+02  0.10214612663E+02 -0.14515413891E+02  0.22893588567E+02  0.00000000000E+00 0. -1.
</event>
<event>
 7    1  0.6061051E-012  0.5930196E+02  0.7816164E-02  0.1266605E+00
        -11   -1    0    0    0    0  0.00000000000E+00  0.00000000000E+00  0.45593999997E+02  0.45594000000E+02  0.51100000000E-03 0.  1.
         11   -1    0    0    0    0 -0.00000000000E+00 -0.00000000000E+00 -0.45593999997E+02  0.45594000000E+02  0.51100000000E-03 0. -1.
    9900012    2    1    2    0    0  0.30587939543E+02  0.87463990905E+01 -0.21443432100E+01  0.59301956810E+02  0.50000023312E+02 0.  0.
         12    1    1    2    0    0 -0.30587939543E+02 -0.87463990905E+01  0.21443432100E+01  0.31886043190E+02  0.00000000000E+00 0. -1.
         11    1    3    3    0    0  0.38489285857E+01 -0.81707463581E+01  0.92712689938E+01  0.12943406674E+02  0.51100000000E-03 0. -1.
        -11    1    3    3    0    0 -0.12752182069E+01 -0.58320202157E+01 -0.81790908042E+01  0.10126014414E+02  0.51100000000E-03 0.  1.
        -12    1    3    3    0    0  0.28014229164E+02  0.22749165664E+02 -0.32365213997E+01  0.36232535722E+02  0.00000000000E+00 0.  1.
</event>
<event>
 7    1  0.6061051E-012  0.5930193E+02  0.7816164E-02  0.1266605E+00
        -11   -1    0    0    0    0  0.00000000000E+00  0.00000000000E+00  0.45593999997E+02  0.45594000000E+02  0.51100000000E-03 0.  1.
         11   -1    0    0    0    0 -0.00000000000E+00 -0.00000000000E+00 -0.45593999997E+02  0.45594000000E+02  0.51100000000E-03 0. -1.
    9900012    2    1    2    0    0  0.25250446042E+02 -0.18441436982E+02  0.62489810311E+01  0.59301931142E+02  0.49999976500E+02 0.  0.
         12    1    1    2    0    0 -0.25250446042E+02  0.18441436982E+02 -0.62489810311E+01  0.31886068858E+02  0.00000000000E+00 0. -1.
         11    1    3    3    0    0  0.43721623542E+01 -0.22638006386E+02  0.28620616530E+01  0.23233306565E+02  0.51100000000E-03 0. -1.
        -11    1    3    3    0    0 -0.53815847500E+01  0.49400621568E+01  0.62877757672E+01  0.96385576149E+01  0.51100000000E-03 0.  1.
         12    1    3    3    0    0  0.26259868438E+02 -0.74349275348E+00 -0.29008563892E+01  0.26430066962E+02  0.00000000000E+00 0. -1.
</event>
<event>
 7    1  0.6061051E-012  0.5930195E+02  0.7816164E-02  0.1266605E+00
        -11   -1    0    0    0    0  0.00000000000E+00  0.00000000000E+00  0.45593999997E+02  0.45594000000E+02  0.51100000000E-03 0.  1.
         11   -1    0    0    0    0 -0.00000000000E+00 -0.00000000000E+00 -0.45593999997E+02  0.45594000000E+02  0.51100000000E-03 0. -1.
    9900012    2    1    2    0    0 -0.16913565057E+02  0.10952202714E+02  0.24712364853E+02  0.59301946562E+02  0.50000004621E+02 0.  0.
         12    1    1    2    0    0  0.16913565057E+02 -0.10952202714E+02 -0.24712364853E+02  0.31886053438E+02  0.00000000000E+00 0. -1.
         11    1    3    3    0    0 -0.30104429297E+01  0.96995549534E+01 -0.40135931893E+01  0.10920305100E+02  0.51100000000E-03 0. -1.
        -11    1    3    3    0    0 -0.25784135100E+02  0.53717227328E+01  0.18746313558E+02  0.32328026544E+02  0.51100000000E-03 0.  1.
         12    1    3    3    0    0  0.11881012973E+02 -0.41190749723E+01  0.99796444848E+01  0.16053614918E+02  0.00000000000E+00 0. -1.
</event>
<event>
 7    1  0.6061051E-012  0.5930195E+02  0.7816164E-02  0.1266605E+00
        -11   -1    0    0    0    0  0.00000000000E+00  0.00000000000E+00  0.45593999997E+02  0.45594000000E+02  0.51100000000E-03 0.  1.
         11   -1    0    0    0    0 -0.00000000000E+00 -0.00000000000E+00 -0.45593999997E+02  0.45594000000E+02  0.51100000000E-03 0. -1.
    9900012    2    1    2    0    0  0.10843269893E+02  0.27202600485E+02  0.12615962896E+02  0.59301945134E+02  0.50000002018E+02 0.  0.
         12    1    1    2    0    0 -0.10843269893E+02 -0.27202600485E+02 -0.12615962896E+02  0.31886054866E+02  0.00000000000E+00 0. -1.
         11    1    3    3    0    0 -0.44601275191E+01  0.15734985808E+02  0.15188224829E+01  0.16425265230E+02  0.51100000000E-03 0. -1.
        -11    1    3    3    0    0  0.48933998079E+01  0.22435645743E+02  0.14785790771E+02  0.27311594069E+02  0.51100000000E-03 0.  1.
         12    1    3    3    0    0  0.10409997604E+02 -0.10968031067E+02 -0.36886503579E+01  0.15565085836E+02  0.00000000000E+00 0. -1.
</event>
<event>
 7    1  0.6061051E-012  0.5930197E+02  0.7816164E-02  0.1266605E+00
        -11   -1    0    0    0    0  0.00000000000E+00  0.00000000000E+00  0.45593999997E+02  0.45594000000E+02  0.51100000000E-03 0.  1.
         11   -1    0    0    0    0 -0.00000000000E+00 -0.00000000000E+00 -0.45593999997E+02  0.45594000000E+02  0.51100000000E-03 0. -1.
    9900012    2    1    2    0    0  0.27400999073E+02 -0.16251351973E+02 -0.13408181593E+01  0.59301968819E+02  0.50000045213E+02 0.  0.
         12    1    1    2    0    0 -0.27400999073E+02  0.16251351973E+02  0.13408181593E+01  0.31886031181E+02  0.00000000000E+00 0. -1.
         11    1    3    3    0    0  0.66008124719E+01 -0.21292225674E+01  0.11384669605E+02  0.13330979570E+02  0.51100000000E-03 0. -1.
        -11    1    3    3    0    0  0.18101307097E+02 -0.13919734226E+02  0.86550813714E+01  0.24419802484E+02  0.51100000000E-03 0.  1.
         12    1    3    3    0    0  0.26988795038E+01 -0.20239518014E+00 -0.21380569136E+02  0.21551186764E+02  0.00000000000E+00 0. -1.
</event>
<event>
 7    1  0.6061051E-012  0.5930191E+02  0.7816164E-02  0.1266605E+00
        -11   -1    0    0    0    0  0.00000000000E+00  0.00000000000E+00  0.45593999997E+02  0.45594000000E+02  0.51100000000E-03 0.  1.
         11   -1    0    0    0    0 -0.00000000000E+00 -0.00000000000E+00 -0.45593999997E+02  0.45594000000E+02  0.51100000000E-03 0. -1.
    9900012    2    1    2    0    0 -0.20635565740E+02  0.12417070913E+02 -0.20897671425E+02  0.59301907508E+02  0.49999933396E+02 0.  0.
         12    1    1    2    0    0  0.20635565740E+02 -0.12417070913E+02  0.20897671425E+02  0.31886092492E+02  0.00000000000E+00 0. -1.
         11    1    3    3    0    0 -0.44385144819E+01  0.12489916437E+02 -0.21708519343E+02  0.25435373709E+02  0.51100000000E-03 0. -1.
        -11    1    3    3    0    0  0.56990934940E+00  0.11575332839E+02  0.56375380835E+01  0.12887783475E+02  0.51100000000E-03 0.  1.
        -12    1    3    3    0    0 -0.16766960608E+02 -0.11648178363E+02 -0.48266901655E+01  0.20978750324E+02  0.00000000000E+00 0.  1.
</event>
<event>
 7    1  0.6061051E-012  0.5930192E+02  0.7816164E-02  0.1266605E+00
        -11   -1    0    0    0    0  0.00000000000E+00  0.00000000000E+00  0.45593999997E+02  0.45594000000E+02  0.51100000000E-03 0.  1.
         11   -1    0    0    0    0 -0.00000000000E+00 -0.00000000000E+00 -0.45593999997E+02  0.45594000000E+02  0.51100000000E-03 0. -1.
    9900012    2    1    2    0    0  0.50394506260E+01  0.15176076232E+02  0.27586459276E+02  0.59301920156E+02  0.49999956463E+02 0.  0.
         12    1    1    2    0    0 -0.50394506260E+01 -0.15176076232E+02 -0.27586459276E+02  0.31886079844E+02  0.00000000000E+00 0. -1.
         11    1    3    3    0    0  0.10956145887E+02 -0.71089663631E+01  0.11705164065E+02  0.17538112826E+02  0.51100000000E-03 0. -1.
        -11    1    3    3    0    0 -0.36463985475E+01  0.19497475537E+01  0.20395247350E+02  0.20810186271E+02  0.51100000000E-03 0.  1.
         12    1    3    3    0    0 -0.22702967134E+01  0.20335295042E+02 -0.45139521382E+01  0.20953621060E+02  0.00000000000E+00 0. -1.
</event>
<event>
 7    1  0.6061051E-012  0.5930194E+02  0.7816164E-02  0.1266605E+00
        -11   -1    0    0    0    0  0.00000000000E+00  0.00000000000E+00  0.45593999997E+02  0.45594000000E+02  0.51100000000E-03 0.  1.
         11   -1    0    0    0    0 -0.00000000000E+00 -0.00000000000E+00 -0.45593999997E+02  0.45594000000E+02  0.51100000000E-03 0. -1.
    9900012    2    1    2    0    0  0.60165360228E+01  0.20857620228E+02 -0.23355548589E+02  0.59301942277E+02  0.49999996806E+02 0.  0.
         12    1    1    2    0    0 -0.60165360228E+01 -0.20857620228E+02  0.23355548589E+02  0.31886057723E+02  0.00000000000E+00 0. -1.
         11    1    3    3    0    0 -0.11652799466E+01  0.12978470591E+02  0.11422065898E+02  0.17328074500E+02  0.51100000000E-03 0. -1.
        -11    1    3    3    0    0 -0.30411560281E+01  0.73931305205E+01 -0.29169302767E+01  0.85097292190E+01  0.51100000000E-03 0.  1.
         12    1    3    3    0    0  0.10222971998E+02  0.48601911604E+00 -0.31860684210E+02  0.33464138557E+02  0.00000000000E+00 0. -1.
</event>
<event>
 7    1  0.6061051E-012  0.5930204E+02  0.7816164E-02  0.1266604E+00
        -11   -1    0    0    0    0  0.00000000000E+00  0.00000000000E+00  0.45593999997E+02  0.45594000000E+02  0.51100000000E-03 0.  1.
         11   -1    0    0    0    0 -0.00000000000E+00 -0.00000000000E+00 -0.45593999997E+02  0.45594000000E+02  0.51100000000E-03 0. -1.
    9900012    2    1    2    0    0  0.59212257579E+01  0.49411227223E+00  0.31327455671E+02  0.59302038509E+02  0.50000172311E+02 0.  0.
         12    1    1    2    0    0 -0.59212257579E+01 -0.49411227223E+00 -0.31327455671E+02  0.31885961491E+02  0.00000000000E+00 0. -1.
         11    1    3    3    0    0 -0.12233045173E+02  0.80598281733E+01  0.12551049249E+02  0.19290854359E+02  0.51100000000E-03 0. -1.
        -11    1    3    3    0    0  0.10830354734E+02 -0.56579967472E+01  0.26509942863E+02  0.29190522122E+02  0.51100000000E-03 0.  1.
         12    1    3    3    0    0  0.73239161974E+01 -0.19077191539E+01 -0.77335364415E+01  0.10820662028E+02  0.00000000000E+00 0. -1.
</event>
<event>
 7    1  0.6061051E-012  0.5930194E+02  0.7816164E-02  0.1266605E+00
        -11   -1    0    0    0    0  0.00000000000E+00  0.00000000000E+00  0.45593999997E+02  0.45594000000E+02  0.51100000000E-03 0.  1.
         11   -1    0    0    0    0 -0.00000000000E+00 -0.00000000000E+00 -0.45593999997E+02  0.45594000000E+02  0.51100000000E-03 0. -1.
    9900012    2    1    2    0    0  0.27191214388E+02 -0.67371661552E+01  0.15230536712E+02  0.59301940409E+02  0.49999993400E+02 0.  0.
         12    1    1    2    0    0 -0.27191214388E+02  0.67371661552E+01 -0.15230536712E+02  0.31886059591E+02  0.00000000000E+00 0. -1.
         11    1    3    3    0    0  0.12899076799E+02  0.93751474470E+01  0.21027083318E+02  0.26389729158E+02  0.51100000000E-03 0.  1.
        -11    1    3    3    0    0  0.95875329410E+01  0.34710397777E+01 -0.75617876477E+01  0.12694468785E+02  0.51100000000E-03 0. -1.
         12    1    3    3    0    0  0.47046046483E+01 -0.19583353380E+02  0.17652410416E+01  0.20217742466E+02  0.00000000000E+00 0. -1.
</event>
<event>
 7    1  0.6061051E-012  0.5930193E+02  0.7816164E-02  0.1266605E+00
        -11   -1    0    0    0    0  0.00000000000E+00  0.00000000000E+00  0.45593999997E+02  0.45594000000E+02  0.51100000000E-03 0. -1.
         11   -1    0    0    0    0 -0.00000000000E+00 -0.00000000000E+00 -0.45593999997E+02  0.45594000000E+02  0.51100000000E-03 0.  1.
    9900012    2    1    2    0    0  0.88454677314E+01 -0.19409976092E+02 -0.23700889075E+02  0.59301927582E+02  0.49999970008E+02 0.  0.
         12    1    1    2    0    0 -0.88454677314E+01  0.19409976092E+02  0.23700889075E+02  0.31886072418E+02  0.00000000000E+00 0. -1.
         11    1    3    3    0    0  0.35105381092E+01 -0.10011787836E+02 -0.12512830258E+02  0.16405203285E+02  0.51100000000E-03 0. -1.
        -11    1    3    3    0    0  0.15649749223E+02 -0.12308997772E+02  0.75632619455E+01  0.21298568224E+02  0.51100000000E-03 0.  1.
         12    1    3    3    0    0 -0.10314819601E+02  0.29108095160E+01 -0.18751320763E+02  0.21598156074E+02  0.00000000000E+00 0. -1.
</event>
<event>
 7    1  0.6061051E-012  0.5930204E+02  0.7816164E-02  0.1266604E+00
        -11   -1    0    0    0    0  0.00000000000E+00  0.00000000000E+00  0.45593999997E+02  0.45594000000E+02  0.51100000000E-03 0. -1.
         11   -1    0    0    0    0 -0.00000000000E+00 -0.00000000000E+00 -0.45593999997E+02  0.45594000000E+02  0.51100000000E-03 0.  1.
    9900012    2    1    2    0    0  0.24969257710E+02  0.33482033516E+01 -0.19545843122E+02  0.59302042595E+02  0.50000179763E+02 0.  0.
         12    1    1    2    0    0 -0.24969257710E+02 -0.33482033516E+01  0.19545843122E+02  0.31885957405E+02  0.00000000000E+00 0. -1.
         11    1    3    3    0    0 -0.19182771470E+01  0.18088383153E+01 -0.73352674104E+01  0.77947310093E+01  0.51100000000E-03 0. -1.
        -11    1    3    3    0    0  0.19660036583E+02 -0.17175114295E+02 -0.16646147351E+02  0.30961198481E+02  0.51100000000E-03 0.  1.
         12    1    3    3    0    0  0.72274982741E+01  0.18714479332E+02  0.44355716394E+01  0.20546113105E+02  0.00000000000E+00 0. -1.
</event>
<event>
 7    1  0.6061051E-012  0.5930194E+02  0.7816164E-02  0.1266605E+00
        -11   -1    0    0    0    0  0.00000000000E+00  0.00000000000E+00  0.45593999997E+02  0.45594000000E+02  0.51100000000E-03 0.  1.
         11   -1    0    0    0    0 -0.00000000000E+00 -0.00000000000E+00 -0.45593999997E+02  0.45594000000E+02  0.51100000000E-03 0. -1.
    9900012    2    1    2    0    0 -0.11258373642E+02  0.15814888747E+02  0.25295435814E+02  0.59301941038E+02  0.49999994547E+02 0.  0.
         12    1    1    2    0    0  0.11258373642E+02 -0.15814888747E+02 -0.25295435814E+02  0.31886058962E+02  0.00000000000E+00 0. -1.
         11    1    3    3    0    0 -0.33809274988E+00  0.10618781923E+02  0.10253299996E+02  0.14764924561E+02  0.51100000000E-03 0. -1.
        -11    1    3    3    0    0  0.77187876969E+01  0.17511376404E+02  0.37340547597E+01  0.19497978158E+02  0.51100000000E-03 0.  1.
        -12    1    3    3    0    0 -0.18639068589E+02 -0.12315269580E+02  0.11308081059E+02  0.25039038318E+02  0.00000000000E+00 0.  1.
</event>
<event>
 7    1  0.6061051E-012  0.5930195E+02  0.7816164E-02  0.1266605E+00
        -11   -1    0    0    0    0  0.00000000000E+00  0.00000000000E+00  0.45593999997E+02  0.45594000000E+02  0.51100000000E-03 0.  1.
         11   -1    0    0    0    0 -0.00000000000E+00 -0.00000000000E+00 -0.45593999997E+02  0.45594000000E+02  0.51100000000E-03 0. -1.
    9900012    2    1    2    0    0  0.26283028960E+02  0.28700893437E+01  0.17823729591E+02  0.59301947239E+02  0.50000005857E+02 0.  0.
         12    1    1    2    0    0 -0.26283028960E+02 -0.28700893437E+01 -0.17823729591E+02  0.31886052761E+02  0.00000000000E+00 0. -1.
         11    1    3    3    0    0  0.13963570050E+02 -0.14534741775E+02  0.88797905617E+01  0.22024774407E+02  0.51100000000E-03 0. -1.
        -11    1    3    3    0    0  0.20007133912E+02  0.19135379346E+02  0.97603616563E+01  0.29354945240E+02  0.51100000000E-03 0.  1.
         12    1    3    3    0    0 -0.76876750029E+01 -0.17305482278E+01 -0.81642262681E+00  0.79222275923E+01  0.00000000000E+00 0. -1.
</event>
<event>
 7    1  0.6061051E-012  0.5930195E+02  0.7816164E-02  0.1266605E+00
        -11   -1    0    0    0    0  0.00000000000E+00  0.00000000000E+00  0.45593999997E+02  0.45594000000E+02  0.51100000000E-03 0.  1.
         11   -1    0    0    0    0 -0.00000000000E+00 -0.00000000000E+00 -0.45593999997E+02  0.45594000000E+02  0.51100000000E-03 0. -1.
    9900012    2    1    2    0    0  0.54915937131E+01  0.18683243714E+02  0.25248744765E+02  0.59301948043E+02  0.50000007322E+02 0.  0.
         12    1    1    2    0    0 -0.54915937131E+01 -0.18683243714E+02 -0.25248744765E+02  0.31886051957E+02  0.00000000000E+00 0. -1.
         11    1    3    3    0    0  0.31071318315E-01  0.87524368954E+00  0.28882960697E+02  0.28896235669E+02  0.51100000000E-03 0.  1.
        -11    1    3    3    0    0  0.10841815748E+02 -0.61854994337E+00 -0.26826429503E+01  0.11185890496E+02  0.51100000000E-03 0. -1.
        -12    1    3    3    0    0 -0.53812933528E+01  0.18426549968E+02 -0.95157298104E+00  0.19219821878E+02  0.00000000000E+00 0.  1.
</event>
<event>
 7    1  0.6061051E-012  0.5930194E+02  0.7816164E-02  0.1266605E+00
        -11   -1    0    0    0    0  0.00000000000E+00  0.00000000000E+00  0.45593999997E+02  0.45594000000E+02  0.51100000000E-03 0. -1.
         11   -1    0    0    0    0 -0.00000000000E+00 -0.00000000000E+00 -0.45593999997E+02  0.45594000000E+02  0.51100000000E-03 0.  1.
    9900012    2    1    2    0    0  0.32705965090E+01  0.30739227250E+02 -0.78181663301E+01  0.59301943201E+02  0.49999998492E+02 0.  0.
         12    1    1    2    0    0 -0.32705965090E+01 -0.30739227250E+02  0.78181663301E+01  0.31886056799E+02  0.00000000000E+00 0. -1.
         11    1    3    3    0    0 -0.15851526859E+01  0.87046382354E+01 -0.17583595728E+02  0.19684163046E+02  0.51100000000E-03 0. -1.
        -11    1    3    3    0    0  0.33706775822E+01  0.22854121228E+02 -0.59144309831E+01  0.23846442472E+02  0.51100000000E-03 0.  1.
         12    1    3    3    0    0  0.14850716127E+01 -0.81953221370E+00  0.15679860381E+02  0.15771337683E+02  0.00000000000E+00 0. -1.
</event>
<event>
 7    1  0.6061051E-012  0.5930187E+02  0.7816164E-02  0.1266605E+00
        -11   -1    0    0    0    0  0.00000000000E+00  0.00000000000E+00  0.45593999997E+02  0.45594000000E+02  0.51100000000E-03 0.  1.
         11   -1    0    0    0    0 -0.00000000000E+00 -0.00000000000E+00 -0.45593999997E+02  0.45594000000E+02  0.51100000000E-03 0. -1.
    9900012    2    1    2    0    0  0.61755775327E+01 -0.21200879430E+00  0.31281666318E+02  0.59301868952E+02  0.49999863080E+02 0.  0.
         12    1    1    2    0    0 -0.61755775327E+01  0.21200879430E+00 -0.31281666318E+02  0.31886131048E+02  0.00000000000E+00 0. -1.
         11    1    3    3    0    0  0.11971618141E+02  0.50761693484E+01  0.18363853116E+02  0.22501516342E+02  0.51100000000E-03 0.  1.
        -11    1    3    3    0    0 -0.33649856874E+01  0.93227106589E+01 -0.68871273127E+01  0.12069324156E+02  0.51100000000E-03 0. -1.
        -12    1    3    3    0    0 -0.24310549211E+01 -0.14610888802E+02  0.19804940514E+02  0.24731028453E+02  0.00000000000E+00 0.  1.
</event>
<event>
 7    1  0.6061051E-012  0.5930194E+02  0.7816164E-02  0.1266605E+00
        -11   -1    0    0    0    0  0.00000000000E+00  0.00000000000E+00  0.45593999997E+02  0.45594000000E+02  0.51100000000E-03 0. -1.
         11   -1    0    0    0    0 -0.00000000000E+00 -0.00000000000E+00 -0.45593999997E+02  0.45594000000E+02  0.51100000000E-03 0.  1.
    9900012    2    1    2    0    0 -0.57488755000E+01  0.24875041983E+02 -0.19102442453E+02  0.59301943629E+02  0.49999999273E+02 0.  0.
         12    1    1    2    0    0  0.57488755000E+01 -0.24875041983E+02  0.19102442453E+02  0.31886056371E+02  0.00000000000E+00 0. -1.
         11    1    3    3    0    0 -0.81814189276E+01  0.65551600548E+01  0.57606467199E+01  0.11962056257E+02  0.51100000000E-03 0. -1.
        -11    1    3    3    0    0 -0.45564806155E+01 -0.10056536208E+02 -0.74896416383E+01  0.13341295598E+02  0.51100000000E-03 0.  1.
        -12    1    3    3    0    0  0.69890240431E+01  0.28376418137E+02 -0.17373447535E+02  0.33998591774E+02  0.00000000000E+00 0.  1.
</event>
<event>
 7    1  0.6061051E-012  0.5930195E+02  0.7816164E-02  0.1266605E+00
        -11   -1    0    0    0    0  0.00000000000E+00  0.00000000000E+00  0.45593999997E+02  0.45594000000E+02  0.51100000000E-03 0.  1.
         11   -1    0    0    0    0 -0.00000000000E+00 -0.00000000000E+00 -0.45593999997E+02  0.45594000000E+02  0.51100000000E-03 0. -1.
    9900012    2    1    2    0    0 -0.27214086349E+02  0.16486366530E+02  0.20767977684E+01  0.59301954993E+02  0.50000019999E+02 0.  0.
         12    1    1    2    0    0  0.27214086349E+02 -0.16486366530E+02 -0.20767977684E+01  0.31886045007E+02  0.00000000000E+00 0. -1.
         11    1    3    3    0    0  0.33786633980E+01 -0.50435583601E+01 -0.87359274220E+01  0.10638104882E+02  0.51100000000E-03 0. -1.
        -11    1    3    3    0    0  0.32005888799E+01  0.10280205598E+02  0.70030490509E+01  0.12844029453E+02  0.51100000000E-03 0.  1.
         12    1    3    3    0    0 -0.33793338627E+02  0.11249719292E+02  0.38096761395E+01  0.35819820659E+02  0.00000000000E+00 0. -1.
</event>
<event>
 7    1  0.6061051E-012  0.5930194E+02  0.7816164E-02  0.1266605E+00
        -11   -1    0    0    0    0  0.00000000000E+00  0.00000000000E+00  0.45593999997E+02  0.45594000000E+02  0.51100000000E-03 0. -1.
         11   -1    0    0    0    0 -0.00000000000E+00 -0.00000000000E+00 -0.45593999997E+02  0.45594000000E+02  0.51100000000E-03 0.  1.
    9900012    2    1    2    0    0 -0.10765506519E+01  0.37135703977E+01 -0.31650774133E+02  0.59301936122E+02  0.49999985582E+02 0.  0.
         12    1    1    2    0    0  0.10765506519E+01 -0.37135703977E+01  0.31650774133E+02  0.31886063878E+02  0.00000000000E+00 0. -1.
         11    1    3    3    0    0  0.24433151435E+01 -0.12580843375E+01 -0.52587870305E+01  0.59335829298E+01  0.51100000000E-03 0. -1.
        -11    1    3    3    0    0 -0.75798054625E+01 -0.18553246145E+02 -0.20728498302E+02  0.28833089246E+02  0.51100000000E-03 0.  1.
         12    1    3    3    0    0  0.40599396670E+01  0.23524900880E+02 -0.56634888004E+01  0.24535263946E+02  0.00000000000E+00 0. -1.
</event>
<event>
 7    1  0.6061051E-012  0.5930196E+02  0.7816164E-02  0.1266605E+00
        -11   -1    0    0    0    0  0.00000000000E+00  0.00000000000E+00  0.45593999997E+02  0.45594000000E+02  0.51100000000E-03 0. -1.
         11   -1    0    0    0    0 -0.00000000000E+00 -0.00000000000E+00 -0.45593999997E+02  0.45594000000E+02  0.51100000000E-03 0.  1.
    9900012    2    1    2    0    0  0.19910615134E+02  0.70576600517E+01 -0.23884644563E+02  0.59301962204E+02  0.50000033149E+02 0.  0.
         12    1    1    2    0    0 -0.19910615134E+02 -0.70576600517E+01  0.23884644563E+02  0.31886037796E+02  0.00000000000E+00 0. -1.
         11    1    3    3    0    0 -0.26936648032E+01 -0.79328435976E+01  0.44877073269E+01  0.95039652214E+01  0.51100000000E-03 0. -1.
        -11    1    3    3    0    0  0.93000706967E+01 -0.69426852151E+01 -0.78094830038E-01  0.11605959332E+02  0.51100000000E-03 0.  1.
        -12    1    3    3    0    0  0.13304209241E+02  0.21933188864E+02 -0.28294257060E+02  0.38192037650E+02  0.00000000000E+00 0.  1.
</event>
<event>
 7    1  0.6061051E-012  0.5930191E+02  0.7816164E-02  0.1266605E+00
        -11   -1    0    0    0    0  0.00000000000E+00  0.00000000000E+00  0.45593999997E+02  0.45594000000E+02  0.51100000000E-03 0. -1.
         11   -1    0    0    0    0 -0.00000000000E+00 -0.00000000000E+00 -0.45593999997E+02  0.45594000000E+02  0.51100000000E-03 0.  1.
    9900012    2    1    2    0    0  0.24926248715E+02 -0.15385178189E+02 -0.12597666512E+02  0.59301909233E+02  0.49999936542E+02 0.  0.
         12    1    1    2    0    0 -0.24926248715E+02  0.15385178189E+02  0.12597666512E+02  0.31886090767E+02  0.00000000000E+00 0. -1.
         11    1    3    3    0    0  0.20952247425E+02 -0.16399274586E+02  0.87063284842E+01  0.27995232363E+02  0.51100000000E-03 0. -1.
        -11    1    3    3    0    0 -0.34020104969E+01  0.25906360093E+01  0.34087482812E+01  0.54685130940E+01  0.51100000000E-03 0.  1.
        -12    1    3    3    0    0  0.73760117860E+01 -0.15765396126E+01 -0.24712743277E+02  0.25838163776E+02  0.00000000000E+00 0.  1.
</event>
<event>
 7    1  0.6061051E-012  0.5930193E+02  0.7816164E-02  0.1266605E+00
        -11   -1    0    0    0    0  0.00000000000E+00  0.00000000000E+00  0.45593999997E+02  0.45594000000E+02  0.51100000000E-03 0. -1.
         11   -1    0    0    0    0 -0.00000000000E+00 -0.00000000000E+00 -0.45593999997E+02  0.45594000000E+02  0.51100000000E-03 0.  1.
    9900012    2    1    2    0    0  0.31662963011E+01 -0.27965530288E+02 -0.14987492321E+02  0.59301933409E+02  0.49999980634E+02 0.  0.
         12    1    1    2    0    0 -0.31662963011E+01  0.27965530288E+02  0.14987492321E+02  0.31886066591E+02  0.00000000000E+00 0. -1.
         11    1    3    3    0    0 -0.12844741146E+01  0.15996732429E+01  0.57418697485E+01  0.60973680146E+01  0.51100000000E-03 0. -1.
        -11    1    3    3    0    0  0.71506804845E+01  0.18751349948E+01  0.77407357315E+01  0.10703613996E+02  0.51100000000E-03 0.  1.
        -12    1    3    3    0    0 -0.26999100688E+01 -0.31440338526E+02 -0.28470097801E+02  0.42500951399E+02  0.00000000000E+00 0.  1.
</event>
<event>
 7    1  0.6061051E-012  0.5930194E+02  0.7816164E-02  0.1266605E+00
        -11   -1    0    0    0    0  0.00000000000E+00  0.00000000000E+00  0.45593999997E+02  0.45594000000E+02  0.51100000000E-03 0.  1.
         11   -1    0    0    0    0 -0.00000000000E+00 -0.00000000000E+00 -0.45593999997E+02  0.45594000000E+02  0.51100000000E-03 0. -1.
    9900012    2    1    2    0    0 -0.11016365250E+02 -0.29900040312E+02 -0.11611643176E+01  0.59301936954E+02  0.49999987100E+02 0.  0.
         12    1    1    2    0    0  0.11016365250E+02  0.29900040312E+02  0.11611643176E+01  0.31886063046E+02  0.00000000000E+00 0. -1.
         11    1    3    3    0    0 -0.18046827370E+02 -0.92515278642E+01 -0.10186032860E+02  0.22694360790E+02  0.51100000000E-03 0. -1.
        -11    1    3    3    0    0 -0.27828075895E+01 -0.13622432182E+02 -0.77686768419E+01  0.15926927411E+02  0.51100000000E-03 0.  1.
         12    1    3    3    0    0  0.98132697097E+01 -0.70260802660E+01  0.16793545384E+02  0.20680648754E+02  0.00000000000E+00 0. -1.
</event>
<event>
 7    1  0.6061051E-012  0.5930205E+02  0.7816164E-02  0.1266604E+00
        -11   -1    0    0    0    0  0.00000000000E+00  0.00000000000E+00  0.45593999997E+02  0.45594000000E+02  0.51100000000E-03 0. -1.
         11   -1    0    0    0    0 -0.00000000000E+00 -0.00000000000E+00 -0.45593999997E+02  0.45594000000E+02  0.51100000000E-03 0.  1.
    9900012    2    1    2    0    0  0.24972049644E+01 -0.31580304012E+02 -0.36279731615E+01  0.59302049749E+02  0.50000192810E+02 0.  0.
         12    1    1    2    0    0 -0.24972049644E+01  0.31580304012E+02  0.36279731615E+01  0.31885950251E+02  0.00000000000E+00 0. -1.
         11    1    3    3    0    0 -0.61184870588E+01  0.82183796161E+01 -0.37904905590E+01  0.10924535063E+02  0.51100000000E-03 0. -1.
        -11    1    3    3    0    0  0.76032673086E+01 -0.10503468841E+02 -0.11007428108E+02  0.17008703809E+02  0.51100000000E-03 0.  1.
        -12    1    3    3    0    0  0.10124247146E+01 -0.29295214788E+02  0.11169945505E+02  0.31368810877E+02  0.00000000000E+00 0.  1.
</event>
<event>
 7    1  0.6061051E-012  0.5930197E+02  0.7816164E-02  0.1266605E+00
        -11   -1    0    0    0    0  0.00000000000E+00  0.00000000000E+00  0.45593999997E+02  0.45594000000E+02  0.51100000000E-03 0. -1.
         11   -1    0    0    0    0 -0.00000000000E+00 -0.00000000000E+00 -0.45593999997E+02  0.45594000000E+02  0.51100000000E-03 0.  1.
    9900012    2    1    2    0    0  0.27764678991E+02 -0.15429508302E+02 -0.27878012400E+01  0.59301969176E+02  0.50000045865E+02 0.  0.
         12    1    1    2    0    0 -0.27764678991E+02  0.15429508302E+02  0.27878012400E+01  0.31886030824E+02  0.00000000000E+00 0. -1.
         11    1    3    3    0    0  0.23069244940E+02 -0.32870948431E+01  0.18415976127E+02  0.29700896141E+02  0.51100000000E-03 0. -1.
        -11    1    3    3    0    0 -0.48506436470E+01  0.24002824084E+00 -0.66977338969E+01  0.82732095925E+01  0.51100000000E-03 0.  1.
        -12    1    3    3    0    0  0.95460776987E+01 -0.12382441700E+02 -0.14506043470E+02  0.21327863443E+02  0.00000000000E+00 0.  1.
</event>
<event>
 7    1  0.6061051E-012  0.5930192E+02  0.7816164E-02  0.1266605E+00
        -11   -1    0    0    0    0  0.00000000000E+00  0.00000000000E+00  0.45593999997E+02  0.45594000000E+02  0.51100000000E-03 0.  1.
         11   -1    0    0    0    0 -0.00000000000E+00 -0.00000000000E+00 -0.45593999997E+02  0.45594000000E+02  0.51100000000E-03 0. -1.
    9900012    2    1    2    0    0 -0.16314716876E+02 -0.14941521522E+02  0.22963077310E+02  0.59301921977E+02  0.49999959785E+02 0.  0.
         12    1    1    2    0    0  0.16314716876E+02  0.14941521522E+02 -0.22963077310E+02  0.31886078023E+02  0.00000000000E+00 0. -1.
         11    1    3    3    0    0 -0.52909455673E+01 -0.12682599795E+02  0.49228237328E+01  0.14597144801E+02  0.51100000000E-03 0. -1.
        -11    1    3    3    0    0 -0.17643002020E+02 -0.76333479957E+01  0.26470549943E+02  0.32714423981E+02  0.51100000000E-03 0.  1.
         12    1    3    3    0    0  0.66192307114E+01  0.53744262690E+01 -0.84302963659E+01  0.11990353195E+02  0.00000000000E+00 0. -1.
</event>
<event>
 7    1  0.6061051E-012  0.5930195E+02  0.7816164E-02  0.1266605E+00
        -11   -1    0    0    0    0  0.00000000000E+00  0.00000000000E+00  0.45593999997E+02  0.45594000000E+02  0.51100000000E-03 0. -1.
         11   -1    0    0    0    0 -0.00000000000E+00 -0.00000000000E+00 -0.45593999997E+02  0.45594000000E+02  0.51100000000E-03 0.  1.
    9900012    2    1    2    0    0 -0.62097902672E+01  0.55440174865E+01 -0.30780232908E+02  0.59301947204E+02  0.50000005792E+02 0.  0.
         12    1    1    2    0    0  0.62097902672E+01 -0.55440174865E+01  0.30780232908E+02  0.31886052796E+02  0.00000000000E+00 0. -1.
         11    1    3    3    0    0  0.29432818776E+01 -0.19507961071E+01  0.27089044781E+00  0.35414538763E+01  0.51100000000E-03 0. -1.
        -11    1    3    3    0    0 -0.87077317309E+01 -0.12717866829E+02  0.34290451094E+01  0.15790094338E+02  0.51100000000E-03 0.  1.
        -12    1    3    3    0    0 -0.44534041392E+00  0.20212680423E+02 -0.34480168465E+02  0.39970398989E+02  0.00000000000E+00 0.  1.
</event>
<event>
 7    1  0.6061051E-012  0.5930217E+02  0.7816164E-02  0.1266604E+00
        -11   -1    0    0    0    0  0.00000000000E+00  0.00000000000E+00  0.45593999997E+02  0.45594000000E+02  0.51100000000E-03 0. -1.
         11   -1    0    0    0    0 -0.00000000000E+00 -0.00000000000E+00 -0.45593999997E+02  0.45594000000E+02  0.51100000000E-03 0.  1.
    9900012    2    1    2    0    0 -0.20227943847E+02  0.63502154211E+01 -0.23816190506E+02  0.59302174334E+02  0.50000420022E+02 0.  0.
         12    1    1    2    0    0  0.20227943847E+02 -0.63502154211E+01  0.23816190506E+02  0.31885825666E+02  0.00000000000E+00 0. -1.
         11    1    3    3    0    0 -0.40988390383E+01  0.25595768516E+01 -0.11802974646E+02  0.12753906299E+02  0.51100000000E-03 0.  1.
        -11    1    3    3    0    0 -0.28132289225E+02 -0.68239279055E+01 -0.77408519897E+01  0.29965187784E+02  0.51100000000E-03 0. -1.
         12    1    3    3    0    0  0.12003184417E+02  0.10614566475E+02 -0.42723638696E+01  0.16583080251E+02  0.00000000000E+00 0. -1.
</event>
<event>
 7    1  0.6061051E-012  0.5930194E+02  0.7816164E-02  0.1266605E+00
        -11   -1    0    0    0    0  0.00000000000E+00  0.00000000000E+00  0.45593999997E+02  0.45594000000E+02  0.51100000000E-03 0. -1.
         11   -1    0    0    0    0 -0.00000000000E+00 -0.00000000000E+00 -0.45593999997E+02  0.45594000000E+02  0.51100000000E-03 0.  1.
    9900012    2    1    2    0    0 -0.28819621013E+02  0.12719033897E+02 -0.49372811970E+01  0.59301935266E+02  0.49999984021E+02 0.  0.
         12    1    1    2    0    0  0.28819621013E+02 -0.12719033897E+02  0.49372811970E+01  0.31886064734E+02  0.00000000000E+00 0. -1.
         11    1    3    3    0    0 -0.11298286589E+02 -0.40566698298E+01 -0.55444968529E+01  0.13223059236E+02  0.51100000000E-03 0. -1.
        -11    1    3    3    0    0 -0.73300655080E+00  0.33045462171E+01 -0.17577720396E+02  0.17900658616E+02  0.51100000000E-03 0.  1.
        -12    1    3    3    0    0 -0.16788327873E+02  0.13471157510E+02  0.18184936052E+02  0.28178217414E+02  0.00000000000E+00 0.  1.
</event>
<event>
 7    1  0.6061051E-012  0.5930194E+02  0.7816164E-02  0.1266605E+00
        -11   -1    0    0    0    0  0.00000000000E+00  0.00000000000E+00  0.45593999997E+02  0.45594000000E+02  0.51100000000E-03 0.  1.
         11   -1    0    0    0    0 -0.00000000000E+00 -0.00000000000E+00 -0.45593999997E+02  0.45594000000E+02  0.51100000000E-03 0. -1.
    9900012    2    1    2    0    0 -0.20167834308E+02 -0.15962318188E+02  0.18846316673E+02  0.59301940433E+02  0.49999993444E+02 0.  0.
         12    1    1    2    0    0  0.20167834308E+02  0.15962318188E+02 -0.18846316673E+02  0.31886059567E+02  0.00000000000E+00 0. -1.
         11    1    3    3    0    0 -0.17221029590E+02  0.29243973004E+00  0.49012928238E+01  0.17907318413E+02  0.51100000000E-03 0. -1.
        -11    1    3    3    0    0  0.17135584220E+01  0.16606188195E+01  0.21330913524E+02  0.21463965369E+02  0.51100000000E-03 0.  1.
         12    1    3    3    0    0 -0.46603631398E+01 -0.17915376737E+02 -0.73858896754E+01  0.19930656651E+02  0.00000000000E+00 0. -1.
</event>
<event>
 7    1  0.6061051E-012  0.5930194E+02  0.7816164E-02  0.1266605E+00
        -11   -1    0    0    0    0  0.00000000000E+00  0.00000000000E+00  0.45593999997E+02  0.45594000000E+02  0.51100000000E-03 0. -1.
         11   -1    0    0    0    0 -0.00000000000E+00 -0.00000000000E+00 -0.45593999997E+02  0.45594000000E+02  0.51100000000E-03 0.  1.
    9900012    2    1    2    0    0 -0.10545642300E+02 -0.21613958998E+02  0.20936740749E+02  0.59301938652E+02  0.49999990196E+02 0.  0.
         12    1    1    2    0    0  0.10545642300E+02  0.21613958998E+02 -0.20936740749E+02  0.31886061348E+02  0.00000000000E+00 0. -1.
         11    1    3    3    0    0 -0.67656230136E+01  0.43643821489E+01  0.13230052745E+02  0.15487278076E+02  0.51100000000E-03 0. -1.
        -11    1    3    3    0    0  0.25879577456E+01  0.48344789584E+01 -0.71572435769E+01  0.90164210179E+01  0.51100000000E-03 0.  1.
         12    1    3    3    0    0 -0.63679770318E+01 -0.30812820105E+02  0.14863931581E+02  0.34798239558E+02  0.00000000000E+00 0. -1.
</event>
<event>
 7    1  0.6061051E-012  0.5930197E+02  0.7816164E-02  0.1266605E+00
        -11   -1    0    0    0    0  0.00000000000E+00  0.00000000000E+00  0.45593999997E+02  0.45594000000E+02  0.51100000000E-03 0.  1.
         11   -1    0    0    0    0 -0.00000000000E+00 -0.00000000000E+00 -0.45593999997E+02  0.45594000000E+02  0.51100000000E-03 0. -1.
    9900012    2    1    2    0    0 -0.20012895442E+02 -0.15817877092E+02  0.19131068639E+02  0.59301968467E+02  0.50000044571E+02 0.  0.
         12    1    1    2    0    0  0.20012895442E+02  0.15817877092E+02 -0.19131068639E+02  0.31886031533E+02  0.00000000000E+00 0. -1.
         11    1    3    3    0    0  0.69691286213E+01  0.52805504166E+00 -0.74982619795E+01  0.10250440422E+02  0.51100000000E-03 0. -1.
        -11    1    3    3    0    0 -0.95135191101E+01  0.71604818084E+01  0.76308342130E+01  0.14142460063E+02  0.51100000000E-03 0.  1.
        -12    1    3    3    0    0 -0.17468504953E+02 -0.23506413942E+02  0.18998496405E+02  0.34909067982E+02  0.00000000000E+00 0.  1.
</event>
<event>
 7    1  0.6061051E-012  0.5930199E+02  0.7816164E-02  0.1266605E+00
        -11   -1    0    0    0    0  0.00000000000E+00  0.00000000000E+00  0.45593999997E+02  0.45594000000E+02  0.51100000000E-03 0. -1.
         11   -1    0    0    0    0 -0.00000000000E+00 -0.00000000000E+00 -0.45593999997E+02  0.45594000000E+02  0.51100000000E-03 0.  1.
    9900012    2    1    2    0    0 -0.16458155338E+02  0.23266540592E+02 -0.14300879112E+02  0.59301985329E+02  0.50000075323E+02 0.  0.
         12    1    1    2    0    0  0.16458155338E+02 -0.23266540592E+02  0.14300879112E+02  0.31886014671E+02  0.00000000000E+00 0. -1.
         11    1    3    3    0    0 -0.21775349369E+02  0.11347694970E+02 -0.14478702682E+02  0.28505593362E+02  0.51100000000E-03 0. -1.
        -11    1    3    3    0    0  0.73214378090E+00  0.12966550110E+02 -0.12036902174E+02  0.17707469341E+02  0.51100000000E-03 0.  1.
         12    1    3    3    0    0  0.45850502502E+01 -0.10477044882E+01  0.12214725744E+02  0.13088922626E+02  0.00000000000E+00 0. -1.
</event>
<event>
 7    1  0.6061051E-012  0.5930197E+02  0.7816164E-02  0.1266605E+00
        -11   -1    0    0    0    0  0.00000000000E+00  0.00000000000E+00  0.45593999997E+02  0.45594000000E+02  0.51100000000E-03 0.  1.
         11   -1    0    0    0    0 -0.00000000000E+00 -0.00000000000E+00 -0.45593999997E+02  0.45594000000E+02  0.51100000000E-03 0. -1.
    9900012    2    1    2    0    0 -0.18341208714E+02 -0.10780702897E+02  0.23750693445E+02  0.59301969655E+02  0.50000046738E+02 0.  0.
         12    1    1    2    0    0  0.18341208714E+02  0.10780702897E+02 -0.23750693445E+02  0.31886030345E+02  0.00000000000E+00 0. -1.
         11    1    3    3    0    0 -0.19323300988E+01 -0.16258799597E+02  0.50017990007E+01  0.17120176910E+02  0.51100000000E-03 0. -1.
        -11    1    3    3    0    0 -0.20784496003E+02 -0.54419276801E+01  0.21179564654E+02  0.30169252728E+02  0.51100000000E-03 0.  1.
         12    1    3    3    0    0  0.43756173878E+01  0.10920024380E+02 -0.24306702097E+01  0.12012540017E+02  0.00000000000E+00 0. -1.
</event>
<event>
 7    1  0.6061051E-012  0.5930199E+02  0.7816164E-02  0.1266605E+00
        -11   -1    0    0    0    0  0.00000000000E+00  0.00000000000E+00  0.45593999997E+02  0.45594000000E+02  0.51100000000E-03 0.  1.
         11   -1    0    0    0    0 -0.00000000000E+00 -0.00000000000E+00 -0.45593999997E+02  0.45594000000E+02  0.51100000000E-03 0. -1.
    9900012    2    1    2    0    0  0.22708024437E+02 -0.70691701650E+01  0.21238887312E+02  0.59301986217E+02  0.50000076944E+02 0.  0.
         12    1    1    2    0    0 -0.22708024437E+02  0.70691701650E+01 -0.21238887312E+02  0.31886013783E+02  0.00000000000E+00 0. -1.
         11    1    3    3    0    0 -0.87501406258E+01  0.36969423846E+01  0.26387900749E+01  0.98587807201E+01  0.51100000000E-03 0. -1.
        -11    1    3    3    0    0  0.12671559878E+02 -0.10522503123E+02 -0.68253799222E+01  0.17829114197E+02  0.51100000000E-03 0.  1.
        -12    1    3    3    0    0  0.18786605185E+02 -0.24360942692E+00  0.25425477160E+02  0.31614091300E+02  0.00000000000E+00 0.  1.
</event>
<event>
 7    1  0.6061051E-012  0.5930197E+02  0.7816164E-02  0.1266605E+00
        -11   -1    0    0    0    0  0.00000000000E+00  0.00000000000E+00  0.45593999997E+02  0.45594000000E+02  0.51100000000E-03 0. -1.
         11   -1    0    0    0    0 -0.00000000000E+00 -0.00000000000E+00 -0.45593999997E+02  0.45594000000E+02  0.51100000000E-03 0.  1.
    9900012    2    1    2    0    0 -0.15371212153E+02  0.16226302193E+02 -0.22740974134E+02  0.59301969352E+02  0.50000046186E+02 0.  0.
         12    1    1    2    0    0  0.15371212153E+02 -0.16226302193E+02  0.22740974134E+02  0.31886030648E+02  0.00000000000E+00 0. -1.
         11    1    3    3    0    0  0.24101894968E+01  0.57051106521E+01 -0.95933274815E+01  0.11418810507E+02  0.51100000000E-03 0. -1.
        -11    1    3    3    0    0 -0.58244687479E+01 -0.53753896298E+01 -0.23964282477E+02  0.25240960456E+02  0.51100000000E-03 0.  1.
         12    1    3    3    0    0 -0.11956932902E+02  0.15896581170E+02  0.10816635824E+02  0.22642198389E+02  0.00000000000E+00 0. -1.
</event>
<event>
 7    1  0.6061051E-012  0.5930193E+02  0.7816164E-02  0.1266605E+00
        -11   -1    0    0    0    0  0.00000000000E+00  0.00000000000E+00  0.45593999997E+02  0.45594000000E+02  0.51100000000E-03 0. -1.
         11   -1    0    0    0    0 -0.00000000000E+00 -0.00000000000E+00 -0.45593999997E+02  0.45594000000E+02  0.51100000000E-03 0.  1.
    9900012    2    1    2    0    0 -0.31038675509E+02 -0.14559273987E+01 -0.71555639584E+01  0.59301934117E+02  0.49999981925E+02 0.  0.
         12    1    1    2    0    0  0.31038675509E+02  0.14559273987E+01  0.71555639584E+01  0.31886065883E+02  0.00000000000E+00 0. -1.
         11    1    3    3    0    0 -0.62792935988E+01 -0.91047694720E+01  0.45844839035E+01  0.11972629125E+02  0.51100000000E-03 0. -1.
        -11    1    3    3    0    0  0.69925325992E+00 -0.12463016149E+02 -0.76196633486E+01  0.14624465681E+02  0.51100000000E-03 0.  1.
         12    1    3    3    0    0 -0.25458635170E+02  0.20111858222E+02 -0.41203845132E+01  0.32704839311E+02  0.00000000000E+00 0. -1.
</event>
<event>
 7    1  0.6061051E-012  0.5930201E+02  0.7816164E-02  0.1266605E+00
        -11   -1    0    0    0    0  0.00000000000E+00  0.00000000000E+00  0.45593999997E+02  0.45594000000E+02  0.51100000000E-03 0. -1.
         11   -1    0    0    0    0 -0.00000000000E+00 -0.00000000000E+00 -0.45593999997E+02  0.45594000000E+02  0.51100000000E-03 0.  1.
    9900012    2    1    2    0    0 -0.50191190718E+01 -0.18620023736E+02 -0.25393299178E+02  0.59302008039E+02  0.50000116741E+02 0.  0.
         12    1    1    2    0    0  0.50191190718E+01  0.18620023736E+02  0.25393299178E+02  0.31885991961E+02  0.00000000000E+00 0. -1.
         11    1    3    3    0    0  0.77097445431E+00 -0.87122909899E+01 -0.21446130158E+02  0.23161064632E+02  0.51100000000E-03 0. -1.
        -11    1    3    3    0    0  0.81690403295E+01  0.35684312628E+01 -0.12155069589E+02  0.15073574180E+02  0.51100000000E-03 0.  1.
         12    1    3    3    0    0 -0.13959133856E+02 -0.13476164009E+02  0.82079005685E+01  0.21067369227E+02  0.00000000000E+00 0. -1.
</event>
<event>
 7    1  0.6061051E-012  0.5930195E+02  0.7816164E-02  0.1266605E+00
        -11   -1    0    0    0    0  0.00000000000E+00  0.00000000000E+00  0.45593999997E+02  0.45594000000E+02  0.51100000000E-03 0.  1.
         11   -1    0    0    0    0 -0.00000000000E+00 -0.00000000000E+00 -0.45593999997E+02  0.45594000000E+02  0.51100000000E-03 0. -1.
    9900012    2    1    2    0    0 -0.76201073791E+01 -0.12857038794E+02  0.28166476965E+02  0.59301954343E+02  0.50000018813E+02 0.  0.
         12    1    1    2    0    0  0.76201073791E+01  0.12857038794E+02 -0.28166476965E+02  0.31886045657E+02  0.00000000000E+00 0. -1.
         11    1    3    3    0    0 -0.14075214084E+01 -0.11322772411E+02  0.49188147699E+01  0.12425016322E+02  0.51100000000E-03 0. -1.
        -11    1    3    3    0    0  0.16579438042E+02 -0.35304989094E+01  0.14751524515E+02  0.22471085068E+02  0.51100000000E-03 0.  1.
         12    1    3    3    0    0 -0.22792024013E+02  0.19962325268E+01  0.84961376802E+01  0.24405852954E+02  0.00000000000E+00 0. -1.
</event>
<event>
 7    1  0.6061051E-012  0.5930193E+02  0.7816164E-02  0.1266605E+00
        -11   -1    0    0    0    0  0.00000000000E+00  0.00000000000E+00  0.45593999997E+02  0.45594000000E+02  0.51100000000E-03 0.  1.
         11   -1    0    0    0    0 -0.00000000000E+00 -0.00000000000E+00 -0.45593999997E+02  0.45594000000E+02  0.51100000000E-03 0. -1.
    9900012    2    1    2    0    0  0.18303206162E+02 -0.25787416790E+02  0.40893943437E+01  0.59301931465E+02  0.49999977089E+02 0.  0.
         12    1    1    2    0    0 -0.18303206162E+02  0.25787416790E+02 -0.40893943437E+01  0.31886068535E+02  0.00000000000E+00 0. -1.
         11    1    3    3    0    0  0.74388466486E+01  0.34656962902E+01 -0.58314450712E+01  0.10067434734E+02  0.51100000000E-03 0. -1.
        -11    1    3    3    0    0  0.73727159316E+01  0.24508170446E+01  0.15042338143E+02  0.16930309550E+02  0.51100000000E-03 0.  1.
         12    1    3    3    0    0  0.34916435817E+01 -0.31703930124E+02 -0.51214987282E+01  0.32304187182E+02  0.00000000000E+00 0. -1.
</event>
<event>
 7    1  0.6061051E-012  0.5930194E+02  0.7816164E-02  0.1266605E+00
        -11   -1    0    0    0    0  0.00000000000E+00  0.00000000000E+00  0.45593999997E+02  0.45594000000E+02  0.51100000000E-03 0. -1.
         11   -1    0    0    0    0 -0.00000000000E+00 -0.00000000000E+00 -0.45593999997E+02  0.45594000000E+02  0.51100000000E-03 0.  1.
    9900012    2    1    2    0    0  0.12357022111E+02  0.29199347816E+02  0.33797910368E+01  0.59301938848E+02  0.49999990553E+02 0.  0.
         12    1    1    2    0    0 -0.12357022111E+02 -0.29199347816E+02 -0.33797910368E+01  0.31886061152E+02  0.00000000000E+00 0. -1.
         11    1    3    3    0    0  0.39430300109E+01  0.13401322719E+02  0.87945232662E+01  0.16507167414E+02  0.51100000000E-03 0.  1.
        -11    1    3    3    0    0  0.98413832245E+01  0.29955565409E+01  0.15278852038E+02  0.18419269872E+02  0.51100000000E-03 0. -1.
         12    1    3    3    0    0 -0.14273911241E+01  0.12802468556E+02 -0.20693584267E+02  0.24375501562E+02  0.00000000000E+00 0. -1.
</event>
<event>
 7    1  0.6061051E-012  0.5930193E+02  0.7816164E-02  0.1266605E+00
        -11   -1    0    0    0    0  0.00000000000E+00  0.00000000000E+00  0.45593999997E+02  0.45594000000E+02  0.51100000000E-03 0.  1.
         11   -1    0    0    0    0 -0.00000000000E+00 -0.00000000000E+00 -0.45593999997E+02  0.45594000000E+02  0.51100000000E-03 0. -1.
    9900012    2    1    2    0    0 -0.54501124897E+01 -0.25939219106E+02  0.17724970884E+02  0.59301930834E+02  0.49999975939E+02 0.  0.
         12    1    1    2    0    0  0.54501124897E+01  0.25939219106E+02 -0.17724970884E+02  0.31886069166E+02  0.00000000000E+00 0. -1.
         11    1    3    3    0    0  0.11046728795E+02 -0.14012750322E+02 -0.70801725988E+01  0.19196776629E+02  0.51100000000E-03 0. -1.
        -11    1    3    3    0    0 -0.26496249307E+01 -0.15808788914E+02  0.18281236348E+02  0.24313410330E+02  0.51100000000E-03 0.  1.
        -12    1    3    3    0    0 -0.13847216354E+02  0.38823201290E+01  0.65239071350E+01  0.15791743876E+02  0.00000000000E+00 0.  1.
</event>
<event>
 7    1  0.6061051E-012  0.5930194E+02  0.7816164E-02  0.1266605E+00
        -11   -1    0    0    0    0  0.00000000000E+00  0.00000000000E+00  0.45593999997E+02  0.45594000000E+02  0.51100000000E-03 0.  1.
         11   -1    0    0    0    0 -0.00000000000E+00 -0.00000000000E+00 -0.45593999997E+02  0.45594000000E+02  0.51100000000E-03 0. -1.
    9900012    2    1    2    0    0 -0.15519873864E+02 -0.22191014338E+02  0.16834881042E+02  0.59301940008E+02  0.49999992669E+02 0.  0.
         12    1    1    2    0    0  0.15519873864E+02  0.22191014338E+02 -0.16834881042E+02  0.31886059992E+02  0.00000000000E+00 0. -1.
         11    1    3    3    0    0 -0.13024765538E+02  0.72820501290E+01  0.24243455418E+01  0.15117877594E+02  0.51100000000E-03 0. -1.
        -11    1    3    3    0    0 -0.12509556520E+02 -0.22921588851E+02  0.17970134802E+02  0.31698801000E+02  0.51100000000E-03 0.  1.
         12    1    3    3    0    0  0.10014448193E+02 -0.65514756160E+01 -0.35595993017E+01  0.12485261413E+02  0.00000000000E+00 0. -1.
</event>
<event>
 7    1  0.6061051E-012  0.5930195E+02  0.7816164E-02  0.1266605E+00
        -11   -1    0    0    0    0  0.00000000000E+00  0.00000000000E+00  0.45593999997E+02  0.45594000000E+02  0.51100000000E-03 0.  1.
         11   -1    0    0    0    0 -0.00000000000E+00 -0.00000000000E+00 -0.45593999997E+02  0.45594000000E+02  0.51100000000E-03 0. -1.
    9900012    2    1    2    0    0 -0.16269951778E+02 -0.98893099368E+01  0.25577539656E+02  0.59301947928E+02  0.50000007114E+02 0.  0.
         12    1    1    2    0    0  0.16269951778E+02  0.98893099368E+01 -0.25577539656E+02  0.31886052072E+02  0.00000000000E+00 0. -1.
         11    1    3    3    0    0  0.78804740544E+01  0.74213920122E+01 -0.51658437998E+01  0.11994368393E+02  0.51100000000E-03 0. -1.
        -11    1    3    3    0    0 -0.86600150762E-01 -0.72891186833E+01  0.15454813107E+02  0.17087714862E+02  0.51100000000E-03 0.  1.
        -12    1    3    3    0    0 -0.24063825682E+02 -0.10021583266E+02  0.15288570349E+02  0.30219864674E+02  0.00000000000E+00 0.  1.
</event>
<event>
 7    1  0.6061051E-012  0.5930195E+02  0.7816164E-02  0.1266605E+00
        -11   -1    0    0    0    0  0.00000000000E+00  0.00000000000E+00  0.45593999997E+02  0.45594000000E+02  0.51100000000E-03 0.  1.
         11   -1    0    0    0    0 -0.00000000000E+00 -0.00000000000E+00 -0.45593999997E+02  0.45594000000E+02  0.51100000000E-03 0. -1.
    9900012    2    1    2    0    0  0.61410030589E+00 -0.20857112310E+02  0.24110657577E+02  0.59301951924E+02  0.50000014401E+02 0.  0.
         12    1    1    2    0    0 -0.61410030589E+00  0.20857112310E+02 -0.24110657577E+02  0.31886048076E+02  0.00000000000E+00 0. -1.
         11    1    3    3    0    0  0.13478555594E+01  0.98991658337E+01  0.24000236499E+01  0.10274741485E+02  0.51100000000E-03 0. -1.
        -11    1    3    3    0    0  0.85481234905E+01 -0.19286952326E+02 -0.19039900262E+01  0.21182118013E+02  0.51100000000E-03 0.  1.
        -12    1    3    3    0    0 -0.92818787440E+01 -0.11469325817E+02  0.23614623954E+02  0.27845092426E+02  0.00000000000E+00 0.  1.
</event>
<event>
 7    1  0.6061051E-012  0.5930191E+02  0.7816164E-02  0.1266605E+00
        -11   -1    0    0    0    0  0.00000000000E+00  0.00000000000E+00  0.45593999997E+02  0.45594000000E+02  0.51100000000E-03 0. -1.
         11   -1    0    0    0    0 -0.00000000000E+00 -0.00000000000E+00 -0.45593999997E+02  0.45594000000E+02  0.51100000000E-03 0.  1.
    9900012    2    1    2    0    0 -0.57939432767E+01 -0.28932187384E+02 -0.12086425920E+02  0.59301906840E+02  0.49999932178E+02 0.  0.
         12    1    1    2    0    0  0.57939432767E+01  0.28932187384E+02  0.12086425920E+02  0.31886093160E+02  0.00000000000E+00 0. -1.
         11    1    3    3    0    0 -0.75066047863E+01  0.22955723761E+01  0.94343336434E+01  0.12272954799E+02  0.51100000000E-03 0. -1.
        -11    1    3    3    0    0 -0.36358808524E+01 -0.20830865673E+02  0.15107079061E+01  0.21199689453E+02  0.51100000000E-03 0.  1.
        -12    1    3    3    0    0  0.53485423621E+01 -0.10396894087E+02 -0.23031467469E+02  0.25829262588E+02  0.00000000000E+00 0.  1.
</event>
<event>
 7    1  0.6061051E-012  0.5930195E+02  0.7816164E-02  0.1266605E+00
        -11   -1    0    0    0    0  0.00000000000E+00  0.00000000000E+00  0.45593999997E+02  0.45594000000E+02  0.51100000000E-03 0.  1.
         11   -1    0    0    0    0 -0.00000000000E+00 -0.00000000000E+00 -0.45593999997E+02  0.45594000000E+02  0.51100000000E-03 0. -1.
    9900012    2    1    2    0    0 -0.26419441515E+01 -0.35137735067E+01  0.31581540334E+02  0.59301950338E+02  0.50000011509E+02 0.  0.
         12    1    1    2    0    0  0.26419441515E+01  0.35137735067E+01 -0.31581540334E+02  0.31886049662E+02  0.00000000000E+00 0. -1.
         11    1    3    3    0    0 -0.15927813242E+01  0.20588542323E+01 -0.56542106794E+01  0.62246230219E+01  0.51100000000E-03 0. -1.
        -11    1    3    3    0    0 -0.44431621136E+01  0.54516379536E-01 -0.70353801110E+01  0.83211318443E+01  0.51100000000E-03 0.  1.
        -12    1    3    3    0    0  0.33939992863E+01 -0.56271441186E+01  0.44271131125E+02  0.44756195472E+02  0.00000000000E+00 0.  1.
</event>
<event>
 7    1  0.6061051E-012  0.5930194E+02  0.7816164E-02  0.1266605E+00
        -11   -1    0    0    0    0  0.00000000000E+00  0.00000000000E+00  0.45593999997E+02  0.45594000000E+02  0.51100000000E-03 0.  1.
         11   -1    0    0    0    0 -0.00000000000E+00 -0.00000000000E+00 -0.45593999997E+02  0.45594000000E+02  0.51100000000E-03 0. -1.
    9900012    2    1    2    0    0  0.22886257920E+02  0.21960596556E+02  0.32668229474E+01  0.59301941371E+02  0.49999995155E+02 0.  0.
         12    1    1    2    0    0 -0.22886257920E+02 -0.21960596556E+02 -0.32668229474E+01  0.31886058629E+02  0.00000000000E+00 0. -1.
         11    1    3    3    0    0  0.79460998459E+01 -0.38523594841E+01 -0.20011668043E+01  0.90546035360E+01  0.51100000000E-03 0. -1.
        -11    1    3    3    0    0  0.57339786873E+01 -0.78206293002E+01  0.11265590475E+02  0.14864531047E+02  0.51100000000E-03 0.  1.
         12    1    3    3    0    0  0.92061793872E+01  0.33633585340E+02 -0.59976007234E+01  0.35382806788E+02  0.00000000000E+00 0. -1.
</event>
<event>
 7    1  0.6061051E-012  0.5930193E+02  0.7816164E-02  0.1266605E+00
        -11   -1    0    0    0    0  0.00000000000E+00  0.00000000000E+00  0.45593999997E+02  0.45594000000E+02  0.51100000000E-03 0. -1.
         11   -1    0    0    0    0 -0.00000000000E+00 -0.00000000000E+00 -0.45593999997E+02  0.45594000000E+02  0.51100000000E-03 0.  1.
    9900012    2    1    2    0    0  0.10965440538E+02  0.15687676399E+02 -0.25502493429E+02  0.59301933324E+02  0.49999980479E+02 0.  0.
         12    1    1    2    0    0 -0.10965440538E+02 -0.15687676399E+02  0.25502493429E+02  0.31886066676E+02  0.00000000000E+00 0. -1.
         11    1    3    3    0    0 -0.89286904623E+01 -0.64014155100E+01 -0.14871899408E+00  0.10987345062E+02  0.51100000000E-03 0. -1.
        -11    1    3    3    0    0 -0.30615239848E+01 -0.26057832477E+01 -0.10923633708E+02  0.11639966026E+02  0.51100000000E-03 0.  1.
        -12    1    3    3    0    0  0.22955654985E+02  0.24694875157E+02 -0.14430140726E+02  0.36674622236E+02  0.00000000000E+00 0.  1.
</event>
<event>
 7    1  0.6061051E-012  0.5930195E+02  0.7816164E-02  0.1266605E+00
        -11   -1    0    0    0    0  0.00000000000E+00  0.00000000000E+00  0.45593999997E+02  0.45594000000E+02  0.51100000000E-03 0.  1.
         11   -1    0    0    0    0 -0.00000000000E+00 -0.00000000000E+00 -0.45593999997E+02  0.45594000000E+02  0.51100000000E-03 0. -1.
    9900012    2    1    2    0    0 -0.69698142896E+01  0.24226215592E+02  0.19525171088E+02  0.59301950712E+02  0.50000012191E+02 0.  0.
         12    1    1    2    0    0  0.69698142896E+01 -0.24226215592E+02 -0.19525171088E+02  0.31886049288E+02  0.00000000000E+00 0. -1.
         11    1    3    3    0    0  0.70312604533E+01  0.28714519861E+02  0.85660884806E+01  0.30778891249E+02  0.51100000000E-03 0.  1.
        -11    1    3    3    0    0  0.80442895008E+00  0.45706475886E+01 -0.35959276890E+01  0.58709983410E+01  0.51100000000E-03 0. -1.
         12    1    3    3    0    0 -0.14805503693E+02 -0.90589518570E+01  0.14555010296E+02  0.22652061122E+02  0.00000000000E+00 0. -1.
</event>
<event>
 7    1  0.6061051E-012  0.5930198E+02  0.7816164E-02  0.1266605E+00
        -11   -1    0    0    0    0  0.00000000000E+00  0.00000000000E+00  0.45593999997E+02  0.45594000000E+02  0.51100000000E-03 0.  1.
         11   -1    0    0    0    0 -0.00000000000E+00 -0.00000000000E+00 -0.45593999997E+02  0.45594000000E+02  0.51100000000E-03 0. -1.
    9900012    2    1    2    0    0  0.25937787308E+02  0.68892818864E+01 -0.17218814406E+02  0.59301975084E+02  0.50000056640E+02 0.  0.
         12    1    1    2    0    0 -0.25937787308E+02 -0.68892818864E+01  0.17218814406E+02  0.31886024916E+02  0.00000000000E+00 0. -1.
         11    1    3    3    0    0  0.18810694904E+02  0.97821759129E+01  0.50958008731E+01  0.21805971548E+02  0.51100000000E-03 0. -1.
        -11    1    3    3    0    0  0.17322262485E+02 -0.39431428841E+01 -0.70572468012E+01  0.19115801999E+02  0.51100000000E-03 0.  1.
         12    1    3    3    0    0 -0.10195170081E+02  0.10502488576E+01 -0.15257368478E+02  0.18380201537E+02  0.00000000000E+00 0. -1.
</event>
<event>
 7    1  0.6061051E-012  0.5930191E+02  0.7816164E-02  0.1266605E+00
        -11   -1    0    0    0    0  0.00000000000E+00  0.00000000000E+00  0.45593999997E+02  0.45594000000E+02  0.51100000000E-03 0. -1.
         11   -1    0    0    0    0 -0.00000000000E+00 -0.00000000000E+00 -0.45593999997E+02  0.45594000000E+02  0.51100000000E-03 0.  1.
    9900012    2    1    2    0    0  0.20431442418E+02 -0.55560947004E+01 -0.23841318158E+02  0.59301914020E+02  0.49999945273E+02 0.  0.
         12    1    1    2    0    0 -0.20431442418E+02  0.55560947004E+01  0.23841318158E+02  0.31886085980E+02  0.00000000000E+00 0. -1.
         11    1    3    3    0    0 -0.39043747104E+01 -0.92505526895E+01  0.66124602698E+00  0.10062510299E+02  0.51100000000E-03 0. -1.
        -11    1    3    3    0    0 -0.40168945328E+01 -0.41814781041E+01 -0.18259666425E+02  0.19158173688E+02  0.51100000000E-03 0.  1.
        -12    1    3    3    0    0  0.28352711661E+02  0.78759360932E+01 -0.62428977598E+01  0.30081230034E+02  0.00000000000E+00 0.  1.
</event>
<event>
 7    1  0.6061051E-012  0.5930191E+02  0.7816164E-02  0.1266605E+00
        -11   -1    0    0    0    0  0.00000000000E+00  0.00000000000E+00  0.45593999997E+02  0.45594000000E+02  0.51100000000E-03 0.  1.
         11   -1    0    0    0    0 -0.00000000000E+00 -0.00000000000E+00 -0.45593999997E+02  0.45594000000E+02  0.51100000000E-03 0. -1.
    9900012    2    1    2    0    0 -0.15137534818E+02 -0.27440765559E+02 -0.58806509855E+01  0.59301911641E+02  0.49999940934E+02 0.  0.
         12    1    1    2    0    0  0.15137534818E+02  0.27440765559E+02  0.58806509855E+01  0.31886088359E+02  0.00000000000E+00 0. -1.
         11    1    3    3    0    0 -0.82350798712E+01  0.55637395203E+01  0.10668568218E+02  0.14580469335E+02  0.51100000000E-03 0. -1.
        -11    1    3    3    0    0 -0.41919488680E+00 -0.15138500607E+02  0.50374806651E+01  0.15960142126E+02  0.51100000000E-03 0.  1.
         12    1    3    3    0    0 -0.64832600599E+01 -0.17866004472E+02 -0.21586699869E+02  0.28761300180E+02  0.00000000000E+00 0. -1.
</event>
<event>
 7    1  0.6061051E-012  0.5930196E+02  0.7816164E-02  0.1266605E+00
        -11   -1    0    0    0    0  0.00000000000E+00  0.00000000000E+00  0.45593999997E+02  0.45594000000E+02  0.51100000000E-03 0.  1.
         11   -1    0    0    0    0 -0.00000000000E+00 -0.00000000000E+00 -0.45593999997E+02  0.45594000000E+02  0.51100000000E-03 0. -1.
    9900012    2    1    2    0    0  0.24289193714E+02  0.18458830582E+02  0.92750419772E+01  0.59301956636E+02  0.50000022994E+02 0.  0.
         12    1    1    2    0    0 -0.24289193714E+02 -0.18458830582E+02 -0.92750419772E+01  0.31886043364E+02  0.00000000000E+00 0. -1.
         11    1    3    3    0    0  0.56521395395E+01  0.12752653501E+02  0.10621647174E+02  0.17532719174E+02  0.51100000000E-03 0. -1.
        -11    1    3    3    0    0  0.17113586719E+02  0.78853852676E+01  0.15693926458E+02  0.24522509642E+02  0.51100000000E-03 0.  1.
         12    1    3    3    0    0  0.15234674557E+01 -0.21792081865E+01 -0.17040531655E+02  0.17246727820E+02  0.00000000000E+00 0. -1.
</event>
<event>
 7    1  0.6061051E-012  0.5930196E+02  0.7816164E-02  0.1266605E+00
        -11   -1    0    0    0    0  0.00000000000E+00  0.00000000000E+00  0.45593999997E+02  0.45594000000E+02  0.51100000000E-03 0. -1.
         11   -1    0    0    0    0 -0.00000000000E+00 -0.00000000000E+00 -0.45593999997E+02  0.45594000000E+02  0.51100000000E-03 0.  1.
    9900012    2    1    2    0    0 -0.29968012267E+02  0.10065995555E+02 -0.41609326899E+01  0.59301962513E+02  0.50000033712E+02 0.  0.
         12    1    1    2    0    0  0.29968012267E+02 -0.10065995555E+02  0.41609326899E+01  0.31886037487E+02  0.00000000000E+00 0. -1.
         11    1    3    3    0    0 -0.54941704595E+01 -0.10357280491E+02  0.11730087601E+02  0.16584755760E+02  0.51100000000E-03 0. -1.
        -11    1    3    3    0    0  0.40415316840E+01  0.66571198339E+01 -0.48919440748E+01  0.91968657666E+01  0.51100000000E-03 0.  1.
         12    1    3    3    0    0 -0.28515373492E+02  0.13766156213E+02 -0.10999076216E+02  0.33520340987E+02  0.00000000000E+00 0. -1.
</event>
<event>
 7    1  0.6061051E-012  0.5930193E+02  0.7816164E-02  0.1266605E+00
        -11   -1    0    0    0    0  0.00000000000E+00  0.00000000000E+00  0.45593999997E+02  0.45594000000E+02  0.51100000000E-03 0. -1.
         11   -1    0    0    0    0 -0.00000000000E+00 -0.00000000000E+00 -0.45593999997E+02  0.45594000000E+02  0.51100000000E-03 0.  1.
    9900012    2    1    2    0    0 -0.29577188371E+01  0.30197489585E+02 -0.98022936850E+01  0.59301930323E+02  0.49999975005E+02 0.  0.
         12    1    1    2    0    0  0.29577188371E+01 -0.30197489585E+02  0.98022936850E+01  0.31886069677E+02  0.00000000000E+00 0. -1.
         11    1    3    3    0    0 -0.13944378844E+02  0.27521571892E+02 -0.53764366558E+01  0.31317546074E+02  0.51100000000E-03 0. -1.
        -11    1    3    3    0    0  0.60631092594E+01  0.13897763915E+02 -0.71166213920E+00  0.15179446597E+02  0.51100000000E-03 0.  1.
         12    1    3    3    0    0  0.49235507471E+01 -0.11221846222E+02 -0.37141948900E+01  0.12804937652E+02  0.00000000000E+00 0. -1.
</event>
<event>
 7    1  0.6061051E-012  0.5930194E+02  0.7816164E-02  0.1266605E+00
        -11   -1    0    0    0    0  0.00000000000E+00  0.00000000000E+00  0.45593999997E+02  0.45594000000E+02  0.51100000000E-03 0.  1.
         11   -1    0    0    0    0 -0.00000000000E+00 -0.00000000000E+00 -0.45593999997E+02  0.45594000000E+02  0.51100000000E-03 0. -1.
    9900012    2    1    2    0    0  0.10198002928E+02  0.29716519121E+02  0.54451859128E+01  0.59301940004E+02  0.49999992663E+02 0.  0.
         12    1    1    2    0    0 -0.10198002928E+02 -0.29716519121E+02 -0.54451859128E+01  0.31886059996E+02  0.00000000000E+00 0. -1.
         11    1    3    3    0    0  0.95599243806E+00 -0.84691749101E+01  0.60325766511E+00  0.85442826072E+01  0.51100000000E-03 0. -1.
        -11    1    3    3    0    0  0.52014727767E+01  0.82398207106E+01  0.15843342563E+02  0.18600039468E+02  0.51100000000E-03 0.  1.
        -12    1    3    3    0    0  0.40405377133E+01  0.29945873321E+02 -0.11001414315E+02  0.32157617929E+02  0.00000000000E+00 0.  1.
</event>
<event>
 7    1  0.6061051E-012  0.5930194E+02  0.7816164E-02  0.1266605E+00
        -11   -1    0    0    0    0  0.00000000000E+00  0.00000000000E+00  0.45593999997E+02  0.45594000000E+02  0.51100000000E-03 0.  1.
         11   -1    0    0    0    0 -0.00000000000E+00 -0.00000000000E+00 -0.45593999997E+02  0.45594000000E+02  0.51100000000E-03 0. -1.
    9900012    2    1    2    0    0  0.10291511377E+02 -0.18508921793E+02  0.23837477942E+02  0.59301941181E+02  0.49999994809E+02 0.  0.
         12    1    1    2    0    0 -0.10291511377E+02  0.18508921793E+02 -0.23837477942E+02  0.31886058819E+02  0.00000000000E+00 0. -1.
         11    1    3    3    0    0 -0.21612297197E+01  0.24607393544E+01 -0.83210804110E+01  0.89424007704E+01  0.51100000000E-03 0. -1.
        -11    1    3    3    0    0 -0.70133835022E+01 -0.17665532118E+02  0.15452982321E+02  0.24495984080E+02  0.51100000000E-03 0.  1.
        -12    1    3    3    0    0  0.19466124599E+02 -0.33041290291E+01  0.16705576032E+02  0.25863556331E+02  0.00000000000E+00 0.  1.
</event>
<event>
 7    1  0.6061051E-012  0.5930182E+02  0.7816164E-02  0.1266605E+00
        -11   -1    0    0    0    0  0.00000000000E+00  0.00000000000E+00  0.45593999997E+02  0.45594000000E+02  0.51100000000E-03 0. -1.
         11   -1    0    0    0    0 -0.00000000000E+00 -0.00000000000E+00 -0.45593999997E+02  0.45594000000E+02  0.51100000000E-03 0.  1.
    9900012    2    1    2    0    0 -0.13180491008E+02  0.85976510923E+01 -0.27732352776E+02  0.59301822148E+02  0.49999777720E+02 0.  0.
         12    1    1    2    0    0  0.13180491008E+02 -0.85976510923E+01  0.27732352776E+02  0.31886177852E+02  0.00000000000E+00 0. -1.
         11    1    3    3    0    0 -0.13093326719E+02 -0.70624150864E+01 -0.25664180440E+02  0.29664171476E+02  0.51100000000E-03 0. -1.
        -11    1    3    3    0    0 -0.78509252790E+01 -0.23949195190E+01  0.39145572161E+01  0.90937575126E+01  0.51100000000E-03 0.  1.
        -12    1    3    3    0    0  0.77637609905E+01  0.18054985698E+02 -0.59827295521E+01  0.20543893160E+02  0.00000000000E+00 0.  1.
</event>
<event>
 7    1  0.6061051E-012  0.5930195E+02  0.7816164E-02  0.1266605E+00
        -11   -1    0    0    0    0  0.00000000000E+00  0.00000000000E+00  0.45593999997E+02  0.45594000000E+02  0.51100000000E-03 0.  1.
         11   -1    0    0    0    0 -0.00000000000E+00 -0.00000000000E+00 -0.45593999997E+02  0.45594000000E+02  0.51100000000E-03 0. -1.
    9900012    2    1    2    0    0 -0.22074099911E+02 -0.39555748653E+01  0.22667326956E+02  0.59301950217E+02  0.50000011288E+02 0.  0.
         12    1    1    2    0    0  0.22074099911E+02  0.39555748653E+01 -0.22667326956E+02  0.31886049783E+02  0.00000000000E+00 0. -1.
         11    1    3    3    0    0  0.49228745219E+01  0.46102416627E+00  0.15981566233E+01  0.51962815257E+01  0.51100000000E-03 0. -1.
        -11    1    3    3    0    0  0.18571403668E+01  0.93929039637E+00  0.24473553532E+02  0.24561882248E+02  0.51100000000E-03 0.  1.
         12    1    3    3    0    0 -0.28854114800E+02 -0.53558894280E+01 -0.34043831996E+01  0.29543786444E+02  0.00000000000E+00 0. -1.
</event>
<event>
 7    1  0.6061051E-012  0.5930207E+02  0.7816164E-02  0.1266604E+00
        -11   -1    0    0    0    0  0.00000000000E+00  0.00000000000E+00  0.45593999997E+02  0.45594000000E+02  0.51100000000E-03 0. -1.
         11   -1    0    0    0    0 -0.00000000000E+00 -0.00000000000E+00 -0.45593999997E+02  0.45594000000E+02  0.51100000000E-03 0.  1.
    9900012    2    1    2    0    0 -0.17337316288E+02  0.13724776146E+02 -0.22973036049E+02  0.59302072044E+02  0.50000233470E+02 0.  0.
         12    1    1    2    0    0  0.17337316288E+02 -0.13724776146E+02  0.22973036049E+02  0.31885927956E+02  0.00000000000E+00 0. -1.
         11    1    3    3    0    0 -0.28858451797E+01  0.12289586259E+02 -0.29946650122E+01  0.12974207167E+02  0.51100000000E-03 0. -1.
        -11    1    3    3    0    0 -0.22731767969E+02  0.12472988136E+02 -0.58528050991E+01  0.26581272276E+02  0.51100000000E-03 0.  1.
         12    1    3    3    0    0  0.82802968603E+01 -0.11037798248E+02 -0.14125565938E+02  0.19746592600E+02  0.00000000000E+00 0. -1.
</event>
<event>
 7    1  0.6061051E-012  0.5930193E+02  0.7816164E-02  0.1266605E+00
        -11   -1    0    0    0    0  0.00000000000E+00  0.00000000000E+00  0.45593999997E+02  0.45594000000E+02  0.51100000000E-03 0.  1.
         11   -1    0    0    0    0 -0.00000000000E+00 -0.00000000000E+00 -0.45593999997E+02  0.45594000000E+02  0.51100000000E-03 0. -1.
    9900012    2    1    2    0    0  0.16982985974E+02  0.25467561461E+02  0.89276556931E+01  0.59301928816E+02  0.49999972257E+02 0.  0.
         12    1    1    2    0    0 -0.16982985974E+02 -0.25467561461E+02 -0.89276556931E+01  0.31886071184E+02  0.00000000000E+00 0. -1.
         11    1    3    3    0    0  0.15623013478E+02 -0.80629961948E+01  0.26194907193E+01  0.17775044013E+02  0.51100000000E-03 0. -1.
        -11    1    3    3    0    0  0.10769838236E+02  0.95665188293E+01 -0.18417942860E+01  0.14522393212E+02  0.51100000000E-03 0.  1.
        -12    1    3    3    0    0 -0.94098657405E+01  0.23964038827E+02  0.81499592598E+01  0.27004491591E+02  0.00000000000E+00 0.  1.
</event>
<event>
 7    1  0.6061051E-012  0.5930196E+02  0.7816164E-02  0.1266605E+00
        -11   -1    0    0    0    0  0.00000000000E+00  0.00000000000E+00  0.45593999997E+02  0.45594000000E+02  0.51100000000E-03 0. -1.
         11   -1    0    0    0    0 -0.00000000000E+00 -0.00000000000E+00 -0.45593999997E+02  0.45594000000E+02  0.51100000000E-03 0.  1.
    9900012    2    1    2    0    0 -0.30140136643E+02  0.10403085892E+02  0.25940794271E+00  0.59301963473E+02  0.50000035464E+02 0.  0.
         12    1    1    2    0    0  0.30140136643E+02 -0.10403085892E+02 -0.25940794271E+00  0.31886036527E+02  0.00000000000E+00 0. -1.
         11    1    3    3    0    0  0.74426374140E+01  0.93173498016E+01 -0.45322094638E+01  0.12757224694E+02  0.51100000000E-03 0. -1.
        -11    1    3    3    0    0 -0.60709569266E+01  0.16881719318E+01  0.12588104872E+02  0.14077173971E+02  0.51100000000E-03 0.  1.
        -12    1    3    3    0    0 -0.31511817130E+02 -0.60243584150E+00 -0.77964874658E+01  0.32467564808E+02  0.00000000000E+00 0.  1.
</event>
<event>
 7    1  0.6061051E-012  0.5930192E+02  0.7816164E-02  0.1266605E+00
        -11   -1    0    0    0    0  0.00000000000E+00  0.00000000000E+00  0.45593999997E+02  0.45594000000E+02  0.51100000000E-03 0.  1.
         11   -1    0    0    0    0 -0.00000000000E+00 -0.00000000000E+00 -0.45593999997E+02  0.45594000000E+02  0.51100000000E-03 0. -1.
    9900012    2    1    2    0    0 -0.36643519340E+01  0.30975634092E+02 -0.66185056714E+01  0.59301921536E+02  0.49999958980E+02 0.  0.
         12    1    1    2    0    0  0.36643519340E+01 -0.30975634092E+02  0.66185056714E+01  0.31886078464E+02  0.00000000000E+00 0. -1.
         11    1    3    3    0    0  0.13359735805E+02  0.22279242962E+01  0.44301360131E+01  0.14250343603E+02  0.51100000000E-03 0.  1.
        -11    1    3    3    0    0 -0.59378834436E+00 -0.54916951102E+01 -0.27821790793E+01  0.61848056131E+01  0.51100000000E-03 0. -1.
        -12    1    3    3    0    0 -0.16430299395E+02  0.34239404906E+02 -0.82664626052E+01  0.38866772319E+02  0.00000000000E+00 0.  1.
</event>
<event>
 7    1  0.6061051E-012  0.5930193E+02  0.7816164E-02  0.1266605E+00
        -11   -1    0    0    0    0  0.00000000000E+00  0.00000000000E+00  0.45593999997E+02  0.45594000000E+02  0.51100000000E-03 0.  1.
         11   -1    0    0    0    0 -0.00000000000E+00 -0.00000000000E+00 -0.45593999997E+02  0.45594000000E+02  0.51100000000E-03 0. -1.
    9900012    2    1    2    0    0  0.13551692511E+02  0.35673059168E+01  0.28641705765E+02  0.59301931717E+02  0.49999977549E+02 0.  0.
         12    1    1    2    0    0 -0.13551692511E+02 -0.35673059168E+01 -0.28641705765E+02  0.31886068283E+02  0.00000000000E+00 0. -1.
         11    1    3    3    0    0 -0.56678585437E+01 -0.13059660525E+02  0.88928465467E-01  0.14236827668E+02  0.51100000000E-03 0. -1.
        -11    1    3    3    0    0  0.15200259442E+01 -0.40584040457E+01  0.13018114891E+02  0.13720511574E+02  0.51100000000E-03 0.  1.
         12    1    3    3    0    0  0.17699525110E+02  0.20685370488E+02  0.15534662408E+02  0.31344592476E+02  0.00000000000E+00 0. -1.
</event>
<event>
 7    1  0.6061051E-012  0.5930195E+02  0.7816164E-02  0.1266605E+00
        -11   -1    0    0    0    0  0.00000000000E+00  0.00000000000E+00  0.45593999997E+02  0.45594000000E+02  0.51100000000E-03 0.  1.
         11   -1    0    0    0    0 -0.00000000000E+00 -0.00000000000E+00 -0.45593999997E+02  0.45594000000E+02  0.51100000000E-03 0. -1.
    9900012    2    1    2    0    0  0.28985213864E+02  0.10004889373E+01  0.13250533185E+02  0.59301949279E+02  0.50000009577E+02 0.  0.
         12    1    1    2    0    0 -0.28985213864E+02 -0.10004889373E+01 -0.13250533185E+02  0.31886050721E+02  0.00000000000E+00 0. -1.
         11    1    3    3    0    0 -0.58031186344E+01 -0.30386607872E+01  0.61240399966E+01  0.89673581063E+01  0.51100000000E-03 0. -1.
        -11    1    3    3    0    0  0.20443026999E+01 -0.80627065419E+00  0.15931949108E+02  0.16082793555E+02  0.51100000000E-03 0.  1.
        -12    1    3    3    0    0  0.32744029799E+02  0.48454203787E+01 -0.88054559189E+01  0.34251797618E+02  0.00000000000E+00 0.  1.
</event>
<event>
 7    1  0.6061051E-012  0.5930191E+02  0.7816164E-02  0.1266605E+00
        -11   -1    0    0    0    0  0.00000000000E+00  0.00000000000E+00  0.45593999997E+02  0.45594000000E+02  0.51100000000E-03 0. -1.
         11   -1    0    0    0    0 -0.00000000000E+00 -0.00000000000E+00 -0.45593999997E+02  0.45594000000E+02  0.51100000000E-03 0.  1.
    9900012    2    1    2    0    0  0.82934417995E+01  0.20847388922E+02 -0.22656742853E+02  0.59301909013E+02  0.49999936141E+02 0.  0.
         12    1    1    2    0    0 -0.82934417995E+01 -0.20847388922E+02  0.22656742853E+02  0.31886090987E+02  0.00000000000E+00 0. -1.
         11    1    3    3    0    0 -0.34385901962E+01  0.26511900502E+01 -0.20127475644E+00  0.43466335259E+01  0.51100000000E-03 0. -1.
        -11    1    3    3    0    0 -0.33488780574E+01  0.25809911991E+02 -0.26958386540E+02  0.37471604534E+02  0.51100000000E-03 0.  1.
         12    1    3    3    0    0  0.15080910053E+02 -0.76137131190E+01  0.45029184442E+01  0.17483670953E+02  0.00000000000E+00 0. -1.
</event>
<event>
 7    1  0.6061051E-012  0.5930194E+02  0.7816164E-02  0.1266605E+00
        -11   -1    0    0    0    0  0.00000000000E+00  0.00000000000E+00  0.45593999997E+02  0.45594000000E+02  0.51100000000E-03 0.  1.
         11   -1    0    0    0    0 -0.00000000000E+00 -0.00000000000E+00 -0.45593999997E+02  0.45594000000E+02  0.51100000000E-03 0. -1.
    9900012    2    1    2    0    0  0.21805591418E+02  0.24793634831E+01  0.23132006446E+02  0.59301940623E+02  0.49999993791E+02 0.  0.
         12    1    1    2    0    0 -0.21805591418E+02 -0.24793634831E+01 -0.23132006446E+02  0.31886059377E+02  0.00000000000E+00 0. -1.
         11    1    3    3    0    0  0.64577187534E+00  0.13033405656E+02  0.10787488747E+01  0.13093906358E+02  0.51100000000E-03 0. -1.
        -11    1    3    3    0    0  0.13640429836E+02  0.73167994876E+01  0.21901290306E+02  0.26819086453E+02  0.51100000000E-03 0.  1.
         12    1    3    3    0    0  0.75193897067E+01 -0.17870841661E+02  0.15196726576E+00  0.19388947812E+02  0.00000000000E+00 0. -1.
</event>
<event>
 7    1  0.6061051E-012  0.5930193E+02  0.7816164E-02  0.1266605E+00
        -11   -1    0    0    0    0  0.00000000000E+00  0.00000000000E+00  0.45593999997E+02  0.45594000000E+02  0.51100000000E-03 0. -1.
         11   -1    0    0    0    0 -0.00000000000E+00 -0.00000000000E+00 -0.45593999997E+02  0.45594000000E+02  0.51100000000E-03 0.  1.
    9900012    2    1    2    0    0 -0.22063792153E+02 -0.11447012083E+02 -0.19971889145E+02  0.59301931477E+02  0.49999977111E+02 0.  0.
         12    1    1    2    0    0  0.22063792153E+02  0.11447012083E+02  0.19971889145E+02  0.31886068523E+02  0.00000000000E+00 0. -1.
         11    1    3    3    0    0  0.11248852179E+01  0.84705262788E+00 -0.19394990156E+02  0.19446040942E+02  0.51100000000E-03 0. -1.
        -11    1    3    3    0    0  0.63769888015E+01  0.23933422197E+01  0.45920624274E+00  0.68267813638E+01  0.51100000000E-03 0.  1.
        -12    1    3    3    0    0 -0.29565666173E+02 -0.14687406931E+02 -0.10361052309E+01  0.33029109171E+02  0.00000000000E+00 0.  1.
</event>
<event>
 7    1  0.6061051E-012  0.5930195E+02  0.7816164E-02  0.1266605E+00
        -11   -1    0    0    0    0  0.00000000000E+00  0.00000000000E+00  0.45593999997E+02  0.45594000000E+02  0.51100000000E-03 0.  1.
         11   -1    0    0    0    0 -0.00000000000E+00 -0.00000000000E+00 -0.45593999997E+02  0.45594000000E+02  0.51100000000E-03 0. -1.
    9900012    2    1    2    0    0 -0.19250269667E+02  0.23566999986E+02  0.95259526168E+01  0.59301950639E+02  0.50000012057E+02 0.  0.
         12    1    1    2    0    0  0.19250269667E+02 -0.23566999986E+02 -0.95259526168E+01  0.31886049361E+02  0.00000000000E+00 0. -1.
         11    1    3    3    0    0  0.45890782022E+01  0.13136362826E+02 -0.50613459827E+01  0.14806785285E+02  0.51100000000E-03 0. -1.
        -11    1    3    3    0    0  0.29702813743E+01  0.13365515102E+02  0.10419152264E+02  0.17205182346E+02  0.51100000000E-03 0.  1.
        -12    1    3    3    0    0 -0.26809629244E+02 -0.29348779416E+01  0.41681463351E+01  0.27289983008E+02  0.00000000000E+00 0.  1.
</event>
<event>
 7    1  0.6061051E-012  0.5930219E+02  0.7816164E-02  0.1266604E+00
        -11   -1    0    0    0    0  0.00000000000E+00  0.00000000000E+00  0.45593999997E+02  0.45594000000E+02  0.51100000000E-03 0.  1.
         11   -1    0    0    0    0 -0.00000000000E+00 -0.00000000000E+00 -0.45593999997E+02  0.45594000000E+02  0.51100000000E-03 0. -1.
    9900012    2    1    2    0    0 -0.13217048195E+02 -0.20826426374E+02  0.20205804620E+02  0.59302189067E+02  0.50000446891E+02 0.  0.
         12    1    1    2    0    0  0.13217048195E+02  0.20826426374E+02 -0.20205804620E+02  0.31885810933E+02  0.00000000000E+00 0. -1.
         11    1    3    3    0    0 -0.22924774095E+02 -0.71908087968E+01  0.47309567328E+01  0.24487444749E+02  0.51100000000E-03 0. -1.
        -11    1    3    3    0    0 -0.57996757361E-01  0.45974932838E+01  0.13234053243E+02  0.14010013334E+02  0.51100000000E-03 0.  1.
        -12    1    3    3    0    0  0.97657226569E+01 -0.18233110861E+02  0.22407946443E+01  0.20804730984E+02  0.00000000000E+00 0.  1.
</event>
<event>
 7    1  0.6061051E-012  0.5930193E+02  0.7816164E-02  0.1266605E+00
        -11   -1    0    0    0    0  0.00000000000E+00  0.00000000000E+00  0.45593999997E+02  0.45594000000E+02  0.51100000000E-03 0.  1.
         11   -1    0    0    0    0 -0.00000000000E+00 -0.00000000000E+00 -0.45593999997E+02  0.45594000000E+02  0.51100000000E-03 0. -1.
    9900012    2    1    2    0    0  0.17215289757E+02 -0.39996330005E+00  0.26836457329E+02  0.59301927585E+02  0.49999970013E+02 0.  0.
         12    1    1    2    0    0 -0.17215289757E+02  0.39996330005E+00 -0.26836457329E+02  0.31886072415E+02  0.00000000000E+00 0. -1.
         11    1    3    3    0    0 -0.38947539499E+01  0.98985270934E+00 -0.80638782145E+01  0.90097196869E+01  0.51100000000E-03 0. -1.
        -11    1    3    3    0    0  0.40903031461E+01  0.12873247808E+02  0.92814743981E+01  0.16388924804E+02  0.51100000000E-03 0.  1.
         12    1    3    3    0    0  0.17019740561E+02 -0.14263063818E+02  0.25618861145E+02  0.33903283095E+02  0.00000000000E+00 0. -1.
</event>
<event>
 7    1  0.6061051E-012  0.5930195E+02  0.7816164E-02  0.1266605E+00
        -11   -1    0    0    0    0  0.00000000000E+00  0.00000000000E+00  0.45593999997E+02  0.45594000000E+02  0.51100000000E-03 0.  1.
         11   -1    0    0    0    0 -0.00000000000E+00 -0.00000000000E+00 -0.45593999997E+02  0.45594000000E+02  0.51100000000E-03 0. -1.
    9900012    2    1    2    0    0  0.88737921193E+01  0.19849657318E+02  0.23323108955E+02  0.59301945156E+02  0.50000002057E+02 0.  0.
         12    1    1    2    0    0 -0.88737921193E+01 -0.19849657318E+02 -0.23323108955E+02  0.31886054844E+02  0.00000000000E+00 0. -1.
         11    1    3    3    0    0 -0.24516966933E+01 -0.19082212641E+01 -0.17585646873E+01  0.35699684997E+01  0.51100000000E-03 0. -1.
        -11    1    3    3    0    0 -0.11999290520E+02  0.64479758368E+01  0.24255954934E+02  0.27819250806E+02  0.51100000000E-03 0.  1.
        -12    1    3    3    0    0  0.23324779333E+02  0.15309902745E+02  0.82571870814E+00  0.27912725850E+02  0.00000000000E+00 0.  1.
</event>
<event>
 7    1  0.6061051E-012  0.5930195E+02  0.7816164E-02  0.1266605E+00
        -11   -1    0    0    0    0  0.00000000000E+00  0.00000000000E+00  0.45593999997E+02  0.45594000000E+02  0.51100000000E-03 0.  1.
         11   -1    0    0    0    0 -0.00000000000E+00 -0.00000000000E+00 -0.45593999997E+02  0.45594000000E+02  0.51100000000E-03 0. -1.
    9900012    2    1    2    0    0 -0.13869427245E+02  0.16699245460E+02  0.23355820352E+02  0.59301950459E+02  0.50000011728E+02 0.  0.
         12    1    1    2    0    0  0.13869427245E+02 -0.16699245460E+02 -0.23355820352E+02  0.31886049541E+02  0.00000000000E+00 0. -1.
         11    1    3    3    0    0  0.76091188074E+00  0.15478680728E+02  0.17154994258E+02  0.23118442253E+02  0.51100000000E-03 0. -1.
        -11    1    3    3    0    0 -0.22807807957E+01 -0.13721641267E+02  0.90432718498E+01  0.16591147221E+02  0.51100000000E-03 0.  1.
         12    1    3    3    0    0 -0.12349558330E+02  0.14942205999E+02 -0.28424457556E+01  0.19592360984E+02  0.00000000000E+00 0. -1.
</event>
<event>
 7    1  0.6061051E-012  0.5930181E+02  0.7816164E-02  0.1266605E+00
        -11   -1    0    0    0    0  0.00000000000E+00  0.00000000000E+00  0.45593999997E+02  0.45594000000E+02  0.51100000000E-03 0. -1.
         11   -1    0    0    0    0 -0.00000000000E+00 -0.00000000000E+00 -0.45593999997E+02  0.45594000000E+02  0.51100000000E-03 0.  1.
    9900012    2    1    2    0    0  0.26187456503E+02  0.15548109878E+02 -0.94446970271E+01  0.59301813323E+02  0.49999761626E+02 0.  0.
         12    1    1    2    0    0 -0.26187456503E+02 -0.15548109878E+02  0.94446970271E+01  0.31886186677E+02  0.00000000000E+00 0. -1.
         11    1    3    3    0    0 -0.56625828472E+01  0.31501604899E+01 -0.42137132750E+01  0.77294071854E+01  0.51100000000E-03 0. -1.
        -11    1    3    3    0    0  0.16887173168E+02  0.21444464161E+02 -0.15405236622E+02  0.31342670218E+02  0.51100000000E-03 0.  1.
         12    1    3    3    0    0  0.14962866182E+02 -0.90465147730E+01  0.10174252870E+02  0.20229735919E+02  0.00000000000E+00 0. -1.
</event>
<event>
 7    1  0.6061051E-012  0.5930196E+02  0.7816164E-02  0.1266605E+00
        -11   -1    0    0    0    0  0.00000000000E+00  0.00000000000E+00  0.45593999997E+02  0.45594000000E+02  0.51100000000E-03 0. -1.
         11   -1    0    0    0    0 -0.00000000000E+00 -0.00000000000E+00 -0.45593999997E+02  0.45594000000E+02  0.51100000000E-03 0.  1.
    9900012    2    1    2    0    0  0.14446861047E+02 -0.27704313574E+02  0.63623024972E+01  0.59301957948E+02  0.50000025387E+02 0.  0.
         12    1    1    2    0    0 -0.14446861047E+02  0.27704313574E+02 -0.63623024972E+01  0.31886042052E+02  0.00000000000E+00 0. -1.
         11    1    3    3    0    0 -0.26393311403E+01 -0.12475551842E+00  0.55537991911E+01  0.61503104412E+01  0.51100000000E-03 0. -1.
        -11    1    3    3    0    0 -0.11930264131E+02 -0.16079382499E+02  0.72268097402E+01  0.21286251973E+02  0.51100000000E-03 0.  1.
         12    1    3    3    0    0  0.29016456317E+02 -0.11500175556E+02 -0.64183064340E+01  0.31865395534E+02  0.00000000000E+00 0. -1.
</event>
<event>
 7    1  0.6061051E-012  0.5930195E+02  0.7816164E-02  0.1266605E+00
        -11   -1    0    0    0    0  0.00000000000E+00  0.00000000000E+00  0.45593999997E+02  0.45594000000E+02  0.51100000000E-03 0. -1.
         11   -1    0    0    0    0 -0.00000000000E+00 -0.00000000000E+00 -0.45593999997E+02  0.45594000000E+02  0.51100000000E-03 0.  1.
    9900012    2    1    2    0    0 -0.15092729751E+02  0.41718487282E+01 -0.27776343100E+02  0.59301952124E+02  0.50000014766E+02 0.  0.
         12    1    1    2    0    0  0.15092729751E+02 -0.41718487282E+01  0.27776343100E+02  0.31886047876E+02  0.00000000000E+00 0. -1.
         11    1    3    3    0    0 -0.12252421371E+02 -0.36039273108E+01 -0.29396465137E+02  0.32050932659E+02  0.51100000000E-03 0. -1.
        -11    1    3    3    0    0 -0.98555290008E+01  0.11736357343E+02 -0.57144271398E+01  0.16356289718E+02  0.51100000000E-03 0.  1.
         12    1    3    3    0    0  0.70152206205E+01 -0.39605813035E+01  0.73345491771E+01  0.10894729746E+02  0.00000000000E+00 0. -1.
</event>
<event>
 7    1  0.6061051E-012  0.5930191E+02  0.7816164E-02  0.1266605E+00
        -11   -1    0    0    0    0  0.00000000000E+00  0.00000000000E+00  0.45593999997E+02  0.45594000000E+02  0.51100000000E-03 0. -1.
         11   -1    0    0    0    0 -0.00000000000E+00 -0.00000000000E+00 -0.45593999997E+02  0.45594000000E+02  0.51100000000E-03 0.  1.
    9900012    2    1    2    0    0  0.22827485483E+02 -0.14390405849E+02 -0.16986613573E+02  0.59301907191E+02  0.49999932818E+02 0.  0.
         12    1    1    2    0    0 -0.22827485483E+02  0.14390405849E+02  0.16986613573E+02  0.31886092809E+02  0.00000000000E+00 0. -1.
         11    1    3    3    0    0  0.21088992899E+02 -0.14747833834E+02 -0.11048349688E+02  0.28005539727E+02  0.51100000000E-03 0. -1.
        -11    1    3    3    0    0  0.39329730385E+01 -0.11333393613E+02 -0.12817238687E+02  0.17555503283E+02  0.51100000000E-03 0.  1.
         12    1    3    3    0    0 -0.21944804553E+01  0.11690821598E+02  0.68789748015E+01  0.13740864181E+02  0.00000000000E+00 0. -1.
</event>
<event>
 7    1  0.6061051E-012  0.5930198E+02  0.7816164E-02  0.1266605E+00
        -11   -1    0    0    0    0  0.00000000000E+00  0.00000000000E+00  0.45593999997E+02  0.45594000000E+02  0.51100000000E-03 0.  1.
         11   -1    0    0    0    0 -0.00000000000E+00 -0.00000000000E+00 -0.45593999997E+02  0.45594000000E+02  0.51100000000E-03 0. -1.
    9900012    2    1    2    0    0  0.26023495501E+02 -0.98104717036E+01  0.15596502395E+02  0.59301975474E+02  0.50000057350E+02 0.  0.
         12    1    1    2    0    0 -0.26023495501E+02  0.98104717036E+01 -0.15596502395E+02  0.31886024526E+02  0.00000000000E+00 0. -1.
         11    1    3    3    0    0  0.15457997885E+01  0.73239014794E+01 -0.23072090408E+01  0.78327673070E+01  0.51100000000E-03 0. -1.
        -11    1    3    3    0    0  0.33573756620E+02 -0.12792656709E+02  0.69693052444E+01  0.36598093052E+02  0.51100000000E-03 0.  1.
         12    1    3    3    0    0 -0.90960609072E+01 -0.43417164740E+01  0.10934406192E+02  0.14871115114E+02  0.00000000000E+00 0. -1.
</event>
<event>
 7    1  0.6061051E-012  0.5930190E+02  0.7816164E-02  0.1266605E+00
        -11   -1    0    0    0    0  0.00000000000E+00  0.00000000000E+00  0.45593999997E+02  0.45594000000E+02  0.51100000000E-03 0.  1.
         11   -1    0    0    0    0 -0.00000000000E+00 -0.00000000000E+00 -0.45593999997E+02  0.45594000000E+02  0.51100000000E-03 0. -1.
    9900012    2    1    2    0    0 -0.12823014188E+01 -0.35722550498E+01  0.31659404446E+02  0.59301902826E+02  0.49999924859E+02 0.  0.
         12    1    1    2    0    0  0.12823014188E+01  0.35722550498E+01 -0.31659404446E+02  0.31886097174E+02  0.00000000000E+00 0. -1.
         11    1    3    3    0    0  0.13858110556E+02 -0.90144030402E+00  0.16071073693E+01  0.13980079298E+02  0.51100000000E-03 0. -1.
        -11    1    3    3    0    0  0.58092228363E+01  0.50084231515E+01  0.18858555918E+02  0.20358696029E+02  0.51100000000E-03 0.  1.
        -12    1    3    3    0    0 -0.20949634811E+02 -0.76792378973E+01  0.11193741159E+02  0.24963127499E+02  0.00000000000E+00 0.  1.
</event>
<event>
 7    1  0.6061051E-012  0.5930202E+02  0.7816164E-02  0.1266604E+00
        -11   -1    0    0    0    0  0.00000000000E+00  0.00000000000E+00  0.45593999997E+02  0.45594000000E+02  0.51100000000E-03 0. -1.
         11   -1    0    0    0    0 -0.00000000000E+00 -0.00000000000E+00 -0.45593999997E+02  0.45594000000E+02  0.51100000000E-03 0.  1.
    9900012    2    1    2    0    0 -0.14993031154E+02  0.15029014256E+02 -0.23791874802E+02  0.59302022529E+02  0.50000143167E+02 0.  0.
         12    1    1    2    0    0  0.14993031154E+02 -0.15029014256E+02  0.23791874802E+02  0.31885977471E+02  0.00000000000E+00 0. -1.
         11    1    3    3    0    0 -0.96406221568E+00 -0.71588069209E+01 -0.15145095707E+02  0.16779507046E+02  0.51100000000E-03 0. -1.
        -11    1    3    3    0    0 -0.82751873778E+01  0.97704256237E+00 -0.17062897367E+02  0.18988833696E+02  0.51100000000E-03 0.  1.
        -12    1    3    3    0    0 -0.57537815605E+01  0.21210778614E+02  0.84161182718E+01  0.23533681787E+02  0.00000000000E+00 0.  1.
</event>
<event>
 7    1  0.6061051E-012  0.5930193E+02  0.7816164E-02  0.1266605E+00
        -11   -1    0    0    0    0  0.00000000000E+00  0.00000000000E+00  0.45593999997E+02  0.45594000000E+02  0.51100000000E-03 0.  1.
         11   -1    0    0    0    0 -0.00000000000E+00 -0.00000000000E+00 -0.45593999997E+02  0.45594000000E+02  0.51100000000E-03 0. -1.
    9900012    2    1    2    0    0 -0.87683442124E+01 -0.15775902266E+02  0.26286089652E+02  0.59301929973E+02  0.49999974368E+02 0.  0.
         12    1    1    2    0    0  0.87683442124E+01  0.15775902266E+02 -0.26286089652E+02  0.31886070027E+02  0.00000000000E+00 0. -1.
         11    1    3    3    0    0 -0.43459457318E+01  0.64021485735E+00  0.33079111492E+01  0.54990358972E+01  0.51100000000E-03 0. -1.
        -11    1    3    3    0    0 -0.14049906457E+02  0.10992184035E+02  0.19591863287E+01  0.17946208308E+02  0.51100000000E-03 0.  1.
        -12    1    3    3    0    0  0.96275079762E+01 -0.27408301159E+02  0.21018992175E+02  0.35856685768E+02  0.00000000000E+00 0.  1.
</event>
<event>
 7    1  0.6061051E-012  0.5930193E+02  0.7816164E-02  0.1266605E+00
        -11   -1    0    0    0    0  0.00000000000E+00  0.00000000000E+00  0.45593999997E+02  0.45594000000E+02  0.51100000000E-03 0.  1.
         11   -1    0    0    0    0 -0.00000000000E+00 -0.00000000000E+00 -0.45593999997E+02  0.45594000000E+02  0.51100000000E-03 0. -1.
    9900012    2    1    2    0    0  0.34837669408E+01 -0.22246493461E+02  0.22576051104E+02  0.59301934284E+02  0.49999982229E+02 0.  0.
         12    1    1    2    0    0 -0.34837669408E+01  0.22246493461E+02 -0.22576051104E+02  0.31886065716E+02  0.00000000000E+00 0. -1.
         11    1    3    3    0    0 -0.99973663903E+00  0.27218874987E+01 -0.15865249101E+01  0.33053300069E+01  0.51100000000E-03 0. -1.
        -11    1    3    3    0    0  0.43936792591E+01 -0.24183132036E+01  0.31796230976E+02  0.32189329920E+02  0.51100000000E-03 0.  1.
         12    1    3    3    0    0  0.89824320695E-01 -0.22550067756E+02 -0.76336549614E+01  0.23807274357E+02  0.00000000000E+00 0. -1.
</event>
<event>
 7    1  0.6061051E-012  0.5930198E+02  0.7816164E-02  0.1266605E+00
        -11   -1    0    0    0    0  0.00000000000E+00  0.00000000000E+00  0.45593999997E+02  0.45594000000E+02  0.51100000000E-03 0.  1.
         11   -1    0    0    0    0 -0.00000000000E+00 -0.00000000000E+00 -0.45593999997E+02  0.45594000000E+02  0.51100000000E-03 0. -1.
    9900012    2    1    2    0    0  0.96542538880E+01 -0.81830137460E+01  0.29266909499E+02  0.59301979180E+02  0.50000064110E+02 0.  0.
         12    1    1    2    0    0 -0.96542538880E+01  0.81830137460E+01 -0.29266909499E+02  0.31886020820E+02  0.00000000000E+00 0. -1.
         11    1    3    3    0    0 -0.57495838749E+00 -0.87311969533E+01 -0.33776085778E+01  0.93793719060E+01  0.51100000000E-03 0. -1.
        -11    1    3    3    0    0  0.10608814972E+02 -0.45845065754E+01 -0.45155247155E+01  0.12407845074E+02  0.51100000000E-03 0.  1.
         12    1    3    3    0    0 -0.37960269697E+00  0.51326897828E+01  0.37160042792E+02  0.37514762200E+02  0.00000000000E+00 0. -1.
</event>
<event>
 7    1  0.6061051E-012  0.5930193E+02  0.7816164E-02  0.1266605E+00
        -11   -1    0    0    0    0  0.00000000000E+00  0.00000000000E+00  0.45593999997E+02  0.45594000000E+02  0.51100000000E-03 0.  1.
         11   -1    0    0    0    0 -0.00000000000E+00 -0.00000000000E+00 -0.45593999997E+02  0.45594000000E+02  0.51100000000E-03 0. -1.
    9900012    2    1    2    0    0 -0.21314129111E+02  0.53279909526E+00  0.23709604993E+02  0.59301931827E+02  0.49999977748E+02 0.  0.
         12    1    1    2    0    0  0.21314129111E+02 -0.53279909526E+00 -0.23709604993E+02  0.31886068173E+02  0.00000000000E+00 0. -1.
         11    1    3    3    0    0 -0.17549488292E+02  0.16821756900E+01  0.20384423383E+02  0.26950676638E+02  0.51100000000E-03 0. -1.
        -11    1    3    3    0    0 -0.38830702925E+01  0.33097124527E+01  0.17114264986E+02  0.17858625302E+02  0.51100000000E-03 0.  1.
         12    1    3    3    0    0  0.11842947330E+00 -0.44590890474E+01 -0.13789083376E+02  0.14492629886E+02  0.00000000000E+00 0. -1.
</event>
<event>
 7    1  0.6061051E-012  0.5930201E+02  0.7816164E-02  0.1266605E+00
        -11   -1    0    0    0    0  0.00000000000E+00  0.00000000000E+00  0.45593999997E+02  0.45594000000E+02  0.51100000000E-03 0.  1.
         11   -1    0    0    0    0 -0.00000000000E+00 -0.00000000000E+00 -0.45593999997E+02  0.45594000000E+02  0.51100000000E-03 0. -1.
    9900012    2    1    2    0    0  0.29629506628E+02 -0.18397972465E+00  0.11780280923E+02  0.59302007304E+02  0.50000115401E+02 0.  0.
         12    1    1    2    0    0 -0.29629506628E+02  0.18397972465E+00 -0.11780280923E+02  0.31885992696E+02  0.00000000000E+00 0. -1.
         11    1    3    3    0    0  0.24719195999E+02  0.32540681756E+01  0.22692324239E+00  0.24933493637E+02  0.51100000000E-03 0. -1.
        -11    1    3    3    0    0  0.11190196001E+02 -0.13779387429E+02  0.16291144048E+00  0.17751578658E+02  0.51100000000E-03 0.  1.
        -12    1    3    3    0    0 -0.62798853721E+01  0.10341339529E+02  0.11390446241E+02  0.16616935009E+02  0.00000000000E+00 0.  1.
</event>
<event>
 7    1  0.6061051E-012  0.5930193E+02  0.7816164E-02  0.1266605E+00
        -11   -1    0    0    0    0  0.00000000000E+00  0.00000000000E+00  0.45593999997E+02  0.45594000000E+02  0.51100000000E-03 0.  1.
         11   -1    0    0    0    0 -0.00000000000E+00 -0.00000000000E+00 -0.45593999997E+02  0.45594000000E+02  0.51100000000E-03 0. -1.
    9900012    2    1    2    0    0  0.18245847025E+02 -0.13612903084E+02  0.22327105599E+02  0.59301926105E+02  0.49999967313E+02 0.  0.
         12    1    1    2    0    0 -0.18245847025E+02  0.13612903084E+02 -0.22327105599E+02  0.31886073895E+02  0.00000000000E+00 0. -1.
         11    1    3    3    0    0  0.13622526898E+02  0.15120860560E+02  0.11073576416E+02  0.23169759560E+02  0.51100000000E-03 0. -1.
        -11    1    3    3    0    0  0.44554605470E+01 -0.63143775333E+01  0.11326841300E+02  0.13712032177E+02  0.51100000000E-03 0.  1.
        -12    1    3    3    0    0  0.16785958034E+00 -0.22419386111E+02 -0.73312116994E-01  0.22420134368E+02  0.00000000000E+00 0.  1.
</event>
<event>
 7    1  0.6061051E-012  0.5930195E+02  0.7816164E-02  0.1266605E+00
        -11   -1    0    0    0    0  0.00000000000E+00  0.00000000000E+00  0.45593999997E+02  0.45594000000E+02  0.51100000000E-03 0. -1.
         11   -1    0    0    0    0 -0.00000000000E+00 -0.00000000000E+00 -0.45593999997E+02  0.45594000000E+02  0.51100000000E-03 0.  1.
    9900012    2    1    2    0    0 -0.79002698629E+01  0.16286943098E+02 -0.26249602568E+02  0.59301946397E+02  0.50000004322E+02 0.  0.
         12    1    1    2    0    0  0.79002698629E+01 -0.16286943098E+02  0.26249602568E+02  0.31886053603E+02  0.00000000000E+00 0. -1.
         11    1    3    3    0    0  0.57363584824E+01  0.18928782307E+01  0.16123595530E+01  0.62520796719E+01  0.51100000000E-03 0. -1.
        -11    1    3    3    0    0 -0.72520940552E+01 -0.62354600982E+01  0.71309676502E+01  0.11929984523E+02  0.51100000000E-03 0.  1.
        -12    1    3    3    0    0 -0.63845342901E+01  0.20629524966E+02 -0.34992929771E+02  0.41119882203E+02  0.00000000000E+00 0.  1.
</event>
<event>
 7    1  0.6061051E-012  0.5930196E+02  0.7816164E-02  0.1266605E+00
        -11   -1    0    0    0    0  0.00000000000E+00  0.00000000000E+00  0.45593999997E+02  0.45594000000E+02  0.51100000000E-03 0.  1.
         11   -1    0    0    0    0 -0.00000000000E+00 -0.00000000000E+00 -0.45593999997E+02  0.45594000000E+02  0.51100000000E-03 0. -1.
    9900012    2    1    2    0    0 -0.26083347290E+02 -0.15251465352E+02  0.10186825532E+02  0.59301958921E+02  0.50000027163E+02 0.  0.
         12    1    1    2    0    0  0.26083347290E+02  0.15251465352E+02 -0.10186825532E+02  0.31886041079E+02  0.00000000000E+00 0. -1.
         11    1    3    3    0    0  0.22569832284E+01 -0.63047952404E+01  0.11695786319E+02  0.13477233923E+02  0.51100000000E-03 0. -1.
        -11    1    3    3    0    0 -0.76579827822E+01  0.17599154601E+01  0.15234403043E+02  0.17141442152E+02  0.51100000000E-03 0.  1.
        -12    1    3    3    0    0 -0.20682347737E+02 -0.10706585572E+02 -0.16743363831E+02  0.28683282847E+02  0.00000000000E+00 0.  1.
</event>
<event>
 7    1  0.6061051E-012  0.5930195E+02  0.7816164E-02  0.1266605E+00
        -11   -1    0    0    0    0  0.00000000000E+00  0.00000000000E+00  0.45593999997E+02  0.45594000000E+02  0.51100000000E-03 0.  1.
         11   -1    0    0    0    0 -0.00000000000E+00 -0.00000000000E+00 -0.45593999997E+02  0.45594000000E+02  0.51100000000E-03 0. -1.
    9900012    2    1    2    0    0 -0.31124067570E+02  0.15134146628E+01  0.67618083741E+01  0.59301951977E+02  0.50000014498E+02 0.  0.
         12    1    1    2    0    0  0.31124067570E+02 -0.15134146628E+01 -0.67618083741E+01  0.31886048023E+02  0.00000000000E+00 0. -1.
         11    1    3    3    0    0 -0.39596746969E+02 -0.46407630600E+00  0.24727902937E+01  0.39676598007E+02  0.51100000000E-03 0. -1.
        -11    1    3    3    0    0 -0.22656103248E+01 -0.12285742627E+01 -0.46324752413E+01  0.53011519489E+01  0.51100000000E-03 0.  1.
        -12    1    3    3    0    0  0.10738289724E+02  0.32060652316E+01  0.89214933217E+01  0.14324202021E+02  0.00000000000E+00 0.  1.
</event>
<event>
 7    1  0.6061051E-012  0.5930190E+02  0.7816164E-02  0.1266605E+00
        -11   -1    0    0    0    0  0.00000000000E+00  0.00000000000E+00  0.45593999997E+02  0.45594000000E+02  0.51100000000E-03 0.  1.
         11   -1    0    0    0    0 -0.00000000000E+00 -0.00000000000E+00 -0.45593999997E+02  0.45594000000E+02  0.51100000000E-03 0. -1.
    9900012    2    1    2    0    0 -0.30252764481E+01  0.30492601185E-01  0.31742250422E+02  0.59301895044E+02  0.49999910666E+02 0.  0.
         12    1    1    2    0    0  0.30252764481E+01 -0.30492601185E-01 -0.31742250422E+02  0.31886104956E+02  0.00000000000E+00 0. -1.
         11    1    3    3    0    0  0.14002528623E+02 -0.28300053513E+01  0.29691533539E+02  0.32949459818E+02  0.51100000000E-03 0. -1.
        -11    1    3    3    0    0 -0.47646780234E+01 -0.40058539529E+01  0.87857339050E+01  0.10767457595E+02  0.51100000000E-03 0.  1.
         12    1    3    3    0    0 -0.12263127048E+02  0.68663519054E+01 -0.67350170218E+01  0.15584977631E+02  0.00000000000E+00 0. -1.
</event>
<event>
 7    1  0.6061051E-012  0.5930192E+02  0.7816164E-02  0.1266605E+00
        -11   -1    0    0    0    0  0.00000000000E+00  0.00000000000E+00  0.45593999997E+02  0.45594000000E+02  0.51100000000E-03 0. -1.
         11   -1    0    0    0    0 -0.00000000000E+00 -0.00000000000E+00 -0.45593999997E+02  0.45594000000E+02  0.51100000000E-03 0.  1.
    9900012    2    1    2    0    0  0.14535719974E+02  0.17780630220E+02 -0.22119763406E+02  0.59301923111E+02  0.49999961853E+02 0.  0.
         12    1    1    2    0    0 -0.14535719974E+02 -0.17780630220E+02  0.22119763406E+02  0.31886076889E+02  0.00000000000E+00 0. -1.
         11    1    3    3    0    0  0.22092355503E+02  0.10817265584E+02 -0.56154003525E+01  0.25231292630E+02  0.51100000000E-03 0. -1.
        -11    1    3    3    0    0  0.16352235516E+01 -0.70294524120E+01 -0.15734918515E+02  0.17311118341E+02  0.51100000000E-03 0.  1.
         12    1    3    3    0    0 -0.91918590801E+01  0.13992817048E+02 -0.76944453876E+00  0.16759512141E+02  0.00000000000E+00 0. -1.
</event>
<event>
 7    1  0.6061051E-012  0.5930195E+02  0.7816164E-02  0.1266605E+00
        -11   -1    0    0    0    0  0.00000000000E+00  0.00000000000E+00  0.45593999997E+02  0.45594000000E+02  0.51100000000E-03 0. -1.
         11   -1    0    0    0    0 -0.00000000000E+00 -0.00000000000E+00 -0.45593999997E+02  0.45594000000E+02  0.51100000000E-03 0.  1.
    9900012    2    1    2    0    0 -0.17649388556E+02  0.11933405649E+02 -0.23723678151E+02  0.59301953023E+02  0.50000016405E+02 0.  0.
         12    1    1    2    0    0  0.17649388556E+02 -0.11933405649E+02  0.23723678151E+02  0.31886046977E+02  0.00000000000E+00 0. -1.
         11    1    3    3    0    0 -0.58350387272E+01  0.47916059569E+01  0.10723517479E+02  0.13114914868E+02  0.51100000000E-03 0. -1.
        -11    1    3    3    0    0 -0.13210342086E+02 -0.65866452617E+00 -0.27438881629E+01  0.13508364057E+02  0.51100000000E-03 0.  1.
        -12    1    3    3    0    0  0.13959922572E+01  0.78004642178E+01 -0.31703307468E+02  0.32678674098E+02  0.00000000000E+00 0.  1.
</event>
<event>
 7    1  0.6061051E-012  0.5930195E+02  0.7816164E-02  0.1266605E+00
        -11   -1    0    0    0    0  0.00000000000E+00  0.00000000000E+00  0.45593999997E+02  0.45594000000E+02  0.51100000000E-03 0. -1.
         11   -1    0    0    0    0 -0.00000000000E+00 -0.00000000000E+00 -0.45593999997E+02  0.45594000000E+02  0.51100000000E-03 0.  1.
    9900012    2    1    2    0    0 -0.24101204315E+02  0.14872109899E+02  0.14651700415E+02  0.59301952466E+02  0.50000015389E+02 0.  0.
         12    1    1    2    0    0  0.24101204315E+02 -0.14872109899E+02 -0.14651700415E+02  0.31886047534E+02  0.00000000000E+00 0. -1.
         11    1    3    3    0    0 -0.79152989461E+01  0.14230948262E+02  0.17170437210E+02  0.23664229547E+02  0.51100000000E-03 0. -1.
        -11    1    3    3    0    0  0.31513784693E+01  0.12219413366E+02  0.16184458772E+01  0.12722602587E+02  0.51100000000E-03 0.  1.
        -12    1    3    3    0    0 -0.19337283838E+02 -0.11578251729E+02 -0.41371826717E+01  0.22915120331E+02  0.00000000000E+00 0.  1.
</event>
<event>
 7    1  0.6061051E-012  0.5930195E+02  0.7816164E-02  0.1266605E+00
        -11   -1    0    0    0    0  0.00000000000E+00  0.00000000000E+00  0.45593999997E+02  0.45594000000E+02  0.51100000000E-03 0. -1.
         11   -1    0    0    0    0 -0.00000000000E+00 -0.00000000000E+00 -0.45593999997E+02  0.45594000000E+02  0.51100000000E-03 0.  1.
    9900012    2    1    2    0    0 -0.29109082870E+02  0.11921917183E+02 -0.52200880087E+01  0.59301950799E+02  0.50000012349E+02 0.  0.
         12    1    1    2    0    0  0.29109082870E+02 -0.11921917183E+02  0.52200880087E+01  0.31886049201E+02  0.00000000000E+00 0. -1.
         11    1    3    3    0    0 -0.21305262104E+02 -0.36302513574E+01 -0.12545685825E+02  0.24989740921E+02  0.51100000000E-03 0. -1.
        -11    1    3    3    0    0 -0.11368114935E+02  0.92331523553E+01 -0.84784851630E+01  0.16922465852E+02  0.51100000000E-03 0.  1.
         12    1    3    3    0    0  0.35642941691E+01  0.63190161849E+01  0.15804082979E+02  0.17389744026E+02  0.00000000000E+00 0. -1.
</event>
<event>
 7    1  0.6061051E-012  0.5930234E+02  0.7816164E-02  0.1266603E+00
        -11   -1    0    0    0    0  0.00000000000E+00  0.00000000000E+00  0.45593999997E+02  0.45594000000E+02  0.51100000000E-03 0. -1.
         11   -1    0    0    0    0 -0.00000000000E+00 -0.00000000000E+00 -0.45593999997E+02  0.45594000000E+02  0.51100000000E-03 0.  1.
    9900012    2    1    2    0    0  0.31130262193E+02 -0.48378267047E+01 -0.49191258346E+01  0.59302335660E+02  0.50000714238E+02 0.  0.
         12    1    1    2    0    0 -0.31130262193E+02  0.48378267047E+01  0.49191258346E+01  0.31885664340E+02  0.00000000000E+00 0. -1.
         11    1    3    3    0    0  0.80123136181E+01 -0.12895009201E+02 -0.16732607932E+00  0.15182438213E+02  0.51100000000E-03 0. -1.
        -11    1    3    3    0    0  0.14848099026E+01  0.17110862736E+02 -0.10292436250E+02  0.20022999981E+02  0.51100000000E-03 0.  1.
         12    1    3    3    0    0  0.21633138673E+02 -0.90536802397E+01  0.55406364949E+01  0.24096897466E+02  0.00000000000E+00 0. -1.
</event>
<event>
 7    1  0.6061051E-012  0.5930197E+02  0.7816164E-02  0.1266605E+00
        -11   -1    0    0    0    0  0.00000000000E+00  0.00000000000E+00  0.45593999997E+02  0.45594000000E+02  0.51100000000E-03 0.  1.
         11   -1    0    0    0    0 -0.00000000000E+00 -0.00000000000E+00 -0.45593999997E+02  0.45594000000E+02  0.51100000000E-03 0. -1.
    9900012    2    1    2    0    0  0.19752565477E+02  0.25025935043E+02  0.50774767169E+00  0.59301967393E+02  0.50000042613E+02 0.  0.
         12    1    1    2    0    0 -0.19752565477E+02 -0.25025935043E+02 -0.50774767169E+00  0.31886032607E+02  0.00000000000E+00 0. -1.
         11    1    3    3    0    0  0.15418053211E+02  0.15414598200E+02 -0.15737189719E+02  0.26888386768E+02  0.51100000000E-03 0. -1.
        -11    1    3    3    0    0  0.16590800410E+01  0.17726243083E+02  0.53952620155E+01  0.18603254901E+02  0.51100000000E-03 0.  1.
         12    1    3    3    0    0  0.26754322248E+01 -0.81149062404E+01  0.10849675375E+02  0.13810325724E+02  0.00000000000E+00 0. -1.
</event>
<event>
 7    1  0.6061051E-012  0.5930195E+02  0.7816164E-02  0.1266605E+00
        -11   -1    0    0    0    0  0.00000000000E+00  0.00000000000E+00  0.45593999997E+02  0.45594000000E+02  0.51100000000E-03 0.  1.
         11   -1    0    0    0    0 -0.00000000000E+00 -0.00000000000E+00 -0.45593999997E+02  0.45594000000E+02  0.51100000000E-03 0. -1.
    9900012    2    1    2    0    0  0.18611282410E+02  0.15590011942E+02 -0.20671046313E+02  0.59301945666E+02  0.50000002988E+02 0.  0.
         12    1    1    2    0    0 -0.18611282410E+02 -0.15590011942E+02  0.20671046313E+02  0.31886054334E+02  0.00000000000E+00 0. -1.
         11    1    3    3    0    0  0.79155016338E+01 -0.62644934866E+01 -0.27638188334E+01  0.10466027879E+02  0.51100000000E-03 0. -1.
        -11    1    3    3    0    0  0.19228314727E+02  0.17300417852E+02 -0.25664470212E+02  0.36437584670E+02  0.51100000000E-03 0.  1.
         12    1    3    3    0    0 -0.85325339500E+01  0.45540875766E+01  0.77572427327E+01  0.12398333117E+02  0.00000000000E+00 0. -1.
</event>
<event>
 7    1  0.6061051E-012  0.5930195E+02  0.7816164E-02  0.1266605E+00
        -11   -1    0    0    0    0  0.00000000000E+00  0.00000000000E+00  0.45593999997E+02  0.45594000000E+02  0.51100000000E-03 0.  1.
         11   -1    0    0    0    0 -0.00000000000E+00 -0.00000000000E+00 -0.45593999997E+02  0.45594000000E+02  0.51100000000E-03 0. -1.
    9900012    2    1    2    0    0 -0.26399341780E+02  0.12868258644E+02  0.12417854253E+02  0.59301946133E+02  0.50000003840E+02 0.  0.
         12    1    1    2    0    0  0.26399341780E+02 -0.12868258644E+02 -0.12417854253E+02  0.31886053867E+02  0.00000000000E+00 0. -1.
         11    1    3    3    0    0 -0.13368015750E+02  0.11220581789E+02  0.10433755214E+02  0.20333926057E+02  0.51100000000E-03 0. -1.
        -11    1    3    3    0    0 -0.23929031826E+02 -0.19671230643E+01  0.88514832543E+01  0.25589390249E+02  0.51100000000E-03 0.  1.
         12    1    3    3    0    0  0.10897705796E+02  0.36147999202E+01 -0.68673842159E+01  0.13378629827E+02  0.00000000000E+00 0. -1.
</event>
<event>
 7    1  0.6061051E-012  0.5930184E+02  0.7816164E-02  0.1266605E+00
        -11   -1    0    0    0    0  0.00000000000E+00  0.00000000000E+00  0.45593999997E+02  0.45594000000E+02  0.51100000000E-03 0.  1.
         11   -1    0    0    0    0 -0.00000000000E+00 -0.00000000000E+00 -0.45593999997E+02  0.45594000000E+02  0.51100000000E-03 0. -1.
    9900012    2    1    2    0    0  0.18143760951E+02 -0.79205984814E+01 -0.24995905865E+02  0.59301839182E+02  0.49999808786E+02 0.  0.
         12    1    1    2    0    0 -0.18143760951E+02  0.79205984814E+01  0.24995905865E+02  0.31886160818E+02  0.00000000000E+00 0. -1.
         11    1    3    3    0    0  0.14397178484E+02  0.10463491995E+02  0.60854246297E+01  0.18809460551E+02  0.51100000000E-03 0. -1.
        -11    1    3    3    0    0  0.27158532236E+01 -0.64143972165E+01  0.21534805960E+00  0.69689830988E+01  0.51100000000E-03 0.  1.
         12    1    3    3    0    0  0.10307292427E+01 -0.11969693259E+02 -0.31296678554E+02  0.33523395532E+02  0.00000000000E+00 0. -1.
</event>
<event>
 7    1  0.6061051E-012  0.5930194E+02  0.7816164E-02  0.1266605E+00
        -11   -1    0    0    0    0  0.00000000000E+00  0.00000000000E+00  0.45593999997E+02  0.45594000000E+02  0.51100000000E-03 0.  1.
         11   -1    0    0    0    0 -0.00000000000E+00 -0.00000000000E+00 -0.45593999997E+02  0.45594000000E+02  0.51100000000E-03 0. -1.
    9900012    2    1    2    0    0  0.29306470507E+02 -0.71856547766E+01 -0.10306201217E+02  0.59301942990E+02  0.49999998107E+02 0.  0.
         12    1    1    2    0    0 -0.29306470507E+02  0.71856547766E+01  0.10306201217E+02  0.31886057010E+02  0.00000000000E+00 0. -1.
         11    1    3    3    0    0  0.15161996622E+02 -0.93365446457E+01  0.28757199921E+01  0.18036822703E+02  0.51100000000E-03 0. -1.
        -11    1    3    3    0    0  0.26262497446E+02  0.67215283307E+00 -0.54978600655E+01  0.26840212873E+02  0.51100000000E-03 0.  1.
         12    1    3    3    0    0 -0.12118023561E+02  0.14787370360E+01 -0.76840611436E+01  0.14424907414E+02  0.00000000000E+00 0. -1.
</event>
<event>
 7    1  0.6061051E-012  0.5930195E+02  0.7816164E-02  0.1266605E+00
        -11   -1    0    0    0    0  0.00000000000E+00  0.00000000000E+00  0.45593999997E+02  0.45594000000E+02  0.51100000000E-03 0. -1.
         11   -1    0    0    0    0 -0.00000000000E+00 -0.00000000000E+00 -0.45593999997E+02  0.45594000000E+02  0.51100000000E-03 0.  1.
    9900012    2    1    2    0    0 -0.25804243569E+02 -0.98828788273E+01 -0.15911934695E+02  0.59301953744E+02  0.50000017721E+02 0.  0.
         12    1    1    2    0    0  0.25804243569E+02  0.98828788273E+01  0.15911934695E+02  0.31886046256E+02  0.00000000000E+00 0. -1.
         11    1    3    3    0    0 -0.17712308427E+02 -0.64321077132E+01 -0.26224045866E+02  0.32292390145E+02  0.51100000000E-03 0. -1.
        -11    1    3    3    0    0 -0.77619328484E+01 -0.11710828037E+02  0.33618293138E+00  0.14053615694E+02  0.51100000000E-03 0.  1.
         12    1    3    3    0    0 -0.33000229357E+00  0.82600569228E+01  0.99759282395E+01  0.12955947905E+02  0.00000000000E+00 0. -1.
</event>
<event>
 7    1  0.6061051E-012  0.5930194E+02  0.7816164E-02  0.1266605E+00
        -11   -1    0    0    0    0  0.00000000000E+00  0.00000000000E+00  0.45593999997E+02  0.45594000000E+02  0.51100000000E-03 0.  1.
         11   -1    0    0    0    0 -0.00000000000E+00 -0.00000000000E+00 -0.45593999997E+02  0.45594000000E+02  0.51100000000E-03 0. -1.
    9900012    2    1    2    0    0 -0.50806795382E+01  0.19891862619E+02  0.24397157055E+02  0.59301940736E+02  0.49999993996E+02 0.  0.
         12    1    1    2    0    0  0.50806795382E+01 -0.19891862619E+02 -0.24397157055E+02  0.31886059264E+02  0.00000000000E+00 0. -1.
         11    1    3    3    0    0  0.80298371251E+01 -0.80954802385E+01 -0.12305269667E+01  0.11468621601E+02  0.51100000000E-03 0. -1.
        -11    1    3    3    0    0  0.34938658755E+01  0.22690585481E+02  0.14334056089E+02  0.27065382548E+02  0.51100000000E-03 0.  1.
        -12    1    3    3    0    0 -0.16604382539E+02  0.52967573763E+01  0.11293627933E+02  0.20767936587E+02  0.00000000000E+00 0.  1.
</event>
<event>
 7    1  0.6061051E-012  0.5930193E+02  0.7816164E-02  0.1266605E+00
        -11   -1    0    0    0    0  0.00000000000E+00  0.00000000000E+00  0.45593999997E+02  0.45594000000E+02  0.51100000000E-03 0. -1.
         11   -1    0    0    0    0 -0.00000000000E+00 -0.00000000000E+00 -0.45593999997E+02  0.45594000000E+02  0.51100000000E-03 0.  1.
    9900012    2    1    2    0    0  0.13621836122E+02  0.27909167191E+02  0.72280864697E+01  0.59301933033E+02  0.49999979948E+02 0.  0.
         12    1    1    2    0    0 -0.13621836122E+02 -0.27909167191E+02 -0.72280864697E+01  0.31886066967E+02  0.00000000000E+00 0. -1.
         11    1    3    3    0    0  0.39094439786E+01  0.19500141184E+01  0.11970221700E+02  0.12742547433E+02  0.51100000000E-03 0. -1.
        -11    1    3    3    0    0  0.24032372844E+02  0.16644963438E+02 -0.28508573076E+01  0.29372387374E+02  0.51100000000E-03 0.  1.
         12    1    3    3    0    0 -0.14319980701E+02  0.93141896343E+01 -0.18912779222E+01  0.17186998226E+02  0.00000000000E+00 0. -1.
</event>
<event>
 7    1  0.6061051E-012  0.5930191E+02  0.7816164E-02  0.1266605E+00
        -11   -1    0    0    0    0  0.00000000000E+00  0.00000000000E+00  0.45593999997E+02  0.45594000000E+02  0.51100000000E-03 0.  1.
         11   -1    0    0    0    0 -0.00000000000E+00 -0.00000000000E+00 -0.45593999997E+02  0.45594000000E+02  0.51100000000E-03 0. -1.
    9900012    2    1    2    0    0 -0.19085660414E+02 -0.53853349673E+01  0.24969151636E+02  0.59301908995E+02  0.49999936109E+02 0.  0.
         12    1    1    2    0    0  0.19085660414E+02  0.53853349673E+01 -0.24969151636E+02  0.31886091005E+02  0.00000000000E+00 0. -1.
         11    1    3    3    0    0 -0.12689761208E+02 -0.12798690863E+02  0.18570845084E+02  0.25878810149E+02  0.51100000000E-03 0. -1.
        -11    1    3    3    0    0 -0.67635363613E+01  0.27191464066E+01  0.18796689016E+02  0.20160721701E+02  0.51100000000E-03 0.  1.
         12    1    3    3    0    0  0.36763715456E+00  0.46942094890E+01 -0.12398382465E+02  0.13262377145E+02  0.00000000000E+00 0. -1.
</event>
<event>
 7    1  0.6061051E-012  0.5930195E+02  0.7816164E-02  0.1266605E+00
        -11   -1    0    0    0    0  0.00000000000E+00  0.00000000000E+00  0.45593999997E+02  0.45594000000E+02  0.51100000000E-03 0. -1.
         11   -1    0    0    0    0 -0.00000000000E+00 -0.00000000000E+00 -0.45593999997E+02  0.45594000000E+02  0.51100000000E-03 0.  1.
    9900012    2    1    2    0    0 -0.15003699020E+02  0.27521321679E+02 -0.58468757590E+01  0.59301951525E+02  0.50000013673E+02 0.  0.
         12    1    1    2    0    0  0.15003699020E+02 -0.27521321679E+02  0.58468757590E+01  0.31886048475E+02  0.00000000000E+00 0. -1.
         11    1    3    3    0    0  0.10336272596E+02 -0.48434340218E+01 -0.12166360915E+02  0.16682857144E+02  0.51100000000E-03 0. -1.
        -11    1    3    3    0    0 -0.23335041722E+01  0.47430896756E+01  0.39393203530E+01  0.65924492032E+01  0.51100000000E-03 0.  1.
        -12    1    3    3    0    0 -0.23006467444E+02  0.27621666025E+02  0.23801648033E+01  0.36026645177E+02  0.00000000000E+00 0.  1.
</event>
<event>
 7    1  0.6061051E-012  0.5930210E+02  0.7816164E-02  0.1266604E+00
        -11   -1    0    0    0    0  0.00000000000E+00  0.00000000000E+00  0.45593999997E+02  0.45594000000E+02  0.51100000000E-03 0.  1.
         11   -1    0    0    0    0 -0.00000000000E+00 -0.00000000000E+00 -0.45593999997E+02  0.45594000000E+02  0.51100000000E-03 0. -1.
    9900012    2    1    2    0    0  0.24635130906E+02  0.19039470146E+02 -0.68789054754E+01  0.59302102824E+02  0.50000289605E+02 0.  0.
         12    1    1    2    0    0 -0.24635130906E+02 -0.19039470146E+02  0.68789054754E+01  0.31885897176E+02  0.00000000000E+00 0. -1.
         11    1    3    3    0    0 -0.12130523357E+02  0.13356003205E+01 -0.10245633177E+01  0.12246761016E+02  0.51100000000E-03 0. -1.
        -11    1    3    3    0    0  0.96697855129E+01  0.12721171015E+01  0.78599755017E+01  0.12526062787E+02  0.51100000000E-03 0.  1.
        -12    1    3    3    0    0  0.27095868750E+02  0.16431752724E+02 -0.13714317659E+02  0.34529279021E+02  0.00000000000E+00 0.  1.
</event>
<event>
 7    1  0.6061051E-012  0.5930194E+02  0.7816164E-02  0.1266605E+00
        -11   -1    0    0    0    0  0.00000000000E+00  0.00000000000E+00  0.45593999997E+02  0.45594000000E+02  0.51100000000E-03 0.  1.
         11   -1    0    0    0    0 -0.00000000000E+00 -0.00000000000E+00 -0.45593999997E+02  0.45594000000E+02  0.51100000000E-03 0. -1.
    9900012    2    1    2    0    0 -0.22596505177E+02  0.16182327733E+01  0.22438808624E+02  0.59301939472E+02  0.49999991692E+02 0.  0.
         12    1    1    2    0    0  0.22596505177E+02 -0.16182327733E+01 -0.22438808624E+02  0.31886060528E+02  0.00000000000E+00 0. -1.
         11    1    3    3    0    0 -0.29182403210E+02  0.11393916051E+02  0.20937459457E+02  0.37680382016E+02  0.51100000000E-03 0. -1.
        -11    1    3    3    0    0  0.55105658365E+01  0.76265802132E+00  0.75845759129E+01  0.94060499220E+01  0.51100000000E-03 0.  1.
        -12    1    3    3    0    0  0.10753321972E+01 -0.10538341299E+02 -0.60832267457E+01  0.12215507534E+02  0.00000000000E+00 0.  1.
</event>
<event>
 7    1  0.6061051E-012  0.5930198E+02  0.7816164E-02  0.1266605E+00
        -11   -1    0    0    0    0  0.00000000000E+00  0.00000000000E+00  0.45593999997E+02  0.45594000000E+02  0.51100000000E-03 0. -1.
         11   -1    0    0    0    0 -0.00000000000E+00 -0.00000000000E+00 -0.45593999997E+02  0.45594000000E+02  0.51100000000E-03 0.  1.
    9900012    2    1    2    0    0  0.15827318476E+02  0.11722845007E+02 -0.25075672968E+02  0.59301976730E+02  0.50000059641E+02 0.  0.
         12    1    1    2    0    0 -0.15827318476E+02 -0.11722845007E+02  0.25075672968E+02  0.31886023270E+02  0.00000000000E+00 0. -1.
         11    1    3    3    0    0  0.35316920632E+01  0.93053875330E+01 -0.24054246682E+02  0.26032093071E+02  0.51100000000E-03 0. -1.
        -11    1    3    3    0    0  0.18372035270E+02  0.31457701487E+01 -0.10941813358E+02  0.21613672284E+02  0.51100000000E-03 0.  1.
         12    1    3    3    0    0 -0.60764088564E+01 -0.72831267480E+00  0.99203870724E+01  0.11656211375E+02  0.00000000000E+00 0. -1.
</event>
<event>
 7    1  0.6061051E-012  0.5930195E+02  0.7816164E-02  0.1266605E+00
        -11   -1    0    0    0    0  0.00000000000E+00  0.00000000000E+00  0.45593999997E+02  0.45594000000E+02  0.51100000000E-03 0. -1.
         11   -1    0    0    0    0 -0.00000000000E+00 -0.00000000000E+00 -0.45593999997E+02  0.45594000000E+02  0.51100000000E-03 0.  1.
    9900012    2    1    2    0    0  0.65867104441E+01  0.19540644206E+02  0.24320748918E+02  0.59301947275E+02  0.50000005921E+02 0.  0.
         12    1    1    2    0    0 -0.65867104441E+01 -0.19540644206E+02 -0.24320748918E+02  0.31886052725E+02  0.00000000000E+00 0. -1.
         11    1    3    3    0    0  0.26791782771E+01 -0.75911463750E+01  0.22968260407E+02  0.24338128233E+02  0.51100000000E-03 0. -1.
        -11    1    3    3    0    0  0.34404910082E+01  0.40468593332E+01 -0.83679922590E+01  0.99114753467E+01  0.51100000000E-03 0.  1.
        -12    1    3    3    0    0  0.46704115889E+00  0.23084931248E+02  0.97204807702E+01  0.25052343694E+02  0.00000000000E+00 0.  1.
</event>
<event>
 7    1  0.6061051E-012  0.5930196E+02  0.7816164E-02  0.1266605E+00
        -11   -1    0    0    0    0  0.00000000000E+00  0.00000000000E+00  0.45593999997E+02  0.45594000000E+02  0.51100000000E-03 0.  1.
         11   -1    0    0    0    0 -0.00000000000E+00 -0.00000000000E+00 -0.45593999997E+02  0.45594000000E+02  0.51100000000E-03 0. -1.
    9900012    2    1    2    0    0  0.44204557463E+01  0.31267092401E+02  0.44213182089E+01  0.59301959937E+02  0.50000029014E+02 0.  0.
         12    1    1    2    0    0 -0.44204557463E+01 -0.31267092401E+02 -0.44213182089E+01  0.31886040063E+02  0.00000000000E+00 0. -1.
         11    1    3    3    0    0  0.17068255816E+02  0.87414499840E+01 -0.47063254632E+01  0.19745576823E+02  0.51100000000E-03 0. -1.
        -11    1    3    3    0    0  0.31557309247E+01  0.18506723502E+02  0.12951035328E+02  0.22807603311E+02  0.51100000000E-03 0.  1.
         12    1    3    3    0    0 -0.15803530995E+02  0.40189189149E+01 -0.38233916557E+01  0.16748779803E+02  0.00000000000E+00 0. -1.
</event>
<event>
 7    1  0.6061051E-012  0.5930195E+02  0.7816164E-02  0.1266605E+00
        -11   -1    0    0    0    0  0.00000000000E+00  0.00000000000E+00  0.45593999997E+02  0.45594000000E+02  0.51100000000E-03 0.  1.
         11   -1    0    0    0    0 -0.00000000000E+00 -0.00000000000E+00 -0.45593999997E+02  0.45594000000E+02  0.51100000000E-03 0. -1.
    9900012    2    1    2    0    0  0.85655470508E+01 -0.19338126556E+02  0.23861863593E+02  0.59301948675E+02  0.50000008476E+02 0.  0.
         12    1    1    2    0    0 -0.85655470508E+01  0.19338126556E+02 -0.23861863593E+02  0.31886051325E+02  0.00000000000E+00 0. -1.
         11    1    3    3    0    0  0.12553388709E+02 -0.15764271741E+02  0.20352572073E+02  0.28641351607E+02  0.51100000000E-03 0. -1.
        -11    1    3    3    0    0 -0.88707111622E+01 -0.11348257911E+02  0.11545197800E+02  0.18459795953E+02  0.51100000000E-03 0.  1.
         12    1    3    3    0    0  0.48828695044E+01  0.77744030963E+01 -0.80359062804E+01  0.12200801115E+02  0.00000000000E+00 0. -1.
</event>
<event>
 7    1  0.6061051E-012  0.5930194E+02  0.7816164E-02  0.1266605E+00
        -11   -1    0    0    0    0  0.00000000000E+00  0.00000000000E+00  0.45593999997E+02  0.45594000000E+02  0.51100000000E-03 0.  1.
         11   -1    0    0    0    0 -0.00000000000E+00 -0.00000000000E+00 -0.45593999997E+02  0.45594000000E+02  0.51100000000E-03 0. -1.
    9900012    2    1    2    0    0  0.87821092317E+01  0.35939202531E+01  0.30441401752E+02  0.59301942765E+02  0.49999997697E+02 0.  0.
         12    1    1    2    0    0 -0.87821092317E+01 -0.35939202531E+01 -0.30441401752E+02  0.31886057235E+02  0.00000000000E+00 0. -1.
         11    1    3    3    0    0 -0.10372070824E+02  0.39352691475E+01  0.87686845776E+01  0.14140580820E+02  0.51100000000E-03 0. -1.
        -11    1    3    3    0    0 -0.44696428587E+01  0.47133320983E+01 -0.57074545559E+01  0.86468632764E+01  0.51100000000E-03 0.  1.
        -12    1    3    3    0    0  0.23623822914E+02 -0.50546809927E+01  0.27380171731E+02  0.36514498669E+02  0.00000000000E+00 0.  1.
</event>
<event>
 7    1  0.6061051E-012  0.5930201E+02  0.7816164E-02  0.1266605E+00
        -11   -1    0    0    0    0  0.00000000000E+00  0.00000000000E+00  0.45593999997E+02  0.45594000000E+02  0.51100000000E-03 0.  1.
         11   -1    0    0    0    0 -0.00000000000E+00 -0.00000000000E+00 -0.45593999997E+02  0.45594000000E+02  0.51100000000E-03 0. -1.
    9900012    2    1    2    0    0  0.96780720238E+01  0.50062024644E+01  0.29966467984E+02  0.59302010214E+02  0.50000120707E+02 0.  0.
         12    1    1    2    0    0 -0.96780720238E+01 -0.50062024644E+01 -0.29966467984E+02  0.31885989786E+02  0.00000000000E+00 0. -1.
         11    1    3    3    0    0  0.49647254692E+01 -0.76088819225E+01  0.10644517856E+02  0.13994618385E+02  0.51100000000E-03 0. -1.
        -11    1    3    3    0    0  0.13231639809E+02  0.16840508642E+02  0.26002178384E+02  0.33686678440E+02  0.51100000000E-03 0.  1.
         12    1    3    3    0    0 -0.85182932542E+01 -0.42254242554E+01 -0.66802282559E+01  0.11620713388E+02  0.00000000000E+00 0. -1.
</event>
<event>
 7    1  0.6061051E-012  0.5930193E+02  0.7816164E-02  0.1266605E+00
        -11   -1    0    0    0    0  0.00000000000E+00  0.00000000000E+00  0.45593999997E+02  0.45594000000E+02  0.51100000000E-03 0.  1.
         11   -1    0    0    0    0 -0.00000000000E+00 -0.00000000000E+00 -0.45593999997E+02  0.45594000000E+02  0.51100000000E-03 0. -1.
    9900012    2    1    2    0    0 -0.83629520144E+01 -0.37875599872E+01  0.30535829689E+02  0.59301929815E+02  0.49999974080E+02 0.  0.
         12    1    1    2    0    0  0.83629520144E+01  0.37875599872E+01 -0.30535829689E+02  0.31886070185E+02  0.00000000000E+00 0. -1.
         11    1    3    3    0    0  0.37635764481E+01 -0.75890759130E+01  0.79831814199E+01  0.11640007162E+02  0.51100000000E-03 0. -1.
        -11    1    3    3    0    0  0.13217144290E+02  0.72646507813E+01  0.14302096294E+02  0.20785043007E+02  0.51100000000E-03 0.  1.
         12    1    3    3    0    0 -0.25343672752E+02 -0.34631348556E+01  0.82505519746E+01  0.26876879646E+02  0.00000000000E+00 0. -1.
</event>
<event>
 7    1  0.6061051E-012  0.5930194E+02  0.7816164E-02  0.1266605E+00
        -11   -1    0    0    0    0  0.00000000000E+00  0.00000000000E+00  0.45593999997E+02  0.45594000000E+02  0.51100000000E-03 0. -1.
         11   -1    0    0    0    0 -0.00000000000E+00 -0.00000000000E+00 -0.45593999997E+02  0.45594000000E+02  0.51100000000E-03 0.  1.
    9900012    2    1    2    0    0  0.22043681087E+02 -0.22821330641E+02  0.31596875390E+01  0.59301942962E+02  0.49999998056E+02 0.  0.
         12    1    1    2    0    0 -0.22043681087E+02  0.22821330641E+02 -0.31596875390E+01  0.31886057038E+02  0.00000000000E+00 0. -1.
         11    1    3    3    0    0  0.15666516267E+02 -0.26475345446E+02  0.55326305718E+01  0.31256897635E+02  0.51100000000E-03 0. -1.
        -11    1    3    3    0    0  0.61265879969E+01 -0.14454229206E+01  0.11583859267E+02  0.13183706750E+02  0.51100000000E-03 0.  1.
         12    1    3    3    0    0  0.25057682294E+00  0.50994377260E+01 -0.13956802300E+02  0.14861338577E+02  0.00000000000E+00 0. -1.
</event>
<event>
 7    1  0.6061051E-012  0.5930194E+02  0.7816164E-02  0.1266605E+00
        -11   -1    0    0    0    0  0.00000000000E+00  0.00000000000E+00  0.45593999997E+02  0.45594000000E+02  0.51100000000E-03 0.  1.
         11   -1    0    0    0    0 -0.00000000000E+00 -0.00000000000E+00 -0.45593999997E+02  0.45594000000E+02  0.51100000000E-03 0. -1.
    9900012    2    1    2    0    0  0.14362743454E+02 -0.61218257864E+01  0.27802082304E+02  0.59301938297E+02  0.49999989549E+02 0.  0.
         12    1    1    2    0    0 -0.14362743454E+02  0.61218257864E+01 -0.27802082304E+02  0.31886061703E+02  0.00000000000E+00 0. -1.
         11    1    3    3    0    0 -0.14219557180E+01  0.13860261382E+01 -0.63166755366E+01  0.66214361445E+01  0.51100000000E-03 0. -1.
        -11    1    3    3    0    0 -0.40045272333E+01 -0.14085487023E+02  0.25775712268E+01  0.14868794730E+02  0.51100000000E-03 0.  1.
        -12    1    3    3    0    0  0.19789226405E+02  0.65776350985E+01  0.31541186614E+02  0.37811707422E+02  0.00000000000E+00 0.  1.
</event>
<event>
 7    1  0.6061051E-012  0.5930196E+02  0.7816164E-02  0.1266605E+00
        -11   -1    0    0    0    0  0.00000000000E+00  0.00000000000E+00  0.45593999997E+02  0.45594000000E+02  0.51100000000E-03 0. -1.
         11   -1    0    0    0    0 -0.00000000000E+00 -0.00000000000E+00 -0.45593999997E+02  0.45594000000E+02  0.51100000000E-03 0.  1.
    9900012    2    1    2    0    0  0.23464515545E+02  0.16304575543E+02  0.14152632350E+02  0.59301957978E+02  0.50000025442E+02 0.  0.
         12    1    1    2    0    0 -0.23464515545E+02 -0.16304575543E+02 -0.14152632350E+02  0.31886042022E+02  0.00000000000E+00 0. -1.
         11    1    3    3    0    0  0.99650757090E+01 -0.10260378685E+02  0.42364869387E+01  0.14917302923E+02  0.51100000000E-03 0. -1.
        -11    1    3    3    0    0  0.26174767319E+01 -0.38163925699E+01 -0.66561252600E+01  0.81067897732E+01  0.51100000000E-03 0.  1.
        -12    1    3    3    0    0  0.10881963104E+02  0.30381346798E+02  0.16572270671E+02  0.36277865282E+02  0.00000000000E+00 0.  1.
</event>
<event>
 7    1  0.6061051E-012  0.5930183E+02  0.7816164E-02  0.1266605E+00
        -11   -1    0    0    0    0  0.00000000000E+00  0.00000000000E+00  0.45593999997E+02  0.45594000000E+02  0.51100000000E-03 0. -1.
         11   -1    0    0    0    0 -0.00000000000E+00 -0.00000000000E+00 -0.45593999997E+02  0.45594000000E+02  0.51100000000E-03 0.  1.
    9900012    2    1    2    0    0  0.19579534644E+02  0.13085043724E+02 -0.21497705759E+02  0.59301829031E+02  0.49999790274E+02 0.  0.
         12    1    1    2    0    0 -0.19579534644E+02 -0.13085043724E+02  0.21497705759E+02  0.31886170969E+02  0.00000000000E+00 0. -1.
         11    1    3    3    0    0  0.12861525478E+02 -0.54564676187E+01  0.79936660994E+01  0.16096290706E+02  0.51100000000E-03 0. -1.
        -11    1    3    3    0    0  0.29511896904E+01  0.47376250321E+01  0.39457964115E+01  0.68354898226E+01  0.51100000000E-03 0.  1.
        -12    1    3    3    0    0  0.37668194751E+01  0.13803886311E+02 -0.33437168270E+02  0.36370048503E+02  0.00000000000E+00 0.  1.
</event>
<event>
 7    1  0.6061051E-012  0.5930194E+02  0.7816164E-02  0.1266605E+00
        -11   -1    0    0    0    0  0.00000000000E+00  0.00000000000E+00  0.45593999997E+02  0.45594000000E+02  0.51100000000E-03 0.  1.
         11   -1    0    0    0    0 -0.00000000000E+00 -0.00000000000E+00 -0.45593999997E+02  0.45594000000E+02  0.51100000000E-03 0. -1.
    9900012    2    1    2    0    0  0.24071162309E+02  0.19763018702E+02  0.68354269536E+01  0.59301939962E+02  0.49999992584E+02 0.  0.
         12    1    1    2    0    0 -0.24071162309E+02 -0.19763018702E+02 -0.68354269536E+01  0.31886060038E+02  0.00000000000E+00 0. -1.
         11    1    3    3    0    0  0.20820093911E+02  0.58408274860E+01 -0.78647526159E+01  0.23009691657E+02  0.51100000000E-03 0. -1.
        -11    1    3    3    0    0 -0.60012837141E+01  0.14766776370E+02 -0.30767222513E+01  0.16233893885E+02  0.51100000000E-03 0.  1.
        -12    1    3    3    0    0  0.92523521130E+01 -0.84458515441E+00  0.17776901821E+02  0.20058354420E+02  0.00000000000E+00 0.  1.
</event>
<event>
 7    1  0.6061051E-012  0.5930193E+02  0.7816164E-02  0.1266605E+00
        -11   -1    0    0    0    0  0.00000000000E+00  0.00000000000E+00  0.45593999997E+02  0.45594000000E+02  0.51100000000E-03 0.  1.
         11   -1    0    0    0    0 -0.00000000000E+00 -0.00000000000E+00 -0.45593999997E+02  0.45594000000E+02  0.51100000000E-03 0. -1.
    9900012    2    1    2    0    0 -0.24695701976E+01  0.73084861034E+01  0.30938784766E+02  0.59301934879E+02  0.49999983315E+02 0.  0.
         12    1    1    2    0    0  0.24695701976E+01 -0.73084861034E+01 -0.30938784766E+02  0.31886065121E+02  0.00000000000E+00 0. -1.
         11    1    3    3    0    0  0.14869962664E+00  0.73070995268E+01 -0.43592692253E+01  0.85099379266E+01  0.51100000000E-03 0. -1.
        -11    1    3    3    0    0 -0.15182657035E+02  0.11327061263E+02  0.23424972515E+02  0.30125483051E+02  0.51100000000E-03 0.  1.
        -12    1    3    3    0    0  0.12564387210E+02 -0.11325674687E+02  0.11873081477E+02  0.20666513901E+02  0.00000000000E+00 0.  1.
</event>
<event>
 7    1  0.6061051E-012  0.5930194E+02  0.7816164E-02  0.1266605E+00
        -11   -1    0    0    0    0  0.00000000000E+00  0.00000000000E+00  0.45593999997E+02  0.45594000000E+02  0.51100000000E-03 0. -1.
         11   -1    0    0    0    0 -0.00000000000E+00 -0.00000000000E+00 -0.45593999997E+02  0.45594000000E+02  0.51100000000E-03 0.  1.
    9900012    2    1    2    0    0 -0.18435668700E+02  0.23211918788E+02  0.11749641339E+02  0.59301935241E+02  0.49999983976E+02 0.  0.
         12    1    1    2    0    0  0.18435668700E+02 -0.23211918788E+02 -0.11749641339E+02  0.31886064759E+02  0.00000000000E+00 0. -1.
         11    1    3    3    0    0  0.31200603945E+00 -0.13586973583E+02  0.11039956706E+02  0.17509535780E+02  0.51100000000E-03 0. -1.
        -11    1    3    3    0    0 -0.27216614328E+01  0.11558176787E+02 -0.27678905898E+00  0.11877520955E+02  0.51100000000E-03 0.  1.
        -12    1    3    3    0    0 -0.16026013306E+02  0.25240715584E+02  0.98647369204E+00  0.29914878506E+02  0.00000000000E+00 0.  1.
</event>
<event>
 7    1  0.6061051E-012  0.5930202E+02  0.7816164E-02  0.1266604E+00
        -11   -1    0    0    0    0  0.00000000000E+00  0.00000000000E+00  0.45593999997E+02  0.45594000000E+02  0.51100000000E-03 0.  1.
         11   -1    0    0    0    0 -0.00000000000E+00 -0.00000000000E+00 -0.45593999997E+02  0.45594000000E+02  0.51100000000E-03 0. -1.
    9900012    2    1    2    0    0 -0.20173353926E+02 -0.15653959114E+02  0.19097248542E+02  0.59302022731E+02  0.50000143535E+02 0.  0.
         12    1    1    2    0    0  0.20173353926E+02  0.15653959114E+02 -0.19097248542E+02  0.31885977269E+02  0.00000000000E+00 0. -1.
         11    1    3    3    0    0 -0.25444203706E+01 -0.11314056590E+02  0.28332373645E+02  0.30613809763E+02  0.51100000000E-03 0. -1.
        -11    1    3    3    0    0 -0.15426679687E+02 -0.10832567941E+02 -0.23916724378E+01  0.19001238688E+02  0.51100000000E-03 0.  1.
        -12    1    3    3    0    0 -0.22022538683E+01  0.64926654169E+01 -0.68434526659E+01  0.96869742802E+01  0.00000000000E+00 0.  1.
</event>
<event>
 7    1  0.6061051E-012  0.5930192E+02  0.7816164E-02  0.1266605E+00
        -11   -1    0    0    0    0  0.00000000000E+00  0.00000000000E+00  0.45593999997E+02  0.45594000000E+02  0.51100000000E-03 0. -1.
         11   -1    0    0    0    0 -0.00000000000E+00 -0.00000000000E+00 -0.45593999997E+02  0.45594000000E+02  0.51100000000E-03 0.  1.
    9900012    2    1    2    0    0  0.90145995591E+01 -0.65304833809E+01 -0.29879952965E+02  0.59301924550E+02  0.49999964478E+02 0.  0.
         12    1    1    2    0    0 -0.90145995591E+01  0.65304833809E+01  0.29879952965E+02  0.31886075450E+02  0.00000000000E+00 0. -1.
         11    1    3    3    0    0  0.16368480996E+00 -0.16368777662E+01 -0.11557976119E+02  0.11674458178E+02  0.51100000000E-03 0.  1.
        -11    1    3    3    0    0  0.28188202525E+01  0.17529260623E+02  0.46273616420E+00  0.17760485653E+02  0.51100000000E-03 0. -1.
         12    1    3    3    0    0  0.60320944967E+01 -0.22422866238E+02 -0.18784713011E+02  0.29866980719E+02  0.00000000000E+00 0. -1.
</event>
<event>
 7    1  0.6061051E-012  0.5930195E+02  0.7816164E-02  0.1266605E+00
        -11   -1    0    0    0    0  0.00000000000E+00  0.00000000000E+00  0.45593999997E+02  0.45594000000E+02  0.51100000000E-03 0.  1.
         11   -1    0    0    0    0 -0.00000000000E+00 -0.00000000000E+00 -0.45593999997E+02  0.45594000000E+02  0.51100000000E-03 0. -1.
    9900012    2    1    2    0    0  0.22579506760E+02  0.21709746430E+02  0.59643174109E+01  0.59301948226E+02  0.50000007657E+02 0.  0.
         12    1    1    2    0    0 -0.22579506760E+02 -0.21709746430E+02 -0.59643174109E+01  0.31886051774E+02  0.00000000000E+00 0. -1.
         11    1    3    3    0    0 -0.61783415928E+01  0.96096155409E+01  0.33127493516E+01  0.11894995763E+02  0.51100000000E-03 0. -1.
        -11    1    3    3    0    0 -0.39508423228E+01 -0.20336294284E+01  0.10073881814E+02  0.11010354162E+02  0.51100000000E-03 0.  1.
        -12    1    3    3    0    0  0.32708690675E+02  0.14133760317E+02 -0.74223137544E+01  0.36396598301E+02  0.00000000000E+00 0.  1.
</event>
<event>
 7    1  0.6061051E-012  0.5930194E+02  0.7816164E-02  0.1266605E+00
        -11   -1    0    0    0    0  0.00000000000E+00  0.00000000000E+00  0.45593999997E+02  0.45594000000E+02  0.51100000000E-03 0. -1.
         11   -1    0    0    0    0 -0.00000000000E+00 -0.00000000000E+00 -0.45593999997E+02  0.45594000000E+02  0.51100000000E-03 0.  1.
    9900012    2    1    2    0    0  0.20278113447E+02  0.23504042426E+02  0.72855314597E+01  0.59301939347E+02  0.49999991463E+02 0.  0.
         12    1    1    2    0    0 -0.20278113447E+02 -0.23504042426E+02 -0.72855314597E+01  0.31886060653E+02  0.00000000000E+00 0. -1.
         11    1    3    3    0    0 -0.84990665306E+01  0.16763878257E+02 -0.59709647656E+01  0.19720906840E+02  0.51100000000E-03 0. -1.
        -11    1    3    3    0    0  0.40992340404E+01 -0.48702454817E+01 -0.38001537407E+01  0.74137830750E+01  0.51100000000E-03 0.  1.
        -12    1    3    3    0    0  0.24677945937E+02  0.11610409651E+02  0.17056649966E+02  0.32167249432E+02  0.00000000000E+00 0.  1.
</event>
<event>
 7    1  0.6061051E-012  0.5930194E+02  0.7816164E-02  0.1266605E+00
        -11   -1    0    0    0    0  0.00000000000E+00  0.00000000000E+00  0.45593999997E+02  0.45594000000E+02  0.51100000000E-03 0.  1.
         11   -1    0    0    0    0 -0.00000000000E+00 -0.00000000000E+00 -0.45593999997E+02  0.45594000000E+02  0.51100000000E-03 0. -1.
    9900012    2    1    2    0    0  0.29496788555E+02  0.47417180012E+01  0.11143442891E+02  0.59301941226E+02  0.49999994891E+02 0.  0.
         12    1    1    2    0    0 -0.29496788555E+02 -0.47417180012E+01 -0.11143442891E+02  0.31886058774E+02  0.00000000000E+00 0. -1.
         11    1    3    3    0    0  0.21384477815E+02  0.50721846301E+01  0.21003597581E+02  0.30400231248E+02  0.51100000000E-03 0.  1.
        -11    1    3    3    0    0  0.64863937434E+00 -0.60559813307E+01  0.71935548706E+01  0.94256498371E+01  0.51100000000E-03 0. -1.
         12    1    3    3    0    0  0.74636713658E+01  0.57255147018E+01 -0.17053709560E+02  0.19476060141E+02  0.00000000000E+00 0. -1.
</event>
<event>
 7    1  0.6061051E-012  0.5930182E+02  0.7816164E-02  0.1266605E+00
        -11   -1    0    0    0    0  0.00000000000E+00  0.00000000000E+00  0.45593999997E+02  0.45594000000E+02  0.51100000000E-03 0.  1.
         11   -1    0    0    0    0 -0.00000000000E+00 -0.00000000000E+00 -0.45593999997E+02  0.45594000000E+02  0.51100000000E-03 0. -1.
    9900012    2    1    2    0    0  0.28270164528E+02 -0.14126398626E+02  0.42392497902E+01  0.59301818364E+02  0.49999770818E+02 0.  0.
         12    1    1    2    0    0 -0.28270164528E+02  0.14126398626E+02 -0.42392497902E+01  0.31886181636E+02  0.00000000000E+00 0. -1.
         11    1    3    3    0    0  0.92918207430E+01  0.92955878485E+01 -0.90765910642E+01  0.15972801626E+02  0.51100000000E-03 0. -1.
        -11    1    3    3    0    0  0.12358966220E+02 -0.14334497758E+01 -0.55367921571E+01  0.13618182402E+02  0.51100000000E-03 0.  1.
        -12    1    3    3    0    0  0.66193775653E+01 -0.21988536698E+02  0.18852633011E+02  0.29710834336E+02  0.00000000000E+00 0.  1.
</event>
<event>
 7    1  0.6061051E-012  0.5930193E+02  0.7816164E-02  0.1266605E+00
        -11   -1    0    0    0    0  0.00000000000E+00  0.00000000000E+00  0.45593999997E+02  0.45594000000E+02  0.51100000000E-03 0.  1.
         11   -1    0    0    0    0 -0.00000000000E+00 -0.00000000000E+00 -0.45593999997E+02  0.45594000000E+02  0.51100000000E-03 0. -1.
    9900012    2    1    2    0    0 -0.27211539220E+01 -0.28293617691E+02  0.14449499239E+02  0.59301929233E+02  0.49999973018E+02 0.  0.
         12    1    1    2    0    0  0.27211539220E+01  0.28293617691E+02 -0.14449499239E+02  0.31886070767E+02  0.00000000000E+00 0. -1.
         11    1    3    3    0    0  0.34862865918E+01 -0.78555123254E+01  0.10930074715E+01  0.86635981953E+01  0.51100000000E-03 0. -1.
        -11    1    3    3    0    0 -0.19858202869E+02 -0.97124230667E+01  0.22049790074E+02  0.31222950302E+02  0.51100000000E-03 0.  1.
         12    1    3    3    0    0  0.13650762355E+02 -0.10725682299E+02 -0.86932983068E+01  0.19415380735E+02  0.00000000000E+00 0. -1.
</event>
<event>
 7    1  0.6061051E-012  0.5930193E+02  0.7816164E-02  0.1266605E+00
        -11   -1    0    0    0    0  0.00000000000E+00  0.00000000000E+00  0.45593999997E+02  0.45594000000E+02  0.51100000000E-03 0. -1.
         11   -1    0    0    0    0 -0.00000000000E+00 -0.00000000000E+00 -0.45593999997E+02  0.45594000000E+02  0.51100000000E-03 0.  1.
    9900012    2    1    2    0    0 -0.27806570020E+02 -0.14181929364E+02 -0.65106757115E+01  0.59301931648E+02  0.49999977422E+02 0.  0.
         12    1    1    2    0    0  0.27806570020E+02  0.14181929364E+02  0.65106757115E+01  0.31886068352E+02  0.00000000000E+00 0. -1.
         11    1    3    3    0    0  0.46128704995E+01  0.19884364152E+01 -0.34428868993E+01  0.60898213508E+01  0.51100000000E-03 0. -1.
        -11    1    3    3    0    0 -0.64893539684E+01 -0.66624576072E+00 -0.18263883448E+02  0.19393943312E+02  0.51100000000E-03 0.  1.
         12    1    3    3    0    0 -0.25930086551E+02 -0.15504120018E+02  0.15196094635E+02  0.33818166985E+02  0.00000000000E+00 0. -1.
</event>
<event>
 7    1  0.6061051E-012  0.5930191E+02  0.7816164E-02  0.1266605E+00
        -11   -1    0    0    0    0  0.00000000000E+00  0.00000000000E+00  0.45593999997E+02  0.45594000000E+02  0.51100000000E-03 0.  1.
         11   -1    0    0    0    0 -0.00000000000E+00 -0.00000000000E+00 -0.45593999997E+02  0.45594000000E+02  0.51100000000E-03 0. -1.
    9900012    2    1    2    0    0  0.31017086238E+02 -0.40909187416E+01 -0.61585075081E+01  0.59301914170E+02  0.49999945547E+02 0.  0.
         12    1    1    2    0    0 -0.31017086238E+02  0.40909187416E+01  0.61585075081E+01  0.31886085830E+02  0.00000000000E+00 0. -1.
         11    1    3    3    0    0  0.18054190361E+02 -0.18978236935E+02 -0.73028679723E+01  0.27192998136E+02  0.51100000000E-03 0. -1.
        -11    1    3    3    0    0  0.99682023859E+01  0.88635209035E+01 -0.11613464265E+02  0.17686141866E+02  0.51100000000E-03 0.  1.
        -12    1    3    3    0    0  0.29946934908E+01  0.60237972899E+01  0.12757824729E+02  0.14422774168E+02  0.00000000000E+00 0.  1.
</event>
<event>
 7    1  0.6061051E-012  0.5930195E+02  0.7816164E-02  0.1266605E+00
        -11   -1    0    0    0    0  0.00000000000E+00  0.00000000000E+00  0.45593999997E+02  0.45594000000E+02  0.51100000000E-03 0.  1.
         11   -1    0    0    0    0 -0.00000000000E+00 -0.00000000000E+00 -0.45593999997E+02  0.45594000000E+02  0.51100000000E-03 0. -1.
    9900012    2    1    2    0    0 -0.22263026431E+01 -0.16272704158E-01  0.31808226699E+02  0.59301953303E+02  0.50000016916E+02 0.  0.
         12    1    1    2    0    0  0.22263026431E+01  0.16272704158E-01 -0.31808226699E+02  0.31886046697E+02  0.00000000000E+00 0. -1.
         11    1    3    3    0    0 -0.11255214777E+02 -0.15263143656E+02  0.21318180180E+02  0.28532581734E+02  0.51100000000E-03 0. -1.
        -11    1    3    3    0    0 -0.21951412777E+01  0.17329390841E+02  0.55255167737E+01  0.18320965259E+02  0.51100000000E-03 0.  1.
        -12    1    3    3    0    0  0.11224053411E+02 -0.20825198890E+01  0.49645297448E+01  0.12448406310E+02  0.00000000000E+00 0.  1.
</event>
<event>
 7    1  0.6061051E-012  0.5930193E+02  0.7816164E-02  0.1266605E+00
        -11   -1    0    0    0    0  0.00000000000E+00  0.00000000000E+00  0.45593999997E+02  0.45594000000E+02  0.51100000000E-03 0.  1.
         11   -1    0    0    0    0 -0.00000000000E+00 -0.00000000000E+00 -0.45593999997E+02  0.45594000000E+02  0.51100000000E-03 0. -1.
    9900012    2    1    2    0    0  0.77455301889E+01  0.30854718447E+02 -0.21712791016E+01  0.59301931862E+02  0.49999977813E+02 0.  0.
         12    1    1    2    0    0 -0.77455301889E+01 -0.30854718447E+02  0.21712791016E+01  0.31886068138E+02  0.00000000000E+00 0. -1.
         11    1    3    3    0    0 -0.18511986257E+02  0.89511014631E+01  0.41148150496E+01  0.20970158696E+02  0.51100000000E-03 0. -1.
        -11    1    3    3    0    0  0.13549802981E+00  0.44616175359E+01  0.32325429635E+01  0.55112362519E+01  0.51100000000E-03 0.  1.
        -12    1    3    3    0    0  0.26122018416E+02  0.17441999448E+02 -0.95186371147E+01  0.32820536915E+02  0.00000000000E+00 0.  1.
</event>
<event>
 7    1  0.6061051E-012  0.5930193E+02  0.7816164E-02  0.1266605E+00
        -11   -1    0    0    0    0  0.00000000000E+00  0.00000000000E+00  0.45593999997E+02  0.45594000000E+02  0.51100000000E-03 0. -1.
         11   -1    0    0    0    0 -0.00000000000E+00 -0.00000000000E+00 -0.45593999997E+02  0.45594000000E+02  0.51100000000E-03 0.  1.
    9900012    2    1    2    0    0  0.31088367680E+01 -0.81557321037E+01 -0.30668231527E+02  0.59301933181E+02  0.49999980218E+02 0.  0.
         12    1    1    2    0    0 -0.31088367680E+01  0.81557321037E+01  0.30668231527E+02  0.31886066819E+02  0.00000000000E+00 0. -1.
         11    1    3    3    0    0  0.22293271024E+01 -0.14665559497E+02  0.56682040584E+01  0.15880084137E+02  0.51100000000E-03 0. -1.
        -11    1    3    3    0    0  0.22246390731E+01  0.56367873608E+01  0.92137398656E+00  0.61295449294E+01  0.51100000000E-03 0.  1.
        -12    1    3    3    0    0 -0.13451294076E+01  0.87304003265E+00 -0.37257809572E+02  0.37292304114E+02  0.00000000000E+00 0.  1.
</event>
<event>
 7    1  0.6061051E-012  0.5930197E+02  0.7816164E-02  0.1266605E+00
        -11   -1    0    0    0    0  0.00000000000E+00  0.00000000000E+00  0.45593999997E+02  0.45594000000E+02  0.51100000000E-03 0.  1.
         11   -1    0    0    0    0 -0.00000000000E+00 -0.00000000000E+00 -0.45593999997E+02  0.45594000000E+02  0.51100000000E-03 0. -1.
    9900012    2    1    2    0    0 -0.20509602928E+02  0.18963696135E+02  0.15377044143E+02  0.59301967479E+02  0.50000042769E+02 0.  0.
         12    1    1    2    0    0  0.20509602928E+02 -0.18963696135E+02 -0.15377044143E+02  0.31886032521E+02  0.00000000000E+00 0. -1.
         11    1    3    3    0    0  0.35627480873E+01 -0.86757560731E+00 -0.81951357406E+01  0.89780906342E+01  0.51100000000E-03 0. -1.
        -11    1    3    3    0    0  0.58413838727E+01  0.90519928801E+01  0.51392229659E-01  0.10773253087E+02  0.51100000000E-03 0.  1.
        -12    1    3    3    0    0 -0.29913734888E+02  0.10779278863E+02  0.23520787654E+02  0.39550623758E+02  0.00000000000E+00 0.  1.
</event>
<event>
 7    1  0.6061051E-012  0.5930198E+02  0.7816164E-02  0.1266605E+00
        -11   -1    0    0    0    0  0.00000000000E+00  0.00000000000E+00  0.45593999997E+02  0.45594000000E+02  0.51100000000E-03 0.  1.
         11   -1    0    0    0    0 -0.00000000000E+00 -0.00000000000E+00 -0.45593999997E+02  0.45594000000E+02  0.51100000000E-03 0. -1.
    9900012    2    1    2    0    0  0.60466082546E+01  0.24941098509E+02  0.18923493504E+02  0.59301976845E+02  0.50000059851E+02 0.  0.
         12    1    1    2    0    0 -0.60466082546E+01 -0.24941098509E+02 -0.18923493504E+02  0.31886023155E+02  0.00000000000E+00 0. -1.
         11    1    3    3    0    0 -0.78747884931E+01 -0.59604108209E+01  0.12605139497E+02  0.16013379810E+02  0.51100000000E-03 0. -1.
        -11    1    3    3    0    0  0.95827169181E+01  0.95497365712E+01  0.14668942436E+02  0.19955044589E+02  0.51100000000E-03 0.  1.
         12    1    3    3    0    0  0.43386798295E+01  0.21351772759E+02 -0.83505884288E+01  0.23333552445E+02  0.00000000000E+00 0. -1.
</event>
<event>
 7    1  0.6061051E-012  0.5930193E+02  0.7816164E-02  0.1266605E+00
        -11   -1    0    0    0    0  0.00000000000E+00  0.00000000000E+00  0.45593999997E+02  0.45594000000E+02  0.51100000000E-03 0.  1.
         11   -1    0    0    0    0 -0.00000000000E+00 -0.00000000000E+00 -0.45593999997E+02  0.45594000000E+02  0.51100000000E-03 0. -1.
    9900012    2    1    2    0    0  0.14383817623E+02  0.25071208940E+02  0.13463355402E+02  0.59301926774E+02  0.49999968533E+02 0.  0.
         12    1    1    2    0    0 -0.14383817623E+02 -0.25071208940E+02 -0.13463355402E+02  0.31886073226E+02  0.00000000000E+00 0. -1.
         11    1    3    3    0    0  0.12219561333E+01  0.59017050596E+00 -0.41179036338E+01  0.43357362254E+01  0.51100000000E-03 0. -1.
        -11    1    3    3    0    0  0.23351460087E+02  0.16434224251E+02  0.26705682945E+02  0.39096904184E+02  0.51100000000E-03 0.  1.
         12    1    3    3    0    0 -0.10189598597E+02  0.80468141824E+01 -0.91244239085E+01  0.15869286365E+02  0.00000000000E+00 0. -1.
</event>
<event>
 7    1  0.6061051E-012  0.5930191E+02  0.7816164E-02  0.1266605E+00
        -11   -1    0    0    0    0  0.00000000000E+00  0.00000000000E+00  0.45593999997E+02  0.45594000000E+02  0.51100000000E-03 0. -1.
         11   -1    0    0    0    0 -0.00000000000E+00 -0.00000000000E+00 -0.45593999997E+02  0.45594000000E+02  0.51100000000E-03 0.  1.
    9900012    2    1    2    0    0  0.12654941889E+02  0.19831128093E+02 -0.21524437790E+02  0.59301911845E+02  0.49999941306E+02 0.  0.
         12    1    1    2    0    0 -0.12654941889E+02 -0.19831128093E+02  0.21524437790E+02  0.31886088155E+02  0.00000000000E+00 0. -1.
         11    1    3    3    0    0  0.11855306133E+01  0.60931131341E+01  0.52376127184E+01  0.81218284733E+01  0.51100000000E-03 0. -1.
        -11    1    3    3    0    0  0.25025224554E+02  0.16247867867E+02 -0.18546179783E+02  0.35131408440E+02  0.51100000000E-03 0.  1.
         12    1    3    3    0    0 -0.13555813278E+02 -0.25098529079E+01 -0.82158707258E+01  0.16048674931E+02  0.00000000000E+00 0. -1.
</event>
<event>
 7    1  0.6061051E-012  0.5930195E+02  0.7816164E-02  0.1266605E+00
        -11   -1    0    0    0    0  0.00000000000E+00  0.00000000000E+00  0.45593999997E+02  0.45594000000E+02  0.51100000000E-03 0.  1.
         11   -1    0    0    0    0 -0.00000000000E+00 -0.00000000000E+00 -0.45593999997E+02  0.45594000000E+02  0.51100000000E-03 0. -1.
    9900012    2    1    2    0    0  0.25045030030E+02  0.14328978612E+02  0.13570073164E+02  0.59301952221E+02  0.50000014943E+02 0.  0.
         12    1    1    2    0    0 -0.25045030030E+02 -0.14328978612E+02 -0.13570073164E+02  0.31886047779E+02  0.00000000000E+00 0. -1.
         11    1    3    3    0    0 -0.33612111950E+01  0.93159299099E+00 -0.90417080800E+01  0.96911346840E+01  0.51100000000E-03 0. -1.
        -11    1    3    3    0    0 -0.18099997405E+01  0.13482681901E+02  0.99238500378E+01  0.16838693837E+02  0.51100000000E-03 0.  1.
        -12    1    3    3    0    0  0.30216240966E+02 -0.85296279151E-01  0.12687931206E+02  0.32772123700E+02  0.00000000000E+00 0.  1.
</event>
<event>
 7    1  0.6061051E-012  0.5930189E+02  0.7816164E-02  0.1266605E+00
        -11   -1    0    0    0    0  0.00000000000E+00  0.00000000000E+00  0.45593999997E+02  0.45594000000E+02  0.51100000000E-03 0.  1.
         11   -1    0    0    0    0 -0.00000000000E+00 -0.00000000000E+00 -0.45593999997E+02  0.45594000000E+02  0.51100000000E-03 0. -1.
    9900012    2    1    2    0    0 -0.10724100924E+02 -0.17627579317E+02  0.24310206896E+02  0.59301889347E+02  0.49999900276E+02 0.  0.
         12    1    1    2    0    0  0.10724100924E+02  0.17627579317E+02 -0.24310206896E+02  0.31886110653E+02  0.00000000000E+00 0. -1.
         11    1    3    3    0    0 -0.84248838565E+01  0.22836655951E+01  0.31797558542E+01  0.92900292841E+01  0.51100000000E-03 0. -1.
        -11    1    3    3    0    0 -0.16620883279E+02 -0.13132297084E+02  0.25905011791E+02  0.33463123342E+02  0.51100000000E-03 0.  1.
         12    1    3    3    0    0  0.14321666211E+02 -0.67789478284E+01 -0.47745607485E+01  0.16548736721E+02  0.00000000000E+00 0. -1.
</event>
<event>
 7    1  0.6061051E-012  0.5930191E+02  0.7816164E-02  0.1266605E+00
        -11   -1    0    0    0    0  0.00000000000E+00  0.00000000000E+00  0.45593999997E+02  0.45594000000E+02  0.51100000000E-03 0.  1.
         11   -1    0    0    0    0 -0.00000000000E+00 -0.00000000000E+00 -0.45593999997E+02  0.45594000000E+02  0.51100000000E-03 0. -1.
    9900012    2    1    2    0    0 -0.24080674833E+02  0.12715544744E+02  0.16587905539E+02  0.59301912302E+02  0.49999942139E+02 0.  0.
         12    1    1    2    0    0  0.24080674833E+02 -0.12715544744E+02 -0.16587905539E+02  0.31886087698E+02  0.00000000000E+00 0. -1.
         11    1    3    3    0    0  0.12534840828E+01  0.42677461403E+01 -0.62062564381E+01  0.76356072909E+01  0.51100000000E-03 0. -1.
        -11    1    3    3    0    0 -0.12812394145E+02  0.20371279395E+02  0.13273322341E+01  0.24102038898E+02  0.51100000000E-03 0.  1.
         12    1    3    3    0    0 -0.12521764771E+02 -0.11923480791E+02  0.21466829743E+02  0.27564266113E+02  0.00000000000E+00 0. -1.
</event>
<event>
 7    1  0.6061051E-012  0.5930193E+02  0.7816164E-02  0.1266605E+00
        -11   -1    0    0    0    0  0.00000000000E+00  0.00000000000E+00  0.45593999997E+02  0.45594000000E+02  0.51100000000E-03 0.  1.
         11   -1    0    0    0    0 -0.00000000000E+00 -0.00000000000E+00 -0.45593999997E+02  0.45594000000E+02  0.51100000000E-03 0. -1.
    9900012    2    1    2    0    0  0.60766944274E+01 -0.16840619062E+01  0.31256344107E+02  0.59301932093E+02  0.49999978233E+02 0.  0.
         12    1    1    2    0    0 -0.60766944274E+01  0.16840619062E+01 -0.31256344107E+02  0.31886067907E+02  0.00000000000E+00 0. -1.
         11    1    3    3    0    0  0.15835938442E+02 -0.16232334638E+02  0.12055122464E+02  0.25682515687E+02  0.51100000000E-03 0. -1.
        -11    1    3    3    0    0  0.72137692140E+00 -0.25591211037E+01  0.12019672691E+02  0.12310240345E+02  0.51100000000E-03 0.  1.
         12    1    3    3    0    0 -0.10480620936E+02  0.17107393835E+02  0.71815489514E+01  0.21309176060E+02  0.00000000000E+00 0. -1.
</event>
<event>
 7    1  0.6061051E-012  0.5930189E+02  0.7816164E-02  0.1266605E+00
        -11   -1    0    0    0    0  0.00000000000E+00  0.00000000000E+00  0.45593999997E+02  0.45594000000E+02  0.51100000000E-03 0. -1.
         11   -1    0    0    0    0 -0.00000000000E+00 -0.00000000000E+00 -0.45593999997E+02  0.45594000000E+02  0.51100000000E-03 0.  1.
    9900012    2    1    2    0    0 -0.28987531160E+01 -0.26327176661E+02  0.17753896439E+02  0.59301892691E+02  0.49999906374E+02 0.  0.
         12    1    1    2    0    0  0.28987531160E+01  0.26327176661E+02 -0.17753896439E+02  0.31886107309E+02  0.00000000000E+00 0. -1.
         11    1    3    3    0    0  0.14370188624E+02  0.57451071405E+01  0.42355388827E+01  0.16045197632E+02  0.51100000000E-03 0.  1.
        -11    1    3    3    0    0  0.36882055718E+01 -0.52404957092E+01  0.50872881476E+01  0.81820631002E+01  0.51100000000E-03 0. -1.
         12    1    3    3    0    0 -0.20957147312E+02 -0.26831788092E+02  0.84310694086E+01  0.35074631959E+02  0.00000000000E+00 0. -1.
</event>
<event>
 7    1  0.6061051E-012  0.5930185E+02  0.7816164E-02  0.1266605E+00
        -11   -1    0    0    0    0  0.00000000000E+00  0.00000000000E+00  0.45593999997E+02  0.45594000000E+02  0.51100000000E-03 0. -1.
         11   -1    0    0    0    0 -0.00000000000E+00 -0.00000000000E+00 -0.45593999997E+02  0.45594000000E+02  0.51100000000E-03 0.  1.
    9900012    2    1    2    0    0  0.16719049645E+02 -0.11951029120E+02 -0.24379766404E+02  0.59301847395E+02  0.49999823764E+02 0.  0.
         12    1    1    2    0    0 -0.16719049645E+02  0.11951029120E+02  0.24379766404E+02  0.31886152605E+02  0.00000000000E+00 0. -1.
         11    1    3    3    0    0 -0.66439030732E+01 -0.13468021423E+02 -0.53449229888E+01  0.15940428197E+02  0.51100000000E-03 0. -1.
        -11    1    3    3    0    0  0.80564255319E+01  0.90627635934E+00 -0.25482517731E+02  0.26741092710E+02  0.51100000000E-03 0.  1.
        -12    1    3    3    0    0  0.15306527186E+02  0.61071594341E+00  0.64476743154E+01  0.16620326487E+02  0.00000000000E+00 0.  1.
</event>
<event>
 7    1  0.6061051E-012  0.5930193E+02  0.7816164E-02  0.1266605E+00
        -11   -1    0    0    0    0  0.00000000000E+00  0.00000000000E+00  0.45593999997E+02  0.45594000000E+02  0.51100000000E-03 0. -1.
         11   -1    0    0    0    0 -0.00000000000E+00 -0.00000000000E+00 -0.45593999997E+02  0.45594000000E+02  0.51100000000E-03 0.  1.
    9900012    2    1    2    0    0  0.30271188892E+02 -0.10011835376E+02 -0.37407064969E+00  0.59301926968E+02  0.49999968888E+02 0.  0.
         12    1    1    2    0    0 -0.30271188892E+02  0.10011835376E+02  0.37407064969E+00  0.31886073032E+02  0.00000000000E+00 0. -1.
         11    1    3    3    0    0  0.12115082743E+02 -0.34038341836E+00  0.13909616521E+02  0.18449079184E+02  0.51100000000E-03 0. -1.
        -11    1    3    3    0    0  0.20674868918E+02  0.64209935933E+01 -0.10811488261E+02  0.24198504958E+02  0.51100000000E-03 0.  1.
         12    1    3    3    0    0 -0.25187627689E+01 -0.16092445551E+02 -0.34721989095E+01  0.16654342826E+02  0.00000000000E+00 0. -1.
</event>
<event>
 7    1  0.6061051E-012  0.5930198E+02  0.7816164E-02  0.1266605E+00
        -11   -1    0    0    0    0  0.00000000000E+00  0.00000000000E+00  0.45593999997E+02  0.45594000000E+02  0.51100000000E-03 0. -1.
         11   -1    0    0    0    0 -0.00000000000E+00 -0.00000000000E+00 -0.45593999997E+02  0.45594000000E+02  0.51100000000E-03 0.  1.
    9900012    2    1    2    0    0  0.11264774267E+02 -0.27309269459E+02  0.12001134474E+02  0.59301975376E+02  0.50000057172E+02 0.  0.
         12    1    1    2    0    0 -0.11264774267E+02  0.27309269459E+02 -0.12001134474E+02  0.31886024624E+02  0.00000000000E+00 0. -1.
         11    1    3    3    0    0 -0.27977668815E+00  0.11751842291E+00  0.49225659829E+01  0.49319105519E+01  0.51100000000E-03 0. -1.
        -11    1    3    3    0    0 -0.83104751706E+01  0.51500695796E+01 -0.86980378827E+01  0.13085987831E+02  0.51100000000E-03 0.  1.
         12    1    3    3    0    0  0.19855026126E+02 -0.32576857462E+02  0.15776606373E+02  0.41284076993E+02  0.00000000000E+00 0. -1.
</event>
<event>
 7    1  0.6061051E-012  0.5930197E+02  0.7816164E-02  0.1266605E+00
        -11   -1    0    0    0    0  0.00000000000E+00  0.00000000000E+00  0.45593999997E+02  0.45594000000E+02  0.51100000000E-03 0.  1.
         11   -1    0    0    0    0 -0.00000000000E+00 -0.00000000000E+00 -0.45593999997E+02  0.45594000000E+02  0.51100000000E-03 0. -1.
    9900012    2    1    2    0    0 -0.11112592984E+02  0.18668799145E+02  0.23338923744E+02  0.59301966288E+02  0.50000040598E+02 0.  0.
         12    1    1    2    0    0  0.11112592984E+02 -0.18668799145E+02 -0.23338923744E+02  0.31886033712E+02  0.00000000000E+00 0. -1.
         11    1    3    3    0    0 -0.60693429899E-02  0.45036147963E+01  0.19781707038E+02  0.20287890887E+02  0.51100000000E-03 0. -1.
        -11    1    3    3    0    0 -0.15111711239E+02  0.18209280789E+02  0.13729522249E+02  0.27357658980E+02  0.51100000000E-03 0.  1.
         12    1    3    3    0    0  0.40051875989E+01 -0.40440964409E+01 -0.10172305542E+02  0.11656416421E+02  0.00000000000E+00 0. -1.
</event>
<event>
 7    1  0.6061051E-012  0.5930192E+02  0.7816164E-02  0.1266605E+00
        -11   -1    0    0    0    0  0.00000000000E+00  0.00000000000E+00  0.45593999997E+02  0.45594000000E+02  0.51100000000E-03 0.  1.
         11   -1    0    0    0    0 -0.00000000000E+00 -0.00000000000E+00 -0.45593999997E+02  0.45594000000E+02  0.51100000000E-03 0. -1.
    9900012    2    1    2    0    0  0.15716364231E+02 -0.94885790575E+01  0.26070771738E+02  0.59301915635E+02  0.49999948218E+02 0.  0.
         12    1    1    2    0    0 -0.15716364231E+02  0.94885790575E+01 -0.26070771738E+02  0.31886084365E+02  0.00000000000E+00 0. -1.
         11    1    3    3    0    0 -0.40627427400E+01 -0.61897205641E+01  0.20478334678E+02  0.21775690820E+02  0.51100000000E-03 0.  1.
        -11    1    3    3    0    0 -0.65221292513E+01  0.11369135131E+01 -0.55311916848E+01  0.86269823242E+01  0.51100000000E-03 0. -1.
         12    1    3    3    0    0  0.26301236222E+02 -0.44357720066E+01  0.11123628745E+02  0.28899242491E+02  0.00000000000E+00 0. -1.
</event>
<event>
 7    1  0.6061051E-012  0.5930197E+02  0.7816164E-02  0.1266605E+00
        -11   -1    0    0    0    0  0.00000000000E+00  0.00000000000E+00  0.45593999997E+02  0.45594000000E+02  0.51100000000E-03 0.  1.
         11   -1    0    0    0    0 -0.00000000000E+00 -0.00000000000E+00 -0.45593999997E+02  0.45594000000E+02  0.51100000000E-03 0. -1.
    9900012    2    1    2    0    0  0.54797165675E+01 -0.16055688298E+02  0.26998262502E+02  0.59301974871E+02  0.50000056250E+02 0.  0.
         12    1    1    2    0    0 -0.54797165675E+01  0.16055688298E+02 -0.26998262502E+02  0.31886025129E+02  0.00000000000E+00 0. -1.
         11    1    3    3    0    0 -0.42413216569E+01 -0.15342254378E+02  0.55947499409E+01  0.16872308851E+02  0.51100000000E-03 0. -1.
        -11    1    3    3    0    0  0.15027509523E+02 -0.14232256933E+02  0.66797806047E+01  0.21748624072E+02  0.51100000000E-03 0.  1.
        -12    1    3    3    0    0 -0.53064712982E+01  0.13518823013E+02  0.14723731957E+02  0.20681041947E+02  0.00000000000E+00 0.  1.
</event>
<event>
 7    1  0.6061051E-012  0.5930199E+02  0.7816164E-02  0.1266605E+00
        -11   -1    0    0    0    0  0.00000000000E+00  0.00000000000E+00  0.45593999997E+02  0.45594000000E+02  0.51100000000E-03 0.  1.
         11   -1    0    0    0    0 -0.00000000000E+00 -0.00000000000E+00 -0.45593999997E+02  0.45594000000E+02  0.51100000000E-03 0. -1.
    9900012    2    1    2    0    0  0.26750992825E+02  0.12541537392E+02 -0.11992165458E+02  0.59301987241E+02  0.50000078811E+02 0.  0.
         12    1    1    2    0    0 -0.26750992825E+02 -0.12541537392E+02  0.11992165458E+02  0.31886012759E+02  0.00000000000E+00 0. -1.
         11    1    3    3    0    0  0.12404004479E+02  0.48441374526E+01 -0.27935752429E+02  0.30947233460E+02  0.51100000000E-03 0. -1.
        -11    1    3    3    0    0  0.74512595425E+01  0.68189631178E+01 -0.89269038073E+00  0.10139843349E+02  0.51100000000E-03 0.  1.
         12    1    3    3    0    0  0.68957288036E+01  0.87843682183E+00  0.16836277352E+02  0.18214910432E+02  0.00000000000E+00 0. -1.
</event>
<event>
 7    1  0.6061051E-012  0.5930195E+02  0.7816164E-02  0.1266605E+00
        -11   -1    0    0    0    0  0.00000000000E+00  0.00000000000E+00  0.45593999997E+02  0.45594000000E+02  0.51100000000E-03 0. -1.
         11   -1    0    0    0    0 -0.00000000000E+00 -0.00000000000E+00 -0.45593999997E+02  0.45594000000E+02  0.51100000000E-03 0.  1.
    9900012    2    1    2    0    0 -0.49166773503E+01 -0.13945784191E+01 -0.31473820410E+02  0.59301953893E+02  0.50000017992E+02 0.  0.
         12    1    1    2    0    0  0.49166773503E+01  0.13945784191E+01  0.31473820410E+02  0.31886046107E+02  0.00000000000E+00 0. -1.
         11    1    3    3    0    0  0.67356974881E+01 -0.11904541025E+02  0.28321333985E+01  0.13968131497E+02  0.51100000000E-03 0. -1.
        -11    1    3    3    0    0 -0.58197530315E+01  0.92154012474E+01 -0.40111780951E+00  0.10906605396E+02  0.51100000000E-03 0.  1.
         12    1    3    3    0    0 -0.58326218069E+01  0.12945613582E+01 -0.33904835999E+02  0.34427217000E+02  0.00000000000E+00 0. -1.
</event>
<event>
 7    1  0.6061051E-012  0.5930197E+02  0.7816164E-02  0.1266605E+00
        -11   -1    0    0    0    0  0.00000000000E+00  0.00000000000E+00  0.45593999997E+02  0.45594000000E+02  0.51100000000E-03 0. -1.
         11   -1    0    0    0    0 -0.00000000000E+00 -0.00000000000E+00 -0.45593999997E+02  0.45594000000E+02  0.51100000000E-03 0.  1.
    9900012    2    1    2    0    0 -0.30955285087E+02  0.73291283257E+01  0.21847503967E+01  0.59301969655E+02  0.50000046738E+02 0.  0.
         12    1    1    2    0    0  0.30955285087E+02 -0.73291283257E+01 -0.21847503967E+01  0.31886030345E+02  0.00000000000E+00 0. -1.
         11    1    3    3    0    0  0.35134146631E+01 -0.62612094444E+01 -0.13536026635E+01  0.73060979143E+01  0.51100000000E-03 0. -1.
        -11    1    3    3    0    0 -0.21729018958E+02 -0.10539739818E+02  0.50298215371E+01  0.24668512020E+02  0.51100000000E-03 0.  1.
        -12    1    3    3    0    0 -0.12739680793E+02  0.24130077588E+02 -0.14914684769E+01  0.27327359721E+02  0.00000000000E+00 0.  1.
</event>
<event>
 7    1  0.6061051E-012  0.5930198E+02  0.7816164E-02  0.1266605E+00
        -11   -1    0    0    0    0  0.00000000000E+00  0.00000000000E+00  0.45593999997E+02  0.45594000000E+02  0.51100000000E-03 0. -1.
         11   -1    0    0    0    0 -0.00000000000E+00 -0.00000000000E+00 -0.45593999997E+02  0.45594000000E+02  0.51100000000E-03 0.  1.
    9900012    2    1    2    0    0 -0.13931517695E+02  0.27587018592E+02 -0.78477843032E+01  0.59301976439E+02  0.50000059110E+02 0.  0.
         12    1    1    2    0    0  0.13931517695E+02 -0.27587018592E+02  0.78477843032E+01  0.31886023561E+02  0.00000000000E+00 0. -1.
         11    1    3    3    0    0  0.83836160182E+01  0.18665535285E+01  0.30629605029E+01  0.91187042347E+01  0.51100000000E-03 0. -1.
        -11    1    3    3    0    0  0.62374010776E+01 -0.15527271480E+00 -0.98202665096E+01  0.11634728892E+02  0.51100000000E-03 0.  1.
         12    1    3    3    0    0 -0.28552534790E+02  0.25875737779E+02 -0.10904782965E+01  0.38548543312E+02  0.00000000000E+00 0. -1.
</event>
<event>
 7    1  0.6061051E-012  0.5930199E+02  0.7816164E-02  0.1266605E+00
        -11   -1    0    0    0    0  0.00000000000E+00  0.00000000000E+00  0.45593999997E+02  0.45594000000E+02  0.51100000000E-03 0.  1.
         11   -1    0    0    0    0 -0.00000000000E+00 -0.00000000000E+00 -0.45593999997E+02  0.45594000000E+02  0.51100000000E-03 0. -1.
    9900012    2    1    2    0    0  0.23012164046E+02 -0.56978857137E+00  0.22064298746E+02  0.59301990023E+02  0.50000083885E+02 0.  0.
         12    1    1    2    0    0 -0.23012164046E+02  0.56978857137E+00 -0.22064298746E+02  0.31886009977E+02  0.00000000000E+00 0. -1.
         11    1    3    3    0    0  0.21790415864E+01  0.58366825736E+01 -0.70623300416E+01  0.94176213333E+01  0.51100000000E-03 0. -1.
        -11    1    3    3    0    0  0.19088504277E+02  0.10309722598E+02  0.23912196113E+02  0.32287063954E+02  0.51100000000E-03 0.  1.
        -12    1    3    3    0    0  0.17446181834E+01 -0.16716193743E+02  0.52144326741E+01  0.17597304736E+02  0.00000000000E+00 0.  1.
</event>
<event>
 7    1  0.6061051E-012  0.5930189E+02  0.7816164E-02  0.1266605E+00
        -11   -1    0    0    0    0  0.00000000000E+00  0.00000000000E+00  0.45593999997E+02  0.45594000000E+02  0.51100000000E-03 0.  1.
         11   -1    0    0    0    0 -0.00000000000E+00 -0.00000000000E+00 -0.45593999997E+02  0.45594000000E+02  0.51100000000E-03 0. -1.
    9900012    2    1    2    0    0 -0.66000367929E+01 -0.11856468076E+02  0.28854600613E+02  0.59301885508E+02  0.49999893273E+02 0.  0.
         12    1    1    2    0    0  0.66000367929E+01  0.11856468076E+02 -0.28854600613E+02  0.31886114492E+02  0.00000000000E+00 0. -1.
         11    1    3    3    0    0 -0.52931461583E+01  0.83117449845E+01  0.27569980136E+01  0.10232474737E+02  0.51100000000E-03 0.  1.
        -11    1    3    3    0    0  0.43917022292E+01  0.72566031795E+01  0.18021416480E+02  0.19917750635E+02  0.51100000000E-03 0. -1.
        -12    1    3    3    0    0 -0.56985928638E+01 -0.27424816240E+02  0.80761861195E+01  0.29151660135E+02  0.00000000000E+00 0.  1.
</event>
<event>
 7    1  0.6061051E-012  0.5930194E+02  0.7816164E-02  0.1266605E+00
        -11   -1    0    0    0    0  0.00000000000E+00  0.00000000000E+00  0.45593999997E+02  0.45594000000E+02  0.51100000000E-03 0.  1.
         11   -1    0    0    0    0 -0.00000000000E+00 -0.00000000000E+00 -0.45593999997E+02  0.45594000000E+02  0.51100000000E-03 0. -1.
    9900012    2    1    2    0    0 -0.75104889373E+01  0.62023909721E+01  0.30361878334E+02  0.59301941074E+02  0.49999994613E+02 0.  0.
         12    1    1    2    0    0  0.75104889373E+01 -0.62023909721E+01 -0.30361878334E+02  0.31886058926E+02  0.00000000000E+00 0. -1.
         11    1    3    3    0    0 -0.14128530252E+02 -0.25933586411E+01  0.27924442306E+02  0.31402473701E+02  0.51100000000E-03 0. -1.
        -11    1    3    3    0    0  0.92647983673E+01  0.24551156828E+01  0.12477294437E+02  0.15733625092E+02  0.51100000000E-03 0.  1.
         12    1    3    3    0    0 -0.26467570521E+01  0.63406339304E+01 -0.10039858409E+02  0.12165842281E+02  0.00000000000E+00 0. -1.
</event>
<event>
 7    1  0.6061051E-012  0.5930194E+02  0.7816164E-02  0.1266605E+00
        -11   -1    0    0    0    0  0.00000000000E+00  0.00000000000E+00  0.45593999997E+02  0.45594000000E+02  0.51100000000E-03 0. -1.
         11   -1    0    0    0    0 -0.00000000000E+00 -0.00000000000E+00 -0.45593999997E+02  0.45594000000E+02  0.51100000000E-03 0.  1.
    9900012    2    1    2    0    0  0.26354462750E+02 -0.10712256378E+02 -0.14401762589E+02  0.59301938637E+02  0.49999990169E+02 0.  0.
         12    1    1    2    0    0 -0.26354462750E+02  0.10712256378E+02  0.14401762589E+02  0.31886061363E+02  0.00000000000E+00 0. -1.
         11    1    3    3    0    0 -0.67573712509E+01 -0.86933292916E+01  0.64638799601E+01  0.12767841822E+02  0.51100000000E-03 0. -1.
        -11    1    3    3    0    0  0.65817866619E+01  0.82218511425E+01  0.11162690209E+01  0.10590788859E+02  0.51100000000E-03 0.  1.
        -12    1    3    3    0    0  0.26530047339E+02 -0.10240778229E+02 -0.21981911570E+02  0.35943307956E+02  0.00000000000E+00 0.  1.
</event>
<event>
 7    1  0.6061051E-012  0.5930195E+02  0.7816164E-02  0.1266605E+00
        -11   -1    0    0    0    0  0.00000000000E+00  0.00000000000E+00  0.45593999997E+02  0.45594000000E+02  0.51100000000E-03 0.  1.
         11   -1    0    0    0    0 -0.00000000000E+00 -0.00000000000E+00 -0.45593999997E+02  0.45594000000E+02  0.51100000000E-03 0. -1.
    9900012    2    1    2    0    0 -0.17044733751E+02 -0.17907172504E+02  0.20137784494E+02  0.59301950699E+02  0.50000012166E+02 0.  0.
         12    1    1    2    0    0  0.17044733751E+02  0.17907172504E+02 -0.20137784494E+02  0.31886049301E+02  0.00000000000E+00 0. -1.
         11    1    3    3    0    0 -0.15186484885E+02  0.60965184667E+01 -0.42820896369E+01  0.16915470804E+02  0.51100000000E-03 0. -1.
        -11    1    3    3    0    0 -0.81504295464E+01 -0.93729124601E+00 -0.92322613138E-02  0.82041515202E+01  0.51100000000E-03 0.  1.
        -12    1    3    3    0    0  0.62921806811E+01 -0.23066399725E+02  0.24429106392E+02  0.34182328375E+02  0.00000000000E+00 0.  1.
</event>
<event>
 7    1  0.6061051E-012  0.5930228E+02  0.7816164E-02  0.1266604E+00
        -11   -1    0    0    0    0  0.00000000000E+00  0.00000000000E+00  0.45593999997E+02  0.45594000000E+02  0.51100000000E-03 0.  1.
         11   -1    0    0    0    0 -0.00000000000E+00 -0.00000000000E+00 -0.45593999997E+02  0.45594000000E+02  0.51100000000E-03 0. -1.
    9900012    2    1    2    0    0 -0.16556343614E+02  0.38678147464E+01  0.26974553179E+02  0.59302281818E+02  0.50000616044E+02 0.  0.
         12    1    1    2    0    0  0.16556343614E+02 -0.38678147464E+01 -0.26974553179E+02  0.31885718182E+02  0.00000000000E+00 0. -1.
         11    1    3    3    0    0 -0.58229745012E+01  0.15543754269E+02  0.13132237843E+02  0.21165325413E+02  0.51100000000E-03 0. -1.
        -11    1    3    3    0    0  0.14245257646E+01 -0.81264545310E+01  0.21711326597E+02  0.23226068108E+02  0.51100000000E-03 0.  1.
         12    1    3    3    0    0 -0.12157894877E+02 -0.35494849916E+01 -0.78690112611E+01  0.14910888296E+02  0.00000000000E+00 0. -1.
</event>
<event>
 7    1  0.6061051E-012  0.5930193E+02  0.7816164E-02  0.1266605E+00
        -11   -1    0    0    0    0  0.00000000000E+00  0.00000000000E+00  0.45593999997E+02  0.45594000000E+02  0.51100000000E-03 0.  1.
         11   -1    0    0    0    0 -0.00000000000E+00 -0.00000000000E+00 -0.45593999997E+02  0.45594000000E+02  0.51100000000E-03 0. -1.
    9900012    2    1    2    0    0 -0.27853815846E+02  0.99192392150E+00  0.15488790975E+02  0.59301927553E+02  0.49999969954E+02 0.  0.
         12    1    1    2    0    0  0.27853815846E+02 -0.99192392150E+00 -0.15488790975E+02  0.31886072447E+02  0.00000000000E+00 0. -1.
         11    1    3    3    0    0 -0.14148050318E+00  0.62054275388E+01 -0.11500612959E+01  0.63126847630E+01  0.51100000000E-03 0. -1.
        -11    1    3    3    0    0  0.10815512187E+02  0.12465104045E+01  0.63004074260E+01  0.12578721162E+02  0.51100000000E-03 0.  1.
        -12    1    3    3    0    0 -0.38527847530E+02 -0.64600140218E+01  0.10338444845E+02  0.40410521628E+02  0.00000000000E+00 0.  1.
</event>
<event>
 7    1  0.6061051E-012  0.5930195E+02  0.7816164E-02  0.1266605E+00
        -11   -1    0    0    0    0  0.00000000000E+00  0.00000000000E+00  0.45593999997E+02  0.45594000000E+02  0.51100000000E-03 0.  1.
         11   -1    0    0    0    0 -0.00000000000E+00 -0.00000000000E+00 -0.45593999997E+02  0.45594000000E+02  0.51100000000E-03 0. -1.
    9900012    2    1    2    0    0  0.71683705274E+01 -0.29751901026E+02 -0.89531645463E+01  0.59301948095E+02  0.50000007419E+02 0.  0.
         12    1    1    2    0    0 -0.71683705274E+01  0.29751901026E+02  0.89531645463E+01  0.31886051905E+02  0.00000000000E+00 0. -1.
         11    1    3    3    0    0  0.11890269749E+02 -0.29909244894E+02 -0.24328998112E+01  0.32277863105E+02  0.51100000000E-03 0. -1.
        -11    1    3    3    0    0 -0.74464190128E+01 -0.10548489230E+02  0.20091865285E+01  0.13067387341E+02  0.51100000000E-03 0.  1.
         12    1    3    3    0    0  0.27245197912E+01  0.10705833099E+02 -0.85294512635E+01  0.13956697650E+02  0.00000000000E+00 0. -1.
</event>
<event>
 7    1  0.6061051E-012  0.5930194E+02  0.7816164E-02  0.1266605E+00
        -11   -1    0    0    0    0  0.00000000000E+00  0.00000000000E+00  0.45593999997E+02  0.45594000000E+02  0.51100000000E-03 0.  1.
         11   -1    0    0    0    0 -0.00000000000E+00 -0.00000000000E+00 -0.45593999997E+02  0.45594000000E+02  0.51100000000E-03 0. -1.
    9900012    2    1    2    0    0 -0.25340299828E+02 -0.19127250507E+02 -0.29560526053E+01  0.59301941066E+02  0.49999994599E+02 0.  0.
         12    1    1    2    0    0  0.25340299828E+02  0.19127250507E+02  0.29560526053E+01  0.31886058934E+02  0.00000000000E+00 0. -1.
         11    1    3    3    0    0 -0.24843806043E+02 -0.20389792410E+02  0.31477485568E+01  0.32293445999E+02  0.51100000000E-03 0.  1.
        -11    1    3    3    0    0  0.18106552926E+01 -0.12275674374E+02 -0.13781455597E+01  0.12484788319E+02  0.51100000000E-03 0. -1.
        -12    1    3    3    0    0 -0.23071490769E+01  0.13538216277E+02 -0.47256556024E+01  0.14523706748E+02  0.00000000000E+00 0.  1.
</event>
<event>
 7    1  0.6061051E-012  0.5930196E+02  0.7816164E-02  0.1266605E+00
        -11   -1    0    0    0    0  0.00000000000E+00  0.00000000000E+00  0.45593999997E+02  0.45594000000E+02  0.51100000000E-03 0. -1.
         11   -1    0    0    0    0 -0.00000000000E+00 -0.00000000000E+00 -0.45593999997E+02  0.45594000000E+02  0.51100000000E-03 0.  1.
    9900012    2    1    2    0    0 -0.69577293728E+01 -0.28082200326E+02 -0.13405205173E+02  0.59301960752E+02  0.50000030501E+02 0.  0.
         12    1    1    2    0    0  0.69577293728E+01  0.28082200326E+02  0.13405205173E+02  0.31886039248E+02  0.00000000000E+00 0. -1.
         11    1    3    3    0    0 -0.12861083364E+02 -0.16287793954E+02  0.46329792117E+01  0.21264152789E+02  0.51100000000E-03 0. -1.
        -11    1    3    3    0    0  0.54918826864E+01 -0.17828135258E+02  0.37320960437E+00  0.18658576256E+02  0.51100000000E-03 0.  1.
        -12    1    3    3    0    0  0.41147130502E+00  0.60337288862E+01 -0.18411393989E+02  0.19379231707E+02  0.00000000000E+00 0.  1.
</event>
<event>
 7    1  0.6061051E-012  0.5930195E+02  0.7816164E-02  0.1266605E+00
        -11   -1    0    0    0    0  0.00000000000E+00  0.00000000000E+00  0.45593999997E+02  0.45594000000E+02  0.51100000000E-03 0. -1.
         11   -1    0    0    0    0 -0.00000000000E+00 -0.00000000000E+00 -0.45593999997E+02  0.45594000000E+02  0.51100000000E-03 0.  1.
    9900012    2    1    2    0    0  0.24620539759E+02  0.13875029714E+02 -0.14765933310E+02  0.59301949537E+02  0.50000010048E+02 0.  0.
         12    1    1    2    0    0 -0.24620539759E+02 -0.13875029714E+02  0.14765933310E+02  0.31886050463E+02  0.00000000000E+00 0. -1.
         11    1    3    3    0    0 -0.92925349104E+01  0.96653334039E+00  0.17683086498E+01  0.95085386628E+01  0.51100000000E-03 0. -1.
        -11    1    3    3    0    0  0.13048434509E+02 -0.28865476635E+01  0.65637164522E+01  0.14888793587E+02  0.51100000000E-03 0.  1.
        -12    1    3    3    0    0  0.20864640160E+02  0.15795044038E+02 -0.23097958412E+02  0.34904617287E+02  0.00000000000E+00 0.  1.
</event>
<event>
 7    1  0.6061051E-012  0.5930198E+02  0.7816164E-02  0.1266605E+00
        -11   -1    0    0    0    0  0.00000000000E+00  0.00000000000E+00  0.45593999997E+02  0.45594000000E+02  0.51100000000E-03 0.  1.
         11   -1    0    0    0    0 -0.00000000000E+00 -0.00000000000E+00 -0.45593999997E+02  0.45594000000E+02  0.51100000000E-03 0. -1.
    9900012    2    1    2    0    0 -0.38895746981E+01  0.26620526129E+02 -0.17115397739E+02  0.59301983591E+02  0.50000072153E+02 0.  0.
         12    1    1    2    0    0  0.38895746981E+01 -0.26620526129E+02  0.17115397739E+02  0.31886016409E+02  0.00000000000E+00 0. -1.
         11    1    3    3    0    0  0.50444599964E+01 -0.45172447691E+01  0.39216540651E+01  0.78250525766E+01  0.51100000000E-03 0. -1.
        -11    1    3    3    0    0  0.10020665942E+02  0.18407985535E+02 -0.81144109979E+00  0.20974415708E+02  0.51100000000E-03 0.  1.
         12    1    3    3    0    0 -0.18954700637E+02  0.12729785363E+02 -0.20225610704E+02  0.30502515305E+02  0.00000000000E+00 0. -1.
</event>
<event>
 7    1  0.6061051E-012  0.5930197E+02  0.7816164E-02  0.1266605E+00
        -11   -1    0    0    0    0  0.00000000000E+00  0.00000000000E+00  0.45593999997E+02  0.45594000000E+02  0.51100000000E-03 0.  1.
         11   -1    0    0    0    0 -0.00000000000E+00 -0.00000000000E+00 -0.45593999997E+02  0.45594000000E+02  0.51100000000E-03 0. -1.
    9900012    2    1    2    0    0  0.20898993881E+02 -0.27723664209E+01  0.23922063077E+02  0.59301967592E+02  0.50000042976E+02 0.  0.
         12    1    1    2    0    0 -0.20898993881E+02  0.27723664209E+01 -0.23922063077E+02  0.31886032408E+02  0.00000000000E+00 0. -1.
         11    1    3    3    0    0 -0.54382358463E-01  0.63180331622E+01  0.18834234719E+01  0.65930102923E+01  0.51100000000E-03 0. -1.
        -11    1    3    3    0    0  0.11008459389E+02  0.11198385307E+02  0.25403074348E+02  0.29864798646E+02  0.51100000000E-03 0.  1.
         12    1    3    3    0    0  0.99449168511E+01 -0.20288784890E+02 -0.33644347422E+01  0.22844158654E+02  0.00000000000E+00 0. -1.
</event>
<event>
 7    1  0.6061051E-012  0.5930170E+02  0.7816164E-02  0.1266606E+00
        -11   -1    0    0    0    0  0.00000000000E+00  0.00000000000E+00  0.45593999997E+02  0.45594000000E+02  0.51100000000E-03 0.  1.
         11   -1    0    0    0    0 -0.00000000000E+00 -0.00000000000E+00 -0.45593999997E+02  0.45594000000E+02  0.51100000000E-03 0. -1.
    9900012    2    1    2    0    0  0.43907331509E+01  0.27481703971E+02  0.15563218611E+02  0.59301696290E+02  0.49999548184E+02 0.  0.
         12    1    1    2    0    0 -0.43907331509E+01 -0.27481703971E+02 -0.15563218611E+02  0.31886303710E+02  0.00000000000E+00 0. -1.
         11    1    3    3    0    0  0.12083413943E+02  0.23840713444E+02 -0.84168224411E+01  0.28021980842E+02  0.51100000000E-03 0. -1.
        -11    1    3    3    0    0 -0.93526403150E-01 -0.41680962720E+01 -0.76783086965E+00  0.42392615190E+01  0.51100000000E-03 0.  1.
        -12    1    3    3    0    0 -0.75991543890E+01  0.78090867989E+01  0.24747871922E+02  0.27040453930E+02  0.00000000000E+00 0.  1.
</event>
<event>
 7    1  0.6061051E-012  0.5930184E+02  0.7816164E-02  0.1266605E+00
        -11   -1    0    0    0    0  0.00000000000E+00  0.00000000000E+00  0.45593999997E+02  0.45594000000E+02  0.51100000000E-03 0. -1.
         11   -1    0    0    0    0 -0.00000000000E+00 -0.00000000000E+00 -0.45593999997E+02  0.45594000000E+02  0.51100000000E-03 0.  1.
    9900012    2    1    2    0    0 -0.16407074096E+02  0.98091377663E+01 -0.25520891478E+02  0.59301840527E+02  0.49999811239E+02 0.  0.
         12    1    1    2    0    0  0.16407074096E+02 -0.98091377663E+01  0.25520891478E+02  0.31886159473E+02  0.00000000000E+00 0. -1.
         11    1    3    3    0    0 -0.28221437032E+01  0.14127815856E+02 -0.30657381062E+02  0.33873805363E+02  0.51100000000E-03 0. -1.
        -11    1    3    3    0    0 -0.21295872570E+01 -0.77984248142E+01 -0.51992161294E+01  0.96115773986E+01  0.51100000000E-03 0.  1.
         12    1    3    3    0    0 -0.11455343136E+02  0.34797467245E+01  0.10335705714E+02  0.15816457765E+02  0.00000000000E+00 0. -1.
</event>
<event>
 7    1  0.6061051E-012  0.5930196E+02  0.7816164E-02  0.1266605E+00
        -11   -1    0    0    0    0  0.00000000000E+00  0.00000000000E+00  0.45593999997E+02  0.45594000000E+02  0.51100000000E-03 0.  1.
         11   -1    0    0    0    0 -0.00000000000E+00 -0.00000000000E+00 -0.45593999997E+02  0.45594000000E+02  0.51100000000E-03 0. -1.
    9900012    2    1    2    0    0 -0.68983255324E+00  0.26437343793E+02  0.17813220915E+02  0.59301955166E+02  0.50000020313E+02 0.  0.
         12    1    1    2    0    0  0.68983255324E+00 -0.26437343793E+02 -0.17813220915E+02  0.31886044834E+02  0.00000000000E+00 0. -1.
         11    1    3    3    0    0 -0.30603824533E+00 -0.22651803996E+01  0.11683766529E+02  0.11905255235E+02  0.51100000000E-03 0. -1.
        -11    1    3    3    0    0  0.56315442438E+01 -0.35168014571E+01  0.12363113487E+02  0.14033130742E+02  0.51100000000E-03 0.  1.
        -12    1    3    3    0    0 -0.60153385517E+01  0.32219325650E+02 -0.62336591013E+01  0.33363569189E+02  0.00000000000E+00 0.  1.
</event>
<event>
 7    1  0.6061051E-012  0.5930194E+02  0.7816164E-02  0.1266605E+00
        -11   -1    0    0    0    0  0.00000000000E+00  0.00000000000E+00  0.45593999997E+02  0.45594000000E+02  0.51100000000E-03 0.  1.
         11   -1    0    0    0    0 -0.00000000000E+00 -0.00000000000E+00 -0.45593999997E+02  0.45594000000E+02  0.51100000000E-03 0. -1.
    9900012    2    1    2    0    0 -0.19629844382E+02 -0.21633209744E+02  0.12782571420E+02  0.59301942131E+02  0.49999996542E+02 0.  0.
         12    1    1    2    0    0  0.19629844382E+02  0.21633209744E+02 -0.12782571420E+02  0.31886057869E+02  0.00000000000E+00 0. -1.
         11    1    3    3    0    0 -0.15422156952E+02  0.49254686354E+01 -0.98046929604E+01  0.18927101485E+02  0.51100000000E-03 0. -1.
        -11    1    3    3    0    0  0.18351946077E+01 -0.27105650254E+01  0.13906311395E+02  0.14286378089E+02  0.51100000000E-03 0.  1.
        -12    1    3    3    0    0 -0.60428820372E+01 -0.23848113354E+02  0.86809529855E+01  0.26088462557E+02  0.00000000000E+00 0.  1.
</event>
<event>
 7    1  0.6061051E-012  0.5930197E+02  0.7816164E-02  0.1266605E+00
        -11   -1    0    0    0    0  0.00000000000E+00  0.00000000000E+00  0.45593999997E+02  0.45594000000E+02  0.51100000000E-03 0. -1.
         11   -1    0    0    0    0 -0.00000000000E+00 -0.00000000000E+00 -0.45593999997E+02  0.45594000000E+02  0.51100000000E-03 0.  1.
    9900012    2    1    2    0    0  0.26437143218E+02  0.13869437114E+02 -0.11199775219E+02  0.59301971832E+02  0.50000050708E+02 0.  0.
         12    1    1    2    0    0 -0.26437143218E+02 -0.13869437114E+02  0.11199775219E+02  0.31886028168E+02  0.00000000000E+00 0. -1.
         11    1    3    3    0    0 -0.57652032387E+01 -0.50325732138E+00  0.28566787687E+00  0.57941731690E+01  0.51100000000E-03 0. -1.
        -11    1    3    3    0    0  0.55443999558E+01 -0.10293698900E+02 -0.12577240600E+02  0.17172291323E+02  0.51100000000E-03 0.  1.
        -12    1    3    3    0    0  0.26657946501E+02  0.24666393335E+02  0.10917975048E+01  0.36335507340E+02  0.00000000000E+00 0.  1.
</event>
<event>
 7    1  0.6061051E-012  0.5930195E+02  0.7816164E-02  0.1266605E+00
        -11   -1    0    0    0    0  0.00000000000E+00  0.00000000000E+00  0.45593999997E+02  0.45594000000E+02  0.51100000000E-03 0.  1.
         11   -1    0    0    0    0 -0.00000000000E+00 -0.00000000000E+00 -0.45593999997E+02  0.45594000000E+02  0.51100000000E-03 0. -1.
    9900012    2    1    2    0    0  0.57704633957E+01  0.27316630910E+02  0.15402068318E+02  0.59301948495E+02  0.50000008148E+02 0.  0.
         12    1    1    2    0    0 -0.57704633957E+01 -0.27316630910E+02 -0.15402068318E+02  0.31886051505E+02  0.00000000000E+00 0. -1.
         11    1    3    3    0    0  0.10407339035E+02 -0.28745800438E+01 -0.69493063916E+01  0.12840123667E+02  0.51100000000E-03 0. -1.
        -11    1    3    3    0    0  0.42660464414E+01  0.30650415036E+02  0.13070396663E+02  0.33592891559E+02  0.51100000000E-03 0.  1.
        -12    1    3    3    0    0 -0.89029220803E+01 -0.45920408232E+00  0.92809780472E+01  0.12868933269E+02  0.00000000000E+00 0.  1.
</event>
<event>
 7    1  0.6061051E-012  0.5930193E+02  0.7816164E-02  0.1266605E+00
        -11   -1    0    0    0    0  0.00000000000E+00  0.00000000000E+00  0.45593999997E+02  0.45594000000E+02  0.51100000000E-03 0.  1.
         11   -1    0    0    0    0 -0.00000000000E+00 -0.00000000000E+00 -0.45593999997E+02  0.45594000000E+02  0.51100000000E-03 0. -1.
    9900012    2    1    2    0    0 -0.27513932747E+02 -0.10630825109E+02  0.12111582231E+02  0.59301931540E+02  0.49999977225E+02 0.  0.
         12    1    1    2    0    0  0.27513932747E+02  0.10630825109E+02 -0.12111582231E+02  0.31886068460E+02  0.00000000000E+00 0. -1.
         11    1    3    3    0    0  0.90654688573E+00  0.85393825273E+01  0.92458048843E+01  0.12618549418E+02  0.51100000000E-03 0.  1.
        -11    1    3    3    0    0  0.24097435148E+00 -0.16565880624E+02  0.62462555518E+01  0.17705992719E+02  0.51100000000E-03 0. -1.
         12    1    3    3    0    0 -0.28661453984E+02 -0.26043270130E+01 -0.33804782052E+01  0.28977389403E+02  0.00000000000E+00 0. -1.
</event>
<event>
 7    1  0.6061051E-012  0.5930196E+02  0.7816164E-02  0.1266605E+00
        -11   -1    0    0    0    0  0.00000000000E+00  0.00000000000E+00  0.45593999997E+02  0.45594000000E+02  0.51100000000E-03 0.  1.
         11   -1    0    0    0    0 -0.00000000000E+00 -0.00000000000E+00 -0.45593999997E+02  0.45594000000E+02  0.51100000000E-03 0. -1.
    9900012    2    1    2    0    0 -0.17621114389E+02 -0.18035016138E+02  0.19518044981E+02  0.59301959806E+02  0.50000028776E+02 0.  0.
         12    1    1    2    0    0  0.17621114389E+02  0.18035016138E+02 -0.19518044981E+02  0.31886040194E+02  0.00000000000E+00 0. -1.
         11    1    3    3    0    0 -0.88711212948E+01 -0.17535677409E+02 -0.84976232386E+00  0.19670253467E+02  0.51100000000E-03 0. -1.
        -11    1    3    3    0    0 -0.13611093275E+02 -0.12340487648E+02  0.19515767165E+02  0.26803258455E+02  0.51100000000E-03 0.  1.
        -12    1    3    3    0    0  0.48611001813E+01  0.11841148919E+02  0.85204013986E+00  0.12828447883E+02  0.00000000000E+00 0.  1.
</event>
<event>
 7    1  0.6061051E-012  0.5930194E+02  0.7816164E-02  0.1266605E+00
        -11   -1    0    0    0    0  0.00000000000E+00  0.00000000000E+00  0.45593999997E+02  0.45594000000E+02  0.51100000000E-03 0.  1.
         11   -1    0    0    0    0 -0.00000000000E+00 -0.00000000000E+00 -0.45593999997E+02  0.45594000000E+02  0.51100000000E-03 0. -1.
    9900012    2    1    2    0    0  0.13146433002E+01  0.27807276563E+02  0.15548238404E+02  0.59301942948E+02  0.49999998031E+02 0.  0.
         12    1    1    2    0    0 -0.13146433002E+01 -0.27807276563E+02 -0.15548238404E+02  0.31886057052E+02  0.00000000000E+00 0. -1.
         11    1    3    3    0    0  0.38670244146E+01  0.10696892599E+02  0.99933476510E-01  0.11374857188E+02  0.51100000000E-03 0. -1.
        -11    1    3    3    0    0  0.14402859147E+00  0.29751538054E+02  0.17970275938E+02  0.34757813199E+02  0.51100000000E-03 0.  1.
         12    1    3    3    0    0 -0.26964097059E+01 -0.12641154089E+02 -0.25219710112E+01  0.13169272561E+02  0.00000000000E+00 0. -1.
</event>
<event>
 7    1  0.6061051E-012  0.5930197E+02  0.7816164E-02  0.1266605E+00
        -11   -1    0    0    0    0  0.00000000000E+00  0.00000000000E+00  0.45593999997E+02  0.45594000000E+02  0.51100000000E-03 0. -1.
         11   -1    0    0    0    0 -0.00000000000E+00 -0.00000000000E+00 -0.45593999997E+02  0.45594000000E+02  0.51100000000E-03 0.  1.
    9900012    2    1    2    0    0  0.22931819497E+01  0.31536366345E+02 -0.41131525761E+01  0.59301966853E+02  0.50000041628E+02 0.  0.
         12    1    1    2    0    0 -0.22931819497E+01 -0.31536366345E+02  0.41131525761E+01  0.31886033147E+02  0.00000000000E+00 0. -1.
         11    1    3    3    0    0  0.51607911633E+01  0.40482089105E+01  0.62636730975E+01  0.90694741715E+01  0.51100000000E-03 0. -1.
        -11    1    3    3    0    0  0.88286291529E+01 -0.66129838913E+01  0.35453506758E+01  0.11586447270E+02  0.51100000000E-03 0.  1.
        -12    1    3    3    0    0 -0.11696238366E+02  0.34101141326E+02 -0.13922176349E+02  0.38646045412E+02  0.00000000000E+00 0.  1.
</event>
<event>
 7    1  0.6061051E-012  0.5930193E+02  0.7816164E-02  0.1266605E+00
        -11   -1    0    0    0    0  0.00000000000E+00  0.00000000000E+00  0.45593999997E+02  0.45594000000E+02  0.51100000000E-03 0. -1.
         11   -1    0    0    0    0 -0.00000000000E+00 -0.00000000000E+00 -0.45593999997E+02  0.45594000000E+02  0.51100000000E-03 0.  1.
    9900012    2    1    2    0    0 -0.13852565672E+02  0.13197376206E+02 -0.25507979288E+02  0.59301932168E+02  0.49999978371E+02 0.  0.
         12    1    1    2    0    0  0.13852565672E+02 -0.13197376206E+02  0.25507979288E+02  0.31886067832E+02  0.00000000000E+00 0. -1.
         11    1    3    3    0    0  0.38446205700E+01  0.47472878725E+01 -0.47143615227E+01  0.77164146014E+01  0.51100000000E-03 0.  1.
        -11    1    3    3    0    0 -0.17873305899E+02  0.23984355848E+02 -0.67951089452E+01  0.30673732982E+02  0.51100000000E-03 0. -1.
        -12    1    3    3    0    0  0.17611965707E+00 -0.15534267515E+02 -0.13998508820E+02  0.20911784585E+02  0.00000000000E+00 0.  1.
</event>
<event>
 7    1  0.6061051E-012  0.5930196E+02  0.7816164E-02  0.1266605E+00
        -11   -1    0    0    0    0  0.00000000000E+00  0.00000000000E+00  0.45593999997E+02  0.45594000000E+02  0.51100000000E-03 0. -1.
         11   -1    0    0    0    0 -0.00000000000E+00 -0.00000000000E+00 -0.45593999997E+02  0.45594000000E+02  0.51100000000E-03 0.  1.
    9900012    2    1    2    0    0  0.66883995258E+01 -0.20191477663E+02 -0.23754764629E+02  0.59301963856E+02  0.50000036161E+02 0.  0.
         12    1    1    2    0    0 -0.66883995258E+01  0.20191477663E+02  0.23754764629E+02  0.31886036144E+02  0.00000000000E+00 0. -1.
         11    1    3    3    0    0 -0.54466769133E+00  0.28314879429E+01 -0.45458323426E+01  0.53831755324E+01  0.51100000000E-03 0. -1.
        -11    1    3    3    0    0 -0.99488617818E+00 -0.18187431668E+02 -0.32677847444E+02  0.37411417816E+02  0.51100000000E-03 0.  1.
        -12    1    3    3    0    0  0.82279533954E+01 -0.48355339375E+01  0.13468915158E+02  0.16507370507E+02  0.00000000000E+00 0.  1.
</event>
<event>
 7    1  0.6061051E-012  0.5930194E+02  0.7816164E-02  0.1266605E+00
        -11   -1    0    0    0    0  0.00000000000E+00  0.00000000000E+00  0.45593999997E+02  0.45594000000E+02  0.51100000000E-03 0. -1.
         11   -1    0    0    0    0 -0.00000000000E+00 -0.00000000000E+00 -0.45593999997E+02  0.45594000000E+02  0.51100000000E-03 0.  1.
    9900012    2    1    2    0    0  0.19744900446E+02 -0.13829894767E+02 -0.20870887161E+02  0.59301936998E+02  0.49999987179E+02 0.  0.
         12    1    1    2    0    0 -0.19744900446E+02  0.13829894767E+02  0.20870887161E+02  0.31886063002E+02  0.00000000000E+00 0. -1.
         11    1    3    3    0    0  0.14545092111E+02 -0.15110871613E+02 -0.42324706044E+01  0.21396540681E+02  0.51100000000E-03 0. -1.
        -11    1    3    3    0    0  0.47587697405E+01  0.10488107852E+02 -0.23662445520E+02  0.26316489583E+02  0.51100000000E-03 0.  1.
         12    1    3    3    0    0  0.44103859423E+00 -0.92071310056E+01  0.70240289635E+01  0.11588906733E+02  0.00000000000E+00 0. -1.
</event>
<event>
 7    1  0.6061051E-012  0.5930194E+02  0.7816164E-02  0.1266605E+00
        -11   -1    0    0    0    0  0.00000000000E+00  0.00000000000E+00  0.45593999997E+02  0.45594000000E+02  0.51100000000E-03 0. -1.
         11   -1    0    0    0    0 -0.00000000000E+00 -0.00000000000E+00 -0.45593999997E+02  0.45594000000E+02  0.51100000000E-03 0.  1.
    9900012    2    1    2    0    0  0.23667134697E+02 -0.11701221610E+01 -0.21335845435E+02  0.59301941117E+02  0.49999994692E+02 0.  0.
         12    1    1    2    0    0 -0.23667134697E+02  0.11701221610E+01  0.21335845435E+02  0.31886058883E+02  0.00000000000E+00 0. -1.
         11    1    3    3    0    0 -0.85518411961E+01 -0.67322477316E+01  0.14183470667E+01  0.10975830539E+02  0.51100000000E-03 0. -1.
        -11    1    3    3    0    0  0.16625588831E+02  0.79237755375E+00  0.38854197290E+01  0.17091944093E+02  0.51100000000E-03 0.  1.
        -12    1    3    3    0    0  0.15593387063E+02  0.47697480168E+01 -0.26639612230E+02  0.31234166485E+02  0.00000000000E+00 0.  1.
</event>
<event>
 7    1  0.6061051E-012  0.5930197E+02  0.7816164E-02  0.1266605E+00
        -11   -1    0    0    0    0  0.00000000000E+00  0.00000000000E+00  0.45593999997E+02  0.45594000000E+02  0.51100000000E-03 0.  1.
         11   -1    0    0    0    0 -0.00000000000E+00 -0.00000000000E+00 -0.45593999997E+02  0.45594000000E+02  0.51100000000E-03 0. -1.
    9900012    2    1    2    0    0  0.30701309144E+02  0.46508007831E+01  0.72469626255E+01  0.59301971737E+02  0.50000050535E+02 0.  0.
         12    1    1    2    0    0 -0.30701309144E+02 -0.46508007831E+01 -0.72469626255E+01  0.31886028263E+02  0.00000000000E+00 0. -1.
         11    1    3    3    0    0 -0.61013753543E+01 -0.54626654803E+01 -0.95105743417E+01  0.12550638228E+02  0.51100000000E-03 0. -1.
        -11    1    3    3    0    0  0.11903910429E+02  0.91003634904E+01 -0.25858409790E+01  0.15205468523E+02  0.51100000000E-03 0.  1.
         12    1    3    3    0    0  0.24898774069E+02  0.10131027730E+01  0.19343377946E+02  0.31545864986E+02  0.00000000000E+00 0. -1.
</event>
<event>
 7    1  0.6061051E-012  0.5930186E+02  0.7816164E-02  0.1266605E+00
        -11   -1    0    0    0    0  0.00000000000E+00  0.00000000000E+00  0.45593999997E+02  0.45594000000E+02  0.51100000000E-03 0.  1.
         11   -1    0    0    0    0 -0.00000000000E+00 -0.00000000000E+00 -0.45593999997E+02  0.45594000000E+02  0.51100000000E-03 0. -1.
    9900012    2    1    2    0    0 -0.24358837858E+02  0.36473267336E+01  0.20250181222E+02  0.59301861733E+02  0.49999849914E+02 0.  0.
         12    1    1    2    0    0  0.24358837858E+02 -0.36473267336E+01 -0.20250181222E+02  0.31886138267E+02  0.00000000000E+00 0. -1.
         11    1    3    3    0    0 -0.95841086322E+01  0.25725422204E+02  0.40330248565E+01  0.27747392231E+02  0.51100000000E-03 0.  1.
        -11    1    3    3    0    0 -0.42027157138E+00 -0.91936163800E+00  0.21406008465E+01  0.23672824632E+01  0.51100000000E-03 0. -1.
        -12    1    3    3    0    0 -0.14354457654E+02 -0.21158733833E+02  0.14076555519E+02  0.29187187039E+02  0.00000000000E+00 0.  1.
</event>
<event>
 7    1  0.6061051E-012  0.5930194E+02  0.7816164E-02  0.1266605E+00
        -11   -1    0    0    0    0  0.00000000000E+00  0.00000000000E+00  0.45593999997E+02  0.45594000000E+02  0.51100000000E-03 0. -1.
         11   -1    0    0    0    0 -0.00000000000E+00 -0.00000000000E+00 -0.45593999997E+02  0.45594000000E+02  0.51100000000E-03 0.  1.
    9900012    2    1    2    0    0  0.18515345515E+02 -0.25858892319E+02  0.22848283793E+01  0.59301940786E+02  0.49999994087E+02 0.  0.
         12    1    1    2    0    0 -0.18515345515E+02  0.25858892319E+02 -0.22848283793E+01  0.31886059214E+02  0.00000000000E+00 0. -1.
         11    1    3    3    0    0 -0.51091735683E+01 -0.14886646908E+02  0.20955740321E+02  0.26207994265E+02  0.51100000000E-03 0. -1.
        -11    1    3    3    0    0  0.74644278480E+01 -0.65878769936E+01 -0.36632051438E+01  0.10608340048E+02  0.51100000000E-03 0.  1.
        -12    1    3    3    0    0  0.16160091235E+02 -0.43843684172E+01 -0.15007706798E+02  0.22485606473E+02  0.00000000000E+00 0.  1.
</event>
<event>
 7    1  0.6061051E-012  0.5930195E+02  0.7816164E-02  0.1266605E+00
        -11   -1    0    0    0    0  0.00000000000E+00  0.00000000000E+00  0.45593999997E+02  0.45594000000E+02  0.51100000000E-03 0.  1.
         11   -1    0    0    0    0 -0.00000000000E+00 -0.00000000000E+00 -0.45593999997E+02  0.45594000000E+02  0.51100000000E-03 0. -1.
    9900012    2    1    2    0    0  0.29447864020E+02 -0.10824277606E+01  0.12180800761E+02  0.59301948937E+02  0.50000008953E+02 0.  0.
         12    1    1    2    0    0 -0.29447864020E+02  0.10824277606E+01 -0.12180800761E+02  0.31886051063E+02  0.00000000000E+00 0. -1.
         11    1    3    3    0    0  0.52439714519E+01  0.24100975605E+01 -0.11900810909E+01  0.58927158512E+01  0.51100000000E-03 0. -1.
        -11    1    3    3    0    0  0.36970037483E+02 -0.81816591464E+01  0.12095279822E+02  0.39749452979E+02  0.51100000000E-03 0.  1.
         12    1    3    3    0    0 -0.12766144915E+02  0.46891338253E+01  0.12756020304E+01  0.13659780107E+02  0.00000000000E+00 0. -1.
</event>
<event>
 7    1  0.6061051E-012  0.5930195E+02  0.7816164E-02  0.1266605E+00
        -11   -1    0    0    0    0  0.00000000000E+00  0.00000000000E+00  0.45593999997E+02  0.45594000000E+02  0.51100000000E-03 0. -1.
         11   -1    0    0    0    0 -0.00000000000E+00 -0.00000000000E+00 -0.45593999997E+02  0.45594000000E+02  0.51100000000E-03 0.  1.
    9900012    2    1    2    0    0  0.19214541267E+02 -0.16487376135E+02 -0.19382672315E+02  0.59301950480E+02  0.50000011767E+02 0.  0.
         12    1    1    2    0    0 -0.19214541267E+02  0.16487376135E+02  0.19382672315E+02  0.31886049520E+02  0.00000000000E+00 0. -1.
         11    1    3    3    0    0  0.13125476681E+02  0.41052512787E+00 -0.16231504907E+02  0.20878419978E+02  0.51100000000E-03 0. -1.
        -11    1    3    3    0    0  0.11197704316E+02 -0.14664987344E+02 -0.15996750201E+02  0.24420205834E+02  0.51100000000E-03 0.  1.
         12    1    3    3    0    0 -0.51086397305E+01 -0.22329139193E+01  0.12845582792E+02  0.14003324667E+02  0.00000000000E+00 0. -1.
</event>
<event>
 7    1  0.6061051E-012  0.5930201E+02  0.7816164E-02  0.1266605E+00
        -11   -1    0    0    0    0  0.00000000000E+00  0.00000000000E+00  0.45593999997E+02  0.45594000000E+02  0.51100000000E-03 0.  1.
         11   -1    0    0    0    0 -0.00000000000E+00 -0.00000000000E+00 -0.45593999997E+02  0.45594000000E+02  0.51100000000E-03 0. -1.
    9900012    2    1    2    0    0  0.26943480591E+02 -0.16112606405E+02  0.55811512532E+01  0.59302008079E+02  0.50000116814E+02 0.  0.
         12    1    1    2    0    0 -0.26943480591E+02  0.16112606405E+02 -0.55811512532E+01  0.31885991921E+02  0.00000000000E+00 0. -1.
         11    1    3    3    0    0  0.44680585293E+01 -0.30089388033E+01 -0.10847559985E+02  0.12111433344E+02  0.51100000000E-03 0. -1.
        -11    1    3    3    0    0  0.15564807861E+02  0.10729981354E+02  0.10698776118E+02  0.21722328473E+02  0.51100000000E-03 0.  1.
        -12    1    3    3    0    0  0.69106142002E+01 -0.23833648956E+02  0.57299351211E+01  0.25468246262E+02  0.00000000000E+00 0.  1.
</event>
<event>
 7    1  0.6061051E-012  0.5930194E+02  0.7816164E-02  0.1266605E+00
        -11   -1    0    0    0    0  0.00000000000E+00  0.00000000000E+00  0.45593999997E+02  0.45594000000E+02  0.51100000000E-03 0.  1.
         11   -1    0    0    0    0 -0.00000000000E+00 -0.00000000000E+00 -0.45593999997E+02  0.45594000000E+02  0.51100000000E-03 0. -1.
    9900012    2    1    2    0    0  0.72495392839E+01 -0.30692129320E+02 -0.47072200352E+01  0.59301944388E+02  0.50000000657E+02 0.  0.
         12    1    1    2    0    0 -0.72495392839E+01  0.30692129320E+02  0.47072200352E+01  0.31886055612E+02  0.00000000000E+00 0. -1.
         11    1    3    3    0    0 -0.43102072753E+01 -0.38749377032E+01  0.25305683241E+01  0.63243027492E+01  0.51100000000E-03 0. -1.
        -11    1    3    3    0    0  0.16404301628E+02 -0.28271978720E+01  0.13078830473E+02  0.21169552818E+02  0.51100000000E-03 0.  1.
         12    1    3    3    0    0 -0.48445550687E+01 -0.23989993745E+02 -0.20316618832E+02  0.31808088821E+02  0.00000000000E+00 0. -1.
</event>
<event>
 7    1  0.6061051E-012  0.5930197E+02  0.7816164E-02  0.1266605E+00
        -11   -1    0    0    0    0  0.00000000000E+00  0.00000000000E+00  0.45593999997E+02  0.45594000000E+02  0.51100000000E-03 0. -1.
         11   -1    0    0    0    0 -0.00000000000E+00 -0.00000000000E+00 -0.45593999997E+02  0.45594000000E+02  0.51100000000E-03 0.  1.
    9900012    2    1    2    0    0  0.47208229905E+01 -0.29845621892E+02 -0.10181913117E+02  0.59301973741E+02  0.50000054191E+02 0.  0.
         12    1    1    2    0    0 -0.47208229905E+01  0.29845621892E+02  0.10181913117E+02  0.31886026259E+02  0.00000000000E+00 0. -1.
         11    1    3    3    0    0  0.13237667623E+02  0.86060250872E+01 -0.38078667531E+01  0.16241901409E+02  0.51100000000E-03 0. -1.
        -11    1    3    3    0    0  0.39799322107E+01 -0.37780395891E+01 -0.24004563838E+01  0.59896272547E+01  0.51100000000E-03 0.  1.
         12    1    3    3    0    0 -0.12496776844E+02 -0.34673607390E+02 -0.39735899804E+01  0.37070445078E+02  0.00000000000E+00 0. -1.
</event>
<event>
 7    1  0.6061051E-012  0.5930196E+02  0.7816164E-02  0.1266605E+00
        -11   -1    0    0    0    0  0.00000000000E+00  0.00000000000E+00  0.45593999997E+02  0.45594000000E+02  0.51100000000E-03 0. -1.
         11   -1    0    0    0    0 -0.00000000000E+00 -0.00000000000E+00 -0.45593999997E+02  0.45594000000E+02  0.51100000000E-03 0.  1.
    9900012    2    1    2    0    0  0.18927407197E+02 -0.28209895993E+01 -0.25505195776E+02  0.59301957017E+02  0.50000023690E+02 0.  0.
         12    1    1    2    0    0 -0.18927407197E+02  0.28209895993E+01  0.25505195776E+02  0.31886042983E+02  0.00000000000E+00 0. -1.
         11    1    3    3    0    0  0.20624451090E+02 -0.77098290903E+01 -0.18063077755E+02  0.28479540474E+02  0.51100000000E-03 0. -1.
        -11    1    3    3    0    0  0.24006128180E+01 -0.89781409406E+01 -0.12435701636E+02  0.15524710371E+02  0.51100000000E-03 0.  1.
         12    1    3    3    0    0 -0.40976567114E+01  0.13866980432E+02  0.49935836150E+01  0.15297706172E+02  0.00000000000E+00 0. -1.
</event>
<event>
 7    1  0.6061051E-012  0.5930198E+02  0.7816164E-02  0.1266605E+00
        -11   -1    0    0    0    0  0.00000000000E+00  0.00000000000E+00  0.45593999997E+02  0.45594000000E+02  0.51100000000E-03 0.  1.
         11   -1    0    0    0    0 -0.00000000000E+00 -0.00000000000E+00 -0.45593999997E+02  0.45594000000E+02  0.51100000000E-03 0. -1.
    9900012    2    1    2    0    0 -0.18456801639E+02  0.12738392362E+02  0.22667111006E+02  0.59301982875E+02  0.50000070849E+02 0.  0.
         12    1    1    2    0    0  0.18456801639E+02 -0.12738392362E+02 -0.22667111006E+02  0.31886017125E+02  0.00000000000E+00 0. -1.
         11    1    3    3    0    0  0.36733086008E+01 -0.34761471743E+01 -0.13868534480E+01  0.52440593056E+01  0.51100000000E-03 0. -1.
        -11    1    3    3    0    0 -0.12174268747E+02  0.51062522896E+01  0.33768005968E+02  0.36256928431E+02  0.51100000000E-03 0.  1.
         12    1    3    3    0    0 -0.99558414928E+01  0.11108287247E+02 -0.97140415139E+01  0.17800995138E+02  0.00000000000E+00 0. -1.
</event>
<event>
 7    1  0.6061051E-012  0.5930195E+02  0.7816164E-02  0.1266605E+00
        -11   -1    0    0    0    0  0.00000000000E+00  0.00000000000E+00  0.45593999997E+02  0.45594000000E+02  0.51100000000E-03 0.  1.
         11   -1    0    0    0    0 -0.00000000000E+00 -0.00000000000E+00 -0.45593999997E+02  0.45594000000E+02  0.51100000000E-03 0. -1.
    9900012    2    1    2    0    0 -0.76983213912E+01 -0.12808961409E+02  0.28167120128E+02  0.59301948176E+02  0.50000007565E+02 0.  0.
         12    1    1    2    0    0  0.76983213912E+01  0.12808961409E+02 -0.28167120128E+02  0.31886051824E+02  0.00000000000E+00 0. -1.
         11    1    3    3    0    0  0.25176654071E+01 -0.14083330287E+02 -0.55102410497E+01  0.15331066100E+02  0.51100000000E-03 0. -1.
        -11    1    3    3    0    0 -0.79186442203E+01 -0.95180028776E+01  0.51971460753E+01  0.13427867763E+02  0.51100000000E-03 0.  1.
        -12    1    3    3    0    0 -0.22973425780E+01  0.10792371756E+02  0.28480215103E+02  0.30543014313E+02  0.00000000000E+00 0.  1.
</event>
<event>
 7    1  0.6061051E-012  0.5930195E+02  0.7816164E-02  0.1266605E+00
        -11   -1    0    0    0    0  0.00000000000E+00  0.00000000000E+00  0.45593999997E+02  0.45594000000E+02  0.51100000000E-03 0. -1.
         11   -1    0    0    0    0 -0.00000000000E+00 -0.00000000000E+00 -0.45593999997E+02  0.45594000000E+02  0.51100000000E-03 0.  1.
    9900012    2    1    2    0    0  0.12680743012E+02  0.19915053916E+02 -0.21431510580E+02  0.59301948793E+02  0.50000008691E+02 0.  0.
         12    1    1    2    0    0 -0.12680743012E+02 -0.19915053916E+02  0.21431510580E+02  0.31886051207E+02  0.00000000000E+00 0. -1.
         11    1    3    3    0    0 -0.86158381342E+01 -0.47826864591E+01 -0.45835584018E+01  0.10868107674E+02  0.51100000000E-03 0. -1.
        -11    1    3    3    0    0  0.69422286031E+01 -0.50483773954E+01  0.39011496794E+01  0.94286595752E+01  0.51100000000E-03 0.  1.
        -12    1    3    3    0    0  0.14354352543E+02  0.29746117771E+02 -0.20749101858E+02  0.39005181544E+02  0.00000000000E+00 0.  1.
</event>
<event>
 7    1  0.6061051E-012  0.5930192E+02  0.7816164E-02  0.1266605E+00
        -11   -1    0    0    0    0  0.00000000000E+00  0.00000000000E+00  0.45593999997E+02  0.45594000000E+02  0.51100000000E-03 0.  1.
         11   -1    0    0    0    0 -0.00000000000E+00 -0.00000000000E+00 -0.45593999997E+02  0.45594000000E+02  0.51100000000E-03 0. -1.
    9900012    2    1    2    0    0  0.31570563366E+02  0.11638283010E+01  0.43205695261E+01  0.59301917008E+02  0.49999950722E+02 0.  0.
         12    1    1    2    0    0 -0.31570563366E+02 -0.11638283010E+01 -0.43205695261E+01  0.31886082992E+02  0.00000000000E+00 0. -1.
         11    1    3    3    0    0  0.13234816444E+02 -0.11337694011E+02  0.71553258365E+01  0.18838852404E+02  0.51100000000E-03 0. -1.
        -11    1    3    3    0    0  0.35195987345E+01 -0.31274241776E+01  0.12938731885E+02  0.13768774103E+02  0.51100000000E-03 0.  1.
         12    1    3    3    0    0  0.14816148188E+02  0.15628946490E+02 -0.15773488196E+02  0.26694290501E+02  0.00000000000E+00 0. -1.
</event>
<event>
 7    1  0.6061051E-012  0.5930194E+02  0.7816164E-02  0.1266605E+00
        -11   -1    0    0    0    0  0.00000000000E+00  0.00000000000E+00  0.45593999997E+02  0.45594000000E+02  0.51100000000E-03 0.  1.
         11   -1    0    0    0    0 -0.00000000000E+00 -0.00000000000E+00 -0.45593999997E+02  0.45594000000E+02  0.51100000000E-03 0. -1.
    9900012    2    1    2    0    0 -0.13525157234E+01 -0.16167137839E+02  0.27450233749E+02  0.59301937566E+02  0.49999988215E+02 0.  0.
         12    1    1    2    0    0  0.13525157234E+01  0.16167137839E+02 -0.27450233749E+02  0.31886062434E+02  0.00000000000E+00 0. -1.
         11    1    3    3    0    0 -0.34809591112E+00  0.20654028885E+01 -0.54575744354E+01  0.58456974634E+01  0.51100000000E-03 0. -1.
        -11    1    3    3    0    0 -0.91707573907E+01  0.83056804741E+01  0.31734235433E+01  0.12773321279E+02  0.51100000000E-03 0.  1.
        -12    1    3    3    0    0  0.81663375784E+01 -0.26538221202E+02  0.29734384641E+02  0.40682918823E+02  0.00000000000E+00 0.  1.
</event>
<event>
 7    1  0.6061051E-012  0.5930196E+02  0.7816164E-02  0.1266605E+00
        -11   -1    0    0    0    0  0.00000000000E+00  0.00000000000E+00  0.45593999997E+02  0.45594000000E+02  0.51100000000E-03 0.  1.
         11   -1    0    0    0    0 -0.00000000000E+00 -0.00000000000E+00 -0.45593999997E+02  0.45594000000E+02  0.51100000000E-03 0. -1.
    9900012    2    1    2    0    0 -0.13177065069E+01 -0.21643434169E+01  0.31785200841E+02  0.59301957201E+02  0.50000024025E+02 0.  0.
         12    1    1    2    0    0  0.13177065069E+01  0.21643434169E+01 -0.31785200841E+02  0.31886042799E+02  0.00000000000E+00 0. -1.
         11    1    3    3    0    0  0.11538801844E+02 -0.22675466714E+01  0.12408020183E+02  0.17095165429E+02  0.51100000000E-03 0. -1.
        -11    1    3    3    0    0  0.84872261351E+01 -0.87682502135E+01  0.25102093911E+00  0.12205663892E+02  0.51100000000E-03 0.  1.
         12    1    3    3    0    0 -0.21343734486E+02  0.88714534680E+01  0.19126159719E+02  0.30001127880E+02  0.00000000000E+00 0. -1.
</event>
<event>
 7    1  0.6061051E-012  0.5930195E+02  0.7816164E-02  0.1266605E+00
        -11   -1    0    0    0    0  0.00000000000E+00  0.00000000000E+00  0.45593999997E+02  0.45594000000E+02  0.51100000000E-03 0.  1.
         11   -1    0    0    0    0 -0.00000000000E+00 -0.00000000000E+00 -0.45593999997E+02  0.45594000000E+02  0.51100000000E-03 0. -1.
    9900012    2    1    2    0    0 -0.13270954936E+02  0.28224859346E+02  0.66301678882E+01  0.59301952012E+02  0.50000014562E+02 0.  0.
         12    1    1    2    0    0  0.13270954936E+02 -0.28224859346E+02 -0.66301678882E+01  0.31886047988E+02  0.00000000000E+00 0. -1.
         11    1    3    3    0    0  0.11065589303E+02  0.85016659650E+01  0.14738684025E+02  0.20296659771E+02  0.51100000000E-03 0. -1.
        -11    1    3    3    0    0  0.21859159747E+01  0.64179812506E+01 -0.63359181772E+01  0.92796859532E+01  0.51100000000E-03 0.  1.
        -12    1    3    3    0    0 -0.26522460214E+02  0.13305212131E+02 -0.17725979600E+01  0.29725606288E+02  0.00000000000E+00 0.  1.
</event>
<event>
 7    1  0.6061051E-012  0.5930213E+02  0.7816164E-02  0.1266604E+00
        -11   -1    0    0    0    0  0.00000000000E+00  0.00000000000E+00  0.45593999997E+02  0.45594000000E+02  0.51100000000E-03 0.  1.
         11   -1    0    0    0    0 -0.00000000000E+00 -0.00000000000E+00 -0.45593999997E+02  0.45594000000E+02  0.51100000000E-03 0. -1.
    9900012    2    1    2    0    0 -0.29366970661E+01 -0.85485768983E+01  0.30577878194E+02  0.59302125518E+02  0.50000330994E+02 0.  0.
         12    1    1    2    0    0  0.29366970661E+01  0.85485768983E+01 -0.30577878194E+02  0.31885874482E+02  0.00000000000E+00 0. -1.
         11    1    3    3    0    0  0.20261515370E+00 -0.22141361282E+02  0.16980445999E+02  0.27903700093E+02  0.51100000000E-03 0. -1.
        -11    1    3    3    0    0 -0.41754095677E+01 -0.58782332265E+01 -0.66431720560E+00  0.72407864582E+01  0.51100000000E-03 0.  1.
         12    1    3    3    0    0  0.10360973479E+01  0.19471017610E+02  0.14261749400E+02  0.24157638967E+02  0.00000000000E+00 0. -1.
</event>
<event>
 7    1  0.6061051E-012  0.5930210E+02  0.7816164E-02  0.1266604E+00
        -11   -1    0    0    0    0  0.00000000000E+00  0.00000000000E+00  0.45593999997E+02  0.45594000000E+02  0.51100000000E-03 0.  1.
         11   -1    0    0    0    0 -0.00000000000E+00 -0.00000000000E+00 -0.45593999997E+02  0.45594000000E+02  0.51100000000E-03 0. -1.
    9900012    2    1    2    0    0  0.11540709575E+02 -0.29724091043E+02 -0.29109915805E-01  0.59302103224E+02  0.50000290334E+02 0.  0.
         12    1    1    2    0    0 -0.11540709575E+02  0.29724091043E+02  0.29109915805E-01  0.31885896776E+02  0.00000000000E+00 0. -1.
         11    1    3    3    0    0  0.12285625846E+02 -0.21267442412E+02 -0.31375110817E+01  0.24760546949E+02  0.51100000000E-03 0. -1.
        -11    1    3    3    0    0 -0.16755948053E+02 -0.30366586476E+01  0.44018302008E+01  0.17588609958E+02  0.51100000000E-03 0.  1.
         12    1    3    3    0    0  0.16011031781E+02 -0.54199899838E+01 -0.12934290348E+01  0.16952946316E+02  0.00000000000E+00 0. -1.
</event>
<event>
 7    1  0.6061051E-012  0.5930190E+02  0.7816164E-02  0.1266605E+00
        -11   -1    0    0    0    0  0.00000000000E+00  0.00000000000E+00  0.45593999997E+02  0.45594000000E+02  0.51100000000E-03 0. -1.
         11   -1    0    0    0    0 -0.00000000000E+00 -0.00000000000E+00 -0.45593999997E+02  0.45594000000E+02  0.51100000000E-03 0.  1.
    9900012    2    1    2    0    0  0.14617537273E+02  0.28219010497E+02 -0.25958744002E+01  0.59301897804E+02  0.49999915700E+02 0.  0.
         12    1    1    2    0    0 -0.14617537273E+02 -0.28219010497E+02  0.25958744002E+01  0.31886102196E+02  0.00000000000E+00 0. -1.
         11    1    3    3    0    0 -0.19327698210E+00  0.19377550019E+02 -0.11288200989E+02  0.22426553069E+02  0.51100000000E-03 0.  1.
        -11    1    3    3    0    0  0.85832403953E+00  0.18719051762E+02  0.43277351576E+01  0.19231976260E+02  0.51100000000E-03 0. -1.
         12    1    3    3    0    0  0.13952490215E+02 -0.98775912844E+01  0.43645914310E+01  0.17643368475E+02  0.00000000000E+00 0. -1.
</event>
<event>
 7    1  0.6061051E-012  0.5930194E+02  0.7816164E-02  0.1266605E+00
        -11   -1    0    0    0    0  0.00000000000E+00  0.00000000000E+00  0.45593999997E+02  0.45594000000E+02  0.51100000000E-03 0.  1.
         11   -1    0    0    0    0 -0.00000000000E+00 -0.00000000000E+00 -0.45593999997E+02  0.45594000000E+02  0.51100000000E-03 0. -1.
    9900012    2    1    2    0    0 -0.21481670297E+02 -0.67029264572E+00  0.23554390894E+02  0.59301940642E+02  0.49999993826E+02 0.  0.
         12    1    1    2    0    0  0.21481670297E+02  0.67029264572E+00 -0.23554390894E+02  0.31886059358E+02  0.00000000000E+00 0. -1.
         11    1    3    3    0    0  0.80197078360E+01  0.10986267072E+02  0.20523476972E+02  0.24621675110E+02  0.51100000000E-03 0. -1.
        -11    1    3    3    0    0 -0.77535017703E+01 -0.48352540405E+01 -0.51197807523E+01  0.10474188587E+02  0.51100000000E-03 0.  1.
        -12    1    3    3    0    0 -0.21747876362E+02 -0.68213056774E+01  0.81506946744E+01  0.24206076946E+02  0.00000000000E+00 0.  1.
</event>
<event>
 7    1  0.6061051E-012  0.5930195E+02  0.7816164E-02  0.1266605E+00
        -11   -1    0    0    0    0  0.00000000000E+00  0.00000000000E+00  0.45593999997E+02  0.45594000000E+02  0.51100000000E-03 0.  1.
         11   -1    0    0    0    0 -0.00000000000E+00 -0.00000000000E+00 -0.45593999997E+02  0.45594000000E+02  0.51100000000E-03 0. -1.
    9900012    2    1    2    0    0 -0.39357062336E+01 -0.30652816801E+02 -0.78507940072E+01  0.59301954024E+02  0.50000018232E+02 0.  0.
         12    1    1    2    0    0  0.39357062336E+01  0.30652816801E+02  0.78507940072E+01  0.31886045976E+02  0.00000000000E+00 0. -1.
         11    1    3    3    0    0 -0.41267584081E+01 -0.13739910453E+02 -0.14425436769E+02  0.20344741346E+02  0.51100000000E-03 0. -1.
        -11    1    3    3    0    0 -0.99042380031E+01 -0.10156419855E+02  0.17563281946E+02  0.22576883480E+02  0.51100000000E-03 0.  1.
         12    1    3    3    0    0  0.10095290178E+02 -0.67564864931E+01 -0.10988639185E+02  0.16380329198E+02  0.00000000000E+00 0. -1.
</event>
<event>
 7    1  0.6061051E-012  0.5930194E+02  0.7816164E-02  0.1266605E+00
        -11   -1    0    0    0    0  0.00000000000E+00  0.00000000000E+00  0.45593999997E+02  0.45594000000E+02  0.51100000000E-03 0.  1.
         11   -1    0    0    0    0 -0.00000000000E+00 -0.00000000000E+00 -0.45593999997E+02  0.45594000000E+02  0.51100000000E-03 0. -1.
    9900012    2    1    2    0    0  0.25775249775E+02 -0.13766257841E+02  0.12761165120E+02  0.59301942057E+02  0.49999996407E+02 0.  0.
         12    1    1    2    0    0 -0.25775249775E+02  0.13766257841E+02 -0.12761165120E+02  0.31886057943E+02  0.00000000000E+00 0. -1.
         11    1    3    3    0    0  0.22929693334E+02 -0.10732671825E+02  0.46056727092E+01  0.25732728232E+02  0.51100000000E-03 0. -1.
        -11    1    3    3    0    0  0.14328371780E+02 -0.34246433434E+01 -0.54982427394E+01  0.15724537938E+02  0.51100000000E-03 0.  1.
         12    1    3    3    0    0 -0.11482815339E+02  0.39105732719E+00  0.13653735150E+02  0.17844675887E+02  0.00000000000E+00 0. -1.
</event>
<event>
 7    1  0.6061051E-012  0.5930194E+02  0.7816164E-02  0.1266605E+00
        -11   -1    0    0    0    0  0.00000000000E+00  0.00000000000E+00  0.45593999997E+02  0.45594000000E+02  0.51100000000E-03 0. -1.
         11   -1    0    0    0    0 -0.00000000000E+00 -0.00000000000E+00 -0.45593999997E+02  0.45594000000E+02  0.51100000000E-03 0.  1.
    9900012    2    1    2    0    0 -0.95325791039E+01  0.10271174606E+02 -0.28641815902E+02  0.59301941757E+02  0.49999995858E+02 0.  0.
         12    1    1    2    0    0  0.95325791039E+01 -0.10271174606E+02  0.28641815902E+02  0.31886058243E+02  0.00000000000E+00 0. -1.
         11    1    3    3    0    0 -0.97228986316E+01 -0.83137160427E+01 -0.10462117370E+01  0.12835388249E+02  0.51100000000E-03 0. -1.
        -11    1    3    3    0    0  0.22553447570E+01  0.76858790043E+01 -0.33119521759E+02  0.34074360417E+02  0.51100000000E-03 0.  1.
         12    1    3    3    0    0 -0.20650252294E+01  0.10899011644E+02  0.55239175941E+01  0.12392193091E+02  0.00000000000E+00 0. -1.
</event>
<event>
 7    1  0.6061051E-012  0.5930195E+02  0.7816164E-02  0.1266605E+00
        -11   -1    0    0    0    0  0.00000000000E+00  0.00000000000E+00  0.45593999997E+02  0.45594000000E+02  0.51100000000E-03 0.  1.
         11   -1    0    0    0    0 -0.00000000000E+00 -0.00000000000E+00 -0.45593999997E+02  0.45594000000E+02  0.51100000000E-03 0. -1.
    9900012    2    1    2    0    0  0.99788738601E+00 -0.52855379354E+01  0.31429088911E+02  0.59301947873E+02  0.50000007012E+02 0.  0.
         12    1    1    2    0    0 -0.99788738601E+00  0.52855379354E+01 -0.31429088911E+02  0.31886052127E+02  0.00000000000E+00 0. -1.
         11    1    3    3    0    0  0.57876211574E+01 -0.54033778966E+01 -0.56960378171E+01  0.97538658198E+01  0.51100000000E-03 0. -1.
        -11    1    3    3    0    0 -0.16829710188E+02  0.32977003065E+01  0.10381108584E+02  0.20046979524E+02  0.51100000000E-03 0.  1.
        -12    1    3    3    0    0  0.12039976417E+02 -0.31798603452E+01  0.26744018144E+02  0.29501102529E+02  0.00000000000E+00 0.  1.
</event>
<event>
 7    1  0.6061051E-012  0.5930193E+02  0.7816164E-02  0.1266605E+00
        -11   -1    0    0    0    0  0.00000000000E+00  0.00000000000E+00  0.45593999997E+02  0.45594000000E+02  0.51100000000E-03 0.  1.
         11   -1    0    0    0    0 -0.00000000000E+00 -0.00000000000E+00 -0.45593999997E+02  0.45594000000E+02  0.51100000000E-03 0. -1.
    9900012    2    1    2    0    0  0.28497585875E+02  0.14195116144E+02  0.17627896848E+01  0.59301934853E+02  0.49999983268E+02 0.  0.
         12    1    1    2    0    0 -0.28497585875E+02 -0.14195116144E+02 -0.17627896848E+01  0.31886065147E+02  0.00000000000E+00 0. -1.
         11    1    3    3    0    0  0.20683058109E+02  0.69317417869E+01 -0.11406625115E+02  0.24616032046E+02  0.51100000000E-03 0. -1.
        -11    1    3    3    0    0  0.63569602654E+00  0.17199808166E+02  0.73833912183E+00  0.17227380977E+02  0.51100000000E-03 0.  1.
        -12    1    3    3    0    0  0.71788317397E+01 -0.99364338087E+01  0.12431075678E+02  0.17458521830E+02  0.00000000000E+00 0.  1.
</event>
<event>
 7    1  0.6061051E-012  0.5930201E+02  0.7816164E-02  0.1266605E+00
        -11   -1    0    0    0    0  0.00000000000E+00  0.00000000000E+00  0.45593999997E+02  0.45594000000E+02  0.51100000000E-03 0. -1.
         11   -1    0    0    0    0 -0.00000000000E+00 -0.00000000000E+00 -0.45593999997E+02  0.45594000000E+02  0.51100000000E-03 0.  1.
    9900012    2    1    2    0    0 -0.26725028359E+02 -0.15098399589E+02  0.86329336525E+01  0.59302010062E+02  0.50000120430E+02 0.  0.
         12    1    1    2    0    0  0.26725028359E+02  0.15098399589E+02 -0.86329336525E+01  0.31885989938E+02  0.00000000000E+00 0. -1.
         11    1    3    3    0    0 -0.14026060308E+01 -0.22078360169E+01  0.34400782234E+01  0.43215717048E+01  0.51100000000E-03 0. -1.
        -11    1    3    3    0    0 -0.39110838743E+02 -0.11861492428E+02  0.47681812309E+01  0.41147153757E+02  0.51100000000E-03 0.  1.
        -12    1    3    3    0    0  0.13788416415E+02 -0.10290711438E+01  0.42467419822E+00  0.13833284600E+02  0.00000000000E+00 0.  1.
</event>
<event>
 7    1  0.6061051E-012  0.5930194E+02  0.7816164E-02  0.1266605E+00
        -11   -1    0    0    0    0  0.00000000000E+00  0.00000000000E+00  0.45593999997E+02  0.45594000000E+02  0.51100000000E-03 0.  1.
         11   -1    0    0    0    0 -0.00000000000E+00 -0.00000000000E+00 -0.45593999997E+02  0.45594000000E+02  0.51100000000E-03 0. -1.
    9900012    2    1    2    0    0 -0.22909181099E+02  0.14552781334E+02  0.16736397635E+02  0.59301936759E+02  0.49999986744E+02 0.  0.
         12    1    1    2    0    0  0.22909181099E+02 -0.14552781334E+02 -0.16736397635E+02  0.31886063241E+02  0.00000000000E+00 0. -1.
         11    1    3    3    0    0  0.60706666815E+01  0.60738365161E+01 -0.50506040289E+01  0.99625842681E+01  0.51100000000E-03 0. -1.
        -11    1    3    3    0    0 -0.18039105220E+01  0.54954924863E+01  0.21220110118E+02  0.21994262991E+02  0.51100000000E-03 0.  1.
         12    1    3    3    0    0 -0.27175937259E+02  0.29834523321E+01  0.56689154508E+00  0.27345089500E+02  0.00000000000E+00 0. -1.
</event>
<event>
 7    1  0.6061051E-012  0.5930194E+02  0.7816164E-02  0.1266605E+00
        -11   -1    0    0    0    0  0.00000000000E+00  0.00000000000E+00  0.45593999997E+02  0.45594000000E+02  0.51100000000E-03 0.  1.
         11   -1    0    0    0    0 -0.00000000000E+00 -0.00000000000E+00 -0.45593999997E+02  0.45594000000E+02  0.51100000000E-03 0. -1.
    9900012    2    1    2    0    0 -0.13416069375E+01  0.30353192055E+02 -0.96749334468E+01  0.59301944830E+02  0.50000001464E+02 0.  0.
         12    1    1    2    0    0  0.13416069375E+01 -0.30353192055E+02  0.96749334468E+01  0.31886055170E+02  0.00000000000E+00 0. -1.
         11    1    3    3    0    0 -0.94464365827E+01 -0.26470464551E+01 -0.13153396790E+02  0.16408956896E+02  0.51100000000E-03 0. -1.
        -11    1    3    3    0    0  0.33665709818E+01  0.18654870284E+02 -0.11042768521E+02  0.21938111185E+02  0.51100000000E-03 0.  1.
        -12    1    3    3    0    0  0.47382586634E+01  0.14345368226E+02  0.14521231865E+02  0.20954876749E+02  0.00000000000E+00 0.  1.
</event>
<event>
 7    1  0.6061051E-012  0.5930195E+02  0.7816164E-02  0.1266605E+00
        -11   -1    0    0    0    0  0.00000000000E+00  0.00000000000E+00  0.45593999997E+02  0.45594000000E+02  0.51100000000E-03 0.  1.
         11   -1    0    0    0    0 -0.00000000000E+00 -0.00000000000E+00 -0.45593999997E+02  0.45594000000E+02  0.51100000000E-03 0. -1.
    9900012    2    1    2    0    0 -0.58202840038E+00  0.24520340942E+02  0.20374851375E+02  0.59301945909E+02  0.50000003430E+02 0.  0.
         12    1    1    2    0    0  0.58202840038E+00 -0.24520340942E+02 -0.20374851375E+02  0.31886054091E+02  0.00000000000E+00 0. -1.
         11    1    3    3    0    0 -0.32529543190E+01  0.36326395662E+00 -0.10453690036E+02  0.10954145705E+02  0.51100000000E-03 0. -1.
        -11    1    3    3    0    0 -0.12513632139E+02  0.84816964145E+01  0.96356004898E+01  0.17926933938E+02  0.51100000000E-03 0.  1.
         12    1    3    3    0    0  0.15184558058E+02  0.15675380571E+02  0.21192940921E+02  0.30420866265E+02  0.00000000000E+00 0. -1.
</event>
<event>
 7    1  0.6061051E-012  0.5930195E+02  0.7816164E-02  0.1266605E+00
        -11   -1    0    0    0    0  0.00000000000E+00  0.00000000000E+00  0.45593999997E+02  0.45594000000E+02  0.51100000000E-03 0.  1.
         11   -1    0    0    0    0 -0.00000000000E+00 -0.00000000000E+00 -0.45593999997E+02  0.45594000000E+02  0.51100000000E-03 0. -1.
    9900012    2    1    2    0    0  0.17530443670E+02  0.26369792067E+02  0.37467318732E+01  0.59301946800E+02  0.50000005056E+02 0.  0.
         12    1    1    2    0    0 -0.17530443670E+02 -0.26369792067E+02 -0.37467318732E+01  0.31886053200E+02  0.00000000000E+00 0. -1.
         11    1    3    3    0    0 -0.12212880868E+02  0.33234314713E+01  0.71275121083E+01  0.14525876392E+02  0.51100000000E-03 0. -1.
        -11    1    3    3    0    0  0.91826315993E+01  0.18707431214E+02  0.61126640863E+01  0.21717582006E+02  0.51100000000E-03 0.  1.
        -12    1    3    3    0    0  0.20560692938E+02  0.43389293825E+01 -0.94934443214E+01  0.23058488402E+02  0.00000000000E+00 0.  1.
</event>
<event>
 7    1  0.6061051E-012  0.5930198E+02  0.7816164E-02  0.1266605E+00
        -11   -1    0    0    0    0  0.00000000000E+00  0.00000000000E+00  0.45593999997E+02  0.45594000000E+02  0.51100000000E-03 0.  1.
         11   -1    0    0    0    0 -0.00000000000E+00 -0.00000000000E+00 -0.45593999997E+02  0.45594000000E+02  0.51100000000E-03 0. -1.
    9900012    2    1    2    0    0 -0.15788385559E+02  0.85317896074E+01  0.26356287822E+02  0.59301977040E+02  0.50000060206E+02 0.  0.
         12    1    1    2    0    0  0.15788385559E+02 -0.85317896074E+01 -0.26356287822E+02  0.31886022960E+02  0.00000000000E+00 0. -1.
         11    1    3    3    0    0 -0.49109830855E+01  0.11780906352E+02  0.90345040955E+01  0.15637447805E+02  0.51100000000E-03 0. -1.
        -11    1    3    3    0    0 -0.18339927701E+02  0.12606845307E+02  0.70171173800E+01  0.23335068743E+02  0.51100000000E-03 0.  1.
         12    1    3    3    0    0  0.74625252270E+01 -0.15855962052E+02  0.10304666347E+02  0.20329460491E+02  0.00000000000E+00 0. -1.
</event>
<event>
 7    1  0.6061051E-012  0.5930190E+02  0.7816164E-02  0.1266605E+00
        -11   -1    0    0    0    0  0.00000000000E+00  0.00000000000E+00  0.45593999997E+02  0.45594000000E+02  0.51100000000E-03 0.  1.
         11   -1    0    0    0    0 -0.00000000000E+00 -0.00000000000E+00 -0.45593999997E+02  0.45594000000E+02  0.51100000000E-03 0. -1.
    9900012    2    1    2    0    0  0.23786046598E+02  0.98099717377E+01  0.18833802273E+02  0.59301895404E+02  0.49999911322E+02 0.  0.
         12    1    1    2    0    0 -0.23786046598E+02 -0.98099717377E+01 -0.18833802273E+02  0.31886104596E+02  0.00000000000E+00 0. -1.
         11    1    3    3    0    0  0.87862861707E+00 -0.55770811302E+00 -0.39178483427E+01  0.40537097187E+01  0.51100000000E-03 0. -1.
        -11    1    3    3    0    0  0.95880940376E+01  0.23029569826E+02  0.26605409351E+02  0.36471090478E+02  0.51100000000E-03 0.  1.
         12    1    3    3    0    0  0.13319323943E+02 -0.12661889975E+02 -0.38537587351E+01  0.18777095207E+02  0.00000000000E+00 0. -1.
</event>
<event>
 7    1  0.6061051E-012  0.5930195E+02  0.7816164E-02  0.1266605E+00
        -11   -1    0    0    0    0  0.00000000000E+00  0.00000000000E+00  0.45593999997E+02  0.45594000000E+02  0.51100000000E-03 0.  1.
         11   -1    0    0    0    0 -0.00000000000E+00 -0.00000000000E+00 -0.45593999997E+02  0.45594000000E+02  0.51100000000E-03 0. -1.
    9900012    2    1    2    0    0  0.24261855219E+02  0.50717252859E+01  0.20058914631E+02  0.59301951762E+02  0.50000014105E+02 0.  0.
         12    1    1    2    0    0 -0.24261855219E+02 -0.50717252859E+01 -0.20058914631E+02  0.31886048238E+02  0.00000000000E+00 0. -1.
         11    1    3    3    0    0 -0.59126752913E+01 -0.62305190190E+01 -0.56592475140E+01  0.10286213056E+02  0.51100000000E-03 0. -1.
        -11    1    3    3    0    0  0.29418888027E+01 -0.78833785996E+01  0.51508418908E+01  0.98657762146E+01  0.51100000000E-03 0.  1.
        -12    1    3    3    0    0  0.27232641708E+02  0.19185622904E+02  0.20567320254E+02  0.39149962491E+02  0.00000000000E+00 0.  1.
</event>
<event>
 7    1  0.6061051E-012  0.5930193E+02  0.7816164E-02  0.1266605E+00
        -11   -1    0    0    0    0  0.00000000000E+00  0.00000000000E+00  0.45593999997E+02  0.45594000000E+02  0.51100000000E-03 0.  1.
         11   -1    0    0    0    0 -0.00000000000E+00 -0.00000000000E+00 -0.45593999997E+02  0.45594000000E+02  0.51100000000E-03 0. -1.
    9900012    2    1    2    0    0 -0.16003669372E+02 -0.22594923477E+02  0.15813716043E+02  0.59301927564E+02  0.49999969974E+02 0.  0.
         12    1    1    2    0    0  0.16003669372E+02  0.22594923477E+02 -0.15813716043E+02  0.31886072436E+02  0.00000000000E+00 0. -1.
         11    1    3    3    0    0 -0.18389541713E+01  0.31912313932E+01  0.41550513891E+01  0.55524915630E+01  0.51100000000E-03 0. -1.
        -11    1    3    3    0    0 -0.19649518146E+01  0.49267398203E+01  0.19143930899E+02  0.19865142623E+02  0.51100000000E-03 0.  1.
         12    1    3    3    0    0 -0.12199763386E+02 -0.30712894691E+02 -0.74852662461E+01  0.33884293378E+02  0.00000000000E+00 0. -1.
</event>
<event>
 7    1  0.6061051E-012  0.5930197E+02  0.7816164E-02  0.1266605E+00
        -11   -1    0    0    0    0  0.00000000000E+00  0.00000000000E+00  0.45593999997E+02  0.45594000000E+02  0.51100000000E-03 0.  1.
         11   -1    0    0    0    0 -0.00000000000E+00 -0.00000000000E+00 -0.45593999997E+02  0.45594000000E+02  0.51100000000E-03 0. -1.
    9900012    2    1    2    0    0  0.23858322114E+02 -0.21154180576E+02 -0.86962859429E-03  0.59301970290E+02  0.50000047896E+02 0.  0.
         12    1    1    2    0    0 -0.23858322114E+02  0.21154180576E+02  0.86962859429E-03  0.31886029710E+02  0.00000000000E+00 0. -1.
         11    1    3    3    0    0 -0.63977263329E+01  0.65949551931E+01  0.35535552058E+01  0.98515019714E+01  0.51100000000E-03 0. -1.
        -11    1    3    3    0    0  0.13715764769E+02 -0.26015870702E+00 -0.96796324870E+01  0.16789436295E+02  0.51100000000E-03 0.  1.
        -12    1    3    3    0    0  0.16540283678E+02 -0.27488977062E+02  0.61252076526E+01  0.32661032023E+02  0.00000000000E+00 0.  1.
</event>
<event>
 7    1  0.6061051E-012  0.5930192E+02  0.7816164E-02  0.1266605E+00
        -11   -1    0    0    0    0  0.00000000000E+00  0.00000000000E+00  0.45593999997E+02  0.45594000000E+02  0.51100000000E-03 0.  1.
         11   -1    0    0    0    0 -0.00000000000E+00 -0.00000000000E+00 -0.45593999997E+02  0.45594000000E+02  0.51100000000E-03 0. -1.
    9900012    2    1    2    0    0 -0.15460816901E+02  0.16654188918E+02  0.22367901093E+02  0.59301923618E+02  0.49999962777E+02 0.  0.
         12    1    1    2    0    0  0.15460816901E+02 -0.16654188918E+02 -0.22367901093E+02  0.31886076382E+02  0.00000000000E+00 0. -1.
         11    1    3    3    0    0 -0.57002708815E+00 -0.31201662004E+01 -0.45764202679E+01  0.55681227293E+01  0.51100000000E-03 0. -1.
        -11    1    3    3    0    0 -0.44428263439E+01 -0.62644724781E+01  0.24378936043E+02  0.25560024339E+02  0.51100000000E-03 0.  1.
         12    1    3    3    0    0 -0.10447963469E+02  0.26038827596E+02  0.25653853175E+01  0.28173776549E+02  0.00000000000E+00 0. -1.
</event>
<event>
 7    1  0.6061051E-012  0.5930194E+02  0.7816164E-02  0.1266605E+00
        -11   -1    0    0    0    0  0.00000000000E+00  0.00000000000E+00  0.45593999997E+02  0.45594000000E+02  0.51100000000E-03 0. -1.
         11   -1    0    0    0    0 -0.00000000000E+00 -0.00000000000E+00 -0.45593999997E+02  0.45594000000E+02  0.51100000000E-03 0.  1.
    9900012    2    1    2    0    0 -0.24346222312E+02  0.18409760675E+01 -0.20508362007E+02  0.59301942765E+02  0.49999997698E+02 0.  0.
         12    1    1    2    0    0  0.24346222312E+02 -0.18409760675E+01  0.20508362007E+02  0.31886057235E+02  0.00000000000E+00 0. -1.
         11    1    3    3    0    0  0.42912954990E+01 -0.41009973141E+01 -0.95242050572E+01  0.11222472021E+02  0.51100000000E-03 0. -1.
        -11    1    3    3    0    0  0.20084759142E+01  0.14700593174E+02 -0.20511052472E+01  0.14978265860E+02  0.51100000000E-03 0.  1.
        -12    1    3    3    0    0 -0.30645993726E+02 -0.87586197924E+01 -0.89330517022E+01  0.33101204885E+02  0.00000000000E+00 0.  1.
</event>
<event>
 7    1  0.6061051E-012  0.5930199E+02  0.7816164E-02  0.1266605E+00
        -11   -1    0    0    0    0  0.00000000000E+00  0.00000000000E+00  0.45593999997E+02  0.45594000000E+02  0.51100000000E-03 0.  1.
         11   -1    0    0    0    0 -0.00000000000E+00 -0.00000000000E+00 -0.45593999997E+02  0.45594000000E+02  0.51100000000E-03 0. -1.
    9900012    2    1    2    0    0  0.12219289320E+02 -0.64555984546E+01  0.28735554658E+02  0.59301986069E+02  0.50000076674E+02 0.  0.
         12    1    1    2    0    0 -0.12219289320E+02  0.64555984546E+01 -0.28735554658E+02  0.31886013931E+02  0.00000000000E+00 0. -1.
         11    1    3    3    0    0  0.24822598580E+02  0.93789783865E+01  0.12147831534E+02  0.29183838800E+02  0.51100000000E-03 0. -1.
        -11    1    3    3    0    0 -0.56423820631E+01  0.12960959474E+01  0.76132865002E+01  0.95644378635E+01  0.51100000000E-03 0.  1.
        -12    1    3    3    0    0 -0.69609271970E+01 -0.17130672788E+02  0.89744366240E+01  0.20553709406E+02  0.00000000000E+00 0.  1.
</event>
<event>
 7    1  0.6061051E-012  0.5930192E+02  0.7816164E-02  0.1266605E+00
        -11   -1    0    0    0    0  0.00000000000E+00  0.00000000000E+00  0.45593999997E+02  0.45594000000E+02  0.51100000000E-03 0.  1.
         11   -1    0    0    0    0 -0.00000000000E+00 -0.00000000000E+00 -0.45593999997E+02  0.45594000000E+02  0.51100000000E-03 0. -1.
    9900012    2    1    2    0    0 -0.47416332164E+01  0.12793969338E+02  0.28819325348E+02  0.59301917605E+02  0.49999951812E+02 0.  0.
         12    1    1    2    0    0  0.47416332164E+01 -0.12793969338E+02 -0.28819325348E+02  0.31886082395E+02  0.00000000000E+00 0. -1.
         11    1    3    3    0    0 -0.46363712780E+01 -0.62301465651E+01 -0.95136221349E+00  0.78240497936E+01  0.51100000000E-03 0.  1.
        -11    1    3    3    0    0  0.37184812770E+01 -0.79335301269E+01  0.21190501587E+02  0.22930446159E+02  0.51100000000E-03 0. -1.
         12    1    3    3    0    0 -0.38237432154E+01  0.26957646030E+02  0.85801859745E+01  0.28547421652E+02  0.00000000000E+00 0. -1.
</event>
<event>
 7    1  0.6061051E-012  0.5930192E+02  0.7816164E-02  0.1266605E+00
        -11   -1    0    0    0    0  0.00000000000E+00  0.00000000000E+00  0.45593999997E+02  0.45594000000E+02  0.51100000000E-03 0. -1.
         11   -1    0    0    0    0 -0.00000000000E+00 -0.00000000000E+00 -0.45593999997E+02  0.45594000000E+02  0.51100000000E-03 0.  1.
    9900012    2    1    2    0    0 -0.20703079214E+02 -0.20013826451E+02 -0.13694942747E+02  0.59301918476E+02  0.49999953399E+02 0.  0.
         12    1    1    2    0    0  0.20703079214E+02  0.20013826451E+02  0.13694942747E+02  0.31886081524E+02  0.00000000000E+00 0. -1.
         11    1    3    3    0    0 -0.17871534601E+02 -0.15482841967E+02  0.18315571074E+01  0.23716339222E+02  0.51100000000E-03 0. -1.
        -11    1    3    3    0    0 -0.16126667019E+02 -0.70610498993E+01 -0.12835035149E+02  0.21786829562E+02  0.51100000000E-03 0.  1.
        -12    1    3    3    0    0  0.13295122406E+02  0.25300654152E+01 -0.26914647050E+01  0.13798749692E+02  0.00000000000E+00 0.  1.
</event>
<event>
 7    1  0.6061051E-012  0.5930182E+02  0.7816164E-02  0.1266605E+00
        -11   -1    0    0    0    0  0.00000000000E+00  0.00000000000E+00  0.45593999997E+02  0.45594000000E+02  0.51100000000E-03 0.  1.
         11   -1    0    0    0    0 -0.00000000000E+00 -0.00000000000E+00 -0.45593999997E+02  0.45594000000E+02  0.51100000000E-03 0. -1.
    9900012    2    1    2    0    0  0.29938325275E+02 -0.69254086755E+01 -0.85125703168E+01  0.59301820251E+02  0.49999774260E+02 0.  0.
         12    1    1    2    0    0 -0.29938325275E+02  0.69254086755E+01  0.85125703168E+01  0.31886179749E+02  0.00000000000E+00 0. -1.
         11    1    3    3    0    0 -0.11581223070E+01 -0.13743638726E+02  0.36011914599E+01  0.14254733701E+02  0.51100000000E-03 0. -1.
        -11    1    3    3    0    0  0.24024925205E+02 -0.36668124121E+01  0.39291785873E+01  0.24618712172E+02  0.51100000000E-03 0.  1.
        -12    1    3    3    0    0  0.70715223768E+01  0.10485042462E+02 -0.16042940364E+02  0.20428374377E+02  0.00000000000E+00 0.  1.
</event>
<event>
 7    1  0.6061051E-012  0.5930200E+02  0.7816164E-02  0.1266605E+00
        -11   -1    0    0    0    0  0.00000000000E+00  0.00000000000E+00  0.45593999997E+02  0.45594000000E+02  0.51100000000E-03 0.  1.
         11   -1    0    0    0    0 -0.00000000000E+00 -0.00000000000E+00 -0.45593999997E+02  0.45594000000E+02  0.51100000000E-03 0. -1.
    9900012    2    1    2    0    0  0.22411434232E+02 -0.14091949236E+02  0.17772492069E+02  0.59302001631E+02  0.50000105055E+02 0.  0.
         12    1    1    2    0    0 -0.22411434232E+02  0.14091949236E+02 -0.17772492069E+02  0.31885998369E+02  0.00000000000E+00 0. -1.
         11    1    3    3    0    0 -0.11643467056E+01 -0.22236429084E+02  0.11580751434E+02  0.25098372172E+02  0.51100000000E-03 0. -1.
        -11    1    3    3    0    0  0.17343091022E+02 -0.25363479538E+01 -0.42307775741E+01  0.18030955224E+02  0.51100000000E-03 0.  1.
        -12    1    3    3    0    0  0.62326899158E+01  0.10680827801E+02  0.10422518209E+02  0.16172674235E+02  0.00000000000E+00 0.  1.
</event>
<event>
 7    1  0.6061051E-012  0.5930193E+02  0.7816164E-02  0.1266605E+00
        -11   -1    0    0    0    0  0.00000000000E+00  0.00000000000E+00  0.45593999997E+02  0.45594000000E+02  0.51100000000E-03 0. -1.
         11   -1    0    0    0    0 -0.00000000000E+00 -0.00000000000E+00 -0.45593999997E+02  0.45594000000E+02  0.51100000000E-03 0.  1.
    9900012    2    1    2    0    0 -0.55503730205E+01  0.21047399124E+01 -0.31328659653E+02  0.59301929587E+02  0.49999973663E+02 0.  0.
         12    1    1    2    0    0  0.55503730205E+01 -0.21047399124E+01  0.31328659653E+02  0.31886070413E+02  0.00000000000E+00 0. -1.
         11    1    3    3    0    0 -0.78244633682E+01  0.17698371172E+01  0.58361790383E+00  0.80433301897E+01  0.51100000000E-03 0. -1.
        -11    1    3    3    0    0 -0.34201106260E+01 -0.87416295905E+01  0.64753425104E+01  0.11403653164E+02  0.51100000000E-03 0.  1.
         12    1    3    3    0    0  0.56942009738E+01  0.90765323856E+01 -0.38387620067E+02  0.39854946233E+02  0.00000000000E+00 0. -1.
</event>
<event>
 7    1  0.6061051E-012  0.5930192E+02  0.7816164E-02  0.1266605E+00
        -11   -1    0    0    0    0  0.00000000000E+00  0.00000000000E+00  0.45593999997E+02  0.45594000000E+02  0.51100000000E-03 0.  1.
         11   -1    0    0    0    0 -0.00000000000E+00 -0.00000000000E+00 -0.45593999997E+02  0.45594000000E+02  0.51100000000E-03 0. -1.
    9900012    2    1    2    0    0 -0.22347311626E+02  0.21192430772E+02  0.82583573348E+01  0.59301922712E+02  0.49999961126E+02 0.  0.
         12    1    1    2    0    0  0.22347311626E+02 -0.21192430772E+02 -0.82583573348E+01  0.31886077288E+02  0.00000000000E+00 0. -1.
         11    1    3    3    0    0 -0.29774243993E+01  0.67772761775E+00  0.13689623690E+02  0.14026053180E+02  0.51100000000E-03 0. -1.
        -11    1    3    3    0    0  0.62031024627E+01 -0.42827107593E+01  0.38513055237E+01  0.84647886039E+01  0.51100000000E-03 0.  1.
         12    1    3    3    0    0 -0.25572989689E+02  0.24797413913E+02 -0.92825718787E+01  0.36811080928E+02  0.00000000000E+00 0. -1.
</event>
<event>
 7    1  0.6061051E-012  0.5930194E+02  0.7816164E-02  0.1266605E+00
        -11   -1    0    0    0    0  0.00000000000E+00  0.00000000000E+00  0.45593999997E+02  0.45594000000E+02  0.51100000000E-03 0. -1.
         11   -1    0    0    0    0 -0.00000000000E+00 -0.00000000000E+00 -0.45593999997E+02  0.45594000000E+02  0.51100000000E-03 0.  1.
    9900012    2    1    2    0    0 -0.20909609570E+02  0.67486271714E+01 -0.23107680422E+02  0.59301942929E+02  0.49999997995E+02 0.  0.
         12    1    1    2    0    0  0.20909609570E+02 -0.67486271714E+01  0.23107680422E+02  0.31886057071E+02  0.00000000000E+00 0. -1.
         11    1    3    3    0    0  0.58924547656E+01  0.44979956832E+01  0.35054004382E+01  0.82000500501E+01  0.51100000000E-03 0. -1.
        -11    1    3    3    0    0 -0.11839306848E+02  0.15355852247E+02 -0.20540703546E+01  0.19498476611E+02  0.51100000000E-03 0.  1.
        -12    1    3    3    0    0 -0.14962757488E+02 -0.13105220758E+02 -0.24559010506E+02  0.31603416268E+02  0.00000000000E+00 0.  1.
</event>
<event>
 7    1  0.6061051E-012  0.5930194E+02  0.7816164E-02  0.1266605E+00
        -11   -1    0    0    0    0  0.00000000000E+00  0.00000000000E+00  0.45593999997E+02  0.45594000000E+02  0.51100000000E-03 0.  1.
         11   -1    0    0    0    0 -0.00000000000E+00 -0.00000000000E+00 -0.45593999997E+02  0.45594000000E+02  0.51100000000E-03 0. -1.
    9900012    2    1    2    0    0 -0.94882514131E+01  0.10901526836E+02  0.28422710186E+02  0.59301942599E+02  0.49999997395E+02 0.  0.
         12    1    1    2    0    0  0.94882514131E+01 -0.10901526836E+02 -0.28422710186E+02  0.31886057401E+02  0.00000000000E+00 0. -1.
         11    1    3    3    0    0 -0.10527134241E+02 -0.84874898387E+01  0.30705702396E+00  0.13525986964E+02  0.51100000000E-03 0. -1.
        -11    1    3    3    0    0 -0.37256106540E+01 -0.63671683995E+01  0.14468831883E+02  0.16240939150E+02  0.51100000000E-03 0.  1.
        -12    1    3    3    0    0  0.47644934817E+01  0.25756185074E+02  0.13646821280E+02  0.29535016485E+02  0.00000000000E+00 0.  1.
</event>
<event>
 7    1  0.6061051E-012  0.5930196E+02  0.7816164E-02  0.1266605E+00
        -11   -1    0    0    0    0  0.00000000000E+00  0.00000000000E+00  0.45593999997E+02  0.45594000000E+02  0.51100000000E-03 0.  1.
         11   -1    0    0    0    0 -0.00000000000E+00 -0.00000000000E+00 -0.45593999997E+02  0.45594000000E+02  0.51100000000E-03 0. -1.
    9900012    2    1    2    0    0 -0.79602254044E+01  0.82966354342E+01  0.29740883860E+02  0.59301960409E+02  0.50000029875E+02 0.  0.
         12    1    1    2    0    0  0.79602254044E+01 -0.82966354342E+01 -0.29740883860E+02  0.31886039591E+02  0.00000000000E+00 0. -1.
         11    1    3    3    0    0 -0.70683367106E+01  0.58227726008E+01  0.49855816312E+00  0.91714025710E+01  0.51100000000E-03 0. -1.
        -11    1    3    3    0    0 -0.33334451656E+01 -0.12573020923E+02 -0.39594014336E+01  0.13596675027E+02  0.51100000000E-03 0.  1.
        -12    1    3    3    0    0  0.24415564718E+01  0.15046883757E+02  0.33201727131E+02  0.36533882811E+02  0.00000000000E+00 0.  1.
</event>
<event>
 7    1  0.6061051E-012  0.5930198E+02  0.7816164E-02  0.1266605E+00
        -11   -1    0    0    0    0  0.00000000000E+00  0.00000000000E+00  0.45593999997E+02  0.45594000000E+02  0.51100000000E-03 0. -1.
         11   -1    0    0    0    0 -0.00000000000E+00 -0.00000000000E+00 -0.45593999997E+02  0.45594000000E+02  0.51100000000E-03 0.  1.
    9900012    2    1    2    0    0 -0.21846597375E+00  0.22548362102E+02 -0.22544218839E+02  0.59301981686E+02  0.50000068680E+02 0.  0.
         12    1    1    2    0    0  0.21846597375E+00 -0.22548362102E+02  0.22544218839E+02  0.31886018314E+02  0.00000000000E+00 0. -1.
         11    1    3    3    0    0  0.36384172150E+01  0.13562077316E+02 -0.11853812036E+02  0.18376095369E+02  0.51100000000E-03 0. -1.
        -11    1    3    3    0    0  0.16682739193E+02  0.90110528617E+01 -0.48224053265E+01  0.19564469174E+02  0.51100000000E-03 0.  1.
         12    1    3    3    0    0 -0.20539622382E+02 -0.24768076190E-01 -0.58680014766E+01  0.21361417143E+02  0.00000000000E+00 0. -1.
</event>
<event>
 7    1  0.6061051E-012  0.5930198E+02  0.7816164E-02  0.1266605E+00
        -11   -1    0    0    0    0  0.00000000000E+00  0.00000000000E+00  0.45593999997E+02  0.45594000000E+02  0.51100000000E-03 0.  1.
         11   -1    0    0    0    0 -0.00000000000E+00 -0.00000000000E+00 -0.45593999997E+02  0.45594000000E+02  0.51100000000E-03 0. -1.
    9900012    2    1    2    0    0 -0.23401358580E+01  0.22929436524E+02  0.22033679729E+02  0.59301978964E+02  0.50000063715E+02 0.  0.
         12    1    1    2    0    0  0.23401358580E+01 -0.22929436524E+02 -0.22033679729E+02  0.31886021036E+02  0.00000000000E+00 0. -1.
         11    1    3    3    0    0 -0.75466119122E+01  0.60140237815E+01  0.20172346059E+02  0.22361649742E+02  0.51100000000E-03 0. -1.
        -11    1    3    3    0    0  0.14354033940E+02  0.68220239773E+00  0.90343378213E+01  0.16974184828E+02  0.51100000000E-03 0.  1.
         12    1    3    3    0    0 -0.91475578858E+01  0.16233210344E+02 -0.71730041516E+01  0.19966144393E+02  0.00000000000E+00 0. -1.
</event>
<event>
 7    1  0.6061051E-012  0.5930195E+02  0.7816164E-02  0.1266605E+00
        -11   -1    0    0    0    0  0.00000000000E+00  0.00000000000E+00  0.45593999997E+02  0.45594000000E+02  0.51100000000E-03 0.  1.
         11   -1    0    0    0    0 -0.00000000000E+00 -0.00000000000E+00 -0.45593999997E+02  0.45594000000E+02  0.51100000000E-03 0. -1.
    9900012    2    1    2    0    0  0.38585668687E+01 -0.12346271991E+01  0.31627634028E+02  0.59301951691E+02  0.50000013975E+02 0.  0.
         12    1    1    2    0    0 -0.38585668687E+01  0.12346271991E+01 -0.31627634028E+02  0.31886048309E+02  0.00000000000E+00 0. -1.
         11    1    3    3    0    0  0.23835838774E+01 -0.32765602851E+01 -0.85946018432E+01  0.95018156426E+01  0.51100000000E-03 0. -1.
        -11    1    3    3    0    0 -0.65497435138E+01 -0.11298901169E+02  0.12919092844E+02  0.18370282194E+02  0.51100000000E-03 0.  1.
         12    1    3    3    0    0  0.80247265051E+01  0.13340834255E+02  0.27303143027E+02  0.31429853854E+02  0.00000000000E+00 0. -1.
</event>
<event>
 7    1  0.6061051E-012  0.5930193E+02  0.7816164E-02  0.1266605E+00
        -11   -1    0    0    0    0  0.00000000000E+00  0.00000000000E+00  0.45593999997E+02  0.45594000000E+02  0.51100000000E-03 0. -1.
         11   -1    0    0    0    0 -0.00000000000E+00 -0.00000000000E+00 -0.45593999997E+02  0.45594000000E+02  0.51100000000E-03 0.  1.
    9900012    2    1    2    0    0  0.22271379740E+02 -0.20980682501E+02  0.89731824034E+01  0.59301931001E+02  0.49999976243E+02 0.  0.
         12    1    1    2    0    0 -0.22271379740E+02  0.20980682501E+02 -0.89731824034E+01  0.31886068999E+02  0.00000000000E+00 0. -1.
         11    1    3    3    0    0  0.18163854701E+02  0.15669417596E+01 -0.11783107403E+02  0.21707660962E+02  0.51100000000E-03 0. -1.
        -11    1    3    3    0    0  0.48994960496E+00 -0.51282623877E+01 -0.44052488029E+01  0.67782994186E+01  0.51100000000E-03 0.  1.
         12    1    3    3    0    0  0.36175754342E+01 -0.17419361873E+02  0.25161538610E+02  0.30815970621E+02  0.00000000000E+00 0. -1.
</event>
<event>
 7    1  0.6061051E-012  0.5930194E+02  0.7816164E-02  0.1266605E+00
        -11   -1    0    0    0    0  0.00000000000E+00  0.00000000000E+00  0.45593999997E+02  0.45594000000E+02  0.51100000000E-03 0.  1.
         11   -1    0    0    0    0 -0.00000000000E+00 -0.00000000000E+00 -0.45593999997E+02  0.45594000000E+02  0.51100000000E-03 0. -1.
    9900012    2    1    2    0    0  0.17342106245E+02 -0.21284172465E+02  0.16215924499E+02  0.59301939505E+02  0.49999991752E+02 0.  0.
         12    1    1    2    0    0 -0.17342106245E+02  0.21284172465E+02 -0.16215924499E+02  0.31886060495E+02  0.00000000000E+00 0. -1.
         11    1    3    3    0    0  0.20379389525E+02 -0.58098053940E+01  0.70340551511E+01  0.22328262097E+02  0.51100000000E-03 0. -1.
        -11    1    3    3    0    0  0.10439666623E+02 -0.19552519148E+01  0.13721758498E+02  0.17352126838E+02  0.51100000000E-03 0.  1.
        -12    1    3    3    0    0 -0.13476949904E+02 -0.13519115156E+02 -0.45398891497E+01  0.19621550571E+02  0.00000000000E+00 0.  1.
</event>
<event>
 7    1  0.6061051E-012  0.5930194E+02  0.7816164E-02  0.1266605E+00
        -11   -1    0    0    0    0  0.00000000000E+00  0.00000000000E+00  0.45593999997E+02  0.45594000000E+02  0.51100000000E-03 0. -1.
         11   -1    0    0    0    0 -0.00000000000E+00 -0.00000000000E+00 -0.45593999997E+02  0.45594000000E+02  0.51100000000E-03 0.  1.
    9900012    2    1    2    0    0  0.25863669610E+02  0.12130977381E+02 -0.14164429329E+02  0.59301936020E+02  0.49999985395E+02 0.  0.
         12    1    1    2    0    0 -0.25863669610E+02 -0.12130977381E+02  0.14164429329E+02  0.31886063980E+02  0.00000000000E+00 0. -1.
         11    1    3    3    0    0  0.78335685828E+01 -0.11274780351E+02  0.44539312606E+01  0.14433397821E+02  0.51100000000E-03 0. -1.
        -11    1    3    3    0    0  0.68103010567E+01  0.41023597533E+00  0.62027285337E+01  0.92207556936E+01  0.51100000000E-03 0.  1.
        -12    1    3    3    0    0  0.11219799971E+02  0.22995521757E+02 -0.24821089124E+02  0.35647782505E+02  0.00000000000E+00 0.  1.
</event>
<event>
 7    1  0.6061051E-012  0.5930194E+02  0.7816164E-02  0.1266605E+00
        -11   -1    0    0    0    0  0.00000000000E+00  0.00000000000E+00  0.45593999997E+02  0.45594000000E+02  0.51100000000E-03 0.  1.
         11   -1    0    0    0    0 -0.00000000000E+00 -0.00000000000E+00 -0.45593999997E+02  0.45594000000E+02  0.51100000000E-03 0. -1.
    9900012    2    1    2    0    0 -0.18152486286E+02  0.48026633855E+01 -0.25770956330E+02  0.59301944676E+02  0.50000001182E+02 0.  0.
         12    1    1    2    0    0  0.18152486286E+02 -0.48026633855E+01  0.25770956330E+02  0.31886055324E+02  0.00000000000E+00 0. -1.
         11    1    3    3    0    0 -0.13885961510E+02 -0.13202155914E+02 -0.30834816512E+02  0.36302930425E+02  0.51100000000E-03 0.  1.
        -11    1    3    3    0    0 -0.83622456520E+00  0.11903973393E+02 -0.30166943615E+01  0.12308708267E+02  0.51100000000E-03 0. -1.
        -12    1    3    3    0    0 -0.34303002115E+01  0.61008459062E+01  0.80805545438E+01  0.10690305985E+02  0.00000000000E+00 0.  1.
</event>
<event>
 7    1  0.6061051E-012  0.5930193E+02  0.7816164E-02  0.1266605E+00
        -11   -1    0    0    0    0  0.00000000000E+00  0.00000000000E+00  0.45593999997E+02  0.45594000000E+02  0.51100000000E-03 0. -1.
         11   -1    0    0    0    0 -0.00000000000E+00 -0.00000000000E+00 -0.45593999997E+02  0.45594000000E+02  0.51100000000E-03 0.  1.
    9900012    2    1    2    0    0  0.21952249441E+02  0.10217711409E+02 -0.20746525762E+02  0.59301933871E+02  0.49999981477E+02 0.  0.
         12    1    1    2    0    0 -0.21952249441E+02 -0.10217711409E+02  0.20746525762E+02  0.31886066129E+02  0.00000000000E+00 0. -1.
         11    1    3    3    0    0 -0.49175281889E+00 -0.79815363240E+01 -0.30173606880E+01  0.85469999830E+01  0.51100000000E-03 0. -1.
        -11    1    3    3    0    0  0.15754936462E+02  0.15137889293E+02 -0.29599478459E+02  0.36789982882E+02  0.51100000000E-03 0.  1.
         12    1    3    3    0    0  0.66890657984E+01  0.30613584408E+01  0.11870313385E+02  0.13964951006E+02  0.00000000000E+00 0. -1.
</event>
<event>
 7    1  0.6061051E-012  0.5930195E+02  0.7816164E-02  0.1266605E+00
        -11   -1    0    0    0    0  0.00000000000E+00  0.00000000000E+00  0.45593999997E+02  0.45594000000E+02  0.51100000000E-03 0.  1.
         11   -1    0    0    0    0 -0.00000000000E+00 -0.00000000000E+00 -0.45593999997E+02  0.45594000000E+02  0.51100000000E-03 0. -1.
    9900012    2    1    2    0    0 -0.30850412406E+02  0.55594766352E+00  0.80413421485E+01  0.59301949649E+02  0.50000010252E+02 0.  0.
         12    1    1    2    0    0  0.30850412406E+02 -0.55594766352E+00 -0.80413421485E+01  0.31886050351E+02  0.00000000000E+00 0. -1.
         11    1    3    3    0    0  0.47564995087E+01 -0.55330904628E+01 -0.65006081946E+01  0.97722712205E+01  0.51100000000E-03 0. -1.
        -11    1    3    3    0    0  0.23996413478E+01  0.87261658977E+01  0.46190367954E+01  0.10160696386E+02  0.51100000000E-03 0.  1.
        -12    1    3    3    0    0 -0.38006553263E+02 -0.26371277713E+01  0.99229135476E+01  0.39368982043E+02  0.00000000000E+00 0.  1.
</event>
<event>
 7    1  0.6061051E-012  0.5930192E+02  0.7816164E-02  0.1266605E+00
        -11   -1    0    0    0    0  0.00000000000E+00  0.00000000000E+00  0.45593999997E+02  0.45594000000E+02  0.51100000000E-03 0.  1.
         11   -1    0    0    0    0 -0.00000000000E+00 -0.00000000000E+00 -0.45593999997E+02  0.45594000000E+02  0.51100000000E-03 0. -1.
    9900012    2    1    2    0    0  0.10219370060E+02  0.19688315826E+02  0.22905393335E+02  0.59301916071E+02  0.49999949014E+02 0.  0.
         12    1    1    2    0    0 -0.10219370060E+02 -0.19688315826E+02 -0.22905393335E+02  0.31886083929E+02  0.00000000000E+00 0. -1.
         11    1    3    3    0    0  0.47131804707E+01  0.17557986030E+02 -0.43437168823E+01  0.18691303331E+02  0.51100000000E-03 0. -1.
        -11    1    3    3    0    0 -0.52829471189E+01  0.69479853714E+01 -0.20955561464E+01  0.89763793818E+01  0.51100000000E-03 0.  1.
        -12    1    3    3    0    0  0.10789136709E+02 -0.48176555760E+01  0.29344666364E+02  0.31634233358E+02  0.00000000000E+00 0.  1.
</event>
<event>
 7    1  0.6061051E-012  0.5930196E+02  0.7816164E-02  0.1266605E+00
        -11   -1    0    0    0    0  0.00000000000E+00  0.00000000000E+00  0.45593999997E+02  0.45594000000E+02  0.51100000000E-03 0.  1.
         11   -1    0    0    0    0 -0.00000000000E+00 -0.00000000000E+00 -0.45593999997E+02  0.45594000000E+02  0.51100000000E-03 0. -1.
    9900012    2    1    2    0    0  0.14469858296E+02  0.27833035396E+02 -0.57152983214E+01  0.59301963976E+02  0.50000036380E+02 0.  0.
         12    1    1    2    0    0 -0.14469858296E+02 -0.27833035396E+02  0.57152983214E+01  0.31886036024E+02  0.00000000000E+00 0. -1.
         11    1    3    3    0    0  0.11060635751E+02 -0.69939762831E+01 -0.24481714023E+00  0.13088670794E+02  0.51100000000E-03 0. -1.
        -11    1    3    3    0    0 -0.75383235652E+00 -0.37546382318E+01 -0.63298845668E+01  0.73981761512E+01  0.51100000000E-03 0.  1.
        -12    1    3    3    0    0  0.41630549019E+01  0.38581649910E+02  0.85940338571E+00  0.38815117031E+02  0.00000000000E+00 0.  1.
</event>
<event>
 7    1  0.6061051E-012  0.5930233E+02  0.7816164E-02  0.1266603E+00
        -11   -1    0    0    0    0  0.00000000000E+00  0.00000000000E+00  0.45593999997E+02  0.45594000000E+02  0.51100000000E-03 0.  1.
         11   -1    0    0    0    0 -0.00000000000E+00 -0.00000000000E+00 -0.45593999997E+02  0.45594000000E+02  0.51100000000E-03 0. -1.
    9900012    2    1    2    0    0  0.49775441041E+01  0.27545985990E+02  0.15268868887E+02  0.59302334780E+02  0.50000712633E+02 0.  0.
         12    1    1    2    0    0 -0.49775441041E+01 -0.27545985990E+02 -0.15268868887E+02  0.31885665220E+02  0.00000000000E+00 0. -1.
         11    1    3    3    0    0  0.11998796192E+02  0.34409127810E+02  0.13347767979E+02  0.38808788914E+02  0.51100000000E-03 0.  1.
        -11    1    3    3    0    0 -0.57623938432E+00 -0.64692441273E+01  0.88791577123E+01  0.11001027831E+02  0.51100000000E-03 0. -1.
        -12    1    3    3    0    0 -0.64450127040E+01 -0.39389769291E+00 -0.69580568036E+01  0.94925180342E+01  0.00000000000E+00 0.  1.
</event>
<event>
 7    1  0.6061051E-012  0.5930190E+02  0.7816164E-02  0.1266605E+00
        -11   -1    0    0    0    0  0.00000000000E+00  0.00000000000E+00  0.45593999997E+02  0.45594000000E+02  0.51100000000E-03 0.  1.
         11   -1    0    0    0    0 -0.00000000000E+00 -0.00000000000E+00 -0.45593999997E+02  0.45594000000E+02  0.51100000000E-03 0. -1.
    9900012    2    1    2    0    0 -0.23439137472E+02 -0.18432365365E+02  0.11295054992E+02  0.59301897609E+02  0.49999915344E+02 0.  0.
         12    1    1    2    0    0  0.23439137472E+02  0.18432365365E+02 -0.11295054992E+02  0.31886102391E+02  0.00000000000E+00 0. -1.
         11    1    3    3    0    0  0.16087658120E+01  0.14908615428E+01  0.33261903315E+01  0.39842612816E+01  0.51100000000E-03 0. -1.
        -11    1    3    3    0    0 -0.22587506855E+02 -0.22626987048E+02  0.23297291379E+02  0.39559319947E+02  0.51100000000E-03 0.  1.
         12    1    3    3    0    0 -0.24603964289E+01  0.27037601404E+01 -0.15328426718E+02  0.15758316380E+02  0.00000000000E+00 0. -1.
</event>
<event>
 7    1  0.6061051E-012  0.5930195E+02  0.7816164E-02  0.1266605E+00
        -11   -1    0    0    0    0  0.00000000000E+00  0.00000000000E+00  0.45593999997E+02  0.45594000000E+02  0.51100000000E-03 0.  1.
         11   -1    0    0    0    0 -0.00000000000E+00 -0.00000000000E+00 -0.45593999997E+02  0.45594000000E+02  0.51100000000E-03 0. -1.
    9900012    2    1    2    0    0  0.28586167286E+00 -0.65930823143E+01  0.31195665134E+02  0.59301953295E+02  0.50000016901E+02 0.  0.
         12    1    1    2    0    0 -0.28586167286E+00  0.65930823143E+01 -0.31195665134E+02  0.31886046705E+02  0.00000000000E+00 0. -1.
         11    1    3    3    0    0  0.42227696272E+01  0.32150743915E+01 -0.96711107970E+01  0.11031721125E+02  0.51100000000E-03 0. -1.
        -11    1    3    3    0    0  0.92054921424E+01 -0.91541106498E+00  0.10402305817E+02  0.13920740985E+02  0.51100000000E-03 0.  1.
        -12    1    3    3    0    0 -0.13142400097E+02 -0.88927456409E+01  0.30464470115E+02  0.34349491185E+02  0.00000000000E+00 0.  1.
</event>
<event>
 7    1  0.6061051E-012  0.5930194E+02  0.7816164E-02  0.1266605E+00
        -11   -1    0    0    0    0  0.00000000000E+00  0.00000000000E+00  0.45593999997E+02  0.45594000000E+02  0.51100000000E-03 0.  1.
         11   -1    0    0    0    0 -0.00000000000E+00 -0.00000000000E+00 -0.45593999997E+02  0.45594000000E+02  0.51100000000E-03 0. -1.
    9900012    2    1    2    0    0 -0.64828765389E+01  0.59847796745E+01  0.30641081043E+02  0.59301935278E+02  0.49999984043E+02 0.  0.
         12    1    1    2    0    0  0.64828765389E+01 -0.59847796745E+01 -0.30641081043E+02  0.31886064722E+02  0.00000000000E+00 0. -1.
         11    1    3    3    0    0  0.51995173166E+01  0.39144805582E+01 -0.90382161841E+00  0.65707710465E+01  0.51100000000E-03 0. -1.
        -11    1    3    3    0    0 -0.19901132264E+02  0.16344225078E+02  0.20230490619E+02  0.32748458127E+02  0.51100000000E-03 0.  1.
         12    1    3    3    0    0  0.82187384081E+01 -0.14273925962E+02  0.11314412043E+02  0.19982706104E+02  0.00000000000E+00 0. -1.
</event>
<event>
 7    1  0.6061051E-012  0.5930196E+02  0.7816164E-02  0.1266605E+00
        -11   -1    0    0    0    0  0.00000000000E+00  0.00000000000E+00  0.45593999997E+02  0.45594000000E+02  0.51100000000E-03 0. -1.
         11   -1    0    0    0    0 -0.00000000000E+00 -0.00000000000E+00 -0.45593999997E+02  0.45594000000E+02  0.51100000000E-03 0.  1.
    9900012    2    1    2    0    0  0.22057032180E+02 -0.26587548721E+01 -0.22872210376E+02  0.59301958328E+02  0.50000026080E+02 0.  0.
         12    1    1    2    0    0 -0.22057032180E+02  0.26587548721E+01  0.22872210376E+02  0.31886041672E+02  0.00000000000E+00 0. -1.
         11    1    3    3    0    0  0.64467225780E+01  0.99797215664E+01 -0.29292948765E+02  0.31610629892E+02  0.51100000000E-03 0.  1.
        -11    1    3    3    0    0  0.30840197947E+00 -0.10973331559E+02 -0.91761803315E-01  0.10978047994E+02  0.51100000000E-03 0. -1.
        -12    1    3    3    0    0  0.15301907622E+02 -0.16651448798E+01  0.65125001925E+01  0.16713280441E+02  0.00000000000E+00 0.  1.
</event>
<event>
 7    1  0.6061051E-012  0.5930195E+02  0.7816164E-02  0.1266605E+00
        -11   -1    0    0    0    0  0.00000000000E+00  0.00000000000E+00  0.45593999997E+02  0.45594000000E+02  0.51100000000E-03 0. -1.
         11   -1    0    0    0    0 -0.00000000000E+00 -0.00000000000E+00 -0.45593999997E+02  0.45594000000E+02  0.51100000000E-03 0.  1.
    9900012    2    1    2    0    0 -0.27830620424E+02 -0.54326369792E+01  0.14582974131E+02  0.59301951135E+02  0.50000012961E+02 0.  0.
         12    1    1    2    0    0  0.27830620424E+02  0.54326369792E+01 -0.14582974131E+02  0.31886048865E+02  0.00000000000E+00 0. -1.
         11    1    3    3    0    0  0.17555036178E+00  0.33469833097E+01  0.50933370693E+01  0.60971467071E+01  0.51100000000E-03 0. -1.
        -11    1    3    3    0    0 -0.83815293935E+01 -0.84745944072E+01 -0.16674969622E+02  0.20496911902E+02  0.51100000000E-03 0.  1.
         12    1    3    3    0    0 -0.19624641392E+02 -0.30502588174E+00  0.26164606684E+02  0.32707892526E+02  0.00000000000E+00 0. -1.
</event>
<event>
 7    1  0.6061051E-012  0.5930187E+02  0.7816164E-02  0.1266605E+00
        -11   -1    0    0    0    0  0.00000000000E+00  0.00000000000E+00  0.45593999997E+02  0.45594000000E+02  0.51100000000E-03 0. -1.
         11   -1    0    0    0    0 -0.00000000000E+00 -0.00000000000E+00 -0.45593999997E+02  0.45594000000E+02  0.51100000000E-03 0.  1.
    9900012    2    1    2    0    0  0.62874696704E+01  0.30865592484E+02  0.49505908719E+01  0.59301867839E+02  0.49999861049E+02 0.  0.
         12    1    1    2    0    0 -0.62874696704E+01 -0.30865592484E+02 -0.49505908719E+01  0.31886132161E+02  0.00000000000E+00 0. -1.
         11    1    3    3    0    0 -0.69703154269E+01  0.23984496801E+02  0.84519956432E+01  0.26368117388E+02  0.51100000000E-03 0. -1.
        -11    1    3    3    0    0  0.12534665768E+02  0.17706203577E+02 -0.59562968054E+00  0.21702125841E+02  0.51100000000E-03 0.  1.
         12    1    3    3    0    0  0.72311932984E+00 -0.10825107895E+02 -0.29057750908E+01  0.11231624610E+02  0.00000000000E+00 0. -1.
</event>
<event>
 7    1  0.6061051E-012  0.5930193E+02  0.7816164E-02  0.1266605E+00
        -11   -1    0    0    0    0  0.00000000000E+00  0.00000000000E+00  0.45593999997E+02  0.45594000000E+02  0.51100000000E-03 0.  1.
         11   -1    0    0    0    0 -0.00000000000E+00 -0.00000000000E+00 -0.45593999997E+02  0.45594000000E+02  0.51100000000E-03 0. -1.
    9900012    2    1    2    0    0  0.54567946954E+01  0.31328239131E+02 -0.23422350821E+01  0.59301933442E+02  0.49999980693E+02 0.  0.
         12    1    1    2    0    0 -0.54567946954E+01 -0.31328239131E+02  0.23422350821E+01  0.31886066558E+02  0.00000000000E+00 0. -1.
         11    1    3    3    0    0  0.70195437062E+01  0.50649437541E+01 -0.13721361793E+02  0.16223545198E+02  0.51100000000E-03 0. -1.
        -11    1    3    3    0    0  0.70465381306E+00 -0.48953667201E+01 -0.56407912206E+01  0.75019782842E+01  0.51100000000E-03 0.  1.
        -12    1    3    3    0    0 -0.22674028239E+01  0.31158662097E+02  0.17019917931E+02  0.35576409960E+02  0.00000000000E+00 0.  1.
</event>
<event>
 7    1  0.6061051E-012  0.5930193E+02  0.7816164E-02  0.1266605E+00
        -11   -1    0    0    0    0  0.00000000000E+00  0.00000000000E+00  0.45593999997E+02  0.45594000000E+02  0.51100000000E-03 0. -1.
         11   -1    0    0    0    0 -0.00000000000E+00 -0.00000000000E+00 -0.45593999997E+02  0.45594000000E+02  0.51100000000E-03 0.  1.
    9900012    2    1    2    0    0 -0.25874030324E+01 -0.20163365480E+02 -0.24565529817E+02  0.59301933809E+02  0.49999981364E+02 0.  0.
         12    1    1    2    0    0  0.25874030324E+01  0.20163365480E+02  0.24565529817E+02  0.31886066191E+02  0.00000000000E+00 0. -1.
         11    1    3    3    0    0 -0.54595762514E+01 -0.19984669531E+01 -0.86534826722E+00  0.58778968086E+01  0.51100000000E-03 0. -1.
        -11    1    3    3    0    0 -0.16454762623E+02 -0.60365642392E+01 -0.25043169373E+02  0.30567297121E+02  0.51100000000E-03 0.  1.
         12    1    3    3    0    0  0.19326935842E+02 -0.12128334287E+02  0.13429878231E+01  0.22856739879E+02  0.00000000000E+00 0. -1.
</event>
<event>
 7    1  0.6061051E-012  0.5930195E+02  0.7816164E-02  0.1266605E+00
        -11   -1    0    0    0    0  0.00000000000E+00  0.00000000000E+00  0.45593999997E+02  0.45594000000E+02  0.51100000000E-03 0.  1.
         11   -1    0    0    0    0 -0.00000000000E+00 -0.00000000000E+00 -0.45593999997E+02  0.45594000000E+02  0.51100000000E-03 0. -1.
    9900012    2    1    2    0    0  0.21752091191E+02 -0.21037782680E+02  0.10048805255E+02  0.59301948844E+02  0.50000008784E+02 0.  0.
         12    1    1    2    0    0 -0.21752091191E+02  0.21037782680E+02 -0.10048805255E+02  0.31886051156E+02  0.00000000000E+00 0. -1.
         11    1    3    3    0    0 -0.80952980346E+01  0.47639716646E+01  0.81630606708E+01  0.12444470100E+02  0.51100000000E-03 0. -1.
        -11    1    3    3    0    0  0.75696457724E+01 -0.45449628650E+01 -0.10455120164E+02  0.13684508119E+02  0.51100000000E-03 0.  1.
        -12    1    3    3    0    0  0.22277743454E+02 -0.21256791479E+02  0.12340864747E+02  0.33172970625E+02  0.00000000000E+00 0.  1.
</event>
<event>
 7    1  0.6061051E-012  0.5930192E+02  0.7816164E-02  0.1266605E+00
        -11   -1    0    0    0    0  0.00000000000E+00  0.00000000000E+00  0.45593999997E+02  0.45594000000E+02  0.51100000000E-03 0.  1.
         11   -1    0    0    0    0 -0.00000000000E+00 -0.00000000000E+00 -0.45593999997E+02  0.45594000000E+02  0.51100000000E-03 0. -1.
    9900012    2    1    2    0    0 -0.94237885171E+01  0.26751771547E+02  0.14569049525E+02  0.59301917221E+02  0.49999951110E+02 0.  0.
         12    1    1    2    0    0  0.94237885171E+01 -0.26751771547E+02 -0.14569049525E+02  0.31886082779E+02  0.00000000000E+00 0. -1.
         11    1    3    3    0    0  0.31758424696E+01  0.15679042559E+02 -0.81056150895E+01  0.17933748832E+02  0.51100000000E-03 0. -1.
        -11    1    3    3    0    0 -0.10304786865E+02  0.57150877060E+01 -0.52078200179E+01  0.12883021751E+02  0.51100000000E-03 0.  1.
        -12    1    3    3    0    0 -0.22948441213E+01  0.53576412829E+01  0.27882484633E+02  0.28485146637E+02  0.00000000000E+00 0.  1.
</event>
<event>
 7    1  0.6061051E-012  0.5930195E+02  0.7816164E-02  0.1266605E+00
        -11   -1    0    0    0    0  0.00000000000E+00  0.00000000000E+00  0.45593999997E+02  0.45594000000E+02  0.51100000000E-03 0.  1.
         11   -1    0    0    0    0 -0.00000000000E+00 -0.00000000000E+00 -0.45593999997E+02  0.45594000000E+02  0.51100000000E-03 0. -1.
    9900012    2    1    2    0    0 -0.40730785150E+00  0.40176723213E+01  0.31629296549E+02  0.59301953040E+02  0.50000016436E+02 0.  0.
         12    1    1    2    0    0  0.40730785150E+00 -0.40176723213E+01 -0.31629296549E+02  0.31886046960E+02  0.00000000000E+00 0. -1.
         11    1    3    3    0    0 -0.36161618478E+00 -0.43209450789E+01  0.56467529224E+01  0.71194909557E+01  0.51100000000E-03 0. -1.
        -11    1    3    3    0    0 -0.21278259171E+02 -0.10931904236E+01  0.17060442455E+02  0.27295019247E+02  0.51100000000E-03 0.  1.
         12    1    3    3    0    0  0.21232567505E+02  0.94318078238E+01  0.89221011716E+01  0.24887442837E+02  0.00000000000E+00 0. -1.
</event>
<event>
 7    1  0.6061051E-012  0.5930196E+02  0.7816164E-02  0.1266605E+00
        -11   -1    0    0    0    0  0.00000000000E+00  0.00000000000E+00  0.45593999997E+02  0.45594000000E+02  0.51100000000E-03 0.  1.
         11   -1    0    0    0    0 -0.00000000000E+00 -0.00000000000E+00 -0.45593999997E+02  0.45594000000E+02  0.51100000000E-03 0. -1.
    9900012    2    1    2    0    0 -0.14731531709E+02 -0.25530004162E+02  0.12162248619E+02  0.59301961825E+02  0.50000032459E+02 0.  0.
         12    1    1    2    0    0  0.14731531709E+02  0.25530004162E+02 -0.12162248619E+02  0.31886038175E+02  0.00000000000E+00 0. -1.
         11    1    3    3    0    0  0.35243339686E+01 -0.45804323040E+01 -0.30280836683E+01  0.65246134734E+01  0.51100000000E-03 0. -1.
        -11    1    3    3    0    0  0.56018602545E+01  0.93246853176E+01 -0.10954647485E+01  0.10933006808E+02  0.51100000000E-03 0.  1.
        -12    1    3    3    0    0 -0.23857725932E+02 -0.30274257176E+02  0.16285797035E+02  0.41844341544E+02  0.00000000000E+00 0.  1.
</event>
<event>
 7    1  0.6061051E-012  0.5930195E+02  0.7816164E-02  0.1266605E+00
        -11   -1    0    0    0    0  0.00000000000E+00  0.00000000000E+00  0.45593999997E+02  0.45594000000E+02  0.51100000000E-03 0.  1.
         11   -1    0    0    0    0 -0.00000000000E+00 -0.00000000000E+00 -0.45593999997E+02  0.45594000000E+02  0.51100000000E-03 0. -1.
    9900012    2    1    2    0    0 -0.15143267654E+01  0.56106361481E+01  0.31351998645E+02  0.59301949091E+02  0.50000009234E+02 0.  0.
         12    1    1    2    0    0  0.15143267654E+01 -0.56106361481E+01 -0.31351998645E+02  0.31886050909E+02  0.00000000000E+00 0. -1.
         11    1    3    3    0    0  0.16563839601E+02  0.97325120286E+01  0.14655341983E+02  0.24163228708E+02  0.51100000000E-03 0. -1.
        -11    1    3    3    0    0 -0.31461367642E+01  0.61055092221E+01  0.15555081943E+02  0.17003999350E+02  0.51100000000E-03 0.  1.
         12    1    3    3    0    0 -0.14932029602E+02 -0.10227385103E+02  0.11415747196E+01  0.18134721032E+02  0.00000000000E+00 0. -1.
</event>
<event>
 7    1  0.6061051E-012  0.5930211E+02  0.7816164E-02  0.1266604E+00
        -11   -1    0    0    0    0  0.00000000000E+00  0.00000000000E+00  0.45593999997E+02  0.45594000000E+02  0.51100000000E-03 0. -1.
         11   -1    0    0    0    0 -0.00000000000E+00 -0.00000000000E+00 -0.45593999997E+02  0.45594000000E+02  0.51100000000E-03 0.  1.
    9900012    2    1    2    0    0 -0.19360193509E+02  0.14343082996E+02 -0.20884653561E+02  0.59302111634E+02  0.50000305672E+02 0.  0.
         12    1    1    2    0    0  0.19360193509E+02 -0.14343082996E+02  0.20884653561E+02  0.31885888366E+02  0.00000000000E+00 0. -1.
         11    1    3    3    0    0  0.31089800742E+00 -0.82816298743E+01 -0.39758136928E+01  0.91917977418E+01  0.51100000000E-03 0. -1.
        -11    1    3    3    0    0  0.39326232842E+01  0.71447103321E+01  0.87518509850E+01  0.11962746656E+02  0.51100000000E-03 0.  1.
         12    1    3    3    0    0 -0.23603714800E+02  0.15480002538E+02 -0.25660690853E+02  0.38147567236E+02  0.00000000000E+00 0. -1.
</event>
<event>
 7    1  0.6061051E-012  0.5930188E+02  0.7816164E-02  0.1266605E+00
        -11   -1    0    0    0    0  0.00000000000E+00  0.00000000000E+00  0.45593999997E+02  0.45594000000E+02  0.51100000000E-03 0.  1.
         11   -1    0    0    0    0 -0.00000000000E+00 -0.00000000000E+00 -0.45593999997E+02  0.45594000000E+02  0.51100000000E-03 0. -1.
    9900012    2    1    2    0    0  0.10666860663E+02 -0.85116580712E+01  0.28818302668E+02  0.59301877499E+02  0.49999878667E+02 0.  0.
         12    1    1    2    0    0 -0.10666860663E+02  0.85116580712E+01 -0.28818302668E+02  0.31886122501E+02  0.00000000000E+00 0. -1.
         11    1    3    3    0    0  0.62056616594E+01 -0.11700587467E+02 -0.49526227203E+01  0.14140100982E+02  0.51100000000E-03 0. -1.
        -11    1    3    3    0    0 -0.64399563956E+01  0.47438018044E+01 -0.15647129417E+01  0.81501546481E+01  0.51100000000E-03 0.  1.
        -12    1    3    3    0    0  0.10901155399E+02 -0.15548724089E+01  0.35335638330E+02  0.37011621869E+02  0.00000000000E+00 0.  1.
</event>
<event>
 7    1  0.6061051E-012  0.5930195E+02  0.7816164E-02  0.1266605E+00
        -11   -1    0    0    0    0  0.00000000000E+00  0.00000000000E+00  0.45593999997E+02  0.45594000000E+02  0.51100000000E-03 0.  1.
         11   -1    0    0    0    0 -0.00000000000E+00 -0.00000000000E+00 -0.45593999997E+02  0.45594000000E+02  0.51100000000E-03 0. -1.
    9900012    2    1    2    0    0 -0.23269370147E+02  0.12563805773E+02  0.17815933227E+02  0.59301948515E+02  0.50000008184E+02 0.  0.
         12    1    1    2    0    0  0.23269370147E+02 -0.12563805773E+02 -0.17815933227E+02  0.31886051485E+02  0.00000000000E+00 0. -1.
         11    1    3    3    0    0  0.33799652945E+00  0.64188196276E+01 -0.40375908831E+01  0.75906276069E+01  0.51100000000E-03 0.  1.
        -11    1    3    3    0    0 -0.10860653761E+02 -0.10756520365E+02 -0.62607285271E+01  0.16518270262E+02  0.51100000000E-03 0. -1.
         12    1    3    3    0    0 -0.12746712915E+02  0.16901506510E+02  0.28114252638E+02  0.35193050647E+02  0.00000000000E+00 0. -1.
</event>
<event>
 7    1  0.6061051E-012  0.5930193E+02  0.7816164E-02  0.1266605E+00
        -11   -1    0    0    0    0  0.00000000000E+00  0.00000000000E+00  0.45593999997E+02  0.45594000000E+02  0.51100000000E-03 0. -1.
         11   -1    0    0    0    0 -0.00000000000E+00 -0.00000000000E+00 -0.45593999997E+02  0.45594000000E+02  0.51100000000E-03 0.  1.
    9900012    2    1    2    0    0 -0.26615781775E+02  0.16278647788E+02 -0.65823388657E+01  0.59301930970E+02  0.49999976185E+02 0.  0.
         12    1    1    2    0    0  0.26615781775E+02 -0.16278647788E+02  0.65823388657E+01  0.31886069030E+02  0.00000000000E+00 0. -1.
         11    1    3    3    0    0  0.76860631070E+01 -0.28617469648E+01  0.21812363179E+01  0.84866338387E+01  0.51100000000E-03 0. -1.
        -11    1    3    3    0    0 -0.72703990676E+00  0.88634540410E+01 -0.12677121600E+02  0.15485438866E+02  0.51100000000E-03 0.  1.
        -12    1    3    3    0    0 -0.33574804975E+02  0.10276940711E+02  0.39135464159E+01  0.35329858265E+02  0.00000000000E+00 0.  1.
</event>
<event>
 7    1  0.6061051E-012  0.5930205E+02  0.7816164E-02  0.1266604E+00
        -11   -1    0    0    0    0  0.00000000000E+00  0.00000000000E+00  0.45593999997E+02  0.45594000000E+02  0.51100000000E-03 0.  1.
         11   -1    0    0    0    0 -0.00000000000E+00 -0.00000000000E+00 -0.45593999997E+02  0.45594000000E+02  0.51100000000E-03 0. -1.
    9900012    2    1    2    0    0 -0.22828529046E+02  0.10449909420E+02  0.19656332764E+02  0.59302050696E+02  0.50000194537E+02 0.  0.
         12    1    1    2    0    0  0.22828529046E+02 -0.10449909420E+02 -0.19656332764E+02  0.31885949304E+02  0.00000000000E+00 0. -1.
         11    1    3    3    0    0  0.71486235699E+01  0.42440078808E+01 -0.25435342441E+01  0.86939052530E+01  0.51100000000E-03 0. -1.
        -11    1    3    3    0    0 -0.26687291438E+02 -0.34470612006E+01  0.82105364954E+00  0.26921513415E+02  0.51100000000E-03 0.  1.
         12    1    3    3    0    0 -0.32898611782E+01  0.96529627396E+01  0.21378813358E+02  0.23686632028E+02  0.00000000000E+00 0. -1.
</event>
<event>
 7    1  0.6061051E-012  0.5930195E+02  0.7816164E-02  0.1266605E+00
        -11   -1    0    0    0    0  0.00000000000E+00  0.00000000000E+00  0.45593999997E+02  0.45594000000E+02  0.51100000000E-03 0.  1.
         11   -1    0    0    0    0 -0.00000000000E+00 -0.00000000000E+00 -0.45593999997E+02  0.45594000000E+02  0.51100000000E-03 0. -1.
    9900012    2    1    2    0    0 -0.22501032733E+02 -0.21683135593E+02 -0.63454734374E+01  0.59301954834E+02  0.50000019708E+02 0.  0.
         12    1    1    2    0    0  0.22501032733E+02  0.21683135593E+02  0.63454734374E+01  0.31886045166E+02  0.00000000000E+00 0. -1.
         11    1    3    3    0    0 -0.74840821287E+01  0.65362425774E+01 -0.15195082272E+01  0.10052007653E+02  0.51100000000E-03 0. -1.
        -11    1    3    3    0    0 -0.12475466386E+01 -0.12852540111E+02  0.15576387949E+02  0.20232845121E+02  0.51100000000E-03 0.  1.
         12    1    3    3    0    0 -0.13769403966E+02 -0.15366838059E+02 -0.20402353159E+02  0.29017102059E+02  0.00000000000E+00 0. -1.
</event>
<event>
 7    1  0.6061051E-012  0.5930193E+02  0.7816164E-02  0.1266605E+00
        -11   -1    0    0    0    0  0.00000000000E+00  0.00000000000E+00  0.45593999997E+02  0.45594000000E+02  0.51100000000E-03 0.  1.
         11   -1    0    0    0    0 -0.00000000000E+00 -0.00000000000E+00 -0.45593999997E+02  0.45594000000E+02  0.51100000000E-03 0. -1.
    9900012    2    1    2    0    0 -0.28725987106E+02 -0.10002802865E+02  0.95646906031E+01  0.59301926133E+02  0.49999967363E+02 0.  0.
         12    1    1    2    0    0  0.28725987106E+02  0.10002802865E+02 -0.95646906031E+01  0.31886073867E+02  0.00000000000E+00 0. -1.
         11    1    3    3    0    0 -0.11070679554E+02  0.36815681543E+01  0.13050320548E+02  0.17504992332E+02  0.51100000000E-03 0. -1.
        -11    1    3    3    0    0 -0.50463687632E+01 -0.22788414105E+02  0.53001888876E+01  0.23934695687E+02  0.51100000000E-03 0.  1.
         12    1    3    3    0    0 -0.12608938789E+02  0.91040430856E+01 -0.87858188326E+01  0.17862238114E+02  0.00000000000E+00 0. -1.
</event>
<event>
 7    1  0.6061051E-012  0.5930178E+02  0.7816164E-02  0.1266605E+00
        -11   -1    0    0    0    0  0.00000000000E+00  0.00000000000E+00  0.45593999997E+02  0.45594000000E+02  0.51100000000E-03 0.  1.
         11   -1    0    0    0    0 -0.00000000000E+00 -0.00000000000E+00 -0.45593999997E+02  0.45594000000E+02  0.51100000000E-03 0. -1.
    9900012    2    1    2    0    0 -0.10974126265E+02 -0.28321374882E+02  0.97056184388E+01  0.59301784298E+02  0.49999708691E+02 0.  0.
         12    1    1    2    0    0  0.10974126265E+02  0.28321374882E+02 -0.97056184388E+01  0.31886215702E+02  0.00000000000E+00 0. -1.
         11    1    3    3    0    0  0.29831514499E+00 -0.26780459837E+01  0.19370559997E+02  0.19557083552E+02  0.51100000000E-03 0. -1.
        -11    1    3    3    0    0 -0.80871168248E+01 -0.48424913356E+01  0.79273648048E+01  0.12316423746E+02  0.51100000000E-03 0.  1.
        -12    1    3    3    0    0 -0.31853245850E+01 -0.20800837563E+02 -0.17592306363E+02  0.27428277000E+02  0.00000000000E+00 0.  1.
</event>
<event>
 7    1  0.6061051E-012  0.5930196E+02  0.7816164E-02  0.1266605E+00
        -11   -1    0    0    0    0  0.00000000000E+00  0.00000000000E+00  0.45593999997E+02  0.45594000000E+02  0.51100000000E-03 0.  1.
         11   -1    0    0    0    0 -0.00000000000E+00 -0.00000000000E+00 -0.45593999997E+02  0.45594000000E+02  0.51100000000E-03 0. -1.
    9900012    2    1    2    0    0  0.40302395632E+01  0.18657847947E+02  0.25541368685E+02  0.59301958614E+02  0.50000026602E+02 0.  0.
         12    1    1    2    0    0 -0.40302395632E+01 -0.18657847947E+02 -0.25541368685E+02  0.31886041386E+02  0.00000000000E+00 0. -1.
         11    1    3    3    0    0  0.16760032909E+02  0.98090114942E+01  0.17728011231E+02  0.26294444129E+02  0.51100000000E-03 0. -1.
        -11    1    3    3    0    0  0.60859694322E+01  0.15218305584E+01 -0.58896667819E+01  0.86048339462E+01  0.51100000000E-03 0.  1.
        -12    1    3    3    0    0 -0.18815762778E+02  0.73270058941E+01  0.13703024236E+02  0.24402680539E+02  0.00000000000E+00 0.  1.
</event>
<event>
 7    1  0.6061051E-012  0.5930198E+02  0.7816164E-02  0.1266605E+00
        -11   -1    0    0    0    0  0.00000000000E+00  0.00000000000E+00  0.45593999997E+02  0.45594000000E+02  0.51100000000E-03 0.  1.
         11   -1    0    0    0    0 -0.00000000000E+00 -0.00000000000E+00 -0.45593999997E+02  0.45594000000E+02  0.51100000000E-03 0. -1.
    9900012    2    1    2    0    0 -0.10021842331E+02 -0.23371313214E+02  0.19237015620E+02  0.59301978376E+02  0.50000062642E+02 0.  0.
         12    1    1    2    0    0  0.10021842331E+02  0.23371313214E+02 -0.19237015620E+02  0.31886021624E+02  0.00000000000E+00 0. -1.
         11    1    3    3    0    0 -0.41495534551E+01 -0.65335192398E+01 -0.44019274542E+01  0.89040795766E+01  0.51100000000E-03 0. -1.
        -11    1    3    3    0    0 -0.20600652815E+02 -0.20109616004E+02  0.11373411828E+02  0.30953805083E+02  0.51100000000E-03 0.  1.
         12    1    3    3    0    0  0.14728363939E+02  0.32718220297E+01  0.12265531246E+02  0.19444093716E+02  0.00000000000E+00 0. -1.
</event>
<event>
 7    1  0.6061051E-012  0.5930197E+02  0.7816164E-02  0.1266605E+00
        -11   -1    0    0    0    0  0.00000000000E+00  0.00000000000E+00  0.45593999997E+02  0.45594000000E+02  0.51100000000E-03 0.  1.
         11   -1    0    0    0    0 -0.00000000000E+00 -0.00000000000E+00 -0.45593999997E+02  0.45594000000E+02  0.51100000000E-03 0. -1.
    9900012    2    1    2    0    0  0.30295805239E+02  0.51354479917E+01  0.85152985570E+01  0.59301969349E+02  0.50000046180E+02 0.  0.
         12    1    1    2    0    0 -0.30295805239E+02 -0.51354479917E+01 -0.85152985570E+01  0.31886030651E+02  0.00000000000E+00 0. -1.
         11    1    3    3    0    0  0.81193857265E+01 -0.18240321953E+02 -0.21177776973E+01  0.20077817416E+02  0.51100000000E-03 0. -1.
        -11    1    3    3    0    0  0.14633391601E+02  0.16186640688E+01  0.38294622700E+01  0.15212527885E+02  0.51100000000E-03 0.  1.
        -12    1    3    3    0    0  0.75430279119E+01  0.21757105876E+02  0.68036139844E+01  0.24011624048E+02  0.00000000000E+00 0.  1.
</event>
<event>
 7    1  0.6061051E-012  0.5930182E+02  0.7816164E-02  0.1266605E+00
        -11   -1    0    0    0    0  0.00000000000E+00  0.00000000000E+00  0.45593999997E+02  0.45594000000E+02  0.51100000000E-03 0.  1.
         11   -1    0    0    0    0 -0.00000000000E+00 -0.00000000000E+00 -0.45593999997E+02  0.45594000000E+02  0.51100000000E-03 0. -1.
    9900012    2    1    2    0    0 -0.20191980210E+02  0.57524115985E+01  0.23998377193E+02  0.59301820989E+02  0.49999775607E+02 0.  0.
         12    1    1    2    0    0  0.20191980210E+02 -0.57524115985E+01 -0.23998377193E+02  0.31886179011E+02  0.00000000000E+00 0. -1.
         11    1    3    3    0    0  0.19479003331E+01  0.53231266258E+01  0.10665954584E+02  0.12078600094E+02  0.51100000000E-03 0. -1.
        -11    1    3    3    0    0 -0.29315650828E+02  0.11990338834E+02  0.86460060755E+01  0.32831829528E+02  0.51100000000E-03 0.  1.
         12    1    3    3    0    0  0.71757702850E+01 -0.11561053861E+02  0.46864165339E+01  0.14391391368E+02  0.00000000000E+00 0. -1.
</event>
<event>
 7    1  0.6061051E-012  0.5930188E+02  0.7816164E-02  0.1266605E+00
        -11   -1    0    0    0    0  0.00000000000E+00  0.00000000000E+00  0.45593999997E+02  0.45594000000E+02  0.51100000000E-03 0. -1.
         11   -1    0    0    0    0 -0.00000000000E+00 -0.00000000000E+00 -0.45593999997E+02  0.45594000000E+02  0.51100000000E-03 0.  1.
    9900012    2    1    2    0    0  0.13430090525E+02  0.26624141137E+02 -0.11292126530E+02  0.59301884771E+02  0.49999891931E+02 0.  0.
         12    1    1    2    0    0 -0.13430090525E+02 -0.26624141137E+02  0.11292126530E+02  0.31886115229E+02  0.00000000000E+00 0. -1.
         11    1    3    3    0    0 -0.79527707081E+01 -0.37687100426E+01  0.74831590468E+01  0.11551943858E+02  0.51100000000E-03 0. -1.
        -11    1    3    3    0    0 -0.44223277972E+01  0.47079879130E+01 -0.69038224506E+01  0.94543586787E+01  0.51100000000E-03 0.  1.
        -12    1    3    3    0    0  0.25805189030E+02  0.25684863267E+02 -0.11871463127E+02  0.38295582235E+02  0.00000000000E+00 0.  1.
</event>
<event>
 7    1  0.6061051E-012  0.5930191E+02  0.7816164E-02  0.1266605E+00
        -11   -1    0    0    0    0  0.00000000000E+00  0.00000000000E+00  0.45593999997E+02  0.45594000000E+02  0.51100000000E-03 0.  1.
         11   -1    0    0    0    0 -0.00000000000E+00 -0.00000000000E+00 -0.45593999997E+02  0.45594000000E+02  0.51100000000E-03 0. -1.
    9900012    2    1    2    0    0  0.21376767584E+02  0.35505825248E+01  0.23391234217E+02  0.59301911077E+02  0.49999939906E+02 0.  0.
         12    1    1    2    0    0 -0.21376767584E+02 -0.35505825248E+01 -0.23391234217E+02  0.31886088923E+02  0.00000000000E+00 0. -1.
         11    1    3    3    0    0 -0.80451363750E+01  0.97570481018E+01  0.12504136886E+02  0.17784196537E+02  0.51100000000E-03 0. -1.
        -11    1    3    3    0    0  0.58576799451E+01 -0.10190737614E+02  0.12999673526E+02  0.17525839765E+02  0.51100000000E-03 0.  1.
        -12    1    3    3    0    0  0.23564224014E+02  0.39842720367E+01 -0.21125761941E+01  0.23991874775E+02  0.00000000000E+00 0.  1.
</event>
<event>
 7    1  0.6061051E-012  0.5930200E+02  0.7816164E-02  0.1266605E+00
        -11   -1    0    0    0    0  0.00000000000E+00  0.00000000000E+00  0.45593999997E+02  0.45594000000E+02  0.51100000000E-03 0.  1.
         11   -1    0    0    0    0 -0.00000000000E+00 -0.00000000000E+00 -0.45593999997E+02  0.45594000000E+02  0.51100000000E-03 0. -1.
    9900012    2    1    2    0    0 -0.57542619796E+01  0.31324183623E+02 -0.15494418984E+01  0.59302003375E+02  0.50000108236E+02 0.  0.
         12    1    1    2    0    0  0.57542619796E+01 -0.31324183623E+02  0.15494418984E+01  0.31885996625E+02  0.00000000000E+00 0. -1.
         11    1    3    3    0    0  0.20830914403E+01  0.10014404040E+02  0.77613363840E+01  0.12840011719E+02  0.51100000000E-03 0. -1.
        -11    1    3    3    0    0  0.12750480455E+02  0.54994572648E+01  0.72563531900E+01  0.15667592154E+02  0.51100000000E-03 0.  1.
         12    1    3    3    0    0 -0.20587833875E+02  0.15810322318E+02 -0.16567131472E+02  0.30794399502E+02  0.00000000000E+00 0. -1.
</event>
<event>
 7    1  0.6061051E-012  0.5930192E+02  0.7816164E-02  0.1266605E+00
        -11   -1    0    0    0    0  0.00000000000E+00  0.00000000000E+00  0.45593999997E+02  0.45594000000E+02  0.51100000000E-03 0.  1.
         11   -1    0    0    0    0 -0.00000000000E+00 -0.00000000000E+00 -0.45593999997E+02  0.45594000000E+02  0.51100000000E-03 0. -1.
    9900012    2    1    2    0    0 -0.21436914716E+02  0.22835505859E+02 -0.59766666573E+01  0.59301918637E+02  0.49999953693E+02 0.  0.
         12    1    1    2    0    0  0.21436914716E+02 -0.22835505859E+02  0.59766666573E+01  0.31886081363E+02  0.00000000000E+00 0. -1.
         11    1    3    3    0    0  0.23023146641E+00 -0.56020884509E+01  0.44628006026E+00  0.56245504436E+01  0.51100000000E-03 0. -1.
        -11    1    3    3    0    0 -0.18853388291E+02  0.34872016029E+02  0.53170321803E+01  0.39997232197E+02  0.51100000000E-03 0.  1.
         12    1    3    3    0    0 -0.28137578917E+01 -0.64344217194E+01 -0.11739978898E+02  0.13680135996E+02  0.00000000000E+00 0. -1.
</event>
<event>
 7    1  0.6061051E-012  0.5930198E+02  0.7816164E-02  0.1266605E+00
        -11   -1    0    0    0    0  0.00000000000E+00  0.00000000000E+00  0.45593999997E+02  0.45594000000E+02  0.51100000000E-03 0. -1.
         11   -1    0    0    0    0 -0.00000000000E+00 -0.00000000000E+00 -0.45593999997E+02  0.45594000000E+02  0.51100000000E-03 0.  1.
    9900012    2    1    2    0    0  0.19670564227E+02  0.17470936530E+02 -0.18015367421E+02  0.59301981378E+02  0.50000068118E+02 0.  0.
         12    1    1    2    0    0 -0.19670564227E+02 -0.17470936530E+02  0.18015367421E+02  0.31886018622E+02  0.00000000000E+00 0. -1.
         11    1    3    3    0    0 -0.77865248634E+01  0.84521602350E+01 -0.26077548082E+01  0.11784284768E+02  0.51100000000E-03 0. -1.
        -11    1    3    3    0    0  0.21077200290E+02  0.18536313999E+02 -0.20720202681E+02  0.34887965090E+02  0.51100000000E-03 0.  1.
         12    1    3    3    0    0  0.63798888007E+01 -0.95175377035E+01  0.53125900677E+01  0.12629731520E+02  0.00000000000E+00 0. -1.
</event>
<event>
 7    1  0.6061051E-012  0.5930192E+02  0.7816164E-02  0.1266605E+00
        -11   -1    0    0    0    0  0.00000000000E+00  0.00000000000E+00  0.45593999997E+02  0.45594000000E+02  0.51100000000E-03 0.  1.
         11   -1    0    0    0    0 -0.00000000000E+00 -0.00000000000E+00 -0.45593999997E+02  0.45594000000E+02  0.51100000000E-03 0. -1.
    9900012    2    1    2    0    0  0.98114882309E+01 -0.23233985997E+02  0.19509957272E+02  0.59301924052E+02  0.49999963569E+02 0.  0.
         12    1    1    2    0    0 -0.98114882309E+01  0.23233985997E+02 -0.19509957272E+02  0.31886075948E+02  0.00000000000E+00 0. -1.
         11    1    3    3    0    0  0.19979717715E+02 -0.87945456027E+01  0.24473138438E+01  0.21966394735E+02  0.51100000000E-03 0. -1.
        -11    1    3    3    0    0  0.43807406952E+01 -0.15750512063E+02  0.21997060440E+01  0.16495703265E+02  0.51100000000E-03 0.  1.
        -12    1    3    3    0    0 -0.14548970180E+02  0.13110716680E+01  0.14862937384E+02  0.20839826052E+02  0.00000000000E+00 0.  1.
</event>
<event>
 7    1  0.6061051E-012  0.5930179E+02  0.7816164E-02  0.1266605E+00
        -11   -1    0    0    0    0  0.00000000000E+00  0.00000000000E+00  0.45593999997E+02  0.45594000000E+02  0.51100000000E-03 0. -1.
         11   -1    0    0    0    0 -0.00000000000E+00 -0.00000000000E+00 -0.45593999997E+02  0.45594000000E+02  0.51100000000E-03 0.  1.
    9900012    2    1    2    0    0  0.28554536425E+02 -0.62263388503E+01 -0.12751522955E+02  0.59301793207E+02  0.49999724939E+02 0.  0.
         12    1    1    2    0    0 -0.28554536425E+02  0.62263388503E+01  0.12751522955E+02  0.31886206793E+02  0.00000000000E+00 0. -1.
         11    1    3    3    0    0  0.59598635506E+01 -0.87387197416E+01 -0.17908597987E+02  0.20799112443E+02  0.51100000000E-03 0. -1.
        -11    1    3    3    0    0  0.36424464563E+01  0.53177987270E+01 -0.11455606104E+02  0.13144478345E+02  0.51100000000E-03 0.  1.
        -12    1    3    3    0    0  0.18952226418E+02 -0.28054178357E+01  0.16612681136E+02  0.25358202420E+02  0.00000000000E+00 0.  1.
</event>
<event>
 7    1  0.6061051E-012  0.5930195E+02  0.7816164E-02  0.1266605E+00
        -11   -1    0    0    0    0  0.00000000000E+00  0.00000000000E+00  0.45593999997E+02  0.45594000000E+02  0.51100000000E-03 0.  1.
         11   -1    0    0    0    0 -0.00000000000E+00 -0.00000000000E+00 -0.45593999997E+02  0.45594000000E+02  0.51100000000E-03 0. -1.
    9900012    2    1    2    0    0  0.28925355093E+02 -0.20707699649E+01  0.13257296357E+02  0.59301950351E+02  0.50000011533E+02 0.  0.
         12    1    1    2    0    0 -0.28925355093E+02  0.20707699649E+01 -0.13257296357E+02  0.31886049649E+02  0.00000000000E+00 0. -1.
         11    1    3    3    0    0  0.14793487231E+02  0.15782401576E+02  0.79511887214E+01  0.23046753921E+02  0.51100000000E-03 0. -1.
        -11    1    3    3    0    0  0.13301346709E+01  0.68989059022E+01 -0.22585514344E+01  0.73800552663E+01  0.51100000000E-03 0.  1.
        -12    1    3    3    0    0  0.12801733191E+02 -0.24752077443E+02  0.75646590699E+01  0.28875141165E+02  0.00000000000E+00 0.  1.
</event>
<event>
 7    1  0.6061051E-012  0.5930199E+02  0.7816164E-02  0.1266605E+00
        -11   -1    0    0    0    0  0.00000000000E+00  0.00000000000E+00  0.45593999997E+02  0.45594000000E+02  0.51100000000E-03 0. -1.
         11   -1    0    0    0    0 -0.00000000000E+00 -0.00000000000E+00 -0.45593999997E+02  0.45594000000E+02  0.51100000000E-03 0.  1.
    9900012    2    1    2    0    0  0.37488445080E+01 -0.17590722189E+02 -0.26329261108E+02  0.59301994720E+02  0.50000092450E+02 0.  0.
         12    1    1    2    0    0 -0.37488445080E+01  0.17590722189E+02  0.26329261108E+02  0.31886005280E+02  0.00000000000E+00 0. -1.
         11    1    3    3    0    0 -0.12001013024E+02 -0.45732318624E+01 -0.31869973811E+00  0.12846802445E+02  0.51100000000E-03 0. -1.
        -11    1    3    3    0    0 -0.56434822241E+01 -0.61695429434E+01 -0.22133836691E+02  0.23660491936E+02  0.51100000000E-03 0.  1.
         12    1    3    3    0    0  0.21393339756E+02 -0.68479473830E+01 -0.38767246783E+01  0.22794700338E+02  0.00000000000E+00 0. -1.
</event>
<event>
 7    1  0.6061051E-012  0.5930191E+02  0.7816164E-02  0.1266605E+00
        -11   -1    0    0    0    0  0.00000000000E+00  0.00000000000E+00  0.45593999997E+02  0.45594000000E+02  0.51100000000E-03 0. -1.
         11   -1    0    0    0    0 -0.00000000000E+00 -0.00000000000E+00 -0.45593999997E+02  0.45594000000E+02  0.51100000000E-03 0.  1.
    9900012    2    1    2    0    0  0.13750509856E+02 -0.25772098242E+01 -0.28653173101E+02  0.59301908040E+02  0.49999934366E+02 0.  0.
         12    1    1    2    0    0 -0.13750509856E+02  0.25772098242E+01  0.28653173101E+02  0.31886091960E+02  0.00000000000E+00 0. -1.
         11    1    3    3    0    0 -0.11317704075E+02  0.95465877956E+01 -0.23236206454E+01  0.14987560750E+02  0.51100000000E-03 0. -1.
        -11    1    3    3    0    0  0.12823466950E+02  0.56034122358E+01 -0.87232307266E+01  0.16490430190E+02  0.51100000000E-03 0.  1.
        -12    1    3    3    0    0  0.12244746982E+02 -0.17727209856E+02 -0.17606321729E+02  0.27823917099E+02  0.00000000000E+00 0.  1.
</event>
<event>
 7    1  0.6061051E-012  0.5930190E+02  0.7816164E-02  0.1266605E+00
        -11   -1    0    0    0    0  0.00000000000E+00  0.00000000000E+00  0.45593999997E+02  0.45594000000E+02  0.51100000000E-03 0.  1.
         11   -1    0    0    0    0 -0.00000000000E+00 -0.00000000000E+00 -0.45593999997E+02  0.45594000000E+02  0.51100000000E-03 0. -1.
    9900012    2    1    2    0    0  0.30942131659E+02  0.71902199875E+00  0.76675035280E+01  0.59301904056E+02  0.49999927100E+02 0.  0.
         12    1    1    2    0    0 -0.30942131659E+02 -0.71902199875E+00 -0.76675035280E+01  0.31886095944E+02  0.00000000000E+00 0. -1.
         11    1    3    3    0    0 -0.94363326401E+01 -0.32002950342E+01  0.87844231573E+01  0.13283536896E+02  0.51100000000E-03 0. -1.
        -11    1    3    3    0    0  0.10771850872E+02  0.39946570071E+01 -0.98685782168E+01  0.15145259724E+02  0.51100000000E-03 0.  1.
        -12    1    3    3    0    0  0.29606613427E+02 -0.75339974230E-01  0.87516585874E+01  0.30873107436E+02  0.00000000000E+00 0.  1.
</event>
<event>
 7    1  0.6061051E-012  0.5930200E+02  0.7816164E-02  0.1266605E+00
        -11   -1    0    0    0    0  0.00000000000E+00  0.00000000000E+00  0.45593999997E+02  0.45594000000E+02  0.51100000000E-03 0. -1.
         11   -1    0    0    0    0 -0.00000000000E+00 -0.00000000000E+00 -0.45593999997E+02  0.45594000000E+02  0.51100000000E-03 0.  1.
    9900012    2    1    2    0    0 -0.28379317559E+02  0.13458629266E+02 -0.54951481355E+01  0.59301999626E+02  0.50000101397E+02 0.  0.
         12    1    1    2    0    0  0.28379317559E+02 -0.13458629266E+02  0.54951481355E+01  0.31886000374E+02  0.00000000000E+00 0. -1.
         11    1    3    3    0    0  0.55139067764E+00 -0.29811852968E+01 -0.43499772160E+01  0.53022447599E+01  0.51100000000E-03 0. -1.
        -11    1    3    3    0    0  0.67140809656E+00 -0.94222080385E+01  0.93745507927E+01  0.13308305526E+02  0.51100000000E-03 0.  1.
        -12    1    3    3    0    0 -0.29602116333E+02  0.25862022601E+02 -0.10519721712E+02  0.40691449340E+02  0.00000000000E+00 0.  1.
</event>
<event>
 7    1  0.6061051E-012  0.5930196E+02  0.7816164E-02  0.1266605E+00
        -11   -1    0    0    0    0  0.00000000000E+00  0.00000000000E+00  0.45593999997E+02  0.45594000000E+02  0.51100000000E-03 0. -1.
         11   -1    0    0    0    0 -0.00000000000E+00 -0.00000000000E+00 -0.45593999997E+02  0.45594000000E+02  0.51100000000E-03 0.  1.
    9900012    2    1    2    0    0  0.12235980209E+01 -0.27075092373E+02 -0.16797679576E+02  0.59301955117E+02  0.50000020224E+02 0.  0.
         12    1    1    2    0    0 -0.12235980209E+01  0.27075092373E+02  0.16797679576E+02  0.31886044883E+02  0.00000000000E+00 0. -1.
         11    1    3    3    0    0  0.64736854328E+01 -0.34466365830E+01  0.93909832022E+01  0.11915471983E+02  0.51100000000E-03 0. -1.
        -11    1    3    3    0    0  0.15583710316E+01 -0.37095340133E+01 -0.26026296650E+02  0.26335475702E+02  0.51100000000E-03 0.  1.
         12    1    3    3    0    0 -0.68084584434E+01 -0.19918921777E+02 -0.16236612858E+00  0.21051007432E+02  0.00000000000E+00 0. -1.
</event>
<event>
 7    1  0.6061051E-012  0.5930194E+02  0.7816164E-02  0.1266605E+00
        -11   -1    0    0    0    0  0.00000000000E+00  0.00000000000E+00  0.45593999997E+02  0.45594000000E+02  0.51100000000E-03 0. -1.
         11   -1    0    0    0    0 -0.00000000000E+00 -0.00000000000E+00 -0.45593999997E+02  0.45594000000E+02  0.51100000000E-03 0.  1.
    9900012    2    1    2    0    0  0.39082524442E+01  0.57253591957E+01 -0.31123412344E+02  0.59301937668E+02  0.49999988402E+02 0.  0.
         12    1    1    2    0    0 -0.39082524442E+01 -0.57253591957E+01  0.31123412344E+02  0.31886062332E+02  0.00000000000E+00 0. -1.
         11    1    3    3    0    0 -0.85797943474E+01  0.61124689952E+01  0.13647062371E+01  0.10622503078E+02  0.51100000000E-03 0. -1.
        -11    1    3    3    0    0 -0.53114948169E+01  0.74349148663E+01 -0.26960074911E+02  0.28466393796E+02  0.51100000000E-03 0.  1.
        -12    1    3    3    0    0  0.17799541609E+02 -0.78220246659E+01 -0.55280436697E+01  0.20213040795E+02  0.00000000000E+00 0.  1.
</event>
<event>
 7    1  0.6061051E-012  0.5930194E+02  0.7816164E-02  0.1266605E+00
        -11   -1    0    0    0    0  0.00000000000E+00  0.00000000000E+00  0.45593999997E+02  0.45594000000E+02  0.51100000000E-03 0.  1.
         11   -1    0    0    0    0 -0.00000000000E+00 -0.00000000000E+00 -0.45593999997E+02  0.45594000000E+02  0.51100000000E-03 0. -1.
    9900012    2    1    2    0    0 -0.23347861707E+02 -0.16563813860E+02  0.14044154744E+02  0.59301939435E+02  0.49999991624E+02 0.  0.
         12    1    1    2    0    0  0.23347861707E+02  0.16563813860E+02 -0.14044154744E+02  0.31886060565E+02  0.00000000000E+00 0. -1.
         11    1    3    3    0    0 -0.16993823645E+02 -0.13330120247E+02  0.12242943603E+02  0.24826836612E+02  0.51100000000E-03 0. -1.
        -11    1    3    3    0    0 -0.17977224054E+02 -0.23230738319E+01 -0.74438599563E+01  0.19595619613E+02  0.51100000000E-03 0.  1.
         12    1    3    3    0    0  0.11623185992E+02 -0.91061978176E+00  0.92450710971E+01  0.14879483209E+02  0.00000000000E+00 0. -1.
</event>
<event>
 7    1  0.6061051E-012  0.5930199E+02  0.7816164E-02  0.1266605E+00
        -11   -1    0    0    0    0  0.00000000000E+00  0.00000000000E+00  0.45593999997E+02  0.45594000000E+02  0.51100000000E-03 0. -1.
         11   -1    0    0    0    0 -0.00000000000E+00 -0.00000000000E+00 -0.45593999997E+02  0.45594000000E+02  0.51100000000E-03 0.  1.
    9900012    2    1    2    0    0  0.29504023098E+01  0.31212707424E+02  0.58120419449E+01  0.59301987234E+02  0.50000078798E+02 0.  0.
         12    1    1    2    0    0 -0.29504023098E+01 -0.31212707424E+02 -0.58120419449E+01  0.31886012766E+02  0.00000000000E+00 0. -1.
         11    1    3    3    0    0 -0.10975345738E+01 -0.72578829679E+01  0.28553072990E+01  0.78761810129E+01  0.51100000000E-03 0. -1.
        -11    1    3    3    0    0  0.16574997413E+02  0.10135915939E+02  0.59035361837E+01  0.20305641357E+02  0.51100000000E-03 0.  1.
         12    1    3    3    0    0 -0.12527060530E+02  0.28334674453E+02 -0.29468015377E+01  0.31120164864E+02  0.00000000000E+00 0. -1.
</event>
<event>
 7    1  0.6061051E-012  0.5930228E+02  0.7816164E-02  0.1266604E+00
        -11   -1    0    0    0    0  0.00000000000E+00  0.00000000000E+00  0.45593999997E+02  0.45594000000E+02  0.51100000000E-03 0.  1.
         11   -1    0    0    0    0 -0.00000000000E+00 -0.00000000000E+00 -0.45593999997E+02  0.45594000000E+02  0.51100000000E-03 0. -1.
    9900012    2    1    2    0    0 -0.28988663575E+02  0.46709216112E+01  0.12431372574E+02  0.59302279863E+02  0.50000612480E+02 0.  0.
         12    1    1    2    0    0  0.28988663575E+02 -0.46709216112E+01 -0.12431372574E+02  0.31885720137E+02  0.00000000000E+00 0. -1.
         11    1    3    3    0    0 -0.63005923445E+01 -0.22939936307E+01  0.17324448250E+02  0.18576769851E+02  0.51100000000E-03 0. -1.
        -11    1    3    3    0    0 -0.25489983923E+02  0.55999424078E+01  0.81298432776E+01  0.27334831028E+02  0.51100000000E-03 0.  1.
         12    1    3    3    0    0  0.28019126926E+01  0.13649728341E+01 -0.13022918954E+02  0.13390678984E+02  0.00000000000E+00 0. -1.
</event>
<event>
 7    1  0.6061051E-012  0.5930196E+02  0.7816164E-02  0.1266605E+00
        -11   -1    0    0    0    0  0.00000000000E+00  0.00000000000E+00  0.45593999997E+02  0.45594000000E+02  0.51100000000E-03 0. -1.
         11   -1    0    0    0    0 -0.00000000000E+00 -0.00000000000E+00 -0.45593999997E+02  0.45594000000E+02  0.51100000000E-03 0.  1.
    9900012    2    1    2    0    0 -0.20450944666E+02  0.75802316884E+01 -0.23259802654E+02  0.59301961210E+02  0.50000031337E+02 0.  0.
         12    1    1    2    0    0  0.20450944666E+02 -0.75802316884E+01  0.23259802654E+02  0.31886038790E+02  0.00000000000E+00 0. -1.
         11    1    3    3    0    0 -0.58634417376E+01 -0.57909881558E+01 -0.15875836902E+02  0.17887361192E+02  0.51100000000E-03 0. -1.
        -11    1    3    3    0    0 -0.23400899357E+02 -0.15166187340E+01 -0.42144167389E+01  0.23825690584E+02  0.51100000000E-03 0.  1.
         12    1    3    3    0    0  0.88133964282E+01  0.14887838578E+02 -0.31695490132E+01  0.17588909434E+02  0.00000000000E+00 0. -1.
</event>
<event>
 7    1  0.6061051E-012  0.5930196E+02  0.7816164E-02  0.1266605E+00
        -11   -1    0    0    0    0  0.00000000000E+00  0.00000000000E+00  0.45593999997E+02  0.45594000000E+02  0.51100000000E-03 0. -1.
         11   -1    0    0    0    0 -0.00000000000E+00 -0.00000000000E+00 -0.45593999997E+02  0.45594000000E+02  0.51100000000E-03 0.  1.
    9900012    2    1    2    0    0  0.45734778440E+01  0.25149072896E+02 -0.19061141925E+02  0.59301957621E+02  0.50000024791E+02 0.  0.
         12    1    1    2    0    0 -0.45734778440E+01 -0.25149072896E+02  0.19061141925E+02  0.31886042379E+02  0.00000000000E+00 0. -1.
         11    1    3    3    0    0 -0.32493911186E+01  0.15684727631E+02 -0.46083580180E+01  0.16667518933E+02  0.51100000000E-03 0. -1.
        -11    1    3    3    0    0 -0.13041883636E+01  0.15250989385E+02 -0.23832608604E+02  0.28324668006E+02  0.51100000000E-03 0.  1.
         12    1    3    3    0    0  0.91270573263E+01 -0.57866441209E+01  0.93798246974E+01  0.14309770682E+02  0.00000000000E+00 0. -1.
</event>
<event>
 7    1  0.6061051E-012  0.5930194E+02  0.7816164E-02  0.1266605E+00
        -11   -1    0    0    0    0  0.00000000000E+00  0.00000000000E+00  0.45593999997E+02  0.45594000000E+02  0.51100000000E-03 0. -1.
         11   -1    0    0    0    0 -0.00000000000E+00 -0.00000000000E+00 -0.45593999997E+02  0.45594000000E+02  0.51100000000E-03 0.  1.
    9900012    2    1    2    0    0  0.23682295405E+02 -0.17627850111E+02 -0.12046921398E+02  0.59301944578E+02  0.50000001004E+02 0.  0.
         12    1    1    2    0    0 -0.23682295405E+02  0.17627850111E+02  0.12046921398E+02  0.31886055422E+02  0.00000000000E+00 0. -1.
         11    1    3    3    0    0  0.12709459497E+02 -0.44310863365E+01 -0.16590699850E+01  0.13561614959E+02  0.51100000000E-03 0. -1.
        -11    1    3    3    0    0  0.20956769578E+02 -0.21624242955E+02 -0.12314645716E+02  0.32533745157E+02  0.51100000000E-03 0.  1.
         12    1    3    3    0    0 -0.99839336703E+01  0.84274791805E+01  0.19267943025E+01  0.13206584462E+02  0.00000000000E+00 0. -1.
</event>
<event>
 7    1  0.6061051E-012  0.5930195E+02  0.7816164E-02  0.1266605E+00
        -11   -1    0    0    0    0  0.00000000000E+00  0.00000000000E+00  0.45593999997E+02  0.45594000000E+02  0.51100000000E-03 0.  1.
         11   -1    0    0    0    0 -0.00000000000E+00 -0.00000000000E+00 -0.45593999997E+02  0.45594000000E+02  0.51100000000E-03 0. -1.
    9900012    2    1    2    0    0 -0.30905658919E+02 -0.33250539665E+01  0.71066526119E+01  0.59301948999E+02  0.50000009066E+02 0.  0.
         12    1    1    2    0    0  0.30905658919E+02  0.33250539665E+01 -0.71066526119E+01  0.31886051001E+02  0.00000000000E+00 0. -1.
         11    1    3    3    0    0  0.73540127864E+01 -0.14567210255E+01  0.73594259344E+01  0.10505460035E+02  0.51100000000E-03 0. -1.
        -11    1    3    3    0    0 -0.16878015276E+02 -0.26749779726E+01  0.14823175994E+02  0.22621879976E+02  0.51100000000E-03 0.  1.
        -12    1    3    3    0    0 -0.21381656429E+02  0.80664503166E+00 -0.15075949317E+02  0.26174608988E+02  0.00000000000E+00 0.  1.
</event>
<event>
 7    1  0.6061051E-012  0.5930203E+02  0.7816164E-02  0.1266604E+00
        -11   -1    0    0    0    0  0.00000000000E+00  0.00000000000E+00  0.45593999997E+02  0.45594000000E+02  0.51100000000E-03 0. -1.
         11   -1    0    0    0    0 -0.00000000000E+00 -0.00000000000E+00 -0.45593999997E+02  0.45594000000E+02  0.51100000000E-03 0.  1.
    9900012    2    1    2    0    0  0.92179331447E+01  0.11510584941E+02 -0.28271033554E+02  0.59302028236E+02  0.50000153575E+02 0.  0.
         12    1    1    2    0    0 -0.92179331447E+01 -0.11510584941E+02  0.28271033554E+02  0.31885971764E+02  0.00000000000E+00 0. -1.
         11    1    3    3    0    0  0.91842313355E+01  0.11121890959E+01  0.74115927477E+01  0.11854061630E+02  0.51100000000E-03 0. -1.
        -11    1    3    3    0    0  0.68741161915E+01  0.17005420106E+02 -0.11978253353E+02  0.21906992948E+02  0.51100000000E-03 0.  1.
        -12    1    3    3    0    0 -0.68404143823E+01 -0.66070242603E+01 -0.23704372948E+02  0.25540973658E+02  0.00000000000E+00 0.  1.
</event>
<event>
 7    1  0.6061051E-012  0.5930193E+02  0.7816164E-02  0.1266605E+00
        -11   -1    0    0    0    0  0.00000000000E+00  0.00000000000E+00  0.45593999997E+02  0.45594000000E+02  0.51100000000E-03 0.  1.
         11   -1    0    0    0    0 -0.00000000000E+00 -0.00000000000E+00 -0.45593999997E+02  0.45594000000E+02  0.51100000000E-03 0. -1.
    9900012    2    1    2    0    0  0.21968335291E+02  0.10517195402E+02  0.20579171969E+02  0.59301929789E+02  0.49999974031E+02 0.  0.
         12    1    1    2    0    0 -0.21968335291E+02 -0.10517195402E+02 -0.20579171969E+02  0.31886070211E+02  0.00000000000E+00 0. -1.
         11    1    3    3    0    0  0.14035142070E+02 -0.48889914906E+01  0.24188294150E+01  0.15057828088E+02  0.51100000000E-03 0. -1.
        -11    1    3    3    0    0  0.96158498389E+01 -0.76169104771E+01 -0.33233453825E+01  0.12709308326E+02  0.51100000000E-03 0.  1.
        -12    1    3    3    0    0 -0.16826566184E+01  0.23023097370E+02  0.21483687937E+02  0.31534793374E+02  0.00000000000E+00 0.  1.
</event>
<event>
 7    1  0.6061051E-012  0.5930193E+02  0.7816164E-02  0.1266605E+00
        -11   -1    0    0    0    0  0.00000000000E+00  0.00000000000E+00  0.45593999997E+02  0.45594000000E+02  0.51100000000E-03 0.  1.
         11   -1    0    0    0    0 -0.00000000000E+00 -0.00000000000E+00 -0.45593999997E+02  0.45594000000E+02  0.51100000000E-03 0. -1.
    9900012    2    1    2    0    0 -0.32368629804E+01  0.25942901258E+02  0.18254033670E+02  0.59301934817E+02  0.49999983201E+02 0.  0.
         12    1    1    2    0    0  0.32368629804E+01 -0.25942901258E+02 -0.18254033670E+02  0.31886065183E+02  0.00000000000E+00 0. -1.
         11    1    3    3    0    0 -0.17530271853E+01 -0.79314403450E+00  0.20955789211E+02  0.21043936977E+02  0.51100000000E-03 0. -1.
        -11    1    3    3    0    0 -0.71156344002E+01 -0.25386882567E+01  0.25777180815E+01  0.79825949259E+01  0.51100000000E-03 0.  1.
         12    1    3    3    0    0  0.56317986051E+01  0.29274733549E+02 -0.52794736218E+01  0.30275402914E+02  0.00000000000E+00 0. -1.
</event>
<event>
 7    1  0.6061051E-012  0.5930194E+02  0.7816164E-02  0.1266605E+00
        -11   -1    0    0    0    0  0.00000000000E+00  0.00000000000E+00  0.45593999997E+02  0.45594000000E+02  0.51100000000E-03 0. -1.
         11   -1    0    0    0    0 -0.00000000000E+00 -0.00000000000E+00 -0.45593999997E+02  0.45594000000E+02  0.51100000000E-03 0.  1.
    9900012    2    1    2    0    0  0.17293327515E+02  0.26691231440E+02 -0.22890730022E+01  0.59301939291E+02  0.49999991362E+02 0.  0.
         12    1    1    2    0    0 -0.17293327515E+02 -0.26691231440E+02  0.22890730022E+01  0.31886060709E+02  0.00000000000E+00 0. -1.
         11    1    3    3    0    0  0.13764120256E+02  0.72936186315E+01  0.11253007769E+02  0.19216609047E+02  0.51100000000E-03 0. -1.
        -11    1    3    3    0    0  0.90097616162E+01  0.15882737110E+02  0.62103995757E+01  0.19287462395E+02  0.51100000000E-03 0.  1.
         12    1    3    3    0    0 -0.54805543570E+01  0.35148756985E+01 -0.19752480347E+02  0.20797867850E+02  0.00000000000E+00 0. -1.
</event>
<event>
 7    1  0.6061051E-012  0.5930196E+02  0.7816164E-02  0.1266605E+00
        -11   -1    0    0    0    0  0.00000000000E+00  0.00000000000E+00  0.45593999997E+02  0.45594000000E+02  0.51100000000E-03 0. -1.
         11   -1    0    0    0    0 -0.00000000000E+00 -0.00000000000E+00 -0.45593999997E+02  0.45594000000E+02  0.51100000000E-03 0.  1.
    9900012    2    1    2    0    0 -0.32936268509E+00 -0.15112967286E+01 -0.31848506020E+02  0.59301955509E+02  0.50000020940E+02 0.  0.
         12    1    1    2    0    0  0.32936268509E+00  0.15112967286E+01  0.31848506020E+02  0.31886044491E+02  0.00000000000E+00 0. -1.
         11    1    3    3    0    0 -0.38248939512E+01  0.15919071458E+01  0.59108538215E+01  0.72181836538E+01  0.51100000000E-03 0. -1.
        -11    1    3    3    0    0  0.13836604197E+02 -0.70260767450E+01 -0.32628606101E+01  0.15857604792E+02  0.51100000000E-03 0.  1.
         12    1    3    3    0    0 -0.10341072930E+02  0.39228728706E+01 -0.34496499231E+02  0.36226167063E+02  0.00000000000E+00 0. -1.
</event>
<event>
 7    1  0.6061051E-012  0.5930194E+02  0.7816164E-02  0.1266605E+00
        -11   -1    0    0    0    0  0.00000000000E+00  0.00000000000E+00  0.45593999997E+02  0.45594000000E+02  0.51100000000E-03 0. -1.
         11   -1    0    0    0    0 -0.00000000000E+00 -0.00000000000E+00 -0.45593999997E+02  0.45594000000E+02  0.51100000000E-03 0.  1.
    9900012    2    1    2    0    0  0.14512909113E+02  0.24514366186E+02 -0.14322775030E+02  0.59301944035E+02  0.50000000013E+02 0.  0.
         12    1    1    2    0    0 -0.14512909113E+02 -0.24514366186E+02  0.14322775030E+02  0.31886055965E+02  0.00000000000E+00 0. -1.
         11    1    3    3    0    0  0.21171328592E+01 -0.46333945403E+01 -0.30605862503E+01  0.59428768257E+01  0.51100000000E-03 0. -1.
        -11    1    3    3    0    0  0.37657328438E+01  0.29141924223E+02  0.94942833906E+01  0.30879992044E+02  0.51100000000E-03 0.  1.
         12    1    3    3    0    0  0.86300434100E+01  0.58365041332E-02 -0.20756472171E+02  0.22479075166E+02  0.00000000000E+00 0. -1.
</event>
<event>
 7    1  0.6061051E-012  0.5930204E+02  0.7816164E-02  0.1266604E+00
        -11   -1    0    0    0    0  0.00000000000E+00  0.00000000000E+00  0.45593999997E+02  0.45594000000E+02  0.51100000000E-03 0.  1.
         11   -1    0    0    0    0 -0.00000000000E+00 -0.00000000000E+00 -0.45593999997E+02  0.45594000000E+02  0.51100000000E-03 0. -1.
    9900012    2    1    2    0    0  0.22104430629E+02  0.11887287065E+02  0.19667252121E+02  0.59302043010E+02  0.50000180519E+02 0.  0.
         12    1    1    2    0    0 -0.22104430629E+02 -0.11887287065E+02 -0.19667252121E+02  0.31885956990E+02  0.00000000000E+00 0. -1.
         11    1    3    3    0    0  0.67734924201E+01 -0.71114609542E+01  0.30848437785E+01  0.10294140948E+02  0.51100000000E-03 0. -1.
        -11    1    3    3    0    0 -0.48030738696E+01 -0.79313457465E+01  0.11858407662E+02  0.15053159020E+02  0.51100000000E-03 0.  1.
         12    1    3    3    0    0  0.20134012078E+02  0.26930093766E+02  0.47240006812E+01  0.33954743042E+02  0.00000000000E+00 0. -1.
</event>
<event>
 7    1  0.6061051E-012  0.5930193E+02  0.7816164E-02  0.1266605E+00
        -11   -1    0    0    0    0  0.00000000000E+00  0.00000000000E+00  0.45593999997E+02  0.45594000000E+02  0.51100000000E-03 0.  1.
         11   -1    0    0    0    0 -0.00000000000E+00 -0.00000000000E+00 -0.45593999997E+02  0.45594000000E+02  0.51100000000E-03 0. -1.
    9900012    2    1    2    0    0 -0.10204544604E+02 -0.29971593681E+02 -0.37804822746E+01  0.59301934005E+02  0.49999981722E+02 0.  0.
         12    1    1    2    0    0  0.10204544604E+02  0.29971593681E+02  0.37804822746E+01  0.31886065995E+02  0.00000000000E+00 0. -1.
         11    1    3    3    0    0  0.73505750631E+01 -0.82250120315E+01 -0.14229471931E+01  0.11122344881E+02  0.51100000000E-03 0. -1.
        -11    1    3    3    0    0  0.28215082629E+01  0.77534958755E+01 -0.84524131332E+01  0.11811896342E+02  0.51100000000E-03 0.  1.
        -12    1    3    3    0    0 -0.20376627930E+02 -0.29500077526E+02  0.60948780517E+01  0.36367692782E+02  0.00000000000E+00 0.  1.
</event>
<event>
 7    1  0.6061051E-012  0.5930189E+02  0.7816164E-02  0.1266605E+00
        -11   -1    0    0    0    0  0.00000000000E+00  0.00000000000E+00  0.45593999997E+02  0.45594000000E+02  0.51100000000E-03 0. -1.
         11   -1    0    0    0    0 -0.00000000000E+00 -0.00000000000E+00 -0.45593999997E+02  0.45594000000E+02  0.51100000000E-03 0.  1.
    9900012    2    1    2    0    0  0.91110084886E+01 -0.26624099535E+02 -0.14995694918E+02  0.59301889892E+02  0.49999901269E+02 0.  0.
         12    1    1    2    0    0 -0.91110084886E+01  0.26624099535E+02  0.14995694918E+02  0.31886110108E+02  0.00000000000E+00 0. -1.
         11    1    3    3    0    0 -0.15113829154E+02 -0.24869816741E+02  0.24885729346E-01  0.29102168922E+02  0.51100000000E-03 0. -1.
        -11    1    3    3    0    0  0.33410978266E+01  0.17848709839E+01 -0.61774538445E+01  0.72463532469E+01  0.51100000000E-03 0.  1.
        -12    1    3    3    0    0  0.20883739816E+02 -0.35391537781E+01 -0.88431268027E+01  0.22953367723E+02  0.00000000000E+00 0.  1.
</event>
<event>
 7    1  0.6061051E-012  0.5930192E+02  0.7816164E-02  0.1266605E+00
        -11   -1    0    0    0    0  0.00000000000E+00  0.00000000000E+00  0.45593999997E+02  0.45594000000E+02  0.51100000000E-03 0. -1.
         11   -1    0    0    0    0 -0.00000000000E+00 -0.00000000000E+00 -0.45593999997E+02  0.45594000000E+02  0.51100000000E-03 0.  1.
    9900012    2    1    2    0    0 -0.56717797610E+01  0.31295272580E+02  0.22712859695E+01  0.59301922921E+02  0.49999961507E+02 0.  0.
         12    1    1    2    0    0  0.56717797610E+01 -0.31295272580E+02 -0.22712859695E+01  0.31886077079E+02  0.00000000000E+00 0. -1.
         11    1    3    3    0    0 -0.22654106583E+02  0.87709283421E+01  0.88129967287E-01  0.24292910411E+02  0.51100000000E-03 0. -1.
        -11    1    3    3    0    0 -0.11279476623E+01  0.14382092648E+02 -0.24153240068E+01  0.14627051828E+02  0.51100000000E-03 0.  1.
        -12    1    3    3    0    0  0.18110274485E+02  0.81422515900E+01  0.45984800091E+01  0.20381960682E+02  0.00000000000E+00 0.  1.
</event>
<event>
 7    1  0.6061051E-012  0.5930195E+02  0.7816164E-02  0.1266605E+00
        -11   -1    0    0    0    0  0.00000000000E+00  0.00000000000E+00  0.45593999997E+02  0.45594000000E+02  0.51100000000E-03 0. -1.
         11   -1    0    0    0    0 -0.00000000000E+00 -0.00000000000E+00 -0.45593999997E+02  0.45594000000E+02  0.51100000000E-03 0.  1.
    9900012    2    1    2    0    0  0.81076661179E+01 -0.29804698120E+02 -0.79161755558E+01  0.59301951087E+02  0.50000012874E+02 0.  0.
         12    1    1    2    0    0 -0.81076661179E+01  0.29804698120E+02  0.79161755558E+01  0.31886048913E+02  0.00000000000E+00 0. -1.
         11    1    3    3    0    0 -0.43657311353E+01 -0.16626560998E+02  0.63981975109E+01  0.18342275503E+02  0.51100000000E-03 0.  1.
        -11    1    3    3    0    0 -0.90076668087E+01 -0.99104713719E+01 -0.13793284832E+02  0.19225249306E+02  0.51100000000E-03 0. -1.
        -12    1    3    3    0    0  0.21481064062E+02 -0.32676657499E+01 -0.52108823431E+00  0.21734426278E+02  0.00000000000E+00 0.  1.
</event>
<event>
 7    1  0.6061051E-012  0.5930191E+02  0.7816164E-02  0.1266605E+00
        -11   -1    0    0    0    0  0.00000000000E+00  0.00000000000E+00  0.45593999997E+02  0.45594000000E+02  0.51100000000E-03 0.  1.
         11   -1    0    0    0    0 -0.00000000000E+00 -0.00000000000E+00 -0.45593999997E+02  0.45594000000E+02  0.51100000000E-03 0. -1.
    9900012    2    1    2    0    0 -0.31256534263E+02 -0.50243713365E+01  0.38088556297E+01  0.59301911769E+02  0.49999941168E+02 0.  0.
         12    1    1    2    0    0  0.31256534263E+02  0.50243713365E+01 -0.38088556297E+01  0.31886088231E+02  0.00000000000E+00 0. -1.
         11    1    3    3    0    0 -0.21183324794E+02  0.39922128872E+01  0.11859740695E+02  0.24603342510E+02  0.51100000000E-03 0. -1.
        -11    1    3    3    0    0 -0.17548178361E+02  0.38920418851E+01 -0.50461088639E+00  0.17981690305E+02  0.51100000000E-03 0.  1.
         12    1    3    3    0    0  0.74749688925E+01 -0.12908626109E+02 -0.75462741789E+01  0.16716878953E+02  0.00000000000E+00 0. -1.
</event>
<event>
 7    1  0.6061051E-012  0.5930193E+02  0.7816164E-02  0.1266605E+00
        -11   -1    0    0    0    0  0.00000000000E+00  0.00000000000E+00  0.45593999997E+02  0.45594000000E+02  0.51100000000E-03 0. -1.
         11   -1    0    0    0    0 -0.00000000000E+00 -0.00000000000E+00 -0.45593999997E+02  0.45594000000E+02  0.51100000000E-03 0.  1.
    9900012    2    1    2    0    0  0.11389816388E+02  0.88546057923E+01 -0.28435702863E+02  0.59301934730E+02  0.49999983043E+02 0.  0.
         12    1    1    2    0    0 -0.11389816388E+02 -0.88546057923E+01  0.28435702863E+02  0.31886065270E+02  0.00000000000E+00 0. -1.
         11    1    3    3    0    0  0.26388474500E+00  0.20589828235E+01 -0.46942281734E+01  0.51327208994E+01  0.51100000000E-03 0. -1.
        -11    1    3    3    0    0  0.27437481615E+02  0.31097133670E+00 -0.24234444176E+02  0.36609020546E+02  0.51100000000E-03 0.  1.
         12    1    3    3    0    0 -0.16311549972E+02  0.64846516320E+01  0.49296948656E+00  0.17560193285E+02  0.00000000000E+00 0. -1.
</event>
<event>
 7    1  0.6061051E-012  0.5930182E+02  0.7816164E-02  0.1266605E+00
        -11   -1    0    0    0    0  0.00000000000E+00  0.00000000000E+00  0.45593999997E+02  0.45594000000E+02  0.51100000000E-03 0.  1.
         11   -1    0    0    0    0 -0.00000000000E+00 -0.00000000000E+00 -0.45593999997E+02  0.45594000000E+02  0.51100000000E-03 0. -1.
    9900012    2    1    2    0    0  0.26313255706E+02  0.17989834959E+02  0.84074628980E+00  0.59301820517E+02  0.49999774745E+02 0.  0.
         12    1    1    2    0    0 -0.26313255706E+02 -0.17989834959E+02 -0.84074628980E+00  0.31886179483E+02  0.00000000000E+00 0. -1.
         11    1    3    3    0    0 -0.66335571458E+01  0.22436582230E+02 -0.40303092560E+01  0.23741265668E+02  0.51100000000E-03 0. -1.
        -11    1    3    3    0    0  0.10377293089E+02 -0.24640750253E-01 -0.36992490929E+01  0.11016953442E+02  0.51100000000E-03 0.  1.
        -12    1    3    3    0    0  0.22569519763E+02 -0.44221065210E+01  0.85703046387E+01  0.24543601407E+02  0.00000000000E+00 0.  1.
</event>
<event>
 7    1  0.6061051E-012  0.5930194E+02  0.7816164E-02  0.1266605E+00
        -11   -1    0    0    0    0  0.00000000000E+00  0.00000000000E+00  0.45593999997E+02  0.45594000000E+02  0.51100000000E-03 0.  1.
         11   -1    0    0    0    0 -0.00000000000E+00 -0.00000000000E+00 -0.45593999997E+02  0.45594000000E+02  0.51100000000E-03 0. -1.
    9900012    2    1    2    0    0  0.20420549088E+02  0.78701237092E+01  0.23190146949E+02  0.59301943678E+02  0.49999999362E+02 0.  0.
         12    1    1    2    0    0 -0.20420549088E+02 -0.78701237092E+01 -0.23190146949E+02  0.31886056322E+02  0.00000000000E+00 0. -1.
         11    1    3    3    0    0 -0.49402807959E+01 -0.13746660189E+02  0.17379051616E+01  0.14710450547E+02  0.51100000000E-03 0. -1.
        -11    1    3    3    0    0  0.44388216007E+01  0.12584009141E+01 -0.38119921043E+01  0.59848136251E+01  0.51100000000E-03 0.  1.
         12    1    3    3    0    0  0.20922008284E+02  0.20358382984E+02  0.25264233891E+02  0.38606679506E+02  0.00000000000E+00 0. -1.
</event>
<event>
 7    1  0.6061051E-012  0.5930198E+02  0.7816164E-02  0.1266605E+00
        -11   -1    0    0    0    0  0.00000000000E+00  0.00000000000E+00  0.45593999997E+02  0.45594000000E+02  0.51100000000E-03 0.  1.
         11   -1    0    0    0    0 -0.00000000000E+00 -0.00000000000E+00 -0.45593999997E+02  0.45594000000E+02  0.51100000000E-03 0. -1.
    9900012    2    1    2    0    0  0.28094609946E+02 -0.12623156297E+02  0.82502679169E+01  0.59301982632E+02  0.50000070404E+02 0.  0.
         12    1    1    2    0    0 -0.28094609946E+02  0.12623156297E+02 -0.82502679169E+01  0.31886017368E+02  0.00000000000E+00 0. -1.
         11    1    3    3    0    0  0.34952906894E+01 -0.41158495776E+01 -0.13330086877E+01  0.55618510562E+01  0.51100000000E-03 0. -1.
        -11    1    3    3    0    0  0.37136883530E+02 -0.12510179007E+01  0.15827620753E+01  0.37191642881E+02  0.51100000000E-03 0.  1.
         12    1    3    3    0    0 -0.12537564274E+02 -0.72562888184E+01  0.80005145293E+01  0.16548488694E+02  0.00000000000E+00 0. -1.
</event>
<event>
 7    1  0.6061051E-012  0.5930196E+02  0.7816164E-02  0.1266605E+00
        -11   -1    0    0    0    0  0.00000000000E+00  0.00000000000E+00  0.45593999997E+02  0.45594000000E+02  0.51100000000E-03 0.  1.
         11   -1    0    0    0    0 -0.00000000000E+00 -0.00000000000E+00 -0.45593999997E+02  0.45594000000E+02  0.51100000000E-03 0. -1.
    9900012    2    1    2    0    0  0.23763074887E+02  0.21122467865E+02  0.24243445269E+01  0.59301955667E+02  0.50000021227E+02 0.  0.
         12    1    1    2    0    0 -0.23763074887E+02 -0.21122467865E+02 -0.24243445269E+01  0.31886044333E+02  0.00000000000E+00 0. -1.
         11    1    3    3    0    0 -0.96013515995E+01 -0.89318221056E+00 -0.59906943063E+00  0.96613980066E+01  0.51100000000E-03 0. -1.
        -11    1    3    3    0    0 -0.41131304738E+01  0.84666314323E+01  0.26823710514E+01  0.97875842180E+01  0.51100000000E-03 0.  1.
        -12    1    3    3    0    0  0.37477556961E+02  0.13549018644E+02  0.34104290615E+00  0.39852973442E+02  0.00000000000E+00 0.  1.
</event>
<event>
 7    1  0.6061051E-012  0.5930196E+02  0.7816164E-02  0.1266605E+00
        -11   -1    0    0    0    0  0.00000000000E+00  0.00000000000E+00  0.45593999997E+02  0.45594000000E+02  0.51100000000E-03 0.  1.
         11   -1    0    0    0    0 -0.00000000000E+00 -0.00000000000E+00 -0.45593999997E+02  0.45594000000E+02  0.51100000000E-03 0. -1.
    9900012    2    1    2    0    0 -0.10504016675E+02 -0.29382844541E+02 -0.65600148159E+01  0.59301957380E+02  0.50000024351E+02 0.  0.
         12    1    1    2    0    0  0.10504016675E+02  0.29382844541E+02  0.65600148159E+01  0.31886042620E+02  0.00000000000E+00 0. -1.
         11    1    3    3    0    0 -0.11215654486E+02 -0.20563288221E+02 -0.17760236738E+02  0.29394995106E+02  0.51100000000E-03 0.  1.
        -11    1    3    3    0    0  0.72892916422E+01  0.56066639886E+01 -0.18398197432E+01  0.93783469052E+01  0.51100000000E-03 0. -1.
        -12    1    3    3    0    0 -0.65776538309E+01 -0.14426220308E+02  0.13040041666E+02  0.20528615368E+02  0.00000000000E+00 0.  1.
</event>
<event>
 7    1  0.6061051E-012  0.5930200E+02  0.7816164E-02  0.1266605E+00
        -11   -1    0    0    0    0  0.00000000000E+00  0.00000000000E+00  0.45593999997E+02  0.45594000000E+02  0.51100000000E-03 0.  1.
         11   -1    0    0    0    0 -0.00000000000E+00 -0.00000000000E+00 -0.45593999997E+02  0.45594000000E+02  0.51100000000E-03 0. -1.
    9900012    2    1    2    0    0 -0.17626546594E+02 -0.26570099770E+02 -0.22743378141E+00  0.59301998797E+02  0.50000099886E+02 0.  0.
         12    1    1    2    0    0  0.17626546594E+02  0.26570099770E+02  0.22743378141E+00  0.31886001203E+02  0.00000000000E+00 0. -1.
         11    1    3    3    0    0 -0.15773326390E+02 -0.15913951490E+02 -0.73282331008E+01  0.23574449687E+02  0.51100000000E-03 0. -1.
        -11    1    3    3    0    0 -0.66324157826E+01  0.64125624576E+01  0.13950413137E+02  0.16724949128E+02  0.51100000000E-03 0.  1.
         12    1    3    3    0    0  0.47791955789E+01 -0.17068710738E+02 -0.68496138172E+01  0.19002599982E+02  0.00000000000E+00 0. -1.
</event>
<event>
 7    1  0.6061051E-012  0.5930195E+02  0.7816164E-02  0.1266605E+00
        -11   -1    0    0    0    0  0.00000000000E+00  0.00000000000E+00  0.45593999997E+02  0.45594000000E+02  0.51100000000E-03 0.  1.
         11   -1    0    0    0    0 -0.00000000000E+00 -0.00000000000E+00 -0.45593999997E+02  0.45594000000E+02  0.51100000000E-03 0. -1.
    9900012    2    1    2    0    0  0.14111252233E+02 -0.27047024742E+02 -0.92763672147E+01  0.59301953276E+02  0.50000016866E+02 0.  0.
         12    1    1    2    0    0 -0.14111252233E+02  0.27047024742E+02  0.92763672147E+01  0.31886046724E+02  0.00000000000E+00 0. -1.
         11    1    3    3    0    0  0.11809314092E+02  0.65520958763E+01  0.29605132741E+01  0.13825863402E+02  0.51100000000E-03 0.  1.
        -11    1    3    3    0    0 -0.96468512684E+01 -0.32525120431E+01 -0.72140814696E+01  0.12477321255E+02  0.51100000000E-03 0. -1.
        -12    1    3    3    0    0  0.11948789410E+02 -0.30346608575E+02 -0.50227990191E+01  0.32998768619E+02  0.00000000000E+00 0.  1.
</event>
<event>
 7    1  0.6061051E-012  0.5930191E+02  0.7816164E-02  0.1266605E+00
        -11   -1    0    0    0    0  0.00000000000E+00  0.00000000000E+00  0.45593999997E+02  0.45594000000E+02  0.51100000000E-03 0.  1.
         11   -1    0    0    0    0 -0.00000000000E+00 -0.00000000000E+00 -0.45593999997E+02  0.45594000000E+02  0.51100000000E-03 0. -1.
    9900012    2    1    2    0    0 -0.10688806904E+02 -0.30013039141E+02  0.12998867950E+01  0.59301908719E+02  0.49999935605E+02 0.  0.
         12    1    1    2    0    0  0.10688806904E+02  0.30013039141E+02 -0.12998867950E+01  0.31886091281E+02  0.00000000000E+00 0. -1.
         11    1    3    3    0    0  0.91957761371E+01 -0.95832653425E+01  0.14368151323E+02  0.19566426503E+02  0.51100000000E-03 0.  1.
        -11    1    3    3    0    0 -0.14392263025E+02  0.18431607817E+01 -0.38447653498E+01  0.15010552871E+02  0.51100000000E-03 0. -1.
        -12    1    3    3    0    0 -0.54923200162E+01 -0.22272934580E+02 -0.92234991786E+01  0.24724929344E+02  0.00000000000E+00 0.  1.
</event>
<event>
 7    1  0.6061051E-012  0.5930198E+02  0.7816164E-02  0.1266605E+00
        -11   -1    0    0    0    0  0.00000000000E+00  0.00000000000E+00  0.45593999997E+02  0.45594000000E+02  0.51100000000E-03 0.  1.
         11   -1    0    0    0    0 -0.00000000000E+00 -0.00000000000E+00 -0.45593999997E+02  0.45594000000E+02  0.51100000000E-03 0. -1.
    9900012    2    1    2    0    0  0.18482828671E+01 -0.52847545996E+01  0.31390663541E+02  0.59301975816E+02  0.50000057974E+02 0.  0.
         12    1    1    2    0    0 -0.18482828671E+01  0.52847545996E+01 -0.31390663541E+02  0.31886024184E+02  0.00000000000E+00 0. -1.
         11    1    3    3    0    0 -0.96303805237E+01 -0.11226257983E+02  0.16568833823E+02  0.22210343353E+02  0.51100000000E-03 0. -1.
        -11    1    3    3    0    0 -0.25631421112E+01  0.45301112977E+01 -0.84210600204E+01  0.98997908049E+01  0.51100000000E-03 0.  1.
        -12    1    3    3    0    0  0.14041805502E+02  0.14113920859E+01  0.23242889738E+02  0.27191841658E+02  0.00000000000E+00 0.  1.
</event>
<event>
 7    1  0.6061051E-012  0.5930196E+02  0.7816164E-02  0.1266605E+00
        -11   -1    0    0    0    0  0.00000000000E+00  0.00000000000E+00  0.45593999997E+02  0.45594000000E+02  0.51100000000E-03 0.  1.
         11   -1    0    0    0    0 -0.00000000000E+00 -0.00000000000E+00 -0.45593999997E+02  0.45594000000E+02  0.51100000000E-03 0. -1.
    9900012    2    1    2    0    0  0.16360200904E+02  0.11533952580E+02  0.24819972270E+02  0.59301964511E+02  0.50000037356E+02 0.  0.
         12    1    1    2    0    0 -0.16360200904E+02 -0.11533952580E+02 -0.24819972270E+02  0.31886035489E+02  0.00000000000E+00 0. -1.
         11    1    3    3    0    0  0.10696031236E+01 -0.52953387728E+01  0.57445178752E+01  0.78856927052E+01  0.51100000000E-03 0. -1.
        -11    1    3    3    0    0 -0.31339027183E+01  0.76953872147E+01  0.27846389188E+02  0.29059623564E+02  0.51100000000E-03 0.  1.
         12    1    3    3    0    0  0.18424500499E+02  0.91339041376E+01 -0.87709347933E+01  0.22356648241E+02  0.00000000000E+00 0. -1.
</event>
<event>
 7    1  0.6061051E-012  0.5930195E+02  0.7816164E-02  0.1266605E+00
        -11   -1    0    0    0    0  0.00000000000E+00  0.00000000000E+00  0.45593999997E+02  0.45594000000E+02  0.51100000000E-03 0.  1.
         11   -1    0    0    0    0 -0.00000000000E+00 -0.00000000000E+00 -0.45593999997E+02  0.45594000000E+02  0.51100000000E-03 0. -1.
    9900012    2    1    2    0    0  0.17578836390E+02 -0.22205111865E+02  0.14650525364E+02  0.59301947011E+02  0.50000005441E+02 0.  0.
         12    1    1    2    0    0 -0.17578836390E+02  0.22205111865E+02 -0.14650525364E+02  0.31886052989E+02  0.00000000000E+00 0. -1.
         11    1    3    3    0    0 -0.80001181525E+01 -0.74462364189E+01 -0.11031165121E+01  0.10984770984E+02  0.51100000000E-03 0. -1.
        -11    1    3    3    0    0  0.91555207168E+01  0.76632329951E+01 -0.56774975070E+01  0.13220539994E+02  0.51100000000E-03 0.  1.
        -12    1    3    3    0    0  0.16423433826E+02 -0.22422108441E+02  0.21431139384E+02  0.35096636033E+02  0.00000000000E+00 0.  1.
</event>
<event>
 7    1  0.6061051E-012  0.5930191E+02  0.7816164E-02  0.1266605E+00
        -11   -1    0    0    0    0  0.00000000000E+00  0.00000000000E+00  0.45593999997E+02  0.45594000000E+02  0.51100000000E-03 0.  1.
         11   -1    0    0    0    0 -0.00000000000E+00 -0.00000000000E+00 -0.45593999997E+02  0.45594000000E+02  0.51100000000E-03 0. -1.
    9900012    2    1    2    0    0  0.15392195215E+02 -0.85024465154E+01  0.26599092611E+02  0.59301905884E+02  0.49999930434E+02 0.  0.
         12    1    1    2    0    0 -0.15392195215E+02  0.85024465154E+01 -0.26599092611E+02  0.31886094116E+02  0.00000000000E+00 0. -1.
         11    1    3    3    0    0  0.12414547423E+02 -0.11947941103E+02  0.92825762181E+01  0.19571420639E+02  0.51100000000E-03 0.  1.
        -11    1    3    3    0    0 -0.13467134102E+02 -0.24040995406E+01 -0.18533032998E+01  0.13805003763E+02  0.51100000000E-03 0. -1.
         12    1    3    3    0    0  0.16444781893E+02  0.58495941278E+01  0.19169819693E+02  0.25925481481E+02  0.00000000000E+00 0. -1.
</event>
<event>
 7    1  0.6061051E-012  0.5930196E+02  0.7816164E-02  0.1266605E+00
        -11   -1    0    0    0    0  0.00000000000E+00  0.00000000000E+00  0.45593999997E+02  0.45594000000E+02  0.51100000000E-03 0.  1.
         11   -1    0    0    0    0 -0.00000000000E+00 -0.00000000000E+00 -0.45593999997E+02  0.45594000000E+02  0.51100000000E-03 0. -1.
    9900012    2    1    2    0    0 -0.40257706036E+01 -0.17606629793E+02  0.26277738407E+02  0.59301956385E+02  0.50000022537E+02 0.  0.
         12    1    1    2    0    0  0.40257706036E+01  0.17606629793E+02 -0.26277738407E+02  0.31886043615E+02  0.00000000000E+00 0. -1.
         11    1    3    3    0    0  0.50081660087E+01  0.28256469685E+00 -0.21079955822E+01  0.54410674701E+01  0.51100000000E-03 0. -1.
        -11    1    3    3    0    0 -0.16075120875E+02 -0.20160411101E+02  0.13378451482E+01  0.25819401945E+02  0.51100000000E-03 0.  1.
         12    1    3    3    0    0  0.70411842624E+01  0.22712166117E+01  0.27047888841E+02  0.28041486970E+02  0.00000000000E+00 0. -1.
</event>
<event>
 7    1  0.6061051E-012  0.5930190E+02  0.7816164E-02  0.1266605E+00
        -11   -1    0    0    0    0  0.00000000000E+00  0.00000000000E+00  0.45593999997E+02  0.45594000000E+02  0.51100000000E-03 0.  1.
         11   -1    0    0    0    0 -0.00000000000E+00 -0.00000000000E+00 -0.45593999997E+02  0.45594000000E+02  0.51100000000E-03 0. -1.
    9900012    2    1    2    0    0  0.11852735450E+02 -0.29397088435E+02  0.34708789097E+01  0.59301903555E+02  0.49999926188E+02 0.  0.
         12    1    1    2    0    0 -0.11852735450E+02  0.29397088435E+02 -0.34708789097E+01  0.31886096445E+02  0.00000000000E+00 0. -1.
         11    1    3    3    0    0 -0.17847709379E+01  0.89113694310E+01 -0.21879839737E+01  0.93480044162E+01  0.51100000000E-03 0. -1.
        -11    1    3    3    0    0  0.11808849905E+02 -0.10151857598E+02 -0.91767821113E+01  0.18075466217E+02  0.51100000000E-03 0.  1.
        -12    1    3    3    0    0  0.18286564827E+01 -0.28156600267E+02  0.14835644995E+02  0.31878432922E+02  0.00000000000E+00 0.  1.
</event>
<event>
 7    1  0.6061051E-012  0.5930192E+02  0.7816164E-02  0.1266605E+00
        -11   -1    0    0    0    0  0.00000000000E+00  0.00000000000E+00  0.45593999997E+02  0.45594000000E+02  0.51100000000E-03 0. -1.
         11   -1    0    0    0    0 -0.00000000000E+00 -0.00000000000E+00 -0.45593999997E+02  0.45594000000E+02  0.51100000000E-03 0.  1.
    9900012    2    1    2    0    0 -0.29838108827E+02 -0.95219531703E+01  0.59784663120E+01  0.59301915418E+02  0.49999947822E+02 0.  0.
         12    1    1    2    0    0  0.29838108827E+02  0.95219531703E+01 -0.59784663120E+01  0.31886084582E+02  0.00000000000E+00 0. -1.
         11    1    3    3    0    0  0.12302328029E+01  0.12853378072E+01  0.10295180095E+02  0.10447789215E+02  0.51100000000E-03 0. -1.
        -11    1    3    3    0    0  0.53491064688E+01  0.20102969166E+01 -0.82621708160E+01  0.10045780237E+02  0.51100000000E-03 0.  1.
        -12    1    3    3    0    0 -0.36417448099E+02 -0.12817587894E+02  0.39454570330E+01  0.38808345966E+02  0.00000000000E+00 0.  1.
</event>
<event>
 7    1  0.6061051E-012  0.5930191E+02  0.7816164E-02  0.1266605E+00
        -11   -1    0    0    0    0  0.00000000000E+00  0.00000000000E+00  0.45593999997E+02  0.45594000000E+02  0.51100000000E-03 0.  1.
         11   -1    0    0    0    0 -0.00000000000E+00 -0.00000000000E+00 -0.45593999997E+02  0.45594000000E+02  0.51100000000E-03 0. -1.
    9900012    2    1    2    0    0 -0.31786191261E+02  0.25132270908E+01 -0.21116337659E+00  0.59301908122E+02  0.49999934517E+02 0.  0.
         12    1    1    2    0    0  0.31786191261E+02 -0.25132270908E+01  0.21116337659E+00  0.31886091878E+02  0.00000000000E+00 0. -1.
         11    1    3    3    0    0  0.49238942846E+01  0.97020689136E+01  0.65566020505E+00  0.10899759937E+02  0.51100000000E-03 0. -1.
        -11    1    3    3    0    0 -0.90055191201E+01  0.46807013820E+01  0.11925446581E+02  0.15659649309E+02  0.51100000000E-03 0.  1.
        -12    1    3    3    0    0 -0.27704566425E+02 -0.11869543205E+02 -0.12792270163E+02  0.32742498876E+02  0.00000000000E+00 0.  1.
</event>
<event>
 7    1  0.6061051E-012  0.5930193E+02  0.7816164E-02  0.1266605E+00
        -11   -1    0    0    0    0  0.00000000000E+00  0.00000000000E+00  0.45593999997E+02  0.45594000000E+02  0.51100000000E-03 0.  1.
         11   -1    0    0    0    0 -0.00000000000E+00 -0.00000000000E+00 -0.45593999997E+02  0.45594000000E+02  0.51100000000E-03 0. -1.
    9900012    2    1    2    0    0  0.27397515920E+02 -0.15296830557E+02  0.56661008708E+01  0.59301927762E+02  0.49999970335E+02 0.  0.
         12    1    1    2    0    0 -0.27397515920E+02  0.15296830557E+02 -0.56661008708E+01  0.31886072238E+02  0.00000000000E+00 0. -1.
         11    1    3    3    0    0  0.17218012760E+02 -0.17280267922E+01  0.14775243160E+02  0.22754205122E+02  0.51100000000E-03 0. -1.
        -11    1    3    3    0    0  0.16602903240E+02 -0.18708378796E+02 -0.10557712091E+01  0.25035464571E+02  0.51100000000E-03 0.  1.
         12    1    3    3    0    0 -0.64234000805E+01  0.51395750307E+01 -0.80533710806E+01  0.11512258069E+02  0.00000000000E+00 0. -1.
</event>
<event>
 7    1  0.6061051E-012  0.5930197E+02  0.7816164E-02  0.1266605E+00
        -11   -1    0    0    0    0  0.00000000000E+00  0.00000000000E+00  0.45593999997E+02  0.45594000000E+02  0.51100000000E-03 0. -1.
         11   -1    0    0    0    0 -0.00000000000E+00 -0.00000000000E+00 -0.45593999997E+02  0.45594000000E+02  0.51100000000E-03 0.  1.
    9900012    2    1    2    0    0 -0.22037691888E+02  0.18422618558E+01 -0.22970961217E+02  0.59301970900E+02  0.50000049009E+02 0.  0.
         12    1    1    2    0    0  0.22037691888E+02 -0.18422618558E+01  0.22970961217E+02  0.31886029100E+02  0.00000000000E+00 0. -1.
         11    1    3    3    0    0 -0.38297818593E+01  0.69038199172E+01 -0.14032101447E+02  0.16100615822E+02  0.51100000000E-03 0. -1.
        -11    1    3    3    0    0  0.56503789968E+01  0.24218433939E+00 -0.16640985840E+02  0.17575774408E+02  0.51100000000E-03 0.  1.
         12    1    3    3    0    0 -0.23858289026E+02 -0.53037424008E+01  0.77021260701E+01  0.25625580670E+02  0.00000000000E+00 0. -1.
</event>
<event>
 7    1  0.6061051E-012  0.5930194E+02  0.7816164E-02  0.1266605E+00
        -11   -1    0    0    0    0  0.00000000000E+00  0.00000000000E+00  0.45593999997E+02  0.45594000000E+02  0.51100000000E-03 0. -1.
         11   -1    0    0    0    0 -0.00000000000E+00 -0.00000000000E+00 -0.45593999997E+02  0.45594000000E+02  0.51100000000E-03 0.  1.
    9900012    2    1    2    0    0  0.24512370755E+02 -0.45103574631E+01  0.19887717155E+02  0.59301938184E+02  0.49999989343E+02 0.  0.
         12    1    1    2    0    0 -0.24512370755E+02  0.45103574631E+01 -0.19887717155E+02  0.31886061816E+02  0.00000000000E+00 0. -1.
         11    1    3    3    0    0 -0.40125921177E+01 -0.74472873050E+01  0.20531454766E+00  0.84619819210E+01  0.51100000000E-03 0. -1.
        -11    1    3    3    0    0  0.29078095004E+02 -0.23243303831E+01 -0.13011044234E+01  0.29199845783E+02  0.51100000000E-03 0.  1.
        -12    1    3    3    0    0 -0.55313213077E+00  0.52612602250E+01  0.20983507030E+02  0.21640110480E+02  0.00000000000E+00 0.  1.
</event>
<event>
 7    1  0.6061051E-012  0.5930194E+02  0.7816164E-02  0.1266605E+00
        -11   -1    0    0    0    0  0.00000000000E+00  0.00000000000E+00  0.45593999997E+02  0.45594000000E+02  0.51100000000E-03 0.  1.
         11   -1    0    0    0    0 -0.00000000000E+00 -0.00000000000E+00 -0.45593999997E+02  0.45594000000E+02  0.51100000000E-03 0. -1.
    9900012    2    1    2    0    0  0.10910808172E+02  0.22336525248E+02  0.19968836050E+02  0.59301944924E+02  0.50000001635E+02 0.  0.
         12    1    1    2    0    0 -0.10910808172E+02 -0.22336525248E+02 -0.19968836050E+02  0.31886055076E+02  0.00000000000E+00 0. -1.
         11    1    3    3    0    0  0.21997499904E+02  0.65821705022E+01  0.46834555909E+01  0.23433943908E+02  0.51100000000E-03 0. -1.
        -11    1    3    3    0    0  0.44610046634E+01  0.56981179287E+01 -0.46955573603E+01  0.86265502793E+01  0.51100000000E-03 0.  1.
        -12    1    3    3    0    0 -0.15547696395E+02  0.10056236817E+02  0.19980937819E+02  0.27241450737E+02  0.00000000000E+00 0.  1.
</event>
<event>
 7    1  0.6061051E-012  0.5930193E+02  0.7816164E-02  0.1266605E+00
        -11   -1    0    0    0    0  0.00000000000E+00  0.00000000000E+00  0.45593999997E+02  0.45594000000E+02  0.51100000000E-03 0. -1.
         11   -1    0    0    0    0 -0.00000000000E+00 -0.00000000000E+00 -0.45593999997E+02  0.45594000000E+02  0.51100000000E-03 0.  1.
    9900012    2    1    2    0    0 -0.38844189846E+01  0.11165541864E+02 -0.29613571807E+02  0.59301926690E+02  0.49999968380E+02 0.  0.
         12    1    1    2    0    0  0.38844189846E+01 -0.11165541864E+02  0.29613571807E+02  0.31886073310E+02  0.00000000000E+00 0. -1.
         11    1    3    3    0    0  0.49303262847E+01  0.55069327995E+01 -0.84292484314E+01  0.11211005999E+02  0.51100000000E-03 0.  1.
        -11    1    3    3    0    0 -0.29161668424E+01  0.14240430074E+02 -0.30710883558E+02  0.33977231301E+02  0.51100000000E-03 0. -1.
         12    1    3    3    0    0 -0.58985784269E+01 -0.85818210088E+01  0.95265601822E+01  0.14113689390E+02  0.00000000000E+00 0. -1.
</event>
<event>
 7    1  0.6061051E-012  0.5930198E+02  0.7816164E-02  0.1266605E+00
        -11   -1    0    0    0    0  0.00000000000E+00  0.00000000000E+00  0.45593999997E+02  0.45594000000E+02  0.51100000000E-03 0. -1.
         11   -1    0    0    0    0 -0.00000000000E+00 -0.00000000000E+00 -0.45593999997E+02  0.45594000000E+02  0.51100000000E-03 0.  1.
    9900012    2    1    2    0    0  0.12031957937E+02 -0.29260539710E+02  0.39712466477E+01  0.59301984321E+02  0.50000073485E+02 0.  0.
         12    1    1    2    0    0 -0.12031957937E+02  0.29260539710E+02 -0.39712466477E+01  0.31886015679E+02  0.00000000000E+00 0. -1.
         11    1    3    3    0    0  0.21854962065E+01 -0.75050271797E+01  0.67263759908E+01  0.10312417799E+02  0.51100000000E-03 0. -1.
        -11    1    3    3    0    0  0.21347951593E+02  0.27333305599E+01  0.16187971442E+01  0.21583017343E+02  0.51100000000E-03 0.  1.
         12    1    3    3    0    0 -0.11501489863E+02 -0.24488843090E+02 -0.43739264873E+01  0.27406549179E+02  0.00000000000E+00 0. -1.
</event>
<event>
 7    1  0.6061051E-012  0.5930195E+02  0.7816164E-02  0.1266605E+00
        -11   -1    0    0    0    0  0.00000000000E+00  0.00000000000E+00  0.45593999997E+02  0.45594000000E+02  0.51100000000E-03 0.  1.
         11   -1    0    0    0    0 -0.00000000000E+00 -0.00000000000E+00 -0.45593999997E+02  0.45594000000E+02  0.51100000000E-03 0. -1.
    9900012    2    1    2    0    0  0.14912818511E+02  0.25531940101E+02  0.11935173164E+02  0.59301945373E+02  0.50000002453E+02 0.  0.
         12    1    1    2    0    0 -0.14912818511E+02 -0.25531940101E+02 -0.11935173164E+02  0.31886054627E+02  0.00000000000E+00 0. -1.
         11    1    3    3    0    0  0.78054159391E+01  0.19576604568E+02  0.13362611220E+02  0.24954505470E+02  0.51100000000E-03 0. -1.
        -11    1    3    3    0    0 -0.32187856746E+01  0.14371162930E+02  0.91493737618E+01  0.17337876042E+02  0.51100000000E-03 0.  1.
         12    1    3    3    0    0  0.10326188246E+02 -0.84158273966E+01 -0.10576811818E+02  0.17009563860E+02  0.00000000000E+00 0. -1.
</event>
<event>
 7    1  0.6061051E-012  0.5930193E+02  0.7816164E-02  0.1266605E+00
        -11   -1    0    0    0    0  0.00000000000E+00  0.00000000000E+00  0.45593999997E+02  0.45594000000E+02  0.51100000000E-03 0. -1.
         11   -1    0    0    0    0 -0.00000000000E+00 -0.00000000000E+00 -0.45593999997E+02  0.45594000000E+02  0.51100000000E-03 0.  1.
    9900012    2    1    2    0    0  0.11865091507E+02  0.14478804199E+02 -0.25812892642E+02  0.59301927899E+02  0.49999970585E+02 0.  0.
         12    1    1    2    0    0 -0.11865091507E+02 -0.14478804199E+02  0.25812892642E+02  0.31886072101E+02  0.00000000000E+00 0. -1.
         11    1    3    3    0    0 -0.37741524206E+00  0.32498104378E+01  0.51851196625E+01  0.61310012495E+01  0.51100000000E-03 0. -1.
        -11    1    3    3    0    0  0.22105991300E+02  0.28980779851E+01 -0.32035176967E+01  0.22524125583E+02  0.51100000000E-03 0.  1.
        -12    1    3    3    0    0 -0.98634845510E+01  0.83309157758E+01 -0.27794494607E+02  0.30646801067E+02  0.00000000000E+00 0.  1.
</event>
<event>
 7    1  0.6061051E-012  0.5930193E+02  0.7816164E-02  0.1266605E+00
        -11   -1    0    0    0    0  0.00000000000E+00  0.00000000000E+00  0.45593999997E+02  0.45594000000E+02  0.51100000000E-03 0.  1.
         11   -1    0    0    0    0 -0.00000000000E+00 -0.00000000000E+00 -0.45593999997E+02  0.45594000000E+02  0.51100000000E-03 0. -1.
    9900012    2    1    2    0    0  0.39277020376E+01  0.21993294753E+02  0.22750597773E+02  0.59301928489E+02  0.49999971661E+02 0.  0.
         12    1    1    2    0    0 -0.39277020376E+01 -0.21993294753E+02 -0.22750597773E+02  0.31886071511E+02  0.00000000000E+00 0. -1.
         11    1    3    3    0    0  0.39598541043E+01 -0.14164127419E+02  0.54298346077E+01  0.15677565314E+02  0.51100000000E-03 0. -1.
        -11    1    3    3    0    0  0.40093286758E+01  0.48532371686E+00  0.85496426056E+00  0.41281012207E+01  0.51100000000E-03 0.  1.
        -12    1    3    3    0    0 -0.40414807424E+01  0.35672098455E+02  0.16465798905E+02  0.39496261954E+02  0.00000000000E+00 0.  1.
</event>
<event>
 7    1  0.6061051E-012  0.5930194E+02  0.7816164E-02  0.1266605E+00
        -11   -1    0    0    0    0  0.00000000000E+00  0.00000000000E+00  0.45593999997E+02  0.45594000000E+02  0.51100000000E-03 0.  1.
         11   -1    0    0    0    0 -0.00000000000E+00 -0.00000000000E+00 -0.45593999997E+02  0.45594000000E+02  0.51100000000E-03 0. -1.
    9900012    2    1    2    0    0  0.25015158944E+02 -0.13751232933E+02  0.14207956543E+02  0.59301943278E+02  0.49999998633E+02 0.  0.
         12    1    1    2    0    0 -0.25015158944E+02  0.13751232933E+02 -0.14207956543E+02  0.31886056722E+02  0.00000000000E+00 0. -1.
         11    1    3    3    0    0 -0.76606222546E+01  0.10092533163E+00 -0.42865341821E+00  0.76732693986E+01  0.51100000000E-03 0. -1.
        -11    1    3    3    0    0  0.25119200884E+02  0.49313845525E+01  0.17741132666E+02  0.31145474714E+02  0.51100000000E-03 0.  1.
        -12    1    3    3    0    0  0.75565803143E+01 -0.18783542817E+02 -0.31045227048E+01  0.20483199165E+02  0.00000000000E+00 0.  1.
</event>
<event>
 7    1  0.6061051E-012  0.5930194E+02  0.7816164E-02  0.1266605E+00
        -11   -1    0    0    0    0  0.00000000000E+00  0.00000000000E+00  0.45593999997E+02  0.45594000000E+02  0.51100000000E-03 0. -1.
         11   -1    0    0    0    0 -0.00000000000E+00 -0.00000000000E+00 -0.45593999997E+02  0.45594000000E+02  0.51100000000E-03 0.  1.
    9900012    2    1    2    0    0 -0.64165891052E+01  0.30352281903E+02 -0.73679901855E+01  0.59301938596E+02  0.49999990094E+02 0.  0.
         12    1    1    2    0    0  0.64165891052E+01 -0.30352281903E+02  0.73679901855E+01  0.31886061404E+02  0.00000000000E+00 0. -1.
         11    1    3    3    0    0  0.17338857678E+02  0.15378110686E+02 -0.47152612848E+01  0.23650707454E+02  0.51100000000E-03 0. -1.
        -11    1    3    3    0    0 -0.16043300029E+01 -0.52777400224E+01 -0.87436568478E+00  0.55850631254E+01  0.51100000000E-03 0.  1.
        -12    1    3    3    0    0 -0.22151116780E+02  0.20251911239E+02 -0.17783632159E+01  0.30066168016E+02  0.00000000000E+00 0.  1.
</event>
<event>
 7    1  0.6061051E-012  0.5930186E+02  0.7816164E-02  0.1266605E+00
        -11   -1    0    0    0    0  0.00000000000E+00  0.00000000000E+00  0.45593999997E+02  0.45594000000E+02  0.51100000000E-03 0.  1.
         11   -1    0    0    0    0 -0.00000000000E+00 -0.00000000000E+00 -0.45593999997E+02  0.45594000000E+02  0.51100000000E-03 0. -1.
    9900012    2    1    2    0    0 -0.17936816612E+02 -0.73186657104E+01  0.25326538906E+02  0.59301861461E+02  0.49999849418E+02 0.  0.
         12    1    1    2    0    0  0.17936816612E+02  0.73186657104E+01 -0.25326538906E+02  0.31886138539E+02  0.00000000000E+00 0. -1.
         11    1    3    3    0    0  0.10388707043E+02  0.47294576051E+01  0.24252015072E+02  0.26803978036E+02  0.51100000000E-03 0.  1.
        -11    1    3    3    0    0 -0.92012698877E+01  0.22271447274E+00 -0.23989476191E+01  0.95114625175E+01  0.51100000000E-03 0. -1.
        -12    1    3    3    0    0 -0.19124253768E+02 -0.12270837788E+02  0.34734714530E+01  0.22986420907E+02  0.00000000000E+00 0.  1.
</event>
<event>
 7    1  0.6061051E-012  0.5930198E+02  0.7816164E-02  0.1266605E+00
        -11   -1    0    0    0    0  0.00000000000E+00  0.00000000000E+00  0.45593999997E+02  0.45594000000E+02  0.51100000000E-03 0.  1.
         11   -1    0    0    0    0 -0.00000000000E+00 -0.00000000000E+00 -0.45593999997E+02  0.45594000000E+02  0.51100000000E-03 0. -1.
    9900012    2    1    2    0    0  0.31308382743E+02  0.25094781162E+01 -0.54959836884E+01  0.59301981950E+02  0.50000069160E+02 0.  0.
         12    1    1    2    0    0 -0.31308382743E+02 -0.25094781162E+01  0.54959836884E+01  0.31886018050E+02  0.00000000000E+00 0. -1.
         11    1    3    3    0    0 -0.51226500568E+01  0.16180126765E+01  0.91381234757E+01  0.10600226863E+02  0.51100000000E-03 0. -1.
        -11    1    3    3    0    0  0.27518640482E+02  0.13731931667E+02 -0.84673680772E+01  0.31898869004E+02  0.51100000000E-03 0.  1.
        -12    1    3    3    0    0  0.89123923179E+01 -0.12840466227E+02 -0.61667390868E+01  0.16802886083E+02  0.00000000000E+00 0.  1.
</event>
<event>
 7    1  0.6061051E-012  0.5930197E+02  0.7816164E-02  0.1266605E+00
        -11   -1    0    0    0    0  0.00000000000E+00  0.00000000000E+00  0.45593999997E+02  0.45594000000E+02  0.51100000000E-03 0.  1.
         11   -1    0    0    0    0 -0.00000000000E+00 -0.00000000000E+00 -0.45593999997E+02  0.45594000000E+02  0.51100000000E-03 0. -1.
    9900012    2    1    2    0    0 -0.16282409867E+02  0.46268903159E+00  0.27411461703E+02  0.59301965676E+02  0.50000039481E+02 0.  0.
         12    1    1    2    0    0  0.16282409867E+02 -0.46268903159E+00 -0.27411461703E+02  0.31886034324E+02  0.00000000000E+00 0. -1.
         11    1    3    3    0    0  0.12098040222E+02  0.54776071534E+01  0.41459293673E+01  0.13912422072E+02  0.51100000000E-03 0. -1.
        -11    1    3    3    0    0 -0.74027555431E+01  0.14913497839E+01  0.22145386923E+02  0.23397501492E+02  0.51100000000E-03 0.  1.
         12    1    3    3    0    0 -0.20977694546E+02 -0.65062679056E+01  0.11201454125E+01  0.21992042112E+02  0.00000000000E+00 0. -1.
</event>
<event>
 7    1  0.6061051E-012  0.5930195E+02  0.7816164E-02  0.1266605E+00
        -11   -1    0    0    0    0  0.00000000000E+00  0.00000000000E+00  0.45593999997E+02  0.45594000000E+02  0.51100000000E-03 0.  1.
         11   -1    0    0    0    0 -0.00000000000E+00 -0.00000000000E+00 -0.45593999997E+02  0.45594000000E+02  0.51100000000E-03 0. -1.
    9900012    2    1    2    0    0 -0.14689499923E+02 -0.13789468505E+02  0.24714152890E+02  0.59301949716E+02  0.50000010375E+02 0.  0.
         12    1    1    2    0    0  0.14689499923E+02  0.13789468505E+02 -0.24714152890E+02  0.31886050284E+02  0.00000000000E+00 0. -1.
         11    1    3    3    0    0 -0.94908076762E+01 -0.17988759644E+02  0.73559626071E+01  0.21628247502E+02  0.51100000000E-03 0. -1.
        -11    1    3    3    0    0 -0.15097016102E+02 -0.84258144867E+01  0.10489573670E+02  0.20222398498E+02  0.51100000000E-03 0.  1.
        -12    1    3    3    0    0  0.98983238553E+01  0.12625105626E+02  0.68686166126E+01  0.17451303716E+02  0.00000000000E+00 0.  1.
</event>
<event>
 7    1  0.6061051E-012  0.5930188E+02  0.7816164E-02  0.1266605E+00
        -11   -1    0    0    0    0  0.00000000000E+00  0.00000000000E+00  0.45593999997E+02  0.45594000000E+02  0.51100000000E-03 0.  1.
         11   -1    0    0    0    0 -0.00000000000E+00 -0.00000000000E+00 -0.45593999997E+02  0.45594000000E+02  0.51100000000E-03 0. -1.
    9900012    2    1    2    0    0  0.95089878613E+00 -0.29468346373E+02  0.12142356556E+02  0.59301882814E+02  0.49999888361E+02 0.  0.
         12    1    1    2    0    0 -0.95089878613E+00  0.29468346373E+02 -0.12142356556E+02  0.31886117186E+02  0.00000000000E+00 0. -1.
         11    1    3    3    0    0 -0.34506907373E+01 -0.23477632495E+02  0.82007199358E+01  0.25106937325E+02  0.51100000000E-03 0.  1.
        -11    1    3    3    0    0 -0.14621929547E+01 -0.17463744748E+02 -0.53342087178E+01  0.18318683680E+02  0.51100000000E-03 0. -1.
         12    1    3    3    0    0  0.58637824781E+01  0.11473030869E+02  0.92758453384E+01  0.15876261809E+02  0.00000000000E+00 0. -1.
</event>
<event>
 7    1  0.6061051E-012  0.5930197E+02  0.7816164E-02  0.1266605E+00
        -11   -1    0    0    0    0  0.00000000000E+00  0.00000000000E+00  0.45593999997E+02  0.45594000000E+02  0.51100000000E-03 0.  1.
         11   -1    0    0    0    0 -0.00000000000E+00 -0.00000000000E+00 -0.45593999997E+02  0.45594000000E+02  0.51100000000E-03 0. -1.
    9900012    2    1    2    0    0 -0.19898615682E+02  0.17095949717E+02  0.18124362498E+02  0.59301969850E+02  0.50000047093E+02 0.  0.
         12    1    1    2    0    0  0.19898615682E+02 -0.17095949717E+02 -0.18124362498E+02  0.31886030150E+02  0.00000000000E+00 0. -1.
         11    1    3    3    0    0 -0.26553589198E+02  0.24723110000E+02  0.47550439978E+01  0.36591470469E+02  0.51100000000E-03 0.  1.
        -11    1    3    3    0    0 -0.37261165438E+01 -0.70324793830E+01  0.59446357453E+01  0.99337004774E+01  0.51100000000E-03 0. -1.
        -12    1    3    3    0    0  0.10381090060E+02 -0.59468089973E+00  0.74246827553E+01  0.12776798904E+02  0.00000000000E+00 0.  1.
</event>
<event>
 7    1  0.6061051E-012  0.5930193E+02  0.7816164E-02  0.1266605E+00
        -11   -1    0    0    0    0  0.00000000000E+00  0.00000000000E+00  0.45593999997E+02  0.45594000000E+02  0.51100000000E-03 0.  1.
         11   -1    0    0    0    0 -0.00000000000E+00 -0.00000000000E+00 -0.45593999997E+02  0.45594000000E+02  0.51100000000E-03 0. -1.
    9900012    2    1    2    0    0 -0.16507033423E+02  0.26242369591E+02 -0.74550414604E+01  0.59301925338E+02  0.49999965915E+02 0.  0.
         12    1    1    2    0    0  0.16507033423E+02 -0.26242369591E+02  0.74550414604E+01  0.31886074662E+02  0.00000000000E+00 0. -1.
         11    1    3    3    0    0 -0.21807418225E+02  0.21734612240E+02 -0.13120870939E+02  0.33468105912E+02  0.51100000000E-03 0. -1.
        -11    1    3    3    0    0 -0.44538505060E+01  0.11573197943E+02  0.60192796853E+01  0.13784318015E+02  0.51100000000E-03 0.  1.
         12    1    3    3    0    0  0.97542353087E+01 -0.70654405918E+01 -0.35345020704E+00  0.12049501411E+02  0.00000000000E+00 0. -1.
</event>
<event>
 7    1  0.6061051E-012  0.5930193E+02  0.7816164E-02  0.1266605E+00
        -11   -1    0    0    0    0  0.00000000000E+00  0.00000000000E+00  0.45593999997E+02  0.45594000000E+02  0.51100000000E-03 0. -1.
         11   -1    0    0    0    0 -0.00000000000E+00 -0.00000000000E+00 -0.45593999997E+02  0.45594000000E+02  0.51100000000E-03 0.  1.
    9900012    2    1    2    0    0  0.30668739014E+02  0.86370440206E+01  0.12454926783E+01  0.59301931974E+02  0.49999978017E+02 0.  0.
         12    1    1    2    0    0 -0.30668739014E+02 -0.86370440206E+01 -0.12454926783E+01  0.31886068026E+02  0.00000000000E+00 0. -1.
         11    1    3    3    0    0  0.39266687461E+01 -0.12250792274E+02 -0.81489657904E+01  0.15228469474E+02  0.51100000000E-03 0. -1.
        -11    1    3    3    0    0  0.25409670385E+02  0.80849096616E+01 -0.21919274461E+01  0.26754843664E+02  0.51100000000E-03 0.  1.
        -12    1    3    3    0    0  0.13323998831E+01  0.12802926633E+02  0.11586385915E+02  0.17318618836E+02  0.00000000000E+00 0.  1.
</event>
<event>
 7    1  0.6061051E-012  0.5930197E+02  0.7816164E-02  0.1266605E+00
        -11   -1    0    0    0    0  0.00000000000E+00  0.00000000000E+00  0.45593999997E+02  0.45594000000E+02  0.51100000000E-03 0.  1.
         11   -1    0    0    0    0 -0.00000000000E+00 -0.00000000000E+00 -0.45593999997E+02  0.45594000000E+02  0.51100000000E-03 0. -1.
    9900012    2    1    2    0    0  0.12954175370E+02 -0.26536786404E+02  0.12029420948E+02  0.59301973899E+02  0.50000054478E+02 0.  0.
         12    1    1    2    0    0 -0.12954175370E+02  0.26536786404E+02 -0.12029420948E+02  0.31886026101E+02  0.00000000000E+00 0. -1.
         11    1    3    3    0    0  0.79935721970E+01 -0.36249146058E+01 -0.60718032069E+01  0.10672581544E+02  0.51100000000E-03 0. -1.
        -11    1    3    3    0    0  0.49756555932E+01 -0.18114233205E+02 -0.91949351855E+01  0.20914813567E+02  0.51100000000E-03 0.  1.
         12    1    3    3    0    0 -0.15052420702E-01 -0.47976385929E+01  0.27296159341E+02  0.27714578788E+02  0.00000000000E+00 0. -1.
</event>
<event>
 7    1  0.6061051E-012  0.5930188E+02  0.7816164E-02  0.1266605E+00
        -11   -1    0    0    0    0  0.00000000000E+00  0.00000000000E+00  0.45593999997E+02  0.45594000000E+02  0.51100000000E-03 0.  1.
         11   -1    0    0    0    0 -0.00000000000E+00 -0.00000000000E+00 -0.45593999997E+02  0.45594000000E+02  0.51100000000E-03 0. -1.
    9900012    2    1    2    0    0 -0.62969507649E+00  0.31876275127E+02  0.48091969732E+00  0.59301878950E+02  0.49999881313E+02 0.  0.
         12    1    1    2    0    0  0.62969507649E+00 -0.31876275127E+02 -0.48091969732E+00  0.31886121050E+02  0.00000000000E+00 0. -1.
         11    1    3    3    0    0 -0.15669541342E+02  0.12988588433E+02  0.55556427921E+01  0.21097467204E+02  0.51100000000E-03 0. -1.
        -11    1    3    3    0    0 -0.74991053539E+01 -0.94591312466E+00 -0.29245615383E+01  0.81045908718E+01  0.51100000000E-03 0.  1.
         12    1    3    3    0    0  0.22538951619E+02  0.19833599819E+02 -0.21501615565E+01  0.30099820873E+02  0.00000000000E+00 0. -1.
</event>
<event>
 7    1  0.6061051E-012  0.5930187E+02  0.7816164E-02  0.1266605E+00
        -11   -1    0    0    0    0  0.00000000000E+00  0.00000000000E+00  0.45593999997E+02  0.45594000000E+02  0.51100000000E-03 0.  1.
         11   -1    0    0    0    0 -0.00000000000E+00 -0.00000000000E+00 -0.45593999997E+02  0.45594000000E+02  0.51100000000E-03 0. -1.
    9900012    2    1    2    0    0 -0.25309629554E+02  0.28990282967E+01  0.19176647617E+02  0.59301866226E+02  0.49999858109E+02 0.  0.
         12    1    1    2    0    0  0.25309629554E+02 -0.28990282967E+01 -0.19176647617E+02  0.31886133774E+02  0.00000000000E+00 0. -1.
         11    1    3    3    0    0  0.32729999618E+01 -0.68003864173E+01 -0.58377432052E+01  0.95413327248E+01  0.51100000000E-03 0. -1.
        -11    1    3    3    0    0 -0.13783905407E+02 -0.56288693886E+00 -0.50703036227E+01  0.14697648419E+02  0.51100000000E-03 0.  1.
        -12    1    3    3    0    0 -0.14798724109E+02  0.10262301653E+02  0.30084694445E+02  0.35062885082E+02  0.00000000000E+00 0.  1.
</event>
<event>
 7    1  0.6061051E-012  0.5930189E+02  0.7816164E-02  0.1266605E+00
        -11   -1    0    0    0    0  0.00000000000E+00  0.00000000000E+00  0.45593999997E+02  0.45594000000E+02  0.51100000000E-03 0.  1.
         11   -1    0    0    0    0 -0.00000000000E+00 -0.00000000000E+00 -0.45593999997E+02  0.45594000000E+02  0.51100000000E-03 0. -1.
    9900012    2    1    2    0    0 -0.31035303777E+02 -0.69179849849E+01  0.23822989411E+01  0.59301891033E+02  0.49999903350E+02 0.  0.
         12    1    1    2    0    0  0.31035303777E+02  0.69179849849E+01 -0.23822989411E+01  0.31886108967E+02  0.00000000000E+00 0. -1.
         11    1    3    3    0    0 -0.17047149400E+02  0.71811411141E+01 -0.16678643348E+02  0.24906851157E+02  0.51100000000E-03 0. -1.
        -11    1    3    3    0    0  0.22581061262E+01  0.22008601265E+01  0.85149697961E+01  0.90800627455E+01  0.51100000000E-03 0.  1.
        -12    1    3    3    0    0 -0.16246260503E+02 -0.16299986226E+02  0.10545972493E+02  0.25314977130E+02  0.00000000000E+00 0.  1.
</event>
<event>
 7    1  0.6061051E-012  0.5930194E+02  0.7816164E-02  0.1266605E+00
        -11   -1    0    0    0    0  0.00000000000E+00  0.00000000000E+00  0.45593999997E+02  0.45594000000E+02  0.51100000000E-03 0. -1.
         11   -1    0    0    0    0 -0.00000000000E+00 -0.00000000000E+00 -0.45593999997E+02  0.45594000000E+02  0.51100000000E-03 0.  1.
    9900012    2    1    2    0    0  0.83195153126E+01  0.22997608065E+02 -0.20460127334E+02  0.59301935296E+02  0.49999984076E+02 0.  0.
         12    1    1    2    0    0 -0.83195153126E+01 -0.22997608065E+02  0.20460127334E+02  0.31886064704E+02  0.00000000000E+00 0. -1.
         11    1    3    3    0    0 -0.10151835433E+02  0.11703574477E+02 -0.50993415040E+01  0.16310631571E+02  0.51100000000E-03 0. -1.
        -11    1    3    3    0    0 -0.82955071108E+01  0.16471129987E+01 -0.11504852116E+02  0.14279007036E+02  0.51100000000E-03 0.  1.
        -12    1    3    3    0    0  0.26766857857E+02  0.96469205892E+01 -0.38559337142E+01  0.28712296689E+02  0.00000000000E+00 0.  1.
</event>
<event>
 7    1  0.6061051E-012  0.5930204E+02  0.7816164E-02  0.1266604E+00
        -11   -1    0    0    0    0  0.00000000000E+00  0.00000000000E+00  0.45593999997E+02  0.45594000000E+02  0.51100000000E-03 0.  1.
         11   -1    0    0    0    0 -0.00000000000E+00 -0.00000000000E+00 -0.45593999997E+02  0.45594000000E+02  0.51100000000E-03 0. -1.
    9900012    2    1    2    0    0  0.20794697196E+02  0.23451293754E+02  0.58593278221E+01  0.59302041762E+02  0.50000178244E+02 0.  0.
         12    1    1    2    0    0 -0.20794697196E+02 -0.23451293754E+02 -0.58593278221E+01  0.31885958238E+02  0.00000000000E+00 0. -1.
         11    1    3    3    0    0 -0.68122541851E+01  0.13369033752E+02 -0.12946555347E+01  0.15060345406E+02  0.51100000000E-03 0. -1.
        -11    1    3    3    0    0  0.45610848961E+01  0.97237123178E+01  0.16237092313E+02  0.19467851544E+02  0.51100000000E-03 0.  1.
         12    1    3    3    0    0  0.23045866485E+02  0.35854768430E+00 -0.90831089565E+01  0.24773844813E+02  0.00000000000E+00 0. -1.
</event>
<event>
 7    1  0.6061051E-012  0.5930193E+02  0.7816164E-02  0.1266605E+00
        -11   -1    0    0    0    0  0.00000000000E+00  0.00000000000E+00  0.45593999997E+02  0.45594000000E+02  0.51100000000E-03 0.  1.
         11   -1    0    0    0    0 -0.00000000000E+00 -0.00000000000E+00 -0.45593999997E+02  0.45594000000E+02  0.51100000000E-03 0. -1.
    9900012    2    1    2    0    0 -0.69310319733E+01 -0.24142851093E+02  0.19641913298E+02  0.59301933747E+02  0.49999981250E+02 0.  0.
         12    1    1    2    0    0  0.69310319733E+01  0.24142851093E+02 -0.19641913298E+02  0.31886066253E+02  0.00000000000E+00 0. -1.
         11    1    3    3    0    0 -0.34437335986E+01  0.20360488862E+01  0.83222818005E+00  0.40862452410E+01  0.51100000000E-03 0. -1.
        -11    1    3    3    0    0 -0.13809410259E+02 -0.11253743055E+02  0.29273763494E+02  0.34268057631E+02  0.51100000000E-03 0.  1.
         12    1    3    3    0    0  0.10322111884E+02 -0.14925156924E+02 -0.10464078376E+02  0.20947630874E+02  0.00000000000E+00 0. -1.
</event>
<event>
 7    1  0.6061051E-012  0.5930194E+02  0.7816164E-02  0.1266605E+00
        -11   -1    0    0    0    0  0.00000000000E+00  0.00000000000E+00  0.45593999997E+02  0.45594000000E+02  0.51100000000E-03 0.  1.
         11   -1    0    0    0    0 -0.00000000000E+00 -0.00000000000E+00 -0.45593999997E+02  0.45594000000E+02  0.51100000000E-03 0. -1.
    9900012    2    1    2    0    0 -0.26801635824E+02  0.13215365782E+01  0.17223428764E+02  0.59301942857E+02  0.49999997865E+02 0.  0.
         12    1    1    2    0    0  0.26801635824E+02 -0.13215365782E+01 -0.17223428764E+02  0.31886057143E+02  0.00000000000E+00 0. -1.
         11    1    3    3    0    0 -0.18238439189E+02  0.60617439356E+01  0.54264497212E+01  0.19970772655E+02  0.51100000000E-03 0. -1.
        -11    1    3    3    0    0  0.87327421604E+01  0.10896910971E+02  0.65847513598E+01  0.15438989769E+02  0.51100000000E-03 0.  1.
         12    1    3    3    0    0 -0.17295938795E+02 -0.15637118329E+02  0.52122276830E+01  0.23892180433E+02  0.00000000000E+00 0. -1.
</event>
<event>
 7    1  0.6061051E-012  0.5930194E+02  0.7816164E-02  0.1266605E+00
        -11   -1    0    0    0    0  0.00000000000E+00  0.00000000000E+00  0.45593999997E+02  0.45594000000E+02  0.51100000000E-03 0. -1.
         11   -1    0    0    0    0 -0.00000000000E+00 -0.00000000000E+00 -0.45593999997E+02  0.45594000000E+02  0.51100000000E-03 0.  1.
    9900012    2    1    2    0    0  0.24916144530E+02 -0.16315300115E+02 -0.11389349725E+02  0.59301944063E+02  0.50000000064E+02 0.  0.
         12    1    1    2    0    0 -0.24916144530E+02  0.16315300115E+02  0.11389349725E+02  0.31886055937E+02  0.00000000000E+00 0. -1.
         11    1    3    3    0    0  0.17910517278E+02 -0.73841757896E+01  0.16589443569E+02  0.25505339038E+02  0.51100000000E-03 0. -1.
        -11    1    3    3    0    0  0.44904077878E+01 -0.74114751183E+00 -0.16457282470E-01  0.45511902661E+01  0.51100000000E-03 0.  1.
         12    1    3    3    0    0  0.25152194643E+01 -0.81899768131E+01 -0.27962336012E+02  0.29245414758E+02  0.00000000000E+00 0. -1.
</event>
<event>
 7    1  0.6061051E-012  0.5930199E+02  0.7816164E-02  0.1266605E+00
        -11   -1    0    0    0    0  0.00000000000E+00  0.00000000000E+00  0.45593999997E+02  0.45594000000E+02  0.51100000000E-03 0. -1.
         11   -1    0    0    0    0 -0.00000000000E+00 -0.00000000000E+00 -0.45593999997E+02  0.45594000000E+02  0.51100000000E-03 0.  1.
    9900012    2    1    2    0    0 -0.22330084330E+02  0.10585651760E+02  0.20150156355E+02  0.59301992246E+02  0.50000087939E+02 0.  0.
         12    1    1    2    0    0  0.22330084330E+02 -0.10585651760E+02 -0.20150156355E+02  0.31886007754E+02  0.00000000000E+00 0. -1.
         11    1    3    3    0    0  0.55265172142E+01 -0.31498859831E+00 -0.54083981918E+01  0.77390168366E+01  0.51100000000E-03 0. -1.
        -11    1    3    3    0    0 -0.24528808776E+02  0.54075946839E+01 -0.94698785242E-01  0.25117991726E+02  0.51100000000E-03 0.  1.
         12    1    3    3    0    0 -0.33277927677E+01  0.54930456747E+01  0.25653253332E+02  0.26444983683E+02  0.00000000000E+00 0. -1.
</event>
<event>
 7    1  0.6061051E-012  0.5930186E+02  0.7816164E-02  0.1266605E+00
        -11   -1    0    0    0    0  0.00000000000E+00  0.00000000000E+00  0.45593999997E+02  0.45594000000E+02  0.51100000000E-03 0.  1.
         11   -1    0    0    0    0 -0.00000000000E+00 -0.00000000000E+00 -0.45593999997E+02  0.45594000000E+02  0.51100000000E-03 0. -1.
    9900012    2    1    2    0    0 -0.19524674258E+02  0.25054775836E+02  0.27876846023E+01  0.59301860653E+02  0.49999847943E+02 0.  0.
         12    1    1    2    0    0  0.19524674258E+02 -0.25054775836E+02 -0.27876846023E+01  0.31886139347E+02  0.00000000000E+00 0. -1.
         11    1    3    3    0    0 -0.75160310365E+00 -0.77983311551E+01  0.95490412958E+00  0.78924469075E+01  0.51100000000E-03 0. -1.
        -11    1    3    3    0    0  0.78941839059E+01 -0.58306052575E+00  0.33942116681E+01  0.86127099235E+01  0.51100000000E-03 0.  1.
        -12    1    3    3    0    0 -0.26667255060E+02  0.33436167516E+02 -0.15614311954E+01  0.42796703822E+02  0.00000000000E+00 0.  1.
</event>
<event>
 7    1  0.6061051E-012  0.5930195E+02  0.7816164E-02  0.1266605E+00
        -11   -1    0    0    0    0  0.00000000000E+00  0.00000000000E+00  0.45593999997E+02  0.45594000000E+02  0.51100000000E-03 0.  1.
         11   -1    0    0    0    0 -0.00000000000E+00 -0.00000000000E+00 -0.45593999997E+02  0.45594000000E+02  0.51100000000E-03 0. -1.
    9900012    2    1    2    0    0 -0.39357497336E+00  0.30730021924E+02  0.84988913101E+01  0.59301948156E+02  0.50000007529E+02 0.  0.
         12    1    1    2    0    0  0.39357497336E+00 -0.30730021924E+02 -0.84988913101E+01  0.31886051844E+02  0.00000000000E+00 0. -1.
         11    1    3    3    0    0 -0.15294259971E+02  0.22372792359E+02  0.39394014846E+01  0.27385673450E+02  0.51100000000E-03 0. -1.
        -11    1    3    3    0    0 -0.45031110997E+01  0.10745092894E+02  0.41315471334E+01  0.12361420341E+02  0.51100000000E-03 0.  1.
        -12    1    3    3    0    0  0.19403796098E+02 -0.23878633290E+01  0.42794269210E+00  0.19554854365E+02  0.00000000000E+00 0.  1.
</event>
<event>
 7    1  0.6061051E-012  0.5930208E+02  0.7816164E-02  0.1266604E+00
        -11   -1    0    0    0    0  0.00000000000E+00  0.00000000000E+00  0.45593999997E+02  0.45594000000E+02  0.51100000000E-03 0.  1.
         11   -1    0    0    0    0 -0.00000000000E+00 -0.00000000000E+00 -0.45593999997E+02  0.45594000000E+02  0.51100000000E-03 0. -1.
    9900012    2    1    2    0    0  0.10021098572E+02 -0.12223471692E+02  0.27692532160E+02  0.59302078119E+02  0.50000244550E+02 0.  0.
         12    1    1    2    0    0 -0.10021098572E+02  0.12223471692E+02 -0.27692532160E+02  0.31885921881E+02  0.00000000000E+00 0. -1.
         11    1    3    3    0    0 -0.44099869038E+01 -0.64336167708E+01 -0.64499559340E+01  0.10121330992E+02  0.51100000000E-03 0. -1.
        -11    1    3    3    0    0  0.62046885309E+01  0.24493370082E+01 -0.50043943194E+01  0.83391470973E+01  0.51100000000E-03 0.  1.
        -12    1    3    3    0    0  0.82263969446E+01 -0.82391919289E+01  0.39146882413E+02  0.40841600030E+02  0.00000000000E+00 0.  1.
</event>
<event>
 7    1  0.6061051E-012  0.5930194E+02  0.7816164E-02  0.1266605E+00
        -11   -1    0    0    0    0  0.00000000000E+00  0.00000000000E+00  0.45593999997E+02  0.45594000000E+02  0.51100000000E-03 0. -1.
         11   -1    0    0    0    0 -0.00000000000E+00 -0.00000000000E+00 -0.45593999997E+02  0.45594000000E+02  0.51100000000E-03 0.  1.
    9900012    2    1    2    0    0  0.94031732199E+01 -0.17712808817E+02 -0.24790265978E+02  0.59301944269E+02  0.50000000440E+02 0.  0.
         12    1    1    2    0    0 -0.94031732199E+01  0.17712808817E+02  0.24790265978E+02  0.31886055731E+02  0.00000000000E+00 0. -1.
         11    1    3    3    0    0 -0.94917098070E+01 -0.96164885826E+01 -0.25808803227E+01  0.13756102327E+02  0.51100000000E-03 0. -1.
        -11    1    3    3    0    0 -0.63629776598E+01  0.51916572721E+01 -0.13329768829E+02  0.15656421278E+02  0.51100000000E-03 0.  1.
        -12    1    3    3    0    0  0.25257860687E+02 -0.13287977506E+02 -0.88796168267E+01  0.29889420665E+02  0.00000000000E+00 0.  1.
</event>
<event>
 7    1  0.6061051E-012  0.5930194E+02  0.7816164E-02  0.1266605E+00
        -11   -1    0    0    0    0  0.00000000000E+00  0.00000000000E+00  0.45593999997E+02  0.45594000000E+02  0.51100000000E-03 0.  1.
         11   -1    0    0    0    0 -0.00000000000E+00 -0.00000000000E+00 -0.45593999997E+02  0.45594000000E+02  0.51100000000E-03 0. -1.
    9900012    2    1    2    0    0  0.10253615732E+02 -0.28258504536E+02 -0.10632087426E+02  0.59301937257E+02  0.49999987653E+02 0.  0.
         12    1    1    2    0    0 -0.10253615732E+02  0.28258504536E+02  0.10632087426E+02  0.31886062743E+02  0.00000000000E+00 0. -1.
         11    1    3    3    0    0  0.57761130873E+00 -0.90294426226E+01 -0.61440494458E+01  0.10936809990E+02  0.51100000000E-03 0. -1.
        -11    1    3    3    0    0 -0.59213823912E+01 -0.28827442968E+02  0.31747608805E+00  0.29431021539E+02  0.51100000000E-03 0.  1.
        -12    1    3    3    0    0  0.15597386814E+02  0.95983810542E+01 -0.48055140684E+01  0.18934105729E+02  0.00000000000E+00 0.  1.
</event>
<event>
 7    1  0.6061051E-012  0.5930193E+02  0.7816164E-02  0.1266605E+00
        -11   -1    0    0    0    0  0.00000000000E+00  0.00000000000E+00  0.45593999997E+02  0.45594000000E+02  0.51100000000E-03 0.  1.
         11   -1    0    0    0    0 -0.00000000000E+00 -0.00000000000E+00 -0.45593999997E+02  0.45594000000E+02  0.51100000000E-03 0. -1.
    9900012    2    1    2    0    0 -0.79297991388E+01 -0.14813568005E+02  0.27099775007E+02  0.59301932245E+02  0.49999978511E+02 0.  0.
         12    1    1    2    0    0  0.79297991388E+01  0.14813568005E+02 -0.27099775007E+02  0.31886067755E+02  0.00000000000E+00 0. -1.
         11    1    3    3    0    0  0.63713458789E+01 -0.56978206797E+01  0.62783115832E+01  0.10605489400E+02  0.51100000000E-03 0. -1.
        -11    1    3    3    0    0  0.17086082261E+01  0.10000806601E+02  0.21476982466E+02  0.23752815641E+02  0.51100000000E-03 0.  1.
         12    1    3    3    0    0 -0.16009753244E+02 -0.19116553926E+02 -0.65551904236E+00  0.24943627205E+02  0.00000000000E+00 0. -1.
</event>
<event>
 7    1  0.6061051E-012  0.5930195E+02  0.7816164E-02  0.1266605E+00
        -11   -1    0    0    0    0  0.00000000000E+00  0.00000000000E+00  0.45593999997E+02  0.45594000000E+02  0.51100000000E-03 0.  1.
         11   -1    0    0    0    0 -0.00000000000E+00 -0.00000000000E+00 -0.45593999997E+02  0.45594000000E+02  0.51100000000E-03 0. -1.
    9900012    2    1    2    0    0  0.10145149302E+02  0.25144162245E+02  0.16779958837E+02  0.59301953398E+02  0.50000017089E+02 0.  0.
         12    1    1    2    0    0 -0.10145149302E+02 -0.25144162245E+02 -0.16779958837E+02  0.31886046602E+02  0.00000000000E+00 0. -1.
         11    1    3    3    0    0 -0.40735178945E+01 -0.22062133889E+00  0.80466465574E+01  0.90216818217E+01  0.51100000000E-03 0. -1.
        -11    1    3    3    0    0  0.19638371676E+02  0.30508929191E+02  0.16183324322E+02  0.39728584028E+02  0.51100000000E-03 0.  1.
         12    1    3    3    0    0 -0.54197044804E+01 -0.51441456072E+01 -0.74500120429E+01  0.10551687549E+02  0.00000000000E+00 0. -1.
</event>
<event>
 7    1  0.6061051E-012  0.5930195E+02  0.7816164E-02  0.1266605E+00
        -11   -1    0    0    0    0  0.00000000000E+00  0.00000000000E+00  0.45593999997E+02  0.45594000000E+02  0.51100000000E-03 0.  1.
         11   -1    0    0    0    0 -0.00000000000E+00 -0.00000000000E+00 -0.45593999997E+02  0.45594000000E+02  0.51100000000E-03 0. -1.
    9900012    2    1    2    0    0 -0.46626390604E+01  0.13327621132E+02  0.28589416665E+02  0.59301946100E+02  0.50000003780E+02 0.  0.
         12    1    1    2    0    0  0.46626390604E+01 -0.13327621132E+02 -0.28589416665E+02  0.31886053900E+02  0.00000000000E+00 0. -1.
         11    1    3    3    0    0 -0.81394078254E+01  0.11016335775E+02  0.19436173971E+02  0.23777604433E+02  0.51100000000E-03 0. -1.
        -11    1    3    3    0    0 -0.97808336281E+01 -0.75426267349E+01  0.13645998043E+02  0.18405683562E+02  0.51100000000E-03 0.  1.
         12    1    3    3    0    0  0.13257602393E+02  0.98539120918E+01 -0.44927553490E+01  0.17118658106E+02  0.00000000000E+00 0. -1.
</event>
<event>
 7    1  0.6061051E-012  0.5930197E+02  0.7816164E-02  0.1266605E+00
        -11   -1    0    0    0    0  0.00000000000E+00  0.00000000000E+00  0.45593999997E+02  0.45594000000E+02  0.51100000000E-03 0.  1.
         11   -1    0    0    0    0 -0.00000000000E+00 -0.00000000000E+00 -0.45593999997E+02  0.45594000000E+02  0.51100000000E-03 0. -1.
    9900012    2    1    2    0    0 -0.21512784881E+01  0.18018522060E+02  0.26218762540E+02  0.59301974134E+02  0.50000054907E+02 0.  0.
         12    1    1    2    0    0  0.21512784881E+01 -0.18018522060E+02 -0.26218762540E+02  0.31886025866E+02  0.00000000000E+00 0. -1.
         11    1    3    3    0    0  0.43105081715E+01  0.66922928776E+01  0.16719586589E+02  0.18517878945E+02  0.51100000000E-03 0. -1.
        -11    1    3    3    0    0 -0.47654209130E+01  0.19460717422E+02  0.19379141922E+02  0.27874359203E+02  0.51100000000E-03 0.  1.
         12    1    3    3    0    0 -0.16963657466E+01 -0.81344882391E+01 -0.98799659710E+01  0.12909735987E+02  0.00000000000E+00 0. -1.
</event>
<event>
 7    1  0.6061051E-012  0.5930192E+02  0.7816164E-02  0.1266605E+00
        -11   -1    0    0    0    0  0.00000000000E+00  0.00000000000E+00  0.45593999997E+02  0.45594000000E+02  0.51100000000E-03 0. -1.
         11   -1    0    0    0    0 -0.00000000000E+00 -0.00000000000E+00 -0.45593999997E+02  0.45594000000E+02  0.51100000000E-03 0.  1.
    9900012    2    1    2    0    0 -0.10778454450E+01 -0.88471057324E+01 -0.30615171934E+02  0.59301924933E+02  0.49999965176E+02 0.  0.
         12    1    1    2    0    0  0.10778454450E+01  0.88471057324E+01  0.30615171934E+02  0.31886075067E+02  0.00000000000E+00 0. -1.
         11    1    3    3    0    0  0.61957033180E+01  0.14440783045E+02 -0.60765399008E+01  0.16847768160E+02  0.51100000000E-03 0. -1.
        -11    1    3    3    0    0  0.81818908262E+01 -0.26621553819E+01 -0.85160785174E+01  0.12105949048E+02  0.51100000000E-03 0.  1.
        -12    1    3    3    0    0 -0.15455439589E+02 -0.20625733395E+02 -0.16022553515E+02  0.30348207725E+02  0.00000000000E+00 0.  1.
</event>
<event>
 7    1  0.6061051E-012  0.5930197E+02  0.7816164E-02  0.1266605E+00
        -11   -1    0    0    0    0  0.00000000000E+00  0.00000000000E+00  0.45593999997E+02  0.45594000000E+02  0.51100000000E-03 0. -1.
         11   -1    0    0    0    0 -0.00000000000E+00 -0.00000000000E+00 -0.45593999997E+02  0.45594000000E+02  0.51100000000E-03 0.  1.
    9900012    2    1    2    0    0  0.87947131257E+01  0.28883970248E+02 -0.10251245550E+02  0.59301972471E+02  0.50000051874E+02 0.  0.
         12    1    1    2    0    0 -0.87947131257E+01 -0.28883970248E+02  0.10251245550E+02  0.31886027529E+02  0.00000000000E+00 0. -1.
         11    1    3    3    0    0  0.52801540582E+01 -0.38098108908E+01  0.86504505508E+01  0.10827048577E+02  0.51100000000E-03 0. -1.
        -11    1    3    3    0    0  0.13027847310E+01  0.72153159779E+00 -0.16248522455E+02  0.16316627658E+02  0.51100000000E-03 0.  1.
        -12    1    3    3    0    0  0.22117743364E+01  0.31972249541E+02 -0.26531736464E+01  0.32158296236E+02  0.00000000000E+00 0.  1.
</event>
<event>
 7    1  0.6061051E-012  0.5930194E+02  0.7816164E-02  0.1266605E+00
        -11   -1    0    0    0    0  0.00000000000E+00  0.00000000000E+00  0.45593999997E+02  0.45594000000E+02  0.51100000000E-03 0.  1.
         11   -1    0    0    0    0 -0.00000000000E+00 -0.00000000000E+00 -0.45593999997E+02  0.45594000000E+02  0.51100000000E-03 0. -1.
    9900012    2    1    2    0    0  0.24417890327E+01 -0.31250601664E+02  0.58445385467E+01  0.59301936134E+02  0.49999985604E+02 0.  0.
         12    1    1    2    0    0 -0.24417890327E+01  0.31250601664E+02 -0.58445385467E+01  0.31886063866E+02  0.00000000000E+00 0. -1.
         11    1    3    3    0    0 -0.23187441359E+01 -0.29171210929E+01  0.17437242259E+02  0.17830972707E+02  0.51100000000E-03 0. -1.
        -11    1    3    3    0    0  0.14994492770E+01 -0.15511682568E+02  0.82416390885E+01  0.17629102625E+02  0.51100000000E-03 0.  1.
         12    1    3    3    0    0  0.32610838916E+01 -0.12821798003E+02 -0.19834342800E+02  0.23841860802E+02  0.00000000000E+00 0. -1.
</event>
<event>
 7    1  0.6061051E-012  0.5930206E+02  0.7816164E-02  0.1266604E+00
        -11   -1    0    0    0    0  0.00000000000E+00  0.00000000000E+00  0.45593999997E+02  0.45594000000E+02  0.51100000000E-03 0. -1.
         11   -1    0    0    0    0 -0.00000000000E+00 -0.00000000000E+00 -0.45593999997E+02  0.45594000000E+02  0.51100000000E-03 0.  1.
    9900012    2    1    2    0    0  0.21634982150E+02  0.23379446389E+02 -0.14289749821E+01  0.59302063671E+02  0.50000218200E+02 0.  0.
         12    1    1    2    0    0 -0.21634982150E+02 -0.23379446389E+02  0.14289749821E+01  0.31885936329E+02  0.00000000000E+00 0. -1.
         11    1    3    3    0    0  0.22314916501E+02  0.28265374308E+01 -0.16661915830E+02  0.27992217698E+02  0.51100000000E-03 0. -1.
        -11    1    3    3    0    0  0.73711298704E+01  0.77638927420E+01  0.13530734402E+01  0.10790847699E+02  0.51100000000E-03 0.  1.
         12    1    3    3    0    0 -0.80510642212E+01  0.12789016216E+02  0.13879867408E+02  0.20518998273E+02  0.00000000000E+00 0. -1.
</event>
<event>
 7    1  0.6061051E-012  0.5930195E+02  0.7816164E-02  0.1266605E+00
        -11   -1    0    0    0    0  0.00000000000E+00  0.00000000000E+00  0.45593999997E+02  0.45594000000E+02  0.51100000000E-03 0. -1.
         11   -1    0    0    0    0 -0.00000000000E+00 -0.00000000000E+00 -0.45593999997E+02  0.45594000000E+02  0.51100000000E-03 0.  1.
    9900012    2    1    2    0    0  0.23347266406E+02 -0.21677650183E+02 -0.13057376160E+01  0.59301947927E+02  0.50000007112E+02 0.  0.
         12    1    1    2    0    0 -0.23347266406E+02  0.21677650183E+02  0.13057376160E+01  0.31886052073E+02  0.00000000000E+00 0. -1.
         11    1    3    3    0    0  0.66329933723E+01 -0.58313977451E+01  0.43965033837E+01  0.98656496493E+01  0.51100000000E-03 0. -1.
        -11    1    3    3    0    0 -0.57353114601E+01 -0.14936562013E+02  0.12673279090E+02  0.20410945237E+02  0.51100000000E-03 0.  1.
        -12    1    3    3    0    0  0.22449584493E+02 -0.90969042446E+00 -0.18375520090E+02  0.29025353041E+02  0.00000000000E+00 0.  1.
</event>
<event>
 7    1  0.6061051E-012  0.5930191E+02  0.7816164E-02  0.1266605E+00
        -11   -1    0    0    0    0  0.00000000000E+00  0.00000000000E+00  0.45593999997E+02  0.45594000000E+02  0.51100000000E-03 0.  1.
         11   -1    0    0    0    0 -0.00000000000E+00 -0.00000000000E+00 -0.45593999997E+02  0.45594000000E+02  0.51100000000E-03 0. -1.
    9900012    2    1    2    0    0  0.81023160858E+01 -0.27238175534E+02  0.14462255511E+02  0.59301912644E+02  0.49999942764E+02 0.  0.
         12    1    1    2    0    0 -0.81023160858E+01  0.27238175534E+02 -0.14462255511E+02  0.31886087356E+02  0.00000000000E+00 0. -1.
         11    1    3    3    0    0  0.18132345433E+02 -0.19288719638E+01  0.11461894528E+02  0.21537816147E+02  0.51100000000E-03 0. -1.
        -11    1    3    3    0    0  0.80092665864E+01 -0.12062616794E+02  0.49415506973E+01  0.15299477073E+02  0.51100000000E-03 0.  1.
         12    1    3    3    0    0 -0.18039295934E+02 -0.13246686777E+02 -0.19411897145E+01  0.22464619424E+02  0.00000000000E+00 0. -1.
</event>
<event>
 7    1  0.6061051E-012  0.5930189E+02  0.7816164E-02  0.1266605E+00
        -11   -1    0    0    0    0  0.00000000000E+00  0.00000000000E+00  0.45593999997E+02  0.45594000000E+02  0.51100000000E-03 0.  1.
         11   -1    0    0    0    0 -0.00000000000E+00 -0.00000000000E+00 -0.45593999997E+02  0.45594000000E+02  0.51100000000E-03 0. -1.
    9900012    2    1    2    0    0 -0.24589918120E+02  0.49957331114E+01  0.19674917559E+02  0.59301893254E+02  0.49999907400E+02 0.  0.
         12    1    1    2    0    0  0.24589918120E+02 -0.49957331114E+01 -0.19674917559E+02  0.31886106746E+02  0.00000000000E+00 0. -1.
         11    1    3    3    0    0 -0.27403366499E+02  0.66115196096E+01  0.17517207722E+02  0.33188992960E+02  0.51100000000E-03 0. -1.
        -11    1    3    3    0    0  0.23543498877E+00  0.78975699718E+01  0.10540994050E+02  0.13173442865E+02  0.51100000000E-03 0.  1.
         12    1    3    3    0    0  0.25780133902E+01 -0.95133564700E+01 -0.83832842128E+01  0.12939457429E+02  0.00000000000E+00 0. -1.
</event>
<event>
 7    1  0.6061051E-012  0.5930193E+02  0.7816164E-02  0.1266605E+00
        -11   -1    0    0    0    0  0.00000000000E+00  0.00000000000E+00  0.45593999997E+02  0.45594000000E+02  0.51100000000E-03 0.  1.
         11   -1    0    0    0    0 -0.00000000000E+00 -0.00000000000E+00 -0.45593999997E+02  0.45594000000E+02  0.51100000000E-03 0. -1.
    9900012    2    1    2    0    0 -0.27139672335E+02  0.15519053670E+02  0.62704392765E+01  0.59301933294E+02  0.49999980423E+02 0.  0.
         12    1    1    2    0    0  0.27139672335E+02 -0.15519053670E+02 -0.62704392765E+01  0.31886066706E+02  0.00000000000E+00 0. -1.
         11    1    3    3    0    0 -0.14830183716E+02 -0.50399015497E+01  0.10018556325E+02  0.18593182293E+02  0.51100000000E-03 0. -1.
        -11    1    3    3    0    0 -0.10179758471E+02  0.52045820902E+01  0.13385422184E+02  0.17603541819E+02  0.51100000000E-03 0.  1.
         12    1    3    3    0    0 -0.21297301483E+01  0.15354373130E+02 -0.17133539232E+02  0.23105209182E+02  0.00000000000E+00 0. -1.
</event>
<event>
 7    1  0.6061051E-012  0.5930190E+02  0.7816164E-02  0.1266605E+00
        -11   -1    0    0    0    0  0.00000000000E+00  0.00000000000E+00  0.45593999997E+02  0.45594000000E+02  0.51100000000E-03 0.  1.
         11   -1    0    0    0    0 -0.00000000000E+00 -0.00000000000E+00 -0.45593999997E+02  0.45594000000E+02  0.51100000000E-03 0. -1.
    9900012    2    1    2    0    0  0.26407750786E+02  0.63559540306E+01 -0.16701980160E+02  0.59301896531E+02  0.49999913377E+02 0.  0.
         12    1    1    2    0    0 -0.26407750786E+02 -0.63559540306E+01  0.16701980160E+02  0.31886103469E+02  0.00000000000E+00 0. -1.
         11    1    3    3    0    0  0.11088951260E+02 -0.87891689107E+01  0.49652403372E+01  0.14995597422E+02  0.51100000000E-03 0. -1.
        -11    1    3    3    0    0  0.13484329910E+02 -0.44702701137E+01 -0.20004194036E+02  0.24535245002E+02  0.51100000000E-03 0.  1.
         12    1    3    3    0    0  0.18344696161E+01  0.19615393055E+02 -0.16630264610E+01  0.19771054107E+02  0.00000000000E+00 0. -1.
</event>
<event>
 7    1  0.6061051E-012  0.5930193E+02  0.7816164E-02  0.1266605E+00
        -11   -1    0    0    0    0  0.00000000000E+00  0.00000000000E+00  0.45593999997E+02  0.45594000000E+02  0.51100000000E-03 0. -1.
         11   -1    0    0    0    0 -0.00000000000E+00 -0.00000000000E+00 -0.45593999997E+02  0.45594000000E+02  0.51100000000E-03 0.  1.
    9900012    2    1    2    0    0  0.23502726074E+02 -0.22032359235E+01 -0.21435691789E+02  0.59301933076E+02  0.49999980027E+02 0.  0.
         12    1    1    2    0    0 -0.23502726074E+02  0.22032359235E+01  0.21435691789E+02  0.31886066924E+02  0.00000000000E+00 0. -1.
         11    1    3    3    0    0  0.14809300078E+02 -0.38346447858E+01  0.76288295011E+01  0.17094411638E+02  0.51100000000E-03 0. -1.
        -11    1    3    3    0    0  0.85715781080E+01 -0.11289948751E+02 -0.52557047491E+01  0.15118112538E+02  0.51100000000E-03 0.  1.
        -12    1    3    3    0    0  0.12184788749E+00  0.12921357613E+02 -0.23808816541E+02  0.27089408900E+02  0.00000000000E+00 0.  1.
</event>
<event>
 7    1  0.6061051E-012  0.5930189E+02  0.7816164E-02  0.1266605E+00
        -11   -1    0    0    0    0  0.00000000000E+00  0.00000000000E+00  0.45593999997E+02  0.45594000000E+02  0.51100000000E-03 0. -1.
         11   -1    0    0    0    0 -0.00000000000E+00 -0.00000000000E+00 -0.45593999997E+02  0.45594000000E+02  0.51100000000E-03 0.  1.
    9900012    2    1    2    0    0 -0.21361941999E+02  0.15074376183E+02 -0.18252520605E+02  0.59301891869E+02  0.49999904876E+02 0.  0.
         12    1    1    2    0    0  0.21361941999E+02 -0.15074376183E+02  0.18252520605E+02  0.31886108131E+02  0.00000000000E+00 0. -1.
         11    1    3    3    0    0 -0.31161401455E+02  0.18804832313E+02 -0.44425287610E+01  0.36665934067E+02  0.51100000000E-03 0. -1.
        -11    1    3    3    0    0 -0.30472902056E+01 -0.39043732742E+01 -0.26461005161E+01  0.56153322665E+01  0.51100000000E-03 0.  1.
        -12    1    3    3    0    0  0.12846749661E+02  0.17391714383E+00 -0.11163891328E+02  0.17020625535E+02  0.00000000000E+00 0.  1.
</event>
<event>
 7    1  0.6061051E-012  0.5930192E+02  0.7816164E-02  0.1266605E+00
        -11   -1    0    0    0    0  0.00000000000E+00  0.00000000000E+00  0.45593999997E+02  0.45594000000E+02  0.51100000000E-03 0.  1.
         11   -1    0    0    0    0 -0.00000000000E+00 -0.00000000000E+00 -0.45593999997E+02  0.45594000000E+02  0.51100000000E-03 0. -1.
    9900012    2    1    2    0    0 -0.17245596993E+01 -0.63353783496E-01  0.31839350983E+02  0.59301915404E+02  0.49999947797E+02 0.  0.
         12    1    1    2    0    0  0.17245596993E+01  0.63353783496E-01 -0.31839350983E+02  0.31886084596E+02  0.00000000000E+00 0. -1.
         11    1    3    3    0    0 -0.42294481131E+01 -0.12995051684E+02 -0.34690634742E+01  0.14099432657E+02  0.51100000000E-03 0. -1.
        -11    1    3    3    0    0  0.76248589495E+01 -0.32041613960E+01  0.31308365639E+01  0.88434869877E+01  0.51100000000E-03 0.  1.
         12    1    3    3    0    0 -0.51199705357E+01  0.16135859297E+02  0.32177577893E+02  0.36358995759E+02  0.00000000000E+00 0. -1.
</event>
<event>
 7    1  0.6061051E-012  0.5930199E+02  0.7816164E-02  0.1266605E+00
        -11   -1    0    0    0    0  0.00000000000E+00  0.00000000000E+00  0.45593999997E+02  0.45594000000E+02  0.51100000000E-03 0.  1.
         11   -1    0    0    0    0 -0.00000000000E+00 -0.00000000000E+00 -0.45593999997E+02  0.45594000000E+02  0.51100000000E-03 0. -1.
    9900012    2    1    2    0    0 -0.15438276129E+02 -0.22157161026E+02  0.16953976857E+02  0.59301992319E+02  0.50000088072E+02 0.  0.
         12    1    1    2    0    0  0.15438276129E+02  0.22157161026E+02 -0.16953976857E+02  0.31886007681E+02  0.00000000000E+00 0. -1.
         11    1    3    3    0    0  0.12909069588E+02  0.51454366303E+01  0.70764996293E+01  0.15594756908E+02  0.51100000000E-03 0. -1.
        -11    1    3    3    0    0  0.12343019823E+01 -0.24351307355E+01 -0.18777988190E+01  0.33135316128E+01  0.51100000000E-03 0.  1.
        -12    1    3    3    0    0 -0.29581647699E+02 -0.24867466921E+02  0.11755276047E+02  0.40393703799E+02  0.00000000000E+00 0.  1.
</event>
<event>
 7    1  0.6061051E-012  0.5930194E+02  0.7816164E-02  0.1266605E+00
        -11   -1    0    0    0    0  0.00000000000E+00  0.00000000000E+00  0.45593999997E+02  0.45594000000E+02  0.51100000000E-03 0. -1.
         11   -1    0    0    0    0 -0.00000000000E+00 -0.00000000000E+00 -0.45593999997E+02  0.45594000000E+02  0.51100000000E-03 0.  1.
    9900012    2    1    2    0    0 -0.20755962104E+02 -0.15294045387E+02 -0.18761739560E+02  0.59301942569E+02  0.49999997340E+02 0.  0.
         12    1    1    2    0    0  0.20755962104E+02  0.15294045387E+02  0.18761739560E+02  0.31886057431E+02  0.00000000000E+00 0. -1.
         11    1    3    3    0    0 -0.18535753303E+02  0.10104505346E+02 -0.72417540215E+00  0.21123437435E+02  0.51100000000E-03 0.  1.
        -11    1    3    3    0    0  0.75419042970E+00  0.40126593257E+01 -0.23990737549E+01  0.47355879477E+01  0.51100000000E-03 0. -1.
         12    1    3    3    0    0 -0.29743992300E+01 -0.29411210058E+02 -0.15638490403E+02  0.33442917186E+02  0.00000000000E+00 0. -1.
</event>
<event>
 7    1  0.6061051E-012  0.5930193E+02  0.7816164E-02  0.1266605E+00
        -11   -1    0    0    0    0  0.00000000000E+00  0.00000000000E+00  0.45593999997E+02  0.45594000000E+02  0.51100000000E-03 0. -1.
         11   -1    0    0    0    0 -0.00000000000E+00 -0.00000000000E+00 -0.45593999997E+02  0.45594000000E+02  0.51100000000E-03 0.  1.
    9900012    2    1    2    0    0  0.18066637549E+02  0.26192459908E+02  0.20671661993E+01  0.59301928990E+02  0.49999972576E+02 0.  0.
         12    1    1    2    0    0 -0.18066637549E+02 -0.26192459908E+02 -0.20671661993E+01  0.31886071010E+02  0.00000000000E+00 0. -1.
         11    1    3    3    0    0  0.45471637299E+00  0.14948236167E+01  0.10391527127E+02  0.10508334831E+02  0.51100000000E-03 0. -1.
        -11    1    3    3    0    0 -0.42924685240E+01  0.17608611949E+02  0.87541896652E+01  0.20127700757E+02  0.51100000000E-03 0.  1.
        -12    1    3    3    0    0  0.21904389700E+02  0.70890243419E+01 -0.17078550593E+02  0.28665893403E+02  0.00000000000E+00 0.  1.
</event>
<event>
 7    1  0.6061051E-012  0.5930196E+02  0.7816164E-02  0.1266605E+00
        -11   -1    0    0    0    0  0.00000000000E+00  0.00000000000E+00  0.45593999997E+02  0.45594000000E+02  0.51100000000E-03 0. -1.
         11   -1    0    0    0    0 -0.00000000000E+00 -0.00000000000E+00 -0.45593999997E+02  0.45594000000E+02  0.51100000000E-03 0.  1.
    9900012    2    1    2    0    0 -0.69372724043E+01  0.37845194648E+01 -0.30891278849E+02  0.59301961598E+02  0.50000032045E+02 0.  0.
         12    1    1    2    0    0  0.69372724043E+01 -0.37845194648E+01  0.30891278849E+02  0.31886038402E+02  0.00000000000E+00 0. -1.
         11    1    3    3    0    0 -0.95463790216E+00 -0.59627485218E+01 -0.16226157569E+02  0.17313402125E+02  0.51100000000E-03 0. -1.
        -11    1    3    3    0    0  0.12722794303E+01  0.83959436257E+01 -0.26618758929E+02  0.27940452600E+02  0.51100000000E-03 0.  1.
         12    1    3    3    0    0 -0.72549139324E+01  0.13513243608E+01  0.11953637648E+02  0.14048106873E+02  0.00000000000E+00 0. -1.
</event>
<event>
 7    1  0.6061051E-012  0.5930193E+02  0.7816164E-02  0.1266605E+00
        -11   -1    0    0    0    0  0.00000000000E+00  0.00000000000E+00  0.45593999997E+02  0.45594000000E+02  0.51100000000E-03 0. -1.
         11   -1    0    0    0    0 -0.00000000000E+00 -0.00000000000E+00 -0.45593999997E+02  0.45594000000E+02  0.51100000000E-03 0.  1.
    9900012    2    1    2    0    0  0.99714364434E+01  0.98719288471E+01 -0.28632797165E+02  0.59301927847E+02  0.49999970489E+02 0.  0.
         12    1    1    2    0    0 -0.99714364434E+01 -0.98719288471E+01  0.28632797165E+02  0.31886072153E+02  0.00000000000E+00 0. -1.
         11    1    3    3    0    0  0.13871993350E+02 -0.15419218655E+01 -0.12286578197E+02  0.18594884420E+02  0.51100000000E-03 0. -1.
        -11    1    3    3    0    0  0.22176768315E+01  0.22569436237E+02 -0.16394896137E+02  0.27983748180E+02  0.51100000000E-03 0.  1.
         12    1    3    3    0    0 -0.61182337383E+01 -0.11155585524E+02  0.48677169559E-01  0.12723295247E+02  0.00000000000E+00 0. -1.
</event>
<event>
 7    1  0.6061051E-012  0.5930196E+02  0.7816164E-02  0.1266605E+00
        -11   -1    0    0    0    0  0.00000000000E+00  0.00000000000E+00  0.45593999997E+02  0.45594000000E+02  0.51100000000E-03 0.  1.
         11   -1    0    0    0    0 -0.00000000000E+00 -0.00000000000E+00 -0.45593999997E+02  0.45594000000E+02  0.51100000000E-03 0. -1.
    9900012    2    1    2    0    0  0.15227960137E+02 -0.17293638686E+02  0.22039937799E+02  0.59301959683E+02  0.50000028551E+02 0.  0.
         12    1    1    2    0    0 -0.15227960137E+02  0.17293638686E+02 -0.22039937799E+02  0.31886040317E+02  0.00000000000E+00 0. -1.
         11    1    3    3    0    0  0.73336854798E+01  0.21636677138E+01 -0.10024836103E+02  0.12608003007E+02  0.51100000000E-03 0. -1.
        -11    1    3    3    0    0 -0.72398837311E+01 -0.12092026377E+01  0.69429578277E+00  0.73729325478E+01  0.51100000000E-03 0.  1.
        -12    1    3    3    0    0  0.15134158389E+02 -0.18248103762E+02  0.31370478118E+02  0.39321024127E+02  0.00000000000E+00 0.  1.
</event>
<event>
 7    1  0.6061051E-012  0.5930192E+02  0.7816164E-02  0.1266605E+00
        -11   -1    0    0    0    0  0.00000000000E+00  0.00000000000E+00  0.45593999997E+02  0.45594000000E+02  0.51100000000E-03 0.  1.
         11   -1    0    0    0    0 -0.00000000000E+00 -0.00000000000E+00 -0.45593999997E+02  0.45594000000E+02  0.51100000000E-03 0. -1.
    9900012    2    1    2    0    0 -0.95860709533E+01  0.25209654395E+02  0.17008908328E+02  0.59301915362E+02  0.49999947720E+02 0.  0.
         12    1    1    2    0    0  0.95860709533E+01 -0.25209654395E+02 -0.17008908328E+02  0.31886084638E+02  0.00000000000E+00 0. -1.
         11    1    3    3    0    0 -0.10895427649E+02 -0.65168296140E+01  0.85426722663E+01  0.15302178328E+02  0.51100000000E-03 0. -1.
        -11    1    3    3    0    0  0.13823952694E+02  0.14725041561E+02  0.10549546584E+02  0.22786431279E+02  0.51100000000E-03 0.  1.
        -12    1    3    3    0    0 -0.12514595998E+02  0.17001442448E+02 -0.20833105220E+01  0.21213305755E+02  0.00000000000E+00 0.  1.
</event>
<event>
 7    1  0.6061051E-012  0.5930195E+02  0.7816164E-02  0.1266605E+00
        -11   -1    0    0    0    0  0.00000000000E+00  0.00000000000E+00  0.45593999997E+02  0.45594000000E+02  0.51100000000E-03 0.  1.
         11   -1    0    0    0    0 -0.00000000000E+00 -0.00000000000E+00 -0.45593999997E+02  0.45594000000E+02  0.51100000000E-03 0. -1.
    9900012    2    1    2    0    0 -0.21437312736E+02  0.92292833637E+00  0.23586220348E+02  0.59301953454E+02  0.50000017191E+02 0.  0.
         12    1    1    2    0    0  0.21437312736E+02 -0.92292833637E+00 -0.23586220348E+02  0.31886046546E+02  0.00000000000E+00 0. -1.
         11    1    3    3    0    0 -0.99190563311E+01 -0.45012448749E+00  0.48071412251E+01  0.11031722330E+02  0.51100000000E-03 0. -1.
        -11    1    3    3    0    0 -0.13559726239E+02  0.41977071674E+01  0.31782296911E+02  0.34808063984E+02  0.51100000000E-03 0.  1.
         12    1    3    3    0    0  0.20414698336E+01 -0.28246543435E+01 -0.13003217788E+02  0.13462167140E+02  0.00000000000E+00 0. -1.
</event>
<event>
 7    1  0.6061051E-012  0.5930202E+02  0.7816164E-02  0.1266605E+00
        -11   -1    0    0    0    0  0.00000000000E+00  0.00000000000E+00  0.45593999997E+02  0.45594000000E+02  0.51100000000E-03 0.  1.
         11   -1    0    0    0    0 -0.00000000000E+00 -0.00000000000E+00 -0.45593999997E+02  0.45594000000E+02  0.51100000000E-03 0. -1.
    9900012    2    1    2    0    0  0.30200517244E+02  0.85253010936E-01 -0.10229236644E+02  0.59302018876E+02  0.50000136506E+02 0.  0.
         12    1    1    2    0    0 -0.30200517244E+02 -0.85253010936E-01  0.10229236644E+02  0.31885981124E+02  0.00000000000E+00 0. -1.
         11    1    3    3    0    0  0.24676347716E+02  0.23127736984E+01 -0.10322783848E+02  0.26848294646E+02  0.51100000000E-03 0. -1.
        -11    1    3    3    0    0  0.27232671965E+01  0.22575235319E+01  0.15638742737E+02  0.16033804021E+02  0.51100000000E-03 0.  1.
        -12    1    3    3    0    0  0.28009023322E+01 -0.44850442194E+01 -0.15545195533E+02  0.16419920209E+02  0.00000000000E+00 0.  1.
</event>
<event>
 7    1  0.6061051E-012  0.5930196E+02  0.7816164E-02  0.1266605E+00
        -11   -1    0    0    0    0  0.00000000000E+00  0.00000000000E+00  0.45593999997E+02  0.45594000000E+02  0.51100000000E-03 0. -1.
         11   -1    0    0    0    0 -0.00000000000E+00 -0.00000000000E+00 -0.45593999997E+02  0.45594000000E+02  0.51100000000E-03 0.  1.
    9900012    2    1    2    0    0  0.29195616903E+02 -0.66895508532E+01  0.10935510971E+02  0.59301960152E+02  0.50000029407E+02 0.  0.
         12    1    1    2    0    0 -0.29195616903E+02  0.66895508532E+01 -0.10935510971E+02  0.31886039848E+02  0.00000000000E+00 0. -1.
         11    1    3    3    0    0 -0.41615570492E+01  0.21753725400E+01  0.22046684838E+01  0.51876166152E+01  0.51100000000E-03 0. -1.
        -11    1    3    3    0    0  0.18558469493E+01 -0.19912602520E+02  0.24854427369E+01  0.20152750008E+02  0.51100000000E-03 0.  1.
         12    1    3    3    0    0  0.31501327003E+02  0.11047679127E+02  0.62453997505E+01  0.33961593530E+02  0.00000000000E+00 0. -1.
</event>
<event>
 7    1  0.6061051E-012  0.5930194E+02  0.7816164E-02  0.1266605E+00
        -11   -1    0    0    0    0  0.00000000000E+00  0.00000000000E+00  0.45593999997E+02  0.45594000000E+02  0.51100000000E-03 0.  1.
         11   -1    0    0    0    0 -0.00000000000E+00 -0.00000000000E+00 -0.45593999997E+02  0.45594000000E+02  0.51100000000E-03 0. -1.
    9900012    2    1    2    0    0 -0.24673948022E+02  0.15493876508E+02  0.12955956760E+02  0.59301941357E+02  0.49999995128E+02 0.  0.
         12    1    1    2    0    0  0.24673948022E+02 -0.15493876508E+02 -0.12955956760E+02  0.31886058643E+02  0.00000000000E+00 0. -1.
         11    1    3    3    0    0 -0.35366357062E+01 -0.35909091647E+01 -0.14278393638E+01  0.52384297511E+01  0.51100000000E-03 0. -1.
        -11    1    3    3    0    0 -0.23970979650E+02  0.42057353413E+01  0.25519633102E+02  0.35263972395E+02  0.51100000000E-03 0.  1.
        -12    1    3    3    0    0  0.28336673344E+01  0.14879050332E+02 -0.11135836978E+02  0.18799539211E+02  0.00000000000E+00 0.  1.
</event>
<event>
 7    1  0.6061051E-012  0.5930194E+02  0.7816164E-02  0.1266605E+00
        -11   -1    0    0    0    0  0.00000000000E+00  0.00000000000E+00  0.45593999997E+02  0.45594000000E+02  0.51100000000E-03 0.  1.
         11   -1    0    0    0    0 -0.00000000000E+00 -0.00000000000E+00 -0.45593999997E+02  0.45594000000E+02  0.51100000000E-03 0. -1.
    9900012    2    1    2    0    0 -0.51313932200E+01 -0.85108867604E+01  0.30297761917E+02  0.59301940867E+02  0.49999994236E+02 0.  0.
         12    1    1    2    0    0  0.51313932200E+01  0.85108867604E+01 -0.30297761917E+02  0.31886059133E+02  0.00000000000E+00 0. -1.
         11    1    3    3    0    0  0.69990552235E+00 -0.87148965719E+01 -0.41116338312E+01  0.96615124604E+01  0.51100000000E-03 0. -1.
        -11    1    3    3    0    0 -0.10232513652E+02 -0.15725433967E+02  0.22357137916E+02  0.29186216356E+02  0.51100000000E-03 0.  1.
         12    1    3    3    0    0  0.44012149100E+01  0.15929443778E+02  0.12052257832E+02  0.20454212051E+02  0.00000000000E+00 0. -1.
</event>
<event>
 7    1  0.6061051E-012  0.5930198E+02  0.7816164E-02  0.1266605E+00
        -11   -1    0    0    0    0  0.00000000000E+00  0.00000000000E+00  0.45593999997E+02  0.45594000000E+02  0.51100000000E-03 0. -1.
         11   -1    0    0    0    0 -0.00000000000E+00 -0.00000000000E+00 -0.45593999997E+02  0.45594000000E+02  0.51100000000E-03 0.  1.
    9900012    2    1    2    0    0 -0.54947228129E+00  0.17412717124E+01 -0.31833699690E+02  0.59301978252E+02  0.50000062416E+02 0.  0.
         12    1    1    2    0    0  0.54947228129E+00 -0.17412717124E+01  0.31833699690E+02  0.31886021748E+02  0.00000000000E+00 0. -1.
         11    1    3    3    0    0  0.70323682275E+01  0.16864638307E+02 -0.34250739966E+01  0.18590356647E+02  0.51100000000E-03 0. -1.
        -11    1    3    3    0    0 -0.31411076838E+01  0.64294432789E+01 -0.70222462028E+01  0.10025778790E+02  0.51100000000E-03 0.  1.
         12    1    3    3    0    0 -0.44407328250E+01 -0.21552809874E+02 -0.21386379491E+02  0.30685842814E+02  0.00000000000E+00 0. -1.
</event>
<event>
 7    1  0.6061051E-012  0.5930195E+02  0.7816164E-02  0.1266605E+00
        -11   -1    0    0    0    0  0.00000000000E+00  0.00000000000E+00  0.45593999997E+02  0.45594000000E+02  0.51100000000E-03 0.  1.
         11   -1    0    0    0    0 -0.00000000000E+00 -0.00000000000E+00 -0.45593999997E+02  0.45594000000E+02  0.51100000000E-03 0. -1.
    9900012    2    1    2    0    0  0.27390799026E+02  0.20123202442E+01  0.16199220042E+02  0.59301952361E+02  0.50000015198E+02 0.  0.
         12    1    1    2    0    0 -0.27390799026E+02 -0.20123202442E+01 -0.16199220042E+02  0.31886047639E+02  0.00000000000E+00 0. -1.
         11    1    3    3    0    0 -0.83044447005E+01  0.94446496457E+01  0.15701200832E+02  0.20116980801E+02  0.51100000000E-03 0. -1.
        -11    1    3    3    0    0  0.18358602801E+02 -0.13500962404E+00  0.64448522718E+01  0.19457457323E+02  0.51100000000E-03 0.  1.
        -12    1    3    3    0    0  0.17336640925E+02 -0.72973197775E+01 -0.59468330618E+01  0.19727514237E+02  0.00000000000E+00 0.  1.
</event>
<event>
 7    1  0.6061051E-012  0.5930193E+02  0.7816164E-02  0.1266605E+00
        -11   -1    0    0    0    0  0.00000000000E+00  0.00000000000E+00  0.45593999997E+02  0.45594000000E+02  0.51100000000E-03 0. -1.
         11   -1    0    0    0    0 -0.00000000000E+00 -0.00000000000E+00 -0.45593999997E+02  0.45594000000E+02  0.51100000000E-03 0.  1.
    9900012    2    1    2    0    0  0.57709571637E+01 -0.11308281902E+02 -0.29249617495E+02  0.59301932357E+02  0.49999978715E+02 0.  0.
         12    1    1    2    0    0 -0.57709571637E+01  0.11308281902E+02  0.29249617495E+02  0.31886067643E+02  0.00000000000E+00 0. -1.
         11    1    3    3    0    0  0.10881706348E+02 -0.70982315451E+01 -0.22175656817E+02  0.25701287509E+02  0.51100000000E-03 0. -1.
        -11    1    3    3    0    0 -0.93872862009E+01  0.11880902139E+02 -0.76012931286E+01  0.16942745803E+02  0.51100000000E-03 0.  1.
         12    1    3    3    0    0  0.42765370170E+01 -0.16090952496E+02  0.52733245075E+00  0.16657899045E+02  0.00000000000E+00 0. -1.
</event>
<event>
 7    1  0.6061051E-012  0.5930194E+02  0.7816164E-02  0.1266605E+00
        -11   -1    0    0    0    0  0.00000000000E+00  0.00000000000E+00  0.45593999997E+02  0.45594000000E+02  0.51100000000E-03 0. -1.
         11   -1    0    0    0    0 -0.00000000000E+00 -0.00000000000E+00 -0.45593999997E+02  0.45594000000E+02  0.51100000000E-03 0.  1.
    9900012    2    1    2    0    0 -0.15731952935E+02  0.23586472029E+02  0.14591250510E+02  0.59301943527E+02  0.49999999087E+02 0.  0.
         12    1    1    2    0    0  0.15731952935E+02 -0.23586472029E+02 -0.14591250510E+02  0.31886056473E+02  0.00000000000E+00 0. -1.
         11    1    3    3    0    0  0.11308871102E+02  0.20309939939E+02  0.11332553115E+02  0.25861380209E+02  0.51100000000E-03 0.  1.
        -11    1    3    3    0    0 -0.11658038115E+02 -0.79695220952E+01  0.79873107946E-01  0.14121951532E+02  0.51100000000E-03 0. -1.
        -12    1    3    3    0    0 -0.15382785922E+02  0.11246054185E+02  0.31788242872E+01  0.19318611786E+02  0.00000000000E+00 0.  1.
</event>
<event>
 7    1  0.6061051E-012  0.5930203E+02  0.7816164E-02  0.1266604E+00
        -11   -1    0    0    0    0  0.00000000000E+00  0.00000000000E+00  0.45593999997E+02  0.45594000000E+02  0.51100000000E-03 0. -1.
         11   -1    0    0    0    0 -0.00000000000E+00 -0.00000000000E+00 -0.45593999997E+02  0.45594000000E+02  0.51100000000E-03 0.  1.
    9900012    2    1    2    0    0 -0.30655144611E+02 -0.71820410395E+01  0.50393654569E+01  0.59302034297E+02  0.50000164629E+02 0.  0.
         12    1    1    2    0    0  0.30655144611E+02  0.71820410395E+01 -0.50393654569E+01  0.31885965703E+02  0.00000000000E+00 0. -1.
         11    1    3    3    0    0  0.41224640085E+00 -0.80674249634E+01  0.16918643365E+02  0.18748167543E+02  0.51100000000E-03 0. -1.
        -11    1    3    3    0    0 -0.15750168170E+02 -0.10075764173E+00  0.61209468385E+01  0.16898045448E+02  0.51100000000E-03 0.  1.
        -12    1    3    3    0    0 -0.15317222842E+02  0.98614156563E+00 -0.18000224746E+02  0.23655821307E+02  0.00000000000E+00 0.  1.
</event>
<event>
 7    1  0.6061051E-012  0.5930193E+02  0.7816164E-02  0.1266605E+00
        -11   -1    0    0    0    0  0.00000000000E+00  0.00000000000E+00  0.45593999997E+02  0.45594000000E+02  0.51100000000E-03 0. -1.
         11   -1    0    0    0    0 -0.00000000000E+00 -0.00000000000E+00 -0.45593999997E+02  0.45594000000E+02  0.51100000000E-03 0.  1.
    9900012    2    1    2    0    0  0.22031016072E+02 -0.11941433070E+02 -0.19716943428E+02  0.59301931709E+02  0.49999977534E+02 0.  0.
         12    1    1    2    0    0 -0.22031016072E+02  0.11941433070E+02  0.19716943428E+02  0.31886068291E+02  0.00000000000E+00 0. -1.
         11    1    3    3    0    0 -0.93742378989E+01  0.29697875912E+01 -0.55118329150E+01  0.11272811400E+02  0.51100000000E-03 0. -1.
        -11    1    3    3    0    0  0.10822388011E+02  0.90887058259E+01 -0.27294518801E+01  0.14393698749E+02  0.51100000000E-03 0.  1.
         12    1    3    3    0    0  0.20582865960E+02 -0.23999926487E+02 -0.11475658632E+02  0.33635421560E+02  0.00000000000E+00 0. -1.
</event>
<event>
 7    1  0.6061051E-012  0.5930194E+02  0.7816164E-02  0.1266605E+00
        -11   -1    0    0    0    0  0.00000000000E+00  0.00000000000E+00  0.45593999997E+02  0.45594000000E+02  0.51100000000E-03 0.  1.
         11   -1    0    0    0    0 -0.00000000000E+00 -0.00000000000E+00 -0.45593999997E+02  0.45594000000E+02  0.51100000000E-03 0. -1.
    9900012    2    1    2    0    0 -0.22585460340E+02 -0.65323547416E+01 -0.21539403280E+02  0.59301943942E+02  0.49999999844E+02 0.  0.
         12    1    1    2    0    0  0.22585460340E+02  0.65323547416E+01  0.21539403280E+02  0.31886056058E+02  0.00000000000E+00 0. -1.
         11    1    3    3    0    0  0.22901153138E+01 -0.31705333074E+01 -0.29639999020E+00  0.39223414970E+01  0.51100000000E-03 0. -1.
        -11    1    3    3    0    0 -0.28981788053E+01 -0.44285446718E+01 -0.30900317072E+02  0.31350295751E+02  0.51100000000E-03 0.  1.
        -12    1    3    3    0    0 -0.21977396849E+02  0.10667232375E+01  0.96573137815E+01  0.24029306694E+02  0.00000000000E+00 0.  1.
</event>
<event>
 7    1  0.6061051E-012  0.5930198E+02  0.7816164E-02  0.1266605E+00
        -11   -1    0    0    0    0  0.00000000000E+00  0.00000000000E+00  0.45593999997E+02  0.45594000000E+02  0.51100000000E-03 0. -1.
         11   -1    0    0    0    0 -0.00000000000E+00 -0.00000000000E+00 -0.45593999997E+02  0.45594000000E+02  0.51100000000E-03 0.  1.
    9900012    2    1    2    0    0 -0.14230394390E+02  0.25477627740E+02 -0.12849297726E+02  0.59301982817E+02  0.50000070742E+02 0.  0.
         12    1    1    2    0    0  0.14230394390E+02 -0.25477627740E+02  0.12849297726E+02  0.31886017183E+02  0.00000000000E+00 0. -1.
         11    1    3    3    0    0  0.11157139906E+02  0.11403981107E+02 -0.18341289277E+01  0.16059158918E+02  0.51100000000E-03 0. -1.
        -11    1    3    3    0    0 -0.13852627912E+02  0.22574117595E+02 -0.11572122257E+02  0.28903288724E+02  0.51100000000E-03 0.  1.
         12    1    3    3    0    0 -0.11534906384E+02 -0.85004709631E+01  0.55695345844E+00  0.14339535175E+02  0.00000000000E+00 0. -1.
</event>
<event>
 7    1  0.6061051E-012  0.5930195E+02  0.7816164E-02  0.1266605E+00
        -11   -1    0    0    0    0  0.00000000000E+00  0.00000000000E+00  0.45593999997E+02  0.45594000000E+02  0.51100000000E-03 0.  1.
         11   -1    0    0    0    0 -0.00000000000E+00 -0.00000000000E+00 -0.45593999997E+02  0.45594000000E+02  0.51100000000E-03 0. -1.
    9900012    2    1    2    0    0 -0.17515926168E+02 -0.96391373162E-01  0.26644010372E+02  0.59301948982E+02  0.50000009036E+02 0.  0.
         12    1    1    2    0    0  0.17515926168E+02  0.96391373162E-01 -0.26644010372E+02  0.31886051018E+02  0.00000000000E+00 0. -1.
         11    1    3    3    0    0  0.53613908879E+01 -0.31819079073E+00 -0.93056549445E+01  0.10744346041E+02  0.51100000000E-03 0. -1.
        -11    1    3    3    0    0 -0.17203411379E+02  0.24511234183E+01  0.66109002523E+01  0.18592185764E+02  0.51100000000E-03 0.  1.
        -12    1    3    3    0    0 -0.56739056771E+01 -0.22293240007E+01  0.29338765064E+02  0.29965417177E+02  0.00000000000E+00 0.  1.
</event>
<event>
 7    1  0.6061051E-012  0.5930203E+02  0.7816164E-02  0.1266604E+00
        -11   -1    0    0    0    0  0.00000000000E+00  0.00000000000E+00  0.45593999997E+02  0.45594000000E+02  0.51100000000E-03 0. -1.
         11   -1    0    0    0    0 -0.00000000000E+00 -0.00000000000E+00 -0.45593999997E+02  0.45594000000E+02  0.51100000000E-03 0.  1.
    9900012    2    1    2    0    0 -0.20200362950E+02  0.23999324428E+02 -0.57177822455E+01  0.59302027063E+02  0.50000151437E+02 0.  0.
         12    1    1    2    0    0  0.20200362950E+02 -0.23999324428E+02  0.57177822455E+01  0.31885972937E+02  0.00000000000E+00 0. -1.
         11    1    3    3    0    0 -0.85065768482E+01 -0.19258047758E+01 -0.38743796775E+01  0.95436571531E+01  0.51100000000E-03 0. -1.
        -11    1    3    3    0    0 -0.44228833065E+01  0.23773058248E+02 -0.19161740629E+02  0.30852755134E+02  0.51100000000E-03 0.  1.
         12    1    3    3    0    0 -0.72709027955E+01  0.21520709556E+01  0.17318338061E+02  0.18905614776E+02  0.00000000000E+00 0. -1.
</event>
<event>
 7    1  0.6061051E-012  0.5930195E+02  0.7816164E-02  0.1266605E+00
        -11   -1    0    0    0    0  0.00000000000E+00  0.00000000000E+00  0.45593999997E+02  0.45594000000E+02  0.51100000000E-03 0.  1.
         11   -1    0    0    0    0 -0.00000000000E+00 -0.00000000000E+00 -0.45593999997E+02  0.45594000000E+02  0.51100000000E-03 0. -1.
    9900012    2    1    2    0    0 -0.55245806133E+01 -0.43868070021E+01  0.31095904577E+02  0.59301947436E+02  0.50000006216E+02 0.  0.
         12    1    1    2    0    0  0.55245806133E+01  0.43868070021E+01 -0.31095904577E+02  0.31886052564E+02  0.00000000000E+00 0. -1.
         11    1    3    3    0    0  0.18254631797E+02  0.18531776470E+01  0.60256681968E+01  0.19312548431E+02  0.51100000000E-03 0. -1.
        -11    1    3    3    0    0 -0.85184979463E+00 -0.78140188724E+01  0.40391352583E+01  0.88373725115E+01  0.51100000000E-03 0.  1.
        -12    1    3    3    0    0 -0.22927362616E+02  0.15740342234E+01  0.21031101122E+02  0.31152026493E+02  0.00000000000E+00 0.  1.
</event>
<event>
 7    1  0.6061051E-012  0.5930197E+02  0.7816164E-02  0.1266605E+00
        -11   -1    0    0    0    0  0.00000000000E+00  0.00000000000E+00  0.45593999997E+02  0.45594000000E+02  0.51100000000E-03 0.  1.
         11   -1    0    0    0    0 -0.00000000000E+00 -0.00000000000E+00 -0.45593999997E+02  0.45594000000E+02  0.51100000000E-03 0. -1.
    9900012    2    1    2    0    0 -0.28278286466E+02 -0.13578814195E+02 -0.57160632389E+01  0.59301967645E+02  0.50000043072E+02 0.  0.
         12    1    1    2    0    0  0.28278286466E+02  0.13578814195E+02  0.57160632389E+01  0.31886032355E+02  0.00000000000E+00 0. -1.
         11    1    3    3    0    0 -0.10772061434E+01 -0.26196705332E+01  0.61683056275E+01  0.67875652007E+01  0.51100000000E-03 0. -1.
        -11    1    3    3    0    0 -0.57917786089E+01 -0.62823356993E+01  0.15344017578E+02  0.17562782154E+02  0.51100000000E-03 0.  1.
         12    1    3    3    0    0 -0.21409301714E+02 -0.46768079630E+01 -0.27228386444E+02  0.34951620291E+02  0.00000000000E+00 0. -1.
</event>
<event>
 7    1  0.6061051E-012  0.5930194E+02  0.7816164E-02  0.1266605E+00
        -11   -1    0    0    0    0  0.00000000000E+00  0.00000000000E+00  0.45593999997E+02  0.45594000000E+02  0.51100000000E-03 0.  1.
         11   -1    0    0    0    0 -0.00000000000E+00 -0.00000000000E+00 -0.45593999997E+02  0.45594000000E+02  0.51100000000E-03 0. -1.
    9900012    2    1    2    0    0  0.65549446372E+01  0.69654286968E+01  0.30417701426E+02  0.59301936333E+02  0.49999985967E+02 0.  0.
         12    1    1    2    0    0 -0.65549446372E+01 -0.69654286968E+01 -0.30417701426E+02  0.31886063667E+02  0.00000000000E+00 0. -1.
         11    1    3    3    0    0  0.48696081481E+01  0.19075477870E+02  0.11916693382E+02  0.23012920738E+02  0.51100000000E-03 0. -1.
        -11    1    3    3    0    0  0.26886745057E+01  0.60981424825E+01  0.16680431781E+02  0.17962547619E+02  0.51100000000E-03 0.  1.
         12    1    3    3    0    0 -0.10033380166E+01 -0.18208191655E+02  0.18205762632E+01  0.18326467976E+02  0.00000000000E+00 0. -1.
</event>
<event>
 7    1  0.6061051E-012  0.5930193E+02  0.7816164E-02  0.1266605E+00
        -11   -1    0    0    0    0  0.00000000000E+00  0.00000000000E+00  0.45593999997E+02  0.45594000000E+02  0.51100000000E-03 0. -1.
         11   -1    0    0    0    0 -0.00000000000E+00 -0.00000000000E+00 -0.45593999997E+02  0.45594000000E+02  0.51100000000E-03 0.  1.
    9900012    2    1    2    0    0  0.27325920508E+02 -0.13778482312E+02 -0.89537011364E+01  0.59301932973E+02  0.49999979838E+02 0.  0.
         12    1    1    2    0    0 -0.27325920508E+02  0.13778482312E+02  0.89537011364E+01  0.31886067027E+02  0.00000000000E+00 0. -1.
         11    1    3    3    0    0  0.30206641661E+01  0.59783770630E+01  0.15323473023E+01  0.68712075233E+01  0.51100000000E-03 0. -1.
        -11    1    3    3    0    0  0.28356504815E+02 -0.13901327225E+01  0.40261352837E+01  0.28674615951E+02  0.51100000000E-03 0.  1.
         12    1    3    3    0    0 -0.40512484735E+01 -0.18366726652E+02 -0.14512183722E+02  0.23756109499E+02  0.00000000000E+00 0. -1.
</event>
<event>
 7    1  0.6061051E-012  0.5930192E+02  0.7816164E-02  0.1266605E+00
        -11   -1    0    0    0    0  0.00000000000E+00  0.00000000000E+00  0.45593999997E+02  0.45594000000E+02  0.51100000000E-03 0. -1.
         11   -1    0    0    0    0 -0.00000000000E+00 -0.00000000000E+00 -0.45593999997E+02  0.45594000000E+02  0.51100000000E-03 0.  1.
    9900012    2    1    2    0    0  0.14572307505E+02  0.97322034239E+01 -0.26639337828E+02  0.59301917623E+02  0.49999951843E+02 0.  0.
         12    1    1    2    0    0 -0.14572307505E+02 -0.97322034239E+01  0.26639337828E+02  0.31886082377E+02  0.00000000000E+00 0. -1.
         11    1    3    3    0    0 -0.72075316461E+00  0.19981460104E+02 -0.23974577273E+02  0.31217920954E+02  0.51100000000E-03 0. -1.
        -11    1    3    3    0    0  0.13677897436E+01 -0.35168564765E-01 -0.94357330477E+01  0.95344189136E+01  0.51100000000E-03 0.  1.
         12    1    3    3    0    0  0.13925270926E+02 -0.10214088116E+02  0.67709724928E+01  0.18549577755E+02  0.00000000000E+00 0. -1.
</event>
<event>
 7    1  0.6061051E-012  0.5930194E+02  0.7816164E-02  0.1266605E+00
        -11   -1    0    0    0    0  0.00000000000E+00  0.00000000000E+00  0.45593999997E+02  0.45594000000E+02  0.51100000000E-03 0.  1.
         11   -1    0    0    0    0 -0.00000000000E+00 -0.00000000000E+00 -0.45593999997E+02  0.45594000000E+02  0.51100000000E-03 0. -1.
    9900012    2    1    2    0    0  0.35081980719E+00  0.23681553407E+02  0.21349047983E+02  0.59301938843E+02  0.49999990545E+02 0.  0.
         12    1    1    2    0    0 -0.35081980719E+00 -0.23681553407E+02 -0.21349047983E+02  0.31886061157E+02  0.00000000000E+00 0. -1.
         11    1    3    3    0    0  0.63786631726E+01  0.14366564833E+02  0.21729225429E+01  0.15868431605E+02  0.51100000000E-03 0. -1.
        -11    1    3    3    0    0  0.79027562856E+01  0.14047575046E+02 -0.34132797471E+01  0.16475387718E+02  0.51100000000E-03 0.  1.
        -12    1    3    3    0    0 -0.13930599651E+02 -0.47325864717E+01  0.22589405187E+02  0.26958119520E+02  0.00000000000E+00 0.  1.
</event>
<event>
 7    1  0.6061051E-012  0.5930192E+02  0.7816164E-02  0.1266605E+00
        -11   -1    0    0    0    0  0.00000000000E+00  0.00000000000E+00  0.45593999997E+02  0.45594000000E+02  0.51100000000E-03 0. -1.
         11   -1    0    0    0    0 -0.00000000000E+00 -0.00000000000E+00 -0.45593999997E+02  0.45594000000E+02  0.51100000000E-03 0.  1.
    9900012    2    1    2    0    0 -0.89111405140E+01  0.13826417608E+02 -0.27315634243E+02  0.59301919600E+02  0.49999955450E+02 0.  0.
         12    1    1    2    0    0  0.89111405140E+01 -0.13826417608E+02  0.27315634243E+02  0.31886080400E+02  0.00000000000E+00 0. -1.
         11    1    3    3    0    0 -0.77242029996E+01 -0.88034543591E+01 -0.55229386611E+01  0.12948628203E+02  0.51100000000E-03 0. -1.
        -11    1    3    3    0    0 -0.21822680280E+01 -0.62696404935E+01 -0.15355114585E+02  0.16728724693E+02  0.51100000000E-03 0.  1.
         12    1    3    3    0    0  0.99533051363E+00  0.28899512461E+02 -0.64375809969E+01  0.29624566704E+02  0.00000000000E+00 0. -1.
</event>
<event>
 7    1  0.6061051E-012  0.5930204E+02  0.7816164E-02  0.1266604E+00
        -11   -1    0    0    0    0  0.00000000000E+00  0.00000000000E+00  0.45593999997E+02  0.45594000000E+02  0.51100000000E-03 0.  1.
         11   -1    0    0    0    0 -0.00000000000E+00 -0.00000000000E+00 -0.45593999997E+02  0.45594000000E+02  0.51100000000E-03 0. -1.
    9900012    2    1    2    0    0  0.29758123499E+02 -0.69432866934E+01  0.91082158559E+01  0.59302035371E+02  0.50000166587E+02 0.  0.
         12    1    1    2    0    0 -0.29758123499E+02  0.69432866934E+01 -0.91082158559E+01  0.31885964629E+02  0.00000000000E+00 0. -1.
         11    1    3    3    0    0 -0.15290056696E+01  0.29255033216E+01  0.54624545810E+01  0.63823850035E+01  0.51100000000E-03 0. -1.
        -11    1    3    3    0    0  0.15265081575E+02 -0.25694162388E+01  0.22379102631E+02  0.27211189796E+02  0.51100000000E-03 0.  1.
         12    1    3    3    0    0  0.16022047593E+02 -0.72993737762E+01 -0.18733341356E+02  0.25708460571E+02  0.00000000000E+00 0. -1.
</event>
<event>
 7    1  0.6061051E-012  0.5930191E+02  0.7816164E-02  0.1266605E+00
        -11   -1    0    0    0    0  0.00000000000E+00  0.00000000000E+00  0.45593999997E+02  0.45594000000E+02  0.51100000000E-03 0. -1.
         11   -1    0    0    0    0 -0.00000000000E+00 -0.00000000000E+00 -0.45593999997E+02  0.45594000000E+02  0.51100000000E-03 0.  1.
    9900012    2    1    2    0    0  0.10902845937E+02 -0.11866387676E+02 -0.27514348015E+02  0.59301912866E+02  0.49999943169E+02 0.  0.
         12    1    1    2    0    0 -0.10902845937E+02  0.11866387676E+02  0.27514348015E+02  0.31886087134E+02  0.00000000000E+00 0. -1.
         11    1    3    3    0    0  0.77286891648E+01 -0.11910088653E+02 -0.41482670614E+01  0.14791584357E+02  0.51100000000E-03 0. -1.
        -11    1    3    3    0    0 -0.26857002590E+01 -0.11523955057E+02  0.53622166242E+01  0.12991069757E+02  0.51100000000E-03 0.  1.
        -12    1    3    3    0    0  0.58598570314E+01  0.11567656034E+02 -0.28728297578E+02  0.31519258752E+02  0.00000000000E+00 0.  1.
</event>
<event>
 7    1  0.6061051E-012  0.5930194E+02  0.7816164E-02  0.1266605E+00
        -11   -1    0    0    0    0  0.00000000000E+00  0.00000000000E+00  0.45593999997E+02  0.45594000000E+02  0.51100000000E-03 0.  1.
         11   -1    0    0    0    0 -0.00000000000E+00 -0.00000000000E+00 -0.45593999997E+02  0.45594000000E+02  0.51100000000E-03 0. -1.
    9900012    2    1    2    0    0  0.24882759342E+02 -0.96000100456E+01 -0.17475960067E+02  0.59301935871E+02  0.49999985125E+02 0.  0.
         12    1    1    2    0    0 -0.24882759342E+02  0.96000100456E+01  0.17475960067E+02  0.31886064129E+02  0.00000000000E+00 0. -1.
         11    1    3    3    0    0  0.40465066300E+01  0.39917942751E+01 -0.44967115244E+01  0.72476928906E+01  0.51100000000E-03 0.  1.
        -11    1    3    3    0    0  0.32013530816E+02 -0.28292679116E+01 -0.16524743528E+02  0.36137765027E+02  0.51100000000E-03 0. -1.
        -12    1    3    3    0    0 -0.11177278104E+02 -0.10762536409E+02  0.35454949851E+01  0.15916477954E+02  0.00000000000E+00 0.  1.
</event>
<event>
 7    1  0.6061051E-012  0.5930196E+02  0.7816164E-02  0.1266605E+00
        -11   -1    0    0    0    0  0.00000000000E+00  0.00000000000E+00  0.45593999997E+02  0.45594000000E+02  0.51100000000E-03 0.  1.
         11   -1    0    0    0    0 -0.00000000000E+00 -0.00000000000E+00 -0.45593999997E+02  0.45594000000E+02  0.51100000000E-03 0. -1.
    9900012    2    1    2    0    0 -0.18003705800E+02  0.24795115735E+02  0.88197873371E+01  0.59301955474E+02  0.50000020875E+02 0.  0.
         12    1    1    2    0    0  0.18003705800E+02 -0.24795115735E+02 -0.88197873371E+01  0.31886044526E+02  0.00000000000E+00 0. -1.
         11    1    3    3    0    0 -0.23111246767E+01  0.11573502605E+02 -0.64758269147E+01  0.13461931299E+02  0.51100000000E-03 0. -1.
        -11    1    3    3    0    0 -0.12634055648E+01 -0.53578247481E+01 -0.99261692187E+01  0.11350388331E+02  0.51100000000E-03 0.  1.
        -12    1    3    3    0    0 -0.14429175559E+02  0.18579437878E+02  0.25221783471E+02  0.34489635843E+02  0.00000000000E+00 0.  1.
</event>
<event>
 7    1  0.6061051E-012  0.5930194E+02  0.7816164E-02  0.1266605E+00
        -11   -1    0    0    0    0  0.00000000000E+00  0.00000000000E+00  0.45593999997E+02  0.45594000000E+02  0.51100000000E-03 0. -1.
         11   -1    0    0    0    0 -0.00000000000E+00 -0.00000000000E+00 -0.45593999997E+02  0.45594000000E+02  0.51100000000E-03 0.  1.
    9900012    2    1    2    0    0 -0.14547085201E+02 -0.21247184161E+02 -0.18805862654E+02  0.59301937327E+02  0.49999987779E+02 0.  0.
         12    1    1    2    0    0  0.14547085201E+02  0.21247184161E+02  0.18805862654E+02  0.31886062673E+02  0.00000000000E+00 0. -1.
         11    1    3    3    0    0 -0.32180594079E+01  0.30930454899E+01  0.15213656453E+00  0.44660925372E+01  0.51100000000E-03 0. -1.
        -11    1    3    3    0    0  0.44446325582E+01  0.83039666264E+01 -0.15863203400E+02  0.18448627122E+02  0.51100000000E-03 0.  1.
         12    1    3    3    0    0 -0.15773658352E+02 -0.32644196278E+02 -0.30947958186E+01  0.36387217667E+02  0.00000000000E+00 0. -1.
</event>
<event>
 7    1  0.6061051E-012  0.5930192E+02  0.7816164E-02  0.1266605E+00
        -11   -1    0    0    0    0  0.00000000000E+00  0.00000000000E+00  0.45593999997E+02  0.45594000000E+02  0.51100000000E-03 0.  1.
         11   -1    0    0    0    0 -0.00000000000E+00 -0.00000000000E+00 -0.45593999997E+02  0.45594000000E+02  0.51100000000E-03 0. -1.
    9900012    2    1    2    0    0  0.65425960749E+01  0.13899598904E+02  0.27941327318E+02  0.59301918626E+02  0.49999953674E+02 0.  0.
         12    1    1    2    0    0 -0.65425960749E+01 -0.13899598904E+02 -0.27941327318E+02  0.31886081374E+02  0.00000000000E+00 0. -1.
         11    1    3    3    0    0  0.91824509380E+01 -0.15155245875E+01 -0.45051211285E+01  0.10339745483E+02  0.51100000000E-03 0. -1.
        -11    1    3    3    0    0  0.70915939468E+01 -0.77702440141E+01  0.47146272266E+01  0.11528014005E+02  0.51100000000E-03 0.  1.
        -12    1    3    3    0    0 -0.97314488098E+01  0.23185367505E+02  0.27731821220E+02  0.37434159139E+02  0.00000000000E+00 0.  1.
</event>
<event>
 7    1  0.6061051E-012  0.5930192E+02  0.7816164E-02  0.1266605E+00
        -11   -1    0    0    0    0  0.00000000000E+00  0.00000000000E+00  0.45593999997E+02  0.45594000000E+02  0.51100000000E-03 0.  1.
         11   -1    0    0    0    0 -0.00000000000E+00 -0.00000000000E+00 -0.45593999997E+02  0.45594000000E+02  0.51100000000E-03 0. -1.
    9900012    2    1    2    0    0  0.27497667310E+02 -0.20623555724E+01  0.16010841683E+02  0.59301920445E+02  0.49999956992E+02 0.  0.
         12    1    1    2    0    0 -0.27497667310E+02  0.20623555724E+01 -0.16010841683E+02  0.31886079555E+02  0.00000000000E+00 0. -1.
         11    1    3    3    0    0 -0.56219995863E+00 -0.95394892507E+01  0.34410224523E+01  0.10156700239E+02  0.51100000000E-03 0. -1.
        -11    1    3    3    0    0  0.26635621781E+01 -0.72344123289E+01 -0.96369767927E+01  0.12341094246E+02  0.51100000000E-03 0.  1.
        -12    1    3    3    0    0  0.25396305090E+02  0.14711546007E+02  0.22206796023E+02  0.36804125961E+02  0.00000000000E+00 0.  1.
</event>
<event>
 7    1  0.6061051E-012  0.5930200E+02  0.7816164E-02  0.1266605E+00
        -11   -1    0    0    0    0  0.00000000000E+00  0.00000000000E+00  0.45593999997E+02  0.45594000000E+02  0.51100000000E-03 0.  1.
         11   -1    0    0    0    0 -0.00000000000E+00 -0.00000000000E+00 -0.45593999997E+02  0.45594000000E+02  0.51100000000E-03 0. -1.
    9900012    2    1    2    0    0 -0.17381804912E+01 -0.22000125329E+02  0.23014998578E+02  0.59302000792E+02  0.50000103525E+02 0.  0.
         12    1    1    2    0    0  0.17381804912E+01  0.22000125329E+02 -0.23014998578E+02  0.31885999208E+02  0.00000000000E+00 0. -1.
         11    1    3    3    0    0  0.16455385159E+02 -0.20047814230E+02  0.12029236999E+02  0.28590157383E+02  0.51100000000E-03 0. -1.
        -11    1    3    3    0    0  0.50736714526E+01 -0.15574991317E+01  0.10567154559E+01  0.54115241263E+01  0.51100000000E-03 0.  1.
         12    1    3    3    0    0 -0.23267237103E+02 -0.39481196768E+00  0.99290461232E+01  0.25300319283E+02  0.00000000000E+00 0. -1.
</event>
<event>
 7    1  0.6061051E-012  0.5930196E+02  0.7816164E-02  0.1266605E+00
        -11   -1    0    0    0    0  0.00000000000E+00  0.00000000000E+00  0.45593999997E+02  0.45594000000E+02  0.51100000000E-03 0.  1.
         11   -1    0    0    0    0 -0.00000000000E+00 -0.00000000000E+00 -0.45593999997E+02  0.45594000000E+02  0.51100000000E-03 0. -1.
    9900012    2    1    2    0    0 -0.10115903532E+02  0.88955037818E+01  0.28900830294E+02  0.59301960994E+02  0.50000030942E+02 0.  0.
         12    1    1    2    0    0  0.10115903532E+02 -0.88955037818E+01 -0.28900830294E+02  0.31886039006E+02  0.00000000000E+00 0. -1.
         11    1    3    3    0    0 -0.15758616749E+02  0.11618849712E+01 -0.36462493207E+01  0.16216630751E+02  0.51100000000E-03 0. -1.
        -11    1    3    3    0    0  0.13480459390E+01 -0.12124775414E+01 -0.44369449138E+01  0.47931002567E+01  0.51100000000E-03 0.  1.
        -12    1    3    3    0    0  0.42946672778E+01  0.89460963520E+01  0.36984024529E+02  0.38292229986E+02  0.00000000000E+00 0.  1.
</event>
<event>
 7    1  0.6061051E-012  0.5930219E+02  0.7816164E-02  0.1266604E+00
        -11   -1    0    0    0    0  0.00000000000E+00  0.00000000000E+00  0.45593999997E+02  0.45594000000E+02  0.51100000000E-03 0.  1.
         11   -1    0    0    0    0 -0.00000000000E+00 -0.00000000000E+00 -0.45593999997E+02  0.45594000000E+02  0.51100000000E-03 0. -1.
    9900012    2    1    2    0    0 -0.84053453114E+01  0.15560553044E+02  0.26531573703E+02  0.59302187418E+02  0.50000443884E+02 0.  0.
         12    1    1    2    0    0  0.84053453114E+01 -0.15560553044E+02 -0.26531573703E+02  0.31885812582E+02  0.00000000000E+00 0. -1.
         11    1    3    3    0    0 -0.20911823752E+02 -0.83042612065E+01  0.88440623192E+01  0.24176074234E+02  0.51100000000E-03 0. -1.
        -11    1    3    3    0    0 -0.14131306011E+00  0.12514813663E+02  0.35197112740E+01  0.13001111418E+02  0.51100000000E-03 0.  1.
        -12    1    3    3    0    0  0.12647791501E+02  0.11350000588E+02  0.14167800110E+02  0.22125001766E+02  0.00000000000E+00 0.  1.
</event>
<event>
 7    1  0.6061051E-012  0.5930197E+02  0.7816164E-02  0.1266605E+00
        -11   -1    0    0    0    0  0.00000000000E+00  0.00000000000E+00  0.45593999997E+02  0.45594000000E+02  0.51100000000E-03 0.  1.
         11   -1    0    0    0    0 -0.00000000000E+00 -0.00000000000E+00 -0.45593999997E+02  0.45594000000E+02  0.51100000000E-03 0. -1.
    9900012    2    1    2    0    0 -0.79563215516E+01  0.24359238866E+02 -0.18974812871E+02  0.59301967097E+02  0.50000042073E+02 0.  0.
         12    1    1    2    0    0  0.79563215516E+01 -0.24359238866E+02  0.18974812871E+02  0.31886032903E+02  0.00000000000E+00 0. -1.
         11    1    3    3    0    0 -0.10082539620E+02  0.12941949701E+01  0.95157151096E+00  0.10209702954E+02  0.51100000000E-03 0. -1.
        -11    1    3    3    0    0  0.62581107792E+01  0.14371400702E+02  0.93653395371E+01  0.18259537058E+02  0.51100000000E-03 0.  1.
         12    1    3    3    0    0 -0.41318927107E+01  0.86936431949E+01 -0.29291723919E+02  0.30832727086E+02  0.00000000000E+00 0. -1.
</event>
<event>
 7    1  0.6061051E-012  0.5930230E+02  0.7816164E-02  0.1266604E+00
        -11   -1    0    0    0    0  0.00000000000E+00  0.00000000000E+00  0.45593999997E+02  0.45594000000E+02  0.51100000000E-03 0.  1.
         11   -1    0    0    0    0 -0.00000000000E+00 -0.00000000000E+00 -0.45593999997E+02  0.45594000000E+02  0.51100000000E-03 0. -1.
    9900012    2    1    2    0    0 -0.76576389731E+01 -0.12921938333E+02  0.28126179197E+02  0.59302299739E+02  0.50000648728E+02 0.  0.
         12    1    1    2    0    0  0.76576389731E+01  0.12921938333E+02 -0.28126179197E+02  0.31885700261E+02  0.00000000000E+00 0. -1.
         11    1    3    3    0    0 -0.89319369489E+01 -0.15099699554E+01  0.10717796386E+02  0.14033198729E+02  0.51100000000E-03 0. -1.
        -11    1    3    3    0    0  0.14147204563E+02  0.77339115022E+01  0.15087694686E+02  0.22081560526E+02  0.51100000000E-03 0.  1.
         12    1    3    3    0    0 -0.12872906587E+02 -0.19145879879E+02  0.23206881247E+01  0.23187540485E+02  0.00000000000E+00 0. -1.
</event>
<event>
 7    1  0.6061051E-012  0.5930195E+02  0.7816164E-02  0.1266605E+00
        -11   -1    0    0    0    0  0.00000000000E+00  0.00000000000E+00  0.45593999997E+02  0.45594000000E+02  0.51100000000E-03 0.  1.
         11   -1    0    0    0    0 -0.00000000000E+00 -0.00000000000E+00 -0.45593999997E+02  0.45594000000E+02  0.51100000000E-03 0. -1.
    9900012    2    1    2    0    0  0.15497154617E+02 -0.95541299238E+01  0.26177799041E+02  0.59301947211E+02  0.50000005805E+02 0.  0.
         12    1    1    2    0    0 -0.15497154617E+02  0.95541299238E+01 -0.26177799041E+02  0.31886052789E+02  0.00000000000E+00 0. -1.
         11    1    3    3    0    0  0.63880579454E+01 -0.51519276872E+01  0.29994184993E+02  0.31096636102E+02  0.51100000000E-03 0. -1.
        -11    1    3    3    0    0 -0.88286693339E+00  0.10117331108E+02  0.72083765219E-01  0.10156034615E+02  0.51100000000E-03 0.  1.
         12    1    3    3    0    0  0.99919636052E+01 -0.14519533344E+02 -0.38884697169E+01  0.18049276494E+02  0.00000000000E+00 0. -1.
</event>
<event>
 7    1  0.6061051E-012  0.5930194E+02  0.7816164E-02  0.1266605E+00
        -11   -1    0    0    0    0  0.00000000000E+00  0.00000000000E+00  0.45593999997E+02  0.45594000000E+02  0.51100000000E-03 0.  1.
         11   -1    0    0    0    0 -0.00000000000E+00 -0.00000000000E+00 -0.45593999997E+02  0.45594000000E+02  0.51100000000E-03 0. -1.
    9900012    2    1    2    0    0 -0.26285563778E+02 -0.13020184659E+02  0.12500588957E+02  0.59301940414E+02  0.49999993409E+02 0.  0.
         12    1    1    2    0    0  0.26285563778E+02  0.13020184659E+02 -0.12500588957E+02  0.31886059586E+02  0.00000000000E+00 0. -1.
         11    1    3    3    0    0 -0.32338654567E+02 -0.10138169488E+02 -0.68094277051E+01  0.34567895014E+02  0.51100000000E-03 0. -1.
        -11    1    3    3    0    0 -0.25384204375E+01 -0.29249921085E+01  0.14241672347E+02  0.14758874911E+02  0.51100000000E-03 0.  1.
        -12    1    3    3    0    0  0.85915112268E+01  0.42976937322E-01  0.50683443153E+01  0.99751704886E+01  0.00000000000E+00 0.  1.
</event>
<event>
 7    1  0.6061051E-012  0.5930199E+02  0.7816164E-02  0.1266605E+00
        -11   -1    0    0    0    0  0.00000000000E+00  0.00000000000E+00  0.45593999997E+02  0.45594000000E+02  0.51100000000E-03 0. -1.
         11   -1    0    0    0    0 -0.00000000000E+00 -0.00000000000E+00 -0.45593999997E+02  0.45594000000E+02  0.51100000000E-03 0.  1.
    9900012    2    1    2    0    0  0.24106075030E+02  0.13028293582E+02 -0.16305776174E+02  0.59301990158E+02  0.50000084130E+02 0.  0.
         12    1    1    2    0    0 -0.24106075030E+02 -0.13028293582E+02  0.16305776174E+02  0.31886009842E+02  0.00000000000E+00 0. -1.
         11    1    3    3    0    0  0.15848904171E+02 -0.89031387694E+01  0.55903179627E+01  0.19018551432E+02  0.51100000000E-03 0. -1.
        -11    1    3    3    0    0 -0.12667376556E+01 -0.29268964069E+01  0.25944278015E+01  0.41112531840E+01  0.51100000000E-03 0.  1.
        -12    1    3    3    0    0  0.95239085144E+01  0.24858328758E+02 -0.24490521938E+02  0.36172185542E+02  0.00000000000E+00 0.  1.
</event>
<event>
 7    1  0.6061051E-012  0.5930180E+02  0.7816164E-02  0.1266605E+00
        -11   -1    0    0    0    0  0.00000000000E+00  0.00000000000E+00  0.45593999997E+02  0.45594000000E+02  0.51100000000E-03 0. -1.
         11   -1    0    0    0    0 -0.00000000000E+00 -0.00000000000E+00 -0.45593999997E+02  0.45594000000E+02  0.51100000000E-03 0.  1.
    9900012    2    1    2    0    0  0.15472826236E+02 -0.26217148072E+01 -0.27756948371E+02  0.59301797292E+02  0.49999732388E+02 0.  0.
         12    1    1    2    0    0 -0.15472826236E+02  0.26217148072E+01  0.27756948371E+02  0.31886202708E+02  0.00000000000E+00 0. -1.
         11    1    3    3    0    0  0.23074796217E+02  0.60569648188E+01 -0.17615421040E+02  0.29655287926E+02  0.51100000000E-03 0. -1.
        -11    1    3    3    0    0 -0.19860780261E+01  0.42004039540E+01  0.64219669215E+01  0.79265098691E+01  0.51100000000E-03 0.  1.
        -12    1    3    3    0    0 -0.56158919546E+01 -0.12879083580E+02 -0.16563494252E+02  0.21719999497E+02  0.00000000000E+00 0.  1.
</event>
<event>
 7    1  0.6061051E-012  0.5930196E+02  0.7816164E-02  0.1266605E+00
        -11   -1    0    0    0    0  0.00000000000E+00  0.00000000000E+00  0.45593999997E+02  0.45594000000E+02  0.51100000000E-03 0. -1.
         11   -1    0    0    0    0 -0.00000000000E+00 -0.00000000000E+00 -0.45593999997E+02  0.45594000000E+02  0.51100000000E-03 0.  1.
    9900012    2    1    2    0    0  0.22063733464E+02 -0.21820287290E+02  0.73339093629E+01  0.59301960762E+02  0.50000030519E+02 0.  0.
         12    1    1    2    0    0 -0.22063733464E+02  0.21820287290E+02 -0.73339093629E+01  0.31886039238E+02  0.00000000000E+00 0. -1.
         11    1    3    3    0    0 -0.19496391975E+01  0.37342841019E+01 -0.35376994374E+00  0.42274252434E+01  0.51100000000E-03 0. -1.
        -11    1    3    3    0    0  0.27178812335E+02 -0.19098116069E+02 -0.11047558063E+02  0.35006776726E+02  0.51100000000E-03 0.  1.
         12    1    3    3    0    0 -0.31654396741E+01 -0.64564553222E+01  0.18735237369E+02  0.20067758792E+02  0.00000000000E+00 0. -1.
</event>
<event>
 7    1  0.6061051E-012  0.5930196E+02  0.7816164E-02  0.1266605E+00
        -11   -1    0    0    0    0  0.00000000000E+00  0.00000000000E+00  0.45593999997E+02  0.45594000000E+02  0.51100000000E-03 0. -1.
         11   -1    0    0    0    0 -0.00000000000E+00 -0.00000000000E+00 -0.45593999997E+02  0.45594000000E+02  0.51100000000E-03 0.  1.
    9900012    2    1    2    0    0  0.15528367608E+02 -0.12316069419E+02 -0.24978068384E+02  0.59301958121E+02  0.50000025703E+02 0.  0.
         12    1    1    2    0    0 -0.15528367608E+02  0.12316069419E+02  0.24978068384E+02  0.31886041879E+02  0.00000000000E+00 0. -1.
         11    1    3    3    0    0  0.12944730247E+02 -0.11738000698E+02  0.68113045433E+01  0.18754747969E+02  0.51100000000E-03 0. -1.
        -11    1    3    3    0    0  0.11311989081E+02 -0.52324165554E+01 -0.80704199405E+01  0.14848264487E+02  0.51100000000E-03 0.  1.
        -12    1    3    3    0    0 -0.87283517196E+01  0.46543478345E+01 -0.23718952987E+02  0.25698945665E+02  0.00000000000E+00 0.  1.
</event>
<event>
 7    1  0.6061051E-012  0.5930193E+02  0.7816164E-02  0.1266605E+00
        -11   -1    0    0    0    0  0.00000000000E+00  0.00000000000E+00  0.45593999997E+02  0.45594000000E+02  0.51100000000E-03 0.  1.
         11   -1    0    0    0    0 -0.00000000000E+00 -0.00000000000E+00 -0.45593999997E+02  0.45594000000E+02  0.51100000000E-03 0. -1.
    9900012    2    1    2    0    0  0.41888709923E+01  0.30387631406E+02  0.87043883094E+01  0.59301934728E+02  0.49999983040E+02 0.  0.
         12    1    1    2    0    0 -0.41888709923E+01 -0.30387631406E+02 -0.87043883094E+01  0.31886065272E+02  0.00000000000E+00 0. -1.
         11    1    3    3    0    0  0.67445383906E+01 -0.24881841547E+01 -0.23593105099E+01  0.75661221794E+01  0.51100000000E-03 0. -1.
        -11    1    3    3    0    0  0.19384898709E+01 -0.75220889353E+01  0.77196449628E+01  0.10951369026E+02  0.51100000000E-03 0.  1.
        -12    1    3    3    0    0 -0.44941572692E+01  0.40397904496E+02  0.33440538565E+01  0.40784443523E+02  0.00000000000E+00 0.  1.
</event>
<event>
 7    1  0.6061051E-012  0.5930189E+02  0.7816164E-02  0.1266605E+00
        -11   -1    0    0    0    0  0.00000000000E+00  0.00000000000E+00  0.45593999997E+02  0.45594000000E+02  0.51100000000E-03 0.  1.
         11   -1    0    0    0    0 -0.00000000000E+00 -0.00000000000E+00 -0.45593999997E+02  0.45594000000E+02  0.51100000000E-03 0. -1.
    9900012    2    1    2    0    0 -0.22523986188E+02 -0.11562221703E+02  0.19383220856E+02  0.59301887423E+02  0.49999896766E+02 0.  0.
         12    1    1    2    0    0  0.22523986188E+02  0.11562221703E+02 -0.19383220856E+02  0.31886112577E+02  0.00000000000E+00 0. -1.
         11    1    3    3    0    0 -0.10047956215E+02 -0.24521970589E+02  0.35735027140E+01  0.26740575678E+02  0.51100000000E-03 0. -1.
        -11    1    3    3    0    0 -0.83771060682E+01 -0.29062096251E+01  0.13297969316E+02  0.15983051919E+02  0.51100000000E-03 0.  1.
        -12    1    3    3    0    0 -0.40989239051E+01  0.15865958511E+02  0.25117488262E+01  0.16578259825E+02  0.00000000000E+00 0.  1.
</event>
<event>
 7    1  0.6061051E-012  0.5930194E+02  0.7816164E-02  0.1266605E+00
        -11   -1    0    0    0    0  0.00000000000E+00  0.00000000000E+00  0.45593999997E+02  0.45594000000E+02  0.51100000000E-03 0. -1.
         11   -1    0    0    0    0 -0.00000000000E+00 -0.00000000000E+00 -0.45593999997E+02  0.45594000000E+02  0.51100000000E-03 0.  1.
    9900012    2    1    2    0    0 -0.31330428716E+02 -0.59225832525E+01  0.21915635289E+00  0.59301940579E+02  0.49999993710E+02 0.  0.
         12    1    1    2    0    0  0.31330428716E+02  0.59225832525E+01 -0.21915635289E+00  0.31886059421E+02  0.00000000000E+00 0. -1.
         11    1    3    3    0    0 -0.14498282124E+02  0.73343878460E+01  0.13149591148E+02  0.20902276844E+02  0.51100000000E-03 0. -1.
        -11    1    3    3    0    0 -0.13048475053E+01 -0.10220270564E+02  0.73657747736E+01  0.12665354147E+02  0.51100000000E-03 0.  1.
        -12    1    3    3    0    0 -0.15527299087E+02 -0.30367005348E+01 -0.20296209569E+02  0.25734309587E+02  0.00000000000E+00 0.  1.
</event>
<event>
 7    1  0.6061051E-012  0.5930194E+02  0.7816164E-02  0.1266605E+00
        -11   -1    0    0    0    0  0.00000000000E+00  0.00000000000E+00  0.45593999997E+02  0.45594000000E+02  0.51100000000E-03 0.  1.
         11   -1    0    0    0    0 -0.00000000000E+00 -0.00000000000E+00 -0.45593999997E+02  0.45594000000E+02  0.51100000000E-03 0. -1.
    9900012    2    1    2    0    0 -0.28612262427E+02  0.12033525497E+02 -0.72974996109E+01  0.59301940387E+02  0.49999993360E+02 0.  0.
         12    1    1    2    0    0  0.28612262427E+02 -0.12033525497E+02  0.72974996109E+01  0.31886059613E+02  0.00000000000E+00 0. -1.
         11    1    3    3    0    0 -0.16686955261E+02 -0.12003551667E+02 -0.16277442056E+02  0.26220122972E+02  0.51100000000E-03 0. -1.
        -11    1    3    3    0    0  0.24759880895E+01  0.11798119300E+02  0.73341402427E+01  0.14110838012E+02  0.51100000000E-03 0.  1.
        -12    1    3    3    0    0 -0.14401295256E+02  0.12238957863E+02  0.16458022024E+01  0.18970979403E+02  0.00000000000E+00 0.  1.
</event>
<event>
 7    1  0.6061051E-012  0.5930196E+02  0.7816164E-02  0.1266605E+00
        -11   -1    0    0    0    0  0.00000000000E+00  0.00000000000E+00  0.45593999997E+02  0.45594000000E+02  0.51100000000E-03 0.  1.
         11   -1    0    0    0    0 -0.00000000000E+00 -0.00000000000E+00 -0.45593999997E+02  0.45594000000E+02  0.51100000000E-03 0. -1.
    9900012    2    1    2    0    0 -0.30895237171E+02  0.76266983464E+01  0.20093601691E+01  0.59301957038E+02  0.50000023728E+02 0.  0.
         12    1    1    2    0    0  0.30895237171E+02 -0.76266983464E+01 -0.20093601691E+01  0.31886042962E+02  0.00000000000E+00 0. -1.
         11    1    3    3    0    0 -0.66869214017E+01  0.38293351359E+01  0.28763468871E+01  0.82250894884E+01  0.51100000000E-03 0. -1.
        -11    1    3    3    0    0 -0.36551647052E+02 -0.32943479863E+01  0.10377822880E+01  0.36714474301E+02  0.51100000000E-03 0.  1.
         12    1    3    3    0    0  0.12343331283E+02  0.70917111968E+01 -0.19047690060E+01  0.14362393249E+02  0.00000000000E+00 0. -1.
</event>
<event>
 7    1  0.6061051E-012  0.5930193E+02  0.7816164E-02  0.1266605E+00
        -11   -1    0    0    0    0  0.00000000000E+00  0.00000000000E+00  0.45593999997E+02  0.45594000000E+02  0.51100000000E-03 0.  1.
         11   -1    0    0    0    0 -0.00000000000E+00 -0.00000000000E+00 -0.45593999997E+02  0.45594000000E+02  0.51100000000E-03 0. -1.
    9900012    2    1    2    0    0  0.39173732393E+01  0.29894075698E+02  0.10378817084E+02  0.59301930643E+02  0.49999975590E+02 0.  0.
         12    1    1    2    0    0 -0.39173732393E+01 -0.29894075698E+02 -0.10378817084E+02  0.31886069357E+02  0.00000000000E+00 0. -1.
         11    1    3    3    0    0 -0.87319968471E+01  0.13225913190E+02  0.41082289729E+01  0.16372235468E+02  0.51100000000E-03 0.  1.
        -11    1    3    3    0    0 -0.34259531197E+01  0.22379628239E+02 -0.40374176960E+01  0.22997514144E+02  0.51100000000E-03 0. -1.
        -12    1    3    3    0    0  0.16075323206E+02 -0.57114657307E+01  0.10308005807E+02  0.19932181032E+02  0.00000000000E+00 0.  1.
</event>
<event>
 7    1  0.6061051E-012  0.5930202E+02  0.7816164E-02  0.1266604E+00
        -11   -1    0    0    0    0  0.00000000000E+00  0.00000000000E+00  0.45593999997E+02  0.45594000000E+02  0.51100000000E-03 0.  1.
         11   -1    0    0    0    0 -0.00000000000E+00 -0.00000000000E+00 -0.45593999997E+02  0.45594000000E+02  0.51100000000E-03 0. -1.
    9900012    2    1    2    0    0  0.40135621724E+00  0.22576766446E+02  0.22513200864E+02  0.59302020587E+02  0.50000139626E+02 0.  0.
         12    1    1    2    0    0 -0.40135621724E+00 -0.22576766446E+02 -0.22513200864E+02  0.31885979413E+02  0.00000000000E+00 0. -1.
         11    1    3    3    0    0 -0.46059617207E+01 -0.48758930304E+01 -0.61571755278E+01  0.91049451925E+01  0.51100000000E-03 0. -1.
        -11    1    3    3    0    0  0.15204319962E+02  0.25888150425E+02  0.25539395183E+02  0.39416092963E+02  0.51100000000E-03 0.  1.
         12    1    3    3    0    0 -0.10197002024E+02  0.15645090519E+01  0.31309812095E+01  0.10780982431E+02  0.00000000000E+00 0. -1.
</event>
<event>
 7    1  0.6061051E-012  0.5930201E+02  0.7816164E-02  0.1266605E+00
        -11   -1    0    0    0    0  0.00000000000E+00  0.00000000000E+00  0.45593999997E+02  0.45594000000E+02  0.51100000000E-03 0.  1.
         11   -1    0    0    0    0 -0.00000000000E+00 -0.00000000000E+00 -0.45593999997E+02  0.45594000000E+02  0.51100000000E-03 0. -1.
    9900012    2    1    2    0    0  0.72676544282E+00  0.26807376208E+01  0.31764783968E+02  0.59302014948E+02  0.50000129341E+02 0.  0.
         12    1    1    2    0    0 -0.72676544282E+00 -0.26807376208E+01 -0.31764783968E+02  0.31885985052E+02  0.00000000000E+00 0. -1.
         11    1    3    3    0    0  0.80860656752E+01 -0.53660276984E+01  0.13620351352E+02  0.16724015146E+02  0.51100000000E-03 0. -1.
        -11    1    3    3    0    0 -0.53459125390E+01 -0.69464413937E+01  0.24611539352E+02  0.26125843497E+02  0.51100000000E-03 0.  1.
         12    1    3    3    0    0 -0.20133876934E+01  0.14993206713E+02 -0.64671067361E+01  0.16452156305E+02  0.00000000000E+00 0. -1.
</event>
<event>
 7    1  0.6061051E-012  0.5930194E+02  0.7816164E-02  0.1266605E+00
        -11   -1    0    0    0    0  0.00000000000E+00  0.00000000000E+00  0.45593999997E+02  0.45594000000E+02  0.51100000000E-03 0. -1.
         11   -1    0    0    0    0 -0.00000000000E+00 -0.00000000000E+00 -0.45593999997E+02  0.45594000000E+02  0.51100000000E-03 0.  1.
    9900012    2    1    2    0    0  0.22793011809E+02  0.22155872528E+02 -0.25132930740E+01  0.59301941653E+02  0.49999995670E+02 0.  0.
         12    1    1    2    0    0 -0.22793011809E+02 -0.22155872528E+02  0.25132930740E+01  0.31886058347E+02  0.00000000000E+00 0. -1.
         11    1    3    3    0    0  0.15808581445E+02  0.96961377304E+01  0.15064381328E+02  0.23892716866E+02  0.51100000000E-03 0. -1.
        -11    1    3    3    0    0  0.34818666653E+01  0.16422611177E+02  0.27468184681E+00  0.16789907794E+02  0.51100000000E-03 0.  1.
         12    1    3    3    0    0  0.35025636982E+01 -0.39628763791E+01 -0.17852356249E+02  0.18619316993E+02  0.00000000000E+00 0. -1.
</event>
<event>
 7    1  0.6061051E-012  0.5930194E+02  0.7816164E-02  0.1266605E+00
        -11   -1    0    0    0    0  0.00000000000E+00  0.00000000000E+00  0.45593999997E+02  0.45594000000E+02  0.51100000000E-03 0.  1.
         11   -1    0    0    0    0 -0.00000000000E+00 -0.00000000000E+00 -0.45593999997E+02  0.45594000000E+02  0.51100000000E-03 0. -1.
    9900012    2    1    2    0    0  0.19109575923E+02  0.13230755265E+02  0.21828694858E+02  0.59301941980E+02  0.49999996266E+02 0.  0.
         12    1    1    2    0    0 -0.19109575923E+02 -0.13230755265E+02 -0.21828694858E+02  0.31886058020E+02  0.00000000000E+00 0. -1.
         11    1    3    3    0    0 -0.21380931965E+00  0.18126310102E+02 -0.42065971979E+01  0.18609252876E+02  0.51100000000E-03 0. -1.
        -11    1    3    3    0    0 -0.24516825542E+01 -0.87591924324E+01  0.87821048091E+01  0.12643558224E+02  0.51100000000E-03 0.  1.
         12    1    3    3    0    0  0.21775067796E+02  0.38636375950E+01  0.17253187247E+02  0.28049130881E+02  0.00000000000E+00 0. -1.
</event>
<event>
 7    1  0.6061051E-012  0.5930195E+02  0.7816164E-02  0.1266605E+00
        -11   -1    0    0    0    0  0.00000000000E+00  0.00000000000E+00  0.45593999997E+02  0.45594000000E+02  0.51100000000E-03 0. -1.
         11   -1    0    0    0    0 -0.00000000000E+00 -0.00000000000E+00 -0.45593999997E+02  0.45594000000E+02  0.51100000000E-03 0.  1.
    9900012    2    1    2    0    0  0.19343848303E+02 -0.24801207968E+02  0.52379289728E+01  0.59301948446E+02  0.50000008057E+02 0.  0.
         12    1    1    2    0    0 -0.19343848303E+02  0.24801207968E+02 -0.52379289728E+01  0.31886051554E+02  0.00000000000E+00 0. -1.
         11    1    3    3    0    0  0.88737506369E+01 -0.13167656768E+02 -0.82407273873E+01  0.17889668059E+02  0.51100000000E-03 0. -1.
        -11    1    3    3    0    0  0.13964087072E+02  0.56449850411E+01 -0.50034683613E+01  0.15871240650E+02  0.51100000000E-03 0.  1.
         12    1    3    3    0    0 -0.34939894066E+01 -0.17278536241E+02  0.18482124721E+02  0.25541039736E+02  0.00000000000E+00 0. -1.
</event>
<event>
 7    1  0.6061051E-012  0.5930194E+02  0.7816164E-02  0.1266605E+00
        -11   -1    0    0    0    0  0.00000000000E+00  0.00000000000E+00  0.45593999997E+02  0.45594000000E+02  0.51100000000E-03 0. -1.
         11   -1    0    0    0    0 -0.00000000000E+00 -0.00000000000E+00 -0.45593999997E+02  0.45594000000E+02  0.51100000000E-03 0.  1.
    9900012    2    1    2    0    0  0.91260692856E+01  0.26126694979E+02 -0.15837651863E+02  0.59301944307E+02  0.50000000509E+02 0.  0.
         12    1    1    2    0    0 -0.91260692856E+01 -0.26126694979E+02  0.15837651863E+02  0.31886055693E+02  0.00000000000E+00 0. -1.
         11    1    3    3    0    0  0.71260928349E+01 -0.70829349142E+01 -0.50301642095E+01  0.11236178991E+02  0.51100000000E-03 0. -1.
        -11    1    3    3    0    0  0.13666294669E+02  0.45143307272E+01  0.20295597495E+01  0.14534988990E+02  0.51100000000E-03 0.  1.
        -12    1    3    3    0    0 -0.11666318218E+02  0.28695299166E+02 -0.12837047403E+02  0.33530776326E+02  0.00000000000E+00 0.  1.
</event>
<event>
 7    1  0.6061051E-012  0.5930189E+02  0.7816164E-02  0.1266605E+00
        -11   -1    0    0    0    0  0.00000000000E+00  0.00000000000E+00  0.45593999997E+02  0.45594000000E+02  0.51100000000E-03 0.  1.
         11   -1    0    0    0    0 -0.00000000000E+00 -0.00000000000E+00 -0.45593999997E+02  0.45594000000E+02  0.51100000000E-03 0. -1.
    9900012    2    1    2    0    0 -0.30717002547E+02  0.24557319810E+01  0.81950815967E+01  0.59301886606E+02  0.49999895276E+02 0.  0.
         12    1    1    2    0    0  0.30717002547E+02 -0.24557319810E+01 -0.81950815967E+01  0.31886113394E+02  0.00000000000E+00 0. -1.
         11    1    3    3    0    0 -0.96466546625E+01  0.65146597897E+01  0.15874405839E+02  0.19684905368E+02  0.51100000000E-03 0.  1.
        -11    1    3    3    0    0  0.42298587077E+01  0.93197997954E+01 -0.16076771022E+01  0.10360260558E+02  0.51100000000E-03 0. -1.
         12    1    3    3    0    0 -0.25300206592E+02 -0.13378727604E+02 -0.60716471400E+01  0.29256720679E+02  0.00000000000E+00 0. -1.
</event>
<event>
 7    1  0.6061051E-012  0.5930194E+02  0.7816164E-02  0.1266605E+00
        -11   -1    0    0    0    0  0.00000000000E+00  0.00000000000E+00  0.45593999997E+02  0.45594000000E+02  0.51100000000E-03 0. -1.
         11   -1    0    0    0    0 -0.00000000000E+00 -0.00000000000E+00 -0.45593999997E+02  0.45594000000E+02  0.51100000000E-03 0.  1.
    9900012    2    1    2    0    0  0.23834733921E+02 -0.21103349830E+02 -0.18096682866E+01  0.59301940124E+02  0.49999992881E+02 0.  0.
         12    1    1    2    0    0 -0.23834733921E+02  0.21103349830E+02  0.18096682866E+01  0.31886059876E+02  0.00000000000E+00 0. -1.
         11    1    3    3    0    0  0.10547488678E+02  0.59277118041E+01 -0.89001464695E+01  0.15019983092E+02  0.51100000000E-03 0. -1.
        -11    1    3    3    0    0  0.11923627435E+02  0.40502868929E+01  0.23917858079E+01  0.12817891977E+02  0.51100000000E-03 0.  1.
         12    1    3    3    0    0  0.13636178076E+01 -0.31081348527E+02  0.46986923750E+01  0.31464065055E+02  0.00000000000E+00 0. -1.
</event>
<event>
 7    1  0.6061051E-012  0.5930195E+02  0.7816164E-02  0.1266605E+00
        -11   -1    0    0    0    0  0.00000000000E+00  0.00000000000E+00  0.45593999997E+02  0.45594000000E+02  0.51100000000E-03 0.  1.
         11   -1    0    0    0    0 -0.00000000000E+00 -0.00000000000E+00 -0.45593999997E+02  0.45594000000E+02  0.51100000000E-03 0. -1.
    9900012    2    1    2    0    0 -0.29442129519E+02  0.12239952850E+02  0.25488474428E+00  0.59301946582E+02  0.50000004658E+02 0.  0.
         12    1    1    2    0    0  0.29442129519E+02 -0.12239952850E+02 -0.25488474428E+00  0.31886053418E+02  0.00000000000E+00 0. -1.
         11    1    3    3    0    0 -0.12234396265E+01  0.94937057994E+01 -0.15066846905E+02  0.17850409806E+02  0.51100000000E-03 0. -1.
        -11    1    3    3    0    0 -0.21678421022E+02  0.13712398676E+02  0.88363875290E+01  0.27130528197E+02  0.51100000000E-03 0.  1.
        -12    1    3    3    0    0 -0.65402688705E+01 -0.10966151625E+02  0.64853441198E+01  0.14321008579E+02  0.00000000000E+00 0.  1.
</event>
<event>
 7    1  0.6061051E-012  0.5930194E+02  0.7816164E-02  0.1266605E+00
        -11   -1    0    0    0    0  0.00000000000E+00  0.00000000000E+00  0.45593999997E+02  0.45594000000E+02  0.51100000000E-03 0.  1.
         11   -1    0    0    0    0 -0.00000000000E+00 -0.00000000000E+00 -0.45593999997E+02  0.45594000000E+02  0.51100000000E-03 0. -1.
    9900012    2    1    2    0    0  0.16123875400E+02 -0.12108494362E+02  0.24700724374E+02  0.59301940691E+02  0.49999993914E+02 0.  0.
         12    1    1    2    0    0 -0.16123875400E+02  0.12108494362E+02 -0.24700724374E+02  0.31886059309E+02  0.00000000000E+00 0. -1.
         11    1    3    3    0    0 -0.16417304279E+02  0.46963633428E+00  0.13066383753E+02  0.20987587349E+02  0.51100000000E-03 0. -1.
        -11    1    3    3    0    0  0.64091148621E+01 -0.72330257278E+01  0.47439992411E+01  0.10765637164E+02  0.51100000000E-03 0.  1.
        -12    1    3    3    0    0  0.26132064817E+02 -0.53451049690E+01  0.68903413801E+01  0.27548716178E+02  0.00000000000E+00 0.  1.
</event>
<event>
 7    1  0.6061051E-012  0.5930197E+02  0.7816164E-02  0.1266605E+00
        -11   -1    0    0    0    0  0.00000000000E+00  0.00000000000E+00  0.45593999997E+02  0.45594000000E+02  0.51100000000E-03 0.  1.
         11   -1    0    0    0    0 -0.00000000000E+00 -0.00000000000E+00 -0.45593999997E+02  0.45594000000E+02  0.51100000000E-03 0. -1.
    9900012    2    1    2    0    0 -0.31221571604E+01  0.27729746750E+02  0.15428291111E+02  0.59301970351E+02  0.50000048008E+02 0.  0.
         12    1    1    2    0    0  0.31221571604E+01 -0.27729746750E+02 -0.15428291111E+02  0.31886029649E+02  0.00000000000E+00 0. -1.
         11    1    3    3    0    0 -0.11462876066E+02  0.55506949001E+01  0.76867658728E+01  0.14875957496E+02  0.51100000000E-03 0. -1.
        -11    1    3    3    0    0  0.68043011207E+01  0.32094099152E+02  0.96828670625E+01  0.34206543657E+02  0.51100000000E-03 0.  1.
         12    1    3    3    0    0  0.15364177846E+01 -0.99150473025E+01 -0.19413418242E+01  0.10219469198E+02  0.00000000000E+00 0. -1.
</event>
<event>
 7    1  0.6061051E-012  0.5930191E+02  0.7816164E-02  0.1266605E+00
        -11   -1    0    0    0    0  0.00000000000E+00  0.00000000000E+00  0.45593999997E+02  0.45594000000E+02  0.51100000000E-03 0.  1.
         11   -1    0    0    0    0 -0.00000000000E+00 -0.00000000000E+00 -0.45593999997E+02  0.45594000000E+02  0.51100000000E-03 0. -1.
    9900012    2    1    2    0    0  0.26880979329E+02  0.14300056796E+02  0.94680675297E+01  0.59301906216E+02  0.49999931041E+02 0.  0.
         12    1    1    2    0    0 -0.26880979329E+02 -0.14300056796E+02 -0.94680675297E+01  0.31886093784E+02  0.00000000000E+00 0. -1.
         11    1    3    3    0    0  0.50684061976E+01 -0.10258283759E+01 -0.99220200639E+01  0.11188724130E+02  0.51100000000E-03 0. -1.
        -11    1    3    3    0    0  0.62046112840E+01  0.41288313577E+01 -0.10322693620E+02  0.12731946175E+02  0.51100000000E-03 0.  1.
        -12    1    3    3    0    0  0.15607961847E+02  0.11197053814E+02  0.29712781214E+02  0.35381235911E+02  0.00000000000E+00 0.  1.
</event>
<event>
 7    1  0.6061051E-012  0.5930195E+02  0.7816164E-02  0.1266605E+00
        -11   -1    0    0    0    0  0.00000000000E+00  0.00000000000E+00  0.45593999997E+02  0.45594000000E+02  0.51100000000E-03 0.  1.
         11   -1    0    0    0    0 -0.00000000000E+00 -0.00000000000E+00 -0.45593999997E+02  0.45594000000E+02  0.51100000000E-03 0. -1.
    9900012    2    1    2    0    0  0.31506211962E+02  0.43098078316E+01 -0.23461561914E+01  0.59301948431E+02  0.50000008031E+02 0.  0.
         12    1    1    2    0    0 -0.31506211962E+02 -0.43098078316E+01  0.23461561914E+01  0.31886051569E+02  0.00000000000E+00 0. -1.
         11    1    3    3    0    0  0.27503362793E+02 -0.10837529950E+02 -0.28719059253E+01  0.29700755280E+02  0.51100000000E-03 0. -1.
        -11    1    3    3    0    0  0.26196524956E+01 -0.69031419091E+01  0.12842951495E+01  0.74943553229E+01  0.51100000000E-03 0.  1.
        -12    1    3    3    0    0  0.13831966744E+01  0.22050479690E+02 -0.75854541550E+00  0.22106837828E+02  0.00000000000E+00 0.  1.
</event>
<event>
 7    1  0.6061051E-012  0.5930195E+02  0.7816164E-02  0.1266605E+00
        -11   -1    0    0    0    0  0.00000000000E+00  0.00000000000E+00  0.45593999997E+02  0.45594000000E+02  0.51100000000E-03 0.  1.
         11   -1    0    0    0    0 -0.00000000000E+00 -0.00000000000E+00 -0.45593999997E+02  0.45594000000E+02  0.51100000000E-03 0. -1.
    9900012    2    1    2    0    0  0.68417356903E+01 -0.13923444574E+02  0.27857653064E+02  0.59301945206E+02  0.50000002150E+02 0.  0.
         12    1    1    2    0    0 -0.68417356903E+01  0.13923444574E+02 -0.27857653064E+02  0.31886054794E+02  0.00000000000E+00 0. -1.
         11    1    3    3    0    0  0.78240511612E+01  0.13030957115E+02  0.77368328069E+01  0.17055210408E+02  0.51100000000E-03 0. -1.
        -11    1    3    3    0    0  0.31710209440E+01 -0.18189317593E+01  0.16033093563E+02  0.16444572845E+02  0.51100000000E-03 0.  1.
        -12    1    3    3    0    0 -0.41533364149E+01 -0.25135469930E+02  0.40877266941E+01  0.25802161954E+02  0.00000000000E+00 0.  1.
</event>
<event>
 7    1  0.6061051E-012  0.5930193E+02  0.7816164E-02  0.1266605E+00
        -11   -1    0    0    0    0  0.00000000000E+00  0.00000000000E+00  0.45593999997E+02  0.45594000000E+02  0.51100000000E-03 0.  1.
         11   -1    0    0    0    0 -0.00000000000E+00 -0.00000000000E+00 -0.45593999997E+02  0.45594000000E+02  0.51100000000E-03 0. -1.
    9900012    2    1    2    0    0  0.16398051237E+02  0.22915998613E+01  0.27250211350E+02  0.59301928857E+02  0.49999972333E+02 0.  0.
         12    1    1    2    0    0 -0.16398051237E+02 -0.22915998613E+01 -0.27250211350E+02  0.31886071143E+02  0.00000000000E+00 0. -1.
         11    1    3    3    0    0 -0.10504928142E+02  0.32718701031E+01 -0.80466904553E+00  0.11032050660E+02  0.51100000000E-03 0. -1.
        -11    1    3    3    0    0  0.76624448085E+01  0.75907777991E+01  0.24685341012E+02  0.26938801554E+02  0.51100000000E-03 0.  1.
         12    1    3    3    0    0  0.19240534571E+02 -0.85710480409E+01  0.33695393831E+01  0.21331076643E+02  0.00000000000E+00 0. -1.
</event>
<event>
 7    1  0.6061051E-012  0.5930231E+02  0.7816164E-02  0.1266604E+00
        -11   -1    0    0    0    0  0.00000000000E+00  0.00000000000E+00  0.45593999997E+02  0.45594000000E+02  0.51100000000E-03 0.  1.
         11   -1    0    0    0    0 -0.00000000000E+00 -0.00000000000E+00 -0.45593999997E+02  0.45594000000E+02  0.51100000000E-03 0. -1.
    9900012    2    1    2    0    0 -0.13680433766E+02  0.20808499343E+02  0.19913550576E+02  0.59302307135E+02  0.50000662217E+02 0.  0.
         12    1    1    2    0    0  0.13680433766E+02 -0.20808499343E+02 -0.19913550576E+02  0.31885692865E+02  0.00000000000E+00 0. -1.
         11    1    3    3    0    0 -0.89415092421E+01  0.70910580530E+01 -0.85708986972E+01  0.14272140574E+02  0.51100000000E-03 0. -1.
        -11    1    3    3    0    0 -0.73023159060E+01  0.20332944324E+02  0.74845814016E+01  0.22864194748E+02  0.51100000000E-03 0.  1.
        -12    1    3    3    0    0  0.25633913822E+01 -0.66155030343E+01  0.20999867871E+02  0.22165971812E+02  0.00000000000E+00 0.  1.
</event>
<event>
 7    1  0.6061051E-012  0.5930197E+02  0.7816164E-02  0.1266605E+00
        -11   -1    0    0    0    0  0.00000000000E+00  0.00000000000E+00  0.45593999997E+02  0.45594000000E+02  0.51100000000E-03 0.  1.
         11   -1    0    0    0    0 -0.00000000000E+00 -0.00000000000E+00 -0.45593999997E+02  0.45594000000E+02  0.51100000000E-03 0. -1.
    9900012    2    1    2    0    0 -0.57157576825E+01 -0.30949389456E+02  0.51170719589E+01  0.59301968277E+02  0.50000044225E+02 0.  0.
         12    1    1    2    0    0  0.57157576825E+01  0.30949389456E+02 -0.51170719589E+01  0.31886031723E+02  0.00000000000E+00 0. -1.
         11    1    3    3    0    0 -0.30249088887E+01 -0.70462258951E+01 -0.19948526427E+02  0.21371548377E+02  0.51100000000E-03 0. -1.
        -11    1    3    3    0    0 -0.86917006744E+01 -0.10587225411E+02  0.10100864216E+02  0.17019472984E+02  0.51100000000E-03 0.  1.
        -12    1    3    3    0    0  0.60008518806E+01 -0.13315938151E+02  0.14964734170E+02  0.20910946916E+02  0.00000000000E+00 0.  1.
</event>
<event>
 7    1  0.6061051E-012  0.5930192E+02  0.7816164E-02  0.1266605E+00
        -11   -1    0    0    0    0  0.00000000000E+00  0.00000000000E+00  0.45593999997E+02  0.45594000000E+02  0.51100000000E-03 0.  1.
         11   -1    0    0    0    0 -0.00000000000E+00 -0.00000000000E+00 -0.45593999997E+02  0.45594000000E+02  0.51100000000E-03 0. -1.
    9900012    2    1    2    0    0 -0.17680268103E+02 -0.16531258133E+02  0.20756878598E+02  0.59301915499E+02  0.49999947971E+02 0.  0.
         12    1    1    2    0    0  0.17680268103E+02  0.16531258133E+02 -0.20756878598E+02  0.31886084501E+02  0.00000000000E+00 0. -1.
         11    1    3    3    0    0 -0.16866938357E+02 -0.86500628337E+01  0.83010324178E+01  0.20693582001E+02  0.51100000000E-03 0. -1.
        -11    1    3    3    0    0 -0.76898476251E+01 -0.19893258310E+02  0.12589995254E+02  0.24766579567E+02  0.51100000000E-03 0.  1.
         12    1    3    3    0    0  0.68765178791E+01  0.12012063011E+02 -0.13414907357E+00  0.13841753931E+02  0.00000000000E+00 0. -1.
</event>
<event>
 7    1  0.6061051E-012  0.5930194E+02  0.7816164E-02  0.1266605E+00
        -11   -1    0    0    0    0  0.00000000000E+00  0.00000000000E+00  0.45593999997E+02  0.45594000000E+02  0.51100000000E-03 0. -1.
         11   -1    0    0    0    0 -0.00000000000E+00 -0.00000000000E+00 -0.45593999997E+02  0.45594000000E+02  0.51100000000E-03 0.  1.
    9900012    2    1    2    0    0 -0.21813863046E+02  0.20031258574E+01 -0.23170322263E+02  0.59301937716E+02  0.49999988489E+02 0.  0.
         12    1    1    2    0    0  0.21813863046E+02 -0.20031258574E+01  0.23170322263E+02  0.31886062284E+02  0.00000000000E+00 0. -1.
         11    1    3    3    0    0 -0.55334909071E+01  0.16137041610E+02 -0.29149907959E+01  0.17306669383E+02  0.51100000000E-03 0. -1.
        -11    1    3    3    0    0 -0.34503642573E+01  0.77208015351E+01 -0.13221729139E+02  0.15694900813E+02  0.51100000000E-03 0.  1.
         12    1    3    3    0    0 -0.12830007882E+02 -0.21854717287E+02 -0.70336023284E+01  0.26300367520E+02  0.00000000000E+00 0. -1.
</event>
<event>
 7    1  0.6061051E-012  0.5930196E+02  0.7816164E-02  0.1266605E+00
        -11   -1    0    0    0    0  0.00000000000E+00  0.00000000000E+00  0.45593999997E+02  0.45594000000E+02  0.51100000000E-03 0.  1.
         11   -1    0    0    0    0 -0.00000000000E+00 -0.00000000000E+00 -0.45593999997E+02  0.45594000000E+02  0.51100000000E-03 0. -1.
    9900012    2    1    2    0    0  0.18967557015E+02  0.22503494388E+02  0.12269640005E+02  0.59301960035E+02  0.50000029194E+02 0.  0.
         12    1    1    2    0    0 -0.18967557015E+02 -0.22503494388E+02 -0.12269640005E+02  0.31886039965E+02  0.00000000000E+00 0. -1.
         11    1    3    3    0    0  0.45699945916E+01  0.18495711956E+02 -0.14597862272E+02  0.24001537336E+02  0.51100000000E-03 0. -1.
        -11    1    3    3    0    0  0.98277143622E+01  0.59915459632E+01  0.44570736215E+01  0.12342937176E+02  0.51100000000E-03 0.  1.
        -12    1    3    3    0    0  0.45698480608E+01 -0.19837635309E+01  0.22410428655E+02  0.22957485523E+02  0.00000000000E+00 0.  1.
</event>
<event>
 7    1  0.6061051E-012  0.5930212E+02  0.7816164E-02  0.1266604E+00
        -11   -1    0    0    0    0  0.00000000000E+00  0.00000000000E+00  0.45593999997E+02  0.45594000000E+02  0.51100000000E-03 0.  1.
         11   -1    0    0    0    0 -0.00000000000E+00 -0.00000000000E+00 -0.45593999997E+02  0.45594000000E+02  0.51100000000E-03 0. -1.
    9900012    2    1    2    0    0 -0.28465751179E+02  0.51643653161E+01  0.13406701497E+02  0.59302120612E+02  0.50000322046E+02 0.  0.
         12    1    1    2    0    0  0.28465751179E+02 -0.51643653161E+01 -0.13406701497E+02  0.31885879388E+02  0.00000000000E+00 0. -1.
         11    1    3    3    0    0 -0.15632577407E+02  0.81534550083E+00 -0.14754012885E+02  0.21511000932E+02  0.51100000000E-03 0. -1.
        -11    1    3    3    0    0  0.26413984171E+01  0.87247969380E+01  0.98342516375E+01  0.13409383757E+02  0.51100000000E-03 0.  1.
        -12    1    3    3    0    0 -0.15474572190E+02 -0.43757771227E+01  0.18326462744E+02  0.24381735923E+02  0.00000000000E+00 0.  1.
</event>
<event>
 7    1  0.6061051E-012  0.5930197E+02  0.7816164E-02  0.1266605E+00
        -11   -1    0    0    0    0  0.00000000000E+00  0.00000000000E+00  0.45593999997E+02  0.45594000000E+02  0.51100000000E-03 0.  1.
         11   -1    0    0    0    0 -0.00000000000E+00 -0.00000000000E+00 -0.45593999997E+02  0.45594000000E+02  0.51100000000E-03 0. -1.
    9900012    2    1    2    0    0 -0.28988500454E+02 -0.14721798049E+01  0.13199183386E+02  0.59301969924E+02  0.50000047229E+02 0.  0.
         12    1    1    2    0    0  0.28988500454E+02  0.14721798049E+01 -0.13199183386E+02  0.31886030076E+02  0.00000000000E+00 0. -1.
         11    1    3    3    0    0 -0.75381487664E+01 -0.10829438063E+01 -0.14018926118E+02  0.15953894317E+02  0.51100000000E-03 0. -1.
        -11    1    3    3    0    0 -0.39067295295E+01  0.10912885937E+02  0.15688351716E+02  0.19505845148E+02  0.51100000000E-03 0.  1.
        -12    1    3    3    0    0 -0.17543622158E+02 -0.11302121935E+02  0.11529757787E+02  0.23842230460E+02  0.00000000000E+00 0.  1.
</event>
<event>
 7    1  0.6061051E-012  0.5930198E+02  0.7816164E-02  0.1266605E+00
        -11   -1    0    0    0    0  0.00000000000E+00  0.00000000000E+00  0.45593999997E+02  0.45594000000E+02  0.51100000000E-03 0.  1.
         11   -1    0    0    0    0 -0.00000000000E+00 -0.00000000000E+00 -0.45593999997E+02  0.45594000000E+02  0.51100000000E-03 0. -1.
    9900012    2    1    2    0    0 -0.16230348815E+02 -0.16472384239E+02  0.21953471272E+02  0.59301975380E+02  0.50000057180E+02 0.  0.
         12    1    1    2    0    0  0.16230348815E+02  0.16472384239E+02 -0.21953471272E+02  0.31886024620E+02  0.00000000000E+00 0. -1.
         11    1    3    3    0    0 -0.73795076958E+01 -0.81538263945E+01  0.10574542841E+02  0.15256571543E+02  0.51100000000E-03 0. -1.
        -11    1    3    3    0    0 -0.30217216990E+01 -0.21209239969E+02  0.18410188543E+02  0.28247083116E+02  0.51100000000E-03 0.  1.
         12    1    3    3    0    0 -0.58291194200E+01  0.12890682125E+02 -0.70312601119E+01  0.15798320721E+02  0.00000000000E+00 0. -1.
</event>
<event>
 7    1  0.6061051E-012  0.5930190E+02  0.7816164E-02  0.1266605E+00
        -11   -1    0    0    0    0  0.00000000000E+00  0.00000000000E+00  0.45593999997E+02  0.45594000000E+02  0.51100000000E-03 0.  1.
         11   -1    0    0    0    0 -0.00000000000E+00 -0.00000000000E+00 -0.45593999997E+02  0.45594000000E+02  0.51100000000E-03 0. -1.
    9900012    2    1    2    0    0  0.55275869372E+01  0.14349275420E+02  0.27933270703E+02  0.59301897469E+02  0.49999915089E+02 0.  0.
         12    1    1    2    0    0 -0.55275869372E+01 -0.14349275420E+02 -0.27933270703E+02  0.31886102531E+02  0.00000000000E+00 0. -1.
         11    1    3    3    0    0  0.22621170701E+01  0.12469185387E+02  0.64324526530E+01  0.14211762919E+02  0.51100000000E-03 0. -1.
        -11    1    3    3    0    0  0.80598887540E+01  0.12274915553E+02  0.28223309124E+02  0.31814942036E+02  0.51100000000E-03 0.  1.
         12    1    3    3    0    0 -0.47944188869E+01 -0.10394825520E+02 -0.67224910742E+01  0.13275192515E+02  0.00000000000E+00 0. -1.
</event>
<event>
 7    1  0.6061051E-012  0.5930191E+02  0.7816164E-02  0.1266605E+00
        -11   -1    0    0    0    0  0.00000000000E+00  0.00000000000E+00  0.45593999997E+02  0.45594000000E+02  0.51100000000E-03 0.  1.
         11   -1    0    0    0    0 -0.00000000000E+00 -0.00000000000E+00 -0.45593999997E+02  0.45594000000E+02  0.51100000000E-03 0. -1.
    9900012    2    1    2    0    0 -0.15728878098E+02  0.27589720590E+02 -0.28516918355E+01  0.59301914715E+02  0.49999946540E+02 0.  0.
         12    1    1    2    0    0  0.15728878098E+02 -0.27589720590E+02  0.28516918355E+01  0.31886085285E+02  0.00000000000E+00 0. -1.
         11    1    3    3    0    0 -0.17420587132E+00  0.51881116228E+01  0.43163839516E+01  0.67511495744E+01  0.51100000000E-03 0. -1.
        -11    1    3    3    0    0 -0.26545419625E+02  0.27080309214E+02 -0.11837074752E+02  0.39725543283E+02  0.51100000000E-03 0.  1.
         12    1    3    3    0    0  0.10990747398E+02 -0.46787002461E+01  0.46689989652E+01  0.12825221858E+02  0.00000000000E+00 0. -1.
</event>
<event>
 7    1  0.6061051E-012  0.5930184E+02  0.7816164E-02  0.1266605E+00
        -11   -1    0    0    0    0  0.00000000000E+00  0.00000000000E+00  0.45593999997E+02  0.45594000000E+02  0.51100000000E-03 0.  1.
         11   -1    0    0    0    0 -0.00000000000E+00 -0.00000000000E+00 -0.45593999997E+02  0.45594000000E+02  0.51100000000E-03 0. -1.
    9900012    2    1    2    0    0  0.48090245092E+01 -0.80091465519E+00  0.31511247395E+02  0.59301844801E+02  0.49999819034E+02 0.  0.
         12    1    1    2    0    0 -0.48090245092E+01  0.80091465519E+00 -0.31511247395E+02  0.31886155199E+02  0.00000000000E+00 0. -1.
         11    1    3    3    0    0  0.66584799821E+01 -0.62373216759E+01  0.16959715606E+02  0.19258024069E+02  0.51100000000E-03 0. -1.
        -11    1    3    3    0    0 -0.16357934557E+02 -0.73218996893E+01  0.58296457308E+01  0.18846140391E+02  0.51100000000E-03 0.  1.
         12    1    3    3    0    0  0.14508479084E+02  0.12758306710E+02  0.87218860578E+01  0.21197680341E+02  0.00000000000E+00 0. -1.
</event>
<event>
 7    1  0.6061051E-012  0.5930192E+02  0.7816164E-02  0.1266605E+00
        -11   -1    0    0    0    0  0.00000000000E+00  0.00000000000E+00  0.45593999997E+02  0.45594000000E+02  0.51100000000E-03 0.  1.
         11   -1    0    0    0    0 -0.00000000000E+00 -0.00000000000E+00 -0.45593999997E+02  0.45594000000E+02  0.51100000000E-03 0. -1.
    9900012    2    1    2    0    0 -0.31307547176E+02 -0.37833163405E+01  0.47165561057E+01  0.59301923192E+02  0.49999962000E+02 0.  0.
         12    1    1    2    0    0  0.31307547176E+02  0.37833163405E+01 -0.47165561057E+01  0.31886076808E+02  0.00000000000E+00 0. -1.
         11    1    3    3    0    0  0.42286411607E+01 -0.84254618338E+01 -0.45226549316E+00  0.94379212497E+01  0.51100000000E-03 0. -1.
        -11    1    3    3    0    0 -0.24027600567E+02 -0.13577897203E+02 -0.41591591934E+00  0.27601772910E+02  0.51100000000E-03 0.  1.
        -12    1    3    3    0    0 -0.11508587771E+02  0.18220042697E+02  0.55847375182E+01  0.22262229032E+02  0.00000000000E+00 0.  1.
</event>
<event>
 7    1  0.6061051E-012  0.5930196E+02  0.7816164E-02  0.1266605E+00
        -11   -1    0    0    0    0  0.00000000000E+00  0.00000000000E+00  0.45593999997E+02  0.45594000000E+02  0.51100000000E-03 0. -1.
         11   -1    0    0    0    0 -0.00000000000E+00 -0.00000000000E+00 -0.45593999997E+02  0.45594000000E+02  0.51100000000E-03 0.  1.
    9900012    2    1    2    0    0 -0.27261779272E+01 -0.92607137903E+01 -0.30389585396E+02  0.59301956556E+02  0.50000022849E+02 0.  0.
         12    1    1    2    0    0  0.27261779272E+01  0.92607137903E+01  0.30389585396E+02  0.31886043444E+02  0.00000000000E+00 0. -1.
         11    1    3    3    0    0 -0.40738380117E+00 -0.57766683551E+01  0.37395223915E+01  0.68934669669E+01  0.51100000000E-03 0. -1.
        -11    1    3    3    0    0  0.13244973451E+02  0.11904679877E+02 -0.13699731820E+02  0.22468497433E+02  0.51100000000E-03 0.  1.
        -12    1    3    3    0    0 -0.15563767577E+02 -0.15388725312E+02 -0.20429375967E+02  0.29939992157E+02  0.00000000000E+00 0.  1.
</event>
<event>
 7    1  0.6061051E-012  0.5930194E+02  0.7816164E-02  0.1266605E+00
        -11   -1    0    0    0    0  0.00000000000E+00  0.00000000000E+00  0.45593999997E+02  0.45594000000E+02  0.51100000000E-03 0.  1.
         11   -1    0    0    0    0 -0.00000000000E+00 -0.00000000000E+00 -0.45593999997E+02  0.45594000000E+02  0.51100000000E-03 0. -1.
    9900012    2    1    2    0    0 -0.12895871203E+01 -0.19873308877E+02  0.24901989263E+02  0.59301944899E+02  0.50000001588E+02 0.  0.
         12    1    1    2    0    0  0.12895871203E+01  0.19873308877E+02 -0.24901989263E+02  0.31886055101E+02  0.00000000000E+00 0. -1.
         11    1    3    3    0    0  0.75002186519E+00 -0.78349953080E+01 -0.15850600405E+01  0.80288292962E+01  0.51100000000E-03 0. -1.
        -11    1    3    3    0    0 -0.14404199835E+02 -0.32501420197E+01 -0.55907880350E+01  0.15789278234E+02  0.51100000000E-03 0.  1.
        -12    1    3    3    0    0  0.12364590850E+02 -0.87881715490E+01  0.32077837339E+02  0.35483837368E+02  0.00000000000E+00 0.  1.
</event>
<event>
 7    1  0.6061051E-012  0.5930192E+02  0.7816164E-02  0.1266605E+00
        -11   -1    0    0    0    0  0.00000000000E+00  0.00000000000E+00  0.45593999997E+02  0.45594000000E+02  0.51100000000E-03 0.  1.
         11   -1    0    0    0    0 -0.00000000000E+00 -0.00000000000E+00 -0.45593999997E+02  0.45594000000E+02  0.51100000000E-03 0. -1.
    9900012    2    1    2    0    0 -0.22314429555E+02 -0.24280084263E+01  0.22647150316E+02  0.59301915124E+02  0.49999947287E+02 0.  0.
         12    1    1    2    0    0  0.22314429555E+02  0.24280084263E+01 -0.22647150316E+02  0.31886084876E+02  0.00000000000E+00 0. -1.
         11    1    3    3    0    0 -0.45941757131E+01 -0.19798643402E+01 -0.53248313890E+01  0.73061715605E+01  0.51100000000E-03 0. -1.
        -11    1    3    3    0    0  0.43252011460E+01  0.34644025522E+00  0.29562003094E+02  0.29878745171E+02  0.51100000000E-03 0.  1.
         12    1    3    3    0    0 -0.22045454988E+02 -0.79458434133E+00 -0.15900213892E+01  0.22116998393E+02  0.00000000000E+00 0. -1.
</event>
<event>
 7    1  0.6061051E-012  0.5930195E+02  0.7816164E-02  0.1266605E+00
        -11   -1    0    0    0    0  0.00000000000E+00  0.00000000000E+00  0.45593999997E+02  0.45594000000E+02  0.51100000000E-03 0. -1.
         11   -1    0    0    0    0 -0.00000000000E+00 -0.00000000000E+00 -0.45593999997E+02  0.45594000000E+02  0.51100000000E-03 0.  1.
    9900012    2    1    2    0    0 -0.29308818367E+02 -0.12558179427E+02  0.74811967671E-01  0.59301948168E+02  0.50000007552E+02 0.  0.
         12    1    1    2    0    0  0.29308818367E+02  0.12558179427E+02 -0.74811967671E-01  0.31886051832E+02  0.00000000000E+00 0. -1.
         11    1    3    3    0    0 -0.16982157554E+02 -0.26197593267E+02 -0.12152747840E+02  0.33502191697E+02  0.51100000000E-03 0. -1.
        -11    1    3    3    0    0 -0.24398111266E+01  0.36884533621E+01 -0.28065497600E+01  0.52377560420E+01  0.51100000000E-03 0.  1.
        -12    1    3    3    0    0 -0.98868496857E+01  0.99509604780E+01  0.15034109568E+02  0.20562000429E+02  0.00000000000E+00 0.  1.
</event>
<event>
 7    1  0.6061051E-012  0.5930198E+02  0.7816164E-02  0.1266605E+00
        -11   -1    0    0    0    0  0.00000000000E+00  0.00000000000E+00  0.45593999997E+02  0.45594000000E+02  0.51100000000E-03 0.  1.
         11   -1    0    0    0    0 -0.00000000000E+00 -0.00000000000E+00 -0.45593999997E+02  0.45594000000E+02  0.51100000000E-03 0. -1.
    9900012    2    1    2    0    0 -0.28742759878E+02  0.13105232461E+02 -0.43387588222E+01  0.59301981255E+02  0.50000067894E+02 0.  0.
         12    1    1    2    0    0  0.28742759878E+02 -0.13105232461E+02  0.43387588222E+01  0.31886018745E+02  0.00000000000E+00 0. -1.
         11    1    3    3    0    0  0.50728093329E+01 -0.16426346982E+01 -0.84409351460E+01  0.99840387459E+01  0.51100000000E-03 0. -1.
        -11    1    3    3    0    0 -0.75162421616E+01  0.15682953690E+02  0.12808973195E+02  0.21599044591E+02  0.51100000000E-03 0.  1.
         12    1    3    3    0    0 -0.26299327049E+02 -0.93508653043E+00 -0.87067968714E+01  0.27718897918E+02  0.00000000000E+00 0. -1.
</event>
<event>
 7    1  0.6061051E-012  0.5930196E+02  0.7816164E-02  0.1266605E+00
        -11   -1    0    0    0    0  0.00000000000E+00  0.00000000000E+00  0.45593999997E+02  0.45594000000E+02  0.51100000000E-03 0.  1.
         11   -1    0    0    0    0 -0.00000000000E+00 -0.00000000000E+00 -0.45593999997E+02  0.45594000000E+02  0.51100000000E-03 0. -1.
    9900012    2    1    2    0    0  0.73559762990E+01 -0.14200160316E+02  0.27585581944E+02  0.59301964318E+02  0.50000037005E+02 0.  0.
         12    1    1    2    0    0 -0.73559762990E+01  0.14200160316E+02 -0.27585581944E+02  0.31886035682E+02  0.00000000000E+00 0. -1.
         11    1    3    3    0    0 -0.34730270705E+01 -0.72765490528E+01  0.20129698144E+02  0.21684437525E+02  0.51100000000E-03 0. -1.
        -11    1    3    3    0    0 -0.12250942731E+02 -0.42811258238E+01 -0.70105777325E+00  0.12996350194E+02  0.51100000000E-03 0.  1.
        -12    1    3    3    0    0  0.23079946100E+02 -0.26424854397E+01  0.81569415729E+01  0.24621176599E+02  0.00000000000E+00 0.  1.
</event>
<event>
 7    1  0.6061051E-012  0.5930194E+02  0.7816164E-02  0.1266605E+00
        -11   -1    0    0    0    0  0.00000000000E+00  0.00000000000E+00  0.45593999997E+02  0.45594000000E+02  0.51100000000E-03 0. -1.
         11   -1    0    0    0    0 -0.00000000000E+00 -0.00000000000E+00 -0.45593999997E+02  0.45594000000E+02  0.51100000000E-03 0.  1.
    9900012    2    1    2    0    0  0.10696154137E+02  0.26218438758E+02 -0.14659690160E+02  0.59301940980E+02  0.49999994442E+02 0.  0.
         12    1    1    2    0    0 -0.10696154137E+02 -0.26218438758E+02  0.14659690160E+02  0.31886059020E+02  0.00000000000E+00 0. -1.
         11    1    3    3    0    0 -0.45040249234E+01  0.22332672839E+02 -0.15764481336E+02  0.27704753901E+02  0.51100000000E-03 0. -1.
        -11    1    3    3    0    0  0.83776832553E+01  0.15637204262E+02 -0.13405353442E+01  0.17790580910E+02  0.51100000000E-03 0.  1.
         12    1    3    3    0    0  0.68224958051E+01 -0.11751438343E+02  0.24453265199E+01  0.13806606170E+02  0.00000000000E+00 0. -1.
</event>
<event>
 7    1  0.6061051E-012  0.5930194E+02  0.7816164E-02  0.1266605E+00
        -11   -1    0    0    0    0  0.00000000000E+00  0.00000000000E+00  0.45593999997E+02  0.45594000000E+02  0.51100000000E-03 0.  1.
         11   -1    0    0    0    0 -0.00000000000E+00 -0.00000000000E+00 -0.45593999997E+02  0.45594000000E+02  0.51100000000E-03 0. -1.
    9900012    2    1    2    0    0 -0.16099480680E+02  0.13241380736E+02  0.24128686545E+02  0.59301937898E+02  0.49999988821E+02 0.  0.
         12    1    1    2    0    0  0.16099480680E+02 -0.13241380736E+02 -0.24128686545E+02  0.31886062102E+02  0.00000000000E+00 0. -1.
         11    1    3    3    0    0 -0.13127850759E+02 -0.22347122623E+01  0.46157015908E+01  0.14093938622E+02  0.51100000000E-03 0. -1.
        -11    1    3    3    0    0  0.62677929368E+01 -0.81876458895E+01  0.16730149538E+02  0.19652497992E+02  0.51100000000E-03 0.  1.
         12    1    3    3    0    0 -0.92394228579E+01  0.23663738888E+02  0.27828354167E+01  0.25555501284E+02  0.00000000000E+00 0. -1.
</event>
<event>
 7    1  0.6061051E-012  0.5930195E+02  0.7816164E-02  0.1266605E+00
        -11   -1    0    0    0    0  0.00000000000E+00  0.00000000000E+00  0.45593999997E+02  0.45594000000E+02  0.51100000000E-03 0.  1.
         11   -1    0    0    0    0 -0.00000000000E+00 -0.00000000000E+00 -0.45593999997E+02  0.45594000000E+02  0.51100000000E-03 0. -1.
    9900012    2    1    2    0    0  0.15820640182E+02 -0.28844737822E+01  0.27533748725E+02  0.59301950329E+02  0.50000011492E+02 0.  0.
         12    1    1    2    0    0 -0.15820640182E+02  0.28844737822E+01 -0.27533748725E+02  0.31886049671E+02  0.00000000000E+00 0. -1.
         11    1    3    3    0    0  0.18235185116E+02 -0.89060999622E+01  0.17945687376E+02  0.27090372615E+02  0.51100000000E-03 0. -1.
        -11    1    3    3    0    0  0.10627861600E+02 -0.44970385041E+00  0.13450393154E+02  0.17148374617E+02  0.51100000000E-03 0.  1.
        -12    1    3    3    0    0 -0.13042406534E+02  0.64713300304E+01 -0.38623318048E+01  0.15063203097E+02  0.00000000000E+00 0.  1.
</event>
<event>
 7    1  0.6061051E-012  0.5930187E+02  0.7816164E-02  0.1266605E+00
        -11   -1    0    0    0    0  0.00000000000E+00  0.00000000000E+00  0.45593999997E+02  0.45594000000E+02  0.51100000000E-03 0.  1.
         11   -1    0    0    0    0 -0.00000000000E+00 -0.00000000000E+00 -0.45593999997E+02  0.45594000000E+02  0.51100000000E-03 0. -1.
    9900012    2    1    2    0    0 -0.86336768249E+01 -0.49344274538E+01  0.30295809650E+02  0.59301873986E+02  0.49999872261E+02 0.  0.
         12    1    1    2    0    0  0.86336768249E+01  0.49344274538E+01 -0.30295809650E+02  0.31886126014E+02  0.00000000000E+00 0. -1.
         11    1    3    3    0    0  0.23632207606E+01 -0.92336009958E+01  0.15908152063E+02  0.18544905016E+02  0.51100000000E-03 0. -1.
        -11    1    3    3    0    0 -0.39831479939E-01  0.68684683892E+01  0.24611627540E+02  0.25552096881E+02  0.51100000000E-03 0.  1.
         12    1    3    3    0    0 -0.10957066106E+02 -0.25692948471E+01 -0.10223969954E+02  0.15204872090E+02  0.00000000000E+00 0. -1.
</event>
<event>
 7    1  0.6061051E-012  0.5930197E+02  0.7816164E-02  0.1266605E+00
        -11   -1    0    0    0    0  0.00000000000E+00  0.00000000000E+00  0.45593999997E+02  0.45594000000E+02  0.51100000000E-03 0.  1.
         11   -1    0    0    0    0 -0.00000000000E+00 -0.00000000000E+00 -0.45593999997E+02  0.45594000000E+02  0.51100000000E-03 0. -1.
    9900012    2    1    2    0    0 -0.28916547171E+02  0.12832400334E+02  0.39852128453E+01  0.59301966693E+02  0.50000041337E+02 0.  0.
         12    1    1    2    0    0  0.28916547171E+02 -0.12832400334E+02 -0.39852128453E+01  0.31886033307E+02  0.00000000000E+00 0. -1.
         11    1    3    3    0    0 -0.15802445902E+02  0.11616243960E+02 -0.73936005563E+01  0.20959955861E+02  0.51100000000E-03 0. -1.
        -11    1    3    3    0    0 -0.96131720202E+01  0.17180624911E+02  0.28057150326E+01  0.19886150601E+02  0.51100000000E-03 0.  1.
        -12    1    3    3    0    0 -0.35009292487E+01 -0.15964468537E+02  0.85730983689E+01  0.18455860232E+02  0.00000000000E+00 0.  1.
</event>
<event>
 7    1  0.6061051E-012  0.5930193E+02  0.7816164E-02  0.1266605E+00
        -11   -1    0    0    0    0  0.00000000000E+00  0.00000000000E+00  0.45593999997E+02  0.45594000000E+02  0.51100000000E-03 0.  1.
         11   -1    0    0    0    0 -0.00000000000E+00 -0.00000000000E+00 -0.45593999997E+02  0.45594000000E+02  0.51100000000E-03 0. -1.
    9900012    2    1    2    0    0 -0.24564597722E+02 -0.12547540205E+02  0.15995663007E+02  0.59301929978E+02  0.49999974376E+02 0.  0.
         12    1    1    2    0    0  0.24564597722E+02  0.12547540205E+02 -0.15995663007E+02  0.31886070022E+02  0.00000000000E+00 0. -1.
         11    1    3    3    0    0 -0.21209015456E+02 -0.94618279601E+01  0.11915924255E+02  0.26102447703E+02  0.51100000000E-03 0.  1.
        -11    1    3    3    0    0 -0.10734354800E+02  0.72050447572E+01 -0.84024662736E+01  0.15418835321E+02  0.51100000000E-03 0. -1.
        -12    1    3    3    0    0  0.73787725340E+01 -0.10290757003E+02  0.12482205025E+02  0.17780646953E+02  0.00000000000E+00 0.  1.
</event>
<event>
 7    1  0.6061051E-012  0.5930192E+02  0.7816164E-02  0.1266605E+00
        -11   -1    0    0    0    0  0.00000000000E+00  0.00000000000E+00  0.45593999997E+02  0.45594000000E+02  0.51100000000E-03 0. -1.
         11   -1    0    0    0    0 -0.00000000000E+00 -0.00000000000E+00 -0.45593999997E+02  0.45594000000E+02  0.51100000000E-03 0.  1.
    9900012    2    1    2    0    0  0.14245354072E+02 -0.21250266501E+02  0.19032035510E+02  0.59301916599E+02  0.49999949977E+02 0.  0.
         12    1    1    2    0    0 -0.14245354072E+02  0.21250266501E+02 -0.19032035510E+02  0.31886083401E+02  0.00000000000E+00 0. -1.
         11    1    3    3    0    0 -0.13437418709E+02 -0.42909925271E+01  0.48376441399E+01  0.14912398852E+02  0.51100000000E-03 0. -1.
        -11    1    3    3    0    0  0.17699802206E+01 -0.15269170489E+02  0.92958938548E+01  0.17963686710E+02  0.51100000000E-03 0.  1.
         12    1    3    3    0    0  0.25912792561E+02 -0.16901034842E+01  0.48984975151E+01  0.26425831037E+02  0.00000000000E+00 0. -1.
</event>
<event>
 7    1  0.6061051E-012  0.5930195E+02  0.7816164E-02  0.1266605E+00
        -11   -1    0    0    0    0  0.00000000000E+00  0.00000000000E+00  0.45593999997E+02  0.45594000000E+02  0.51100000000E-03 0.  1.
         11   -1    0    0    0    0 -0.00000000000E+00 -0.00000000000E+00 -0.45593999997E+02  0.45594000000E+02  0.51100000000E-03 0. -1.
    9900012    2    1    2    0    0  0.73677546419E+01 -0.16519393127E+02  0.26259209860E+02  0.59301948814E+02  0.50000008730E+02 0.  0.
         12    1    1    2    0    0 -0.73677546419E+01  0.16519393127E+02 -0.26259209860E+02  0.31886051186E+02  0.00000000000E+00 0. -1.
         11    1    3    3    0    0 -0.21657437588E+01 -0.17761810690E+02  0.61141305966E+01  0.18909123677E+02  0.51100000000E-03 0.  1.
        -11    1    3    3    0    0  0.13589956852E+02 -0.20561686236E+01 -0.50635850927E+01  0.14647684148E+02  0.51100000000E-03 0. -1.
         12    1    3    3    0    0 -0.40564584509E+01  0.32985861865E+01  0.25208664356E+02  0.25745140990E+02  0.00000000000E+00 0. -1.
</event>
<event>
 7    1  0.6061051E-012  0.5930190E+02  0.7816164E-02  0.1266605E+00
        -11   -1    0    0    0    0  0.00000000000E+00  0.00000000000E+00  0.45593999997E+02  0.45594000000E+02  0.51100000000E-03 0.  1.
         11   -1    0    0    0    0 -0.00000000000E+00 -0.00000000000E+00 -0.45593999997E+02  0.45594000000E+02  0.51100000000E-03 0. -1.
    9900012    2    1    2    0    0 -0.32313472430E+00 -0.10880792614E+02  0.29970437235E+02  0.59301903155E+02  0.49999925458E+02 0.  0.
         12    1    1    2    0    0  0.32313472430E+00  0.10880792614E+02 -0.29970437235E+02  0.31886096845E+02  0.00000000000E+00 0. -1.
         11    1    3    3    0    0  0.46700324452E+01 -0.55428986342E+01  0.66197218126E+00  0.72781272136E+01  0.51100000000E-03 0. -1.
        -11    1    3    3    0    0  0.76936440501E+01 -0.83877229853E+01 -0.70544055806E+01  0.13390694306E+02  0.51100000000E-03 0.  1.
        -12    1    3    3    0    0 -0.12686811220E+02  0.30498290052E+01  0.36362870634E+02  0.38633081635E+02  0.00000000000E+00 0.  1.
</event>
<event>
 7    1  0.6061051E-012  0.5930196E+02  0.7816164E-02  0.1266605E+00
        -11   -1    0    0    0    0  0.00000000000E+00  0.00000000000E+00  0.45593999997E+02  0.45594000000E+02  0.51100000000E-03 0. -1.
         11   -1    0    0    0    0 -0.00000000000E+00 -0.00000000000E+00 -0.45593999997E+02  0.45594000000E+02  0.51100000000E-03 0.  1.
    9900012    2    1    2    0    0 -0.24499805998E+02  0.65727231010E+01 -0.19320418278E+02  0.59301956888E+02  0.50000023454E+02 0.  0.
         12    1    1    2    0    0  0.24499805998E+02 -0.65727231010E+01  0.19320418278E+02  0.31886043112E+02  0.00000000000E+00 0. -1.
         11    1    3    3    0    0  0.87439697173E+01 -0.13978382302E+01 -0.72515182754E+01  0.11445325495E+02  0.51100000000E-03 0. -1.
        -11    1    3    3    0    0 -0.19986848644E+02  0.59748053006E+01 -0.22638896935E+02  0.30784607709E+02  0.51100000000E-03 0.  1.
         12    1    3    3    0    0 -0.13256927071E+02  0.19957560306E+01  0.10569996933E+02  0.17072023683E+02  0.00000000000E+00 0. -1.
</event>
<event>
 7    1  0.6061051E-012  0.5930195E+02  0.7816164E-02  0.1266605E+00
        -11   -1    0    0    0    0  0.00000000000E+00  0.00000000000E+00  0.45593999997E+02  0.45594000000E+02  0.51100000000E-03 0.  1.
         11   -1    0    0    0    0 -0.00000000000E+00 -0.00000000000E+00 -0.45593999997E+02  0.45594000000E+02  0.51100000000E-03 0. -1.
    9900012    2    1    2    0    0 -0.19841580553E+02 -0.24730750550E+02  0.33796000684E+01  0.59301952295E+02  0.50000015078E+02 0.  0.
         12    1    1    2    0    0  0.19841580553E+02  0.24730750550E+02 -0.33796000684E+01  0.31886047705E+02  0.00000000000E+00 0. -1.
         11    1    3    3    0    0 -0.11833963250E+02 -0.38632570879E+00  0.11085152605E+02  0.16219511160E+02  0.51100000000E-03 0. -1.
        -11    1    3    3    0    0 -0.20922724011E+02 -0.10449773112E+02 -0.34400552971E+01  0.23638784208E+02  0.51100000000E-03 0.  1.
         12    1    3    3    0    0  0.12915106708E+02 -0.13894651730E+02 -0.42654972396E+01  0.19443656926E+02  0.00000000000E+00 0. -1.
</event>
<event>
 7    1  0.6061051E-012  0.5930195E+02  0.7816164E-02  0.1266605E+00
        -11   -1    0    0    0    0  0.00000000000E+00  0.00000000000E+00  0.45593999997E+02  0.45594000000E+02  0.51100000000E-03 0.  1.
         11   -1    0    0    0    0 -0.00000000000E+00 -0.00000000000E+00 -0.45593999997E+02  0.45594000000E+02  0.51100000000E-03 0. -1.
    9900012    2    1    2    0    0 -0.30881175569E+02 -0.77063370528E+01 -0.19198244052E+01  0.59301947234E+02  0.50000005847E+02 0.  0.
         12    1    1    2    0    0  0.30881175569E+02  0.77063370528E+01  0.19198244052E+01  0.31886052766E+02  0.00000000000E+00 0. -1.
         11    1    3    3    0    0 -0.67339131949E+01 -0.19150666254E+02 -0.25353685725E+01  0.20457802886E+02  0.51100000000E-03 0. -1.
        -11    1    3    3    0    0 -0.15042286406E+02 -0.69780208322E+01  0.59437297848E+01  0.17615081012E+02  0.51100000000E-03 0.  1.
         12    1    3    3    0    0 -0.91049759682E+01  0.18422350033E+02 -0.53281856174E+01  0.21229063335E+02  0.00000000000E+00 0. -1.
</event>
<event>
 7    1  0.6061051E-012  0.5930193E+02  0.7816164E-02  0.1266605E+00
        -11   -1    0    0    0    0  0.00000000000E+00  0.00000000000E+00  0.45593999997E+02  0.45594000000E+02  0.51100000000E-03 0.  1.
         11   -1    0    0    0    0 -0.00000000000E+00 -0.00000000000E+00 -0.45593999997E+02  0.45594000000E+02  0.51100000000E-03 0. -1.
    9900012    2    1    2    0    0  0.75586731767E+00 -0.80892694448E+01  0.30833649963E+02  0.59301928032E+02  0.49999970827E+02 0.  0.
         12    1    1    2    0    0 -0.75586731767E+00  0.80892694448E+01 -0.30833649963E+02  0.31886071968E+02  0.00000000000E+00 0. -1.
         11    1    3    3    0    0  0.35747373270E+01 -0.12988568808E+02  0.61303424235E+01  0.14800769073E+02  0.51100000000E-03 0. -1.
        -11    1    3    3    0    0 -0.15250700789E+02 -0.93735360169E+01  0.97840469716E+01  0.20400358512E+02  0.51100000000E-03 0.  1.
        -12    1    3    3    0    0  0.12431830779E+02  0.14272835381E+02  0.14919260568E+02  0.24100800447E+02  0.00000000000E+00 0.  1.
</event>
<event>
 7    1  0.6061051E-012  0.5930193E+02  0.7816164E-02  0.1266605E+00
        -11   -1    0    0    0    0  0.00000000000E+00  0.00000000000E+00  0.45593999997E+02  0.45594000000E+02  0.51100000000E-03 0.  1.
         11   -1    0    0    0    0 -0.00000000000E+00 -0.00000000000E+00 -0.45593999997E+02  0.45594000000E+02  0.51100000000E-03 0. -1.
    9900012    2    1    2    0    0  0.12412062732E+02 -0.28427841526E+02  0.73837485978E+01  0.59301933788E+02  0.49999981326E+02 0.  0.
         12    1    1    2    0    0 -0.12412062732E+02  0.28427841526E+02 -0.73837485978E+01  0.31886066212E+02  0.00000000000E+00 0. -1.
         11    1    3    3    0    0  0.98391151738E+01 -0.13454724722E+02  0.15085745874E+01  0.16736594704E+02  0.51100000000E-03 0. -1.
        -11    1    3    3    0    0  0.18560201331E+02 -0.15706193699E+02  0.95882760329E+01  0.26136193898E+02  0.51100000000E-03 0.  1.
        -12    1    3    3    0    0 -0.15987253772E+02  0.73307689469E+00 -0.37131020225E+01  0.16429145186E+02  0.00000000000E+00 0.  1.
</event>
<event>
 7    1  0.6061051E-012  0.5930195E+02  0.7816164E-02  0.1266605E+00
        -11   -1    0    0    0    0  0.00000000000E+00  0.00000000000E+00  0.45593999997E+02  0.45594000000E+02  0.51100000000E-03 0.  1.
         11   -1    0    0    0    0 -0.00000000000E+00 -0.00000000000E+00 -0.45593999997E+02  0.45594000000E+02  0.51100000000E-03 0. -1.
    9900012    2    1    2    0    0  0.11928279457E+02  0.14685774449E+02  0.25666406488E+02  0.59301949069E+02  0.50000009194E+02 0.  0.
         12    1    1    2    0    0 -0.11928279457E+02 -0.14685774449E+02 -0.25666406488E+02  0.31886050931E+02  0.00000000000E+00 0. -1.
         11    1    3    3    0    0  0.24321956996E+01  0.20221821921E+02  0.16320935881E+02  0.26100011609E+02  0.51100000000E-03 0.  1.
        -11    1    3    3    0    0  0.18108615326E+02 -0.10880609666E+02  0.32509444943E+01  0.21374710667E+02  0.51100000000E-03 0. -1.
         12    1    3    3    0    0 -0.86125315688E+01  0.53445621942E+01  0.60945261130E+01  0.11827226793E+02  0.00000000000E+00 0. -1.
</event>
<event>
 7    1  0.6061051E-012  0.5930195E+02  0.7816164E-02  0.1266605E+00
        -11   -1    0    0    0    0  0.00000000000E+00  0.00000000000E+00  0.45593999997E+02  0.45594000000E+02  0.51100000000E-03 0.  1.
         11   -1    0    0    0    0 -0.00000000000E+00 -0.00000000000E+00 -0.45593999997E+02  0.45594000000E+02  0.51100000000E-03 0. -1.
    9900012    2    1    2    0    0  0.21981741377E+02 -0.96515528544E+01  0.20985014723E+02  0.59301948670E+02  0.50000008467E+02 0.  0.
         12    1    1    2    0    0 -0.21981741377E+02  0.96515528544E+01 -0.20985014723E+02  0.31886051330E+02  0.00000000000E+00 0. -1.
         11    1    3    3    0    0  0.16442252761E+02 -0.14389861627E+02  0.65546825367E+01  0.22811831512E+02  0.51100000000E-03 0.  1.
        -11    1    3    3    0    0  0.93154762704E+01 -0.52246294265E+01 -0.68521607067E+01  0.12689639766E+02  0.51100000000E-03 0. -1.
        -12    1    3    3    0    0 -0.37759876542E+01  0.99629381996E+01  0.21282492893E+02  0.23800477392E+02  0.00000000000E+00 0.  1.
</event>
<event>
 7    1  0.6061051E-012  0.5930197E+02  0.7816164E-02  0.1266605E+00
        -11   -1    0    0    0    0  0.00000000000E+00  0.00000000000E+00  0.45593999997E+02  0.45594000000E+02  0.51100000000E-03 0. -1.
         11   -1    0    0    0    0 -0.00000000000E+00 -0.00000000000E+00 -0.45593999997E+02  0.45594000000E+02  0.51100000000E-03 0.  1.
    9900012    2    1    2    0    0  0.50312256517E+00  0.13942351177E+02 -0.28671881359E+02  0.59301967488E+02  0.50000042786E+02 0.  0.
         12    1    1    2    0    0 -0.50312256517E+00 -0.13942351177E+02  0.28671881359E+02  0.31886032512E+02  0.00000000000E+00 0. -1.
         11    1    3    3    0    0  0.20195391687E+00  0.89240832905E+01  0.73846114060E+01  0.11585013329E+02  0.51100000000E-03 0. -1.
        -11    1    3    3    0    0 -0.12718501044E+01 -0.13003833826E+02 -0.17001212995E+02  0.21441980795E+02  0.51100000000E-03 0.  1.
         12    1    3    3    0    0  0.15730187527E+01  0.18022101713E+02 -0.19055279771E+02  0.26274973364E+02  0.00000000000E+00 0. -1.
</event>
<event>
 7    1  0.6061051E-012  0.5930196E+02  0.7816164E-02  0.1266605E+00
        -11   -1    0    0    0    0  0.00000000000E+00  0.00000000000E+00  0.45593999997E+02  0.45594000000E+02  0.51100000000E-03 0.  1.
         11   -1    0    0    0    0 -0.00000000000E+00 -0.00000000000E+00 -0.45593999997E+02  0.45594000000E+02  0.51100000000E-03 0. -1.
    9900012    2    1    2    0    0 -0.24840896263E+02  0.75232044635E+01  0.18521628520E+02  0.59301961431E+02  0.50000031740E+02 0.  0.
         12    1    1    2    0    0  0.24840896263E+02 -0.75232044635E+01 -0.18521628520E+02  0.31886038569E+02  0.00000000000E+00 0. -1.
         11    1    3    3    0    0  0.30339658018E+01 -0.28268542218E+01  0.41050598968E+01  0.58350295882E+01  0.51100000000E-03 0. -1.
        -11    1    3    3    0    0 -0.78459672634E+01 -0.50427327987E+01  0.24540567361E+02  0.26253148441E+02  0.51100000000E-03 0.  1.
         12    1    3    3    0    0 -0.20028894801E+02  0.15392791484E+02 -0.10123998738E+02  0.27213783403E+02  0.00000000000E+00 0. -1.
</event>
<event>
 7    1  0.6061051E-012  0.5930185E+02  0.7816164E-02  0.1266605E+00
        -11   -1    0    0    0    0  0.00000000000E+00  0.00000000000E+00  0.45593999997E+02  0.45594000000E+02  0.51100000000E-03 0. -1.
         11   -1    0    0    0    0 -0.00000000000E+00 -0.00000000000E+00 -0.45593999997E+02  0.45594000000E+02  0.51100000000E-03 0.  1.
    9900012    2    1    2    0    0 -0.31436268415E+02 -0.25519134269E+01 -0.46878188609E+01  0.59301845016E+02  0.49999819427E+02 0.  0.
         12    1    1    2    0    0  0.31436268415E+02  0.25519134269E+01  0.46878188609E+01  0.31886154984E+02  0.00000000000E+00 0. -1.
         11    1    3    3    0    0 -0.27112550164E+02  0.14065596778E+02  0.48837204050E+01  0.30931894775E+02  0.51100000000E-03 0. -1.
        -11    1    3    3    0    0 -0.74598920016E+01  0.15273900350E+01 -0.58043273706E+01  0.95746083722E+01  0.51100000000E-03 0.  1.
        -12    1    3    3    0    0  0.31361737514E+01 -0.18144900240E+02 -0.37672118952E+01  0.18795341869E+02  0.00000000000E+00 0.  1.
</event>
<event>
 7    1  0.6061051E-012  0.5930195E+02  0.7816164E-02  0.1266605E+00
        -11   -1    0    0    0    0  0.00000000000E+00  0.00000000000E+00  0.45593999997E+02  0.45594000000E+02  0.51100000000E-03 0. -1.
         11   -1    0    0    0    0 -0.00000000000E+00 -0.00000000000E+00 -0.45593999997E+02  0.45594000000E+02  0.51100000000E-03 0.  1.
    9900012    2    1    2    0    0 -0.10636417292E+02  0.30013641379E+02  0.16638415272E+01  0.59301946461E+02  0.50000004438E+02 0.  0.
         12    1    1    2    0    0  0.10636417292E+02 -0.30013641379E+02 -0.16638415272E+01  0.31886053539E+02  0.00000000000E+00 0. -1.
         11    1    3    3    0    0 -0.78930618496E+00  0.17599540001E+02 -0.49865054502E+01  0.18309343226E+02  0.51100000000E-03 0. -1.
        -11    1    3    3    0    0  0.73140096442E+01  0.28814287857E+01 -0.11716406058E+02  0.14109271424E+02  0.51100000000E-03 0.  1.
         12    1    3    3    0    0 -0.17161120751E+02  0.95326725928E+01  0.18366753036E+02  0.26883331811E+02  0.00000000000E+00 0. -1.
</event>
<event>
 7    1  0.6061051E-012  0.5930201E+02  0.7816164E-02  0.1266605E+00
        -11   -1    0    0    0    0  0.00000000000E+00  0.00000000000E+00  0.45593999997E+02  0.45594000000E+02  0.51100000000E-03 0.  1.
         11   -1    0    0    0    0 -0.00000000000E+00 -0.00000000000E+00 -0.45593999997E+02  0.45594000000E+02  0.51100000000E-03 0. -1.
    9900012    2    1    2    0    0  0.95117145390E+01  0.11864671817E+02  0.28026296496E+02  0.59302008623E+02  0.50000117807E+02 0.  0.
         12    1    1    2    0    0 -0.95117145390E+01 -0.11864671817E+02 -0.28026296496E+02  0.31885991377E+02  0.00000000000E+00 0. -1.
         11    1    3    3    0    0  0.19420726944E+02 -0.39449197624E+01 -0.31037749993E+01  0.20058924360E+02  0.51100000000E-03 0. -1.
        -11    1    3    3    0    0  0.11099982531E+01 -0.12301467484E+01 -0.43958791649E+00  0.17142330477E+01  0.51100000000E-03 0.  1.
        -12    1    3    3    0    0 -0.11019010658E+02  0.17039738328E+02  0.31569659412E+02  0.37528851215E+02  0.00000000000E+00 0.  1.
</event>
<event>
 7    1  0.6061051E-012  0.5930198E+02  0.7816164E-02  0.1266605E+00
        -11   -1    0    0    0    0  0.00000000000E+00  0.00000000000E+00  0.45593999997E+02  0.45594000000E+02  0.51100000000E-03 0.  1.
         11   -1    0    0    0    0 -0.00000000000E+00 -0.00000000000E+00 -0.45593999997E+02  0.45594000000E+02  0.51100000000E-03 0. -1.
    9900012    2    1    2    0    0 -0.18274956222E+02  0.19685574846E+02  0.17182036372E+02  0.59301980245E+02  0.50000066051E+02 0.  0.
         12    1    1    2    0    0  0.18274956222E+02 -0.19685574846E+02 -0.17182036372E+02  0.31886019755E+02  0.00000000000E+00 0. -1.
         11    1    3    3    0    0 -0.94145574530E+01 -0.65956765454E+01 -0.87404170757E+01  0.14440627827E+02  0.51100000000E-03 0. -1.
        -11    1    3    3    0    0  0.20789383792E+01  0.20034261289E+01 -0.39181938427E+01  0.48670262264E+01  0.51100000000E-03 0.  1.
        -12    1    3    3    0    0 -0.10939337148E+02  0.24277825263E+02  0.29840647291E+02  0.39994326191E+02  0.00000000000E+00 0.  1.
</event>
<event>
 7    1  0.6061051E-012  0.5930199E+02  0.7816164E-02  0.1266605E+00
        -11   -1    0    0    0    0  0.00000000000E+00  0.00000000000E+00  0.45593999997E+02  0.45594000000E+02  0.51100000000E-03 0.  1.
         11   -1    0    0    0    0 -0.00000000000E+00 -0.00000000000E+00 -0.45593999997E+02  0.45594000000E+02  0.51100000000E-03 0. -1.
    9900012    2    1    2    0    0  0.15590071183E+02  0.13616638118E+02  0.24253964391E+02  0.59301985169E+02  0.50000075031E+02 0.  0.
         12    1    1    2    0    0 -0.15590071183E+02 -0.13616638118E+02 -0.24253964391E+02  0.31886014831E+02  0.00000000000E+00 0. -1.
         11    1    3    3    0    0 -0.33694804537E+01 -0.30363881259E+01 -0.35931263979E+01  0.57865023072E+01  0.51100000000E-03 0. -1.
        -11    1    3    3    0    0  0.26268492512E+02  0.22153936990E+02  0.14414893913E+02  0.37264189108E+02  0.51100000000E-03 0.  1.
         12    1    3    3    0    0 -0.73089408756E+01 -0.55009107463E+01  0.13432196876E+02  0.16251293754E+02  0.00000000000E+00 0. -1.
</event>
<event>
 7    1  0.6061051E-012  0.5930192E+02  0.7816164E-02  0.1266605E+00
        -11   -1    0    0    0    0  0.00000000000E+00  0.00000000000E+00  0.45593999997E+02  0.45594000000E+02  0.51100000000E-03 0.  1.
         11   -1    0    0    0    0 -0.00000000000E+00 -0.00000000000E+00 -0.45593999997E+02  0.45594000000E+02  0.51100000000E-03 0. -1.
    9900012    2    1    2    0    0 -0.31144308040E+01  0.98830875193E+01  0.30155382643E+02  0.59301918389E+02  0.49999953241E+02 0.  0.
         12    1    1    2    0    0  0.31144308040E+01 -0.98830875193E+01 -0.30155382643E+02  0.31886081611E+02  0.00000000000E+00 0. -1.
         11    1    3    3    0    0  0.21497000840E+00  0.11789805452E+02 -0.15083100063E+01  0.11887839334E+02  0.51100000000E-03 0. -1.
        -11    1    3    3    0    0  0.73457818776E+00  0.16317725536E+02  0.11789343735E+02  0.20144388741E+02  0.51100000000E-03 0.  1.
        -12    1    3    3    0    0 -0.40639790002E+01 -0.18224443469E+02  0.19874348915E+02  0.27269690314E+02  0.00000000000E+00 0.  1.
</event>
<event>
 7    1  0.6061051E-012  0.5930191E+02  0.7816164E-02  0.1266605E+00
        -11   -1    0    0    0    0  0.00000000000E+00  0.00000000000E+00  0.45593999997E+02  0.45594000000E+02  0.51100000000E-03 0. -1.
         11   -1    0    0    0    0 -0.00000000000E+00 -0.00000000000E+00 -0.45593999997E+02  0.45594000000E+02  0.51100000000E-03 0.  1.
    9900012    2    1    2    0    0 -0.18861010848E+02 -0.16414849997E+02 -0.19787304153E+02  0.59301914692E+02  0.49999946499E+02 0.  0.
         12    1    1    2    0    0  0.18861010848E+02  0.16414849997E+02  0.19787304153E+02  0.31886085308E+02  0.00000000000E+00 0. -1.
         11    1    3    3    0    0 -0.17019237560E+02 -0.14547746501E+02 -0.13016008516E+02  0.25898027982E+02  0.51100000000E-03 0. -1.
        -11    1    3    3    0    0  0.43964637060E+01 -0.10633933251E+00 -0.19032914578E+02  0.19534380941E+02  0.51100000000E-03 0.  1.
         12    1    3    3    0    0 -0.62382369936E+01 -0.17607641629E+01  0.12261618941E+02  0.13869505769E+02  0.00000000000E+00 0. -1.
</event>
<event>
 7    1  0.6061051E-012  0.5930193E+02  0.7816164E-02  0.1266605E+00
        -11   -1    0    0    0    0  0.00000000000E+00  0.00000000000E+00  0.45593999997E+02  0.45594000000E+02  0.51100000000E-03 0.  1.
         11   -1    0    0    0    0 -0.00000000000E+00 -0.00000000000E+00 -0.45593999997E+02  0.45594000000E+02  0.51100000000E-03 0. -1.
    9900012    2    1    2    0    0  0.76659758724E+01 -0.27398845347E+02 -0.14396449592E+02  0.59301926656E+02  0.49999968318E+02 0.  0.
         12    1    1    2    0    0 -0.76659758724E+01  0.27398845347E+02  0.14396449592E+02  0.31886073344E+02  0.00000000000E+00 0. -1.
         11    1    3    3    0    0  0.39526246184E+01 -0.12044314731E+02  0.68161498968E+01  0.14392659879E+02  0.51100000000E-03 0. -1.
        -11    1    3    3    0    0  0.25059352400E+01 -0.23486464268E+02 -0.16358145976E+01  0.23676351174E+02  0.51100000000E-03 0.  1.
         12    1    3    3    0    0  0.12074160139E+01  0.81319336519E+01 -0.19576784891E+02  0.21232915603E+02  0.00000000000E+00 0. -1.
</event>
<event>
 7    1  0.6061051E-012  0.5930163E+02  0.7816164E-02  0.1266606E+00
        -11   -1    0    0    0    0  0.00000000000E+00  0.00000000000E+00  0.45593999997E+02  0.45594000000E+02  0.51100000000E-03 0. -1.
         11   -1    0    0    0    0 -0.00000000000E+00 -0.00000000000E+00 -0.45593999997E+02  0.45594000000E+02  0.51100000000E-03 0.  1.
    9900012    2    1    2    0    0  0.15936113099E+02  0.15644461716E+02 -0.22760314986E+02  0.59301626400E+02  0.49999420720E+02 0.  0.
         12    1    1    2    0    0 -0.15936113099E+02 -0.15644461716E+02  0.22760314986E+02  0.31886373600E+02  0.00000000000E+00 0. -1.
         11    1    3    3    0    0 -0.74073119127E-02  0.80603969633E+01 -0.15304345176E+02  0.17297197334E+02  0.51100000000E-03 0. -1.
        -11    1    3    3    0    0  0.11878988183E+02 -0.14508795681E+02 -0.17860236148E+01  0.18836278639E+02  0.51100000000E-03 0.  1.
         12    1    3    3    0    0  0.40645322288E+01  0.22092860433E+02 -0.56699461943E+01  0.23168150427E+02  0.00000000000E+00 0. -1.
</event>
<event>
 7    1  0.6061051E-012  0.5930196E+02  0.7816164E-02  0.1266605E+00
        -11   -1    0    0    0    0  0.00000000000E+00  0.00000000000E+00  0.45593999997E+02  0.45594000000E+02  0.51100000000E-03 0. -1.
         11   -1    0    0    0    0 -0.00000000000E+00 -0.00000000000E+00 -0.45593999997E+02  0.45594000000E+02  0.51100000000E-03 0.  1.
    9900012    2    1    2    0    0  0.13322886448E+02 -0.12534885979E+01 -0.28942168267E+02  0.59301958524E+02  0.50000026439E+02 0.  0.
         12    1    1    2    0    0 -0.13322886448E+02  0.12534885979E+01  0.28942168267E+02  0.31886041476E+02  0.00000000000E+00 0. -1.
         11    1    3    3    0    0  0.14952374324E+02 -0.47362668848E+01 -0.17208578128E+02  0.23283918986E+02  0.51100000000E-03 0. -1.
        -11    1    3    3    0    0 -0.13102498128E+02 -0.61128512872E+00 -0.18037098316E+02  0.22302153318E+02  0.51100000000E-03 0.  1.
         12    1    3    3    0    0  0.11473010252E+02  0.40940634155E+01  0.63035081762E+01  0.13715886220E+02  0.00000000000E+00 0. -1.
</event>
<event>
 7    1  0.6061051E-012  0.5930195E+02  0.7816164E-02  0.1266605E+00
        -11   -1    0    0    0    0  0.00000000000E+00  0.00000000000E+00  0.45593999997E+02  0.45594000000E+02  0.51100000000E-03 0. -1.
         11   -1    0    0    0    0 -0.00000000000E+00 -0.00000000000E+00 -0.45593999997E+02  0.45594000000E+02  0.51100000000E-03 0.  1.
    9900012    2    1    2    0    0 -0.73327031467E+01 -0.52852269315E+01 -0.30578063684E+02  0.59301950733E+02  0.50000012229E+02 0.  0.
         12    1    1    2    0    0  0.73327031467E+01  0.52852269315E+01  0.30578063684E+02  0.31886049267E+02  0.00000000000E+00 0. -1.
         11    1    3    3    0    0 -0.58855677196E+01 -0.18165094207E+02 -0.96415471712E+01  0.21390885607E+02  0.51100000000E-03 0.  1.
        -11    1    3    3    0    0 -0.96094670829E+01 -0.77105378946E+00 -0.19731255837E+02  0.21960392499E+02  0.51100000000E-03 0. -1.
         12    1    3    3    0    0  0.81623316558E+01  0.13650921065E+02 -0.12052606765E+01  0.15950672628E+02  0.00000000000E+00 0. -1.
</event>
<event>
 7    1  0.6061051E-012  0.5930174E+02  0.7816164E-02  0.1266605E+00
        -11   -1    0    0    0    0  0.00000000000E+00  0.00000000000E+00  0.45593999997E+02  0.45594000000E+02  0.51100000000E-03 0.  1.
         11   -1    0    0    0    0 -0.00000000000E+00 -0.00000000000E+00 -0.45593999997E+02  0.45594000000E+02  0.51100000000E-03 0. -1.
    9900012    2    1    2    0    0  0.15622548059E+02  0.50432942196E+01  0.27335594223E+02  0.59301740640E+02  0.49999629068E+02 0.  0.
         12    1    1    2    0    0 -0.15622548059E+02 -0.50432942196E+01 -0.27335594223E+02  0.31886259360E+02  0.00000000000E+00 0. -1.
         11    1    3    3    0    0  0.23157621924E+02  0.13337393873E+01  0.20685417226E+02  0.31079588157E+02  0.51100000000E-03 0. -1.
        -11    1    3    3    0    0 -0.51000813292E+01  0.10180162762E+02  0.14057092395E+02  0.18090008024E+02  0.51100000000E-03 0.  1.
         12    1    3    3    0    0 -0.24349925357E+01 -0.64706079299E+01 -0.74069153980E+01  0.10132144459E+02  0.00000000000E+00 0. -1.
</event>
<event>
 7    1  0.6061051E-012  0.5930201E+02  0.7816164E-02  0.1266605E+00
        -11   -1    0    0    0    0  0.00000000000E+00  0.00000000000E+00  0.45593999997E+02  0.45594000000E+02  0.51100000000E-03 0.  1.
         11   -1    0    0    0    0 -0.00000000000E+00 -0.00000000000E+00 -0.45593999997E+02  0.45594000000E+02  0.51100000000E-03 0. -1.
    9900012    2    1    2    0    0  0.15377913401E+02  0.15462015915E+02  0.23262887526E+02  0.59302014164E+02  0.50000127911E+02 0.  0.
         12    1    1    2    0    0 -0.15377913401E+02 -0.15462015915E+02 -0.23262887526E+02  0.31885985836E+02  0.00000000000E+00 0. -1.
         11    1    3    3    0    0 -0.64265151434E+01  0.11430683689E+02 -0.19186426617E+01  0.13252992734E+02  0.51100000000E-03 0. -1.
        -11    1    3    3    0    0  0.22920406612E+01  0.12609839706E+02  0.20577738111E+02  0.24242623906E+02  0.51100000000E-03 0.  1.
         12    1    3    3    0    0  0.19512387883E+02 -0.85785074801E+01  0.46037920767E+01  0.21806397524E+02  0.00000000000E+00 0. -1.
</event>
<event>
 7    1  0.6061051E-012  0.5930195E+02  0.7816164E-02  0.1266605E+00
        -11   -1    0    0    0    0  0.00000000000E+00  0.00000000000E+00  0.45593999997E+02  0.45594000000E+02  0.51100000000E-03 0.  1.
         11   -1    0    0    0    0 -0.00000000000E+00 -0.00000000000E+00 -0.45593999997E+02  0.45594000000E+02  0.51100000000E-03 0. -1.
    9900012    2    1    2    0    0 -0.28370042897E+02 -0.30803851392E+01 -0.14225742879E+02  0.59301954980E+02  0.50000019974E+02 0.  0.
         12    1    1    2    0    0  0.28370042897E+02  0.30803851392E+01  0.14225742879E+02  0.31886045020E+02  0.00000000000E+00 0. -1.
         11    1    3    3    0    0 -0.13592048902E+02  0.43340462803E+01 -0.20399075674E+01  0.14411418170E+02  0.51100000000E-03 0. -1.
        -11    1    3    3    0    0 -0.93078776200E+01  0.13703032813E+02 -0.15666464686E+02  0.22800171272E+02  0.51100000000E-03 0.  1.
         12    1    3    3    0    0 -0.54701163745E+01 -0.21117464232E+02  0.34806293737E+01  0.22090365537E+02  0.00000000000E+00 0. -1.
</event>
<event>
 7    1  0.6061051E-012  0.5930196E+02  0.7816164E-02  0.1266605E+00
        -11   -1    0    0    0    0  0.00000000000E+00  0.00000000000E+00  0.45593999997E+02  0.45594000000E+02  0.51100000000E-03 0.  1.
         11   -1    0    0    0    0 -0.00000000000E+00 -0.00000000000E+00 -0.45593999997E+02  0.45594000000E+02  0.51100000000E-03 0. -1.
    9900012    2    1    2    0    0  0.69746517177E+01 -0.23850869082E+02 -0.19980238744E+02  0.59301958182E+02  0.50000025813E+02 0.  0.
         12    1    1    2    0    0 -0.69746517177E+01  0.23850869082E+02  0.19980238744E+02  0.31886041818E+02  0.00000000000E+00 0. -1.
         11    1    3    3    0    0 -0.24068771772E+01 -0.56297238527E+00 -0.38447900245E+01  0.45708211786E+01  0.51100000000E-03 0. -1.
        -11    1    3    3    0    0  0.15119545540E+02  0.59454608498E+01 -0.18768900914E+02  0.24823795113E+02  0.51100000000E-03 0.  1.
         12    1    3    3    0    0 -0.57380166448E+01 -0.29233357547E+02  0.26334521940E+01  0.29907341890E+02  0.00000000000E+00 0. -1.
</event>
<event>
 7    1  0.6061051E-012  0.5930195E+02  0.7816164E-02  0.1266605E+00
        -11   -1    0    0    0    0  0.00000000000E+00  0.00000000000E+00  0.45593999997E+02  0.45594000000E+02  0.51100000000E-03 0.  1.
         11   -1    0    0    0    0 -0.00000000000E+00 -0.00000000000E+00 -0.45593999997E+02  0.45594000000E+02  0.51100000000E-03 0. -1.
    9900012    2    1    2    0    0  0.85096172582E+01 -0.29903333819E+02  0.70779561099E+01  0.59301946276E+02  0.50000004101E+02 0.  0.
         12    1    1    2    0    0 -0.85096172582E+01  0.29903333819E+02 -0.70779561099E+01  0.31886053724E+02  0.00000000000E+00 0. -1.
         11    1    3    3    0    0  0.19924470982E+01 -0.17652249279E+02 -0.11564265728E+02  0.21196792025E+02  0.51100000000E-03 0. -1.
        -11    1    3    3    0    0 -0.70778311502E+01 -0.50696212899E+01 -0.48974481457E+01  0.99890816602E+01  0.51100000000E-03 0.  1.
        -12    1    3    3    0    0  0.13595001310E+02 -0.71814632502E+01  0.23539669983E+02  0.28116072591E+02  0.00000000000E+00 0.  1.
</event>
<event>
 7    1  0.6061051E-012  0.5930195E+02  0.7816164E-02  0.1266605E+00
        -11   -1    0    0    0    0  0.00000000000E+00  0.00000000000E+00  0.45593999997E+02  0.45594000000E+02  0.51100000000E-03 0.  1.
         11   -1    0    0    0    0 -0.00000000000E+00 -0.00000000000E+00 -0.45593999997E+02  0.45594000000E+02  0.51100000000E-03 0. -1.
    9900012    2    1    2    0    0  0.43906310955E+01  0.46394841268E+01  0.31239679695E+02  0.59301952239E+02  0.50000014975E+02 0.  0.
         12    1    1    2    0    0 -0.43906310955E+01 -0.46394841268E+01 -0.31239679695E+02  0.31886047761E+02  0.00000000000E+00 0. -1.
         11    1    3    3    0    0  0.19897836879E+01 -0.57465183028E+01  0.93023067417E+01  0.11113713273E+02  0.51100000000E-03 0. -1.
        -11    1    3    3    0    0 -0.85396507392E+01  0.20599516764E+01  0.30668445464E+02  0.31901764577E+02  0.51100000000E-03 0.  1.
         12    1    3    3    0    0  0.10940498147E+02  0.83260507532E+01 -0.87310725111E+01  0.16286474389E+02  0.00000000000E+00 0. -1.
</event>
<event>
 7    1  0.6419053E-012  0.5930196E+02  0.7816164E-02  0.1266605E+00
        -11   -1    0    0    0    0  0.00000000000E+00  0.00000000000E+00  0.45593999997E+02  0.45594000000E+02  0.51100000000E-03 0. -1.
         11   -1    0    0    0    0 -0.00000000000E+00 -0.00000000000E+00 -0.45593999997E+02  0.45594000000E+02  0.51100000000E-03 0.  1.
    9900012    2    1    2    0    0  0.22961518115E+02 -0.10935773105E+02 -0.19232711729E+02  0.59301958415E+02  0.50000026238E+02 0.  0.
         12    1    1    2    0    0 -0.22961518115E+02  0.10935773105E+02  0.19232711729E+02  0.31886041585E+02  0.00000000000E+00 0. -1.
         11    1    3    3    0    0  0.91850752212E+01 -0.47029184274E+01  0.12273814237E+02  0.16035260046E+02  0.51100000000E-03 0. -1.
        -11    1    3    3    0    0  0.18198504694E+02 -0.98214016996E+00 -0.10207700635E+02  0.20888928286E+02  0.51100000000E-03 0.  1.
        -12    1    3    3    0    0 -0.44220618006E+01 -0.52507145073E+01 -0.21298825331E+02  0.22377770083E+02  0.00000000000E+00 0.  1.
</event>
<event>
 7    1  0.6061051E-012  0.5930192E+02  0.7816164E-02  0.1266605E+00
        -11   -1    0    0    0    0  0.00000000000E+00  0.00000000000E+00  0.45593999997E+02  0.45594000000E+02  0.51100000000E-03 0. -1.
         11   -1    0    0    0    0 -0.00000000000E+00 -0.00000000000E+00 -0.45593999997E+02  0.45594000000E+02  0.51100000000E-03 0.  1.
    9900012    2    1    2    0    0  0.14090409797E+02  0.28280293211E+02 -0.42903933578E+01  0.59301919847E+02  0.49999955900E+02 0.  0.
         12    1    1    2    0    0 -0.14090409797E+02 -0.28280293211E+02  0.42903933578E+01  0.31886080153E+02  0.00000000000E+00 0. -1.
         11    1    3    3    0    0  0.14333233596E+02  0.20053438483E+02  0.12493973749E+02  0.27634785337E+02  0.51100000000E-03 0. -1.
        -11    1    3    3    0    0  0.68432280127E+01  0.14990832648E+02 -0.72706876388E+01  0.18011599932E+02  0.51100000000E-03 0.  1.
         12    1    3    3    0    0 -0.70860518111E+01 -0.67639779206E+01 -0.95136794684E+01  0.13655534578E+02  0.00000000000E+00 0. -1.
</event>
<event>
 7    1  0.6061051E-012  0.5930199E+02  0.7816164E-02  0.1266605E+00
        -11   -1    0    0    0    0  0.00000000000E+00  0.00000000000E+00  0.45593999997E+02  0.45594000000E+02  0.51100000000E-03 0.  1.
         11   -1    0    0    0    0 -0.00000000000E+00 -0.00000000000E+00 -0.45593999997E+02  0.45594000000E+02  0.51100000000E-03 0. -1.
    9900012    2    1    2    0    0 -0.17881813004E+02 -0.41145623788E+01  0.26077357185E+02  0.59301993388E+02  0.50000090022E+02 0.  0.
         12    1    1    2    0    0  0.17881813004E+02  0.41145623788E+01 -0.26077357185E+02  0.31886006612E+02  0.00000000000E+00 0. -1.
         11    1    3    3    0    0 -0.18248183855E+00 -0.12187264487E+02 -0.29449518209E+01  0.12539356315E+02  0.51100000000E-03 0. -1.
        -11    1    3    3    0    0  0.20521847295E+01  0.13897094569E+01  0.25494657143E+02  0.25614845259E+02  0.51100000000E-03 0.  1.
         12    1    3    3    0    0 -0.19751515895E+02  0.66829926518E+01  0.35276518627E+01  0.21147791814E+02  0.00000000000E+00 0. -1.
</event>
<event>
 7    1  0.6061051E-012  0.5930195E+02  0.7816164E-02  0.1266605E+00
        -11   -1    0    0    0    0  0.00000000000E+00  0.00000000000E+00  0.45593999997E+02  0.45594000000E+02  0.51100000000E-03 0.  1.
         11   -1    0    0    0    0 -0.00000000000E+00 -0.00000000000E+00 -0.45593999997E+02  0.45594000000E+02  0.51100000000E-03 0. -1.
    9900012    2    1    2    0    0  0.90324969845E+01 -0.91198195301E+01  0.29188406497E+02  0.59301950012E+02  0.50000010913E+02 0.  0.
         12    1    1    2    0    0 -0.90324969845E+01  0.91198195301E+01 -0.29188406497E+02  0.31886049988E+02  0.00000000000E+00 0. -1.
         11    1    3    3    0    0  0.56288620360E+01 -0.11159361832E+02  0.17859567849E+02  0.21798614826E+02  0.51100000000E-03 0. -1.
        -11    1    3    3    0    0  0.14298915840E+02  0.94256406944E+01  0.16096932912E+02  0.23503466683E+02  0.51100000000E-03 0.  1.
         12    1    3    3    0    0 -0.10895280891E+02 -0.73860983922E+01 -0.47680942643E+01  0.13999868502E+02  0.00000000000E+00 0. -1.
</event>
<event>
 7    1  0.6061051E-012  0.5930194E+02  0.7816164E-02  0.1266605E+00
        -11   -1    0    0    0    0  0.00000000000E+00  0.00000000000E+00  0.45593999997E+02  0.45594000000E+02  0.51100000000E-03 0. -1.
         11   -1    0    0    0    0 -0.00000000000E+00 -0.00000000000E+00 -0.45593999997E+02  0.45594000000E+02  0.51100000000E-03 0.  1.
    9900012    2    1    2    0    0  0.31411285819E+02 -0.22677768994E+01 -0.49909206771E+01  0.59301937558E+02  0.49999988200E+02 0.  0.
         12    1    1    2    0    0 -0.31411285819E+02  0.22677768994E+01  0.49909206771E+01  0.31886062442E+02  0.00000000000E+00 0. -1.
         11    1    3    3    0    0  0.26819149078E+02 -0.59891980622E+01  0.13680770584E+02  0.30696917349E+02  0.51100000000E-03 0. -1.
        -11    1    3    3    0    0  0.28334540441E+01  0.86567061709E+01  0.10688762019E+00  0.91092507251E+01  0.51100000000E-03 0.  1.
        -12    1    3    3    0    0  0.17586826974E+01 -0.49352850080E+01 -0.18778578882E+02  0.19495769484E+02  0.00000000000E+00 0.  1.
</event>
<event>
 7    1  0.6061051E-012  0.5930196E+02  0.7816164E-02  0.1266605E+00
        -11   -1    0    0    0    0  0.00000000000E+00  0.00000000000E+00  0.45593999997E+02  0.45594000000E+02  0.51100000000E-03 0.  1.
         11   -1    0    0    0    0 -0.00000000000E+00 -0.00000000000E+00 -0.45593999997E+02  0.45594000000E+02  0.51100000000E-03 0. -1.
    9900012    2    1    2    0    0  0.56409023629E+01 -0.28748215746E+02  0.12587288999E+02  0.59301960227E+02  0.50000029544E+02 0.  0.
         12    1    1    2    0    0 -0.56409023629E+01  0.28748215746E+02 -0.12587288999E+02  0.31886039773E+02  0.00000000000E+00 0. -1.
         11    1    3    3    0    0  0.24754408129E+02 -0.14910685425E+02  0.23974629071E+01  0.28997535936E+02  0.51100000000E-03 0. -1.
        -11    1    3    3    0    0 -0.55077114625E+01 -0.13609745710E+02  0.32843524395E+01  0.15044834165E+02  0.51100000000E-03 0.  1.
        -12    1    3    3    0    0 -0.13605794304E+02 -0.22778461106E+00  0.69054736524E+01  0.15259590127E+02  0.00000000000E+00 0.  1.
</event>
<event>
 7    1  0.6061051E-012  0.5930193E+02  0.7816164E-02  0.1266605E+00
        -11   -1    0    0    0    0  0.00000000000E+00  0.00000000000E+00  0.45593999997E+02  0.45594000000E+02  0.51100000000E-03 0.  1.
         11   -1    0    0    0    0 -0.00000000000E+00 -0.00000000000E+00 -0.45593999997E+02  0.45594000000E+02  0.51100000000E-03 0. -1.
    9900012    2    1    2    0    0 -0.44890830562E+01 -0.21649114863E+02 -0.22975757437E+02  0.59301929831E+02  0.49999974108E+02 0.  0.
         12    1    1    2    0    0  0.44890830562E+01  0.21649114863E+02  0.22975757437E+02  0.31886070169E+02  0.00000000000E+00 0. -1.
         11    1    3    3    0    0  0.18037240014E+01  0.95163536769E+01  0.57611684434E+01  0.11269670344E+02  0.51100000000E-03 0. -1.
        -11    1    3    3    0    0 -0.45344976693E+01 -0.63540222498E+01  0.24122861978E+01  0.81703361512E+01  0.51100000000E-03 0.  1.
         12    1    3    3    0    0 -0.17583093883E+01 -0.24811446290E+02 -0.31149212078E+02  0.39861923335E+02  0.00000000000E+00 0. -1.
</event>
<event>
 7    1  0.6061051E-012  0.5930196E+02  0.7816164E-02  0.1266605E+00
        -11   -1    0    0    0    0  0.00000000000E+00  0.00000000000E+00  0.45593999997E+02  0.45594000000E+02  0.51100000000E-03 0. -1.
         11   -1    0    0    0    0 -0.00000000000E+00 -0.00000000000E+00 -0.45593999997E+02  0.45594000000E+02  0.51100000000E-03 0.  1.
    9900012    2    1    2    0    0  0.10717826348E+02 -0.97209531745E+01 -0.28413920800E+02  0.59301958736E+02  0.50000026825E+02 0.  0.
         12    1    1    2    0    0 -0.10717826348E+02  0.97209531745E+01  0.28413920800E+02  0.31886041264E+02  0.00000000000E+00 0. -1.
         11    1    3    3    0    0  0.11693400744E+01 -0.20742029046E+02 -0.96138467231E+01  0.22891596149E+02  0.51100000000E-03 0.  1.
        -11    1    3    3    0    0  0.83955687872E+01  0.42441217770E+01 -0.25273676953E+02  0.26967700901E+02  0.51100000000E-03 0. -1.
         12    1    3    3    0    0  0.11529174865E+01  0.67769540944E+01  0.64736028759E+01  0.94426616864E+01  0.00000000000E+00 0. -1.
</event>
<event>
 7    1  0.6061051E-012  0.5930194E+02  0.7816164E-02  0.1266605E+00
        -11   -1    0    0    0    0  0.00000000000E+00  0.00000000000E+00  0.45593999997E+02  0.45594000000E+02  0.51100000000E-03 0. -1.
         11   -1    0    0    0    0 -0.00000000000E+00 -0.00000000000E+00 -0.45593999997E+02  0.45594000000E+02  0.51100000000E-03 0.  1.
    9900012    2    1    2    0    0  0.15285075091E+02  0.12271484934E+02 -0.25149517773E+02  0.59301935532E+02  0.49999984506E+02 0.  0.
         12    1    1    2    0    0 -0.15285075091E+02 -0.12271484934E+02  0.25149517773E+02  0.31886064468E+02  0.00000000000E+00 0. -1.
         11    1    3    3    0    0  0.28757912072E+02  0.12191942705E+02 -0.16472423507E+02  0.35312911380E+02  0.51100000000E-03 0. -1.
        -11    1    3    3    0    0  0.33666864470E+01 -0.35848034154E+01 -0.59282071030E+00  0.49534664443E+01  0.51100000000E-03 0.  1.
        -12    1    3    3    0    0 -0.16839523429E+02  0.36643456446E+01 -0.80842735558E+01  0.19035557707E+02  0.00000000000E+00 0.  1.
</event>
<event>
 7    1  0.6061051E-012  0.5930194E+02  0.7816164E-02  0.1266605E+00
        -11   -1    0    0    0    0  0.00000000000E+00  0.00000000000E+00  0.45593999997E+02  0.45594000000E+02  0.51100000000E-03 0. -1.
         11   -1    0    0    0    0 -0.00000000000E+00 -0.00000000000E+00 -0.45593999997E+02  0.45594000000E+02  0.51100000000E-03 0.  1.
    9900012    2    1    2    0    0 -0.24683555982E+02  0.18792684029E+02 -0.73673572338E+01  0.59301939385E+02  0.49999991533E+02 0.  0.
         12    1    1    2    0    0  0.24683555982E+02 -0.18792684029E+02  0.73673572338E+01  0.31886060615E+02  0.00000000000E+00 0. -1.
         11    1    3    3    0    0 -0.23098246222E+02  0.21472071888E+02  0.48323218178E+01  0.31905018165E+02  0.51100000000E-03 0. -1.
        -11    1    3    3    0    0 -0.83329051167E+01 -0.64706515684E-01  0.43021215639E+01  0.93781525275E+01  0.51100000000E-03 0.  1.
        -12    1    3    3    0    0  0.67475953567E+01 -0.26146813439E+01 -0.16501800616E+02  0.18018768692E+02  0.00000000000E+00 0.  1.
</event>
<event>
 7    1  0.6061051E-012  0.5930194E+02  0.7816164E-02  0.1266605E+00
        -11   -1    0    0    0    0  0.00000000000E+00  0.00000000000E+00  0.45593999997E+02  0.45594000000E+02  0.51100000000E-03 0.  1.
         11   -1    0    0    0    0 -0.00000000000E+00 -0.00000000000E+00 -0.45593999997E+02  0.45594000000E+02  0.51100000000E-03 0. -1.
    9900012    2    1    2    0    0 -0.13542659695E+02  0.27770143878E+02 -0.78826537697E+01  0.59301941086E+02  0.49999994635E+02 0.  0.
         12    1    1    2    0    0  0.13542659695E+02 -0.27770143878E+02  0.78826537697E+01  0.31886058914E+02  0.00000000000E+00 0. -1.
         11    1    3    3    0    0 -0.14085039314E+02  0.25665029372E+02 -0.93187817913E+01  0.30723309709E+02  0.51100000000E-03 0. -1.
        -11    1    3    3    0    0  0.94061053281E+01  0.11774282100E+02 -0.14757597796E+01  0.15142206035E+02  0.51100000000E-03 0.  1.
         12    1    3    3    0    0 -0.88637257099E+01 -0.96691675938E+01  0.29118878012E+01  0.13436425343E+02  0.00000000000E+00 0. -1.
</event>
<event>
 7    1  0.6061051E-012  0.5930196E+02  0.7816164E-02  0.1266605E+00
        -11   -1    0    0    0    0  0.00000000000E+00  0.00000000000E+00  0.45593999997E+02  0.45594000000E+02  0.51100000000E-03 0. -1.
         11   -1    0    0    0    0 -0.00000000000E+00 -0.00000000000E+00 -0.45593999997E+02  0.45594000000E+02  0.51100000000E-03 0.  1.
    9900012    2    1    2    0    0 -0.28315590082E+02 -0.14614470967E+02  0.11680888390E+01  0.59301955484E+02  0.50000020894E+02 0.  0.
         12    1    1    2    0    0  0.28315590082E+02  0.14614470967E+02 -0.11680888390E+01  0.31886044516E+02  0.00000000000E+00 0. -1.
         11    1    3    3    0    0  0.50561057906E+00  0.80209502798E+01 -0.77173959536E+01  0.11142238824E+02  0.51100000000E-03 0. -1.
        -11    1    3    3    0    0 -0.15670423245E+02 -0.85219660715E+01 -0.10592497203E+02  0.20745772284E+02  0.51100000000E-03 0.  1.
         12    1    3    3    0    0 -0.13150777416E+02 -0.14113455175E+02  0.19477981995E+02  0.27413944376E+02  0.00000000000E+00 0. -1.
</event>
<event>
 7    1  0.6061051E-012  0.5930194E+02  0.7816164E-02  0.1266605E+00
        -11   -1    0    0    0    0  0.00000000000E+00  0.00000000000E+00  0.45593999997E+02  0.45594000000E+02  0.51100000000E-03 0. -1.
         11   -1    0    0    0    0 -0.00000000000E+00 -0.00000000000E+00 -0.45593999997E+02  0.45594000000E+02  0.51100000000E-03 0.  1.
    9900012    2    1    2    0    0  0.10332136695E+02  0.25383775337E+02  0.16298205980E+02  0.59301943216E+02  0.49999998519E+02 0.  0.
         12    1    1    2    0    0 -0.10332136695E+02 -0.25383775337E+02 -0.16298205980E+02  0.31886056784E+02  0.00000000000E+00 0. -1.
         11    1    3    3    0    0  0.11452405626E+02 -0.63029926563E-01 -0.10050715195E+02  0.15237402784E+02  0.51100000000E-03 0. -1.
        -11    1    3    3    0    0 -0.52887052874E+01  0.26622105104E+01 -0.30313165768E+01  0.66518154565E+01  0.51100000000E-03 0.  1.
         12    1    3    3    0    0  0.41684363565E+01  0.22784594754E+02  0.29380237752E+02  0.37412724976E+02  0.00000000000E+00 0. -1.
</event>
<event>
 7    1  0.6061051E-012  0.5930194E+02  0.7816164E-02  0.1266605E+00
        -11   -1    0    0    0    0  0.00000000000E+00  0.00000000000E+00  0.45593999997E+02  0.45594000000E+02  0.51100000000E-03 0. -1.
         11   -1    0    0    0    0 -0.00000000000E+00 -0.00000000000E+00 -0.45593999997E+02  0.45594000000E+02  0.51100000000E-03 0.  1.
    9900012    2    1    2    0    0 -0.62271510358E+01  0.47140188231E+01 -0.30914747888E+02  0.59301936893E+02  0.49999986988E+02 0.  0.
         12    1    1    2    0    0  0.62271510358E+01 -0.47140188231E+01  0.30914747888E+02  0.31886063107E+02  0.00000000000E+00 0. -1.
         11    1    3    3    0    0 -0.25016532516E+01  0.40885438269E+01  0.64693638417E+01  0.80515295685E+01  0.51100000000E-03 0. -1.
        -11    1    3    3    0    0 -0.18497309824E+02  0.56136487053E+01 -0.18436737182E+02  0.26712858340E+02  0.51100000000E-03 0.  1.
        -12    1    3    3    0    0  0.14771812040E+02 -0.49881737090E+01 -0.18947374548E+02  0.24537548985E+02  0.00000000000E+00 0.  1.
</event>
<event>
 7    1  0.6061051E-012  0.5930194E+02  0.7816164E-02  0.1266605E+00
        -11   -1    0    0    0    0  0.00000000000E+00  0.00000000000E+00  0.45593999997E+02  0.45594000000E+02  0.51100000000E-03 0.  1.
         11   -1    0    0    0    0 -0.00000000000E+00 -0.00000000000E+00 -0.45593999997E+02  0.45594000000E+02  0.51100000000E-03 0. -1.
    9900012    2    1    2    0    0 -0.21089955827E+02 -0.23828968865E+02 -0.20284501067E+01  0.59301943426E+02  0.49999998903E+02 0.  0.
         12    1    1    2    0    0  0.21089955827E+02  0.23828968865E+02  0.20284501067E+01  0.31886056574E+02  0.00000000000E+00 0. -1.
         11    1    3    3    0    0  0.93180189619E+01 -0.10374592902E+02  0.77021209726E+01  0.15930484079E+02  0.51100000000E-03 0. -1.
        -11    1    3    3    0    0 -0.98810735854E+01 -0.13517242906E+02 -0.14667031376E+02  0.22259229111E+02  0.51100000000E-03 0.  1.
        -12    1    3    3    0    0 -0.20526901204E+02  0.62866942677E-01  0.49364602969E+01  0.21112230236E+02  0.00000000000E+00 0.  1.
</event>
<event>
 7    1  0.6061051E-012  0.5930199E+02  0.7816164E-02  0.1266605E+00
        -11   -1    0    0    0    0  0.00000000000E+00  0.00000000000E+00  0.45593999997E+02  0.45594000000E+02  0.51100000000E-03 0.  1.
         11   -1    0    0    0    0 -0.00000000000E+00 -0.00000000000E+00 -0.45593999997E+02  0.45594000000E+02  0.51100000000E-03 0. -1.
    9900012    2    1    2    0    0 -0.24687291627E+01 -0.91572477483E+01  0.30442866372E+02  0.59301985464E+02  0.50000075570E+02 0.  0.
         12    1    1    2    0    0  0.24687291627E+01  0.91572477483E+01 -0.30442866372E+02  0.31886014536E+02  0.00000000000E+00 0. -1.
         11    1    3    3    0    0  0.55675611206E+01 -0.10084350989E+02 -0.22949810072E+01  0.11745586821E+02  0.51100000000E-03 0. -1.
        -11    1    3    3    0    0  0.10247795280E+02  0.62087838141E+00  0.24301600189E+00  0.10269462260E+02  0.51100000000E-03 0.  1.
        -12    1    3    3    0    0 -0.18284085564E+02  0.30622485895E+00  0.32494831378E+02  0.37286936383E+02  0.00000000000E+00 0.  1.
</event>
<event>
 7    1  0.6061051E-012  0.5930193E+02  0.7816164E-02  0.1266605E+00
        -11   -1    0    0    0    0  0.00000000000E+00  0.00000000000E+00  0.45593999997E+02  0.45594000000E+02  0.51100000000E-03 0.  1.
         11   -1    0    0    0    0 -0.00000000000E+00 -0.00000000000E+00 -0.45593999997E+02  0.45594000000E+02  0.51100000000E-03 0. -1.
    9900012    2    1    2    0    0  0.53896664607E+01 -0.30446965765E+02 -0.77881335255E+01  0.59301933252E+02  0.49999980347E+02 0.  0.
         12    1    1    2    0    0 -0.53896664607E+01  0.30446965765E+02  0.77881335255E+01  0.31886066748E+02  0.00000000000E+00 0. -1.
         11    1    3    3    0    0  0.64545577051E+01  0.33803717806E+00 -0.12489269012E+02  0.14062625111E+02  0.51100000000E-03 0. -1.
        -11    1    3    3    0    0 -0.25835601064E+01 -0.35943691022E+02 -0.26471312756E+01  0.36133516455E+02  0.51100000000E-03 0.  1.
         12    1    3    3    0    0  0.15186688620E+01  0.51586880791E+01  0.73482667625E+01  0.91057916856E+01  0.00000000000E+00 0. -1.
</event>
<event>
 7    1  0.6061051E-012  0.5930196E+02  0.7816164E-02  0.1266605E+00
        -11   -1    0    0    0    0  0.00000000000E+00  0.00000000000E+00  0.45593999997E+02  0.45594000000E+02  0.51100000000E-03 0. -1.
         11   -1    0    0    0    0 -0.00000000000E+00 -0.00000000000E+00 -0.45593999997E+02  0.45594000000E+02  0.51100000000E-03 0.  1.
    9900012    2    1    2    0    0 -0.63430573353E+01 -0.24598914727E+02 -0.19271187047E+02  0.59301958661E+02  0.50000026687E+02 0.  0.
         12    1    1    2    0    0  0.63430573353E+01  0.24598914727E+02  0.19271187047E+02  0.31886041339E+02  0.00000000000E+00 0. -1.
         11    1    3    3    0    0 -0.33042511642E+00  0.55572125750E+01  0.65473964282E+01  0.85941952858E+01  0.51100000000E-03 0. -1.
        -11    1    3    3    0    0  0.92236259124E+01 -0.18236335703E+02 -0.23627207439E+02  0.31239144458E+02  0.51100000000E-03 0.  1.
         12    1    3    3    0    0 -0.15236258131E+02 -0.11919791598E+02 -0.21913760358E+01  0.19468618917E+02  0.00000000000E+00 0. -1.
</event>
<event>
 7    1  0.6061051E-012  0.5930193E+02  0.7816164E-02  0.1266605E+00
        -11   -1    0    0    0    0  0.00000000000E+00  0.00000000000E+00  0.45593999997E+02  0.45594000000E+02  0.51100000000E-03 0.  1.
         11   -1    0    0    0    0 -0.00000000000E+00 -0.00000000000E+00 -0.45593999997E+02  0.45594000000E+02  0.51100000000E-03 0. -1.
    9900012    2    1    2    0    0  0.40702083094E+01  0.41511840656E+01  0.31351595113E+02  0.59301930300E+02  0.49999974963E+02 0.  0.
         12    1    1    2    0    0 -0.40702083094E+01 -0.41511840656E+01 -0.31351595113E+02  0.31886069700E+02  0.00000000000E+00 0. -1.
         11    1    3    3    0    0  0.21644098525E+02  0.48484215615E+01  0.20432375622E+02  0.30157190957E+02  0.51100000000E-03 0. -1.
        -11    1    3    3    0    0 -0.71260125671E+01  0.27211779422E+01  0.15469035366E+02  0.17247490250E+02  0.51100000000E-03 0.  1.
        -12    1    3    3    0    0 -0.10447877649E+02 -0.34184154380E+01 -0.45498158757E+01  0.11897249093E+02  0.00000000000E+00 0.  1.
</event>
<event>
 7    1  0.6061051E-012  0.5930189E+02  0.7816164E-02  0.1266605E+00
        -11   -1    0    0    0    0  0.00000000000E+00  0.00000000000E+00  0.45593999997E+02  0.45594000000E+02  0.51100000000E-03 0.  1.
         11   -1    0    0    0    0 -0.00000000000E+00 -0.00000000000E+00 -0.45593999997E+02  0.45594000000E+02  0.51100000000E-03 0. -1.
    9900012    2    1    2    0    0 -0.17880832476E+02  0.22079881674E+02  0.14473367665E+02  0.59301894620E+02  0.49999909892E+02 0.  0.
         12    1    1    2    0    0  0.17880832476E+02 -0.22079881674E+02 -0.14473367665E+02  0.31886105380E+02  0.00000000000E+00 0. -1.
         11    1    3    3    0    0 -0.46051939370E+01 -0.79146987522E+01  0.81274052707E+01  0.12243569097E+02  0.51100000000E-03 0. -1.
        -11    1    3    3    0    0  0.41104566896E+01 -0.56370274586E+01  0.11936334686E+01  0.70779017996E+01  0.51100000000E-03 0.  1.
        -12    1    3    3    0    0 -0.17386095228E+02  0.35631607885E+02  0.51523289255E+01  0.39980423723E+02  0.00000000000E+00 0.  1.
</event>
<event>
 7    1  0.6061051E-012  0.5930191E+02  0.7816164E-02  0.1266605E+00
        -11   -1    0    0    0    0  0.00000000000E+00  0.00000000000E+00  0.45593999997E+02  0.45594000000E+02  0.51100000000E-03 0. -1.
         11   -1    0    0    0    0 -0.00000000000E+00 -0.00000000000E+00 -0.45593999997E+02  0.45594000000E+02  0.51100000000E-03 0.  1.
    9900012    2    1    2    0    0  0.14604342046E+02 -0.54562112453E+01 -0.27814851311E+02  0.59301905833E+02  0.49999930342E+02 0.  0.
         12    1    1    2    0    0 -0.14604342046E+02  0.54562112453E+01  0.27814851311E+02  0.31886094167E+02  0.00000000000E+00 0. -1.
         11    1    3    3    0    0 -0.21975563962E+01 -0.48531871540E+01  0.43811683377E+00  0.53455239489E+01  0.51100000000E-03 0. -1.
        -11    1    3    3    0    0  0.21187792165E+02 -0.90138220875E+01  0.11570358029E+01  0.23054506231E+02  0.51100000000E-03 0.  1.
        -12    1    3    3    0    0 -0.43858937222E+01  0.84107979962E+01 -0.29410003948E+02  0.30901875653E+02  0.00000000000E+00 0.  1.
</event>
<event>
 7    1  0.6061051E-012  0.5930195E+02  0.7816164E-02  0.1266605E+00
        -11   -1    0    0    0    0  0.00000000000E+00  0.00000000000E+00  0.45593999997E+02  0.45594000000E+02  0.51100000000E-03 0.  1.
         11   -1    0    0    0    0 -0.00000000000E+00 -0.00000000000E+00 -0.45593999997E+02  0.45594000000E+02  0.51100000000E-03 0. -1.
    9900012    2    1    2    0    0  0.88517741609E+01  0.32304100397E+01  0.30461960175E+02  0.59301945485E+02  0.50000002658E+02 0.  0.
         12    1    1    2    0    0 -0.88517741609E+01 -0.32304100397E+01 -0.30461960175E+02  0.31886054515E+02  0.00000000000E+00 0. -1.
         11    1    3    3    0    0 -0.11816929278E+02  0.19383313333E+01  0.28840653045E+01  0.12317255330E+02  0.51100000000E-03 0.  1.
        -11    1    3    3    0    0  0.89046074148E+01  0.71143927485E+01  0.31325136064E+02  0.33334228161E+02  0.51100000000E-03 0. -1.
         12    1    3    3    0    0  0.11764096025E+02 -0.58223140422E+01 -0.37472411937E+01  0.13650461994E+02  0.00000000000E+00 0. -1.
</event>
<event>
 7    1  0.6061051E-012  0.5930195E+02  0.7816164E-02  0.1266605E+00
        -11   -1    0    0    0    0  0.00000000000E+00  0.00000000000E+00  0.45593999997E+02  0.45594000000E+02  0.51100000000E-03 0.  1.
         11   -1    0    0    0    0 -0.00000000000E+00 -0.00000000000E+00 -0.45593999997E+02  0.45594000000E+02  0.51100000000E-03 0. -1.
    9900012    2    1    2    0    0  0.40389897344E+01  0.19387294647E+02  0.24990787084E+02  0.59301951784E+02  0.50000014145E+02 0.  0.
         12    1    1    2    0    0 -0.40389897344E+01 -0.19387294647E+02 -0.24990787084E+02  0.31886048216E+02  0.00000000000E+00 0. -1.
         11    1    3    3    0    0 -0.78259218095E+00 -0.54289302009E+01  0.23819887486E+02  0.24443256202E+02  0.51100000000E-03 0. -1.
        -11    1    3    3    0    0 -0.17170558713E+01  0.69852131922E+01  0.11253647310E+02  0.13356124522E+02  0.51100000000E-03 0.  1.
         12    1    3    3    0    0  0.65386377867E+01  0.17831011655E+02 -0.10082747712E+02  0.21502571060E+02  0.00000000000E+00 0. -1.
</event>
<event>
 7    1  0.6061051E-012  0.5930197E+02  0.7816164E-02  0.1266605E+00
        -11   -1    0    0    0    0  0.00000000000E+00  0.00000000000E+00  0.45593999997E+02  0.45594000000E+02  0.51100000000E-03 0. -1.
         11   -1    0    0    0    0 -0.00000000000E+00 -0.00000000000E+00 -0.45593999997E+02  0.45594000000E+02  0.51100000000E-03 0.  1.
    9900012    2    1    2    0    0  0.11092485090E+01 -0.26998644297E+02 -0.16928140583E+02  0.59301965914E+02  0.50000039915E+02 0.  0.
         12    1    1    2    0    0 -0.11092485090E+01  0.26998644297E+02  0.16928140583E+02  0.31886034086E+02  0.00000000000E+00 0. -1.
         11    1    3    3    0    0  0.15028806564E+02 -0.15988794683E+02 -0.10952419483E+02  0.24524723749E+02  0.51100000000E-03 0. -1.
        -11    1    3    3    0    0 -0.85042095193E+00 -0.17693113364E+02 -0.88786111602E+01  0.19814116500E+02  0.51100000000E-03 0.  1.
         12    1    3    3    0    0 -0.13069137103E+02  0.66832637491E+01  0.29028900605E+01  0.14963125665E+02  0.00000000000E+00 0. -1.
</event>
<event>
 7    1  0.6061051E-012  0.5930196E+02  0.7816164E-02  0.1266605E+00
        -11   -1    0    0    0    0  0.00000000000E+00  0.00000000000E+00  0.45593999997E+02  0.45594000000E+02  0.51100000000E-03 0.  1.
         11   -1    0    0    0    0 -0.00000000000E+00 -0.00000000000E+00 -0.45593999997E+02  0.45594000000E+02  0.51100000000E-03 0. -1.
    9900012    2    1    2    0    0  0.29471980383E+02 -0.10897066627E+02 -0.54199720268E+01  0.59301956257E+02  0.50000022304E+02 0.  0.
         12    1    1    2    0    0 -0.29471980383E+02  0.10897066627E+02  0.54199720268E+01  0.31886043743E+02  0.00000000000E+00 0. -1.
         11    1    3    3    0    0  0.24534376709E+02 -0.71428331561E+01 -0.82513968436E+01  0.26852211382E+02  0.51100000000E-03 0. -1.
        -11    1    3    3    0    0  0.17807049752E+02 -0.48521822751E+01  0.55048936076E+01  0.19259764993E+02  0.51100000000E-03 0.  1.
         12    1    3    3    0    0 -0.12869446077E+02  0.10979488036E+01 -0.26734687909E+01  0.13189979882E+02  0.00000000000E+00 0. -1.
</event>
<event>
 7    1  0.6061051E-012  0.5930194E+02  0.7816164E-02  0.1266605E+00
        -11   -1    0    0    0    0  0.00000000000E+00  0.00000000000E+00  0.45593999997E+02  0.45594000000E+02  0.51100000000E-03 0. -1.
         11   -1    0    0    0    0 -0.00000000000E+00 -0.00000000000E+00 -0.45593999997E+02  0.45594000000E+02  0.51100000000E-03 0.  1.
    9900012    2    1    2    0    0  0.28271320196E+02 -0.33125038286E+01 -0.14369430390E+02  0.59301941025E+02  0.49999994524E+02 0.  0.
         12    1    1    2    0    0 -0.28271320196E+02  0.33125038286E+01  0.14369430390E+02  0.31886058975E+02  0.00000000000E+00 0. -1.
         11    1    3    3    0    0  0.99285837926E+01  0.16909712108E+02 -0.40724537591E+01  0.20027481609E+02  0.51100000000E-03 0. -1.
        -11    1    3    3    0    0  0.14930143879E+02  0.53067877279E+00 -0.10468306675E+02  0.18242156153E+02  0.51100000000E-03 0.  1.
         12    1    3    3    0    0  0.34125925241E+01 -0.20752894710E+02  0.17133004406E+00  0.21032303263E+02  0.00000000000E+00 0. -1.
</event>
<event>
 7    1  0.6061051E-012  0.5930193E+02  0.7816164E-02  0.1266605E+00
        -11   -1    0    0    0    0  0.00000000000E+00  0.00000000000E+00  0.45593999997E+02  0.45594000000E+02  0.51100000000E-03 0. -1.
         11   -1    0    0    0    0 -0.00000000000E+00 -0.00000000000E+00 -0.45593999997E+02  0.45594000000E+02  0.51100000000E-03 0.  1.
    9900012    2    1    2    0    0 -0.27467494067E+02 -0.95209502183E+01 -0.13099999585E+02  0.59301926042E+02  0.49999967198E+02 0.  0.
         12    1    1    2    0    0  0.27467494067E+02  0.95209502183E+01  0.13099999585E+02  0.31886073958E+02  0.00000000000E+00 0. -1.
         11    1    3    3    0    0  0.70591206354E+01  0.10799050610E+02 -0.87317703579E+00  0.12931091084E+02  0.51100000000E-03 0. -1.
        -11    1    3    3    0    0 -0.45557538875E+01  0.39735439382E+01 -0.59000350175E+00  0.60738825562E+01  0.51100000000E-03 0.  1.
        -12    1    3    3    0    0 -0.29970860814E+02 -0.24293544767E+02 -0.11636819047E+02  0.40296952401E+02  0.00000000000E+00 0.  1.
</event>
<event>
 7    1  0.6061051E-012  0.5930197E+02  0.7816164E-02  0.1266605E+00
        -11   -1    0    0    0    0  0.00000000000E+00  0.00000000000E+00  0.45593999997E+02  0.45594000000E+02  0.51100000000E-03 0.  1.
         11   -1    0    0    0    0 -0.00000000000E+00 -0.00000000000E+00 -0.45593999997E+02  0.45594000000E+02  0.51100000000E-03 0. -1.
    9900012    2    1    2    0    0  0.18251970653E+02 -0.16556576103E+02 -0.20235230314E+02  0.59301965583E+02  0.50000039312E+02 0.  0.
         12    1    1    2    0    0 -0.18251970653E+02  0.16556576103E+02  0.20235230314E+02  0.31886034417E+02  0.00000000000E+00 0. -1.
         11    1    3    3    0    0  0.20546457760E+01 -0.21203349575E+02 -0.32346023362E+01  0.21546838631E+02  0.51100000000E-03 0. -1.
        -11    1    3    3    0    0  0.24054028267E+02 -0.92886044761E+00 -0.11849002567E+02  0.26830168090E+02  0.51100000000E-03 0.  1.
         12    1    3    3    0    0 -0.78567033903E+01  0.55756339197E+01 -0.51516254107E+01  0.10924958862E+02  0.00000000000E+00 0. -1.
</event>
<event>
 7    1  0.6061051E-012  0.5930195E+02  0.7816164E-02  0.1266605E+00
        -11   -1    0    0    0    0  0.00000000000E+00  0.00000000000E+00  0.45593999997E+02  0.45594000000E+02  0.51100000000E-03 0.  1.
         11   -1    0    0    0    0 -0.00000000000E+00 -0.00000000000E+00 -0.45593999997E+02  0.45594000000E+02  0.51100000000E-03 0. -1.
    9900012    2    1    2    0    0 -0.10253149275E+02 -0.29664131258E+02 -0.56242995494E+01  0.59301945074E+02  0.50000001908E+02 0.  0.
         12    1    1    2    0    0  0.10253149275E+02  0.29664131258E+02  0.56242995494E+01  0.31886054926E+02  0.00000000000E+00 0. -1.
         11    1    3    3    0    0 -0.40980455500E+01 -0.49472319553E+01 -0.16201510340E+02  0.17428655109E+02  0.51100000000E-03 0. -1.
        -11    1    3    3    0    0 -0.15434136686E+02 -0.45881816548E+01 -0.22601872500E+01  0.16259533597E+02  0.51100000000E-03 0.  1.
        -12    1    3    3    0    0  0.92790329612E+01 -0.20128717648E+02  0.12837398040E+02  0.25613756368E+02  0.00000000000E+00 0.  1.
</event>
<event>
 7    1  0.6061051E-012  0.5930194E+02  0.7816164E-02  0.1266605E+00
        -11   -1    0    0    0    0  0.00000000000E+00  0.00000000000E+00  0.45593999997E+02  0.45594000000E+02  0.51100000000E-03 0. -1.
         11   -1    0    0    0    0 -0.00000000000E+00 -0.00000000000E+00 -0.45593999997E+02  0.45594000000E+02  0.51100000000E-03 0.  1.
    9900012    2    1    2    0    0 -0.26139086479E+02  0.66336827190E+01 -0.17013618961E+02  0.59301940060E+02  0.49999992763E+02 0.  0.
         12    1    1    2    0    0  0.26139086479E+02 -0.66336827190E+01  0.17013618961E+02  0.31886059940E+02  0.00000000000E+00 0. -1.
         11    1    3    3    0    0  0.10903069582E+01 -0.24980398764E+01  0.55255470119E+01  0.61612208635E+01  0.51100000000E-03 0. -1.
        -11    1    3    3    0    0 -0.27458372127E+02 -0.64703631355E+01 -0.33507805005E+01  0.28408722766E+02  0.51100000000E-03 0.  1.
         12    1    3    3    0    0  0.22897868978E+00  0.15602085731E+02 -0.19188385472E+02  0.24731996430E+02  0.00000000000E+00 0. -1.
</event>
<event>
 7    1  0.6061051E-012  0.5930189E+02  0.7816164E-02  0.1266605E+00
        -11   -1    0    0    0    0  0.00000000000E+00  0.00000000000E+00  0.45593999997E+02  0.45594000000E+02  0.51100000000E-03 0. -1.
         11   -1    0    0    0    0 -0.00000000000E+00 -0.00000000000E+00 -0.45593999997E+02  0.45594000000E+02  0.51100000000E-03 0.  1.
    9900012    2    1    2    0    0 -0.29601332451E+02 -0.11670568813E+01 -0.11795039509E+02  0.59301892341E+02  0.49999905736E+02 0.  0.
         12    1    1    2    0    0  0.29601332451E+02  0.11670568813E+01  0.11795039509E+02  0.31886107659E+02  0.00000000000E+00 0. -1.
         11    1    3    3    0    0  0.51989620713E+01 -0.21927226842E+01  0.71109423876E+01  0.90775955677E+01  0.51100000000E-03 0. -1.
        -11    1    3    3    0    0 -0.21412847971E+01 -0.98235980171E+01 -0.11021961344E+02  0.14918840797E+02  0.51100000000E-03 0.  1.
        -12    1    3    3    0    0 -0.32659009725E+02  0.10849263820E+02 -0.78840205524E+01  0.35305455977E+02  0.00000000000E+00 0.  1.
</event>
<event>
 7    1  0.6061051E-012  0.5930196E+02  0.7816164E-02  0.1266605E+00
        -11   -1    0    0    0    0  0.00000000000E+00  0.00000000000E+00  0.45593999997E+02  0.45594000000E+02  0.51100000000E-03 0.  1.
         11   -1    0    0    0    0 -0.00000000000E+00 -0.00000000000E+00 -0.45593999997E+02  0.45594000000E+02  0.51100000000E-03 0. -1.
    9900012    2    1    2    0    0  0.21734323353E+02 -0.22532981354E+02  0.60501017480E+01  0.59301956164E+02  0.50000022135E+02 0.  0.
         12    1    1    2    0    0 -0.21734323353E+02  0.22532981354E+02 -0.60501017480E+01  0.31886043836E+02  0.00000000000E+00 0. -1.
         11    1    3    3    0    0 -0.47144498646E+01  0.87608246579E+01 -0.39701415032E+01  0.10711681009E+02  0.51100000000E-03 0. -1.
        -11    1    3    3    0    0 -0.45696676750E+01 -0.26481385553E+01  0.47744643453E+00  0.53030609866E+01  0.51100000000E-03 0.  1.
         12    1    3    3    0    0  0.31018440893E+02 -0.28645667456E+02  0.95427968167E+01  0.43287214169E+02  0.00000000000E+00 0. -1.
</event>
<event>
 7    1  0.6061051E-012  0.5930194E+02  0.7816164E-02  0.1266605E+00
        -11   -1    0    0    0    0  0.00000000000E+00  0.00000000000E+00  0.45593999997E+02  0.45594000000E+02  0.51100000000E-03 0.  1.
         11   -1    0    0    0    0 -0.00000000000E+00 -0.00000000000E+00 -0.45593999997E+02  0.45594000000E+02  0.51100000000E-03 0. -1.
    9900012    2    1    2    0    0 -0.30189077237E+02 -0.94730480079E+01 -0.39499061200E+01  0.59301940643E+02  0.49999993827E+02 0.  0.
         12    1    1    2    0    0  0.30189077237E+02  0.94730480079E+01  0.39499061200E+01  0.31886059357E+02  0.00000000000E+00 0. -1.
         11    1    3    3    0    0 -0.28891760636E+02  0.12034998079E+00  0.23416044394E+00  0.28892960183E+02  0.51100000000E-03 0. -1.
        -11    1    3    3    0    0 -0.45874937118E+01 -0.96695124687E+00  0.11382599969E+02  0.12310307697E+02  0.51100000000E-03 0.  1.
        -12    1    3    3    0    0  0.32901771113E+01 -0.86264467418E+01 -0.15566666533E+02  0.18098672763E+02  0.00000000000E+00 0.  1.
</event>
<event>
 7    1  0.6061051E-012  0.5930194E+02  0.7816164E-02  0.1266605E+00
        -11   -1    0    0    0    0  0.00000000000E+00  0.00000000000E+00  0.45593999997E+02  0.45594000000E+02  0.51100000000E-03 0.  1.
         11   -1    0    0    0    0 -0.00000000000E+00 -0.00000000000E+00 -0.45593999997E+02  0.45594000000E+02  0.51100000000E-03 0. -1.
    9900012    2    1    2    0    0 -0.22909822894E+02 -0.53950545626E+01  0.21511716809E+02  0.59301944132E+02  0.50000000190E+02 0.  0.
         12    1    1    2    0    0  0.22909822894E+02  0.53950545626E+01 -0.21511716809E+02  0.31886055868E+02  0.00000000000E+00 0. -1.
         11    1    3    3    0    0  0.31728433385E+01 -0.13992079539E+02 -0.50663130711E+01  0.15215543140E+02  0.51100000000E-03 0. -1.
        -11    1    3    3    0    0  0.29223328186E+01  0.44890039941E+01  0.16041644839E+01  0.55914693877E+01  0.51100000000E-03 0.  1.
        -12    1    3    3    0    0 -0.29004999051E+02  0.41080209819E+01  0.24973865397E+02  0.38494931604E+02  0.00000000000E+00 0.  1.
</event>
<event>
 7    1  0.6061051E-012  0.5930194E+02  0.7816164E-02  0.1266605E+00
        -11   -1    0    0    0    0  0.00000000000E+00  0.00000000000E+00  0.45593999997E+02  0.45594000000E+02  0.51100000000E-03 0. -1.
         11   -1    0    0    0    0 -0.00000000000E+00 -0.00000000000E+00 -0.45593999997E+02  0.45594000000E+02  0.51100000000E-03 0.  1.
    9900012    2    1    2    0    0 -0.68815524249E+01  0.14299069333E+02 -0.27656856505E+02  0.59301939420E+02  0.49999991597E+02 0.  0.
         12    1    1    2    0    0  0.68815524249E+01 -0.14299069333E+02  0.27656856505E+02  0.31886060580E+02  0.00000000000E+00 0. -1.
         11    1    3    3    0    0 -0.74024067369E+01  0.12049396671E+02 -0.41523190147E+01  0.14738566385E+02  0.51100000000E-03 0. -1.
        -11    1    3    3    0    0 -0.18096583119E+02  0.37846760155E+01 -0.15934041449E+02  0.24407043456E+02  0.51100000000E-03 0.  1.
         12    1    3    3    0    0  0.18617437431E+02 -0.15350033536E+01 -0.75704960413E+01  0.20156329579E+02  0.00000000000E+00 0. -1.
</event>
<event>
 7    1  0.6061051E-012  0.5930192E+02  0.7816164E-02  0.1266605E+00
        -11   -1    0    0    0    0  0.00000000000E+00  0.00000000000E+00  0.45593999997E+02  0.45594000000E+02  0.51100000000E-03 0.  1.
         11   -1    0    0    0    0 -0.00000000000E+00 -0.00000000000E+00 -0.45593999997E+02  0.45594000000E+02  0.51100000000E-03 0. -1.
    9900012    2    1    2    0    0  0.19959328881E+02  0.12485644180E+02  0.21504783724E+02  0.59301923995E+02  0.49999963466E+02 0.  0.
         12    1    1    2    0    0 -0.19959328881E+02 -0.12485644180E+02 -0.21504783724E+02  0.31886076005E+02  0.00000000000E+00 0. -1.
         11    1    3    3    0    0  0.25900156012E+00  0.43235286039E+01 -0.49154171316E+01  0.65514355096E+01  0.51100000000E-03 0. -1.
        -11    1    3    3    0    0 -0.79500951861E+01  0.10511314938E+02  0.20507978905E+02  0.24377632252E+02  0.51100000000E-03 0.  1.
         12    1    3    3    0    0  0.27650422507E+02 -0.23491993620E+01  0.59122219505E+01  0.28372856234E+02  0.00000000000E+00 0. -1.
</event>
<event>
 7    1  0.6061051E-012  0.5930216E+02  0.7816164E-02  0.1266604E+00
        -11   -1    0    0    0    0  0.00000000000E+00  0.00000000000E+00  0.45593999997E+02  0.45594000000E+02  0.51100000000E-03 0.  1.
         11   -1    0    0    0    0 -0.00000000000E+00 -0.00000000000E+00 -0.45593999997E+02  0.45594000000E+02  0.51100000000E-03 0. -1.
    9900012    2    1    2    0    0 -0.55281231619E+01  0.19432006192E+02  0.24668682121E+02  0.59302158504E+02  0.50000391151E+02 0.  0.
         12    1    1    2    0    0  0.55281231619E+01 -0.19432006192E+02 -0.24668682121E+02  0.31885841496E+02  0.00000000000E+00 0. -1.
         11    1    3    3    0    0 -0.69392925877E+01  0.13198869355E+02  0.59443501925E+01  0.16053013217E+02  0.51100000000E-03 0. -1.
        -11    1    3    3    0    0  0.14663149066E+02  0.14886161842E+02  0.17708482118E+02  0.27389707813E+02  0.51100000000E-03 0.  1.
         12    1    3    3    0    0 -0.13251979640E+02 -0.86530250049E+01  0.10158498105E+01  0.15859437473E+02  0.00000000000E+00 0. -1.
</event>
<event>
 7    1  0.6061051E-012  0.5930195E+02  0.7816164E-02  0.1266605E+00
        -11   -1    0    0    0    0  0.00000000000E+00  0.00000000000E+00  0.45593999997E+02  0.45594000000E+02  0.51100000000E-03 0. -1.
         11   -1    0    0    0    0 -0.00000000000E+00 -0.00000000000E+00 -0.45593999997E+02  0.45594000000E+02  0.51100000000E-03 0.  1.
    9900012    2    1    2    0    0  0.18581300597E+02  0.14116152860E+02 -0.21729929563E+02  0.59301947528E+02  0.50000006383E+02 0.  0.
         12    1    1    2    0    0 -0.18581300597E+02 -0.14116152860E+02  0.21729929563E+02  0.31886052472E+02  0.00000000000E+00 0. -1.
         11    1    3    3    0    0 -0.10578444710E+02 -0.49431065817E+00 -0.79809735132E+01  0.13260609865E+02  0.51100000000E-03 0. -1.
        -11    1    3    3    0    0 -0.15548997133E+01  0.11565236290E+02 -0.91638317971E+01  0.14837392528E+02  0.51100000000E-03 0.  1.
        -12    1    3    3    0    0  0.30714645020E+02  0.30452272273E+01 -0.45851242529E+01  0.31203945135E+02  0.00000000000E+00 0.  1.
</event>
<event>
 7    1  0.6061051E-012  0.5930192E+02  0.7816164E-02  0.1266605E+00
        -11   -1    0    0    0    0  0.00000000000E+00  0.00000000000E+00  0.45593999997E+02  0.45594000000E+02  0.51100000000E-03 0.  1.
         11   -1    0    0    0    0 -0.00000000000E+00 -0.00000000000E+00 -0.45593999997E+02  0.45594000000E+02  0.51100000000E-03 0. -1.
    9900012    2    1    2    0    0  0.17072042731E+02 -0.72304773687E+01  0.25942007403E+02  0.59301918490E+02  0.49999953425E+02 0.  0.
         12    1    1    2    0    0 -0.17072042731E+02  0.72304773687E+01 -0.25942007403E+02  0.31886081510E+02  0.00000000000E+00 0. -1.
         11    1    3    3    0    0  0.21688253336E+02 -0.85842528852E+01  0.12413687765E+02  0.26422894893E+02  0.51100000000E-03 0. -1.
        -11    1    3    3    0    0 -0.24374538822E+01 -0.79565418039E+00  0.22888250054E+02  0.23031418493E+02  0.51100000000E-03 0.  1.
         12    1    3    3    0    0 -0.21787567228E+01  0.21494296969E+01 -0.93599304163E+01  0.98476051037E+01  0.00000000000E+00 0. -1.
</event>
<event>
 7    1  0.6061051E-012  0.5930194E+02  0.7816164E-02  0.1266605E+00
        -11   -1    0    0    0    0  0.00000000000E+00  0.00000000000E+00  0.45593999997E+02  0.45594000000E+02  0.51100000000E-03 0.  1.
         11   -1    0    0    0    0 -0.00000000000E+00 -0.00000000000E+00 -0.45593999997E+02  0.45594000000E+02  0.51100000000E-03 0. -1.
    9900012    2    1    2    0    0 -0.36107165312E+00 -0.47369346638E+01  0.31530169720E+02  0.59301944657E+02  0.50000001148E+02 0.  0.
         12    1    1    2    0    0  0.36107165312E+00  0.47369346638E+01 -0.31530169720E+02  0.31886055343E+02  0.00000000000E+00 0. -1.
         11    1    3    3    0    0 -0.10203197496E+02 -0.16357971080E+01 -0.37420230837E+01  0.10990168713E+02  0.51100000000E-03 0. -1.
        -11    1    3    3    0    0 -0.10047678075E+02 -0.76249199839E+01  0.13770916426E+02  0.18674404379E+02  0.51100000000E-03 0.  1.
         12    1    3    3    0    0  0.19889803918E+02  0.45237824281E+01  0.21501276378E+02  0.29637371564E+02  0.00000000000E+00 0. -1.
</event>
<event>
 7    1  0.6061051E-012  0.5930188E+02  0.7816164E-02  0.1266605E+00
        -11   -1    0    0    0    0  0.00000000000E+00  0.00000000000E+00  0.45593999997E+02  0.45594000000E+02  0.51100000000E-03 0. -1.
         11   -1    0    0    0    0 -0.00000000000E+00 -0.00000000000E+00 -0.45593999997E+02  0.45594000000E+02  0.51100000000E-03 0.  1.
    9900012    2    1    2    0    0  0.21759640433E+02 -0.20795375481E+02  0.10525918107E+02  0.59301881623E+02  0.49999886189E+02 0.  0.
         12    1    1    2    0    0 -0.21759640433E+02  0.20795375481E+02 -0.10525918107E+02  0.31886118377E+02  0.00000000000E+00 0. -1.
         11    1    3    3    0    0 -0.74434963496E+01 -0.60526566444E+01 -0.33752981313E+01  0.10170198036E+02  0.51100000000E-03 0. -1.
        -11    1    3    3    0    0  0.28983026287E+02 -0.69627725998E+01 -0.35550811571E+01  0.30018904333E+02  0.51100000000E-03 0.  1.
         12    1    3    3    0    0  0.22011049512E+00 -0.77799462364E+01  0.17456297395E+02  0.19112779254E+02  0.00000000000E+00 0. -1.
</event>
<event>
 7    1  0.6061051E-012  0.5930195E+02  0.7816164E-02  0.1266605E+00
        -11   -1    0    0    0    0  0.00000000000E+00  0.00000000000E+00  0.45593999997E+02  0.45594000000E+02  0.51100000000E-03 0. -1.
         11   -1    0    0    0    0 -0.00000000000E+00 -0.00000000000E+00 -0.45593999997E+02  0.45594000000E+02  0.51100000000E-03 0.  1.
    9900012    2    1    2    0    0  0.14867915938E+01 -0.48160059203E+01 -0.31485167643E+02  0.59301949072E+02  0.50000009199E+02 0.  0.
         12    1    1    2    0    0 -0.14867915938E+01  0.48160059203E+01  0.31485167643E+02  0.31886050928E+02  0.00000000000E+00 0. -1.
         11    1    3    3    0    0  0.53193165610E+01  0.19131910781E+01 -0.58618356967E+01  0.81434972078E+01  0.51100000000E-03 0. -1.
        -11    1    3    3    0    0 -0.14059699751E+02 -0.41407746269E+01 -0.34427585123E+02  0.37417640082E+02  0.51100000000E-03 0.  1.
         12    1    3    3    0    0  0.10227174784E+02 -0.25884223714E+01  0.88042531766E+01  0.13740811782E+02  0.00000000000E+00 0. -1.
</event>
<event>
 7    1  0.6061051E-012  0.5930195E+02  0.7816164E-02  0.1266605E+00
        -11   -1    0    0    0    0  0.00000000000E+00  0.00000000000E+00  0.45593999997E+02  0.45594000000E+02  0.51100000000E-03 0.  1.
         11   -1    0    0    0    0 -0.00000000000E+00 -0.00000000000E+00 -0.45593999997E+02  0.45594000000E+02  0.51100000000E-03 0. -1.
    9900012    2    1    2    0    0  0.11544174928E+02  0.94279843100E+01  0.28188030498E+02  0.59301954051E+02  0.50000018280E+02 0.  0.
         12    1    1    2    0    0 -0.11544174928E+02 -0.94279843100E+01 -0.28188030498E+02  0.31886045949E+02  0.00000000000E+00 0. -1.
         11    1    3    3    0    0  0.15045203115E+02 -0.10382368782E+02  0.37512040817E+01  0.18660740892E+02  0.51100000000E-03 0. -1.
        -11    1    3    3    0    0 -0.83014299703E+01  0.47315954295E+01 -0.20637143958E+01  0.97755128883E+01  0.51100000000E-03 0.  1.
        -12    1    3    3    0    0  0.48004017829E+01  0.15078757662E+02  0.26500540812E+02  0.30865700271E+02  0.00000000000E+00 0.  1.
</event>
<event>
 7    1  0.6061051E-012  0.5930194E+02  0.7816164E-02  0.1266605E+00
        -11   -1    0    0    0    0  0.00000000000E+00  0.00000000000E+00  0.45593999997E+02  0.45594000000E+02  0.51100000000E-03 0.  1.
         11   -1    0    0    0    0 -0.00000000000E+00 -0.00000000000E+00 -0.45593999997E+02  0.45594000000E+02  0.51100000000E-03 0. -1.
    9900012    2    1    2    0    0  0.28103298910E+01 -0.23059042626E+02 -0.21842701312E+02  0.59301937190E+02  0.49999987530E+02 0.  0.
         12    1    1    2    0    0 -0.28103298910E+01  0.23059042626E+02  0.21842701312E+02  0.31886062810E+02  0.00000000000E+00 0. -1.
         11    1    3    3    0    0  0.11620863950E+02 -0.12843624823E+02 -0.11984980225E+01  0.17362015301E+02  0.51100000000E-03 0. -1.
        -11    1    3    3    0    0 -0.44142681763E+01 -0.12850585417E+02  0.59666434508E+01  0.14839950924E+02  0.51100000000E-03 0.  1.
         12    1    3    3    0    0 -0.43962658827E+01  0.26351676148E+01 -0.26610846740E+02  0.27099970965E+02  0.00000000000E+00 0. -1.
</event>
<event>
 7    1  0.6061051E-012  0.5930197E+02  0.7816164E-02  0.1266605E+00
        -11   -1    0    0    0    0  0.00000000000E+00  0.00000000000E+00  0.45593999997E+02  0.45594000000E+02  0.51100000000E-03 0.  1.
         11   -1    0    0    0    0 -0.00000000000E+00 -0.00000000000E+00 -0.45593999997E+02  0.45594000000E+02  0.51100000000E-03 0. -1.
    9900012    2    1    2    0    0  0.14145638859E+02  0.28475438053E+02 -0.24019876899E+01  0.59301965190E+02  0.50000038595E+02 0.  0.
         12    1    1    2    0    0 -0.14145638859E+02 -0.28475438053E+02  0.24019876899E+01  0.31886034810E+02  0.00000000000E+00 0. -1.
         11    1    3    3    0    0  0.92359647715E+01  0.11698066624E+02  0.44865098840E+01  0.15565236239E+02  0.51100000000E-03 0. -1.
        -11    1    3    3    0    0  0.33336711592E+01  0.25945478073E+02  0.69461850645E+01  0.27065304045E+02  0.51100000000E-03 0.  1.
         12    1    3    3    0    0  0.15760029281E+01 -0.91681066437E+01 -0.13834682638E+02  0.16671424905E+02  0.00000000000E+00 0. -1.
</event>
<event>
 7    1  0.6061051E-012  0.5930192E+02  0.7816164E-02  0.1266605E+00
        -11   -1    0    0    0    0  0.00000000000E+00  0.00000000000E+00  0.45593999997E+02  0.45594000000E+02  0.51100000000E-03 0.  1.
         11   -1    0    0    0    0 -0.00000000000E+00 -0.00000000000E+00 -0.45593999997E+02  0.45594000000E+02  0.51100000000E-03 0. -1.
    9900012    2    1    2    0    0 -0.24724378903E+02  0.17917246673E+02 -0.91869145498E+01  0.59301920914E+02  0.49999957847E+02 0.  0.
         12    1    1    2    0    0  0.24724378903E+02 -0.17917246673E+02  0.91869145498E+01  0.31886079086E+02  0.00000000000E+00 0. -1.
         11    1    3    3    0    0 -0.11748656836E+02 -0.35879317114E+01 -0.10435208783E+02  0.16118243515E+02  0.51100000000E-03 0. -1.
        -11    1    3    3    0    0 -0.16610572742E+02  0.81943467992E+01 -0.13551092655E+02  0.22949739839E+02  0.51100000000E-03 0.  1.
         12    1    3    3    0    0  0.36348506753E+01  0.13310831586E+02  0.14799386887E+02  0.20233937560E+02  0.00000000000E+00 0. -1.
</event>
<event>
 7    1  0.6061051E-012  0.5930194E+02  0.7816164E-02  0.1266605E+00
        -11   -1    0    0    0    0  0.00000000000E+00  0.00000000000E+00  0.45593999997E+02  0.45594000000E+02  0.51100000000E-03 0. -1.
         11   -1    0    0    0    0 -0.00000000000E+00 -0.00000000000E+00 -0.45593999997E+02  0.45594000000E+02  0.51100000000E-03 0.  1.
    9900012    2    1    2    0    0  0.15642280725E+02  0.27568288596E+02 -0.34683575797E+01  0.59301937423E+02  0.49999987955E+02 0.  0.
         12    1    1    2    0    0 -0.15642280725E+02 -0.27568288596E+02  0.34683575797E+01  0.31886062577E+02  0.00000000000E+00 0. -1.
         11    1    3    3    0    0  0.12595940509E+02  0.20607726256E+01 -0.15236361525E+02  0.19875895298E+02  0.51100000000E-03 0. -1.
        -11    1    3    3    0    0  0.18768084938E+01  0.77970724813E+01 -0.90345709067E+01  0.12080572053E+02  0.51100000000E-03 0.  1.
         12    1    3    3    0    0  0.11695317221E+01  0.17710443489E+02  0.20802574852E+02  0.27345470072E+02  0.00000000000E+00 0. -1.
</event>
<event>
 7    1  0.6061051E-012  0.5930195E+02  0.7816164E-02  0.1266605E+00
        -11   -1    0    0    0    0  0.00000000000E+00  0.00000000000E+00  0.45593999997E+02  0.45594000000E+02  0.51100000000E-03 0. -1.
         11   -1    0    0    0    0 -0.00000000000E+00 -0.00000000000E+00 -0.45593999997E+02  0.45594000000E+02  0.51100000000E-03 0.  1.
    9900012    2    1    2    0    0  0.29527021156E+02 -0.11640129746E+02  0.30630996650E+01  0.59301950097E+02  0.50000011068E+02 0.  0.
         12    1    1    2    0    0 -0.29527021156E+02  0.11640129746E+02 -0.30630996650E+01  0.31886049903E+02  0.00000000000E+00 0. -1.
         11    1    3    3    0    0  0.22492014909E+02  0.85859647607E+01 -0.28565644479E+01  0.24243957727E+02  0.51100000000E-03 0. -1.
        -11    1    3    3    0    0  0.13198680535E+02 -0.95016967920E+01 -0.65143274321E+01  0.17519242904E+02  0.51100000000E-03 0.  1.
         12    1    3    3    0    0 -0.61636742875E+01 -0.10724397715E+02  0.12433991545E+02  0.17538749466E+02  0.00000000000E+00 0. -1.
</event>
<event>
 7    1  0.6061051E-012  0.5930194E+02  0.7816164E-02  0.1266605E+00
        -11   -1    0    0    0    0  0.00000000000E+00  0.00000000000E+00  0.45593999997E+02  0.45594000000E+02  0.51100000000E-03 0.  1.
         11   -1    0    0    0    0 -0.00000000000E+00 -0.00000000000E+00 -0.45593999997E+02  0.45594000000E+02  0.51100000000E-03 0. -1.
    9900012    2    1    2    0    0  0.33886938994E+01  0.89546615011E+01  0.30414658591E+02  0.59301942449E+02  0.49999997121E+02 0.  0.
         12    1    1    2    0    0 -0.33886938994E+01 -0.89546615011E+01 -0.30414658591E+02  0.31886057551E+02  0.00000000000E+00 0. -1.
         11    1    3    3    0    0 -0.81880710279E+01  0.90145078030E+01  0.22886293023E+01  0.12391274447E+02  0.51100000000E-03 0. -1.
        -11    1    3    3    0    0 -0.52675566691E+01  0.12203606861E+02  0.21070844307E+02  0.24912961561E+02  0.51100000000E-03 0.  1.
         12    1    3    3    0    0  0.16844321596E+02 -0.12263453163E+02  0.70551849820E+01  0.21997706441E+02  0.00000000000E+00 0. -1.
</event>
<event>
 7    1  0.6061051E-012  0.5930182E+02  0.7816164E-02  0.1266605E+00
        -11   -1    0    0    0    0  0.00000000000E+00  0.00000000000E+00  0.45593999997E+02  0.45594000000E+02  0.51100000000E-03 0.  1.
         11   -1    0    0    0    0 -0.00000000000E+00 -0.00000000000E+00 -0.45593999997E+02  0.45594000000E+02  0.51100000000E-03 0. -1.
    9900012    2    1    2    0    0 -0.12974718419E+02 -0.85349876441E+01  0.27848509138E+02  0.59301815008E+02  0.49999764698E+02 0.  0.
         12    1    1    2    0    0  0.12974718419E+02  0.85349876441E+01 -0.27848509138E+02  0.31886184992E+02  0.00000000000E+00 0. -1.
         11    1    3    3    0    0  0.64270643592E+01 -0.67025994647E+01 -0.19242176997E+01  0.94833859922E+01  0.51100000000E-03 0. -1.
        -11    1    3    3    0    0 -0.54775714919E+01 -0.17723304091E+02  0.11076280219E+02  0.21605630773E+02  0.51100000000E-03 0.  1.
        -12    1    3    3    0    0 -0.13924211287E+02  0.15890915912E+02  0.18696446619E+02  0.28212798242E+02  0.00000000000E+00 0.  1.
</event>
<event>
 7    1  0.6061051E-012  0.5930191E+02  0.7816164E-02  0.1266605E+00
        -11   -1    0    0    0    0  0.00000000000E+00  0.00000000000E+00  0.45593999997E+02  0.45594000000E+02  0.51100000000E-03 0. -1.
         11   -1    0    0    0    0 -0.00000000000E+00 -0.00000000000E+00 -0.45593999997E+02  0.45594000000E+02  0.51100000000E-03 0.  1.
    9900012    2    1    2    0    0 -0.19848549709E+02  0.17674430385E+02 -0.17617388318E+02  0.59301909206E+02  0.49999936494E+02 0.  0.
         12    1    1    2    0    0  0.19848549709E+02 -0.17674430385E+02  0.17617388318E+02  0.31886090794E+02  0.00000000000E+00 0. -1.
         11    1    3    3    0    0 -0.16812121250E+02 -0.24963866239E+01  0.60972755813E+01  0.18057024585E+02  0.51100000000E-03 0. -1.
        -11    1    3    3    0    0 -0.11623900539E+02  0.12063735929E+02 -0.24635265555E+01  0.16932742001E+02  0.51100000000E-03 0.  1.
        -12    1    3    3    0    0  0.85874720804E+01  0.81070810795E+01 -0.21251137344E+02  0.24312142620E+02  0.00000000000E+00 0.  1.
</event>
<event>
 7    1  0.6061051E-012  0.5930195E+02  0.7816164E-02  0.1266605E+00
        -11   -1    0    0    0    0  0.00000000000E+00  0.00000000000E+00  0.45593999997E+02  0.45594000000E+02  0.51100000000E-03 0.  1.
         11   -1    0    0    0    0 -0.00000000000E+00 -0.00000000000E+00 -0.45593999997E+02  0.45594000000E+02  0.51100000000E-03 0. -1.
    9900012    2    1    2    0    0 -0.10977460394E+01  0.85639662740E+01  0.30694850250E+02  0.59301946676E+02  0.50000004830E+02 0.  0.
         12    1    1    2    0    0  0.10977460394E+01 -0.85639662740E+01 -0.30694850250E+02  0.31886053324E+02  0.00000000000E+00 0. -1.
         11    1    3    3    0    0 -0.27255363516E+01  0.34372043390E+00  0.17071872154E+02  0.17291486669E+02  0.51100000000E-03 0. -1.
        -11    1    3    3    0    0  0.81542752243E+01 -0.12766352142E+02 -0.16629828306E+01  0.15239339342E+02  0.51100000000E-03 0.  1.
         12    1    3    3    0    0 -0.65264849121E+01  0.20986597982E+02  0.15285960927E+02  0.26771120664E+02  0.00000000000E+00 0. -1.
</event>
<event>
 7    1  0.6061051E-012  0.5930197E+02  0.7816164E-02  0.1266605E+00
        -11   -1    0    0    0    0  0.00000000000E+00  0.00000000000E+00  0.45593999997E+02  0.45594000000E+02  0.51100000000E-03 0.  1.
         11   -1    0    0    0    0 -0.00000000000E+00 -0.00000000000E+00 -0.45593999997E+02  0.45594000000E+02  0.51100000000E-03 0. -1.
    9900012    2    1    2    0    0 -0.16042779906E+02  0.27556224491E+02  0.53877116952E-01  0.59301965470E+02  0.50000039105E+02 0.  0.
         12    1    1    2    0    0  0.16042779906E+02 -0.27556224491E+02 -0.53877116952E-01  0.31886034530E+02  0.00000000000E+00 0. -1.
         11    1    3    3    0    0  0.36449620056E+01  0.18308523392E+02 -0.13691672606E+01  0.18717969871E+02  0.51100000000E-03 0. -1.
        -11    1    3    3    0    0 -0.97213597321E+01  0.22182491724E+02  0.13099839812E+01  0.24254563126E+02  0.51100000000E-03 0.  1.
         12    1    3    3    0    0 -0.99663821794E+01 -0.12934790625E+02  0.11306039634E+00  0.16329432474E+02  0.00000000000E+00 0. -1.
</event>
<event>
 7    1  0.6061051E-012  0.5930184E+02  0.7816164E-02  0.1266605E+00
        -11   -1    0    0    0    0  0.00000000000E+00  0.00000000000E+00  0.45593999997E+02  0.45594000000E+02  0.51100000000E-03 0.  1.
         11   -1    0    0    0    0 -0.00000000000E+00 -0.00000000000E+00 -0.45593999997E+02  0.45594000000E+02  0.51100000000E-03 0. -1.
    9900012    2    1    2    0    0  0.20007856931E+02 -0.69217805179E+01  0.23843276946E+02  0.59301839365E+02  0.49999809120E+02 0.  0.
         12    1    1    2    0    0 -0.20007856931E+02  0.69217805179E+01 -0.23843276946E+02  0.31886160635E+02  0.00000000000E+00 0. -1.
         11    1    3    3    0    0  0.14350271855E+02  0.98857185988E+00 -0.70161727370E+00  0.14401383395E+02  0.51100000000E-03 0. -1.
        -11    1    3    3    0    0  0.16870983684E+02 -0.26863208981E+01  0.27320828961E+02  0.32222261029E+02  0.51100000000E-03 0.  1.
         12    1    3    3    0    0 -0.11213398609E+02 -0.52240314797E+01 -0.27759347416E+01  0.12678194941E+02  0.00000000000E+00 0. -1.
</event>
<event>
 7    1  0.6061051E-012  0.5930193E+02  0.7816164E-02  0.1266605E+00
        -11   -1    0    0    0    0  0.00000000000E+00  0.00000000000E+00  0.45593999997E+02  0.45594000000E+02  0.51100000000E-03 0. -1.
         11   -1    0    0    0    0 -0.00000000000E+00 -0.00000000000E+00 -0.45593999997E+02  0.45594000000E+02  0.51100000000E-03 0.  1.
    9900012    2    1    2    0    0  0.21163838938E+02 -0.10513545961E+02 -0.21407439571E+02  0.59301934136E+02  0.49999981960E+02 0.  0.
         12    1    1    2    0    0 -0.21163838938E+02  0.10513545961E+02  0.21407439571E+02  0.31886065864E+02  0.00000000000E+00 0. -1.
         11    1    3    3    0    0  0.16766530632E+02 -0.11399857413E+02 -0.61265718143E+01  0.21180372540E+02  0.51100000000E-03 0. -1.
        -11    1    3    3    0    0  0.13455268551E+02 -0.29611878943E+01 -0.22174574107E+02  0.26106026558E+02  0.51100000000E-03 0.  1.
         12    1    3    3    0    0 -0.90579602445E+01  0.38474993465E+01  0.68937063509E+01  0.12015535039E+02  0.00000000000E+00 0. -1.
</event>
<event>
 7    1  0.6061051E-012  0.5930195E+02  0.7816164E-02  0.1266605E+00
        -11   -1    0    0    0    0  0.00000000000E+00  0.00000000000E+00  0.45593999997E+02  0.45594000000E+02  0.51100000000E-03 0. -1.
         11   -1    0    0    0    0 -0.00000000000E+00 -0.00000000000E+00 -0.45593999997E+02  0.45594000000E+02  0.51100000000E-03 0.  1.
    9900012    2    1    2    0    0 -0.25660773392E+02 -0.67016066254E+00 -0.18915494760E+02  0.59301947431E+02  0.50000006208E+02 0.  0.
         12    1    1    2    0    0  0.25660773392E+02  0.67016066254E+00  0.18915494760E+02  0.31886052569E+02  0.00000000000E+00 0. -1.
         11    1    3    3    0    0 -0.20721641581E+02 -0.18828686512E+02 -0.11019941371E+02  0.30088951023E+02  0.51100000000E-03 0. -1.
        -11    1    3    3    0    0  0.13471412293E+01  0.46629441334E+00  0.58002000888E+01  0.59728168650E+01  0.51100000000E-03 0.  1.
        -12    1    3    3    0    0 -0.62862730407E+01  0.17692231436E+02 -0.13695753477E+02  0.23240179544E+02  0.00000000000E+00 0.  1.
</event>
<event>
 7    1  0.6061051E-012  0.5930193E+02  0.7816164E-02  0.1266605E+00
        -11   -1    0    0    0    0  0.00000000000E+00  0.00000000000E+00  0.45593999997E+02  0.45594000000E+02  0.51100000000E-03 0. -1.
         11   -1    0    0    0    0 -0.00000000000E+00 -0.00000000000E+00 -0.45593999997E+02  0.45594000000E+02  0.51100000000E-03 0.  1.
    9900012    2    1    2    0    0 -0.28858802255E+02  0.27946251798E+00 -0.13557751705E+02  0.59301934107E+02  0.49999981906E+02 0.  0.
         12    1    1    2    0    0  0.28858802255E+02 -0.27946251798E+00  0.13557751705E+02  0.31886065893E+02  0.00000000000E+00 0. -1.
         11    1    3    3    0    0 -0.87318519395E+01 -0.76512391660E+01  0.91017093873E+01  0.14752213837E+02  0.51100000000E-03 0. -1.
        -11    1    3    3    0    0 -0.14396060240E+02 -0.11016461525E+02 -0.75042541750E+01  0.19619449685E+02  0.51100000000E-03 0.  1.
         12    1    3    3    0    0 -0.57308900753E+01  0.18947163209E+02 -0.15155206917E+02  0.24930270584E+02  0.00000000000E+00 0. -1.
</event>
<event>
 7    1  0.6061051E-012  0.5930194E+02  0.7816164E-02  0.1266605E+00
        -11   -1    0    0    0    0  0.00000000000E+00  0.00000000000E+00  0.45593999997E+02  0.45594000000E+02  0.51100000000E-03 0.  1.
         11   -1    0    0    0    0 -0.00000000000E+00 -0.00000000000E+00 -0.45593999997E+02  0.45594000000E+02  0.51100000000E-03 0. -1.
    9900012    2    1    2    0    0 -0.28171783827E+01 -0.26332872144E+02  0.17758489136E+02  0.59301943709E+02  0.49999999418E+02 0.  0.
         12    1    1    2    0    0  0.28171783827E+01  0.26332872144E+02 -0.17758489136E+02  0.31886056291E+02  0.00000000000E+00 0. -1.
         11    1    3    3    0    0 -0.15916693381E+02 -0.12247094348E+01  0.72657909226E+01  0.17539462916E+02  0.51100000000E-03 0. -1.
        -11    1    3    3    0    0 -0.79719880094E+01 -0.14052936343E+02  0.73865440951E+01  0.17765096302E+02  0.51100000000E-03 0.  1.
        -12    1    3    3    0    0  0.21071503008E+02 -0.11055226367E+02  0.31061541184E+01  0.23997384491E+02  0.00000000000E+00 0.  1.
</event>
<event>
 7    1  0.6061051E-012  0.5930184E+02  0.7816164E-02  0.1266605E+00
        -11   -1    0    0    0    0  0.00000000000E+00  0.00000000000E+00  0.45593999997E+02  0.45594000000E+02  0.51100000000E-03 0. -1.
         11   -1    0    0    0    0 -0.00000000000E+00 -0.00000000000E+00 -0.45593999997E+02  0.45594000000E+02  0.51100000000E-03 0.  1.
    9900012    2    1    2    0    0 -0.14995523934E+02 -0.12617539623E+00 -0.28139746330E+02  0.59301843415E+02  0.49999816506E+02 0.  0.
         12    1    1    2    0    0  0.14995523934E+02  0.12617539623E+00  0.28139746330E+02  0.31886156585E+02  0.00000000000E+00 0. -1.
         11    1    3    3    0    0  0.38021307659E+01  0.14801851748E+01  0.11159475112E+02  0.11881962445E+02  0.51100000000E-03 0. -1.
        -11    1    3    3    0    0 -0.80918616456E+01  0.75250765506E+01 -0.99406702818E+01  0.14863442666E+02  0.51100000000E-03 0.  1.
         12    1    3    3    0    0 -0.10705793054E+02 -0.91314371216E+01 -0.29358551160E+02  0.32556438303E+02  0.00000000000E+00 0. -1.
</event>
<event>
 7    1  0.6061051E-012  0.5930196E+02  0.7816164E-02  0.1266605E+00
        -11   -1    0    0    0    0  0.00000000000E+00  0.00000000000E+00  0.45593999997E+02  0.45594000000E+02  0.51100000000E-03 0. -1.
         11   -1    0    0    0    0 -0.00000000000E+00 -0.00000000000E+00 -0.45593999997E+02  0.45594000000E+02  0.51100000000E-03 0.  1.
    9900012    2    1    2    0    0  0.18314876324E+02 -0.25979710267E+02  0.25178793196E+01  0.59301956712E+02  0.50000023133E+02 0.  0.
         12    1    1    2    0    0 -0.18314876324E+02  0.25979710267E+02 -0.25178793196E+01  0.31886043288E+02  0.00000000000E+00 0. -1.
         11    1    3    3    0    0 -0.82315776588E+01 -0.11779131831E+02  0.27132781024E+01  0.14624250263E+02  0.51100000000E-03 0. -1.
        -11    1    3    3    0    0  0.38418646452E+01 -0.16839082568E+01 -0.14480993347E+02  0.15076293959E+02  0.51100000000E-03 0.  1.
         12    1    3    3    0    0  0.22704589337E+02 -0.12516670179E+02  0.14285594564E+02  0.29601412490E+02  0.00000000000E+00 0. -1.
</event>
<event>
 7    1  0.6061051E-012  0.5930195E+02  0.7816164E-02  0.1266605E+00
        -11   -1    0    0    0    0  0.00000000000E+00  0.00000000000E+00  0.45593999997E+02  0.45594000000E+02  0.51100000000E-03 0.  1.
         11   -1    0    0    0    0 -0.00000000000E+00 -0.00000000000E+00 -0.45593999997E+02  0.45594000000E+02  0.51100000000E-03 0. -1.
    9900012    2    1    2    0    0  0.12435474466E+02 -0.11412422164E+02  0.27052464892E+02  0.59301948793E+02  0.50000008691E+02 0.  0.
         12    1    1    2    0    0 -0.12435474466E+02  0.11412422164E+02 -0.27052464892E+02  0.31886051207E+02  0.00000000000E+00 0. -1.
         11    1    3    3    0    0  0.56929205213E+01  0.13686835545E+01  0.93354843040E+01  0.11019705358E+02  0.51100000000E-03 0. -1.
        -11    1    3    3    0    0 -0.34219892353E+01 -0.18366638921E+02  0.27406897881E+02  0.33168983815E+02  0.51100000000E-03 0.  1.
         12    1    3    3    0    0  0.10164543180E+02  0.55855332023E+01 -0.96899172928E+01  0.15113259620E+02  0.00000000000E+00 0. -1.
</event>
<event>
 7    1  0.6061051E-012  0.5930198E+02  0.7816164E-02  0.1266605E+00
        -11   -1    0    0    0    0  0.00000000000E+00  0.00000000000E+00  0.45593999997E+02  0.45594000000E+02  0.51100000000E-03 0. -1.
         11   -1    0    0    0    0 -0.00000000000E+00 -0.00000000000E+00 -0.45593999997E+02  0.45594000000E+02  0.51100000000E-03 0.  1.
    9900012    2    1    2    0    0  0.25336525855E+02  0.18391593575E+02 -0.60438671875E+01  0.59301975048E+02  0.50000056574E+02 0.  0.
         12    1    1    2    0    0 -0.25336525855E+02 -0.18391593575E+02  0.60438671875E+01  0.31886024952E+02  0.00000000000E+00 0. -1.
         11    1    3    3    0    0 -0.24308489646E+01  0.12395064724E+02 -0.23700026239E+01  0.12851597913E+02  0.51100000000E-03 0. -1.
        -11    1    3    3    0    0 -0.83863938188E+01  0.21825861981E+01 -0.51235941196E+01  0.10067099918E+02  0.51100000000E-03 0.  1.
        -12    1    3    3    0    0  0.36153768638E+02  0.38139426523E+01  0.14497295559E+01  0.36383277218E+02  0.00000000000E+00 0.  1.
</event>
<event>
 7    1  0.6061051E-012  0.5930194E+02  0.7816164E-02  0.1266605E+00
        -11   -1    0    0    0    0  0.00000000000E+00  0.00000000000E+00  0.45593999997E+02  0.45594000000E+02  0.51100000000E-03 0. -1.
         11   -1    0    0    0    0 -0.00000000000E+00 -0.00000000000E+00 -0.45593999997E+02  0.45594000000E+02  0.51100000000E-03 0.  1.
    9900012    2    1    2    0    0 -0.26860570346E+02 -0.17028346130E+02 -0.22948141621E+01  0.59301937477E+02  0.49999988052E+02 0.  0.
         12    1    1    2    0    0  0.26860570346E+02  0.17028346130E+02  0.22948141621E+01  0.31886062523E+02  0.00000000000E+00 0. -1.
         11    1    3    3    0    0 -0.27545298097E+02 -0.43631677967E+01  0.47392176637E+01  0.28288528855E+02  0.51100000000E-03 0. -1.
        -11    1    3    3    0    0  0.97725266746E+01  0.41766577393E+01 -0.50717197972E+01  0.11775784027E+02  0.51100000000E-03 0.  1.
         12    1    3    3    0    0 -0.90877989234E+01 -0.16841836072E+02 -0.19623120286E+01  0.19237624595E+02  0.00000000000E+00 0. -1.
</event>
<event>
 7    1  0.6061051E-012  0.5930193E+02  0.7816164E-02  0.1266605E+00
        -11   -1    0    0    0    0  0.00000000000E+00  0.00000000000E+00  0.45593999997E+02  0.45594000000E+02  0.51100000000E-03 0. -1.
         11   -1    0    0    0    0 -0.00000000000E+00 -0.00000000000E+00 -0.45593999997E+02  0.45594000000E+02  0.51100000000E-03 0.  1.
    9900012    2    1    2    0    0  0.25596212587E+02 -0.19836347402E+01 -0.18910858491E+02  0.59301929774E+02  0.49999974005E+02 0.  0.
         12    1    1    2    0    0 -0.25596212587E+02  0.19836347402E+01  0.18910858491E+02  0.31886070226E+02  0.00000000000E+00 0. -1.
         11    1    3    3    0    0  0.41583526569E+01 -0.13134578695E+02  0.13358609343E+01  0.13841733237E+02  0.51100000000E-03 0. -1.
        -11    1    3    3    0    0  0.18320688987E+01  0.18295325756E+02 -0.35291302121E+01  0.18722451262E+02  0.51100000000E-03 0.  1.
         12    1    3    3    0    0  0.19605791031E+02 -0.71443818011E+01 -0.16717589213E+02  0.26737745275E+02  0.00000000000E+00 0. -1.
</event>
<event>
 7    1  0.6061051E-012  0.5930192E+02  0.7816164E-02  0.1266605E+00
        -11   -1    0    0    0    0  0.00000000000E+00  0.00000000000E+00  0.45593999997E+02  0.45594000000E+02  0.51100000000E-03 0. -1.
         11   -1    0    0    0    0 -0.00000000000E+00 -0.00000000000E+00 -0.45593999997E+02  0.45594000000E+02  0.51100000000E-03 0.  1.
    9900012    2    1    2    0    0 -0.24119016074E+02  0.28414579431E+00 -0.20854597267E+02  0.59301923064E+02  0.49999961767E+02 0.  0.
         12    1    1    2    0    0  0.24119016074E+02 -0.28414579431E+00  0.20854597267E+02  0.31886076936E+02  0.00000000000E+00 0. -1.
         11    1    3    3    0    0 -0.74172001341E+01 -0.29843034612E+01  0.51264825959E+01  0.94974601365E+01  0.51100000000E-03 0.  1.
        -11    1    3    3    0    0 -0.14666725508E+02 -0.16159292726E+02 -0.79653384774E+01  0.23231061014E+02  0.51100000000E-03 0. -1.
        -12    1    3    3    0    0 -0.20350904320E+01  0.19427741981E+02 -0.18015741386E+02  0.26573401913E+02  0.00000000000E+00 0.  1.
</event>
<event>
 7    1  0.6061051E-012  0.5930182E+02  0.7816164E-02  0.1266605E+00
        -11   -1    0    0    0    0  0.00000000000E+00  0.00000000000E+00  0.45593999997E+02  0.45594000000E+02  0.51100000000E-03 0. -1.
         11   -1    0    0    0    0 -0.00000000000E+00 -0.00000000000E+00 -0.45593999997E+02  0.45594000000E+02  0.51100000000E-03 0.  1.
    9900012    2    1    2    0    0 -0.18003545606E+02  0.18164123625E+00 -0.26316688317E+02  0.59301815972E+02  0.49999766456E+02 0.  0.
         12    1    1    2    0    0  0.18003545606E+02 -0.18164123625E+00  0.26316688317E+02  0.31886184028E+02  0.00000000000E+00 0. -1.
         11    1    3    3    0    0 -0.27999723691E+01  0.77455790948E+00 -0.72899933071E+01  0.78475338739E+01  0.51100000000E-03 0.  1.
        -11    1    3    3    0    0  0.75403573785E+01 -0.52721616719E+01 -0.25697365258E+02  0.27294821112E+02  0.51100000000E-03 0. -1.
         12    1    3    3    0    0 -0.22743930615E+02  0.46792449986E+01  0.66706702477E+01  0.24159460986E+02  0.00000000000E+00 0. -1.
</event>
<event>
 7    1  0.6061051E-012  0.5930193E+02  0.7816164E-02  0.1266605E+00
        -11   -1    0    0    0    0  0.00000000000E+00  0.00000000000E+00  0.45593999997E+02  0.45594000000E+02  0.51100000000E-03 0.  1.
         11   -1    0    0    0    0 -0.00000000000E+00 -0.00000000000E+00 -0.45593999997E+02  0.45594000000E+02  0.51100000000E-03 0. -1.
    9900012    2    1    2    0    0 -0.10037153800E+02 -0.24727999491E+02  0.17450023255E+02  0.59301925817E+02  0.49999966788E+02 0.  0.
         12    1    1    2    0    0  0.10037153800E+02  0.24727999491E+02 -0.17450023255E+02  0.31886074183E+02  0.00000000000E+00 0. -1.
         11    1    3    3    0    0 -0.47262140016E+00  0.40036371290E+01 -0.24011238148E+01  0.46923210764E+01  0.51100000000E-03 0. -1.
        -11    1    3    3    0    0  0.12150329891E+02 -0.12931185921E+01 -0.32950269733E+01  0.12655428683E+02  0.51100000000E-03 0.  1.
        -12    1    3    3    0    0 -0.21714862290E+02 -0.27438518028E+02  0.23146174043E+02  0.41954176057E+02  0.00000000000E+00 0.  1.
</event>
<event>
 7    1  0.6061051E-012  0.5930195E+02  0.7816164E-02  0.1266605E+00
        -11   -1    0    0    0    0  0.00000000000E+00  0.00000000000E+00  0.45593999997E+02  0.45594000000E+02  0.51100000000E-03 0.  1.
         11   -1    0    0    0    0 -0.00000000000E+00 -0.00000000000E+00 -0.45593999997E+02  0.45594000000E+02  0.51100000000E-03 0. -1.
    9900012    2    1    2    0    0  0.68007065759E+01 -0.12576578585E+02  0.28500878248E+02  0.59301952899E+02  0.50000016179E+02 0.  0.
         12    1    1    2    0    0 -0.68007065759E+01  0.12576578585E+02 -0.28500878248E+02  0.31886047101E+02  0.00000000000E+00 0. -1.
         11    1    3    3    0    0  0.60521526037E+00 -0.31781752517E+00 -0.84050389181E+01  0.84327915287E+01  0.51100000000E-03 0. -1.
        -11    1    3    3    0    0 -0.70617532283E+01  0.80735665022E+01  0.11880133619E+02  0.16005886723E+02  0.51100000000E-03 0.  1.
        -12    1    3    3    0    0  0.13257244544E+02 -0.20332327562E+02  0.25025783547E+02  0.34863274647E+02  0.00000000000E+00 0.  1.
</event>
<event>
 7    1  0.6061051E-012  0.5930186E+02  0.7816164E-02  0.1266605E+00
        -11   -1    0    0    0    0  0.00000000000E+00  0.00000000000E+00  0.45593999997E+02  0.45594000000E+02  0.51100000000E-03 0.  1.
         11   -1    0    0    0    0 -0.00000000000E+00 -0.00000000000E+00 -0.45593999997E+02  0.45594000000E+02  0.51100000000E-03 0. -1.
    9900012    2    1    2    0    0 -0.59076331082E+01  0.22985680416E+02 -0.21295168288E+02  0.59301861545E+02  0.49999849572E+02 0.  0.
         12    1    1    2    0    0  0.59076331082E+01 -0.22985680416E+02  0.21295168288E+02  0.31886138455E+02  0.00000000000E+00 0. -1.
         11    1    3    3    0    0  0.89897766546E+00  0.12611376073E+01 -0.14705029410E+02  0.14786362606E+02  0.51100000000E-03 0. -1.
        -11    1    3    3    0    0  0.80996454768E+01 -0.74819760651E+01  0.20450889329E+00  0.11028419961E+02  0.51100000000E-03 0.  1.
        -12    1    3    3    0    0 -0.14906256250E+02  0.29206518874E+02 -0.67946477710E+01  0.33487078978E+02  0.00000000000E+00 0.  1.
</event>
<event>
 7    1  0.6061051E-012  0.5930195E+02  0.7816164E-02  0.1266605E+00
        -11   -1    0    0    0    0  0.00000000000E+00  0.00000000000E+00  0.45593999997E+02  0.45594000000E+02  0.51100000000E-03 0. -1.
         11   -1    0    0    0    0 -0.00000000000E+00 -0.00000000000E+00 -0.45593999997E+02  0.45594000000E+02  0.51100000000E-03 0.  1.
    9900012    2    1    2    0    0  0.56777243601E+00 -0.15749953611E+02 -0.27718887901E+02  0.59301950531E+02  0.50000011861E+02 0.  0.
         12    1    1    2    0    0 -0.56777243601E+00  0.15749953611E+02  0.27718887901E+02  0.31886049469E+02  0.00000000000E+00 0. -1.
         11    1    3    3    0    0  0.12449253002E+01  0.82555189582E+01 -0.47042249694E+01  0.95829622297E+01  0.51100000000E-03 0. -1.
        -11    1    3    3    0    0  0.16350537860E+02 -0.69029187226E+01 -0.17579851984E+02  0.24980824071E+02  0.51100000000E-03 0.  1.
        -12    1    3    3    0    0 -0.17027690724E+02 -0.17102553846E+02 -0.54348109472E+01  0.24738164231E+02  0.00000000000E+00 0.  1.
</event>
<event>
 7    1  0.6061051E-012  0.5930192E+02  0.7816164E-02  0.1266605E+00
        -11   -1    0    0    0    0  0.00000000000E+00  0.00000000000E+00  0.45593999997E+02  0.45594000000E+02  0.51100000000E-03 0. -1.
         11   -1    0    0    0    0 -0.00000000000E+00 -0.00000000000E+00 -0.45593999997E+02  0.45594000000E+02  0.51100000000E-03 0.  1.
    9900012    2    1    2    0    0 -0.31328841408E+02  0.32385340614E+01 -0.49737230208E+01  0.59301916397E+02  0.49999949609E+02 0.  0.
         12    1    1    2    0    0  0.31328841408E+02 -0.32385340614E+01  0.49737230208E+01  0.31886083603E+02  0.00000000000E+00 0. -1.
         11    1    3    3    0    0 -0.26187111363E+02 -0.74715994404E+01 -0.26269713024E+01  0.27358555851E+02  0.51100000000E-03 0. -1.
        -11    1    3    3    0    0 -0.23640277562E+01 -0.25939682710E+01 -0.13757050164E+02  0.14197666291E+02  0.51100000000E-03 0.  1.
         12    1    3    3    0    0 -0.27777022882E+01  0.13304101773E+02  0.11410298446E+02  0.17745694256E+02  0.00000000000E+00 0. -1.
</event>
<event>
 7    1  0.6061051E-012  0.5930193E+02  0.7816164E-02  0.1266605E+00
        -11   -1    0    0    0    0  0.00000000000E+00  0.00000000000E+00  0.45593999997E+02  0.45594000000E+02  0.51100000000E-03 0. -1.
         11   -1    0    0    0    0 -0.00000000000E+00 -0.00000000000E+00 -0.45593999997E+02  0.45594000000E+02  0.51100000000E-03 0.  1.
    9900012    2    1    2    0    0 -0.16694090351E+01  0.31803929473E+02 -0.15635238055E+01  0.59301929951E+02  0.49999974328E+02 0.  0.
         12    1    1    2    0    0  0.16694090351E+01 -0.31803929473E+02  0.15635238055E+01  0.31886070049E+02  0.00000000000E+00 0. -1.
         11    1    3    3    0    0 -0.36577588855E+01 -0.38135150147E+01 -0.41695536694E+01  0.67310678867E+01  0.51100000000E-03 0. -1.
        -11    1    3    3    0    0  0.80777284947E-01  0.43857817080E+02  0.38285756234E+01  0.44024682118E+02  0.51100000000E-03 0.  1.
         12    1    3    3    0    0  0.19075725655E+01 -0.82403725924E+01 -0.12225457594E+01  0.85461799471E+01  0.00000000000E+00 0. -1.
</event>
<event>
 7    1  0.6061051E-012  0.5930194E+02  0.7816164E-02  0.1266605E+00
        -11   -1    0    0    0    0  0.00000000000E+00  0.00000000000E+00  0.45593999997E+02  0.45594000000E+02  0.51100000000E-03 0.  1.
         11   -1    0    0    0    0 -0.00000000000E+00 -0.00000000000E+00 -0.45593999997E+02  0.45594000000E+02  0.51100000000E-03 0. -1.
    9900012    2    1    2    0    0  0.12159184559E+02 -0.27220993361E+01  0.29350729186E+02  0.59301938819E+02  0.49999990500E+02 0.  0.
         12    1    1    2    0    0 -0.12159184559E+02  0.27220993361E+01 -0.29350729186E+02  0.31886061181E+02  0.00000000000E+00 0. -1.
         11    1    3    3    0    0  0.10864393068E+02  0.21106377170E+02  0.11411702880E+02  0.26338966511E+02  0.51100000000E-03 0. -1.
        -11    1    3    3    0    0 -0.13228592863E+01  0.47614378748E+00 -0.12535994571E+01  0.18836617153E+01  0.51100000000E-03 0.  1.
        -12    1    3    3    0    0  0.26176507775E+01 -0.24304620294E+02  0.19192625762E+02  0.31079310592E+02  0.00000000000E+00 0.  1.
</event>
<event>
 7    1  0.6061051E-012  0.5930196E+02  0.7816164E-02  0.1266605E+00
        -11   -1    0    0    0    0  0.00000000000E+00  0.00000000000E+00  0.45593999997E+02  0.45594000000E+02  0.51100000000E-03 0.  1.
         11   -1    0    0    0    0 -0.00000000000E+00 -0.00000000000E+00 -0.45593999997E+02  0.45594000000E+02  0.51100000000E-03 0. -1.
    9900012    2    1    2    0    0  0.31322972049E+02  0.55126481689E+01  0.22807715763E+01  0.59301956238E+02  0.50000022268E+02 0.  0.
         12    1    1    2    0    0 -0.31322972049E+02 -0.55126481689E+01 -0.22807715763E+01  0.31886043762E+02  0.00000000000E+00 0. -1.
         11    1    3    3    0    0  0.25896570843E+02  0.98523864979E+00 -0.11532301880E+02  0.28365420207E+02  0.51100000000E-03 0. -1.
        -11    1    3    3    0    0  0.11551486425E+02  0.11142985589E+02  0.21473767842E+01  0.16193029172E+02  0.51100000000E-03 0.  1.
         12    1    3    3    0    0 -0.61250852180E+01 -0.66155760695E+01  0.11665696672E+02  0.14743506859E+02  0.00000000000E+00 0. -1.
</event>
<event>
 7    1  0.6061051E-012  0.5930193E+02  0.7816164E-02  0.1266605E+00
        -11   -1    0    0    0    0  0.00000000000E+00  0.00000000000E+00  0.45593999997E+02  0.45594000000E+02  0.51100000000E-03 0.  1.
         11   -1    0    0    0    0 -0.00000000000E+00 -0.00000000000E+00 -0.45593999997E+02  0.45594000000E+02  0.51100000000E-03 0. -1.
    9900012    2    1    2    0    0 -0.23356457432E+02  0.21082916779E+02 -0.51679677838E+01  0.59301931338E+02  0.49999976857E+02 0.  0.
         12    1    1    2    0    0  0.23356457432E+02 -0.21082916779E+02  0.51679677838E+01  0.31886068662E+02  0.00000000000E+00 0. -1.
         11    1    3    3    0    0  0.65227750961E+01 -0.77440380717E+01 -0.31184667332E+01  0.10594411529E+02  0.51100000000E-03 0. -1.
        -11    1    3    3    0    0 -0.16132823703E+02  0.69332918277E+00 -0.58296307159E+01  0.17167798361E+02  0.51100000000E-03 0.  1.
        -12    1    3    3    0    0 -0.13746408825E+02  0.28133625668E+02  0.37801296653E+01  0.31539721449E+02  0.00000000000E+00 0.  1.
</event>
<event>
 7    1  0.6061051E-012  0.5930193E+02  0.7816164E-02  0.1266605E+00
        -11   -1    0    0    0    0  0.00000000000E+00  0.00000000000E+00  0.45593999997E+02  0.45594000000E+02  0.51100000000E-03 0.  1.
         11   -1    0    0    0    0 -0.00000000000E+00 -0.00000000000E+00 -0.45593999997E+02  0.45594000000E+02  0.51100000000E-03 0. -1.
    9900012    2    1    2    0    0 -0.18254965473E+02 -0.25756212938E+02 -0.44827549842E+01  0.59301931544E+02  0.49999977232E+02 0.  0.
         12    1    1    2    0    0  0.18254965473E+02  0.25756212938E+02  0.44827549842E+01  0.31886068456E+02  0.00000000000E+00 0. -1.
         11    1    3    3    0    0  0.89306127886E+01 -0.12664911474E+02  0.26504114229E+01  0.15721975334E+02  0.51100000000E-03 0. -1.
        -11    1    3    3    0    0 -0.34330475705E+01  0.34580431184E+01  0.91491453415E+01  0.10365844807E+02  0.51100000000E-03 0.  1.
        -12    1    3    3    0    0 -0.23752530692E+02 -0.16549344582E+02 -0.16282311749E+02  0.33214111402E+02  0.00000000000E+00 0.  1.
</event>
<event>
 7    1  0.6061051E-012  0.5930200E+02  0.7816164E-02  0.1266605E+00
        -11   -1    0    0    0    0  0.00000000000E+00  0.00000000000E+00  0.45593999997E+02  0.45594000000E+02  0.51100000000E-03 0.  1.
         11   -1    0    0    0    0 -0.00000000000E+00 -0.00000000000E+00 -0.45593999997E+02  0.45594000000E+02  0.51100000000E-03 0. -1.
    9900012    2    1    2    0    0  0.23513551268E+02 -0.73014677835E+01  0.20261261889E+02  0.59301995886E+02  0.50000094577E+02 0.  0.
         12    1    1    2    0    0 -0.23513551268E+02  0.73014677835E+01 -0.20261261889E+02  0.31886004114E+02  0.00000000000E+00 0. -1.
         11    1    3    3    0    0 -0.10036346757E+02 -0.44328677423E+01 -0.40380797558E+01  0.11691221537E+02  0.51100000000E-03 0. -1.
        -11    1    3    3    0    0  0.12687281685E+02  0.61759114640E+01 -0.29740320133E+00  0.14113732599E+02  0.51100000000E-03 0.  1.
        -12    1    3    3    0    0  0.20862616341E+02 -0.90445115052E+01  0.24596744846E+02  0.33497041750E+02  0.00000000000E+00 0.  1.
</event>
<event>
 7    1  0.6061051E-012  0.5930194E+02  0.7816164E-02  0.1266605E+00
        -11   -1    0    0    0    0  0.00000000000E+00  0.00000000000E+00  0.45593999997E+02  0.45594000000E+02  0.51100000000E-03 0.  1.
         11   -1    0    0    0    0 -0.00000000000E+00 -0.00000000000E+00 -0.45593999997E+02  0.45594000000E+02  0.51100000000E-03 0. -1.
    9900012    2    1    2    0    0 -0.12679399445E+02 -0.26882076422E+02  0.11545886772E+02  0.59301941849E+02  0.49999996026E+02 0.  0.
         12    1    1    2    0    0  0.12679399445E+02  0.26882076422E+02 -0.11545886772E+02  0.31886058151E+02  0.00000000000E+00 0. -1.
         11    1    3    3    0    0  0.31952145696E+01  0.13550106191E+01 -0.18287574712E+01  0.39229840776E+01  0.51100000000E-03 0. -1.
        -11    1    3    3    0    0 -0.14604977412E+02 -0.12293961404E+02 -0.14000577419E+02  0.23674100205E+02  0.51100000000E-03 0.  1.
        -12    1    3    3    0    0 -0.12696366034E+01 -0.15943125638E+02  0.27375221662E+02  0.31704857566E+02  0.00000000000E+00 0.  1.
</event>
<event>
 7    1  0.6061051E-012  0.5930195E+02  0.7816164E-02  0.1266605E+00
        -11   -1    0    0    0    0  0.00000000000E+00  0.00000000000E+00  0.45593999997E+02  0.45594000000E+02  0.51100000000E-03 0.  1.
         11   -1    0    0    0    0 -0.00000000000E+00 -0.00000000000E+00 -0.45593999997E+02  0.45594000000E+02  0.51100000000E-03 0. -1.
    9900012    2    1    2    0    0 -0.33146213020E+01 -0.28657013094E+02  0.13583417520E+02  0.59301947479E+02  0.50000006294E+02 0.  0.
         12    1    1    2    0    0  0.33146213020E+01  0.28657013094E+02 -0.13583417520E+02  0.31886052521E+02  0.00000000000E+00 0. -1.
         11    1    3    3    0    0  0.41170316541E+01  0.15216926519E+01  0.32746507057E+01  0.54762063212E+01  0.51100000000E-03 0. -1.
        -11    1    3    3    0    0  0.15690582930E+02 -0.18598882786E+02 -0.33789219564E+01  0.24566846509E+02  0.51100000000E-03 0.  1.
         12    1    3    3    0    0 -0.23122235886E+02 -0.11579822961E+02  0.13687688771E+02  0.29258894648E+02  0.00000000000E+00 0. -1.
</event>
<event>
 7    1  0.6061051E-012  0.5930193E+02  0.7816164E-02  0.1266605E+00
        -11   -1    0    0    0    0  0.00000000000E+00  0.00000000000E+00  0.45593999997E+02  0.45594000000E+02  0.51100000000E-03 0.  1.
         11   -1    0    0    0    0 -0.00000000000E+00 -0.00000000000E+00 -0.45593999997E+02  0.45594000000E+02  0.51100000000E-03 0. -1.
    9900012    2    1    2    0    0  0.63417762709E+01  0.14803373031E+02  0.27520237572E+02  0.59301930073E+02  0.49999974550E+02 0.  0.
         12    1    1    2    0    0 -0.63417762709E+01 -0.14803373031E+02 -0.27520237572E+02  0.31886069927E+02  0.00000000000E+00 0. -1.
         11    1    3    3    0    0  0.14918159098E+02  0.16238020009E+01 -0.25847906616E+01  0.15227256707E+02  0.51100000000E-03 0. -1.
        -11    1    3    3    0    0  0.18294264557E+01  0.49013197090E+01 -0.45643241915E+01  0.69428230305E+01  0.51100000000E-03 0.  1.
        -12    1    3    3    0    0 -0.10405809283E+02  0.82782513210E+01  0.34669352425E+02  0.37131850335E+02  0.00000000000E+00 0.  1.
</event>
<event>
 7    1  0.6061051E-012  0.5930195E+02  0.7816164E-02  0.1266605E+00
        -11   -1    0    0    0    0  0.00000000000E+00  0.00000000000E+00  0.45593999997E+02  0.45594000000E+02  0.51100000000E-03 0.  1.
         11   -1    0    0    0    0 -0.00000000000E+00 -0.00000000000E+00 -0.45593999997E+02  0.45594000000E+02  0.51100000000E-03 0. -1.
    9900012    2    1    2    0    0 -0.11027052739E+02 -0.30312998636E+01  0.29764671830E+02  0.59301947248E+02  0.50000005873E+02 0.  0.
         12    1    1    2    0    0  0.11027052739E+02  0.30312998636E+01 -0.29764671830E+02  0.31886052752E+02  0.00000000000E+00 0. -1.
         11    1    3    3    0    0 -0.89716268528E+01 -0.17682810944E+01  0.61090837823E+01  0.10997172879E+02  0.51100000000E-03 0. -1.
        -11    1    3    3    0    0 -0.16267868238E+02  0.12776704682E+02  0.18308086894E+02  0.27623789847E+02  0.51100000000E-03 0.  1.
         12    1    3    3    0    0  0.14212442352E+02 -0.14039723451E+02  0.53475011532E+01  0.20680984522E+02  0.00000000000E+00 0. -1.
</event>
<event>
 7    1  0.6061051E-012  0.5930191E+02  0.7816164E-02  0.1266605E+00
        -11   -1    0    0    0    0  0.00000000000E+00  0.00000000000E+00  0.45593999997E+02  0.45594000000E+02  0.51100000000E-03 0. -1.
         11   -1    0    0    0    0 -0.00000000000E+00 -0.00000000000E+00 -0.45593999997E+02  0.45594000000E+02  0.51100000000E-03 0.  1.
    9900012    2    1    2    0    0  0.73058315847E+01 -0.31006606299E+02  0.13920033070E+01  0.59301913967E+02  0.49999945176E+02 0.  0.
         12    1    1    2    0    0 -0.73058315847E+01  0.31006606299E+02 -0.13920033070E+01  0.31886086033E+02  0.00000000000E+00 0. -1.
         11    1    3    3    0    0  0.13589734572E+01 -0.18288343643E+02 -0.16832473518E+02  0.24892619128E+02  0.51100000000E-03 0. -1.
        -11    1    3    3    0    0  0.90116662375E+01 -0.86274133534E+01 -0.27885250288E+01  0.12783515230E+02  0.51100000000E-03 0.  1.
         12    1    3    3    0    0 -0.30648081099E+01 -0.40908493023E+01  0.21013001853E+02  0.21625779608E+02  0.00000000000E+00 0. -1.
</event>
<event>
 7    1  0.6061051E-012  0.5930199E+02  0.7816164E-02  0.1266605E+00
        -11   -1    0    0    0    0  0.00000000000E+00  0.00000000000E+00  0.45593999997E+02  0.45594000000E+02  0.51100000000E-03 0.  1.
         11   -1    0    0    0    0 -0.00000000000E+00 -0.00000000000E+00 -0.45593999997E+02  0.45594000000E+02  0.51100000000E-03 0. -1.
    9900012    2    1    2    0    0  0.27373720242E+01  0.20233812659E+02  0.24491172886E+02  0.59301985360E+02  0.50000075380E+02 0.  0.
         12    1    1    2    0    0 -0.27373720242E+01 -0.20233812659E+02 -0.24491172886E+02  0.31886014640E+02  0.00000000000E+00 0. -1.
         11    1    3    3    0    0  0.24274119925E+01  0.19699052911E+02  0.19352272179E+02  0.27721029081E+02  0.51100000000E-03 0. -1.
        -11    1    3    3    0    0 -0.88412839825E+01  0.10525887078E+02  0.10200518706E+02  0.17117627855E+02  0.51100000000E-03 0.  1.
         12    1    3    3    0    0  0.91512440142E+01 -0.99911273302E+01 -0.50616179989E+01  0.14463328424E+02  0.00000000000E+00 0. -1.
</event>
<event>
 7    1  0.6061051E-012  0.5930193E+02  0.7816164E-02  0.1266605E+00
        -11   -1    0    0    0    0  0.00000000000E+00  0.00000000000E+00  0.45593999997E+02  0.45594000000E+02  0.51100000000E-03 0.  1.
         11   -1    0    0    0    0 -0.00000000000E+00 -0.00000000000E+00 -0.45593999997E+02  0.45594000000E+02  0.51100000000E-03 0. -1.
    9900012    2    1    2    0    0  0.18613778127E+02 -0.25889083359E+02 -0.61989109601E-01  0.59301933827E+02  0.49999981396E+02 0.  0.
         12    1    1    2    0    0 -0.18613778127E+02  0.25889083359E+02  0.61989109601E-01  0.31886066173E+02  0.00000000000E+00 0. -1.
         11    1    3    3    0    0  0.20847220450E+01  0.26478307474E+01 -0.49208545977E+01  0.59642169565E+01  0.51100000000E-03 0. -1.
        -11    1    3    3    0    0  0.14049679361E+02 -0.93325913489E+01 -0.17128662196E+02  0.24039172621E+02  0.51100000000E-03 0.  1.
        -12    1    3    3    0    0  0.24793767211E+01 -0.19204322757E+02  0.21987527684E+02  0.29298544249E+02  0.00000000000E+00 0.  1.
</event>
<event>
 7    1  0.6061051E-012  0.5930195E+02  0.7816164E-02  0.1266605E+00
        -11   -1    0    0    0    0  0.00000000000E+00  0.00000000000E+00  0.45593999997E+02  0.45594000000E+02  0.51100000000E-03 0.  1.
         11   -1    0    0    0    0 -0.00000000000E+00 -0.00000000000E+00 -0.45593999997E+02  0.45594000000E+02  0.51100000000E-03 0. -1.
    9900012    2    1    2    0    0  0.26774049667E+02  0.16546336231E+02 -0.51077599419E+01  0.59301949918E+02  0.50000010742E+02 0.  0.
         12    1    1    2    0    0 -0.26774049667E+02 -0.16546336231E+02  0.51077599419E+01  0.31886050082E+02  0.00000000000E+00 0. -1.
         11    1    3    3    0    0  0.14670853393E+01 -0.75872592269E+01  0.32350119432E+00  0.77345649686E+01  0.51100000000E-03 0. -1.
        -11    1    3    3    0    0  0.18984805375E+02  0.46404782899E+01 -0.18784956976E+02  0.27107775318E+02  0.51100000000E-03 0.  1.
        -12    1    3    3    0    0  0.63221589528E+01  0.19493117168E+02  0.13353695839E+02  0.24459609631E+02  0.00000000000E+00 0.  1.
</event>
<event>
 7    1  0.6061051E-012  0.5930197E+02  0.7816164E-02  0.1266605E+00
        -11   -1    0    0    0    0  0.00000000000E+00  0.00000000000E+00  0.45593999997E+02  0.45594000000E+02  0.51100000000E-03 0.  1.
         11   -1    0    0    0    0 -0.00000000000E+00 -0.00000000000E+00 -0.45593999997E+02  0.45594000000E+02  0.51100000000E-03 0. -1.
    9900012    2    1    2    0    0 -0.52186310068E+01 -0.22256842714E+02  0.22228759850E+02  0.59301969804E+02  0.50000047009E+02 0.  0.
         12    1    1    2    0    0  0.52186310068E+01  0.22256842714E+02 -0.22228759850E+02  0.31886030196E+02  0.00000000000E+00 0. -1.
         11    1    3    3    0    0  0.48469166403E+01 -0.22252736175E+02  0.18657031763E+02  0.29440816949E+02  0.51100000000E-03 0.  1.
        -11    1    3    3    0    0  0.51184126320E+01 -0.20964538955E+01 -0.86434046342E+01  0.10261662182E+02  0.51100000000E-03 0. -1.
        -12    1    3    3    0    0 -0.15183960279E+02  0.20923473558E+01  0.12215132722E+02  0.19599490673E+02  0.00000000000E+00 0.  1.
</event>
<event>
 7    1  0.6061051E-012  0.5930195E+02  0.7816164E-02  0.1266605E+00
        -11   -1    0    0    0    0  0.00000000000E+00  0.00000000000E+00  0.45593999997E+02  0.45594000000E+02  0.51100000000E-03 0. -1.
         11   -1    0    0    0    0 -0.00000000000E+00 -0.00000000000E+00 -0.45593999997E+02  0.45594000000E+02  0.51100000000E-03 0.  1.
    9900012    2    1    2    0    0  0.26494079400E+02 -0.77099608441E+01 -0.15979384550E+02  0.59301945524E+02  0.50000002729E+02 0.  0.
         12    1    1    2    0    0 -0.26494079400E+02  0.77099608441E+01  0.15979384550E+02  0.31886054476E+02  0.00000000000E+00 0. -1.
         11    1    3    3    0    0 -0.52099458687E+01  0.18355705591E+01 -0.14974267649E+02  0.15960624897E+02  0.51100000000E-03 0.  1.
        -11    1    3    3    0    0  0.31261957858E+02 -0.16113781506E+02 -0.51742563739E+01  0.35549077243E+02  0.51100000000E-03 0. -1.
         12    1    3    3    0    0  0.44206741053E+00  0.65682501028E+01  0.41691394727E+01  0.77922433837E+01  0.00000000000E+00 0. -1.
</event>
<event>
 7    1  0.6061051E-012  0.5930195E+02  0.7816164E-02  0.1266605E+00
        -11   -1    0    0    0    0  0.00000000000E+00  0.00000000000E+00  0.45593999997E+02  0.45594000000E+02  0.51100000000E-03 0. -1.
         11   -1    0    0    0    0 -0.00000000000E+00 -0.00000000000E+00 -0.45593999997E+02  0.45594000000E+02  0.51100000000E-03 0.  1.
    9900012    2    1    2    0    0 -0.27453677594E+01 -0.11083195955E+02 -0.29771561014E+02  0.59301950983E+02  0.50000012685E+02 0.  0.
         12    1    1    2    0    0  0.27453677594E+01  0.11083195955E+02  0.29771561014E+02  0.31886049017E+02  0.00000000000E+00 0. -1.
         11    1    3    3    0    0  0.70914190607E+01  0.69310090503E+00 -0.19896147589E+02  0.21133511358E+02  0.51100000000E-03 0. -1.
        -11    1    3    3    0    0 -0.11435345321E+02 -0.22703007518E+02 -0.94409213931E+01  0.27116870578E+02  0.51100000000E-03 0.  1.
         12    1    3    3    0    0  0.15985585009E+01  0.10926710657E+02 -0.43449203146E+00  0.11051569047E+02  0.00000000000E+00 0. -1.
</event>
<event>
 7    1  0.6061051E-012  0.5930198E+02  0.7816164E-02  0.1266605E+00
        -11   -1    0    0    0    0  0.00000000000E+00  0.00000000000E+00  0.45593999997E+02  0.45594000000E+02  0.51100000000E-03 0.  1.
         11   -1    0    0    0    0 -0.00000000000E+00 -0.00000000000E+00 -0.45593999997E+02  0.45594000000E+02  0.51100000000E-03 0. -1.
    9900012    2    1    2    0    0  0.10416173810E+02 -0.18892900092E+02  0.23479356500E+02  0.59301975908E+02  0.50000058142E+02 0.  0.
         12    1    1    2    0    0 -0.10416173810E+02  0.18892900092E+02 -0.23479356500E+02  0.31886024092E+02  0.00000000000E+00 0. -1.
         11    1    3    3    0    0 -0.54846622412E+01 -0.59513247317E+01 -0.78733600924E-01  0.80935767868E+01  0.51100000000E-03 0.  1.
        -11    1    3    3    0    0  0.18563549803E+02 -0.98005366603E+00  0.31520934236E+02  0.36594196013E+02  0.51100000000E-03 0. -1.
         12    1    3    3    0    0 -0.26627137511E+01 -0.11961521694E+02 -0.79628441351E+01  0.14614203108E+02  0.00000000000E+00 0. -1.
</event>
<event>
 7    1  0.6061051E-012  0.5930195E+02  0.7816164E-02  0.1266605E+00
        -11   -1    0    0    0    0  0.00000000000E+00  0.00000000000E+00  0.45593999997E+02  0.45594000000E+02  0.51100000000E-03 0. -1.
         11   -1    0    0    0    0 -0.00000000000E+00 -0.00000000000E+00 -0.45593999997E+02  0.45594000000E+02  0.51100000000E-03 0.  1.
    9900012    2    1    2    0    0 -0.25821424066E+02 -0.17565337121E+02  0.64368549599E+01  0.59301951158E+02  0.50000013004E+02 0.  0.
         12    1    1    2    0    0  0.25821424066E+02  0.17565337121E+02 -0.64368549599E+01  0.31886048842E+02  0.00000000000E+00 0. -1.
         11    1    3    3    0    0 -0.32278649502E+01 -0.26433060293E+02  0.31728291268E+01  0.26817767124E+02  0.51100000000E-03 0. -1.
        -11    1    3    3    0    0 -0.17555650409E+02 -0.43952430345E+01  0.10819135061E+01  0.18129797564E+02  0.51100000000E-03 0.  1.
        -12    1    3    3    0    0 -0.50379087069E+01  0.13262966207E+02  0.21821123270E+01  0.14354386470E+02  0.00000000000E+00 0.  1.
</event>
<event>
 7    1  0.6061051E-012  0.5930195E+02  0.7816164E-02  0.1266605E+00
        -11   -1    0    0    0    0  0.00000000000E+00  0.00000000000E+00  0.45593999997E+02  0.45594000000E+02  0.51100000000E-03 0. -1.
         11   -1    0    0    0    0 -0.00000000000E+00 -0.00000000000E+00 -0.45593999997E+02  0.45594000000E+02  0.51100000000E-03 0.  1.
    9900012    2    1    2    0    0 -0.31640066389E+02 -0.57105648773E+00 -0.39115944624E+01  0.59301945402E+02  0.50000002506E+02 0.  0.
         12    1    1    2    0    0  0.31640066389E+02  0.57105648773E+00  0.39115944624E+01  0.31886054598E+02  0.00000000000E+00 0. -1.
         11    1    3    3    0    0 -0.55664292637E+01  0.39581345138E+01 -0.15493160498E+02  0.16931922102E+02  0.51100000000E-03 0. -1.
        -11    1    3    3    0    0 -0.10889343720E+01  0.89327674032E+01 -0.41624240759E+01  0.99149324755E+01  0.51100000000E-03 0.  1.
         12    1    3    3    0    0 -0.24984702753E+02 -0.13461958405E+02  0.15743990112E+02  0.32455090824E+02  0.00000000000E+00 0. -1.
</event>
<event>
 7    1  0.6061051E-012  0.5930192E+02  0.7816164E-02  0.1266605E+00
        -11   -1    0    0    0    0  0.00000000000E+00  0.00000000000E+00  0.45593999997E+02  0.45594000000E+02  0.51100000000E-03 0. -1.
         11   -1    0    0    0    0 -0.00000000000E+00 -0.00000000000E+00 -0.45593999997E+02  0.45594000000E+02  0.51100000000E-03 0.  1.
    9900012    2    1    2    0    0  0.77391583474E+01 -0.25647026092E+02 -0.17293276152E+02  0.59301922797E+02  0.49999961281E+02 0.  0.
         12    1    1    2    0    0 -0.77391583474E+01  0.25647026092E+02  0.17293276152E+02  0.31886077203E+02  0.00000000000E+00 0. -1.
         11    1    3    3    0    0 -0.69731798156E+01 -0.18038069144E+02 -0.17402466779E+02  0.26016206976E+02  0.51100000000E-03 0. -1.
        -11    1    3    3    0    0  0.13961161763E+02  0.70504062962E+01 -0.68092715578E+01  0.17058383455E+02  0.51100000000E-03 0.  1.
         12    1    3    3    0    0  0.75117640034E+00 -0.14659363244E+02  0.69184621845E+01  0.16227332366E+02  0.00000000000E+00 0. -1.
</event>
<event>
 7    1  0.6061051E-012  0.5930197E+02  0.7816164E-02  0.1266605E+00
        -11   -1    0    0    0    0  0.00000000000E+00  0.00000000000E+00  0.45593999997E+02  0.45594000000E+02  0.51100000000E-03 0.  1.
         11   -1    0    0    0    0 -0.00000000000E+00 -0.00000000000E+00 -0.45593999997E+02  0.45594000000E+02  0.51100000000E-03 0. -1.
    9900012    2    1    2    0    0  0.71702710989E+01  0.29323243150E+02  0.10269046186E+02  0.59301973498E+02  0.50000053747E+02 0.  0.
         12    1    1    2    0    0 -0.71702710989E+01 -0.29323243150E+02 -0.10269046186E+02  0.31886026502E+02  0.00000000000E+00 0. -1.
         11    1    3    3    0    0  0.24007035153E+01  0.21569706905E+02  0.10419248116E+02  0.24074392306E+02  0.51100000000E-03 0. -1.
        -11    1    3    3    0    0  0.27122033503E+01  0.62264978360E+01  0.16781196354E+02  0.18103421600E+02  0.51100000000E-03 0.  1.
         12    1    3    3    0    0  0.20573642332E+01  0.15270384089E+01 -0.16931398283E+02  0.17124159592E+02  0.00000000000E+00 0. -1.
</event>
<event>
 7    1  0.6061051E-012  0.5930193E+02  0.7816164E-02  0.1266605E+00
        -11   -1    0    0    0    0  0.00000000000E+00  0.00000000000E+00  0.45593999997E+02  0.45594000000E+02  0.51100000000E-03 0.  1.
         11   -1    0    0    0    0 -0.00000000000E+00 -0.00000000000E+00 -0.45593999997E+02  0.45594000000E+02  0.51100000000E-03 0. -1.
    9900012    2    1    2    0    0 -0.25358707954E+02 -0.82987327103E+01 -0.17458195792E+02  0.59301927272E+02  0.49999969441E+02 0.  0.
         12    1    1    2    0    0  0.25358707954E+02  0.82987327103E+01  0.17458195792E+02  0.31886072728E+02  0.00000000000E+00 0. -1.
         11    1    3    3    0    0 -0.22358354381E+02 -0.29623827406E+01 -0.25454765663E+01  0.22696941938E+02  0.51100000000E-03 0. -1.
        -11    1    3    3    0    0 -0.14305136119E+02 -0.12035702254E+02 -0.31294276654E+01  0.18954903480E+02  0.51100000000E-03 0.  1.
         12    1    3    3    0    0  0.11304782546E+02  0.66993522846E+01 -0.11783291561E+02  0.17650081854E+02  0.00000000000E+00 0. -1.
</event>
<event>
 7    1  0.6061051E-012  0.5930181E+02  0.7816164E-02  0.1266605E+00
        -11   -1    0    0    0    0  0.00000000000E+00  0.00000000000E+00  0.45593999997E+02  0.45594000000E+02  0.51100000000E-03 0.  1.
         11   -1    0    0    0    0 -0.00000000000E+00 -0.00000000000E+00 -0.45593999997E+02  0.45594000000E+02  0.51100000000E-03 0. -1.
    9900012    2    1    2    0    0 -0.12853886762E+02  0.18467252977E+02  0.22593515813E+02  0.59301814994E+02  0.49999764673E+02 0.  0.
         12    1    1    2    0    0  0.12853886762E+02 -0.18467252977E+02 -0.22593515813E+02  0.31886185006E+02  0.00000000000E+00 0. -1.
         11    1    3    3    0    0 -0.92418617282E+01  0.19668938328E+01 -0.13417368015E+02  0.16410558926E+02  0.51100000000E-03 0. -1.
        -11    1    3    3    0    0  0.24840926039E+00 -0.58714188111E+00 -0.14240010476E+01  0.15601993442E+01  0.51100000000E-03 0.  1.
        -12    1    3    3    0    0 -0.38604342943E+01  0.17087501026E+02  0.37434884876E+02  0.41331056724E+02  0.00000000000E+00 0.  1.
</event>
<event>
 7    1  0.6061051E-012  0.5930194E+02  0.7816164E-02  0.1266605E+00
        -11   -1    0    0    0    0  0.00000000000E+00  0.00000000000E+00  0.45593999997E+02  0.45594000000E+02  0.51100000000E-03 0.  1.
         11   -1    0    0    0    0 -0.00000000000E+00 -0.00000000000E+00 -0.45593999997E+02  0.45594000000E+02  0.51100000000E-03 0. -1.
    9900012    2    1    2    0    0  0.34127340802E+01 -0.16650188352E+02  0.26978603187E+02  0.59301944176E+02  0.50000000271E+02 0.  0.
         12    1    1    2    0    0 -0.34127340802E+01  0.16650188352E+02 -0.26978603187E+02  0.31886055824E+02  0.00000000000E+00 0. -1.
         11    1    3    3    0    0 -0.10680027980E+02 -0.10047974402E+02  0.70950382097E+01  0.16290007817E+02  0.51100000000E-03 0. -1.
        -11    1    3    3    0    0 -0.59610629861E+01 -0.14981134472E+02  0.59050134537E+01  0.17170842907E+02  0.51100000000E-03 0.  1.
         12    1    3    3    0    0  0.20053825046E+02  0.83789205222E+01  0.13978551524E+02  0.25841093452E+02  0.00000000000E+00 0. -1.
</event>
<event>
 7    1  0.6061051E-012  0.5930200E+02  0.7816164E-02  0.1266605E+00
        -11   -1    0    0    0    0  0.00000000000E+00  0.00000000000E+00  0.45593999997E+02  0.45594000000E+02  0.51100000000E-03 0. -1.
         11   -1    0    0    0    0 -0.00000000000E+00 -0.00000000000E+00 -0.45593999997E+02  0.45594000000E+02  0.51100000000E-03 0.  1.
    9900012    2    1    2    0    0 -0.20147830608E+02 -0.20247793666E+02 -0.14170692505E+02  0.59302003816E+02  0.50000109039E+02 0.  0.
         12    1    1    2    0    0  0.20147830608E+02  0.20247793666E+02  0.14170692505E+02  0.31885996184E+02  0.00000000000E+00 0. -1.
         11    1    3    3    0    0  0.12040650889E+01 -0.48224803309E+01 -0.50167680005E+01  0.70621562367E+01  0.51100000000E-03 0. -1.
        -11    1    3    3    0    0 -0.23239367061E+02 -0.52370614243E+01 -0.24208624840E+02  0.33963988438E+02  0.51100000000E-03 0.  1.
         12    1    3    3    0    0  0.18874713635E+01 -0.10188251911E+02  0.15054700335E+02  0.18275859141E+02  0.00000000000E+00 0. -1.
</event>
<event>
 7    1  0.6061051E-012  0.5930193E+02  0.7816164E-02  0.1266605E+00
        -11   -1    0    0    0    0  0.00000000000E+00  0.00000000000E+00  0.45593999997E+02  0.45594000000E+02  0.51100000000E-03 0.  1.
         11   -1    0    0    0    0 -0.00000000000E+00 -0.00000000000E+00 -0.45593999997E+02  0.45594000000E+02  0.51100000000E-03 0. -1.
    9900012    2    1    2    0    0  0.26721342724E+02  0.17252288227E+02 -0.22472326026E+01  0.59301926858E+02  0.49999968686E+02 0.  0.
         12    1    1    2    0    0 -0.26721342724E+02 -0.17252288227E+02  0.22472326026E+01  0.31886073142E+02  0.00000000000E+00 0. -1.
         11    1    3    3    0    0  0.21254220277E+02 -0.13561296590E+02 -0.83493299126E+01  0.26558651228E+02  0.51100000000E-03 0. -1.
        -11    1    3    3    0    0  0.22928552592E+01  0.21930785492E+01  0.17404446500E+01  0.36188294521E+01  0.51100000000E-03 0.  1.
        -12    1    3    3    0    0  0.31742671884E+01  0.28620506268E+02  0.43616526600E+01  0.29124446178E+02  0.00000000000E+00 0.  1.
</event>
<event>
 7    1  0.6061051E-012  0.5930194E+02  0.7816164E-02  0.1266605E+00
        -11   -1    0    0    0    0  0.00000000000E+00  0.00000000000E+00  0.45593999997E+02  0.45594000000E+02  0.51100000000E-03 0.  1.
         11   -1    0    0    0    0 -0.00000000000E+00 -0.00000000000E+00 -0.45593999997E+02  0.45594000000E+02  0.51100000000E-03 0. -1.
    9900012    2    1    2    0    0 -0.84076805668E+01 -0.62148031714E+01  0.30123209683E+02  0.59301942975E+02  0.49999998080E+02 0.  0.
         12    1    1    2    0    0  0.84076805668E+01  0.62148031714E+01 -0.30123209683E+02  0.31886057025E+02  0.00000000000E+00 0. -1.
         11    1    3    3    0    0 -0.16043041336E+02 -0.82109397249E+01  0.30018737028E+01  0.18270466674E+02  0.51100000000E-03 0. -1.
        -11    1    3    3    0    0  0.47694695781E+01 -0.13781012856E+02  0.10764546789E+02  0.18125662008E+02  0.51100000000E-03 0.  1.
        -12    1    3    3    0    0  0.28658911913E+01  0.15777149409E+02  0.16356789191E+02  0.22905814294E+02  0.00000000000E+00 0.  1.
</event>
<event>
 7    1  0.6061051E-012  0.5930191E+02  0.7816164E-02  0.1266605E+00
        -11   -1    0    0    0    0  0.00000000000E+00  0.00000000000E+00  0.45593999997E+02  0.45594000000E+02  0.51100000000E-03 0. -1.
         11   -1    0    0    0    0 -0.00000000000E+00 -0.00000000000E+00 -0.45593999997E+02  0.45594000000E+02  0.51100000000E-03 0.  1.
    9900012    2    1    2    0    0  0.18199618821E+01  0.29924872420E+02  0.10858747794E+02  0.59301911274E+02  0.49999940265E+02 0.  0.
         12    1    1    2    0    0 -0.18199618821E+01 -0.29924872420E+02 -0.10858747794E+02  0.31886088726E+02  0.00000000000E+00 0. -1.
         11    1    3    3    0    0 -0.10792283818E+02  0.12192592087E+02 -0.86486495435E+01  0.18437240330E+02  0.51100000000E-03 0. -1.
        -11    1    3    3    0    0  0.19924572916E+02  0.16283888023E+02  0.76262789555E+01  0.26838661405E+02  0.51100000000E-03 0.  1.
         12    1    3    3    0    0 -0.73123272160E+01  0.14483923096E+01  0.11881118381E+02  0.14026009539E+02  0.00000000000E+00 0. -1.
</event>
<event>
 7    1  0.6061051E-012  0.5930196E+02  0.7816164E-02  0.1266605E+00
        -11   -1    0    0    0    0  0.00000000000E+00  0.00000000000E+00  0.45593999997E+02  0.45594000000E+02  0.51100000000E-03 0.  1.
         11   -1    0    0    0    0 -0.00000000000E+00 -0.00000000000E+00 -0.45593999997E+02  0.45594000000E+02  0.51100000000E-03 0. -1.
    9900012    2    1    2    0    0 -0.23711859643E+01 -0.24009520219E+02  0.20848020527E+02  0.59301960046E+02  0.50000029214E+02 0.  0.
         12    1    1    2    0    0  0.23711859643E+01  0.24009520219E+02 -0.20848020527E+02  0.31886039954E+02  0.00000000000E+00 0. -1.
         11    1    3    3    0    0  0.13439531355E+02 -0.22176460193E+02  0.12247903010E+02  0.28677997109E+02  0.51100000000E-03 0. -1.
        -11    1    3    3    0    0  0.42931398929E+01 -0.53877370732E+01 -0.25693450821E+01  0.73525706608E+01  0.51100000000E-03 0.  1.
        -12    1    3    3    0    0 -0.20103857213E+02  0.35546770473E+01  0.11169462599E+02  0.23271392277E+02  0.00000000000E+00 0.  1.
</event>
<event>
 7    1  0.6061051E-012  0.5930195E+02  0.7816164E-02  0.1266605E+00
        -11   -1    0    0    0    0  0.00000000000E+00  0.00000000000E+00  0.45593999997E+02  0.45594000000E+02  0.51100000000E-03 0.  1.
         11   -1    0    0    0    0 -0.00000000000E+00 -0.00000000000E+00 -0.45593999997E+02  0.45594000000E+02  0.51100000000E-03 0. -1.
    9900012    2    1    2    0    0 -0.73983012884E+00 -0.29737554111E+02  0.11482632024E+02  0.59301948013E+02  0.50000007268E+02 0.  0.
         12    1    1    2    0    0  0.73983012884E+00  0.29737554111E+02 -0.11482632024E+02  0.31886051987E+02  0.00000000000E+00 0. -1.
         11    1    3    3    0    0 -0.82661557908E+00  0.58213161045E+01  0.77752771476E+01  0.97481254345E+01  0.51100000000E-03 0. -1.
        -11    1    3    3    0    0  0.12127830055E+02 -0.42092815162E+00 -0.66631584259E+00  0.12153411843E+02  0.51100000000E-03 0.  1.
        -12    1    3    3    0    0 -0.12041044605E+02 -0.35137942064E+02  0.43736707187E+01  0.37400410736E+02  0.00000000000E+00 0.  1.
</event>
<event>
 7    1  0.6061051E-012  0.5930192E+02  0.7816164E-02  0.1266605E+00
        -11   -1    0    0    0    0  0.00000000000E+00  0.00000000000E+00  0.45593999997E+02  0.45594000000E+02  0.51100000000E-03 0.  1.
         11   -1    0    0    0    0 -0.00000000000E+00 -0.00000000000E+00 -0.45593999997E+02  0.45594000000E+02  0.51100000000E-03 0. -1.
    9900012    2    1    2    0    0 -0.13066973969E+02 -0.22930868992E+02  0.17892779523E+02  0.59301919643E+02  0.49999955529E+02 0.  0.
         12    1    1    2    0    0  0.13066973969E+02  0.22930868992E+02 -0.17892779523E+02  0.31886080357E+02  0.00000000000E+00 0. -1.
         11    1    3    3    0    0  0.87551045779E+01 -0.22752376966E+02  0.11990257864E+02  0.27167789709E+02  0.51100000000E-03 0.  1.
        -11    1    3    3    0    0  0.20644247278E+01 -0.16868919542E+01 -0.51287009917E+01  0.57802273351E+01  0.51100000000E-03 0. -1.
         12    1    3    3    0    0 -0.23886503275E+02  0.15083999282E+01  0.11031222651E+02  0.26353902599E+02  0.00000000000E+00 0. -1.
</event>
<event>
 7    1  0.6061051E-012  0.5930192E+02  0.7816164E-02  0.1266605E+00
        -11   -1    0    0    0    0  0.00000000000E+00  0.00000000000E+00  0.45593999997E+02  0.45594000000E+02  0.51100000000E-03 0. -1.
         11   -1    0    0    0    0 -0.00000000000E+00 -0.00000000000E+00 -0.45593999997E+02  0.45594000000E+02  0.51100000000E-03 0.  1.
    9900012    2    1    2    0    0  0.10599178823E+02  0.28494980593E+02 -0.96133070783E+01  0.59301918652E+02  0.49999953721E+02 0.  0.
         12    1    1    2    0    0 -0.10599178823E+02 -0.28494980593E+02  0.96133070783E+01  0.31886081348E+02  0.00000000000E+00 0. -1.
         11    1    3    3    0    0 -0.50406401558E+01  0.40827326883E+01  0.55112461006E+01  0.85117914229E+01  0.51100000000E-03 0. -1.
        -11    1    3    3    0    0 -0.33133137905E+01  0.19683270900E+02 -0.22347213921E+02  0.29963430576E+02  0.51100000000E-03 0.  1.
         12    1    3    3    0    0  0.18953132770E+02  0.47289770044E+01  0.72226607420E+01  0.20826696653E+02  0.00000000000E+00 0. -1.
</event>
<event>
 7    1  0.6061051E-012  0.5930198E+02  0.7816164E-02  0.1266605E+00
        -11   -1    0    0    0    0  0.00000000000E+00  0.00000000000E+00  0.45593999997E+02  0.45594000000E+02  0.51100000000E-03 0.  1.
         11   -1    0    0    0    0 -0.00000000000E+00 -0.00000000000E+00 -0.45593999997E+02  0.45594000000E+02  0.51100000000E-03 0. -1.
    9900012    2    1    2    0    0 -0.17118091506E+02  0.23051344192E+02  0.13868122375E+02  0.59301978861E+02  0.50000063527E+02 0.  0.
         12    1    1    2    0    0  0.17118091506E+02 -0.23051344192E+02 -0.13868122375E+02  0.31886021139E+02  0.00000000000E+00 0. -1.
         11    1    3    3    0    0 -0.16759531466E+02  0.15259475656E+02  0.11139457002E+02  0.25255118190E+02  0.51100000000E-03 0. -1.
        -11    1    3    3    0    0  0.12209349462E+02 -0.71916841811E+01  0.30195174316E+01  0.14488133814E+02  0.51100000000E-03 0.  1.
         12    1    3    3    0    0 -0.12567909502E+02  0.14983552718E+02 -0.29085205877E+00  0.19558726856E+02  0.00000000000E+00 0. -1.
</event>
<event>
 7    1  0.6061051E-012  0.5930188E+02  0.7816164E-02  0.1266605E+00
        -11   -1    0    0    0    0  0.00000000000E+00  0.00000000000E+00  0.45593999997E+02  0.45594000000E+02  0.51100000000E-03 0. -1.
         11   -1    0    0    0    0 -0.00000000000E+00 -0.00000000000E+00 -0.45593999997E+02  0.45594000000E+02  0.51100000000E-03 0.  1.
    9900012    2    1    2    0    0 -0.19500944977E+02  0.18784215673E+02  0.16840163364E+02  0.59301878951E+02  0.49999881316E+02 0.  0.
         12    1    1    2    0    0  0.19500944977E+02 -0.18784215673E+02 -0.16840163364E+02  0.31886121049E+02  0.00000000000E+00 0. -1.
         11    1    3    3    0    0  0.93243048155E+01 -0.47087953963E+01  0.25044662398E+01  0.10741869753E+02  0.51100000000E-03 0. -1.
        -11    1    3    3    0    0 -0.16162831022E+02 -0.20954211743E+01  0.11336083206E+02  0.19852825473E+02  0.51100000000E-03 0.  1.
        -12    1    3    3    0    0 -0.12662418770E+02  0.25588432243E+02  0.29996139184E+01  0.28707183725E+02  0.00000000000E+00 0.  1.
</event>
<event>
 7    1  0.6061051E-012  0.5930196E+02  0.7816164E-02  0.1266605E+00
        -11   -1    0    0    0    0  0.00000000000E+00  0.00000000000E+00  0.45593999997E+02  0.45594000000E+02  0.51100000000E-03 0. -1.
         11   -1    0    0    0    0 -0.00000000000E+00 -0.00000000000E+00 -0.45593999997E+02  0.45594000000E+02  0.51100000000E-03 0.  1.
    9900012    2    1    2    0    0 -0.95036756275E+01  0.20166953630E+02 -0.22796793169E+02  0.59301958415E+02  0.50000026239E+02 0.  0.
         12    1    1    2    0    0  0.95036756275E+01 -0.20166953630E+02  0.22796793169E+02  0.31886041585E+02  0.00000000000E+00 0. -1.
         11    1    3    3    0    0  0.13581033323E+02  0.99507516307E+01 -0.51326923421E+01  0.17601319697E+02  0.51100000000E-03 0. -1.
        -11    1    3    3    0    0  0.29239325230E+01  0.98163916744E+01 -0.10614559698E+02  0.14750586590E+02  0.51100000000E-03 0.  1.
        -12    1    3    3    0    0 -0.26008641473E+02  0.39981032483E+00 -0.70495411290E+01  0.26950052128E+02  0.00000000000E+00 0.  1.
</event>
<event>
 7    1  0.6061051E-012  0.5930205E+02  0.7816164E-02  0.1266604E+00
        -11   -1    0    0    0    0  0.00000000000E+00  0.00000000000E+00  0.45593999997E+02  0.45594000000E+02  0.51100000000E-03 0. -1.
         11   -1    0    0    0    0 -0.00000000000E+00 -0.00000000000E+00 -0.45593999997E+02  0.45594000000E+02  0.51100000000E-03 0.  1.
    9900012    2    1    2    0    0 -0.20512653061E+01 -0.28240582229E+02 -0.14662043808E+02  0.59302051643E+02  0.50000196264E+02 0.  0.
         12    1    1    2    0    0  0.20512653061E+01  0.28240582229E+02  0.14662043808E+02  0.31885948357E+02  0.00000000000E+00 0. -1.
         11    1    3    3    0    0 -0.67903491674E+01 -0.19377095187E+02  0.75231197650E+01  0.21867281289E+02  0.51100000000E-03 0. -1.
        -11    1    3    3    0    0  0.23875471331E+01 -0.17648915678E+02 -0.58631311090E+01  0.18749957669E+02  0.51100000000E-03 0.  1.
        -12    1    3    3    0    0  0.23515367282E+01  0.87854286360E+01 -0.16322032464E+02  0.18684812685E+02  0.00000000000E+00 0.  1.
</event>
<event>
 7    1  0.6061051E-012  0.5930191E+02  0.7816164E-02  0.1266605E+00
        -11   -1    0    0    0    0  0.00000000000E+00  0.00000000000E+00  0.45593999997E+02  0.45594000000E+02  0.51100000000E-03 0.  1.
         11   -1    0    0    0    0 -0.00000000000E+00 -0.00000000000E+00 -0.45593999997E+02  0.45594000000E+02  0.51100000000E-03 0. -1.
    9900012    2    1    2    0    0  0.19922346629E+02 -0.68727170050E+01  0.23928819973E+02  0.59301912759E+02  0.49999942972E+02 0.  0.
         12    1    1    2    0    0 -0.19922346629E+02  0.68727170050E+01 -0.23928819973E+02  0.31886087241E+02  0.00000000000E+00 0. -1.
         11    1    3    3    0    0 -0.16842469591E+00 -0.31942462298E+01 -0.17864740133E+01  0.36637501984E+01  0.51100000000E-03 0. -1.
        -11    1    3    3    0    0  0.22591374636E+02 -0.20970343661E+02  0.21741354597E+02  0.37720180556E+02  0.51100000000E-03 0.  1.
        -12    1    3    3    0    0 -0.25006033111E+01  0.17291872886E+02  0.39739393900E+01  0.17917982004E+02  0.00000000000E+00 0.  1.
</event>
<event>
 7    1  0.6061051E-012  0.5930194E+02  0.7816164E-02  0.1266605E+00
        -11   -1    0    0    0    0  0.00000000000E+00  0.00000000000E+00  0.45593999997E+02  0.45594000000E+02  0.51100000000E-03 0.  1.
         11   -1    0    0    0    0 -0.00000000000E+00 -0.00000000000E+00 -0.45593999997E+02  0.45594000000E+02  0.51100000000E-03 0. -1.
    9900012    2    1    2    0    0  0.18881583445E+02 -0.80371539541E+01  0.24405141549E+02  0.59301937667E+02  0.49999988400E+02 0.  0.
         12    1    1    2    0    0 -0.18881583445E+02  0.80371539541E+01 -0.24405141549E+02  0.31886062333E+02  0.00000000000E+00 0. -1.
         11    1    3    3    0    0  0.34754296330E+01  0.25674733390E+01  0.83152750686E+01  0.93709300610E+01  0.51100000000E-03 0. -1.
        -11    1    3    3    0    0  0.27451773966E+02 -0.15581066199E+02  0.18629453441E+02  0.36652776888E+02  0.51100000000E-03 0.  1.
         12    1    3    3    0    0 -0.12045620154E+02  0.49764389061E+01 -0.25395869614E+01  0.13278230719E+02  0.00000000000E+00 0. -1.
</event>
<event>
 7    1  0.6061051E-012  0.5930194E+02  0.7816164E-02  0.1266605E+00
        -11   -1    0    0    0    0  0.00000000000E+00  0.00000000000E+00  0.45593999997E+02  0.45594000000E+02  0.51100000000E-03 0.  1.
         11   -1    0    0    0    0 -0.00000000000E+00 -0.00000000000E+00 -0.45593999997E+02  0.45594000000E+02  0.51100000000E-03 0. -1.
    9900012    2    1    2    0    0  0.17217586575E+02  0.10755797920E+02  0.24588384709E+02  0.59301935035E+02  0.49999983599E+02 0.  0.
         12    1    1    2    0    0 -0.17217586575E+02 -0.10755797920E+02 -0.24588384709E+02  0.31886064965E+02  0.00000000000E+00 0. -1.
         11    1    3    3    0    0  0.22799350387E+02 -0.74744363183E+01 -0.95565318720E+00  0.24012306212E+02  0.51100000000E-03 0. -1.
        -11    1    3    3    0    0  0.46829749448E+01  0.22431340363E+01  0.72272331314E+01  0.88991462307E+01  0.51100000000E-03 0.  1.
        -12    1    3    3    0    0 -0.10264738757E+02  0.15987100202E+02  0.18316804765E+02  0.26390482592E+02  0.00000000000E+00 0.  1.
</event>
<event>
 7    1  0.6061051E-012  0.5930195E+02  0.7816164E-02  0.1266605E+00
        -11   -1    0    0    0    0  0.00000000000E+00  0.00000000000E+00  0.45593999997E+02  0.45594000000E+02  0.51100000000E-03 0.  1.
         11   -1    0    0    0    0 -0.00000000000E+00 -0.00000000000E+00 -0.45593999997E+02  0.45594000000E+02  0.51100000000E-03 0. -1.
    9900012    2    1    2    0    0  0.98202080748E+01 -0.28819612713E+02  0.94717262591E+01  0.59301950356E+02  0.50000011542E+02 0.  0.
         12    1    1    2    0    0 -0.98202080748E+01  0.28819612713E+02 -0.94717262591E+01  0.31886049644E+02  0.00000000000E+00 0. -1.
         11    1    3    3    0    0 -0.10356344643E+02 -0.11741456140E+02 -0.86930815073E+01  0.17907689214E+02  0.51100000000E-03 0. -1.
        -11    1    3    3    0    0  0.38065860859E+01  0.36339495477E+01  0.13625781424E+02  0.14606765783E+02  0.51100000000E-03 0.  1.
        -12    1    3    3    0    0  0.16369966632E+02 -0.20712106121E+02  0.45390263421E+01  0.26787495359E+02  0.00000000000E+00 0.  1.
</event>
<event>
 7    1  0.6061051E-012  0.5930200E+02  0.7816164E-02  0.1266605E+00
        -11   -1    0    0    0    0  0.00000000000E+00  0.00000000000E+00  0.45593999997E+02  0.45594000000E+02  0.51100000000E-03 0. -1.
         11   -1    0    0    0    0 -0.00000000000E+00 -0.00000000000E+00 -0.45593999997E+02  0.45594000000E+02  0.51100000000E-03 0.  1.
    9900012    2    1    2    0    0 -0.12357842972E+02 -0.15947743415E+02 -0.24691502075E+02  0.59301998720E+02  0.50000099745E+02 0.  0.
         12    1    1    2    0    0  0.12357842972E+02  0.15947743415E+02  0.24691502075E+02  0.31886001280E+02  0.00000000000E+00 0. -1.
         11    1    3    3    0    0 -0.96382815869E+01  0.68523115923E+01 -0.55348250626E+01  0.13056987970E+02  0.51100000000E-03 0. -1.
        -11    1    3    3    0    0 -0.18377813913E+02 -0.69684431600E+01 -0.69201482478E+01  0.20837267007E+02  0.51100000000E-03 0.  1.
         12    1    3    3    0    0  0.15658252528E+02 -0.15831611847E+02 -0.12236528764E+02  0.25407743743E+02  0.00000000000E+00 0. -1.
</event>
<event>
 7    1  0.6061051E-012  0.5930190E+02  0.7816164E-02  0.1266605E+00
        -11   -1    0    0    0    0  0.00000000000E+00  0.00000000000E+00  0.45593999997E+02  0.45594000000E+02  0.51100000000E-03 0.  1.
         11   -1    0    0    0    0 -0.00000000000E+00 -0.00000000000E+00 -0.45593999997E+02  0.45594000000E+02  0.51100000000E-03 0. -1.
    9900012    2    1    2    0    0  0.11266569490E+02 -0.67238846274E+01  0.29061614293E+02  0.59301895850E+02  0.49999912135E+02 0.  0.
         12    1    1    2    0    0 -0.11266569490E+02  0.67238846274E+01 -0.29061614293E+02  0.31886104150E+02  0.00000000000E+00 0. -1.
         11    1    3    3    0    0  0.10132782371E+02  0.12797983826E+02  0.17673754769E+02  0.24058746361E+02  0.51100000000E-03 0.  1.
        -11    1    3    3    0    0  0.96212663385E+01 -0.16482335621E+02  0.16191422748E+02  0.25027950862E+02  0.51100000000E-03 0. -1.
         12    1    3    3    0    0 -0.84874792202E+01 -0.30395328322E+01 -0.48035632235E+01  0.10215198627E+02  0.00000000000E+00 0. -1.
</event>
<event>
 7    1  0.6061051E-012  0.5930193E+02  0.7816164E-02  0.1266605E+00
        -11   -1    0    0    0    0  0.00000000000E+00  0.00000000000E+00  0.45593999997E+02  0.45594000000E+02  0.51100000000E-03 0.  1.
         11   -1    0    0    0    0 -0.00000000000E+00 -0.00000000000E+00 -0.45593999997E+02  0.45594000000E+02  0.51100000000E-03 0. -1.
    9900012    2    1    2    0    0 -0.70935630578E+01  0.20397217336E+02  0.23459673094E+02  0.59301931356E+02  0.49999976890E+02 0.  0.
         12    1    1    2    0    0  0.70935630578E+01 -0.20397217336E+02 -0.23459673094E+02  0.31886068644E+02  0.00000000000E+00 0. -1.
         11    1    3    3    0    0  0.19954134282E+01 -0.25337694854E+01 -0.23693107666E+01  0.40019115838E+01  0.51100000000E-03 0. -1.
        -11    1    3    3    0    0  0.43698519580E+01  0.17038784332E+02 -0.73111678798E+01  0.19049119499E+02  0.51100000000E-03 0.  1.
         12    1    3    3    0    0 -0.13458828444E+02  0.58922024888E+01  0.33140151740E+02  0.36250900273E+02  0.00000000000E+00 0. -1.
</event>
<event>
 7    1  0.6061051E-012  0.5930195E+02  0.7816164E-02  0.1266605E+00
        -11   -1    0    0    0    0  0.00000000000E+00  0.00000000000E+00  0.45593999997E+02  0.45594000000E+02  0.51100000000E-03 0. -1.
         11   -1    0    0    0    0 -0.00000000000E+00 -0.00000000000E+00 -0.45593999997E+02  0.45594000000E+02  0.51100000000E-03 0.  1.
    9900012    2    1    2    0    0  0.31639023982E+02 -0.39173651453E+01  0.58863732013E+00  0.59301951607E+02  0.50000013822E+02 0.  0.
         12    1    1    2    0    0 -0.31639023982E+02  0.39173651453E+01 -0.58863732013E+00  0.31886048393E+02  0.00000000000E+00 0. -1.
         11    1    3    3    0    0  0.33432954416E+01  0.11214012205E+02 -0.32283420422E+01  0.12138940923E+02  0.51100000000E-03 0. -1.
        -11    1    3    3    0    0  0.32743720026E+02 -0.56151812872E+01 -0.48125582874E+01  0.33568470021E+02  0.51100000000E-03 0.  1.
         12    1    3    3    0    0 -0.44479914855E+01 -0.95161960630E+01  0.86295376497E+01  0.13594540662E+02  0.00000000000E+00 0. -1.
</event>
<event>
 7    1  0.6061051E-012  0.5930195E+02  0.7816164E-02  0.1266605E+00
        -11   -1    0    0    0    0  0.00000000000E+00  0.00000000000E+00  0.45593999997E+02  0.45594000000E+02  0.51100000000E-03 0. -1.
         11   -1    0    0    0    0 -0.00000000000E+00 -0.00000000000E+00 -0.45593999997E+02  0.45594000000E+02  0.51100000000E-03 0.  1.
    9900012    2    1    2    0    0  0.24076600193E+02 -0.16267340516E+02 -0.13130540745E+02  0.59301950628E+02  0.50000012037E+02 0.  0.
         12    1    1    2    0    0 -0.24076600193E+02  0.16267340516E+02  0.13130540745E+02  0.31886049372E+02  0.00000000000E+00 0. -1.
         11    1    3    3    0    0 -0.43977052161E+01 -0.17134857085E+02 -0.10983266045E+02  0.20822470357E+02  0.51100000000E-03 0. -1.
        -11    1    3    3    0    0  0.12568458114E+02 -0.12268425861E+02 -0.30705365639E+01  0.17829991798E+02  0.51100000000E-03 0.  1.
        -12    1    3    3    0    0  0.15905847295E+02  0.13135942430E+02  0.92326186370E+00  0.20649488473E+02  0.00000000000E+00 0.  1.
</event>
<event>
 7    1  0.6061051E-012  0.5930194E+02  0.7816164E-02  0.1266605E+00
        -11   -1    0    0    0    0  0.00000000000E+00  0.00000000000E+00  0.45593999997E+02  0.45594000000E+02  0.51100000000E-03 0. -1.
         11   -1    0    0    0    0 -0.00000000000E+00 -0.00000000000E+00 -0.45593999997E+02  0.45594000000E+02  0.51100000000E-03 0.  1.
    9900012    2    1    2    0    0  0.27625913835E+02 -0.27439111123E+01 -0.15684411351E+02  0.59301938424E+02  0.49999989780E+02 0.  0.
         12    1    1    2    0    0 -0.27625913835E+02  0.27439111123E+01  0.15684411351E+02  0.31886061576E+02  0.00000000000E+00 0. -1.
         11    1    3    3    0    0  0.24615702273E+02 -0.61766477343E+01  0.69247849720E+01  0.26306585160E+02  0.51100000000E-03 0. -1.
        -11    1    3    3    0    0 -0.33021753423E+01  0.15190825714E+01  0.41026162198E+01  0.54811891008E+01  0.51100000000E-03 0.  1.
        -12    1    3    3    0    0  0.63123869046E+01  0.19136540506E+01 -0.26711812542E+02  0.27514164162E+02  0.00000000000E+00 0.  1.
</event>
<event>
 7    1  0.6061051E-012  0.5930195E+02  0.7816164E-02  0.1266605E+00
        -11   -1    0    0    0    0  0.00000000000E+00  0.00000000000E+00  0.45593999997E+02  0.45594000000E+02  0.51100000000E-03 0.  1.
         11   -1    0    0    0    0 -0.00000000000E+00 -0.00000000000E+00 -0.45593999997E+02  0.45594000000E+02  0.51100000000E-03 0. -1.
    9900012    2    1    2    0    0 -0.19382414368E+02  0.20854188722E+02  0.14357747475E+02  0.59301951537E+02  0.50000013696E+02 0.  0.
         12    1    1    2    0    0  0.19382414368E+02 -0.20854188722E+02 -0.14357747475E+02  0.31886048463E+02  0.00000000000E+00 0. -1.
         11    1    3    3    0    0 -0.57574093290E+01  0.26965897944E+01 -0.45922980610E+01  0.78427393456E+01  0.51100000000E-03 0. -1.
        -11    1    3    3    0    0 -0.12830432962E+02  0.26835822543E+02 -0.92282165509E+00  0.29759586382E+02  0.51100000000E-03 0.  1.
        -12    1    3    3    0    0 -0.79457207705E+00 -0.86782236150E+01  0.19872867191E+02  0.21699625810E+02  0.00000000000E+00 0.  1.
</event>
<event>
 7    1  0.6061051E-012  0.5930197E+02  0.7816164E-02  0.1266605E+00
        -11   -1    0    0    0    0  0.00000000000E+00  0.00000000000E+00  0.45593999997E+02  0.45594000000E+02  0.51100000000E-03 0. -1.
         11   -1    0    0    0    0 -0.00000000000E+00 -0.00000000000E+00 -0.45593999997E+02  0.45594000000E+02  0.51100000000E-03 0.  1.
    9900012    2    1    2    0    0  0.13281538273E+02  0.28546899568E+02  0.50392761301E+01  0.59301967984E+02  0.50000043690E+02 0.  0.
         12    1    1    2    0    0 -0.13281538273E+02 -0.28546899568E+02 -0.50392761301E+01  0.31886032016E+02  0.00000000000E+00 0. -1.
         11    1    3    3    0    0 -0.62602738873E+01  0.52681714254E+01  0.16534567449E+02  0.18448213472E+02  0.51100000000E-03 0. -1.
        -11    1    3    3    0    0 -0.47163893115E+01  0.94999554421E+01  0.18774809826E+00  0.10607956031E+02  0.51100000000E-03 0.  1.
        -12    1    3    3    0    0  0.24258201471E+02  0.13778772701E+02 -0.11683039417E+02  0.30245798481E+02  0.00000000000E+00 0.  1.
</event>
<event>
 7    1  0.6061051E-012  0.5930188E+02  0.7816164E-02  0.1266605E+00
        -11   -1    0    0    0    0  0.00000000000E+00  0.00000000000E+00  0.45593999997E+02  0.45594000000E+02  0.51100000000E-03 0. -1.
         11   -1    0    0    0    0 -0.00000000000E+00 -0.00000000000E+00 -0.45593999997E+02  0.45594000000E+02  0.51100000000E-03 0.  1.
    9900012    2    1    2    0    0  0.10346056142E+02  0.28771143354E+02 -0.90501352473E+01  0.59301882086E+02  0.49999887034E+02 0.  0.
         12    1    1    2    0    0 -0.10346056142E+02 -0.28771143354E+02  0.90501352473E+01  0.31886117914E+02  0.00000000000E+00 0. -1.
         11    1    3    3    0    0  0.26137551808E+01  0.55548048421E+01 -0.23516339280E+01  0.65740212482E+01  0.51100000000E-03 0. -1.
        -11    1    3    3    0    0  0.25631037660E+02  0.22200370717E+02 -0.77010660108E+01  0.34772301757E+02  0.51100000000E-03 0.  1.
         12    1    3    3    0    0 -0.17898736698E+02  0.10159677948E+01  0.10025646915E+01  0.17955559081E+02  0.00000000000E+00 0. -1.
</event>
<event>
 7    1  0.6061051E-012  0.5930189E+02  0.7816164E-02  0.1266605E+00
        -11   -1    0    0    0    0  0.00000000000E+00  0.00000000000E+00  0.45593999997E+02  0.45594000000E+02  0.51100000000E-03 0. -1.
         11   -1    0    0    0    0 -0.00000000000E+00 -0.00000000000E+00 -0.45593999997E+02  0.45594000000E+02  0.51100000000E-03 0.  1.
    9900012    2    1    2    0    0 -0.60451146484E+01 -0.20622467511E+02 -0.23556195176E+02  0.59301891606E+02  0.49999904395E+02 0.  0.
         12    1    1    2    0    0  0.60451146484E+01  0.20622467511E+02  0.23556195176E+02  0.31886108394E+02  0.00000000000E+00 0. -1.
         11    1    3    3    0    0 -0.17502210111E+02 -0.53136510222E+01 -0.36403653242E+01  0.18649785680E+02  0.51100000000E-03 0. -1.
        -11    1    3    3    0    0 -0.28956220841E+01 -0.18883706451E+02 -0.52273276558E+01  0.19806664315E+02  0.51100000000E-03 0.  1.
        -12    1    3    3    0    0  0.14352717547E+02  0.35748899622E+01 -0.14688502196E+02  0.20845441611E+02  0.00000000000E+00 0.  1.
</event>
<event>
 7    1  0.6061051E-012  0.5930196E+02  0.7816164E-02  0.1266605E+00
        -11   -1    0    0    0    0  0.00000000000E+00  0.00000000000E+00  0.45593999997E+02  0.45594000000E+02  0.51100000000E-03 0. -1.
         11   -1    0    0    0    0 -0.00000000000E+00 -0.00000000000E+00 -0.45593999997E+02  0.45594000000E+02  0.51100000000E-03 0.  1.
    9900012    2    1    2    0    0  0.68239844334E+01 -0.13571010926E+02 -0.28035348404E+02  0.59301955071E+02  0.50000020140E+02 0.  0.
         12    1    1    2    0    0 -0.68239844334E+01  0.13571010926E+02  0.28035348404E+02  0.31886044929E+02  0.00000000000E+00 0. -1.
         11    1    3    3    0    0  0.68104422136E+01  0.62366508202E+01 -0.10942044642E+02  0.14318040292E+02  0.51100000000E-03 0. -1.
        -11    1    3    3    0    0  0.62086981553E+01  0.87109022516E+01  0.84090713247E+00  0.10730092073E+02  0.51100000000E-03 0.  1.
         12    1    3    3    0    0 -0.61951559354E+01 -0.28518563998E+02 -0.17934210894E+02  0.34253822706E+02  0.00000000000E+00 0. -1.
</event>
<event>
 7    1  0.6061051E-012  0.5930197E+02  0.7816164E-02  0.1266605E+00
        -11   -1    0    0    0    0  0.00000000000E+00  0.00000000000E+00  0.45593999997E+02  0.45594000000E+02  0.51100000000E-03 0.  1.
         11   -1    0    0    0    0 -0.00000000000E+00 -0.00000000000E+00 -0.45593999997E+02  0.45594000000E+02  0.51100000000E-03 0. -1.
    9900012    2    1    2    0    0  0.18695375807E+02 -0.22823093283E+02  0.12095781408E+02  0.59301974982E+02  0.50000056453E+02 0.  0.
         12    1    1    2    0    0 -0.18695375807E+02  0.22823093283E+02 -0.12095781408E+02  0.31886025018E+02  0.00000000000E+00 0. -1.
         11    1    3    3    0    0 -0.60755237150E+01 -0.42918790028E+01  0.13614710768E+02  0.15514269668E+02  0.51100000000E-03 0. -1.
        -11    1    3    3    0    0  0.77603506564E+01 -0.24180705875E+02  0.21695469516E+01  0.25487968007E+02  0.51100000000E-03 0.  1.
         12    1    3    3    0    0  0.17010548865E+02  0.56494915943E+01 -0.36884763114E+01  0.18299737306E+02  0.00000000000E+00 0. -1.
</event>
<event>
 7    1  0.6061051E-012  0.5930194E+02  0.7816164E-02  0.1266605E+00
        -11   -1    0    0    0    0  0.00000000000E+00  0.00000000000E+00  0.45593999997E+02  0.45594000000E+02  0.51100000000E-03 0.  1.
         11   -1    0    0    0    0 -0.00000000000E+00 -0.00000000000E+00 -0.45593999997E+02  0.45594000000E+02  0.51100000000E-03 0. -1.
    9900012    2    1    2    0    0  0.31846961264E+02 -0.15767669868E+01 -0.76489261767E-01  0.59301937425E+02  0.49999987959E+02 0.  0.
         12    1    1    2    0    0 -0.31846961264E+02  0.15767669868E+01  0.76489261767E-01  0.31886062575E+02  0.00000000000E+00 0. -1.
         11    1    3    3    0    0  0.47597436217E+01 -0.15410430786E+02 -0.26538756484E+01  0.16345629158E+02  0.51100000000E-03 0. -1.
        -11    1    3    3    0    0 -0.30991737197E+01  0.23071386318E+01  0.91946893252E+01  0.99734687276E+01  0.51100000000E-03 0.  1.
         12    1    3    3    0    0  0.30186391362E+02  0.11526525168E+02 -0.66173029385E+01  0.32982839540E+02  0.00000000000E+00 0. -1.
</event>
<event>
 7    1  0.6061051E-012  0.5930198E+02  0.7816164E-02  0.1266605E+00
        -11   -1    0    0    0    0  0.00000000000E+00  0.00000000000E+00  0.45593999997E+02  0.45594000000E+02  0.51100000000E-03 0.  1.
         11   -1    0    0    0    0 -0.00000000000E+00 -0.00000000000E+00 -0.45593999997E+02  0.45594000000E+02  0.51100000000E-03 0. -1.
    9900012    2    1    2    0    0  0.16400828814E+02  0.16513565058E+01  0.27294765999E+02  0.59301977749E+02  0.50000061499E+02 0.  0.
         12    1    1    2    0    0 -0.16400828814E+02 -0.16513565058E+01 -0.27294765999E+02  0.31886022251E+02  0.00000000000E+00 0. -1.
         11    1    3    3    0    0  0.14504846634E+02 -0.19149292605E+02  0.83719774708E+01  0.25439653893E+02  0.51100000000E-03 0. -1.
        -11    1    3    3    0    0  0.59448694747E+01  0.67347528767E+01 -0.11104159823E+01  0.90515961739E+01  0.51100000000E-03 0.  1.
        -12    1    3    3    0    0 -0.40488872953E+01  0.14065896234E+02  0.20033204510E+02  0.24810727682E+02  0.00000000000E+00 0.  1.
</event>
<event>
 7    1  0.6061051E-012  0.5930199E+02  0.7816164E-02  0.1266605E+00
        -11   -1    0    0    0    0  0.00000000000E+00  0.00000000000E+00  0.45593999997E+02  0.45594000000E+02  0.51100000000E-03 0.  1.
         11   -1    0    0    0    0 -0.00000000000E+00 -0.00000000000E+00 -0.45593999997E+02  0.45594000000E+02  0.51100000000E-03 0. -1.
    9900012    2    1    2    0    0 -0.19787964681E+01 -0.56038834989E+01  0.31327282152E+02  0.59301988134E+02  0.50000080439E+02 0.  0.
         12    1    1    2    0    0  0.19787964681E+01  0.56038834989E+01 -0.31327282152E+02  0.31886011866E+02  0.00000000000E+00 0. -1.
         11    1    3    3    0    0 -0.88483964687E+01 -0.13791409490E+02  0.10980381423E+02  0.19724752781E+02  0.51100000000E-03 0. -1.
        -11    1    3    3    0    0  0.88589728321E+01 -0.46704618961E+00  0.27039399621E+02  0.28457488714E+02  0.51100000000E-03 0.  1.
         12    1    3    3    0    0 -0.19893728315E+01  0.86545721809E+01 -0.66924988925E+01  0.11119746639E+02  0.00000000000E+00 0. -1.
</event>
<event>
 7    1  0.6061051E-012  0.5930195E+02  0.7816164E-02  0.1266605E+00
        -11   -1    0    0    0    0  0.00000000000E+00  0.00000000000E+00  0.45593999997E+02  0.45594000000E+02  0.51100000000E-03 0.  1.
         11   -1    0    0    0    0 -0.00000000000E+00 -0.00000000000E+00 -0.45593999997E+02  0.45594000000E+02  0.51100000000E-03 0. -1.
    9900012    2    1    2    0    0 -0.25525036242E+02 -0.13780535370E+02 -0.13239689141E+02  0.59301952913E+02  0.50000016205E+02 0.  0.
         12    1    1    2    0    0  0.25525036242E+02  0.13780535370E+02  0.13239689141E+02  0.31886047087E+02  0.00000000000E+00 0. -1.
         11    1    3    3    0    0 -0.17416217447E+02  0.23537303335E+01  0.80570479233E+01  0.19333408860E+02  0.51100000000E-03 0.  1.
        -11    1    3    3    0    0  0.25706342244E+01  0.35286932839E+01 -0.16521698367E+02  0.17088778593E+02  0.51100000000E-03 0. -1.
        -12    1    3    3    0    0 -0.10679453019E+02 -0.19662958988E+02 -0.47750386967E+01  0.22879765460E+02  0.00000000000E+00 0.  1.
</event>
<event>
 7    1  0.6061051E-012  0.5930195E+02  0.7816164E-02  0.1266605E+00
        -11   -1    0    0    0    0  0.00000000000E+00  0.00000000000E+00  0.45593999997E+02  0.45594000000E+02  0.51100000000E-03 0.  1.
         11   -1    0    0    0    0 -0.00000000000E+00 -0.00000000000E+00 -0.45593999997E+02  0.45594000000E+02  0.51100000000E-03 0. -1.
    9900012    2    1    2    0    0  0.19845048821E+02 -0.82661912245E+01  0.23549194214E+02  0.59301946180E+02  0.50000003926E+02 0.  0.
         12    1    1    2    0    0 -0.19845048821E+02  0.82661912245E+01 -0.23549194214E+02  0.31886053820E+02  0.00000000000E+00 0. -1.
         11    1    3    3    0    0 -0.63415115301E+01 -0.27775343678E+01  0.27478247371E+02  0.28336964278E+02  0.51100000000E-03 0.  1.
        -11    1    3    3    0    0  0.10356561313E+02 -0.24057434885E+01 -0.91355335626E+01  0.14017986221E+02  0.51100000000E-03 0. -1.
        -12    1    3    3    0    0  0.15829999038E+02 -0.30829133682E+01  0.52064804051E+01  0.16946995680E+02  0.00000000000E+00 0.  1.
</event>
<event>
 7    1  0.6061051E-012  0.5930195E+02  0.7816164E-02  0.1266605E+00
        -11   -1    0    0    0    0  0.00000000000E+00  0.00000000000E+00  0.45593999997E+02  0.45594000000E+02  0.51100000000E-03 0.  1.
         11   -1    0    0    0    0 -0.00000000000E+00 -0.00000000000E+00 -0.45593999997E+02  0.45594000000E+02  0.51100000000E-03 0. -1.
    9900012    2    1    2    0    0 -0.14712129512E+02 -0.16633390220E+02  0.22882393802E+02  0.59301947075E+02  0.50000005558E+02 0.  0.
         12    1    1    2    0    0  0.14712129512E+02  0.16633390220E+02 -0.22882393802E+02  0.31886052925E+02  0.00000000000E+00 0. -1.
         11    1    3    3    0    0 -0.18112826732E+02  0.80268747162E+00  0.63566168974E+01  0.19212635895E+02  0.51100000000E-03 0. -1.
        -11    1    3    3    0    0 -0.11709715516E+02 -0.99122472577E+01 -0.14745962866E+01  0.15412479283E+02  0.51100000000E-03 0.  1.
        -12    1    3    3    0    0  0.15110412736E+02 -0.75238304343E+01  0.18000373191E+02  0.24676831897E+02  0.00000000000E+00 0.  1.
</event>
<event>
 7    1  0.6061051E-012  0.5930194E+02  0.7816164E-02  0.1266605E+00
        -11   -1    0    0    0    0  0.00000000000E+00  0.00000000000E+00  0.45593999997E+02  0.45594000000E+02  0.51100000000E-03 0.  1.
         11   -1    0    0    0    0 -0.00000000000E+00 -0.00000000000E+00 -0.45593999997E+02  0.45594000000E+02  0.51100000000E-03 0. -1.
    9900012    2    1    2    0    0  0.30199055049E+02  0.98417259681E+01 -0.28068165615E+01  0.59301941682E+02  0.49999995722E+02 0.  0.
         12    1    1    2    0    0 -0.30199055049E+02 -0.98417259681E+01  0.28068165615E+01  0.31886058318E+02  0.00000000000E+00 0. -1.
         11    1    3    3    0    0  0.10871166262E+02  0.81027866452E+01 -0.13062450842E+02  0.18827241688E+02  0.51100000000E-03 0. -1.
        -11    1    3    3    0    0  0.25521802108E+02  0.14454318634E+01 -0.30997883561E+01  0.25749958140E+02  0.51100000000E-03 0.  1.
        -12    1    3    3    0    0 -0.61939133217E+01  0.29350745951E+00  0.13355422636E+02  0.14724741854E+02  0.00000000000E+00 0.  1.
</event>
<event>
 7    1  0.6061051E-012  0.5930193E+02  0.7816164E-02  0.1266605E+00
        -11   -1    0    0    0    0  0.00000000000E+00  0.00000000000E+00  0.45593999997E+02  0.45594000000E+02  0.51100000000E-03 0. -1.
         11   -1    0    0    0    0 -0.00000000000E+00 -0.00000000000E+00 -0.45593999997E+02  0.45594000000E+02  0.51100000000E-03 0.  1.
    9900012    2    1    2    0    0  0.23696641335E+02 -0.21252442298E+02  0.18772844070E+01  0.59301932338E+02  0.49999978681E+02 0.  0.
         12    1    1    2    0    0 -0.23696641335E+02  0.21252442298E+02 -0.18772844070E+01  0.31886067662E+02  0.00000000000E+00 0. -1.
         11    1    3    3    0    0 -0.51477686845E+01 -0.10010030859E+02 -0.83523368101E+00  0.11287065863E+02  0.51100000000E-03 0. -1.
        -11    1    3    3    0    0  0.13602273126E+02 -0.23113223181E+02  0.79972750247E+01  0.27985698635E+02  0.51100000000E-03 0.  1.
        -12    1    3    3    0    0  0.15242136894E+02  0.11870811742E+02 -0.52847569366E+01  0.20029167841E+02  0.00000000000E+00 0.  1.
</event>
<event>
 7    1  0.6061051E-012  0.5930195E+02  0.7816164E-02  0.1266605E+00
        -11   -1    0    0    0    0  0.00000000000E+00  0.00000000000E+00  0.45593999997E+02  0.45594000000E+02  0.51100000000E-03 0.  1.
         11   -1    0    0    0    0 -0.00000000000E+00 -0.00000000000E+00 -0.45593999997E+02  0.45594000000E+02  0.51100000000E-03 0. -1.
    9900012    2    1    2    0    0  0.25975625211E+02 -0.18308819524E+02  0.26027253870E+01  0.59301950434E+02  0.50000011684E+02 0.  0.
         12    1    1    2    0    0 -0.25975625211E+02  0.18308819524E+02 -0.26027253870E+01  0.31886049566E+02  0.00000000000E+00 0. -1.
         11    1    3    3    0    0 -0.21970906957E+01 -0.94600035752E+01  0.72584363176E+01  0.12124511256E+02  0.51100000000E-03 0. -1.
        -11    1    3    3    0    0  0.16659426493E+02  0.52592001974E+01  0.13029160478E+02  0.21793455458E+02  0.51100000000E-03 0.  1.
         12    1    3    3    0    0  0.11513289414E+02 -0.14108016147E+02 -0.17684871409E+02  0.25383983719E+02  0.00000000000E+00 0. -1.
</event>
<event>
 7    1  0.6061051E-012  0.5930198E+02  0.7816164E-02  0.1266605E+00
        -11   -1    0    0    0    0  0.00000000000E+00  0.00000000000E+00  0.45593999997E+02  0.45594000000E+02  0.51100000000E-03 0.  1.
         11   -1    0    0    0    0 -0.00000000000E+00 -0.00000000000E+00 -0.45593999997E+02  0.45594000000E+02  0.51100000000E-03 0. -1.
    9900012    2    1    2    0    0  0.12479411216E+02 -0.76358538781E+01  0.28331537106E+02  0.59301984828E+02  0.50000074411E+02 0.  0.
         12    1    1    2    0    0 -0.12479411216E+02  0.76358538781E+01 -0.28331537106E+02  0.31886015172E+02  0.00000000000E+00 0. -1.
         11    1    3    3    0    0  0.11074401139E+02  0.95403352402E+01  0.34558612003E+02  0.37522766701E+02  0.51100000000E-03 0.  1.
        -11    1    3    3    0    0 -0.39267489285E+01 -0.43653300471E+01 -0.52371620622E+01  0.78678669469E+01  0.51100000000E-03 0. -1.
        -12    1    3    3    0    0  0.53317590053E+01 -0.12810859071E+02 -0.98991283514E+00  0.13911351180E+02  0.00000000000E+00 0.  1.
</event>
<event>
 7    1  0.6061051E-012  0.5930194E+02  0.7816164E-02  0.1266605E+00
        -11   -1    0    0    0    0  0.00000000000E+00  0.00000000000E+00  0.45593999997E+02  0.45594000000E+02  0.51100000000E-03 0.  1.
         11   -1    0    0    0    0 -0.00000000000E+00 -0.00000000000E+00 -0.45593999997E+02  0.45594000000E+02  0.51100000000E-03 0. -1.
    9900012    2    1    2    0    0  0.22574664259E+02  0.17843999460E+02  0.13736698999E+02  0.59301942192E+02  0.49999996652E+02 0.  0.
         12    1    1    2    0    0 -0.22574664259E+02 -0.17843999460E+02 -0.13736698999E+02  0.31886057808E+02  0.00000000000E+00 0. -1.
         11    1    3    3    0    0 -0.94351798490E+01  0.75126836086E+01  0.25696011839E+01  0.12331499677E+02  0.51100000000E-03 0. -1.
        -11    1    3    3    0    0  0.56634818331E+01 -0.57110765739E+01 -0.74317587074E+01  0.10950911371E+02  0.51100000000E-03 0.  1.
        -12    1    3    3    0    0  0.26346362275E+02  0.16042392426E+02  0.18598856523E+02  0.36019531144E+02  0.00000000000E+00 0.  1.
</event>
<event>
 7    1  0.6061051E-012  0.5930175E+02  0.7816164E-02  0.1266605E+00
        -11   -1    0    0    0    0  0.00000000000E+00  0.00000000000E+00  0.45593999997E+02  0.45594000000E+02  0.51100000000E-03 0. -1.
         11   -1    0    0    0    0 -0.00000000000E+00 -0.00000000000E+00 -0.45593999997E+02  0.45594000000E+02  0.51100000000E-03 0.  1.
    9900012    2    1    2    0    0 -0.25747415075E+02 -0.18809437908E+02 -0.91024411505E-01  0.59301754958E+02  0.49999655181E+02 0.  0.
         12    1    1    2    0    0  0.25747415075E+02  0.18809437908E+02  0.91024411505E-01  0.31886245042E+02  0.00000000000E+00 0. -1.
         11    1    3    3    0    0 -0.54160280856E+00 -0.98867213109E+01  0.32156586894E+01  0.10410622121E+02  0.51100000000E-03 0. -1.
        -11    1    3    3    0    0 -0.33830019030E+01 -0.80110322604E+01 -0.19731477075E+02  0.21562757884E+02  0.51100000000E-03 0.  1.
         12    1    3    3    0    0 -0.21822810363E+02 -0.91168433651E+00  0.16424793974E+02  0.27328374953E+02  0.00000000000E+00 0. -1.
</event>
<event>
 7    1  0.6061051E-012  0.5930196E+02  0.7816164E-02  0.1266605E+00
        -11   -1    0    0    0    0  0.00000000000E+00  0.00000000000E+00  0.45593999997E+02  0.45594000000E+02  0.51100000000E-03 0.  1.
         11   -1    0    0    0    0 -0.00000000000E+00 -0.00000000000E+00 -0.45593999997E+02  0.45594000000E+02  0.51100000000E-03 0. -1.
    9900012    2    1    2    0    0  0.26799300610E+02 -0.16528267001E+02 -0.50332468886E+01  0.59301957638E+02  0.50000024822E+02 0.  0.
         12    1    1    2    0    0 -0.26799300610E+02  0.16528267001E+02  0.50332468886E+01  0.31886042362E+02  0.00000000000E+00 0. -1.
         11    1    3    3    0    0 -0.15372112224E+01 -0.53729360265E+01 -0.56262356775E+01  0.79300686030E+01  0.51100000000E-03 0. -1.
        -11    1    3    3    0    0  0.12166232538E+02 -0.25083934747E+02 -0.69571924520E+01  0.28733665336E+02  0.51100000000E-03 0.  1.
        -12    1    3    3    0    0  0.16170279294E+02  0.13928603772E+02  0.75501812410E+01  0.22638223699E+02  0.00000000000E+00 0.  1.
</event>
<event>
 7    1  0.6061051E-012  0.5930195E+02  0.7816164E-02  0.1266605E+00
        -11   -1    0    0    0    0  0.00000000000E+00  0.00000000000E+00  0.45593999997E+02  0.45594000000E+02  0.51100000000E-03 0.  1.
         11   -1    0    0    0    0 -0.00000000000E+00 -0.00000000000E+00 -0.45593999997E+02  0.45594000000E+02  0.51100000000E-03 0. -1.
    9900012    2    1    2    0    0 -0.16208573776E+02  0.45962264393E+01  0.27071704217E+02  0.59301947712E+02  0.50000006719E+02 0.  0.
         12    1    1    2    0    0  0.16208573776E+02 -0.45962264393E+01 -0.27071704217E+02  0.31886052288E+02  0.00000000000E+00 0. -1.
         11    1    3    3    0    0 -0.60805671049E+00  0.28314934575E+01  0.78023485522E+01  0.83224834847E+01  0.51100000000E-03 0. -1.
        -11    1    3    3    0    0 -0.22225213934E+02 -0.62707015010E+01  0.28763876368E+02  0.36886886772E+02  0.51100000000E-03 0.  1.
         12    1    3    3    0    0  0.66246968691E+01  0.80354344828E+01 -0.94945207035E+01  0.14092577455E+02  0.00000000000E+00 0. -1.
</event>
<event>
 7    1  0.6061051E-012  0.5930194E+02  0.7816164E-02  0.1266605E+00
        -11   -1    0    0    0    0  0.00000000000E+00  0.00000000000E+00  0.45593999997E+02  0.45594000000E+02  0.51100000000E-03 0. -1.
         11   -1    0    0    0    0 -0.00000000000E+00 -0.00000000000E+00 -0.45593999997E+02  0.45594000000E+02  0.51100000000E-03 0.  1.
    9900012    2    1    2    0    0  0.34016528572E+01  0.31503781340E+02  0.35582808429E+01  0.59301939669E+02  0.49999992050E+02 0.  0.
         12    1    1    2    0    0 -0.34016528572E+01 -0.31503781340E+02 -0.35582808429E+01  0.31886060331E+02  0.00000000000E+00 0. -1.
         11    1    3    3    0    0  0.16877976106E+02  0.67900328564E+01 -0.25359296817E+01  0.18368493766E+02  0.51100000000E-03 0. -1.
        -11    1    3    3    0    0 -0.91778378988E+01  0.19477038478E+02 -0.97993160986E+01  0.23656169018E+02  0.51100000000E-03 0.  1.
         12    1    3    3    0    0 -0.42984853503E+01  0.52367100060E+01  0.15893526623E+02  0.17277276884E+02  0.00000000000E+00 0. -1.
</event>
<event>
 7    1  0.6061051E-012  0.5930197E+02  0.7816164E-02  0.1266605E+00
        -11   -1    0    0    0    0  0.00000000000E+00  0.00000000000E+00  0.45593999997E+02  0.45594000000E+02  0.51100000000E-03 0.  1.
         11   -1    0    0    0    0 -0.00000000000E+00 -0.00000000000E+00 -0.45593999997E+02  0.45594000000E+02  0.51100000000E-03 0. -1.
    9900012    2    1    2    0    0  0.19053230804E+02 -0.21646541268E+02  0.13605912940E+02  0.59301965128E+02  0.50000038482E+02 0.  0.
         12    1    1    2    0    0 -0.19053230804E+02  0.21646541268E+02 -0.13605912940E+02  0.31886034872E+02  0.00000000000E+00 0. -1.
         11    1    3    3    0    0  0.14258491399E+02 -0.19158076919E+02 -0.14157987649E+02  0.27763016816E+02  0.51100000000E-03 0. -1.
        -11    1    3    3    0    0  0.64045062565E+01 -0.73201126679E+01  0.20209491187E+02  0.22428225167E+02  0.51100000000E-03 0.  1.
        -12    1    3    3    0    0 -0.16097668515E+01  0.48316483192E+01  0.75544094026E+01  0.91107231447E+01  0.00000000000E+00 0.  1.
</event>
<event>
 7    1  0.6061051E-012  0.5930195E+02  0.7816164E-02  0.1266605E+00
        -11   -1    0    0    0    0  0.00000000000E+00  0.00000000000E+00  0.45593999997E+02  0.45594000000E+02  0.51100000000E-03 0.  1.
         11   -1    0    0    0    0 -0.00000000000E+00 -0.00000000000E+00 -0.45593999997E+02  0.45594000000E+02  0.51100000000E-03 0. -1.
    9900012    2    1    2    0    0  0.12681309853E+02 -0.16769972401E+02  0.23972334286E+02  0.59301946543E+02  0.50000004588E+02 0.  0.
         12    1    1    2    0    0 -0.12681309853E+02  0.16769972401E+02 -0.23972334286E+02  0.31886053457E+02  0.00000000000E+00 0. -1.
         11    1    3    3    0    0  0.97646914717E+01 -0.13039377312E+02 -0.30148099381E+01  0.16566944180E+02  0.51100000000E-03 0. -1.
        -11    1    3    3    0    0  0.13361463012E+02 -0.33128766342E+01  0.28989297818E+02  0.32091793868E+02  0.51100000000E-03 0.  1.
         12    1    3    3    0    0 -0.10444844631E+02 -0.41771845473E+00 -0.20021535937E+01  0.10643208496E+02  0.00000000000E+00 0. -1.
</event>
<event>
 7    1  0.6061051E-012  0.5930191E+02  0.7816164E-02  0.1266605E+00
        -11   -1    0    0    0    0  0.00000000000E+00  0.00000000000E+00  0.45593999997E+02  0.45594000000E+02  0.51100000000E-03 0. -1.
         11   -1    0    0    0    0 -0.00000000000E+00 -0.00000000000E+00 -0.45593999997E+02  0.45594000000E+02  0.51100000000E-03 0.  1.
    9900012    2    1    2    0    0 -0.30428587601E+02  0.67996823372E+01 -0.66774534086E+01  0.59301905738E+02  0.49999930168E+02 0.  0.
         12    1    1    2    0    0  0.30428587601E+02 -0.67996823372E+01  0.66774534086E+01  0.31886094262E+02  0.00000000000E+00 0. -1.
         11    1    3    3    0    0 -0.33578326495E+02  0.49777910635E+01 -0.22043232378E+02  0.40474516773E+02  0.51100000000E-03 0. -1.
        -11    1    3    3    0    0 -0.10042745376E+01 -0.21093317439E+01 -0.99628171689E-01  0.23383271342E+01  0.51100000000E-03 0.  1.
         12    1    3    3    0    0  0.41540134321E+01  0.39312230177E+01  0.15465407141E+02  0.16489061830E+02  0.00000000000E+00 0. -1.
</event>
<event>
 7    1  0.6061051E-012  0.5930195E+02  0.7816164E-02  0.1266605E+00
        -11   -1    0    0    0    0  0.00000000000E+00  0.00000000000E+00  0.45593999997E+02  0.45594000000E+02  0.51100000000E-03 0. -1.
         11   -1    0    0    0    0 -0.00000000000E+00 -0.00000000000E+00 -0.45593999997E+02  0.45594000000E+02  0.51100000000E-03 0.  1.
    9900012    2    1    2    0    0  0.51967654405E+01 -0.25357338261E+02  0.18620403655E+02  0.59301946513E+02  0.50000004532E+02 0.  0.
         12    1    1    2    0    0 -0.51967654405E+01  0.25357338261E+02 -0.18620403655E+02  0.31886053487E+02  0.00000000000E+00 0. -1.
         11    1    3    3    0    0  0.54628895391E+01 -0.13260605310E+02 -0.44786718831E+00  0.14348776972E+02  0.51100000000E-03 0. -1.
        -11    1    3    3    0    0  0.19179932946E+02 -0.38711832460E+01  0.83436509883E+01  0.21271398628E+02  0.51100000000E-03 0.  1.
         12    1    3    3    0    0 -0.19446057044E+02 -0.82255497047E+01  0.10724619855E+02  0.23681770912E+02  0.00000000000E+00 0. -1.
</event>
<event>
 7    1  0.6061051E-012  0.5930205E+02  0.7816164E-02  0.1266604E+00
        -11   -1    0    0    0    0  0.00000000000E+00  0.00000000000E+00  0.45593999997E+02  0.45594000000E+02  0.51100000000E-03 0. -1.
         11   -1    0    0    0    0 -0.00000000000E+00 -0.00000000000E+00 -0.45593999997E+02  0.45594000000E+02  0.51100000000E-03 0.  1.
    9900012    2    1    2    0    0 -0.38489312446E+01  0.22324513860E+02 -0.22439151144E+02  0.59302051765E+02  0.50000196486E+02 0.  0.
         12    1    1    2    0    0  0.38489312446E+01 -0.22324513860E+02  0.22439151144E+02  0.31885948235E+02  0.00000000000E+00 0. -1.
         11    1    3    3    0    0  0.94703330267E+01  0.23396045360E+02 -0.15361488300E+02  0.29547207468E+02  0.51100000000E-03 0. -1.
        -11    1    3    3    0    0  0.68225952205E+01 -0.37507272428E+01 -0.51708433305E+01  0.93463030874E+01  0.51100000000E-03 0.  1.
         12    1    3    3    0    0 -0.20141859492E+02  0.26791957432E+01 -0.19068195127E+01  0.20408541209E+02  0.00000000000E+00 0. -1.
</event>
<event>
 7    1  0.6061051E-012  0.5930195E+02  0.7816164E-02  0.1266605E+00
        -11   -1    0    0    0    0  0.00000000000E+00  0.00000000000E+00  0.45593999997E+02  0.45594000000E+02  0.51100000000E-03 0. -1.
         11   -1    0    0    0    0 -0.00000000000E+00 -0.00000000000E+00 -0.45593999997E+02  0.45594000000E+02  0.51100000000E-03 0.  1.
    9900012    2    1    2    0    0  0.23504081067E+02 -0.11535653143E+02  0.18199100721E+02  0.59301946822E+02  0.50000005096E+02 0.  0.
         12    1    1    2    0    0 -0.23504081067E+02  0.11535653143E+02 -0.18199100721E+02  0.31886053178E+02  0.00000000000E+00 0. -1.
         11    1    3    3    0    0  0.36762457627E+01  0.14274979669E+02  0.20218715615E+01  0.14878769852E+02  0.51100000000E-03 0. -1.
        -11    1    3    3    0    0 -0.49972542642E+01 -0.11189738651E+02  0.23995652264E+01  0.12487622464E+02  0.51100000000E-03 0.  1.
        -12    1    3    3    0    0  0.24825089568E+02 -0.14620894160E+02  0.13777663933E+02  0.31935554505E+02  0.00000000000E+00 0.  1.
</event>
<event>
 7    1  0.6061051E-012  0.5930188E+02  0.7816164E-02  0.1266605E+00
        -11   -1    0    0    0    0  0.00000000000E+00  0.00000000000E+00  0.45593999997E+02  0.45594000000E+02  0.51100000000E-03 0.  1.
         11   -1    0    0    0    0 -0.00000000000E+00 -0.00000000000E+00 -0.45593999997E+02  0.45594000000E+02  0.51100000000E-03 0. -1.
    9900012    2    1    2    0    0 -0.23265641172E+02  0.10627693454E+02  0.19039080378E+02  0.59301882191E+02  0.49999887224E+02 0.  0.
         12    1    1    2    0    0  0.23265641172E+02 -0.10627693454E+02 -0.19039080378E+02  0.31886117809E+02  0.00000000000E+00 0. -1.
         11    1    3    3    0    0 -0.52386653883E+01 -0.63192690829E+00 -0.85227649972E+01  0.10023994719E+02  0.51100000000E-03 0.  1.
        -11    1    3    3    0    0 -0.11287450637E+02 -0.12010145932E+02  0.91670802032E+01  0.18859626372E+02  0.51100000000E-03 0. -1.
        -12    1    3    3    0    0 -0.67395251467E+01  0.23269766294E+02  0.18394765172E+02  0.30418261100E+02  0.00000000000E+00 0.  1.
</event>
<event>
 7    1  0.6061051E-012  0.5930193E+02  0.7816164E-02  0.1266605E+00
        -11   -1    0    0    0    0  0.00000000000E+00  0.00000000000E+00  0.45593999997E+02  0.45594000000E+02  0.51100000000E-03 0.  1.
         11   -1    0    0    0    0 -0.00000000000E+00 -0.00000000000E+00 -0.45593999997E+02  0.45594000000E+02  0.51100000000E-03 0. -1.
    9900012    2    1    2    0    0 -0.79881550786E+01 -0.25006439228E+02  0.18099412904E+02  0.59301931382E+02  0.49999976937E+02 0.  0.
         12    1    1    2    0    0  0.79881550786E+01  0.25006439228E+02 -0.18099412904E+02  0.31886068618E+02  0.00000000000E+00 0. -1.
         11    1    3    3    0    0 -0.11601969562E+02  0.55878658449E+01 -0.41742448403E+01  0.13537143815E+02  0.51100000000E-03 0. -1.
        -11    1    3    3    0    0 -0.26838173848E+01  0.15893641187E+01  0.10448087165E+02  0.10903736961E+02  0.51100000000E-03 0.  1.
        -12    1    3    3    0    0  0.62976318677E+01 -0.32183669192E+02  0.11825570580E+02  0.34861050606E+02  0.00000000000E+00 0.  1.
</event>
<event>
 7    1  0.6061051E-012  0.5930192E+02  0.7816164E-02  0.1266605E+00
        -11   -1    0    0    0    0  0.00000000000E+00  0.00000000000E+00  0.45593999997E+02  0.45594000000E+02  0.51100000000E-03 0.  1.
         11   -1    0    0    0    0 -0.00000000000E+00 -0.00000000000E+00 -0.45593999997E+02  0.45594000000E+02  0.51100000000E-03 0. -1.
    9900012    2    1    2    0    0  0.29122796262E+02 -0.20052481899E+01  0.12828233141E+02  0.59301923917E+02  0.49999963324E+02 0.  0.
         12    1    1    2    0    0 -0.29122796262E+02  0.20052481899E+01 -0.12828233141E+02  0.31886076083E+02  0.00000000000E+00 0. -1.
         11    1    3    3    0    0 -0.77929029931E+01 -0.89763987500E+01 -0.59201366623E+01  0.13279800072E+02  0.51100000000E-03 0. -1.
        -11    1    3    3    0    0  0.19586868398E+02 -0.57197797878E+01  0.72183585166E+01  0.21644075272E+02  0.51100000000E-03 0.  1.
        -12    1    3    3    0    0  0.17328830857E+02  0.12690930348E+02  0.11530011287E+02  0.24378048573E+02  0.00000000000E+00 0.  1.
</event>
<event>
 7    1  0.6061051E-012  0.5930195E+02  0.7816164E-02  0.1266605E+00
        -11   -1    0    0    0    0  0.00000000000E+00  0.00000000000E+00  0.45593999997E+02  0.45594000000E+02  0.51100000000E-03 0.  1.
         11   -1    0    0    0    0 -0.00000000000E+00 -0.00000000000E+00 -0.45593999997E+02  0.45594000000E+02  0.51100000000E-03 0. -1.
    9900012    2    1    2    0    0 -0.31387791706E+02 -0.22349164590E+01 -0.51509102199E+01  0.59301949823E+02  0.50000010570E+02 0.  0.
         12    1    1    2    0    0  0.31387791706E+02  0.22349164590E+01  0.51509102199E+01  0.31886050177E+02  0.00000000000E+00 0. -1.
         11    1    3    3    0    0 -0.19755191091E+02  0.36116194360E+01 -0.68505388347E+01  0.21218889052E+02  0.51100000000E-03 0. -1.
        -11    1    3    3    0    0 -0.16770226434E+02 -0.14805374676E+02 -0.81527634029E+01  0.23809812374E+02  0.51100000000E-03 0.  1.
         12    1    3    3    0    0  0.51376258187E+01  0.89588387806E+01  0.98523920177E+01  0.14273248398E+02  0.00000000000E+00 0. -1.
</event>
<event>
 7    1  0.6061051E-012  0.5930195E+02  0.7816164E-02  0.1266605E+00
        -11   -1    0    0    0    0  0.00000000000E+00  0.00000000000E+00  0.45593999997E+02  0.45594000000E+02  0.51100000000E-03 0. -1.
         11   -1    0    0    0    0 -0.00000000000E+00 -0.00000000000E+00 -0.45593999997E+02  0.45594000000E+02  0.51100000000E-03 0.  1.
    9900012    2    1    2    0    0 -0.25306059081E+02 -0.19136873633E+02  0.31786315565E+01  0.59301948861E+02  0.50000008815E+02 0.  0.
         12    1    1    2    0    0  0.25306059081E+02  0.19136873633E+02 -0.31786315565E+01  0.31886051139E+02  0.00000000000E+00 0. -1.
         11    1    3    3    0    0 -0.39492470282E+01  0.44733685711E+01 -0.59014761474E+01  0.83925561924E+01  0.51100000000E-03 0.  1.
        -11    1    3    3    0    0 -0.18938990468E+02 -0.32982777025E+02  0.59615592706E+00  0.38038195835E+02  0.51100000000E-03 0. -1.
         12    1    3    3    0    0 -0.24178215845E+01  0.93725348209E+01  0.84839517769E+01  0.12871196834E+02  0.00000000000E+00 0. -1.
</event>
<event>
 7    1  0.6061051E-012  0.5930193E+02  0.7816164E-02  0.1266605E+00
        -11   -1    0    0    0    0  0.00000000000E+00  0.00000000000E+00  0.45593999997E+02  0.45594000000E+02  0.51100000000E-03 0.  1.
         11   -1    0    0    0    0 -0.00000000000E+00 -0.00000000000E+00 -0.45593999997E+02  0.45594000000E+02  0.51100000000E-03 0. -1.
    9900012    2    1    2    0    0 -0.26633811188E+02  0.88024103286E+01  0.15161762947E+02  0.59301931230E+02  0.49999976660E+02 0.  0.
         12    1    1    2    0    0  0.26633811188E+02 -0.88024103286E+01 -0.15161762947E+02  0.31886068770E+02  0.00000000000E+00 0. -1.
         11    1    3    3    0    0  0.20965992248E+00 -0.10414143496E+02 -0.62499999828E+01  0.12147462372E+02  0.51100000000E-03 0. -1.
        -11    1    3    3    0    0 -0.16822516980E+02  0.14018637050E+01 -0.88839060908E+00  0.16904186982E+02  0.51100000000E-03 0.  1.
         12    1    3    3    0    0 -0.10020954130E+02  0.17814690119E+02  0.22300153539E+02  0.30250281876E+02  0.00000000000E+00 0. -1.
</event>
<event>
 7    1  0.6061051E-012  0.5930201E+02  0.7816164E-02  0.1266605E+00
        -11   -1    0    0    0    0  0.00000000000E+00  0.00000000000E+00  0.45593999997E+02  0.45594000000E+02  0.51100000000E-03 0.  1.
         11   -1    0    0    0    0 -0.00000000000E+00 -0.00000000000E+00 -0.45593999997E+02  0.45594000000E+02  0.51100000000E-03 0. -1.
    9900012    2    1    2    0    0  0.27474347739E-01 -0.30593614131E+02 -0.89858825807E+01  0.59302014580E+02  0.50000128670E+02 0.  0.
         12    1    1    2    0    0 -0.27474347739E-01  0.30593614131E+02  0.89858825807E+01  0.31885985420E+02  0.00000000000E+00 0. -1.
         11    1    3    3    0    0  0.11569436294E+02 -0.51018808497E+01  0.12966497583E+02  0.18111076837E+02  0.51100000000E-03 0. -1.
        -11    1    3    3    0    0 -0.53421098007E+01  0.26096032406E+01 -0.51621306540E+01  0.78737385877E+01  0.51100000000E-03 0.  1.
        -12    1    3    3    0    0 -0.61998521450E+01 -0.28101336522E+02 -0.16790249510E+02  0.33317199155E+02  0.00000000000E+00 0.  1.
</event>
<event>
 7    1  0.6061051E-012  0.5930201E+02  0.7816164E-02  0.1266605E+00
        -11   -1    0    0    0    0  0.00000000000E+00  0.00000000000E+00  0.45593999997E+02  0.45594000000E+02  0.51100000000E-03 0.  1.
         11   -1    0    0    0    0 -0.00000000000E+00 -0.00000000000E+00 -0.45593999997E+02  0.45594000000E+02  0.51100000000E-03 0. -1.
    9900012    2    1    2    0    0 -0.13788869597E+02 -0.23605221293E+02 -0.16412708748E+02  0.59302009260E+02  0.50000118968E+02 0.  0.
         12    1    1    2    0    0  0.13788869597E+02  0.23605221293E+02  0.16412708748E+02  0.31885990740E+02  0.00000000000E+00 0. -1.
         11    1    3    3    0    0  0.18539453584E+01  0.40830019095E+01  0.25272746056E+01  0.51473425355E+01  0.51100000000E-03 0. -1.
        -11    1    3    3    0    0 -0.15931324095E+02 -0.19392362845E+01  0.70850479104E+01  0.17543250239E+02  0.51100000000E-03 0.  1.
         12    1    3    3    0    0  0.28850914006E+00 -0.25748986918E+02 -0.26025031264E+02  0.36611416486E+02  0.00000000000E+00 0. -1.
</event>
<event>
 7    1  0.6061051E-012  0.5930194E+02  0.7816164E-02  0.1266605E+00
        -11   -1    0    0    0    0  0.00000000000E+00  0.00000000000E+00  0.45593999997E+02  0.45594000000E+02  0.51100000000E-03 0.  1.
         11   -1    0    0    0    0 -0.00000000000E+00 -0.00000000000E+00 -0.45593999997E+02  0.45594000000E+02  0.51100000000E-03 0. -1.
    9900012    2    1    2    0    0 -0.21448190611E+02 -0.50609962787E+00  0.23588971617E+02  0.59301943498E+02  0.49999999034E+02 0.  0.
         12    1    1    2    0    0  0.21448190611E+02  0.50609962787E+00 -0.23588971617E+02  0.31886056502E+02  0.00000000000E+00 0. -1.
         11    1    3    3    0    0 -0.43113049445E+01  0.14581824979E+01 -0.11298546108E+01  0.46893729031E+01  0.51100000000E-03 0. -1.
        -11    1    3    3    0    0 -0.21923806074E+02  0.17322351337E+02  0.19480868103E+02  0.34062022120E+02  0.51100000000E-03 0.  1.
         12    1    3    3    0    0  0.47869204081E+01 -0.19286633462E+02  0.52379581246E+01  0.20550548475E+02  0.00000000000E+00 0. -1.
</event>
<event>
 7    1  0.6061051E-012  0.5930197E+02  0.7816164E-02  0.1266605E+00
        -11   -1    0    0    0    0  0.00000000000E+00  0.00000000000E+00  0.45593999997E+02  0.45594000000E+02  0.51100000000E-03 0.  1.
         11   -1    0    0    0    0 -0.00000000000E+00 -0.00000000000E+00 -0.45593999997E+02  0.45594000000E+02  0.51100000000E-03 0. -1.
    9900012    2    1    2    0    0  0.30412823622E+02  0.23154361686E+01 -0.92961285447E+01  0.59301967145E+02  0.50000042161E+02 0.  0.
         12    1    1    2    0    0 -0.30412823622E+02 -0.23154361686E+01  0.92961285447E+01  0.31886032855E+02  0.00000000000E+00 0. -1.
         11    1    3    3    0    0  0.26320948239E+00  0.71678963466E+01 -0.30741873697E+01  0.78037584222E+01  0.51100000000E-03 0. -1.
        -11    1    3    3    0    0  0.11916063396E+02  0.14799223539E+02  0.86110780536E+01  0.20860494953E+02  0.51100000000E-03 0.  1.
         12    1    3    3    0    0  0.18233550744E+02 -0.19651683716E+02 -0.14833019229E+02  0.30637713770E+02  0.00000000000E+00 0. -1.
</event>
<event>
 7    1  0.6061051E-012  0.5930195E+02  0.7816164E-02  0.1266605E+00
        -11   -1    0    0    0    0  0.00000000000E+00  0.00000000000E+00  0.45593999997E+02  0.45594000000E+02  0.51100000000E-03 0.  1.
         11   -1    0    0    0    0 -0.00000000000E+00 -0.00000000000E+00 -0.45593999997E+02  0.45594000000E+02  0.51100000000E-03 0. -1.
    9900012    2    1    2    0    0  0.27945540604E+02 -0.11783497596E+02 -0.98445946327E+01  0.59301951347E+02  0.50000013349E+02 0.  0.
         12    1    1    2    0    0 -0.27945540604E+02  0.11783497596E+02  0.98445946327E+01  0.31886048653E+02  0.00000000000E+00 0. -1.
         11    1    3    3    0    0  0.64492982551E+01 -0.60848761341E+01 -0.26257888223E+02  0.27714542387E+02  0.51100000000E-03 0. -1.
        -11    1    3    3    0    0 -0.78530947757E+00 -0.43092298641E+01  0.11025961742E+01  0.45168453130E+01  0.51100000000E-03 0.  1.
        -12    1    3    3    0    0  0.22281551826E+02 -0.13893915980E+01  0.15310697416E+02  0.27070563647E+02  0.00000000000E+00 0.  1.
</event>
<event>
 7    1  0.6061051E-012  0.5930194E+02  0.7816164E-02  0.1266605E+00
        -11   -1    0    0    0    0  0.00000000000E+00  0.00000000000E+00  0.45593999997E+02  0.45594000000E+02  0.51100000000E-03 0.  1.
         11   -1    0    0    0    0 -0.00000000000E+00 -0.00000000000E+00 -0.45593999997E+02  0.45594000000E+02  0.51100000000E-03 0. -1.
    9900012    2    1    2    0    0  0.61197361580E+01 -0.31196890783E+01  0.31137388331E+02  0.59301943758E+02  0.49999999508E+02 0.  0.
         12    1    1    2    0    0 -0.61197361580E+01  0.31196890783E+01 -0.31137388331E+02  0.31886056242E+02  0.00000000000E+00 0. -1.
         11    1    3    3    0    0  0.10208422467E+02 -0.54321749484E+01 -0.36765089470E+01  0.12134130881E+02  0.51100000000E-03 0. -1.
        -11    1    3    3    0    0  0.95458179976E+01 -0.97315891065E+01  0.14805746352E+02  0.20125520939E+02  0.51100000000E-03 0.  1.
        -12    1    3    3    0    0 -0.13634504307E+02  0.12044074977E+02  0.20008150926E+02  0.27042291937E+02  0.00000000000E+00 0.  1.
</event>
<event>
 7    1  0.6061051E-012  0.5930181E+02  0.7816164E-02  0.1266605E+00
        -11   -1    0    0    0    0  0.00000000000E+00  0.00000000000E+00  0.45593999997E+02  0.45594000000E+02  0.51100000000E-03 0.  1.
         11   -1    0    0    0    0 -0.00000000000E+00 -0.00000000000E+00 -0.45593999997E+02  0.45594000000E+02  0.51100000000E-03 0. -1.
    9900012    2    1    2    0    0  0.72246969424E+01 -0.17100216812E+02  0.25925192661E+02  0.59301807448E+02  0.49999750911E+02 0.  0.
         12    1    1    2    0    0 -0.72246969424E+01  0.17100216812E+02 -0.25925192661E+02  0.31886192552E+02  0.00000000000E+00 0. -1.
         11    1    3    3    0    0  0.12511859218E+02  0.78726944583E+01  0.38830252326E+01  0.15284103649E+02  0.51100000000E-03 0. -1.
        -11    1    3    3    0    0  0.38297237107E+00  0.30595362764E+01  0.13961476050E+02  0.14297910471E+02  0.51100000000E-03 0.  1.
         12    1    3    3    0    0 -0.56701346466E+01 -0.28032447547E+02  0.80806913779E+01  0.29719793329E+02  0.00000000000E+00 0. -1.
</event>
<event>
 7    1  0.6061051E-012  0.5930190E+02  0.7816164E-02  0.1266605E+00
        -11   -1    0    0    0    0  0.00000000000E+00  0.00000000000E+00  0.45593999997E+02  0.45594000000E+02  0.51100000000E-03 0.  1.
         11   -1    0    0    0    0 -0.00000000000E+00 -0.00000000000E+00 -0.45593999997E+02  0.45594000000E+02  0.51100000000E-03 0. -1.
    9900012    2    1    2    0    0 -0.15221553903E+02  0.18393020053E+02  0.21135862854E+02  0.59301896625E+02  0.49999913548E+02 0.  0.
         12    1    1    2    0    0  0.15221553903E+02 -0.18393020053E+02 -0.21135862854E+02  0.31886103375E+02  0.00000000000E+00 0. -1.
         11    1    3    3    0    0  0.14778324392E+02  0.12995623685E+02  0.79523417693E+01  0.21225570586E+02  0.51100000000E-03 0. -1.
        -11    1    3    3    0    0 -0.98514005698E+01  0.27564572504E+01  0.14463132183E+02  0.17715257338E+02  0.51100000000E-03 0.  1.
        -12    1    3    3    0    0 -0.20148477725E+02  0.26409391174E+01 -0.12796110983E+01  0.20361068701E+02  0.00000000000E+00 0.  1.
</event>
<event>
 7    1  0.6061051E-012  0.5930194E+02  0.7816164E-02  0.1266605E+00
        -11   -1    0    0    0    0  0.00000000000E+00  0.00000000000E+00  0.45593999997E+02  0.45594000000E+02  0.51100000000E-03 0.  1.
         11   -1    0    0    0    0 -0.00000000000E+00 -0.00000000000E+00 -0.45593999997E+02  0.45594000000E+02  0.51100000000E-03 0. -1.
    9900012    2    1    2    0    0 -0.24713810854E+02  0.98292448160E+01  0.17587899022E+02  0.59301942034E+02  0.49999996364E+02 0.  0.
         12    1    1    2    0    0  0.24713810854E+02 -0.98292448160E+01 -0.17587899022E+02  0.31886057966E+02  0.00000000000E+00 0. -1.
         11    1    3    3    0    0 -0.62215013106E+01  0.10481962365E+01  0.71875315136E+01  0.95638069527E+01  0.51100000000E-03 0. -1.
        -11    1    3    3    0    0 -0.14756447156E+02  0.22525113060E+02  0.19131194110E+02  0.33032348378E+02  0.51100000000E-03 0.  1.
         12    1    3    3    0    0 -0.37358623870E+01 -0.13744064481E+02 -0.87308266014E+01  0.16705786703E+02  0.00000000000E+00 0. -1.
</event>
<event>
 7    1  0.6061051E-012  0.5930190E+02  0.7816164E-02  0.1266605E+00
        -11   -1    0    0    0    0  0.00000000000E+00  0.00000000000E+00  0.45593999997E+02  0.45594000000E+02  0.51100000000E-03 0.  1.
         11   -1    0    0    0    0 -0.00000000000E+00 -0.00000000000E+00 -0.45593999997E+02  0.45594000000E+02  0.51100000000E-03 0. -1.
    9900012    2    1    2    0    0 -0.21904213711E+02 -0.44473381325E+01  0.22740935168E+02  0.59301897588E+02  0.49999915304E+02 0.  0.
         12    1    1    2    0    0  0.21904213711E+02  0.44473381325E+01 -0.22740935168E+02  0.31886102412E+02  0.00000000000E+00 0. -1.
         11    1    3    3    0    0 -0.40336553409E+01  0.11943399334E+02  0.34740545182E+01  0.13076093381E+02  0.51100000000E-03 0. -1.
        -11    1    3    3    0    0  0.80826331418E+01 -0.39010986861E+01  0.14469606358E+02  0.17026950340E+02  0.51100000000E-03 0.  1.
        -12    1    3    3    0    0 -0.25953191512E+02 -0.12489638780E+02  0.47972742920E+01  0.29198853867E+02  0.00000000000E+00 0.  1.
</event>
<event>
 7    1  0.6061051E-012  0.5930196E+02  0.7816164E-02  0.1266605E+00
        -11   -1    0    0    0    0  0.00000000000E+00  0.00000000000E+00  0.45593999997E+02  0.45594000000E+02  0.51100000000E-03 0. -1.
         11   -1    0    0    0    0 -0.00000000000E+00 -0.00000000000E+00 -0.45593999997E+02  0.45594000000E+02  0.51100000000E-03 0.  1.
    9900012    2    1    2    0    0 -0.10908460559E+02 -0.29123213660E+02 -0.70401517117E+01  0.59301955689E+02  0.50000021268E+02 0.  0.
         12    1    1    2    0    0  0.10908460559E+02  0.29123213660E+02  0.70401517117E+01  0.31886044311E+02  0.00000000000E+00 0. -1.
         11    1    3    3    0    0 -0.19285562313E+00  0.72651809724E+01  0.22579175112E+01  0.76104033797E+01  0.51100000000E-03 0. -1.
        -11    1    3    3    0    0 -0.98194702629E+01 -0.29711024304E+02  0.86960717184E+01  0.32477509526E+02  0.51100000000E-03 0.  1.
         12    1    3    3    0    0 -0.89613467315E+00 -0.66773703286E+01 -0.17994140941E+02  0.19214042783E+02  0.00000000000E+00 0. -1.
</event>
<event>
 7    1  0.6061051E-012  0.5930196E+02  0.7816164E-02  0.1266605E+00
        -11   -1    0    0    0    0  0.00000000000E+00  0.00000000000E+00  0.45593999997E+02  0.45594000000E+02  0.51100000000E-03 0.  1.
         11   -1    0    0    0    0 -0.00000000000E+00 -0.00000000000E+00 -0.45593999997E+02  0.45594000000E+02  0.51100000000E-03 0. -1.
    9900012    2    1    2    0    0  0.28683319613E+02 -0.13768348942E+02  0.21022621951E+01  0.59301956612E+02  0.50000022951E+02 0.  0.
         12    1    1    2    0    0 -0.28683319613E+02  0.13768348942E+02 -0.21022621951E+01  0.31886043388E+02  0.00000000000E+00 0. -1.
         11    1    3    3    0    0  0.24053019016E+02  0.85151701730E+01 -0.81541211662E+01  0.26787040506E+02  0.51100000000E-03 0. -1.
        -11    1    3    3    0    0  0.12741136890E+02 -0.14792630738E+02  0.43835516184E+01  0.20009348276E+02  0.51100000000E-03 0.  1.
        -12    1    3    3    0    0 -0.81108362927E+01 -0.74908883775E+01  0.58728317429E+01  0.12505567829E+02  0.00000000000E+00 0.  1.
</event>
<event>
 7    1  0.6061051E-012  0.5930190E+02  0.7816164E-02  0.1266605E+00
        -11   -1    0    0    0    0  0.00000000000E+00  0.00000000000E+00  0.45593999997E+02  0.45594000000E+02  0.51100000000E-03 0.  1.
         11   -1    0    0    0    0 -0.00000000000E+00 -0.00000000000E+00 -0.45593999997E+02  0.45594000000E+02  0.51100000000E-03 0. -1.
    9900012    2    1    2    0    0  0.13893182263E+02 -0.28688814876E+02  0.80914304101E+00  0.59301900759E+02  0.49999921087E+02 0.  0.
         12    1    1    2    0    0 -0.13893182263E+02  0.28688814876E+02 -0.80914304101E+00  0.31886099241E+02  0.00000000000E+00 0. -1.
         11    1    3    3    0    0  0.15700018938E+02 -0.10075652789E+02  0.14912297024E+02  0.23882754794E+02  0.51100000000E-03 0. -1.
        -11    1    3    3    0    0  0.10367638493E+02 -0.10846042057E+02 -0.14646641679E+02  0.20967800766E+02  0.51100000000E-03 0.  1.
         12    1    3    3    0    0 -0.12174475168E+02 -0.77671200297E+01  0.54348769614E+00  0.14451345198E+02  0.00000000000E+00 0. -1.
</event>
<event>
 7    1  0.6061051E-012  0.5930192E+02  0.7816164E-02  0.1266605E+00
        -11   -1    0    0    0    0  0.00000000000E+00  0.00000000000E+00  0.45593999997E+02  0.45594000000E+02  0.51100000000E-03 0.  1.
         11   -1    0    0    0    0 -0.00000000000E+00 -0.00000000000E+00 -0.45593999997E+02  0.45594000000E+02  0.51100000000E-03 0. -1.
    9900012    2    1    2    0    0 -0.25226153400E+02  0.10538056065E+02  0.16410743505E+02  0.59301922421E+02  0.49999960594E+02 0.  0.
         12    1    1    2    0    0  0.25226153400E+02 -0.10538056065E+02 -0.16410743505E+02  0.31886077579E+02  0.00000000000E+00 0. -1.
         11    1    3    3    0    0 -0.28624072122E+01 -0.13549673796E+02 -0.25635816294E+01  0.14083997517E+02  0.51100000000E-03 0. -1.
        -11    1    3    3    0    0 -0.66332677846E+00 -0.15523307035E+01  0.10419250068E+02  0.10555117492E+02  0.51100000000E-03 0.  1.
        -12    1    3    3    0    0 -0.21700419410E+02  0.25640060564E+02  0.85550750658E+01  0.34662807412E+02  0.00000000000E+00 0.  1.
</event>
<event>
 7    1  0.6061051E-012  0.5930194E+02  0.7816164E-02  0.1266605E+00
        -11   -1    0    0    0    0  0.00000000000E+00  0.00000000000E+00  0.45593999997E+02  0.45594000000E+02  0.51100000000E-03 0.  1.
         11   -1    0    0    0    0 -0.00000000000E+00 -0.00000000000E+00 -0.45593999997E+02  0.45594000000E+02  0.51100000000E-03 0. -1.
    9900012    2    1    2    0    0  0.27302100577E+02 -0.14798706354E+02  0.72328905712E+01  0.59301935462E+02  0.49999984379E+02 0.  0.
         12    1    1    2    0    0 -0.27302100577E+02  0.14798706354E+02 -0.72328905712E+01  0.31886064538E+02  0.00000000000E+00 0. -1.
         11    1    3    3    0    0 -0.91353126019E+00 -0.30424463449E+01 -0.81375650128E+01  0.87356158183E+01  0.51100000000E-03 0. -1.
        -11    1    3    3    0    0  0.48265055776E+01 -0.21357320779E+02  0.20572575907E+01  0.21992330845E+02  0.51100000000E-03 0.  1.
        -12    1    3    3    0    0  0.23389126260E+02  0.96010607696E+01  0.13313197993E+02  0.28573988799E+02  0.00000000000E+00 0.  1.
</event>
<event>
 7    1  0.6061051E-012  0.5930196E+02  0.7816164E-02  0.1266605E+00
        -11   -1    0    0    0    0  0.00000000000E+00  0.00000000000E+00  0.45593999997E+02  0.45594000000E+02  0.51100000000E-03 0.  1.
         11   -1    0    0    0    0 -0.00000000000E+00 -0.00000000000E+00 -0.45593999997E+02  0.45594000000E+02  0.51100000000E-03 0. -1.
    9900012    2    1    2    0    0  0.23251692266E+02 -0.76881168022E+00  0.21805673869E+02  0.59301957951E+02  0.50000025393E+02 0.  0.
         12    1    1    2    0    0 -0.23251692266E+02  0.76881168022E+00 -0.21805673869E+02  0.31886042049E+02  0.00000000000E+00 0. -1.
         11    1    3    3    0    0  0.21892415184E+02  0.15859480350E+01 -0.63998325907E+01  0.22863747094E+02  0.51100000000E-03 0. -1.
        -11    1    3    3    0    0 -0.29972652351E+01 -0.73251958553E+01  0.47280667501E+00  0.79287855073E+01  0.51100000000E-03 0.  1.
        -12    1    3    3    0    0  0.43565423179E+01  0.49704361401E+01  0.27732699785E+02  0.28509425350E+02  0.00000000000E+00 0.  1.
</event>
<event>
 7    1  0.6061051E-012  0.5930200E+02  0.7816164E-02  0.1266605E+00
        -11   -1    0    0    0    0  0.00000000000E+00  0.00000000000E+00  0.45593999997E+02  0.45594000000E+02  0.51100000000E-03 0. -1.
         11   -1    0    0    0    0 -0.00000000000E+00 -0.00000000000E+00 -0.45593999997E+02  0.45594000000E+02  0.51100000000E-03 0.  1.
    9900012    2    1    2    0    0 -0.14176175552E+02 -0.28417555992E+02  0.28627913530E+01  0.59301999684E+02  0.50000101503E+02 0.  0.
         12    1    1    2    0    0  0.14176175552E+02  0.28417555992E+02 -0.28627913530E+01  0.31886000316E+02  0.00000000000E+00 0. -1.
         11    1    3    3    0    0 -0.30437893253E+01  0.74306089995E+00 -0.73485129619E+01  0.79885815993E+01  0.51100000000E-03 0. -1.
        -11    1    3    3    0    0  0.14775664920E+02 -0.87001750634E+01  0.17673216376E+01  0.17237654887E+02  0.51100000000E-03 0.  1.
         12    1    3    3    0    0 -0.25908051147E+02 -0.20460441828E+02  0.84439826773E+01  0.34075763198E+02  0.00000000000E+00 0. -1.
</event>
<event>
 7    1  0.6061051E-012  0.5930194E+02  0.7816164E-02  0.1266605E+00
        -11   -1    0    0    0    0  0.00000000000E+00  0.00000000000E+00  0.45593999997E+02  0.45594000000E+02  0.51100000000E-03 0. -1.
         11   -1    0    0    0    0 -0.00000000000E+00 -0.00000000000E+00 -0.45593999997E+02  0.45594000000E+02  0.51100000000E-03 0.  1.
    9900012    2    1    2    0    0 -0.50042473925E+01 -0.22531531872E+02 -0.22000184320E+02  0.59301944574E+02  0.50000000997E+02 0.  0.
         12    1    1    2    0    0  0.50042473925E+01  0.22531531872E+02  0.22000184320E+02  0.31886055426E+02  0.00000000000E+00 0. -1.
         11    1    3    3    0    0  0.27912381759E+00 -0.20279330254E+02 -0.16834835008E+02  0.26357936483E+02  0.51100000000E-03 0. -1.
        -11    1    3    3    0    0 -0.97596879905E+00 -0.16965298313E+02 -0.83653844483E+00  0.17013925437E+02  0.51100000000E-03 0.  1.
        -12    1    3    3    0    0 -0.43074024110E+01  0.14713096694E+02 -0.43288108677E+01  0.15930082655E+02  0.00000000000E+00 0.  1.
</event>
<event>
 7    1  0.6061051E-012  0.5930196E+02  0.7816164E-02  0.1266605E+00
        -11   -1    0    0    0    0  0.00000000000E+00  0.00000000000E+00  0.45593999997E+02  0.45594000000E+02  0.51100000000E-03 0.  1.
         11   -1    0    0    0    0 -0.00000000000E+00 -0.00000000000E+00 -0.45593999997E+02  0.45594000000E+02  0.51100000000E-03 0. -1.
    9900012    2    1    2    0    0  0.14536703601E+02  0.31571644017E+00  0.28377883092E+02  0.59301957955E+02  0.50000025401E+02 0.  0.
         12    1    1    2    0    0 -0.14536703601E+02 -0.31571644017E+00 -0.28377883092E+02  0.31886042045E+02  0.00000000000E+00 0. -1.
         11    1    3    3    0    0  0.61722868910E+01 -0.87343928520E+01 -0.57979237210E+01  0.12165634537E+02  0.51100000000E-03 0. -1.
        -11    1    3    3    0    0  0.18049990818E+01 -0.10727259157E+02  0.71783985328E+01  0.13033093127E+02  0.51100000000E-03 0.  1.
        -12    1    3    3    0    0  0.65594176286E+01  0.19777368449E+02  0.26997408281E+02  0.34103230291E+02  0.00000000000E+00 0.  1.
</event>
<event>
 7    1  0.6061051E-012  0.5930195E+02  0.7816164E-02  0.1266605E+00
        -11   -1    0    0    0    0  0.00000000000E+00  0.00000000000E+00  0.45593999997E+02  0.45594000000E+02  0.51100000000E-03 0. -1.
         11   -1    0    0    0    0 -0.00000000000E+00 -0.00000000000E+00 -0.45593999997E+02  0.45594000000E+02  0.51100000000E-03 0.  1.
    9900012    2    1    2    0    0 -0.91371330045E+01  0.23076940520E+02 -0.20017182130E+02  0.59301953463E+02  0.50000017208E+02 0.  0.
         12    1    1    2    0    0  0.91371330045E+01 -0.23076940520E+02  0.20017182130E+02  0.31886046537E+02  0.00000000000E+00 0. -1.
         11    1    3    3    0    0 -0.18820435323E+02 -0.17436640521E+01 -0.61204791557E+01  0.19867295121E+02  0.51100000000E-03 0. -1.
        -11    1    3    3    0    0 -0.59209435171E+00  0.10580668326E+02 -0.18465135091E+02  0.21289958482E+02  0.51100000000E-03 0.  1.
         12    1    3    3    0    0  0.10275396670E+02  0.14239936246E+02  0.45684321166E+01  0.18144699860E+02  0.00000000000E+00 0. -1.
</event>
<event>
 7    1  0.6061051E-012  0.5930194E+02  0.7816164E-02  0.1266605E+00
        -11   -1    0    0    0    0  0.00000000000E+00  0.00000000000E+00  0.45593999997E+02  0.45594000000E+02  0.51100000000E-03 0.  1.
         11   -1    0    0    0    0 -0.00000000000E+00 -0.00000000000E+00 -0.45593999997E+02  0.45594000000E+02  0.51100000000E-03 0. -1.
    9900012    2    1    2    0    0  0.17925567020E+02 -0.51680629890E+00  0.26365277285E+02  0.59301938969E+02  0.49999990774E+02 0.  0.
         12    1    1    2    0    0 -0.17925567020E+02  0.51680629890E+00 -0.26365277285E+02  0.31886061031E+02  0.00000000000E+00 0. -1.
         11    1    3    3    0    0 -0.21795557095E+00  0.20371683711E+00 -0.60256233535E+01  0.60330044124E+01  0.51100000000E-03 0. -1.
        -11    1    3    3    0    0  0.12251676070E+02  0.16466510114E+02  0.62892427564E+01  0.21466348002E+02  0.51100000000E-03 0.  1.
        -12    1    3    3    0    0  0.58918465214E+01 -0.17187033250E+02  0.26101657882E+02  0.31802586554E+02  0.00000000000E+00 0.  1.
</event>
<event>
 7    1  0.6061051E-012  0.5930190E+02  0.7816164E-02  0.1266605E+00
        -11   -1    0    0    0    0  0.00000000000E+00  0.00000000000E+00  0.45593999997E+02  0.45594000000E+02  0.51100000000E-03 0.  1.
         11   -1    0    0    0    0 -0.00000000000E+00 -0.00000000000E+00 -0.45593999997E+02  0.45594000000E+02  0.51100000000E-03 0. -1.
    9900012    2    1    2    0    0 -0.19100496806E+02  0.25467591750E+02  0.18154754285E+01  0.59301903362E+02  0.49999925835E+02 0.  0.
         12    1    1    2    0    0  0.19100496806E+02 -0.25467591750E+02 -0.18154754285E+01  0.31886096638E+02  0.00000000000E+00 0. -1.
         11    1    3    3    0    0  0.10114177035E+02  0.95831070535E+01  0.47976470608E+01  0.14736008125E+02  0.51100000000E-03 0. -1.
        -11    1    3    3    0    0 -0.26188002119E+02  0.15934302000E+02 -0.13591838623E+02  0.33532842298E+02  0.51100000000E-03 0.  1.
         12    1    3    3    0    0 -0.30266717222E+01 -0.49817302954E-01  0.10609666991E+02  0.11033052938E+02  0.00000000000E+00 0. -1.
</event>
<event>
 7    1  0.6061051E-012  0.5930194E+02  0.7816164E-02  0.1266605E+00
        -11   -1    0    0    0    0  0.00000000000E+00  0.00000000000E+00  0.45593999997E+02  0.45594000000E+02  0.51100000000E-03 0.  1.
         11   -1    0    0    0    0 -0.00000000000E+00 -0.00000000000E+00 -0.45593999997E+02  0.45594000000E+02  0.51100000000E-03 0. -1.
    9900012    2    1    2    0    0 -0.42834885337E+01  0.63669309584E+01  0.30948906274E+02  0.59301939042E+02  0.49999990907E+02 0.  0.
         12    1    1    2    0    0  0.42834885337E+01 -0.63669309584E+01 -0.30948906274E+02  0.31886060958E+02  0.00000000000E+00 0. -1.
         11    1    3    3    0    0  0.91185232746E+01  0.11671925901E+02  0.39474006491E+01  0.15328512423E+02  0.51100000000E-03 0. -1.
        -11    1    3    3    0    0 -0.85824119039E+01 -0.14005395053E+01 -0.58895171499E+01  0.10502652880E+02  0.51100000000E-03 0.  1.
        -12    1    3    3    0    0 -0.48195999045E+01 -0.39044554377E+01  0.32891022775E+02  0.33470773739E+02  0.00000000000E+00 0.  1.
</event>
<event>
 7    1  0.6061051E-012  0.5930196E+02  0.7816164E-02  0.1266605E+00
        -11   -1    0    0    0    0  0.00000000000E+00  0.00000000000E+00  0.45593999997E+02  0.45594000000E+02  0.51100000000E-03 0.  1.
         11   -1    0    0    0    0 -0.00000000000E+00 -0.00000000000E+00 -0.45593999997E+02  0.45594000000E+02  0.51100000000E-03 0. -1.
    9900012    2    1    2    0    0 -0.28081949722E+02 -0.15103575784E+02 -0.75825165215E-01  0.59301958365E+02  0.50000026149E+02 0.  0.
         12    1    1    2    0    0  0.28081949722E+02  0.15103575784E+02  0.75825165215E-01  0.31886041635E+02  0.00000000000E+00 0. -1.
         11    1    3    3    0    0  0.68050335017E+00  0.52931836981E+01  0.10440767834E+02  0.11725634810E+02  0.51100000000E-03 0. -1.
        -11    1    3    3    0    0 -0.50160055532E+01  0.46915705453E+01  0.61520770750E+01  0.92205855828E+01  0.51100000000E-03 0.  1.
        -12    1    3    3    0    0 -0.23746447519E+02 -0.25088330028E+02 -0.16668670075E+02  0.38355737972E+02  0.00000000000E+00 0.  1.
</event>
<event>
 7    1  0.6061051E-012  0.5930194E+02  0.7816164E-02  0.1266605E+00
        -11   -1    0    0    0    0  0.00000000000E+00  0.00000000000E+00  0.45593999997E+02  0.45594000000E+02  0.51100000000E-03 0.  1.
         11   -1    0    0    0    0 -0.00000000000E+00 -0.00000000000E+00 -0.45593999997E+02  0.45594000000E+02  0.51100000000E-03 0. -1.
    9900012    2    1    2    0    0  0.29101712690E+02 -0.12780454761E+02 -0.25437986265E+01  0.59301943222E+02  0.49999998530E+02 0.  0.
         12    1    1    2    0    0 -0.29101712690E+02  0.12780454761E+02  0.25437986265E+01  0.31886056778E+02  0.00000000000E+00 0. -1.
         11    1    3    3    0    0  0.80092746135E+01 -0.23191264553E+02  0.78521862594E+01  0.25761212330E+02  0.51100000000E-03 0. -1.
        -11    1    3    3    0    0  0.20700699724E+02  0.41058493700E+01  0.31425277360E+00  0.21106295818E+02  0.51100000000E-03 0.  1.
        -12    1    3    3    0    0  0.39173835342E+00  0.63049604221E+01 -0.10710237660E+02  0.12434435073E+02  0.00000000000E+00 0.  1.
</event>
<event>
 7    1  0.6061051E-012  0.5930192E+02  0.7816164E-02  0.1266605E+00
        -11   -1    0    0    0    0  0.00000000000E+00  0.00000000000E+00  0.45593999997E+02  0.45594000000E+02  0.51100000000E-03 0.  1.
         11   -1    0    0    0    0 -0.00000000000E+00 -0.00000000000E+00 -0.45593999997E+02  0.45594000000E+02  0.51100000000E-03 0. -1.
    9900012    2    1    2    0    0 -0.29768823607E+02  0.10688661640E+02  0.40362789912E+01  0.59301923184E+02  0.49999961986E+02 0.  0.
         12    1    1    2    0    0  0.29768823607E+02 -0.10688661640E+02 -0.40362789912E+01  0.31886076816E+02  0.00000000000E+00 0. -1.
         11    1    3    3    0    0 -0.45122275080E+01  0.10709875213E+02 -0.20723853251E+01  0.11804931400E+02  0.51100000000E-03 0. -1.
        -11    1    3    3    0    0 -0.44093042567E+01  0.64347146970E+01  0.20108549576E+02  0.21568525299E+02  0.51100000000E-03 0.  1.
         12    1    3    3    0    0 -0.20847291843E+02 -0.64559282696E+01 -0.13999885260E+02  0.25928466485E+02  0.00000000000E+00 0. -1.
</event>
<event>
 7    1  0.6061051E-012  0.5930197E+02  0.7816164E-02  0.1266605E+00
        -11   -1    0    0    0    0  0.00000000000E+00  0.00000000000E+00  0.45593999997E+02  0.45594000000E+02  0.51100000000E-03 0. -1.
         11   -1    0    0    0    0 -0.00000000000E+00 -0.00000000000E+00 -0.45593999997E+02  0.45594000000E+02  0.51100000000E-03 0.  1.
    9900012    2    1    2    0    0  0.18391724548E+02 -0.24420557402E+02 -0.90609067798E+01  0.59301965638E+02  0.50000039411E+02 0.  0.
         12    1    1    2    0    0 -0.18391724548E+02  0.24420557402E+02  0.90609067798E+01  0.31886034362E+02  0.00000000000E+00 0. -1.
         11    1    3    3    0    0 -0.81751003318E+01 -0.99771792763E+01  0.21357796987E+01  0.13074323192E+02  0.51100000000E-03 0. -1.
        -11    1    3    3    0    0  0.92208436312E+01 -0.65042881710E+01  0.11814465747E+02  0.16337420942E+02  0.51100000000E-03 0.  1.
        -12    1    3    3    0    0  0.17345981249E+02 -0.79390899547E+01 -0.23011152225E+02  0.29890221504E+02  0.00000000000E+00 0.  1.
</event>
<event>
 7    1  0.6061051E-012  0.5930195E+02  0.7816164E-02  0.1266605E+00
        -11   -1    0    0    0    0  0.00000000000E+00  0.00000000000E+00  0.45593999997E+02  0.45594000000E+02  0.51100000000E-03 0.  1.
         11   -1    0    0    0    0 -0.00000000000E+00 -0.00000000000E+00 -0.45593999997E+02  0.45594000000E+02  0.51100000000E-03 0. -1.
    9900012    2    1    2    0    0 -0.12947245535E+02 -0.10637022190E+02  0.27128268383E+02  0.59301947352E+02  0.50000006062E+02 0.  0.
         12    1    1    2    0    0  0.12947245535E+02  0.10637022190E+02 -0.27128268383E+02  0.31886052648E+02  0.00000000000E+00 0. -1.
         11    1    3    3    0    0 -0.13664631426E+02  0.36457251410E+01 -0.69069299774E+01  0.15739096091E+02  0.51100000000E-03 0. -1.
        -11    1    3    3    0    0 -0.24756400103E+01  0.43513170530E+01  0.18279267781E+02  0.18952424236E+02  0.51100000000E-03 0.  1.
         12    1    3    3    0    0  0.31930259010E+01 -0.18634064384E+02  0.15755930580E+02  0.24610427024E+02  0.00000000000E+00 0. -1.
</event>
<event>
 7    1  0.6061051E-012  0.5930190E+02  0.7816164E-02  0.1266605E+00
        -11   -1    0    0    0    0  0.00000000000E+00  0.00000000000E+00  0.45593999997E+02  0.45594000000E+02  0.51100000000E-03 0.  1.
         11   -1    0    0    0    0 -0.00000000000E+00 -0.00000000000E+00 -0.45593999997E+02  0.45594000000E+02  0.51100000000E-03 0. -1.
    9900012    2    1    2    0    0 -0.27157433096E+02  0.81860523980E+01  0.14566594933E+02  0.59301900926E+02  0.49999921392E+02 0.  0.
         12    1    1    2    0    0  0.27157433096E+02 -0.81860523980E+01 -0.14566594933E+02  0.31886099074E+02  0.00000000000E+00 0. -1.
         11    1    3    3    0    0  0.16968680556E+01 -0.53472914461E+01 -0.11324772255E+01  0.57232326473E+01  0.51100000000E-03 0. -1.
        -11    1    3    3    0    0  0.30503726072E+01  0.16991825021E+02 -0.12083122435E+01  0.17305690085E+02  0.51100000000E-03 0.  1.
        -12    1    3    3    0    0 -0.31904673759E+02 -0.34584811766E+01  0.16907384402E+02  0.36272978194E+02  0.00000000000E+00 0.  1.
</event>
<event>
 7    1  0.6061051E-012  0.5930195E+02  0.7816164E-02  0.1266605E+00
        -11   -1    0    0    0    0  0.00000000000E+00  0.00000000000E+00  0.45593999997E+02  0.45594000000E+02  0.51100000000E-03 0.  1.
         11   -1    0    0    0    0 -0.00000000000E+00 -0.00000000000E+00 -0.45593999997E+02  0.45594000000E+02  0.51100000000E-03 0. -1.
    9900012    2    1    2    0    0 -0.15444280174E+02 -0.21936577878E+02  0.17233129748E+02  0.59301952894E+02  0.50000016171E+02 0.  0.
         12    1    1    2    0    0  0.15444280174E+02  0.21936577878E+02 -0.17233129748E+02  0.31886047106E+02  0.00000000000E+00 0. -1.
         11    1    3    3    0    0 -0.15178487348E+02 -0.36424476762E+02  0.20312213654E+02  0.44381471465E+02  0.51100000000E-03 0.  1.
        -11    1    3    3    0    0 -0.67536832566E+00  0.27479507952E+01 -0.92842704655E+00  0.29781425403E+01  0.51100000000E-03 0. -1.
        -12    1    3    3    0    0  0.40957549976E+00  0.11739948089E+02 -0.21506568589E+01  0.11942338890E+02  0.00000000000E+00 0.  1.
</event>
<event>
 7    1  0.6061051E-012  0.5930194E+02  0.7816164E-02  0.1266605E+00
        -11   -1    0    0    0    0  0.00000000000E+00  0.00000000000E+00  0.45593999997E+02  0.45594000000E+02  0.51100000000E-03 0.  1.
         11   -1    0    0    0    0 -0.00000000000E+00 -0.00000000000E+00 -0.45593999997E+02  0.45594000000E+02  0.51100000000E-03 0. -1.
    9900012    2    1    2    0    0 -0.20840207781E+02 -0.20383170238E+02  0.12920242661E+02  0.59301944118E+02  0.50000000165E+02 0.  0.
         12    1    1    2    0    0  0.20840207781E+02  0.20383170238E+02 -0.12920242661E+02  0.31886055882E+02  0.00000000000E+00 0. -1.
         11    1    3    3    0    0 -0.46294552869E+01  0.48280277858E+01 -0.12672474983E+02  0.14329456759E+02  0.51100000000E-03 0. -1.
        -11    1    3    3    0    0 -0.93223018885E+01  0.14568094836E+01  0.67064655311E+01  0.11576022052E+02  0.51100000000E-03 0.  1.
        -12    1    3    3    0    0 -0.68884506052E+01 -0.26668007507E+02  0.18886252112E+02  0.33396465307E+02  0.00000000000E+00 0.  1.
</event>
<event>
 7    1  0.6061051E-012  0.5930195E+02  0.7816164E-02  0.1266605E+00
        -11   -1    0    0    0    0  0.00000000000E+00  0.00000000000E+00  0.45593999997E+02  0.45594000000E+02  0.51100000000E-03 0. -1.
         11   -1    0    0    0    0 -0.00000000000E+00 -0.00000000000E+00 -0.45593999997E+02  0.45594000000E+02  0.51100000000E-03 0.  1.
    9900012    2    1    2    0    0  0.22725078489E+02  0.64554132320E+01 -0.21415379005E+02  0.59301952734E+02  0.50000015878E+02 0.  0.
         12    1    1    2    0    0 -0.22725078489E+02 -0.64554132320E+01  0.21415379005E+02  0.31886047266E+02  0.00000000000E+00 0. -1.
         11    1    3    3    0    0 -0.13351841074E+01  0.67253181927E+01  0.65199607292E+01  0.94616335569E+01  0.51100000000E-03 0. -1.
        -11    1    3    3    0    0  0.26894881983E+02  0.75338386711E+01 -0.92977901715E+01  0.29437090623E+02  0.51100000000E-03 0.  1.
         12    1    3    3    0    0 -0.28346193869E+01 -0.78037436319E+01 -0.18637549563E+02  0.20403228554E+02  0.00000000000E+00 0. -1.
</event>
<event>
 7    1  0.6061051E-012  0.5930198E+02  0.7816164E-02  0.1266605E+00
        -11   -1    0    0    0    0  0.00000000000E+00  0.00000000000E+00  0.45593999997E+02  0.45594000000E+02  0.51100000000E-03 0.  1.
         11   -1    0    0    0    0 -0.00000000000E+00 -0.00000000000E+00 -0.45593999997E+02  0.45594000000E+02  0.51100000000E-03 0. -1.
    9900012    2    1    2    0    0 -0.86679351199E+01  0.26148438206E+02  0.16057531606E+02  0.59301980475E+02  0.50000066471E+02 0.  0.
         12    1    1    2    0    0  0.86679351199E+01 -0.26148438206E+02 -0.16057531606E+02  0.31886019525E+02  0.00000000000E+00 0. -1.
         11    1    3    3    0    0 -0.75414219374E+01  0.21857352134E+00  0.52509029913E+01  0.91919966116E+01  0.51100000000E-03 0. -1.
        -11    1    3    3    0    0 -0.19797288728E+02  0.74381580464E+01  0.10984931594E+02  0.23831230738E+02  0.51100000000E-03 0.  1.
         12    1    3    3    0    0  0.18670775545E+02  0.18491706639E+02 -0.17830297972E+00  0.26278753125E+02  0.00000000000E+00 0. -1.
</event>
<event>
 7    1  0.6061051E-012  0.5930195E+02  0.7816164E-02  0.1266605E+00
        -11   -1    0    0    0    0  0.00000000000E+00  0.00000000000E+00  0.45593999997E+02  0.45594000000E+02  0.51100000000E-03 0. -1.
         11   -1    0    0    0    0 -0.00000000000E+00 -0.00000000000E+00 -0.45593999997E+02  0.45594000000E+02  0.51100000000E-03 0.  1.
    9900012    2    1    2    0    0  0.13052621977E+02 -0.22249269136E+02  0.18743518768E+02  0.59301946413E+02  0.50000004350E+02 0.  0.
         12    1    1    2    0    0 -0.13052621977E+02  0.22249269136E+02 -0.18743518768E+02  0.31886053587E+02  0.00000000000E+00 0. -1.
         11    1    3    3    0    0  0.97519545620E+01  0.15783911814E+01  0.46924118152E+01  0.10936666101E+02  0.51100000000E-03 0. -1.
        -11    1    3    3    0    0  0.40891435739E+01 -0.13276527073E+02  0.27763675971E+02  0.31045272908E+02  0.51100000000E-03 0.  1.
        -12    1    3    3    0    0 -0.78847615933E+00 -0.10551133244E+02 -0.13712569018E+02  0.17320007404E+02  0.00000000000E+00 0.  1.
</event>
<event>
 7    1  0.6061051E-012  0.5930194E+02  0.7816164E-02  0.1266605E+00
        -11   -1    0    0    0    0  0.00000000000E+00  0.00000000000E+00  0.45593999997E+02  0.45594000000E+02  0.51100000000E-03 0.  1.
         11   -1    0    0    0    0 -0.00000000000E+00 -0.00000000000E+00 -0.45593999997E+02  0.45594000000E+02  0.51100000000E-03 0. -1.
    9900012    2    1    2    0    0  0.99259746287E+01 -0.41806581595E+01  0.30011961095E+02  0.59301942173E+02  0.49999996617E+02 0.  0.
         12    1    1    2    0    0 -0.99259746287E+01  0.41806581595E+01 -0.30011961095E+02  0.31886057827E+02  0.00000000000E+00 0. -1.
         11    1    3    3    0    0  0.54256050860E+01 -0.91876732431E+01  0.19131510784E+02  0.21905826515E+02  0.51100000000E-03 0. -1.
        -11    1    3    3    0    0  0.19531659062E+02 -0.33887726216E+00  0.36161760994E+01  0.19866486186E+02  0.51100000000E-03 0.  1.
         12    1    3    3    0    0 -0.15031289520E+02  0.53458923457E+01  0.72642742114E+01  0.17529629472E+02  0.00000000000E+00 0. -1.
</event>
<event>
 7    1  0.6061051E-012  0.5930204E+02  0.7816164E-02  0.1266604E+00
        -11   -1    0    0    0    0  0.00000000000E+00  0.00000000000E+00  0.45593999997E+02  0.45594000000E+02  0.51100000000E-03 0.  1.
         11   -1    0    0    0    0 -0.00000000000E+00 -0.00000000000E+00 -0.45593999997E+02  0.45594000000E+02  0.51100000000E-03 0. -1.
    9900012    2    1    2    0    0  0.11332324089E+01  0.76789501426E+01  0.30926753123E+02  0.59302038360E+02  0.50000172038E+02 0.  0.
         12    1    1    2    0    0 -0.11332324089E+01 -0.76789501426E+01 -0.30926753123E+02  0.31885961640E+02  0.00000000000E+00 0. -1.
         11    1    3    3    0    0  0.39605026565E+01  0.14968960996E+02  0.92733006559E+01  0.18048531240E+02  0.51100000000E-03 0. -1.
        -11    1    3    3    0    0  0.11251517965E+02  0.74946367610E+01  0.13968772311E+02  0.19439465960E+02  0.51100000000E-03 0.  1.
         12    1    3    3    0    0 -0.14078788212E+02 -0.14784647614E+02  0.76846801566E+01  0.21814041160E+02  0.00000000000E+00 0. -1.
</event>
<event>
 7    1  0.6061051E-012  0.5930200E+02  0.7816164E-02  0.1266605E+00
        -11   -1    0    0    0    0  0.00000000000E+00  0.00000000000E+00  0.45593999997E+02  0.45594000000E+02  0.51100000000E-03 0.  1.
         11   -1    0    0    0    0 -0.00000000000E+00 -0.00000000000E+00 -0.45593999997E+02  0.45594000000E+02  0.51100000000E-03 0. -1.
    9900012    2    1    2    0    0 -0.46413469947E+00 -0.16093894980E+02  0.27522502500E+02  0.59301999616E+02  0.50000101379E+02 0.  0.
         12    1    1    2    0    0  0.46413469947E+00  0.16093894980E+02 -0.27522502500E+02  0.31886000384E+02  0.00000000000E+00 0. -1.
         11    1    3    3    0    0 -0.13922365150E+02 -0.16829692161E+01  0.73653719785E+01  0.15840244361E+02  0.51100000000E-03 0. -1.
        -11    1    3    3    0    0 -0.67181835581E+01 -0.16463295112E+02  0.61522731903E+01  0.18815539906E+02  0.51100000000E-03 0.  1.
        -12    1    3    3    0    0  0.20176414009E+02  0.20523693481E+01  0.14004857331E+02  0.24646215350E+02  0.00000000000E+00 0.  1.
</event>
<event>
 7    1  0.6061051E-012  0.5930198E+02  0.7816164E-02  0.1266605E+00
        -11   -1    0    0    0    0  0.00000000000E+00  0.00000000000E+00  0.45593999997E+02  0.45594000000E+02  0.51100000000E-03 0.  1.
         11   -1    0    0    0    0 -0.00000000000E+00 -0.00000000000E+00 -0.45593999997E+02  0.45594000000E+02  0.51100000000E-03 0. -1.
    9900012    2    1    2    0    0 -0.27674207788E+02 -0.15475759717E+02  0.33700774951E+01  0.59301978959E+02  0.50000063707E+02 0.  0.
         12    1    1    2    0    0  0.27674207788E+02  0.15475759717E+02 -0.33700774951E+01  0.31886021041E+02  0.00000000000E+00 0. -1.
         11    1    3    3    0    0 -0.17089415502E+02 -0.28396736215E+02  0.34164724313E-01  0.33142479046E+02  0.51100000000E-03 0. -1.
        -11    1    3    3    0    0  0.50877222707E+01  0.79856528331E+01  0.47087083584E+00  0.94803633200E+01  0.51100000000E-03 0.  1.
        -12    1    3    3    0    0 -0.15672514557E+02  0.49353236648E+01  0.28650419349E+01  0.16679136593E+02  0.00000000000E+00 0.  1.
</event>
<event>
 7    1  0.6061051E-012  0.5930193E+02  0.7816164E-02  0.1266605E+00
        -11   -1    0    0    0    0  0.00000000000E+00  0.00000000000E+00  0.45593999997E+02  0.45594000000E+02  0.51100000000E-03 0.  1.
         11   -1    0    0    0    0 -0.00000000000E+00 -0.00000000000E+00 -0.45593999997E+02  0.45594000000E+02  0.51100000000E-03 0. -1.
    9900012    2    1    2    0    0  0.14361189744E+02 -0.14718687198E+02  0.24368796102E+02  0.59301925497E+02  0.49999966205E+02 0.  0.
         12    1    1    2    0    0 -0.14361189744E+02  0.14718687198E+02 -0.24368796102E+02  0.31886074503E+02  0.00000000000E+00 0. -1.
         11    1    3    3    0    0  0.45185062156E+01  0.34460777597E+01  0.79253340491E+01  0.97520905655E+01  0.51100000000E-03 0. -1.
        -11    1    3    3    0    0 -0.14093276253E+02 -0.33317377747E+01  0.15730414891E+02  0.21381460780E+02  0.51100000000E-03 0.  1.
         12    1    3    3    0    0  0.23935959782E+02 -0.14833027183E+02  0.71304716203E+00  0.28168374152E+02  0.00000000000E+00 0. -1.
</event>
<event>
 7    1  0.6061051E-012  0.5930196E+02  0.7816164E-02  0.1266605E+00
        -11   -1    0    0    0    0  0.00000000000E+00  0.00000000000E+00  0.45593999997E+02  0.45594000000E+02  0.51100000000E-03 0. -1.
         11   -1    0    0    0    0 -0.00000000000E+00 -0.00000000000E+00 -0.45593999997E+02  0.45594000000E+02  0.51100000000E-03 0.  1.
    9900012    2    1    2    0    0 -0.18163006496E+02  0.25647673849E+02 -0.53871703164E+01  0.59301959436E+02  0.50000028101E+02 0.  0.
         12    1    1    2    0    0  0.18163006496E+02 -0.25647673849E+02  0.53871703164E+01  0.31886040564E+02  0.00000000000E+00 0. -1.
         11    1    3    3    0    0  0.80648396620E+01 -0.77780910025E+01  0.14548028485E+01  0.11298530436E+02  0.51100000000E-03 0. -1.
        -11    1    3    3    0    0  0.19952574118E+01  0.18456195432E+01 -0.49020996097E+01  0.56051712269E+01  0.51100000000E-03 0.  1.
         12    1    3    3    0    0 -0.28223103570E+02  0.31580145308E+02 -0.19398735552E+01  0.42398257773E+02  0.00000000000E+00 0. -1.
</event>
<event>
 7    1  0.6061051E-012  0.5930196E+02  0.7816164E-02  0.1266605E+00
        -11   -1    0    0    0    0  0.00000000000E+00  0.00000000000E+00  0.45593999997E+02  0.45594000000E+02  0.51100000000E-03 0. -1.
         11   -1    0    0    0    0 -0.00000000000E+00 -0.00000000000E+00 -0.45593999997E+02  0.45594000000E+02  0.51100000000E-03 0.  1.
    9900012    2    1    2    0    0 -0.21191775517E+02  0.23691542225E+02 -0.25178039497E+01  0.59301955101E+02  0.50000020195E+02 0.  0.
         12    1    1    2    0    0  0.21191775517E+02 -0.23691542225E+02  0.25178039497E+01  0.31886044899E+02  0.00000000000E+00 0. -1.
         11    1    3    3    0    0 -0.16128392695E+02  0.52785109663E+01  0.37760580225E+01  0.17385233487E+02  0.51100000000E-03 0. -1.
        -11    1    3    3    0    0 -0.56693259858E+01  0.95342882012E+00 -0.19299215776E+02  0.20137279197E+02  0.51100000000E-03 0.  1.
         12    1    3    3    0    0  0.60594316445E+00  0.17459602439E+02  0.13005353803E+02  0.21779442417E+02  0.00000000000E+00 0. -1.
</event>
<event>
 7    1  0.6061051E-012  0.5930195E+02  0.7816164E-02  0.1266605E+00
        -11   -1    0    0    0    0  0.00000000000E+00  0.00000000000E+00  0.45593999997E+02  0.45594000000E+02  0.51100000000E-03 0.  1.
         11   -1    0    0    0    0 -0.00000000000E+00 -0.00000000000E+00 -0.45593999997E+02  0.45594000000E+02  0.51100000000E-03 0. -1.
    9900012    2    1    2    0    0 -0.69033308930E+01 -0.30983109352E+02  0.30184859457E+01  0.59301948192E+02  0.50000007594E+02 0.  0.
         12    1    1    2    0    0  0.69033308930E+01  0.30983109352E+02 -0.30184859457E+01  0.31886051808E+02  0.00000000000E+00 0. -1.
         11    1    3    3    0    0 -0.92592761497E-01 -0.10330375324E+02 -0.30316005035E+01  0.10766421394E+02  0.51100000000E-03 0. -1.
        -11    1    3    3    0    0  0.14877411943E+02 -0.14921325000E+02 -0.74555666814E+01  0.22351035785E+02  0.51100000000E-03 0.  1.
        -12    1    3    3    0    0 -0.21688150074E+02 -0.57314090272E+01  0.13505653131E+02  0.26184491012E+02  0.00000000000E+00 0.  1.
</event>
<event>
 7    1  0.6061051E-012  0.5930164E+02  0.7816164E-02  0.1266606E+00
        -11   -1    0    0    0    0  0.00000000000E+00  0.00000000000E+00  0.45593999997E+02  0.45594000000E+02  0.51100000000E-03 0. -1.
         11   -1    0    0    0    0 -0.00000000000E+00 -0.00000000000E+00 -0.45593999997E+02  0.45594000000E+02  0.51100000000E-03 0.  1.
    9900012    2    1    2    0    0 -0.27251553917E+02  0.82933001312E+01  0.14328775089E+02  0.59301642204E+02  0.49999449542E+02 0.  0.
         12    1    1    2    0    0  0.27251553917E+02 -0.82933001312E+01 -0.14328775089E+02  0.31886357796E+02  0.00000000000E+00 0. -1.
         11    1    3    3    0    0  0.25111953278E+01  0.97306375857E+00  0.12108792700E+02  0.12404669119E+02  0.51100000000E-03 0. -1.
        -11    1    3    3    0    0 -0.22281970551E+02  0.16277772504E+02  0.13452743881E+02  0.30698996849E+02  0.51100000000E-03 0.  1.
        -12    1    3    3    0    0 -0.74807786938E+01 -0.89575361314E+01 -0.11232761491E+02  0.16197976236E+02  0.00000000000E+00 0.  1.
</event>
<event>
 7    1  0.6061051E-012  0.5930191E+02  0.7816164E-02  0.1266605E+00
        -11   -1    0    0    0    0  0.00000000000E+00  0.00000000000E+00  0.45593999997E+02  0.45594000000E+02  0.51100000000E-03 0.  1.
         11   -1    0    0    0    0 -0.00000000000E+00 -0.00000000000E+00 -0.45593999997E+02  0.45594000000E+02  0.51100000000E-03 0. -1.
    9900012    2    1    2    0    0  0.34056352215E+01 -0.26878870442E+02  0.16812212149E+02  0.59301913617E+02  0.49999944537E+02 0.  0.
         12    1    1    2    0    0 -0.34056352215E+01  0.26878870442E+02 -0.16812212149E+02  0.31886086383E+02  0.00000000000E+00 0. -1.
         11    1    3    3    0    0  0.47600068935E+01  0.75717877091E+01 -0.74380751699E-01  0.89440017607E+01  0.51100000000E-03 0. -1.
        -11    1    3    3    0    0  0.58496357470E+01 -0.68137267484E+01  0.19708890443E+02  0.21658381134E+02  0.51100000000E-03 0.  1.
         12    1    3    3    0    0 -0.72040074191E+01 -0.27636931403E+02 -0.28222975420E+01  0.28699530722E+02  0.00000000000E+00 0. -1.
</event>
<event>
 7    1  0.6061051E-012  0.5930194E+02  0.7816164E-02  0.1266605E+00
        -11   -1    0    0    0    0  0.00000000000E+00  0.00000000000E+00  0.45593999997E+02  0.45594000000E+02  0.51100000000E-03 0.  1.
         11   -1    0    0    0    0 -0.00000000000E+00 -0.00000000000E+00 -0.45593999997E+02  0.45594000000E+02  0.51100000000E-03 0. -1.
    9900012    2    1    2    0    0 -0.13951725380E+02  0.25306022816E+02  0.13478692397E+02  0.59301943791E+02  0.49999999568E+02 0.  0.
         12    1    1    2    0    0  0.13951725380E+02 -0.25306022816E+02 -0.13478692397E+02  0.31886056209E+02  0.00000000000E+00 0. -1.
         11    1    3    3    0    0 -0.88049486697E+01  0.65881059741E+01  0.56661361049E+01  0.12370746138E+02  0.51100000000E-03 0. -1.
        -11    1    3    3    0    0 -0.18143972866E+02  0.84307813609E+00 -0.79073617064E+01  0.19810121189E+02  0.51100000000E-03 0.  1.
         12    1    3    3    0    0  0.12997196156E+02  0.17874838706E+02  0.15719917998E+02  0.27121076464E+02  0.00000000000E+00 0. -1.
</event>
<event>
 7    1  0.6061051E-012  0.5930180E+02  0.7816164E-02  0.1266605E+00
        -11   -1    0    0    0    0  0.00000000000E+00  0.00000000000E+00  0.45593999997E+02  0.45594000000E+02  0.51100000000E-03 0.  1.
         11   -1    0    0    0    0 -0.00000000000E+00 -0.00000000000E+00 -0.45593999997E+02  0.45594000000E+02  0.51100000000E-03 0. -1.
    9900012    2    1    2    0    0 -0.27330647863E+01  0.28729111669E+02  0.13560900493E+02  0.59301803573E+02  0.49999743844E+02 0.  0.
         12    1    1    2    0    0  0.27330647863E+01 -0.28729111669E+02 -0.13560900493E+02  0.31886196427E+02  0.00000000000E+00 0. -1.
         11    1    3    3    0    0 -0.18553375887E+02  0.23066158745E+02  0.46581903205E+01  0.29966217202E+02  0.51100000000E-03 0. -1.
        -11    1    3    3    0    0  0.52392872847E+00  0.50623089481E+00 -0.67862622290E+01  0.68252565031E+01  0.51100000000E-03 0.  1.
        -12    1    3    3    0    0  0.15296382373E+02  0.51567220286E+01  0.15688972401E+02  0.22510329868E+02  0.00000000000E+00 0.  1.
</event>
<event>
 7    1  0.6061051E-012  0.5930190E+02  0.7816164E-02  0.1266605E+00
        -11   -1    0    0    0    0  0.00000000000E+00  0.00000000000E+00  0.45593999997E+02  0.45594000000E+02  0.51100000000E-03 0. -1.
         11   -1    0    0    0    0 -0.00000000000E+00 -0.00000000000E+00 -0.45593999997E+02  0.45594000000E+02  0.51100000000E-03 0.  1.
    9900012    2    1    2    0    0  0.30486290728E+02  0.92252079300E+01  0.14848690615E+01  0.59301902405E+02  0.49999924091E+02 0.  0.
         12    1    1    2    0    0 -0.30486290728E+02 -0.92252079300E+01 -0.14848690615E+01  0.31886097595E+02  0.00000000000E+00 0. -1.
         11    1    3    3    0    0  0.34107626936E+02 -0.32955089530E+01  0.87838033745E+01  0.35374366375E+02  0.51100000000E-03 0. -1.
        -11    1    3    3    0    0 -0.13819077520E+01  0.80748073200E+01  0.57185374816E+01  0.99906883387E+01  0.51100000000E-03 0.  1.
        -12    1    3    3    0    0 -0.22394284560E+01  0.44459095629E+01 -0.13017471795E+02  0.13936847691E+02  0.00000000000E+00 0.  1.
</event>
<event>
 7    1  0.6061051E-012  0.5930194E+02  0.7816164E-02  0.1266605E+00
        -11   -1    0    0    0    0  0.00000000000E+00  0.00000000000E+00  0.45593999997E+02  0.45594000000E+02  0.51100000000E-03 0.  1.
         11   -1    0    0    0    0 -0.00000000000E+00 -0.00000000000E+00 -0.45593999997E+02  0.45594000000E+02  0.51100000000E-03 0. -1.
    9900012    2    1    2    0    0 -0.37247488738E+01 -0.10885450811E+02  0.29738085692E+02  0.59301944519E+02  0.50000000895E+02 0.  0.
         12    1    1    2    0    0  0.37247488738E+01  0.10885450811E+02 -0.29738085692E+02  0.31886055481E+02  0.00000000000E+00 0. -1.
         11    1    3    3    0    0  0.41385375039E-01  0.48382795731E+01 -0.85617226072E+01  0.98343152400E+01  0.51100000000E-03 0. -1.
        -11    1    3    3    0    0  0.26343300117E+01 -0.72378320822E+01 -0.18610907970E+01  0.79239868171E+01  0.51100000000E-03 0.  1.
        -12    1    3    3    0    0 -0.64004642606E+01 -0.84858983020E+01  0.40160899096E+02  0.41543642461E+02  0.00000000000E+00 0.  1.
</event>
<event>
 7    1  0.6061051E-012  0.5930195E+02  0.7816164E-02  0.1266605E+00
        -11   -1    0    0    0    0  0.00000000000E+00  0.00000000000E+00  0.45593999997E+02  0.45594000000E+02  0.51100000000E-03 0.  1.
         11   -1    0    0    0    0 -0.00000000000E+00 -0.00000000000E+00 -0.45593999997E+02  0.45594000000E+02  0.51100000000E-03 0. -1.
    9900012    2    1    2    0    0 -0.90043005619E+01  0.30217815237E+02  0.47462144558E+01  0.59301947595E+02  0.50000006506E+02 0.  0.
         12    1    1    2    0    0  0.90043005619E+01 -0.30217815237E+02 -0.47462144558E+01  0.31886052405E+02  0.00000000000E+00 0. -1.
         11    1    3    3    0    0  0.11505362336E+02  0.11638027766E+02  0.46435154979E+01  0.17011151907E+02  0.51100000000E-03 0. -1.
        -11    1    3    3    0    0 -0.82162313704E+01  0.17423915560E+02  0.13914978087E+02  0.23763962355E+02  0.51100000000E-03 0.  1.
         12    1    3    3    0    0 -0.12293431528E+02  0.11558719112E+01 -0.13812279130E+02  0.18526833333E+02  0.00000000000E+00 0. -1.
</event>
<event>
 7    1  0.6061051E-012  0.5930196E+02  0.7816164E-02  0.1266605E+00
        -11   -1    0    0    0    0  0.00000000000E+00  0.00000000000E+00  0.45593999997E+02  0.45594000000E+02  0.51100000000E-03 0.  1.
         11   -1    0    0    0    0 -0.00000000000E+00 -0.00000000000E+00 -0.45593999997E+02  0.45594000000E+02  0.51100000000E-03 0. -1.
    9900012    2    1    2    0    0 -0.25658775722E+02 -0.14765916370E+02  0.11845438524E+02  0.59301961180E+02  0.50000031281E+02 0.  0.
         12    1    1    2    0    0  0.25658775722E+02  0.14765916370E+02 -0.11845438524E+02  0.31886038820E+02  0.00000000000E+00 0. -1.
         11    1    3    3    0    0 -0.16794079352E+02 -0.14346638159E+02  0.21932955488E+02  0.31127506557E+02  0.51100000000E-03 0. -1.
        -11    1    3    3    0    0 -0.55916646789E+01  0.10270876857E+02  0.18266814421E+01  0.11836147627E+02  0.51100000000E-03 0.  1.
         12    1    3    3    0    0 -0.32730316917E+01 -0.10690155068E+02 -0.11914198406E+02  0.16338306996E+02  0.00000000000E+00 0. -1.
</event>
<event>
 7    1  0.6061051E-012  0.5930195E+02  0.7816164E-02  0.1266605E+00
        -11   -1    0    0    0    0  0.00000000000E+00  0.00000000000E+00  0.45593999997E+02  0.45594000000E+02  0.51100000000E-03 0.  1.
         11   -1    0    0    0    0 -0.00000000000E+00 -0.00000000000E+00 -0.45593999997E+02  0.45594000000E+02  0.51100000000E-03 0. -1.
    9900012    2    1    2    0    0 -0.84489193270E+01  0.48235504199E+01  0.30365593054E+02  0.59301951045E+02  0.50000012798E+02 0.  0.
         12    1    1    2    0    0  0.84489193270E+01 -0.48235504199E+01 -0.30365593054E+02  0.31886048955E+02  0.00000000000E+00 0. -1.
         11    1    3    3    0    0  0.11972961641E+02  0.25269956990E+01 -0.79804556930E+00  0.12262723788E+02  0.51100000000E-03 0. -1.
        -11    1    3    3    0    0 -0.14318580157E+02  0.14790048975E+02  0.13750346895E+02  0.24755591820E+02  0.51100000000E-03 0.  1.
        -12    1    3    3    0    0 -0.61033008106E+01 -0.12493494254E+02  0.17413291728E+02  0.22283635437E+02  0.00000000000E+00 0.  1.
</event>
<event>
 7    1  0.6061051E-012  0.5930190E+02  0.7816164E-02  0.1266605E+00
        -11   -1    0    0    0    0  0.00000000000E+00  0.00000000000E+00  0.45593999997E+02  0.45594000000E+02  0.51100000000E-03 0.  1.
         11   -1    0    0    0    0 -0.00000000000E+00 -0.00000000000E+00 -0.45593999997E+02  0.45594000000E+02  0.51100000000E-03 0. -1.
    9900012    2    1    2    0    0  0.26757523001E+02 -0.17285198094E+02  0.14072817232E+01  0.59301897194E+02  0.49999914586E+02 0.  0.
         12    1    1    2    0    0 -0.26757523001E+02  0.17285198094E+02 -0.14072817232E+01  0.31886102806E+02  0.00000000000E+00 0. -1.
         11    1    3    3    0    0  0.14193100718E+02  0.20765283645E+01  0.15949581365E+02  0.21450995875E+02  0.51100000000E-03 0. -1.
        -11    1    3    3    0    0  0.78065750106E+01 -0.21704488232E+02 -0.75420384585E+00  0.23078046852E+02  0.51100000000E-03 0.  1.
         12    1    3    3    0    0  0.47578472724E+01  0.23427617733E+01 -0.13788095796E+02  0.14772854466E+02  0.00000000000E+00 0. -1.
</event>
<event>
 7    1  0.6061051E-012  0.5930178E+02  0.7816164E-02  0.1266605E+00
        -11   -1    0    0    0    0  0.00000000000E+00  0.00000000000E+00  0.45593999997E+02  0.45594000000E+02  0.51100000000E-03 0.  1.
         11   -1    0    0    0    0 -0.00000000000E+00 -0.00000000000E+00 -0.45593999997E+02  0.45594000000E+02  0.51100000000E-03 0. -1.
    9900012    2    1    2    0    0 -0.18529791939E+02  0.19958344599E+02  0.16584404081E+02  0.59301777785E+02  0.49999696812E+02 0.  0.
         12    1    1    2    0    0  0.18529791939E+02 -0.19958344599E+02 -0.16584404081E+02  0.31886222215E+02  0.00000000000E+00 0. -1.
         11    1    3    3    0    0 -0.36123953216E+01 -0.12216646847E+01 -0.10197038632E+02  0.10886756252E+02  0.51100000000E-03 0. -1.
        -11    1    3    3    0    0 -0.21613158924E+02  0.16374554775E+02  0.85899846491E+01  0.28443672746E+02  0.51100000000E-03 0.  1.
        -12    1    3    3    0    0  0.66957623064E+01  0.48054545081E+01  0.18191458064E+02  0.19971348787E+02  0.00000000000E+00 0.  1.
</event>
<event>
 7    1  0.6061051E-012  0.5930196E+02  0.7816164E-02  0.1266605E+00
        -11   -1    0    0    0    0  0.00000000000E+00  0.00000000000E+00  0.45593999997E+02  0.45594000000E+02  0.51100000000E-03 0.  1.
         11   -1    0    0    0    0 -0.00000000000E+00 -0.00000000000E+00 -0.45593999997E+02  0.45594000000E+02  0.51100000000E-03 0. -1.
    9900012    2    1    2    0    0 -0.15946793028E+01 -0.30387966873E+02  0.95261622371E+01  0.59301963876E+02  0.50000036198E+02 0.  0.
         12    1    1    2    0    0  0.15946793028E+01  0.30387966873E+02 -0.95261622371E+01  0.31886036124E+02  0.00000000000E+00 0. -1.
         11    1    3    3    0    0  0.28654128497E+01  0.67129385008E+01 -0.11178230080E+01  0.73840139933E+01  0.51100000000E-03 0. -1.
        -11    1    3    3    0    0  0.91344570459E+01 -0.21960435319E+02  0.18473056127E+02  0.30115657520E+02  0.51100000000E-03 0.  1.
        -12    1    3    3    0    0 -0.13594549198E+02 -0.15140470054E+02 -0.78290708818E+01  0.21802292362E+02  0.00000000000E+00 0.  1.
</event>
<event>
 7    1  0.6061051E-012  0.5930193E+02  0.7816164E-02  0.1266605E+00
        -11   -1    0    0    0    0  0.00000000000E+00  0.00000000000E+00  0.45593999997E+02  0.45594000000E+02  0.51100000000E-03 0. -1.
         11   -1    0    0    0    0 -0.00000000000E+00 -0.00000000000E+00 -0.45593999997E+02  0.45594000000E+02  0.51100000000E-03 0.  1.
    9900012    2    1    2    0    0 -0.18666464479E+02 -0.25513039597E+02 -0.41676427954E+01  0.59301932007E+02  0.49999978076E+02 0.  0.
         12    1    1    2    0    0  0.18666464479E+02  0.25513039597E+02  0.41676427954E+01  0.31886067993E+02  0.00000000000E+00 0. -1.
         11    1    3    3    0    0  0.72996907142E+01  0.42751594474E+01  0.23648319059E+01  0.87837863719E+01  0.51100000000E-03 0. -1.
        -11    1    3    3    0    0 -0.48471045653E+01 -0.65809332381E+01 -0.15809499469E+02  0.17797285711E+02  0.51100000000E-03 0.  1.
         12    1    3    3    0    0 -0.21119050627E+02 -0.23207265806E+02  0.92770247678E+01  0.32720859924E+02  0.00000000000E+00 0. -1.
</event>
<event>
 7    1  0.6061051E-012  0.5930197E+02  0.7816164E-02  0.1266605E+00
        -11   -1    0    0    0    0  0.00000000000E+00  0.00000000000E+00  0.45593999997E+02  0.45594000000E+02  0.51100000000E-03 0.  1.
         11   -1    0    0    0    0 -0.00000000000E+00 -0.00000000000E+00 -0.45593999997E+02  0.45594000000E+02  0.51100000000E-03 0. -1.
    9900012    2    1    2    0    0  0.25211885089E+02  0.19305368492E+02  0.28952066666E+01  0.59301974471E+02  0.50000055522E+02 0.  0.
         12    1    1    2    0    0 -0.25211885089E+02 -0.19305368492E+02 -0.28952066666E+01  0.31886025529E+02  0.00000000000E+00 0. -1.
         11    1    3    3    0    0  0.72335521775E+01  0.18201997046E+02 -0.88504186316E+01  0.21493414893E+02  0.51100000000E-03 0. -1.
        -11    1    3    3    0    0  0.63684120153E+01  0.86872049600E+01 -0.81848564162E+01  0.13528343447E+02  0.51100000000E-03 0.  1.
        -12    1    3    3    0    0  0.11609920897E+02 -0.75838335139E+01  0.19930481714E+02  0.24280216131E+02  0.00000000000E+00 0.  1.
</event>
<event>
 7    1  0.6061051E-012  0.5930188E+02  0.7816164E-02  0.1266605E+00
        -11   -1    0    0    0    0  0.00000000000E+00  0.00000000000E+00  0.45593999997E+02  0.45594000000E+02  0.51100000000E-03 0.  1.
         11   -1    0    0    0    0 -0.00000000000E+00 -0.00000000000E+00 -0.45593999997E+02  0.45594000000E+02  0.51100000000E-03 0. -1.
    9900012    2    1    2    0    0  0.20635331931E+02  0.36838833978E+01  0.24027829787E+02  0.59301881938E+02  0.49999886763E+02 0.  0.
         12    1    1    2    0    0 -0.20635331931E+02 -0.36838833978E+01 -0.24027829787E+02  0.31886118062E+02  0.00000000000E+00 0. -1.
         11    1    3    3    0    0  0.28417766250E+02 -0.36828066643E+01  0.63206843344E+01  0.29344225229E+02  0.51100000000E-03 0. -1.
        -11    1    3    3    0    0 -0.32030293741E+00  0.12501133603E+02  0.32892772278E+01  0.12930594738E+02  0.51100000000E-03 0.  1.
        -12    1    3    3    0    0 -0.74621313814E+01 -0.51344435410E+01  0.14417868225E+02  0.17027061971E+02  0.00000000000E+00 0.  1.
</event>
<event>
 7    1  0.6061051E-012  0.5930185E+02  0.7816164E-02  0.1266605E+00
        -11   -1    0    0    0    0  0.00000000000E+00  0.00000000000E+00  0.45593999997E+02  0.45594000000E+02  0.51100000000E-03 0.  1.
         11   -1    0    0    0    0 -0.00000000000E+00 -0.00000000000E+00 -0.45593999997E+02  0.45594000000E+02  0.51100000000E-03 0. -1.
    9900012    2    1    2    0    0 -0.13892882852E+02 -0.19029717912E+00  0.28699793498E+02  0.59301850126E+02  0.49999828746E+02 0.  0.
         12    1    1    2    0    0  0.13892882852E+02  0.19029717912E+00 -0.28699793498E+02  0.31886149874E+02  0.00000000000E+00 0. -1.
         11    1    3    3    0    0 -0.53097072448E+01 -0.16771118559E+02  0.16956478831E+02  0.24433288427E+02  0.51100000000E-03 0. -1.
        -11    1    3    3    0    0  0.30408632323E+01 -0.50200158368E+01 -0.26369057826E+01  0.64343360626E+01  0.51100000000E-03 0.  1.
        -12    1    3    3    0    0 -0.11624038840E+02  0.21600837216E+02  0.14380220450E+02  0.28434225637E+02  0.00000000000E+00 0.  1.
</event>
<event>
 7    1  0.6061051E-012  0.5930196E+02  0.7816164E-02  0.1266605E+00
        -11   -1    0    0    0    0  0.00000000000E+00  0.00000000000E+00  0.45593999997E+02  0.45594000000E+02  0.51100000000E-03 0.  1.
         11   -1    0    0    0    0 -0.00000000000E+00 -0.00000000000E+00 -0.45593999997E+02  0.45594000000E+02  0.51100000000E-03 0. -1.
    9900012    2    1    2    0    0 -0.14241229521E+02  0.20491006765E+02  0.19850082164E+02  0.59301956996E+02  0.50000023652E+02 0.  0.
         12    1    1    2    0    0  0.14241229521E+02 -0.20491006765E+02 -0.19850082164E+02  0.31886043004E+02  0.00000000000E+00 0. -1.
         11    1    3    3    0    0 -0.24494475653E+02  0.17847456117E+01 -0.74157487595E+00  0.24570604143E+02  0.51100000000E-03 0. -1.
        -11    1    3    3    0    0 -0.38680460870E+01  0.92695292801E+01  0.12152458153E+02  0.15766045574E+02  0.51100000000E-03 0.  1.
        -12    1    3    3    0    0  0.14121292219E+02  0.94367318732E+01  0.84391988868E+01  0.18965307280E+02  0.00000000000E+00 0.  1.
</event>
<event>
 7    1  0.6061051E-012  0.5930195E+02  0.7816164E-02  0.1266605E+00
        -11   -1    0    0    0    0  0.00000000000E+00  0.00000000000E+00  0.45593999997E+02  0.45594000000E+02  0.51100000000E-03 0.  1.
         11   -1    0    0    0    0 -0.00000000000E+00 -0.00000000000E+00 -0.45593999997E+02  0.45594000000E+02  0.51100000000E-03 0. -1.
    9900012    2    1    2    0    0 -0.12759197767E+02  0.27378254435E+02  0.10215403082E+02  0.59301946565E+02  0.50000004627E+02 0.  0.
         12    1    1    2    0    0  0.12759197767E+02 -0.27378254435E+02 -0.10215403082E+02  0.31886053435E+02  0.00000000000E+00 0. -1.
         11    1    3    3    0    0 -0.90984226810E+01 -0.30089189067E+01  0.11775157511E+02  0.15181871523E+02  0.51100000000E-03 0. -1.
        -11    1    3    3    0    0 -0.13343673839E+02  0.13712242581E+02  0.10050269147E+02  0.21612198831E+02  0.51100000000E-03 0.  1.
         12    1    3    3    0    0  0.96828987523E+01  0.16674930760E+02 -0.11610023576E+02  0.22507876211E+02  0.00000000000E+00 0. -1.
</event>
<event>
 7    1  0.6061051E-012  0.5930193E+02  0.7816164E-02  0.1266605E+00
        -11   -1    0    0    0    0  0.00000000000E+00  0.00000000000E+00  0.45593999997E+02  0.45594000000E+02  0.51100000000E-03 0.  1.
         11   -1    0    0    0    0 -0.00000000000E+00 -0.00000000000E+00 -0.45593999997E+02  0.45594000000E+02  0.51100000000E-03 0. -1.
    9900012    2    1    2    0    0  0.21055952478E+02 -0.79059803130E+01  0.22602292243E+02  0.59301932916E+02  0.49999979734E+02 0.  0.
         12    1    1    2    0    0 -0.21055952478E+02  0.79059803130E+01 -0.22602292243E+02  0.31886067084E+02  0.00000000000E+00 0. -1.
         11    1    3    3    0    0  0.94027608315E+01 -0.13769331303E+02 -0.30675104244E+01  0.16953348232E+02  0.51100000000E-03 0. -1.
        -11    1    3    3    0    0 -0.40772002531E+01 -0.94622810112E+01  0.14279967738E+02  0.17608969382E+02  0.51100000000E-03 0.  1.
        -12    1    3    3    0    0  0.15730391900E+02  0.15325632002E+02  0.11389834929E+02  0.24739615302E+02  0.00000000000E+00 0.  1.
</event>
<event>
 7    1  0.6061051E-012  0.5930192E+02  0.7816164E-02  0.1266605E+00
        -11   -1    0    0    0    0  0.00000000000E+00  0.00000000000E+00  0.45593999997E+02  0.45594000000E+02  0.51100000000E-03 0. -1.
         11   -1    0    0    0    0 -0.00000000000E+00 -0.00000000000E+00 -0.45593999997E+02  0.45594000000E+02  0.51100000000E-03 0.  1.
    9900012    2    1    2    0    0 -0.71657730256E+00  0.20847626269E+02 -0.24116072896E+02  0.59301921910E+02  0.49999959662E+02 0.  0.
         12    1    1    2    0    0  0.71657730256E+00 -0.20847626269E+02  0.24116072896E+02  0.31886078090E+02  0.00000000000E+00 0. -1.
         11    1    3    3    0    0  0.10738985422E+01  0.24336305356E+02 -0.14941207064E+00  0.24360446233E+02  0.51100000000E-03 0. -1.
        -11    1    3    3    0    0  0.67231967961E-01 -0.78971549705E+01  0.23135914151E+01  0.82293549117E+01  0.51100000000E-03 0.  1.
        -12    1    3    3    0    0 -0.18577078127E+01  0.44084758834E+01 -0.26280252240E+02  0.26712120765E+02  0.00000000000E+00 0.  1.
</event>
<event>
 7    1  0.6061051E-012  0.5930197E+02  0.7816164E-02  0.1266605E+00
        -11   -1    0    0    0    0  0.00000000000E+00  0.00000000000E+00  0.45593999997E+02  0.45594000000E+02  0.51100000000E-03 0.  1.
         11   -1    0    0    0    0 -0.00000000000E+00 -0.00000000000E+00 -0.45593999997E+02  0.45594000000E+02  0.51100000000E-03 0. -1.
    9900012    2    1    2    0    0  0.26076066198E+02  0.18336065427E+02  0.73906086582E+00  0.59301972736E+02  0.50000052357E+02 0.  0.
         12    1    1    2    0    0 -0.26076066198E+02 -0.18336065427E+02 -0.73906086582E+00  0.31886027264E+02  0.00000000000E+00 0. -1.
         11    1    3    3    0    0  0.19310673623E+02 -0.11079096853E+02 -0.63279286552E+01  0.23145003438E+02  0.51100000000E-03 0.  1.
        -11    1    3    3    0    0 -0.72559475837E+00  0.53485448423E+00  0.62449212933E+01  0.63096433571E+01  0.51100000000E-03 0. -1.
        -12    1    3    3    0    0  0.74909873340E+01  0.28880307796E+02  0.82206822766E+00  0.29847325940E+02  0.00000000000E+00 0.  1.
</event>
<event>
 7    1  0.6061051E-012  0.5930200E+02  0.7816164E-02  0.1266605E+00
        -11   -1    0    0    0    0  0.00000000000E+00  0.00000000000E+00  0.45593999997E+02  0.45594000000E+02  0.51100000000E-03 0.  1.
         11   -1    0    0    0    0 -0.00000000000E+00 -0.00000000000E+00 -0.45593999997E+02  0.45594000000E+02  0.51100000000E-03 0. -1.
    9900012    2    1    2    0    0 -0.24432671639E+02  0.77568987224E+01  0.18962918921E+02  0.59301996563E+02  0.50000095811E+02 0.  0.
         12    1    1    2    0    0  0.24432671639E+02 -0.77568987224E+01 -0.18962918921E+02  0.31886003437E+02  0.00000000000E+00 0. -1.
         11    1    3    3    0    0  0.10115891986E+02  0.13736958438E+02  0.31161242580E+01  0.17342016274E+02  0.51100000000E-03 0. -1.
        -11    1    3    3    0    0 -0.66854203248E+00  0.55932792856E+00  0.60197711899E+01  0.60825522292E+01  0.51100000000E-03 0.  1.
         12    1    3    3    0    0 -0.33880021592E+02 -0.65393876437E+01  0.98270234730E+01  0.35877428060E+02  0.00000000000E+00 0. -1.
</event>
<event>
 7    1  0.6061051E-012  0.5930176E+02  0.7816164E-02  0.1266605E+00
        -11   -1    0    0    0    0  0.00000000000E+00  0.00000000000E+00  0.45593999997E+02  0.45594000000E+02  0.51100000000E-03 0.  1.
         11   -1    0    0    0    0 -0.00000000000E+00 -0.00000000000E+00 -0.45593999997E+02  0.45594000000E+02  0.51100000000E-03 0. -1.
    9900012    2    1    2    0    0  0.94487532145E+01  0.28948414239E+02  0.94574061323E+01  0.59301762294E+02  0.49999668561E+02 0.  0.
         12    1    1    2    0    0 -0.94487532145E+01 -0.28948414239E+02 -0.94574061323E+01  0.31886237706E+02  0.00000000000E+00 0. -1.
         11    1    3    3    0    0  0.11207013733E+02 -0.73327666662E+01  0.33985909853E+01  0.13817273419E+02  0.51100000000E-03 0. -1.
        -11    1    3    3    0    0  0.75556521311E+01  0.34902942435E+01  0.77255157472E+01  0.11355775044E+02  0.51100000000E-03 0.  1.
        -12    1    3    3    0    0 -0.93139126493E+01  0.32790886662E+02 -0.16667006002E+01  0.34128713831E+02  0.00000000000E+00 0.  1.
</event>
<event>
 7    1  0.6061051E-012  0.5930197E+02  0.7816164E-02  0.1266605E+00
        -11   -1    0    0    0    0  0.00000000000E+00  0.00000000000E+00  0.45593999997E+02  0.45594000000E+02  0.51100000000E-03 0.  1.
         11   -1    0    0    0    0 -0.00000000000E+00 -0.00000000000E+00 -0.45593999997E+02  0.45594000000E+02  0.51100000000E-03 0. -1.
    9900012    2    1    2    0    0  0.23539616178E+00 -0.35780030535E+01  0.31683769886E+02  0.59301971847E+02  0.50000050736E+02 0.  0.
         12    1    1    2    0    0 -0.23539616178E+00  0.35780030535E+01 -0.31683769886E+02  0.31886028153E+02  0.00000000000E+00 0. -1.
         11    1    3    3    0    0  0.99211538422E+01 -0.12140198744E+02 -0.25232625404E+01  0.15880194369E+02  0.51100000000E-03 0. -1.
        -11    1    3    3    0    0 -0.12422534471E+02 -0.45138952586E+01  0.19450065154E+02  0.23515944545E+02  0.51100000000E-03 0.  1.
        -12    1    3    3    0    0  0.27367767901E+01  0.13076090949E+02  0.14756967272E+02  0.19905832933E+02  0.00000000000E+00 0.  1.
</event>
<event>
 7    1  0.6061051E-012  0.5930193E+02  0.7816164E-02  0.1266605E+00
        -11   -1    0    0    0    0  0.00000000000E+00  0.00000000000E+00  0.45593999997E+02  0.45594000000E+02  0.51100000000E-03 0. -1.
         11   -1    0    0    0    0 -0.00000000000E+00 -0.00000000000E+00 -0.45593999997E+02  0.45594000000E+02  0.51100000000E-03 0.  1.
    9900012    2    1    2    0    0  0.26067449100E+02 -0.11082949864E+02 -0.14641648195E+02  0.59301928713E+02  0.49999972069E+02 0.  0.
         12    1    1    2    0    0 -0.26067449100E+02  0.11082949864E+02  0.14641648195E+02  0.31886071287E+02  0.00000000000E+00 0. -1.
         11    1    3    3    0    0  0.15746846781E+02  0.56114106044E+01 -0.33340761347E+01  0.17046031105E+02  0.51100000000E-03 0. -1.
        -11    1    3    3    0    0  0.97534820190E+01  0.46788991118E-01 -0.20820861176E+02  0.22992191306E+02  0.51100000000E-03 0.  1.
         12    1    3    3    0    0  0.56712030008E+00 -0.16741149460E+02  0.95132891151E+01  0.19263706301E+02  0.00000000000E+00 0. -1.
</event>
<event>
 7    1  0.6061051E-012  0.5930193E+02  0.7816164E-02  0.1266605E+00
        -11   -1    0    0    0    0  0.00000000000E+00  0.00000000000E+00  0.45593999997E+02  0.45594000000E+02  0.51100000000E-03 0. -1.
         11   -1    0    0    0    0 -0.00000000000E+00 -0.00000000000E+00 -0.45593999997E+02  0.45594000000E+02  0.51100000000E-03 0.  1.
    9900012    2    1    2    0    0 -0.31649055228E+02  0.29410836072E+01 -0.25315238689E+01  0.59301932781E+02  0.49999979489E+02 0.  0.
         12    1    1    2    0    0  0.31649055228E+02 -0.29410836072E+01  0.25315238689E+01  0.31886067219E+02  0.00000000000E+00 0. -1.
         11    1    3    3    0    0 -0.17731827308E+02  0.16744118883E+02  0.12145306748E+02  0.27245030613E+02  0.51100000000E-03 0. -1.
        -11    1    3    3    0    0  0.41520524933E+01 -0.63772561897E+01  0.20744546965E-01  0.76098204324E+01  0.51100000000E-03 0.  1.
        -12    1    3    3    0    0 -0.18069280413E+02 -0.74257790858E+01 -0.14697575164E+02  0.24447081736E+02  0.00000000000E+00 0.  1.
</event>
<event>
 7    1  0.6061051E-012  0.5930189E+02  0.7816164E-02  0.1266605E+00
        -11   -1    0    0    0    0  0.00000000000E+00  0.00000000000E+00  0.45593999997E+02  0.45594000000E+02  0.51100000000E-03 0. -1.
         11   -1    0    0    0    0 -0.00000000000E+00 -0.00000000000E+00 -0.45593999997E+02  0.45594000000E+02  0.51100000000E-03 0.  1.
    9900012    2    1    2    0    0 -0.56390136482E+01  0.30613897594E+02 -0.69075733786E+01  0.59301893766E+02  0.49999908334E+02 0.  0.
         12    1    1    2    0    0  0.56390136482E+01 -0.30613897594E+02  0.69075733786E+01  0.31886106234E+02  0.00000000000E+00 0. -1.
         11    1    3    3    0    0 -0.20803337233E+02  0.49388228650E+01 -0.17274069446E+02  0.27487529660E+02  0.51100000000E-03 0. -1.
        -11    1    3    3    0    0  0.95911391918E+01  0.12375172480E+02  0.52747461801E+01  0.16521434333E+02  0.51100000000E-03 0.  1.
        -12    1    3    3    0    0  0.55731843926E+01  0.13299902249E+02  0.50917498877E+01  0.15292929772E+02  0.00000000000E+00 0.  1.
</event>
<event>
 7    1  0.6061051E-012  0.5930193E+02  0.7816164E-02  0.1266605E+00
        -11   -1    0    0    0    0  0.00000000000E+00  0.00000000000E+00  0.45593999997E+02  0.45594000000E+02  0.51100000000E-03 0.  1.
         11   -1    0    0    0    0 -0.00000000000E+00 -0.00000000000E+00 -0.45593999997E+02  0.45594000000E+02  0.51100000000E-03 0. -1.
    9900012    2    1    2    0    0 -0.12997923022E+02 -0.28076791853E+02 -0.77116348721E+01  0.59301928495E+02  0.49999971672E+02 0.  0.
         12    1    1    2    0    0  0.12997923022E+02  0.28076791853E+02  0.77116348721E+01  0.31886071505E+02  0.00000000000E+00 0. -1.
         11    1    3    3    0    0 -0.77989749620E+01 -0.10742582516E+02 -0.66080389755E-01  0.13275219638E+02  0.51100000000E-03 0. -1.
        -11    1    3    3    0    0  0.13744472824E+01 -0.24125838098E+01  0.16587749480E+02  0.16818534391E+02  0.51100000000E-03 0.  1.
         12    1    3    3    0    0 -0.65733953421E+01 -0.14921625527E+02 -0.24233303963E+02  0.29208174466E+02  0.00000000000E+00 0. -1.
</event>
<event>
 7    1  0.6061051E-012  0.5930194E+02  0.7816164E-02  0.1266605E+00
        -11   -1    0    0    0    0  0.00000000000E+00  0.00000000000E+00  0.45593999997E+02  0.45594000000E+02  0.51100000000E-03 0.  1.
         11   -1    0    0    0    0 -0.00000000000E+00 -0.00000000000E+00 -0.45593999997E+02  0.45594000000E+02  0.51100000000E-03 0. -1.
    9900012    2    1    2    0    0 -0.69000967906E+01  0.66873897017E+01  0.30403750349E+02  0.59301944239E+02  0.50000000385E+02 0.  0.
         12    1    1    2    0    0  0.69000967906E+01 -0.66873897017E+01 -0.30403750349E+02  0.31886055761E+02  0.00000000000E+00 0. -1.
         11    1    3    3    0    0 -0.11935270447E+02  0.80110514073E+01  0.26118295373E+02  0.29812631195E+02  0.51100000000E-03 0. -1.
        -11    1    3    3    0    0 -0.11864809232E+02 -0.19307966619E+01  0.36645064344E+01  0.12567031532E+02  0.51100000000E-03 0.  1.
         12    1    3    3    0    0  0.16899982888E+02  0.60713495628E+00  0.62094854115E+00  0.16922281512E+02  0.00000000000E+00 0. -1.
</event>
<event>
 7    1  0.6061051E-012  0.5930194E+02  0.7816164E-02  0.1266605E+00
        -11   -1    0    0    0    0  0.00000000000E+00  0.00000000000E+00  0.45593999997E+02  0.45594000000E+02  0.51100000000E-03 0.  1.
         11   -1    0    0    0    0 -0.00000000000E+00 -0.00000000000E+00 -0.45593999997E+02  0.45594000000E+02  0.51100000000E-03 0. -1.
    9900012    2    1    2    0    0  0.29563670728E+02 -0.61197391213E+01  0.10259567341E+02  0.59301944179E+02  0.50000000275E+02 0.  0.
         12    1    1    2    0    0 -0.29563670728E+02  0.61197391213E+01 -0.10259567341E+02  0.31886055821E+02  0.00000000000E+00 0. -1.
         11    1    3    3    0    0  0.17304888979E+02 -0.11636478409E+02 -0.11309185139E+02  0.23722657548E+02  0.51100000000E-03 0. -1.
        -11    1    3    3    0    0  0.73344372104E+01  0.12801930805E+02  0.30317384894E+01  0.15062365023E+02  0.51100000000E-03 0.  1.
         12    1    3    3    0    0  0.49243445382E+01 -0.72851915174E+01  0.18537013991E+02  0.20516921608E+02  0.00000000000E+00 0. -1.
</event>
<event>
 7    1  0.6061051E-012  0.5930201E+02  0.7816164E-02  0.1266605E+00
        -11   -1    0    0    0    0  0.00000000000E+00  0.00000000000E+00  0.45593999997E+02  0.45594000000E+02  0.51100000000E-03 0.  1.
         11   -1    0    0    0    0 -0.00000000000E+00 -0.00000000000E+00 -0.45593999997E+02  0.45594000000E+02  0.51100000000E-03 0. -1.
    9900012    2    1    2    0    0 -0.16358877013E+02  0.27366482469E+02 -0.42305151714E+00  0.59302012600E+02  0.50000125060E+02 0.  0.
         12    1    1    2    0    0  0.16358877013E+02 -0.27366482469E+02  0.42305151714E+00  0.31885987400E+02  0.00000000000E+00 0. -1.
         11    1    3    3    0    0 -0.11413218206E+02  0.25317932294E+02 -0.92111207588E+01  0.29259254798E+02  0.51100000000E-03 0. -1.
        -11    1    3    3    0    0  0.49296642799E+01 -0.37720946873E+00 -0.85882171994E+01  0.99096595209E+01  0.51100000000E-03 0.  1.
        -12    1    3    3    0    0 -0.98753230864E+01  0.24257596442E+01  0.17376286441E+02  0.20133098281E+02  0.00000000000E+00 0.  1.
</event>
<event>
 7    1  0.6061051E-012  0.5930194E+02  0.7816164E-02  0.1266605E+00
        -11   -1    0    0    0    0  0.00000000000E+00  0.00000000000E+00  0.45593999997E+02  0.45594000000E+02  0.51100000000E-03 0.  1.
         11   -1    0    0    0    0 -0.00000000000E+00 -0.00000000000E+00 -0.45593999997E+02  0.45594000000E+02  0.51100000000E-03 0. -1.
    9900012    2    1    2    0    0  0.28239050194E+02 -0.30591927505E+01  0.14488559531E+02  0.59301937631E+02  0.49999988334E+02 0.  0.
         12    1    1    2    0    0 -0.28239050194E+02  0.30591927505E+01 -0.14488559531E+02  0.31886062369E+02  0.00000000000E+00 0. -1.
         11    1    3    3    0    0  0.89057886102E+01 -0.10092061116E+02 -0.94316200024E+01  0.16435273787E+02  0.51100000000E-03 0. -1.
        -11    1    3    3    0    0 -0.46079948158E+01 -0.65177511335E+01  0.42089367804E+01  0.90238486880E+01  0.51100000000E-03 0.  1.
         12    1    3    3    0    0  0.23941256399E+02  0.13550619499E+02  0.19711242753E+02  0.33842815155E+02  0.00000000000E+00 0. -1.
</event>
<event>
 7    1  0.6061051E-012  0.5930191E+02  0.7816164E-02  0.1266605E+00
        -11   -1    0    0    0    0  0.00000000000E+00  0.00000000000E+00  0.45593999997E+02  0.45594000000E+02  0.51100000000E-03 0. -1.
         11   -1    0    0    0    0 -0.00000000000E+00 -0.00000000000E+00 -0.45593999997E+02  0.45594000000E+02  0.51100000000E-03 0.  1.
    9900012    2    1    2    0    0 -0.27472989712E+02 -0.14341487154E+02  0.75019694418E+01  0.59301906432E+02  0.49999931434E+02 0.  0.
         12    1    1    2    0    0  0.27472989712E+02  0.14341487154E+02 -0.75019694418E+01  0.31886093568E+02  0.00000000000E+00 0. -1.
         11    1    3    3    0    0  0.59117295909E+01 -0.21776245146E+01  0.14259162616E+01  0.64593987900E+01  0.51100000000E-03 0. -1.
        -11    1    3    3    0    0 -0.61218579716E+01  0.13613057555E+02  0.27328121734E+01  0.15174344916E+02  0.51100000000E-03 0.  1.
        -12    1    3    3    0    0 -0.27262861331E+02 -0.25776920194E+02  0.33432410068E+01  0.37668162725E+02  0.00000000000E+00 0.  1.
</event>
<event>
 7    1  0.6061051E-012  0.5930195E+02  0.7816164E-02  0.1266605E+00
        -11   -1    0    0    0    0  0.00000000000E+00  0.00000000000E+00  0.45593999997E+02  0.45594000000E+02  0.51100000000E-03 0. -1.
         11   -1    0    0    0    0 -0.00000000000E+00 -0.00000000000E+00 -0.45593999997E+02  0.45594000000E+02  0.51100000000E-03 0.  1.
    9900012    2    1    2    0    0  0.67442923852E+01 -0.17480512442E+02 -0.25800511106E+02  0.59301950255E+02  0.50000011357E+02 0.  0.
         12    1    1    2    0    0 -0.67442923852E+01  0.17480512442E+02  0.25800511106E+02  0.31886049745E+02  0.00000000000E+00 0. -1.
         11    1    3    3    0    0 -0.66636073148E+01 -0.16801844693E+01 -0.30957477051E-01  0.68722369664E+01  0.51100000000E-03 0. -1.
        -11    1    3    3    0    0 -0.68575796196E+01  0.95273334399E+01 -0.13141757703E+02  0.17621074783E+02  0.51100000000E-03 0.  1.
         12    1    3    3    0    0  0.20265479320E+02 -0.25327661413E+02 -0.12627795926E+02  0.34808638506E+02  0.00000000000E+00 0. -1.
</event>
<event>
 7    1  0.6061051E-012  0.5930190E+02  0.7816164E-02  0.1266605E+00
        -11   -1    0    0    0    0  0.00000000000E+00  0.00000000000E+00  0.45593999997E+02  0.45594000000E+02  0.51100000000E-03 0.  1.
         11   -1    0    0    0    0 -0.00000000000E+00 -0.00000000000E+00 -0.45593999997E+02  0.45594000000E+02  0.51100000000E-03 0. -1.
    9900012    2    1    2    0    0 -0.87528007590E+01 -0.25543571498E+02  0.16959887872E+02  0.59301900166E+02  0.49999920007E+02 0.  0.
         12    1    1    2    0    0  0.87528007590E+01  0.25543571498E+02 -0.16959887872E+02  0.31886099834E+02  0.00000000000E+00 0. -1.
         11    1    3    3    0    0  0.41446024382E+01  0.90165616266E+01 -0.65130622625E+01  0.11869966016E+02  0.51100000000E-03 0. -1.
        -11    1    3    3    0    0 -0.43582033256E+01 -0.22409812789E+02  0.43845124432E+01  0.23246883557E+02  0.51100000000E-03 0.  1.
        -12    1    3    3    0    0 -0.85391998716E+01 -0.12150320336E+02  0.19088437691E+02  0.24185050593E+02  0.00000000000E+00 0.  1.
</event>
<event>
 7    1  0.6061051E-012  0.5930197E+02  0.7816164E-02  0.1266605E+00
        -11   -1    0    0    0    0  0.00000000000E+00  0.00000000000E+00  0.45593999997E+02  0.45594000000E+02  0.51100000000E-03 0.  1.
         11   -1    0    0    0    0 -0.00000000000E+00 -0.00000000000E+00 -0.45593999997E+02  0.45594000000E+02  0.51100000000E-03 0. -1.
    9900012    2    1    2    0    0 -0.96936918404E+01  0.18224926118E+02  0.24302325569E+02  0.59301974510E+02  0.50000055592E+02 0.  0.
         12    1    1    2    0    0  0.96936918404E+01 -0.18224926118E+02 -0.24302325569E+02  0.31886025490E+02  0.00000000000E+00 0. -1.
         11    1    3    3    0    0 -0.26703094294E+00  0.83159240461E+01  0.20359328578E+02  0.21993820921E+02  0.51100000000E-03 0.  1.
        -11    1    3    3    0    0  0.73596203910E+01  0.17218901830E+02  0.30937825926E+01  0.18979622850E+02  0.51100000000E-03 0. -1.
        -12    1    3    3    0    0 -0.16786281288E+02 -0.73098997585E+01  0.84921439814E+00  0.18328530739E+02  0.00000000000E+00 0.  1.
</event>
<event>
 7    1  0.6061051E-012  0.5930195E+02  0.7816164E-02  0.1266605E+00
        -11   -1    0    0    0    0  0.00000000000E+00  0.00000000000E+00  0.45593999997E+02  0.45594000000E+02  0.51100000000E-03 0. -1.
         11   -1    0    0    0    0 -0.00000000000E+00 -0.00000000000E+00 -0.45593999997E+02  0.45594000000E+02  0.51100000000E-03 0.  1.
    9900012    2    1    2    0    0  0.92615472730E+01 -0.24418710478E+02 -0.18294007254E+02  0.59301946925E+02  0.50000005284E+02 0.  0.
         12    1    1    2    0    0 -0.92615472730E+01  0.24418710478E+02  0.18294007254E+02  0.31886053075E+02  0.00000000000E+00 0. -1.
         11    1    3    3    0    0  0.14999741696E-01 -0.94808455031E+01 -0.64392144655E+01  0.11460808856E+02  0.51100000000E-03 0. -1.
        -11    1    3    3    0    0  0.18497373586E+02 -0.15979808378E+01 -0.21931019312E+02  0.28734578136E+02  0.51100000000E-03 0.  1.
         12    1    3    3    0    0 -0.92508260548E+01 -0.13339884137E+02  0.10076226524E+02  0.19106559932E+02  0.00000000000E+00 0. -1.
</event>
<event>
 7    1  0.6061051E-012  0.5930193E+02  0.7816164E-02  0.1266605E+00
        -11   -1    0    0    0    0  0.00000000000E+00  0.00000000000E+00  0.45593999997E+02  0.45594000000E+02  0.51100000000E-03 0. -1.
         11   -1    0    0    0    0 -0.00000000000E+00 -0.00000000000E+00 -0.45593999997E+02  0.45594000000E+02  0.51100000000E-03 0.  1.
    9900012    2    1    2    0    0 -0.50042645105E+01  0.27661070436E+01 -0.31369207065E+02  0.59301934653E+02  0.49999982902E+02 0.  0.
         12    1    1    2    0    0  0.50042645105E+01 -0.27661070436E+01  0.31369207065E+02  0.31886065347E+02  0.00000000000E+00 0. -1.
         11    1    3    3    0    0  0.11524108713E+02 -0.10145853171E+02 -0.34030041399E+02  0.37333458668E+02  0.51100000000E-03 0. -1.
        -11    1    3    3    0    0 -0.61056895871E+01  0.61602238043E+01 -0.16385715110E+01  0.88268181986E+01  0.51100000000E-03 0.  1.
        -12    1    3    3    0    0 -0.10422683637E+02  0.67517364105E+01  0.42994058454E+01  0.13141657786E+02  0.00000000000E+00 0.  1.
</event>
<event>
 7    1  0.6061051E-012  0.5930195E+02  0.7816164E-02  0.1266605E+00
        -11   -1    0    0    0    0  0.00000000000E+00  0.00000000000E+00  0.45593999997E+02  0.45594000000E+02  0.51100000000E-03 0.  1.
         11   -1    0    0    0    0 -0.00000000000E+00 -0.00000000000E+00 -0.45593999997E+02  0.45594000000E+02  0.51100000000E-03 0. -1.
    9900012    2    1    2    0    0 -0.16165979310E+02 -0.18465759568E+02  0.20356738071E+02  0.59301953704E+02  0.50000017648E+02 0.  0.
         12    1    1    2    0    0  0.16165979310E+02  0.18465759568E+02 -0.20356738071E+02  0.31886046296E+02  0.00000000000E+00 0. -1.
         11    1    3    3    0    0  0.65680246384E+01  0.12037640533E+01  0.53938902721E+01  0.85838247929E+01  0.51100000000E-03 0.  1.
        -11    1    3    3    0    0 -0.17614330899E+02 -0.18369132560E+02 -0.83731409812E+01  0.26791774375E+02  0.51100000000E-03 0. -1.
         12    1    3    3    0    0 -0.51196730494E+01 -0.13003910612E+01  0.23335988781E+02  0.23926354537E+02  0.00000000000E+00 0. -1.
</event>
<event>
 7    1  0.6061051E-012  0.5930195E+02  0.7816164E-02  0.1266605E+00
        -11   -1    0    0    0    0  0.00000000000E+00  0.00000000000E+00  0.45593999997E+02  0.45594000000E+02  0.51100000000E-03 0. -1.
         11   -1    0    0    0    0 -0.00000000000E+00 -0.00000000000E+00 -0.45593999997E+02  0.45594000000E+02  0.51100000000E-03 0.  1.
    9900012    2    1    2    0    0  0.13685189140E+02  0.17904985241E+02 -0.22557649461E+02  0.59301945878E+02  0.50000003374E+02 0.  0.
         12    1    1    2    0    0 -0.13685189140E+02 -0.17904985241E+02  0.22557649461E+02  0.31886054122E+02  0.00000000000E+00 0. -1.
         11    1    3    3    0    0 -0.13402993058E+02  0.12693465620E+02 -0.13829789304E+02  0.23065718389E+02  0.51100000000E-03 0. -1.
        -11    1    3    3    0    0 -0.71365105202E+00 -0.86268591282E+00 -0.76780164701E+01  0.77592178719E+01  0.51100000000E-03 0.  1.
         12    1    3    3    0    0  0.27801833250E+02  0.60742055333E+01 -0.10498436877E+01  0.28477009617E+02  0.00000000000E+00 0. -1.
</event>
<event>
 7    1  0.6061051E-012  0.5930194E+02  0.7816164E-02  0.1266605E+00
        -11   -1    0    0    0    0  0.00000000000E+00  0.00000000000E+00  0.45593999997E+02  0.45594000000E+02  0.51100000000E-03 0. -1.
         11   -1    0    0    0    0 -0.00000000000E+00 -0.00000000000E+00 -0.45593999997E+02  0.45594000000E+02  0.51100000000E-03 0.  1.
    9900012    2    1    2    0    0 -0.28136086979E+02 -0.13027513077E+02  0.74407802733E+01  0.59301941941E+02  0.49999996195E+02 0.  0.
         12    1    1    2    0    0  0.28136086979E+02  0.13027513077E+02 -0.74407802733E+01  0.31886058059E+02  0.00000000000E+00 0. -1.
         11    1    3    3    0    0 -0.13796389060E+02  0.75984453729E+01 -0.83584357103E+01  0.17830876898E+02  0.51100000000E-03 0. -1.
        -11    1    3    3    0    0 -0.12042034747E+02  0.11341611202E+01 -0.31792556973E+01  0.12506182045E+02  0.51100000000E-03 0.  1.
         12    1    3    3    0    0 -0.22976631724E+01 -0.21760119570E+02  0.18978471681E+02  0.28964882998E+02  0.00000000000E+00 0. -1.
</event>
<event>
 7    1  0.6061051E-012  0.5930194E+02  0.7816164E-02  0.1266605E+00
        -11   -1    0    0    0    0  0.00000000000E+00  0.00000000000E+00  0.45593999997E+02  0.45594000000E+02  0.51100000000E-03 0. -1.
         11   -1    0    0    0    0 -0.00000000000E+00 -0.00000000000E+00 -0.45593999997E+02  0.45594000000E+02  0.51100000000E-03 0.  1.
    9900012    2    1    2    0    0 -0.26291614171E+02 -0.17841839238E+02  0.26721646272E+01  0.59301942437E+02  0.49999997099E+02 0.  0.
         12    1    1    2    0    0  0.26291614171E+02  0.17841839238E+02 -0.26721646272E+01  0.31886057563E+02  0.00000000000E+00 0. -1.
         11    1    3    3    0    0  0.37308414952E+00 -0.63519225917E+01 -0.54753742142E+01  0.83943930954E+01  0.51100000000E-03 0. -1.
        -11    1    3    3    0    0 -0.24961950579E+02 -0.25754835706E+02  0.64416728469E+01  0.36440440286E+02  0.51100000000E-03 0.  1.
         12    1    3    3    0    0 -0.17027477411E+01  0.14264919059E+02  0.17058659946E+01  0.14467109055E+02  0.00000000000E+00 0. -1.
</event>
<event>
 7    1  0.6061051E-012  0.5930194E+02  0.7816164E-02  0.1266605E+00
        -11   -1    0    0    0    0  0.00000000000E+00  0.00000000000E+00  0.45593999997E+02  0.45594000000E+02  0.51100000000E-03 0.  1.
         11   -1    0    0    0    0 -0.00000000000E+00 -0.00000000000E+00 -0.45593999997E+02  0.45594000000E+02  0.51100000000E-03 0. -1.
    9900012    2    1    2    0    0  0.13748309829E+02  0.27131634812E+02  0.95697160570E+01  0.59301935707E+02  0.49999984825E+02 0.  0.
         12    1    1    2    0    0 -0.13748309829E+02 -0.27131634812E+02 -0.95697160570E+01  0.31886064293E+02  0.00000000000E+00 0. -1.
         11    1    3    3    0    0  0.11343260246E+02 -0.82559552874E+00  0.87946042566E+00  0.11407217535E+02  0.51100000000E-03 0. -1.
        -11    1    3    3    0    0  0.35730327142E+01 -0.43146947263E+01  0.14081320084E+02  0.15154759283E+02  0.51100000000E-03 0.  1.
         12    1    3    3    0    0 -0.11679831316E+01  0.32271925067E+02 -0.53910644529E+01  0.32739958889E+02  0.00000000000E+00 0. -1.
</event>
<event>
 7    1  0.6061051E-012  0.5930195E+02  0.7816164E-02  0.1266605E+00
        -11   -1    0    0    0    0  0.00000000000E+00  0.00000000000E+00  0.45593999997E+02  0.45594000000E+02  0.51100000000E-03 0. -1.
         11   -1    0    0    0    0 -0.00000000000E+00 -0.00000000000E+00 -0.45593999997E+02  0.45594000000E+02  0.51100000000E-03 0.  1.
    9900012    2    1    2    0    0 -0.25828784426E+01 -0.79488817837E+01 -0.30771155270E+02  0.59301953219E+02  0.50000016762E+02 0.  0.
         12    1    1    2    0    0  0.25828784426E+01  0.79488817837E+01  0.30771155270E+02  0.31886046781E+02  0.00000000000E+00 0. -1.
         11    1    3    3    0    0 -0.41799976314E-01 -0.24359152163E+02 -0.47740890892E+01  0.24822610021E+02  0.51100000000E-03 0. -1.
        -11    1    3    3    0    0  0.14489253312E+01 -0.19999168759E+01 -0.82016767265E+01  0.85654278067E+01  0.51100000000E-03 0.  1.
        -12    1    3    3    0    0 -0.39900037975E+01  0.18410187255E+02 -0.17795389455E+02  0.25913915392E+02  0.00000000000E+00 0.  1.
</event>
<event>
 7    1  0.6061051E-012  0.5930196E+02  0.7816164E-02  0.1266605E+00
        -11   -1    0    0    0    0  0.00000000000E+00  0.00000000000E+00  0.45593999997E+02  0.45594000000E+02  0.51100000000E-03 0.  1.
         11   -1    0    0    0    0 -0.00000000000E+00 -0.00000000000E+00 -0.45593999997E+02  0.45594000000E+02  0.51100000000E-03 0. -1.
    9900012    2    1    2    0    0  0.10051916949E+02  0.30046205835E+02 -0.35922494552E+01  0.59301956414E+02  0.50000022590E+02 0.  0.
         12    1    1    2    0    0 -0.10051916949E+02 -0.30046205835E+02  0.35922494552E+01  0.31886043586E+02  0.00000000000E+00 0. -1.
         11    1    3    3    0    0  0.12234723565E+02  0.10433165399E+02  0.38543966028E+01  0.16534683982E+02  0.51100000000E-03 0. -1.
        -11    1    3    3    0    0 -0.68347937042E+01  0.13252202806E+02  0.13669572779E+02  0.20228507222E+02  0.51100000000E-03 0.  1.
         12    1    3    3    0    0  0.46519870883E+01  0.63608376293E+01 -0.21116218837E+02  0.22538765210E+02  0.00000000000E+00 0. -1.
</event>
<event>
 7    1  0.6061051E-012  0.5930182E+02  0.7816164E-02  0.1266605E+00
        -11   -1    0    0    0    0  0.00000000000E+00  0.00000000000E+00  0.45593999997E+02  0.45594000000E+02  0.51100000000E-03 0.  1.
         11   -1    0    0    0    0 -0.00000000000E+00 -0.00000000000E+00 -0.45593999997E+02  0.45594000000E+02  0.51100000000E-03 0. -1.
    9900012    2    1    2    0    0  0.14893435731E+01 -0.31266670177E+02  0.60749842597E+01  0.59301823654E+02  0.49999780466E+02 0.  0.
         12    1    1    2    0    0 -0.14893435731E+01  0.31266670177E+02 -0.60749842597E+01  0.31886176346E+02  0.00000000000E+00 0. -1.
         11    1    3    3    0    0  0.68566822611E+00 -0.34661589808E+00  0.13129311515E+02  0.13151771919E+02  0.51100000000E-03 0.  1.
        -11    1    3    3    0    0 -0.16041017488E+02 -0.10849538001E+02 -0.20478709703E+01  0.19473584484E+02  0.51100000000E-03 0. -1.
        -12    1    3    3    0    0  0.16844692835E+02 -0.20070516279E+02 -0.50064562852E+01  0.26676467250E+02  0.00000000000E+00 0.  1.
</event>
<event>
 7    1  0.6061051E-012  0.5930196E+02  0.7816164E-02  0.1266605E+00
        -11   -1    0    0    0    0  0.00000000000E+00  0.00000000000E+00  0.45593999997E+02  0.45594000000E+02  0.51100000000E-03 0.  1.
         11   -1    0    0    0    0 -0.00000000000E+00 -0.00000000000E+00 -0.45593999997E+02  0.45594000000E+02  0.51100000000E-03 0. -1.
    9900012    2    1    2    0    0 -0.48289877375E+01 -0.40522264521E+01  0.31256673951E+02  0.59301963428E+02  0.50000035381E+02 0.  0.
         12    1    1    2    0    0  0.48289877375E+01  0.40522264521E+01 -0.31256673951E+02  0.31886036572E+02  0.00000000000E+00 0. -1.
         11    1    3    3    0    0 -0.97934307827E+01  0.33470378026E+01  0.53656846713E+01  0.11657809434E+02  0.51100000000E-03 0. -1.
        -11    1    3    3    0    0  0.14626278774E+02 -0.19407219875E+02  0.18552171763E+02  0.30573702612E+02  0.51100000000E-03 0.  1.
         12    1    3    3    0    0 -0.96618357284E+01  0.12007955620E+02  0.73388175173E+01  0.17070451382E+02  0.00000000000E+00 0. -1.
</event>
<event>
 7    1  0.6061051E-012  0.5930196E+02  0.7816164E-02  0.1266605E+00
        -11   -1    0    0    0    0  0.00000000000E+00  0.00000000000E+00  0.45593999997E+02  0.45594000000E+02  0.51100000000E-03 0.  1.
         11   -1    0    0    0    0 -0.00000000000E+00 -0.00000000000E+00 -0.45593999997E+02  0.45594000000E+02  0.51100000000E-03 0. -1.
    9900012    2    1    2    0    0 -0.19328135103E+02  0.25332815956E+02  0.11796108559E+01  0.59301955206E+02  0.50000020386E+02 0.  0.
         12    1    1    2    0    0  0.19328135103E+02 -0.25332815956E+02 -0.11796108559E+01  0.31886044794E+02  0.00000000000E+00 0. -1.
         11    1    3    3    0    0 -0.38060054329E+01  0.26704820887E+01 -0.12269813002E+02  0.13121183762E+02  0.51100000000E-03 0. -1.
        -11    1    3    3    0    0 -0.11161391875E+02 -0.60150003001E+01  0.11484947514E+02  0.17107335177E+02  0.51100000000E-03 0.  1.
         12    1    3    3    0    0 -0.43607377956E+01  0.28677334168E+02  0.19644763442E+01  0.29073436267E+02  0.00000000000E+00 0. -1.
</event>
<event>
 7    1  0.6061051E-012  0.5930195E+02  0.7816164E-02  0.1266605E+00
        -11   -1    0    0    0    0  0.00000000000E+00  0.00000000000E+00  0.45593999997E+02  0.45594000000E+02  0.51100000000E-03 0. -1.
         11   -1    0    0    0    0 -0.00000000000E+00 -0.00000000000E+00 -0.45593999997E+02  0.45594000000E+02  0.51100000000E-03 0.  1.
    9900012    2    1    2    0    0 -0.40171649209E+01  0.15885272877E+01 -0.31592078738E+02  0.59301945494E+02  0.50000002674E+02 0.  0.
         12    1    1    2    0    0  0.40171649209E+01 -0.15885272877E+01  0.31592078738E+02  0.31886054506E+02  0.00000000000E+00 0. -1.
         11    1    3    3    0    0 -0.14245250212E+02 -0.26031923718E+01 -0.45182636194E+01  0.15169656243E+02  0.51100000000E-03 0. -1.
        -11    1    3    3    0    0 -0.46880203636E+01 -0.11414659253E+02 -0.51734465080E+01  0.13380453275E+02  0.51100000000E-03 0.  1.
        -12    1    3    3    0    0  0.14916105654E+02  0.15606378913E+02 -0.21900368611E+02  0.30751835977E+02  0.00000000000E+00 0.  1.
</event>
<event>
 7    1  0.6061051E-012  0.5930196E+02  0.7816164E-02  0.1266605E+00
        -11   -1    0    0    0    0  0.00000000000E+00  0.00000000000E+00  0.45593999997E+02  0.45594000000E+02  0.51100000000E-03 0. -1.
         11   -1    0    0    0    0 -0.00000000000E+00 -0.00000000000E+00 -0.45593999997E+02  0.45594000000E+02  0.51100000000E-03 0.  1.
    9900012    2    1    2    0    0  0.25978921842E+02  0.16839673365E+02 -0.76315584953E+01  0.59301958160E+02  0.50000025775E+02 0.  0.
         12    1    1    2    0    0 -0.25978921842E+02 -0.16839673365E+02  0.76315584953E+01  0.31886041840E+02  0.00000000000E+00 0. -1.
         11    1    3    3    0    0  0.14217165551E+02 -0.70189211322E+01 -0.14228214836E+02  0.21303406954E+02  0.51100000000E-03 0. -1.
        -11    1    3    3    0    0  0.95675540976E+01 -0.33213472097E+01  0.24125625398E+01  0.10411046872E+02  0.51100000000E-03 0.  1.
         12    1    3    3    0    0  0.21942021937E+01  0.27179941707E+02  0.41840938012E+01  0.27587504335E+02  0.00000000000E+00 0. -1.
</event>
<event>
 7    1  0.6061051E-012  0.5930194E+02  0.7816164E-02  0.1266605E+00
        -11   -1    0    0    0    0  0.00000000000E+00  0.00000000000E+00  0.45593999997E+02  0.45594000000E+02  0.51100000000E-03 0.  1.
         11   -1    0    0    0    0 -0.00000000000E+00 -0.00000000000E+00 -0.45593999997E+02  0.45594000000E+02  0.51100000000E-03 0. -1.
    9900012    2    1    2    0    0 -0.49916008265E+01 -0.30718596246E+02  0.69406401120E+01  0.59301941615E+02  0.49999995600E+02 0.  0.
         12    1    1    2    0    0  0.49916008265E+01  0.30718596246E+02 -0.69406401120E+01  0.31886058385E+02  0.00000000000E+00 0. -1.
         11    1    3    3    0    0  0.15796023937E+01 -0.67392502646E+01 -0.17554732449E+02  0.18870115778E+02  0.51100000000E-03 0. -1.
        -11    1    3    3    0    0  0.34597300511E+01  0.18616863623E+01  0.57681868115E+01  0.69790821381E+01  0.51100000000E-03 0.  1.
        -12    1    3    3    0    0 -0.10030933271E+02 -0.25841032344E+02  0.18727185749E+02  0.33452743699E+02  0.00000000000E+00 0.  1.
</event>
<event>
 7    1  0.6061051E-012  0.5930194E+02  0.7816164E-02  0.1266605E+00
        -11   -1    0    0    0    0  0.00000000000E+00  0.00000000000E+00  0.45593999997E+02  0.45594000000E+02  0.51100000000E-03 0.  1.
         11   -1    0    0    0    0 -0.00000000000E+00 -0.00000000000E+00 -0.45593999997E+02  0.45594000000E+02  0.51100000000E-03 0. -1.
    9900012    2    1    2    0    0 -0.24375811571E+02 -0.31706924719E+01  0.20309783999E+02  0.59301940247E+02  0.49999993105E+02 0.  0.
         12    1    1    2    0    0  0.24375811571E+02  0.31706924719E+01 -0.20309783999E+02  0.31886059753E+02  0.00000000000E+00 0. -1.
         11    1    3    3    0    0 -0.36089956418E+00  0.30311263088E+00  0.20844105827E+02  0.20849433416E+02  0.51100000000E-03 0. -1.
        -11    1    3    3    0    0 -0.65112625231E+01 -0.12700968025E+02  0.85952920646E+01  0.16661037613E+02  0.51100000000E-03 0.  1.
        -12    1    3    3    0    0 -0.17503649484E+02  0.92271629218E+01 -0.91296138931E+01  0.21791469218E+02  0.00000000000E+00 0.  1.
</event>
<event>
 7    1  0.6061051E-012  0.5930197E+02  0.7816164E-02  0.1266605E+00
        -11   -1    0    0    0    0  0.00000000000E+00  0.00000000000E+00  0.45593999997E+02  0.45594000000E+02  0.51100000000E-03 0.  1.
         11   -1    0    0    0    0 -0.00000000000E+00 -0.00000000000E+00 -0.45593999997E+02  0.45594000000E+02  0.51100000000E-03 0. -1.
    9900012    2    1    2    0    0  0.20454529001E+02 -0.17737397949E+01  0.24396419036E+02  0.59301965889E+02  0.50000039870E+02 0.  0.
         12    1    1    2    0    0 -0.20454529001E+02  0.17737397949E+01 -0.24396419036E+02  0.31886034111E+02  0.00000000000E+00 0. -1.
         11    1    3    3    0    0  0.56342136737E+00  0.57634794017E+01 -0.12342008879E+00  0.57922682285E+01  0.51100000000E-03 0.  1.
        -11    1    3    3    0    0  0.14355254525E+02  0.16592439538E+02  0.16615424971E+02  0.27521895457E+02  0.51100000000E-03 0. -1.
         12    1    3    3    0    0  0.55358531083E+01 -0.24129658734E+02  0.79044141543E+01  0.25987802204E+02  0.00000000000E+00 0. -1.
</event>
<event>
 7    1  0.6061051E-012  0.5930192E+02  0.7816164E-02  0.1266605E+00
        -11   -1    0    0    0    0  0.00000000000E+00  0.00000000000E+00  0.45593999997E+02  0.45594000000E+02  0.51100000000E-03 0.  1.
         11   -1    0    0    0    0 -0.00000000000E+00 -0.00000000000E+00 -0.45593999997E+02  0.45594000000E+02  0.51100000000E-03 0. -1.
    9900012    2    1    2    0    0 -0.10221914328E+02  0.56542163707E+01  0.29669249373E+02  0.59301920692E+02  0.49999957441E+02 0.  0.
         12    1    1    2    0    0  0.10221914328E+02 -0.56542163707E+01 -0.29669249373E+02  0.31886079308E+02  0.00000000000E+00 0. -1.
         11    1    3    3    0    0  0.88238413164E+01 -0.16315195777E+00  0.96832833912E+01  0.13101632403E+02  0.51100000000E-03 0. -1.
        -11    1    3    3    0    0  0.38992895434E+01  0.34819023700E+01 -0.82347372544E+01  0.97539223376E+01  0.51100000000E-03 0.  1.
        -12    1    3    3    0    0 -0.22945045188E+02  0.23354659585E+01  0.28220703236E+02  0.36446365951E+02  0.00000000000E+00 0.  1.
</event>
<event>
 7    1  0.6061051E-012  0.5930194E+02  0.7816164E-02  0.1266605E+00
        -11   -1    0    0    0    0  0.00000000000E+00  0.00000000000E+00  0.45593999997E+02  0.45594000000E+02  0.51100000000E-03 0.  1.
         11   -1    0    0    0    0 -0.00000000000E+00 -0.00000000000E+00 -0.45593999997E+02  0.45594000000E+02  0.51100000000E-03 0. -1.
    9900012    2    1    2    0    0 -0.22837290663E+02  0.65649894584E+01  0.21262168642E+02  0.59301941184E+02  0.49999994815E+02 0.  0.
         12    1    1    2    0    0  0.22837290663E+02 -0.65649894584E+01 -0.21262168642E+02  0.31886058816E+02  0.00000000000E+00 0. -1.
         11    1    3    3    0    0 -0.10704946771E+02  0.58022309564E+01  0.18574909573E+02  0.22210111106E+02  0.51100000000E-03 0. -1.
        -11    1    3    3    0    0 -0.50131816934E+00 -0.34724004052E+01  0.17465587145E+02  0.17814477794E+02  0.51100000000E-03 0.  1.
         12    1    3    3    0    0 -0.11631025723E+02  0.42351589072E+01 -0.14778328077E+02  0.19277352284E+02  0.00000000000E+00 0. -1.
</event>
<event>
 7    1  0.6061051E-012  0.5930192E+02  0.7816164E-02  0.1266605E+00
        -11   -1    0    0    0    0  0.00000000000E+00  0.00000000000E+00  0.45593999997E+02  0.45594000000E+02  0.51100000000E-03 0.  1.
         11   -1    0    0    0    0 -0.00000000000E+00 -0.00000000000E+00 -0.45593999997E+02  0.45594000000E+02  0.51100000000E-03 0. -1.
    9900012    2    1    2    0    0 -0.27305474743E+02  0.35489657095E+00  0.16462292636E+02  0.59301921826E+02  0.49999959509E+02 0.  0.
         12    1    1    2    0    0  0.27305474743E+02 -0.35489657095E+00 -0.16462292636E+02  0.31886078174E+02  0.00000000000E+00 0. -1.
         11    1    3    3    0    0 -0.57353756327E+01  0.17411165075E+02 -0.32302677265E+01  0.18613915030E+02  0.51100000000E-03 0. -1.
        -11    1    3    3    0    0 -0.15043808330E+01 -0.34298897318E+01 -0.48861959370E+01  0.61564775854E+01  0.51100000000E-03 0.  1.
        -12    1    3    3    0    0 -0.20065718277E+02 -0.13626378772E+02  0.24578756299E+02  0.34531529211E+02  0.00000000000E+00 0.  1.
</event>
<event>
 7    1  0.6061051E-012  0.5930201E+02  0.7816164E-02  0.1266605E+00
        -11   -1    0    0    0    0  0.00000000000E+00  0.00000000000E+00  0.45593999997E+02  0.45594000000E+02  0.51100000000E-03 0.  1.
         11   -1    0    0    0    0 -0.00000000000E+00 -0.00000000000E+00 -0.45593999997E+02  0.45594000000E+02  0.51100000000E-03 0. -1.
    9900012    2    1    2    0    0 -0.18622942230E+02  0.25243636548E+02  0.57150216236E+01  0.59302005651E+02  0.50000112386E+02 0.  0.
         12    1    1    2    0    0  0.18622942230E+02 -0.25243636548E+02 -0.57150216236E+01  0.31885994349E+02  0.00000000000E+00 0. -1.
         11    1    3    3    0    0 -0.71083141361E+01  0.21511784414E+00  0.56716569590E+01  0.90962683814E+01  0.51100000000E-03 0. -1.
        -11    1    3    3    0    0  0.14923374293E+01 -0.98735924001E+01  0.71568222001E+01  0.12285560718E+02  0.51100000000E-03 0.  1.
         12    1    3    3    0    0 -0.13006965523E+02  0.34902111104E+02 -0.71134575355E+01  0.37920176552E+02  0.00000000000E+00 0. -1.
</event>
<event>
 7    1  0.6061051E-012  0.5930195E+02  0.7816164E-02  0.1266605E+00
        -11   -1    0    0    0    0  0.00000000000E+00  0.00000000000E+00  0.45593999997E+02  0.45594000000E+02  0.51100000000E-03 0. -1.
         11   -1    0    0    0    0 -0.00000000000E+00 -0.00000000000E+00 -0.45593999997E+02  0.45594000000E+02  0.51100000000E-03 0.  1.
    9900012    2    1    2    0    0 -0.19771711473E+02 -0.20444078504E+02  0.14416640097E+02  0.59301946119E+02  0.50000003813E+02 0.  0.
         12    1    1    2    0    0  0.19771711473E+02  0.20444078504E+02 -0.14416640097E+02  0.31886053881E+02  0.00000000000E+00 0. -1.
         11    1    3    3    0    0  0.12913797458E+02 -0.60278149377E+01 -0.29592411812E+01  0.14555336696E+02  0.51100000000E-03 0. -1.
        -11    1    3    3    0    0 -0.13992405524E+01 -0.40052496786E+01 -0.36865814422E+01  0.56205677741E+01  0.51100000000E-03 0.  1.
        -12    1    3    3    0    0 -0.31286268378E+02 -0.10411013887E+02  0.21062462721E+02  0.39126041648E+02  0.00000000000E+00 0.  1.
</event>
<event>
 7    1  0.6061051E-012  0.5930192E+02  0.7816164E-02  0.1266605E+00
        -11   -1    0    0    0    0  0.00000000000E+00  0.00000000000E+00  0.45593999997E+02  0.45594000000E+02  0.51100000000E-03 0. -1.
         11   -1    0    0    0    0 -0.00000000000E+00 -0.00000000000E+00 -0.45593999997E+02  0.45594000000E+02  0.51100000000E-03 0.  1.
    9900012    2    1    2    0    0 -0.31473716142E+02 -0.39400907750E+01 -0.32561912181E+01  0.59301923033E+02  0.49999961710E+02 0.  0.
         12    1    1    2    0    0  0.31473716142E+02  0.39400907750E+01  0.32561912181E+01  0.31886076967E+02  0.00000000000E+00 0. -1.
         11    1    3    3    0    0 -0.77233781948E+01 -0.84323324953E+01  0.19034101855E+02  0.22204770562E+02  0.51100000000E-03 0. -1.
        -11    1    3    3    0    0 -0.89044290545E+01  0.43752856024E+01  0.45912184497E+00  0.99319068672E+01  0.51100000000E-03 0.  1.
        -12    1    3    3    0    0 -0.14845908893E+02  0.11695611784E+00 -0.22749414918E+02  0.27165245603E+02  0.00000000000E+00 0.  1.
</event>
<event>
 7    1  0.6061051E-012  0.5930199E+02  0.7816164E-02  0.1266605E+00
        -11   -1    0    0    0    0  0.00000000000E+00  0.00000000000E+00  0.45593999997E+02  0.45594000000E+02  0.51100000000E-03 0. -1.
         11   -1    0    0    0    0 -0.00000000000E+00 -0.00000000000E+00 -0.45593999997E+02  0.45594000000E+02  0.51100000000E-03 0.  1.
    9900012    2    1    2    0    0 -0.68065615373E+01 -0.27594240107E+02 -0.14454973795E+02  0.59301989989E+02  0.50000083822E+02 0.  0.
         12    1    1    2    0    0  0.68065615373E+01  0.27594240107E+02  0.14454973795E+02  0.31886010011E+02  0.00000000000E+00 0. -1.
         11    1    3    3    0    0  0.27610497895E+01 -0.22267355428E+01  0.21811431499E+01  0.41640284364E+01  0.51100000000E-03 0. -1.
        -11    1    3    3    0    0 -0.11727345896E+02  0.55000332825E+01 -0.20193859315E+02  0.23991101729E+02  0.51100000000E-03 0.  1.
         12    1    3    3    0    0  0.21597345689E+01 -0.30867537846E+02  0.35577423701E+01  0.31146859824E+02  0.00000000000E+00 0. -1.
</event>
<event>
 7    1  0.6061051E-012  0.5930194E+02  0.7816164E-02  0.1266605E+00
        -11   -1    0    0    0    0  0.00000000000E+00  0.00000000000E+00  0.45593999997E+02  0.45594000000E+02  0.51100000000E-03 0. -1.
         11   -1    0    0    0    0 -0.00000000000E+00 -0.00000000000E+00 -0.45593999997E+02  0.45594000000E+02  0.51100000000E-03 0.  1.
    9900012    2    1    2    0    0  0.12293110234E+02 -0.89140009990E+01 -0.28038198488E+02  0.59301944309E+02  0.50000000514E+02 0.  0.
         12    1    1    2    0    0 -0.12293110234E+02  0.89140009990E+01  0.28038198488E+02  0.31886055691E+02  0.00000000000E+00 0. -1.
         11    1    3    3    0    0  0.55985826199E+01 -0.62576213290E+01  0.30165470904E+01  0.89219677571E+01  0.51100000000E-03 0. -1.
        -11    1    3    3    0    0 -0.88685208329E+01 -0.16527348689E+02 -0.16167998785E+02  0.24763039018E+02  0.51100000000E-03 0.  1.
         12    1    3    3    0    0  0.15563048447E+02  0.13870969020E+02 -0.14886746794E+02  0.25616937534E+02  0.00000000000E+00 0. -1.
</event>
<event>
 7    1  0.6061051E-012  0.5930194E+02  0.7816164E-02  0.1266605E+00
        -11   -1    0    0    0    0  0.00000000000E+00  0.00000000000E+00  0.45593999997E+02  0.45594000000E+02  0.51100000000E-03 0. -1.
         11   -1    0    0    0    0 -0.00000000000E+00 -0.00000000000E+00 -0.45593999997E+02  0.45594000000E+02  0.51100000000E-03 0.  1.
    9900012    2    1    2    0    0  0.25724470810E+02  0.12340483617E+02 -0.14236753984E+02  0.59301935672E+02  0.49999984760E+02 0.  0.
         12    1    1    2    0    0 -0.25724470810E+02 -0.12340483617E+02  0.14236753984E+02  0.31886064328E+02  0.00000000000E+00 0. -1.
         11    1    3    3    0    0 -0.16505614072E+01 -0.42492748509E+01  0.26734216763E-01  0.45586625996E+01  0.51100000000E-03 0. -1.
        -11    1    3    3    0    0 -0.93761550158E+01  0.22483049763E+01 -0.11768751549E+02  0.15214160228E+02  0.51100000000E-03 0.  1.
         12    1    3    3    0    0  0.36751187233E+02  0.14341453491E+02 -0.24947366512E+01  0.39529112844E+02  0.00000000000E+00 0. -1.
</event>
<event>
 7    1  0.6061051E-012  0.5930193E+02  0.7816164E-02  0.1266605E+00
        -11   -1    0    0    0    0  0.00000000000E+00  0.00000000000E+00  0.45593999997E+02  0.45594000000E+02  0.51100000000E-03 0.  1.
         11   -1    0    0    0    0 -0.00000000000E+00 -0.00000000000E+00 -0.45593999997E+02  0.45594000000E+02  0.51100000000E-03 0. -1.
    9900012    2    1    2    0    0  0.17904710753E+02 -0.10250802800E+02  0.24311798006E+02  0.59301934901E+02  0.49999983356E+02 0.  0.
         12    1    1    2    0    0 -0.17904710753E+02  0.10250802800E+02 -0.24311798006E+02  0.31886065099E+02  0.00000000000E+00 0. -1.
         11    1    3    3    0    0  0.56383136374E+01  0.12546160108E+02  0.10612740842E+02  0.17373168467E+02  0.51100000000E-03 0. -1.
        -11    1    3    3    0    0  0.18915222314E+02 -0.13613344933E+02 -0.10466496545E+01  0.23328186196E+02  0.51100000000E-03 0.  1.
         12    1    3    3    0    0 -0.66488251981E+01 -0.91836179748E+01  0.14745706818E+02  0.18600580238E+02  0.00000000000E+00 0. -1.
</event>
<event>
 7    1  0.6061051E-012  0.5930195E+02  0.7816164E-02  0.1266605E+00
        -11   -1    0    0    0    0  0.00000000000E+00  0.00000000000E+00  0.45593999997E+02  0.45594000000E+02  0.51100000000E-03 0.  1.
         11   -1    0    0    0    0 -0.00000000000E+00 -0.00000000000E+00 -0.45593999997E+02  0.45594000000E+02  0.51100000000E-03 0. -1.
    9900012    2    1    2    0    0 -0.21109293746E+02 -0.37415319131E+01  0.23603365496E+02  0.59301949660E+02  0.50000010272E+02 0.  0.
         12    1    1    2    0    0  0.21109293746E+02  0.37415319131E+01 -0.23603365496E+02  0.31886050340E+02  0.00000000000E+00 0. -1.
         11    1    3    3    0    0 -0.18330649239E+02  0.73179742826E+01  0.80306518031E+01  0.21308609006E+02  0.51100000000E-03 0. -1.
        -11    1    3    3    0    0 -0.74829608384E+01 -0.20352136806E+02  0.16902011957E+02  0.27493311622E+02  0.51100000000E-03 0.  1.
         12    1    3    3    0    0  0.47043163311E+01  0.92926306103E+01 -0.13292982643E+01  0.10500029032E+02  0.00000000000E+00 0. -1.
</event>
<event>
 7    1  0.6061051E-012  0.5930195E+02  0.7816164E-02  0.1266605E+00
        -11   -1    0    0    0    0  0.00000000000E+00  0.00000000000E+00  0.45593999997E+02  0.45594000000E+02  0.51100000000E-03 0.  1.
         11   -1    0    0    0    0 -0.00000000000E+00 -0.00000000000E+00 -0.45593999997E+02  0.45594000000E+02  0.51100000000E-03 0. -1.
    9900012    2    1    2    0    0  0.29806516021E+02  0.98421247447E+01  0.56057348195E+01  0.59301951646E+02  0.50000013893E+02 0.  0.
         12    1    1    2    0    0 -0.29806516021E+02 -0.98421247447E+01 -0.56057348195E+01  0.31886048354E+02  0.00000000000E+00 0. -1.
         11    1    3    3    0    0 -0.30860887353E+01 -0.58462654043E+01 -0.76854462599E+01  0.10137497094E+02  0.51100000000E-03 0. -1.
        -11    1    3    3    0    0 -0.33028198937E+01  0.47170374502E+01 -0.45565993350E+01  0.73431368854E+01  0.51100000000E-03 0.  1.
        -12    1    3    3    0    0  0.36195424650E+02  0.10971352699E+02  0.17847780414E+02  0.41821317666E+02  0.00000000000E+00 0.  1.
</event>
<event>
 7    1  0.6061051E-012  0.5930198E+02  0.7816164E-02  0.1266605E+00
        -11   -1    0    0    0    0  0.00000000000E+00  0.00000000000E+00  0.45593999997E+02  0.45594000000E+02  0.51100000000E-03 0.  1.
         11   -1    0    0    0    0 -0.00000000000E+00 -0.00000000000E+00 -0.45593999997E+02  0.45594000000E+02  0.51100000000E-03 0. -1.
    9900012    2    1    2    0    0 -0.34106873979E+01 -0.31043501880E+02 -0.64332253206E+01  0.59301981347E+02  0.50000068062E+02 0.  0.
         12    1    1    2    0    0  0.34106873979E+01  0.31043501880E+02  0.64332253206E+01  0.31886018653E+02  0.00000000000E+00 0. -1.
         11    1    3    3    0    0 -0.10608301192E+02 -0.93218067738E+01 -0.12179161274E+02  0.18648434393E+02  0.51100000000E-03 0. -1.
        -11    1    3    3    0    0 -0.57855306345E+01  0.30982242798E+01  0.10361701517E+02  0.12265244269E+02  0.51100000000E-03 0.  1.
         12    1    3    3    0    0  0.12983144429E+02 -0.24819919386E+02 -0.46157655630E+01  0.28388302685E+02  0.00000000000E+00 0. -1.
</event>
<event>
 7    1  0.6061051E-012  0.5930195E+02  0.7816164E-02  0.1266605E+00
        -11   -1    0    0    0    0  0.00000000000E+00  0.00000000000E+00  0.45593999997E+02  0.45594000000E+02  0.51100000000E-03 0.  1.
         11   -1    0    0    0    0 -0.00000000000E+00 -0.00000000000E+00 -0.45593999997E+02  0.45594000000E+02  0.51100000000E-03 0. -1.
    9900012    2    1    2    0    0  0.30573545838E+02 -0.90314382768E+01  0.64173306871E+00  0.59301946563E+02  0.50000004624E+02 0.  0.
         12    1    1    2    0    0 -0.30573545838E+02  0.90314382768E+01 -0.64173306871E+00  0.31886053437E+02  0.00000000000E+00 0. -1.
         11    1    3    3    0    0 -0.50017091265E+01  0.78610553604E+01 -0.42458804025E+01  0.10239178982E+02  0.51100000000E-03 0. -1.
        -11    1    3    3    0    0  0.81320086964E+01 -0.17170590106E+02 -0.54030264687E+01  0.19752251146E+02  0.51100000000E-03 0.  1.
        -12    1    3    3    0    0  0.27443246268E+02  0.27809646916E+00  0.10290639940E+02  0.29310516436E+02  0.00000000000E+00 0.  1.
</event>
<event>
 7    1  0.6061051E-012  0.5930197E+02  0.7816164E-02  0.1266605E+00
        -11   -1    0    0    0    0  0.00000000000E+00  0.00000000000E+00  0.45593999997E+02  0.45594000000E+02  0.51100000000E-03 0.  1.
         11   -1    0    0    0    0 -0.00000000000E+00 -0.00000000000E+00 -0.45593999997E+02  0.45594000000E+02  0.51100000000E-03 0. -1.
    9900012    2    1    2    0    0  0.16861085243E+02  0.26916272037E+02  0.28172942357E+01  0.59301967905E+02  0.50000043547E+02 0.  0.
         12    1    1    2    0    0 -0.16861085243E+02 -0.26916272037E+02 -0.28172942357E+01  0.31886032095E+02  0.00000000000E+00 0. -1.
         11    1    3    3    0    0 -0.65389075148E+01 -0.24176322345E+01  0.62119702537E+00  0.69991530283E+01  0.51100000000E-03 0. -1.
        -11    1    3    3    0    0  0.13528243901E+02 -0.30788207603E+01  0.10521277618E+02  0.17412346289E+02  0.51100000000E-03 0.  1.
         12    1    3    3    0    0  0.98717488567E+01  0.32412725031E+02 -0.83251804078E+01  0.34890468588E+02  0.00000000000E+00 0. -1.
</event>
<event>
 7    1  0.6061051E-012  0.5930191E+02  0.7816164E-02  0.1266605E+00
        -11   -1    0    0    0    0  0.00000000000E+00  0.00000000000E+00  0.45593999997E+02  0.45594000000E+02  0.51100000000E-03 0. -1.
         11   -1    0    0    0    0 -0.00000000000E+00 -0.00000000000E+00 -0.45593999997E+02  0.45594000000E+02  0.51100000000E-03 0.  1.
    9900012    2    1    2    0    0  0.21443094466E+02 -0.23767680838E+01 -0.23479090272E+02  0.59301905745E+02  0.49999930182E+02 0.  0.
         12    1    1    2    0    0 -0.21443094466E+02  0.23767680838E+01  0.23479090272E+02  0.31886094255E+02  0.00000000000E+00 0. -1.
         11    1    3    3    0    0  0.20868449595E+02  0.10937759513E+00  0.36913044797E+01  0.21192684610E+02  0.51100000000E-03 0.  1.
        -11    1    3    3    0    0  0.19305024364E+01 -0.13386573742E+02 -0.72120055877E+01  0.15327759819E+02  0.51100000000E-03 0. -1.
        -12    1    3    3    0    0 -0.13558575651E+01  0.10900428063E+02 -0.19958389164E+02  0.22781461317E+02  0.00000000000E+00 0.  1.
</event>
<event>
 7    1  0.6061051E-012  0.5930194E+02  0.7816164E-02  0.1266605E+00
        -11   -1    0    0    0    0  0.00000000000E+00  0.00000000000E+00  0.45593999997E+02  0.45594000000E+02  0.51100000000E-03 0. -1.
         11   -1    0    0    0    0 -0.00000000000E+00 -0.00000000000E+00 -0.45593999997E+02  0.45594000000E+02  0.51100000000E-03 0.  1.
    9900012    2    1    2    0    0 -0.71612694772E+01 -0.12696309406E+02 -0.28359135746E+02  0.59301942964E+02  0.49999998059E+02 0.  0.
         12    1    1    2    0    0  0.71612694772E+01  0.12696309406E+02  0.28359135746E+02  0.31886057036E+02  0.00000000000E+00 0. -1.
         11    1    3    3    0    0  0.52615764159E+00 -0.29032573163E+02 -0.11057128787E+02  0.31071325102E+02  0.51100000000E-03 0. -1.
        -11    1    3    3    0    0  0.22472534866E+01  0.43530872954E+01 -0.97892479614E+01  0.10946638440E+02  0.51100000000E-03 0.  1.
        -12    1    3    3    0    0 -0.99346806053E+01  0.11983176462E+02 -0.75127589978E+01  0.17283979421E+02  0.00000000000E+00 0.  1.
</event>
<event>
 7    1  0.6061051E-012  0.5930193E+02  0.7816164E-02  0.1266605E+00
        -11   -1    0    0    0    0  0.00000000000E+00  0.00000000000E+00  0.45593999997E+02  0.45594000000E+02  0.51100000000E-03 0. -1.
         11   -1    0    0    0    0 -0.00000000000E+00 -0.00000000000E+00 -0.45593999997E+02  0.45594000000E+02  0.51100000000E-03 0.  1.
    9900012    2    1    2    0    0  0.20794042992E+02  0.24141197083E+02  0.12378021693E+01  0.59301925065E+02  0.49999965417E+02 0.  0.
         12    1    1    2    0    0 -0.20794042992E+02 -0.24141197083E+02 -0.12378021693E+01  0.31886074935E+02  0.00000000000E+00 0. -1.
         11    1    3    3    0    0 -0.39404710895E+01  0.19178988243E+02  0.19341714846E+02  0.27522042727E+02  0.51100000000E-03 0. -1.
        -11    1    3    3    0    0  0.19583272935E+02  0.21474995185E+01 -0.10996881760E+02  0.22562086378E+02  0.51100000000E-03 0.  1.
        -12    1    3    3    0    0  0.51512411459E+01  0.28147093217E+01 -0.71070309164E+01  0.92177959598E+01  0.00000000000E+00 0.  1.
</event>
<event>
 7    1  0.6061051E-012  0.5930196E+02  0.7816164E-02  0.1266605E+00
        -11   -1    0    0    0    0  0.00000000000E+00  0.00000000000E+00  0.45593999997E+02  0.45594000000E+02  0.51100000000E-03 0.  1.
         11   -1    0    0    0    0 -0.00000000000E+00 -0.00000000000E+00 -0.45593999997E+02  0.45594000000E+02  0.51100000000E-03 0. -1.
    9900012    2    1    2    0    0 -0.19650898373E+02  0.22894243360E+02  0.10315793832E+02  0.59301956215E+02  0.50000022227E+02 0.  0.
         12    1    1    2    0    0  0.19650898373E+02 -0.22894243360E+02 -0.10315793832E+02  0.31886043785E+02  0.00000000000E+00 0. -1.
         11    1    3    3    0    0 -0.29340854620E+01  0.19977617844E+02  0.14100042205E+02  0.24627733608E+02  0.51100000000E-03 0. -1.
        -11    1    3    3    0    0 -0.10183828839E+02  0.15062237849E+02  0.43065373427E+01  0.18684957666E+02  0.51100000000E-03 0.  1.
         12    1    3    3    0    0 -0.65329840718E+01 -0.12145612334E+02 -0.80907857152E+01  0.15989264940E+02  0.00000000000E+00 0. -1.
</event>
<event>
 7    1  0.6061051E-012  0.5930201E+02  0.7816164E-02  0.1266605E+00
        -11   -1    0    0    0    0  0.00000000000E+00  0.00000000000E+00  0.45593999997E+02  0.45594000000E+02  0.51100000000E-03 0.  1.
         11   -1    0    0    0    0 -0.00000000000E+00 -0.00000000000E+00 -0.45593999997E+02  0.45594000000E+02  0.51100000000E-03 0. -1.
    9900012    2    1    2    0    0 -0.25527953726E+02 -0.17449135989E+02  0.77825103461E+01  0.59302011925E+02  0.50000123829E+02 0.  0.
         12    1    1    2    0    0  0.25527953726E+02  0.17449135989E+02 -0.77825103461E+01  0.31885988075E+02  0.00000000000E+00 0. -1.
         11    1    3    3    0    0  0.61440112493E+01 -0.14941382839E+02 -0.63030583655E+01  0.17341347710E+02  0.51100000000E-03 0. -1.
        -11    1    3    3    0    0  0.38374726208E+01  0.37631801681E+00  0.80189622856E+00  0.39383815442E+01  0.51100000000E-03 0.  1.
         12    1    3    3    0    0 -0.35509437596E+02 -0.28840711671E+01  0.13283672483E+02  0.38022282671E+02  0.00000000000E+00 0. -1.
</event>
<event>
 7    1  0.6061051E-012  0.5930197E+02  0.7816164E-02  0.1266605E+00
        -11   -1    0    0    0    0  0.00000000000E+00  0.00000000000E+00  0.45593999997E+02  0.45594000000E+02  0.51100000000E-03 0. -1.
         11   -1    0    0    0    0 -0.00000000000E+00 -0.00000000000E+00 -0.45593999997E+02  0.45594000000E+02  0.51100000000E-03 0.  1.
    9900012    2    1    2    0    0  0.23884252544E+02 -0.78777424082E+01 -0.19601078842E+02  0.59301974271E+02  0.50000055157E+02 0.  0.
         12    1    1    2    0    0 -0.23884252544E+02  0.78777424082E+01  0.19601078842E+02  0.31886025729E+02  0.00000000000E+00 0. -1.
         11    1    3    3    0    0  0.21396770162E+02  0.23169416246E+01 -0.12318035975E+01  0.21557071514E+02  0.51100000000E-03 0. -1.
        -11    1    3    3    0    0  0.16248359884E+02 -0.77725360040E+01 -0.57223382475E+01  0.18898853673E+02  0.51100000000E-03 0.  1.
         12    1    3    3    0    0 -0.13760877503E+02 -0.24221480289E+01 -0.12646936996E+02  0.18846049085E+02  0.00000000000E+00 0. -1.
</event>
<event>
 7    1  0.6061051E-012  0.5930194E+02  0.7816164E-02  0.1266605E+00
        -11   -1    0    0    0    0  0.00000000000E+00  0.00000000000E+00  0.45593999997E+02  0.45594000000E+02  0.51100000000E-03 0.  1.
         11   -1    0    0    0    0 -0.00000000000E+00 -0.00000000000E+00 -0.45593999997E+02  0.45594000000E+02  0.51100000000E-03 0. -1.
    9900012    2    1    2    0    0  0.31530507762E+01 -0.48468524225E+01  0.31357413203E+02  0.59301936111E+02  0.49999985561E+02 0.  0.
         12    1    1    2    0    0 -0.31530507762E+01  0.48468524225E+01 -0.31357413203E+02  0.31886063889E+02  0.00000000000E+00 0. -1.
         11    1    3    3    0    0 -0.58641820014E+01 -0.59107311771E+01 -0.43617021680E+01  0.93994584768E+01  0.51100000000E-03 0. -1.
        -11    1    3    3    0    0 -0.87222475415E+01  0.76755720440E+01  0.28370483423E+01  0.11959968726E+02  0.51100000000E-03 0.  1.
        -12    1    3    3    0    0  0.17739480319E+02 -0.66116932893E+01  0.32882067028E+02  0.37942508907E+02  0.00000000000E+00 0.  1.
</event>
<event>
 7    1  0.6061051E-012  0.5930195E+02  0.7816164E-02  0.1266605E+00
        -11   -1    0    0    0    0  0.00000000000E+00  0.00000000000E+00  0.45593999997E+02  0.45594000000E+02  0.51100000000E-03 0. -1.
         11   -1    0    0    0    0 -0.00000000000E+00 -0.00000000000E+00 -0.45593999997E+02  0.45594000000E+02  0.51100000000E-03 0.  1.
    9900012    2    1    2    0    0  0.43948427068E+01 -0.24646162515E+02 -0.19747714869E+02  0.59301949576E+02  0.50000010119E+02 0.  0.
         12    1    1    2    0    0 -0.43948427068E+01  0.24646162515E+02  0.19747714869E+02  0.31886050424E+02  0.00000000000E+00 0. -1.
         11    1    3    3    0    0  0.11596303206E+02  0.21719926877E+01 -0.18714366131E+01  0.11945462551E+02  0.51100000000E-03 0. -1.
        -11    1    3    3    0    0 -0.71587332301E+01  0.69263426695E+01 -0.57362833761E+01  0.11494634899E+02  0.51100000000E-03 0.  1.
         12    1    3    3    0    0 -0.42727269563E-01 -0.33744497872E+02 -0.12139994880E+02  0.35861852126E+02  0.00000000000E+00 0. -1.
</event>
<event>
 7    1  0.6061051E-012  0.5930195E+02  0.7816164E-02  0.1266605E+00
        -11   -1    0    0    0    0  0.00000000000E+00  0.00000000000E+00  0.45593999997E+02  0.45594000000E+02  0.51100000000E-03 0.  1.
         11   -1    0    0    0    0 -0.00000000000E+00 -0.00000000000E+00 -0.45593999997E+02  0.45594000000E+02  0.51100000000E-03 0. -1.
    9900012    2    1    2    0    0  0.21530708973E+02  0.11618917300E+02  0.20448707517E+02  0.59301948077E+02  0.50000007385E+02 0.  0.
         12    1    1    2    0    0 -0.21530708973E+02 -0.11618917300E+02 -0.20448707517E+02  0.31886051923E+02  0.00000000000E+00 0. -1.
         11    1    3    3    0    0  0.29308048383E+01 -0.41553143071E+01 -0.31507240176E+01  0.59819157540E+01  0.51100000000E-03 0. -1.
        -11    1    3    3    0    0  0.30581639190E+02  0.42652131439E+01  0.12349678976E+02  0.33255725369E+02  0.51100000000E-03 0.  1.
         12    1    3    3    0    0 -0.11981735055E+02  0.11509018464E+02  0.11249752558E+02  0.20064306954E+02  0.00000000000E+00 0. -1.
</event>
<event>
 7    1  0.6061051E-012  0.5930188E+02  0.7816164E-02  0.1266605E+00
        -11   -1    0    0    0    0  0.00000000000E+00  0.00000000000E+00  0.45593999997E+02  0.45594000000E+02  0.51100000000E-03 0. -1.
         11   -1    0    0    0    0 -0.00000000000E+00 -0.00000000000E+00 -0.45593999997E+02  0.45594000000E+02  0.51100000000E-03 0.  1.
    9900012    2    1    2    0    0 -0.38686857731E+01 -0.28589074832E+02 -0.13580221601E+02  0.59301884713E+02  0.49999891823E+02 0.  0.
         12    1    1    2    0    0  0.38686857731E+01  0.28589074832E+02  0.13580221601E+02  0.31886115287E+02  0.00000000000E+00 0. -1.
         11    1    3    3    0    0 -0.55395081538E+01  0.25480662077E+01 -0.70582199433E+01  0.93272322269E+01  0.51100000000E-03 0.  1.
        -11    1    3    3    0    0  0.10655262935E+02 -0.17711314602E+02 -0.20130224046E+02  0.28852230651E+02  0.51100000000E-03 0. -1.
         12    1    3    3    0    0 -0.89844405543E+01 -0.13425826438E+02  0.13608222388E+02  0.21122421835E+02  0.00000000000E+00 0. -1.
</event>
<event>
 7    1  0.6061051E-012  0.5930188E+02  0.7816164E-02  0.1266605E+00
        -11   -1    0    0    0    0  0.00000000000E+00  0.00000000000E+00  0.45593999997E+02  0.45594000000E+02  0.51100000000E-03 0. -1.
         11   -1    0    0    0    0 -0.00000000000E+00 -0.00000000000E+00 -0.45593999997E+02  0.45594000000E+02  0.51100000000E-03 0.  1.
    9900012    2    1    2    0    0  0.24833489017E+02  0.20467117605E+01 -0.19895562868E+02  0.59301880330E+02  0.49999883830E+02 0.  0.
         12    1    1    2    0    0 -0.24833489017E+02 -0.20467117605E+01  0.19895562868E+02  0.31886119670E+02  0.00000000000E+00 0. -1.
         11    1    3    3    0    0  0.32030518508E+01  0.22093611127E+02 -0.13976949454E+02  0.26338988403E+02  0.51100000000E-03 0. -1.
        -11    1    3    3    0    0  0.12383404786E+02 -0.80443902974E+01 -0.92830338323E+01  0.17442352099E+02  0.51100000000E-03 0.  1.
        -12    1    3    3    0    0  0.92470323804E+01 -0.12002509069E+02  0.33644204184E+01  0.15520539828E+02  0.00000000000E+00 0.  1.
</event>
<event>
 7    1  0.6061051E-012  0.5930191E+02  0.7816164E-02  0.1266605E+00
        -11   -1    0    0    0    0  0.00000000000E+00  0.00000000000E+00  0.45593999997E+02  0.45594000000E+02  0.51100000000E-03 0.  1.
         11   -1    0    0    0    0 -0.00000000000E+00 -0.00000000000E+00 -0.45593999997E+02  0.45594000000E+02  0.51100000000E-03 0. -1.
    9900012    2    1    2    0    0  0.15085663261E+02 -0.28008640203E+02 -0.21590272414E+01  0.59301912741E+02  0.49999942941E+02 0.  0.
         12    1    1    2    0    0 -0.15085663261E+02  0.28008640203E+02  0.21590272414E+01  0.31886087259E+02  0.00000000000E+00 0. -1.
         11    1    3    3    0    0 -0.11246530350E+02 -0.15849650493E+01 -0.11757050634E+02  0.16347011928E+02  0.51100000000E-03 0.  1.
        -11    1    3    3    0    0  0.22465394776E+01  0.16709400054E+01 -0.27685481809E+01  0.39374915133E+01  0.51100000000E-03 0. -1.
        -12    1    3    3    0    0  0.24085654133E+02 -0.28094615159E+02  0.12366571573E+02  0.39017409300E+02  0.00000000000E+00 0.  1.
</event>
<event>
 7    1  0.6061051E-012  0.5930193E+02  0.7816164E-02  0.1266605E+00
        -11   -1    0    0    0    0  0.00000000000E+00  0.00000000000E+00  0.45593999997E+02  0.45594000000E+02  0.51100000000E-03 0. -1.
         11   -1    0    0    0    0 -0.00000000000E+00 -0.00000000000E+00 -0.45593999997E+02  0.45594000000E+02  0.51100000000E-03 0.  1.
    9900012    2    1    2    0    0 -0.13500419426E+02  0.16416862451E+02 -0.23768602865E+02  0.59301934398E+02  0.49999982437E+02 0.  0.
         12    1    1    2    0    0  0.13500419426E+02 -0.16416862451E+02  0.23768602865E+02  0.31886065602E+02  0.00000000000E+00 0. -1.
         11    1    3    3    0    0 -0.22374258270E+02  0.19996665790E+02 -0.77064020706E+01  0.30981651167E+02  0.51100000000E-03 0. -1.
        -11    1    3    3    0    0  0.93177365564E+00  0.76425209252E+01 -0.11491171186E+02  0.13831968180E+02  0.51100000000E-03 0.  1.
        -12    1    3    3    0    0  0.79420651888E+01 -0.11222324264E+02 -0.45710296085E+01  0.14488315052E+02  0.00000000000E+00 0.  1.
</event>
<event>
 7    1  0.6061051E-012  0.5930194E+02  0.7816164E-02  0.1266605E+00
        -11   -1    0    0    0    0  0.00000000000E+00  0.00000000000E+00  0.45593999997E+02  0.45594000000E+02  0.51100000000E-03 0. -1.
         11   -1    0    0    0    0 -0.00000000000E+00 -0.00000000000E+00 -0.45593999997E+02  0.45594000000E+02  0.51100000000E-03 0.  1.
    9900012    2    1    2    0    0  0.14426996140E+02  0.12310182243E+02 -0.25632826900E+02  0.59301943182E+02  0.49999998458E+02 0.  0.
         12    1    1    2    0    0 -0.14426996140E+02 -0.12310182243E+02  0.25632826900E+02  0.31886056818E+02  0.00000000000E+00 0. -1.
         11    1    3    3    0    0  0.67597016258E+01  0.34830342274E+01  0.13881852240E+01  0.77299516153E+01  0.51100000000E-03 0. -1.
        -11    1    3    3    0    0  0.19689410058E+02  0.13603378403E+02 -0.29921412668E+02  0.38314693118E+02  0.51100000000E-03 0.  1.
         12    1    3    3    0    0 -0.12022115544E+02 -0.47762303873E+01  0.29004005435E+01  0.13257298449E+02  0.00000000000E+00 0. -1.
</event>
<event>
 7    1  0.6061051E-012  0.5930195E+02  0.7816164E-02  0.1266605E+00
        -11   -1    0    0    0    0  0.00000000000E+00  0.00000000000E+00  0.45593999997E+02  0.45594000000E+02  0.51100000000E-03 0.  1.
         11   -1    0    0    0    0 -0.00000000000E+00 -0.00000000000E+00 -0.45593999997E+02  0.45594000000E+02  0.51100000000E-03 0. -1.
    9900012    2    1    2    0    0  0.22735965552E+02 -0.13841893161E+02  0.17555565196E+02  0.59301952813E+02  0.50000016022E+02 0.  0.
         12    1    1    2    0    0 -0.22735965552E+02  0.13841893161E+02 -0.17555565196E+02  0.31886047187E+02  0.00000000000E+00 0. -1.
         11    1    3    3    0    0 -0.21286467663E+01  0.11833101676E+02  0.41747819059E+01  0.12727224229E+02  0.51100000000E-03 0. -1.
        -11    1    3    3    0    0  0.16851644073E+02 -0.17443531822E+02 -0.51286202411E+01  0.24790269386E+02  0.51100000000E-03 0.  1.
        -12    1    3    3    0    0  0.80129682451E+01 -0.82314630157E+01  0.18509403531E+02  0.21784459198E+02  0.00000000000E+00 0.  1.
</event>
<event>
 7    1  0.6061051E-012  0.5930195E+02  0.7816164E-02  0.1266605E+00
        -11   -1    0    0    0    0  0.00000000000E+00  0.00000000000E+00  0.45593999997E+02  0.45594000000E+02  0.51100000000E-03 0.  1.
         11   -1    0    0    0    0 -0.00000000000E+00 -0.00000000000E+00 -0.45593999997E+02  0.45594000000E+02  0.51100000000E-03 0. -1.
    9900012    2    1    2    0    0  0.34356050023E+01 -0.24950956894E+02  0.19554199056E+02  0.59301947682E+02  0.50000006665E+02 0.  0.
         12    1    1    2    0    0 -0.34356050023E+01  0.24950956894E+02 -0.19554199056E+02  0.31886052318E+02  0.00000000000E+00 0. -1.
         11    1    3    3    0    0 -0.53823353089E+01 -0.91578668349E+01  0.12855062860E+02  0.16675991717E+02  0.51100000000E-03 0. -1.
        -11    1    3    3    0    0  0.46800601521E+01 -0.19740137212E+02  0.19789655052E+02  0.28340896731E+02  0.51100000000E-03 0.  1.
         12    1    3    3    0    0  0.41378801591E+01  0.39470471529E+01 -0.13090518855E+02  0.14285059235E+02  0.00000000000E+00 0. -1.
</event>
<event>
 7    1  0.6061051E-012  0.5930190E+02  0.7816164E-02  0.1266605E+00
        -11   -1    0    0    0    0  0.00000000000E+00  0.00000000000E+00  0.45593999997E+02  0.45594000000E+02  0.51100000000E-03 0.  1.
         11   -1    0    0    0    0 -0.00000000000E+00 -0.00000000000E+00 -0.45593999997E+02  0.45594000000E+02  0.51100000000E-03 0. -1.
    9900012    2    1    2    0    0 -0.82970900303E+01 -0.28703238358E+02  0.11135776392E+02  0.59301904111E+02  0.49999927201E+02 0.  0.
         12    1    1    2    0    0  0.82970900303E+01  0.28703238358E+02 -0.11135776392E+02  0.31886095889E+02  0.00000000000E+00 0. -1.
         11    1    3    3    0    0 -0.25220503723E+01 -0.68190817390E+01 -0.17257999851E+02  0.18726963794E+02  0.51100000000E-03 0. -1.
        -11    1    3    3    0    0 -0.30236299381E+01 -0.13304215306E+02  0.34777133715E+01  0.14079736272E+02  0.51100000000E-03 0.  1.
        -12    1    3    3    0    0 -0.27514097199E+01 -0.85799413125E+01  0.24916062871E+02  0.26495204045E+02  0.00000000000E+00 0.  1.
</event>
<event>
 7    1  0.6061051E-012  0.5930196E+02  0.7816164E-02  0.1266605E+00
        -11   -1    0    0    0    0  0.00000000000E+00  0.00000000000E+00  0.45593999997E+02  0.45594000000E+02  0.51100000000E-03 0. -1.
         11   -1    0    0    0    0 -0.00000000000E+00 -0.00000000000E+00 -0.45593999997E+02  0.45594000000E+02  0.51100000000E-03 0.  1.
    9900012    2    1    2    0    0 -0.14822536181E+02 -0.89977618827E+01 -0.26759156289E+02  0.59301956924E+02  0.50000023520E+02 0.  0.
         12    1    1    2    0    0  0.14822536181E+02  0.89977618827E+01  0.26759156289E+02  0.31886043076E+02  0.00000000000E+00 0. -1.
         11    1    3    3    0    0 -0.31997919044E+01  0.19257352604E+01  0.91062711258E+01  0.98423218096E+01  0.51100000000E-03 0. -1.
        -11    1    3    3    0    0  0.90449195343E+01 -0.76064352608E+00 -0.34827456894E+01  0.97220710630E+01  0.51100000000E-03 0.  1.
         12    1    3    3    0    0 -0.20667663811E+02 -0.10162853617E+02 -0.32382681725E+02  0.39737564052E+02  0.00000000000E+00 0. -1.
</event>
<event>
 7    1  0.6061051E-012  0.5930195E+02  0.7816164E-02  0.1266605E+00
        -11   -1    0    0    0    0  0.00000000000E+00  0.00000000000E+00  0.45593999997E+02  0.45594000000E+02  0.51100000000E-03 0.  1.
         11   -1    0    0    0    0 -0.00000000000E+00 -0.00000000000E+00 -0.45593999997E+02  0.45594000000E+02  0.51100000000E-03 0. -1.
    9900012    2    1    2    0    0 -0.30800872728E+01 -0.25209299168E+01  0.31636660185E+02  0.59301948301E+02  0.50000007794E+02 0.  0.
         12    1    1    2    0    0  0.30800872728E+01  0.25209299168E+01 -0.31636660185E+02  0.31886051699E+02  0.00000000000E+00 0. -1.
         11    1    3    3    0    0  0.83338616673E+01  0.59288247899E+01  0.25450088728E+01  0.10539510620E+02  0.51100000000E-03 0. -1.
        -11    1    3    3    0    0  0.80390396466E+01  0.86170882356E+01  0.33275538126E+01  0.12245529092E+02  0.51100000000E-03 0.  1.
        -12    1    3    3    0    0 -0.19452988587E+02 -0.17066842942E+02  0.25764097500E+02  0.36516908590E+02  0.00000000000E+00 0.  1.
</event>
<event>
 7    1  0.6061051E-012  0.5930222E+02  0.7816164E-02  0.1266604E+00
        -11   -1    0    0    0    0  0.00000000000E+00  0.00000000000E+00  0.45593999997E+02  0.45594000000E+02  0.51100000000E-03 0.  1.
         11   -1    0    0    0    0 -0.00000000000E+00 -0.00000000000E+00 -0.45593999997E+02  0.45594000000E+02  0.51100000000E-03 0. -1.
    9900012    2    1    2    0    0 -0.52050370663E+01  0.16832634928E+02  0.26575801709E+02  0.59302215613E+02  0.50000495304E+02 0.  0.
         12    1    1    2    0    0  0.52050370663E+01 -0.16832634928E+02 -0.26575801709E+02  0.31885784387E+02  0.00000000000E+00 0. -1.
         11    1    3    3    0    0 -0.13567596635E+01  0.15477770537E+02 -0.35703429997E+01  0.15942067838E+02  0.51100000000E-03 0. -1.
        -11    1    3    3    0    0 -0.39811847657E+00  0.15472756830E+02  0.96690756248E+01  0.18249814408E+02  0.51100000000E-03 0.  1.
        -12    1    3    3    0    0 -0.34501589263E+01 -0.14117892438E+02  0.20477069084E+02  0.25110333366E+02  0.00000000000E+00 0.  1.
</event>
<event>
 7    1  0.6061051E-012  0.5930196E+02  0.7816164E-02  0.1266605E+00
        -11   -1    0    0    0    0  0.00000000000E+00  0.00000000000E+00  0.45593999997E+02  0.45594000000E+02  0.51100000000E-03 0.  1.
         11   -1    0    0    0    0 -0.00000000000E+00 -0.00000000000E+00 -0.45593999997E+02  0.45594000000E+02  0.51100000000E-03 0. -1.
    9900012    2    1    2    0    0  0.12652709832E+02  0.22345899350E+02 -0.18902097618E+02  0.59301959509E+02  0.50000028234E+02 0.  0.
         12    1    1    2    0    0 -0.12652709832E+02 -0.22345899350E+02  0.18902097618E+02  0.31886040491E+02  0.00000000000E+00 0. -1.
         11    1    3    3    0    0  0.10408698481E+02 -0.14970279704E+01 -0.14683957626E+01  0.10617828553E+02  0.51100000000E-03 0.  1.
        -11    1    3    3    0    0 -0.46626821273E+01  0.16397510652E+02 -0.28784118028E+02  0.33453615815E+02  0.51100000000E-03 0. -1.
         12    1    3    3    0    0  0.69066934783E+01  0.74454166685E+01  0.11350416172E+02  0.15230515141E+02  0.00000000000E+00 0. -1.
</event>
<event>
 7    1  0.6061051E-012  0.5930193E+02  0.7816164E-02  0.1266605E+00
        -11   -1    0    0    0    0  0.00000000000E+00  0.00000000000E+00  0.45593999997E+02  0.45594000000E+02  0.51100000000E-03 0.  1.
         11   -1    0    0    0    0 -0.00000000000E+00 -0.00000000000E+00 -0.45593999997E+02  0.45594000000E+02  0.51100000000E-03 0. -1.
    9900012    2    1    2    0    0  0.25134409155E+02  0.17134990218E+02 -0.95590448671E+01  0.59301925420E+02  0.49999966064E+02 0.  0.
         12    1    1    2    0    0 -0.25134409155E+02 -0.17134990218E+02  0.95590448671E+01  0.31886074580E+02  0.00000000000E+00 0. -1.
         11    1    3    3    0    0 -0.23533128384E+01  0.10463960783E+01 -0.12408146300E+02  0.12672613027E+02  0.51100000000E-03 0. -1.
        -11    1    3    3    0    0 -0.34008987995E+01  0.13006613898E+02 -0.54350073167E+01  0.14500945573E+02  0.51100000000E-03 0.  1.
        -12    1    3    3    0    0  0.30888620793E+02  0.30819802416E+01  0.82841087500E+01  0.32128366819E+02  0.00000000000E+00 0.  1.
</event>
<event>
 7    1  0.6061051E-012  0.5930190E+02  0.7816164E-02  0.1266605E+00
        -11   -1    0    0    0    0  0.00000000000E+00  0.00000000000E+00  0.45593999997E+02  0.45594000000E+02  0.51100000000E-03 0. -1.
         11   -1    0    0    0    0 -0.00000000000E+00 -0.00000000000E+00 -0.45593999997E+02  0.45594000000E+02  0.51100000000E-03 0.  1.
    9900012    2    1    2    0    0  0.57825228518E+01  0.30159938695E+02 -0.85827838381E+01  0.59301895643E+02  0.49999911758E+02 0.  0.
         12    1    1    2    0    0 -0.57825228518E+01 -0.30159938695E+02  0.85827838381E+01  0.31886104357E+02  0.00000000000E+00 0. -1.
         11    1    3    3    0    0 -0.25928821556E+01 -0.33529825974E+01  0.53276023091E+01  0.68080009398E+01  0.51100000000E-03 0. -1.
        -11    1    3    3    0    0 -0.58492551791E+01  0.17438418708E+02  0.95258251328E+01  0.20713608520E+02  0.51100000000E-03 0.  1.
        -12    1    3    3    0    0  0.14224660186E+02  0.16074502584E+02 -0.23436211280E+02  0.31780286184E+02  0.00000000000E+00 0.  1.
</event>
<event>
 7    1  0.6061051E-012  0.5930192E+02  0.7816164E-02  0.1266605E+00
        -11   -1    0    0    0    0  0.00000000000E+00  0.00000000000E+00  0.45593999997E+02  0.45594000000E+02  0.51100000000E-03 0.  1.
         11   -1    0    0    0    0 -0.00000000000E+00 -0.00000000000E+00 -0.45593999997E+02  0.45594000000E+02  0.51100000000E-03 0. -1.
    9900012    2    1    2    0    0  0.15392328172E+02 -0.16761102754E+02  0.22335251819E+02  0.59301924577E+02  0.49999964526E+02 0.  0.
         12    1    1    2    0    0 -0.15392328172E+02  0.16761102754E+02 -0.22335251819E+02  0.31886075423E+02  0.00000000000E+00 0. -1.
         11    1    3    3    0    0  0.17336818405E+02 -0.55481798497E+01 -0.46349664504E+00  0.18208855029E+02  0.51100000000E-03 0. -1.
        -11    1    3    3    0    0 -0.49636106317E+01  0.74471955041E+01 -0.27034291974E+01  0.93491540294E+01  0.51100000000E-03 0.  1.
        -12    1    3    3    0    0  0.30191203992E+01 -0.18660118408E+02  0.25502177661E+02  0.31743915519E+02  0.00000000000E+00 0.  1.
</event>
<event>
 7    1  0.6061051E-012  0.5930194E+02  0.7816164E-02  0.1266605E+00
        -11   -1    0    0    0    0  0.00000000000E+00  0.00000000000E+00  0.45593999997E+02  0.45594000000E+02  0.51100000000E-03 0. -1.
         11   -1    0    0    0    0 -0.00000000000E+00 -0.00000000000E+00 -0.45593999997E+02  0.45594000000E+02  0.51100000000E-03 0.  1.
    9900012    2    1    2    0    0  0.23115285529E+02 -0.72567818238E+01 -0.20730254396E+02  0.59301941058E+02  0.49999994584E+02 0.  0.
         12    1    1    2    0    0 -0.23115285529E+02  0.72567818238E+01  0.20730254396E+02  0.31886058942E+02  0.00000000000E+00 0. -1.
         11    1    3    3    0    0  0.16745704179E+02 -0.51488188218E+01 -0.10024372090E+02  0.20184572816E+02  0.51100000000E-03 0. -1.
        -11    1    3    3    0    0  0.11875155866E+02  0.17676182653E+00 -0.22758668708E+02  0.25671142811E+02  0.51100000000E-03 0.  1.
         12    1    3    3    0    0 -0.55055745162E+01 -0.22847248286E+01  0.12052786402E+02  0.13446225431E+02  0.00000000000E+00 0. -1.
</event>
<event>
 7    1  0.6061051E-012  0.5930193E+02  0.7816164E-02  0.1266605E+00
        -11   -1    0    0    0    0  0.00000000000E+00  0.00000000000E+00  0.45593999997E+02  0.45594000000E+02  0.51100000000E-03 0.  1.
         11   -1    0    0    0    0 -0.00000000000E+00 -0.00000000000E+00 -0.45593999997E+02  0.45594000000E+02  0.51100000000E-03 0. -1.
    9900012    2    1    2    0    0 -0.14164450335E+02  0.38713224034E+01  0.28303753660E+02  0.59301933111E+02  0.49999980090E+02 0.  0.
         12    1    1    2    0    0  0.14164450335E+02 -0.38713224034E+01 -0.28303753660E+02  0.31886066889E+02  0.00000000000E+00 0. -1.
         11    1    3    3    0    0 -0.20395767895E+02  0.25723417071E+01  0.15497428625E+02  0.25744408794E+02  0.51100000000E-03 0. -1.
        -11    1    3    3    0    0  0.46564753344E+01 -0.13706220515E+02  0.11359711875E+02  0.18400714592E+02  0.51100000000E-03 0.  1.
         12    1    3    3    0    0  0.15748422265E+01  0.15005201211E+02  0.14466131604E+01  0.15156809726E+02  0.00000000000E+00 0. -1.
</event>
<event>
 7    1  0.6061051E-012  0.5930184E+02  0.7816164E-02  0.1266605E+00
        -11   -1    0    0    0    0  0.00000000000E+00  0.00000000000E+00  0.45593999997E+02  0.45594000000E+02  0.51100000000E-03 0.  1.
         11   -1    0    0    0    0 -0.00000000000E+00 -0.00000000000E+00 -0.45593999997E+02  0.45594000000E+02  0.51100000000E-03 0. -1.
    9900012    2    1    2    0    0 -0.16345855215E+02 -0.13845494816E+02  0.23618695605E+02  0.59301835423E+02  0.49999801930E+02 0.  0.
         12    1    1    2    0    0  0.16345855215E+02  0.13845494816E+02 -0.23618695605E+02  0.31886164577E+02  0.00000000000E+00 0. -1.
         11    1    3    3    0    0 -0.85431411276E-01 -0.36209473619E+01 -0.97285317848E+01  0.10380890582E+02  0.51100000000E-03 0. -1.
        -11    1    3    3    0    0 -0.34687543925E+01 -0.18757801694E+02  0.11733625716E+02  0.22395654804E+02  0.51100000000E-03 0.  1.
         12    1    3    3    0    0 -0.12791669411E+02  0.85332542399E+01  0.21613601673E+02  0.26525290037E+02  0.00000000000E+00 0. -1.
</event>
<event>
 7    1  0.6061051E-012  0.5930191E+02  0.7816164E-02  0.1266605E+00
        -11   -1    0    0    0    0  0.00000000000E+00  0.00000000000E+00  0.45593999997E+02  0.45594000000E+02  0.51100000000E-03 0.  1.
         11   -1    0    0    0    0 -0.00000000000E+00 -0.00000000000E+00 -0.45593999997E+02  0.45594000000E+02  0.51100000000E-03 0. -1.
    9900012    2    1    2    0    0  0.13940037753E+02 -0.48538125092E+01  0.28263728644E+02  0.59301913609E+02  0.49999944524E+02 0.  0.
         12    1    1    2    0    0 -0.13940037753E+02  0.48538125092E+01 -0.28263728644E+02  0.31886086391E+02  0.00000000000E+00 0. -1.
         11    1    3    3    0    0 -0.19639134518E+01 -0.98877465831E+01  0.22215976941E+02  0.24396190692E+02  0.51100000000E-03 0.  1.
        -11    1    3    3    0    0  0.30708298895E+01  0.10766269435E+02 -0.89633037855E+01  0.14341665481E+02  0.51100000000E-03 0. -1.
         12    1    3    3    0    0  0.12833121315E+02 -0.57323353612E+01  0.15011055488E+02  0.20564057437E+02  0.00000000000E+00 0. -1.
</event>
<event>
 7    1  0.6061051E-012  0.5930189E+02  0.7816164E-02  0.1266605E+00
        -11   -1    0    0    0    0  0.00000000000E+00  0.00000000000E+00  0.45593999997E+02  0.45594000000E+02  0.51100000000E-03 0. -1.
         11   -1    0    0    0    0 -0.00000000000E+00 -0.00000000000E+00 -0.45593999997E+02  0.45594000000E+02  0.51100000000E-03 0.  1.
    9900012    2    1    2    0    0 -0.22452048939E+02  0.18088349682E+02 -0.13617666023E+02  0.59301894504E+02  0.49999909681E+02 0.  0.
         12    1    1    2    0    0  0.22452048939E+02 -0.18088349682E+02  0.13617666023E+02  0.31886105496E+02  0.00000000000E+00 0. -1.
         11    1    3    3    0    0  0.14488996748E+01  0.58421207366E+01  0.50607732974E+01  0.78639119779E+01  0.51100000000E-03 0. -1.
        -11    1    3    3    0    0 -0.16099666149E+01  0.22364981549E+02 -0.36640800957E+01  0.22720252538E+02  0.51100000000E-03 0.  1.
        -12    1    3    3    0    0 -0.22290981999E+02 -0.10118752604E+02 -0.15014359225E+02  0.28717729988E+02  0.00000000000E+00 0.  1.
</event>
<event>
 7    1  0.6061051E-012  0.5930200E+02  0.7816164E-02  0.1266605E+00
        -11   -1    0    0    0    0  0.00000000000E+00  0.00000000000E+00  0.45593999997E+02  0.45594000000E+02  0.51100000000E-03 0.  1.
         11   -1    0    0    0    0 -0.00000000000E+00 -0.00000000000E+00 -0.45593999997E+02  0.45594000000E+02  0.51100000000E-03 0. -1.
    9900012    2    1    2    0    0 -0.26075496803E+02 -0.38149289060E+01 -0.17950823441E+02  0.59301995574E+02  0.50000094007E+02 0.  0.
         12    1    1    2    0    0  0.26075496803E+02  0.38149289060E+01  0.17950823441E+02  0.31886004426E+02  0.00000000000E+00 0. -1.
         11    1    3    3    0    0 -0.28925577124E+01  0.44773878789E+01  0.10488758537E+02  0.11765540712E+02  0.51100000000E-03 0. -1.
        -11    1    3    3    0    0  0.57528810313E+01 -0.70309460613E+01 -0.77685671366E+01  0.11953262245E+02  0.51100000000E-03 0.  1.
        -12    1    3    3    0    0 -0.28935820122E+02 -0.12613707237E+01 -0.20671014841E+02  0.35583192617E+02  0.00000000000E+00 0.  1.
</event>
<event>
 7    1  0.6061051E-012  0.5930190E+02  0.7816164E-02  0.1266605E+00
        -11   -1    0    0    0    0  0.00000000000E+00  0.00000000000E+00  0.45593999997E+02  0.45594000000E+02  0.51100000000E-03 0. -1.
         11   -1    0    0    0    0 -0.00000000000E+00 -0.00000000000E+00 -0.45593999997E+02  0.45594000000E+02  0.51100000000E-03 0.  1.
    9900012    2    1    2    0    0  0.26029729924E+02 -0.18289159172E+02 -0.21641177333E+01  0.59301896621E+02  0.49999913541E+02 0.  0.
         12    1    1    2    0    0 -0.26029729924E+02  0.18289159172E+02  0.21641177333E+01  0.31886103379E+02  0.00000000000E+00 0. -1.
         11    1    3    3    0    0  0.19859129566E+00 -0.13854191850E+02 -0.68529619014E+01  0.15457721611E+02  0.51100000000E-03 0.  1.
        -11    1    3    3    0    0 -0.45984711824E+01 -0.11166570277E+02  0.38223723730E+01  0.12666837008E+02  0.51100000000E-03 0. -1.
         12    1    3    3    0    0  0.30429609810E+02  0.67316029541E+01  0.86647179503E+00  0.31177338002E+02  0.00000000000E+00 0. -1.
</event>
<event>
 7    1  0.6061051E-012  0.5930196E+02  0.7816164E-02  0.1266605E+00
        -11   -1    0    0    0    0  0.00000000000E+00  0.00000000000E+00  0.45593999997E+02  0.45594000000E+02  0.51100000000E-03 0.  1.
         11   -1    0    0    0    0 -0.00000000000E+00 -0.00000000000E+00 -0.45593999997E+02  0.45594000000E+02  0.51100000000E-03 0. -1.
    9900012    2    1    2    0    0 -0.18196028804E+02  0.65866226077E+01  0.25342458272E+02  0.59301964610E+02  0.50000037538E+02 0.  0.
         12    1    1    2    0    0  0.18196028804E+02 -0.65866226077E+01 -0.25342458272E+02  0.31886035390E+02  0.00000000000E+00 0. -1.
         11    1    3    3    0    0 -0.21516432070E+02  0.18750449810E+01  0.20540475642E+02  0.29805767606E+02  0.51100000000E-03 0. -1.
        -11    1    3    3    0    0  0.22634116999E+01 -0.74224027781E+01  0.12769035696E+02  0.14942000147E+02  0.51100000000E-03 0.  1.
         12    1    3    3    0    0  0.10569915663E+01  0.12133980405E+02 -0.79670530657E+01  0.14554196858E+02  0.00000000000E+00 0. -1.
</event>
<event>
 7    1  0.6061051E-012  0.5930193E+02  0.7816164E-02  0.1266605E+00
        -11   -1    0    0    0    0  0.00000000000E+00  0.00000000000E+00  0.45593999997E+02  0.45594000000E+02  0.51100000000E-03 0.  1.
         11   -1    0    0    0    0 -0.00000000000E+00 -0.00000000000E+00 -0.45593999997E+02  0.45594000000E+02  0.51100000000E-03 0. -1.
    9900012    2    1    2    0    0 -0.23283487004E+02 -0.21250852947E+02  0.47960152585E+01  0.59301932817E+02  0.49999979555E+02 0.  0.
         12    1    1    2    0    0  0.23283487004E+02  0.21250852947E+02 -0.47960152585E+01  0.31886067183E+02  0.00000000000E+00 0. -1.
         11    1    3    3    0    0 -0.30761023056E+02 -0.19052341947E+02 -0.67323298187E+01  0.36804300539E+02  0.51100000000E-03 0. -1.
        -11    1    3    3    0    0 -0.43876876650E+01 -0.54241692797E+01  0.49343200659E+01  0.85452285046E+01  0.51100000000E-03 0.  1.
         12    1    3    3    0    0  0.11865223718E+02  0.32256582798E+01  0.65940250113E+01  0.13952403774E+02  0.00000000000E+00 0. -1.
</event>
<event>
 7    1  0.6061051E-012  0.5930192E+02  0.7816164E-02  0.1266605E+00
        -11   -1    0    0    0    0  0.00000000000E+00  0.00000000000E+00  0.45593999997E+02  0.45594000000E+02  0.51100000000E-03 0. -1.
         11   -1    0    0    0    0 -0.00000000000E+00 -0.00000000000E+00 -0.45593999997E+02  0.45594000000E+02  0.51100000000E-03 0.  1.
    9900012    2    1    2    0    0 -0.88107344454E+01 -0.20670382950E+02 -0.22623620053E+02  0.59301922206E+02  0.49999960203E+02 0.  0.
         12    1    1    2    0    0  0.88107344454E+01  0.20670382950E+02  0.22623620053E+02  0.31886077794E+02  0.00000000000E+00 0. -1.
         11    1    3    3    0    0 -0.13555386606E+02 -0.20746897296E+02 -0.33858511216E+02  0.41959278300E+02  0.51100000000E-03 0.  1.
        -11    1    3    3    0    0  0.42496483410E+00  0.22328383014E+01 -0.21407498079E+01  0.31223343818E+01  0.51100000000E-03 0. -1.
        -12    1    3    3    0    0  0.43196873264E+01 -0.21563239553E+01  0.13375640971E+02  0.14220309525E+02  0.00000000000E+00 0.  1.
</event>
<event>
 7    1  0.6061051E-012  0.5930195E+02  0.7816164E-02  0.1266605E+00
        -11   -1    0    0    0    0  0.00000000000E+00  0.00000000000E+00  0.45593999997E+02  0.45594000000E+02  0.51100000000E-03 0.  1.
         11   -1    0    0    0    0 -0.00000000000E+00 -0.00000000000E+00 -0.45593999997E+02  0.45594000000E+02  0.51100000000E-03 0. -1.
    9900012    2    1    2    0    0 -0.29757176788E+02  0.19493550342E+01  0.11288509789E+02  0.59301952758E+02  0.50000015922E+02 0.  0.
         12    1    1    2    0    0  0.29757176788E+02 -0.19493550342E+01 -0.11288509789E+02  0.31886047242E+02  0.00000000000E+00 0. -1.
         11    1    3    3    0    0 -0.15048888718E+02  0.20569495998E+02 -0.15833399428E+01  0.25535860723E+02  0.51100000000E-03 0. -1.
        -11    1    3    3    0    0 -0.18076157175E+02 -0.99484082934E+01  0.42161596855E+01  0.21059304085E+02  0.51100000000E-03 0.  1.
        -12    1    3    3    0    0  0.33678691054E+01 -0.86717326701E+01  0.86556900465E+01  0.12706787950E+02  0.00000000000E+00 0.  1.
</event>
<event>
 7    1  0.6061051E-012  0.5930196E+02  0.7816164E-02  0.1266605E+00
        -11   -1    0    0    0    0  0.00000000000E+00  0.00000000000E+00  0.45593999997E+02  0.45594000000E+02  0.51100000000E-03 0.  1.
         11   -1    0    0    0    0 -0.00000000000E+00 -0.00000000000E+00 -0.45593999997E+02  0.45594000000E+02  0.51100000000E-03 0. -1.
    9900012    2    1    2    0    0  0.73907490754E+01 -0.91950964391E+01  0.29623415845E+02  0.59301957023E+02  0.50000023700E+02 0.  0.
         12    1    1    2    0    0 -0.73907490754E+01  0.91950964391E+01 -0.29623415845E+02  0.31886042977E+02  0.00000000000E+00 0. -1.
         11    1    3    3    0    0 -0.37157113571E+01  0.72009649257E+01  0.47075497948E+01  0.93713089845E+01  0.51100000000E-03 0. -1.
        -11    1    3    3    0    0  0.19071878084E+02 -0.13025134617E+01  0.26627161782E+02  0.32778633587E+02  0.51100000000E-03 0.  1.
         12    1    3    3    0    0 -0.79654176517E+01 -0.15093547903E+02 -0.17112957323E+01  0.17152014452E+02  0.00000000000E+00 0. -1.
</event>
<event>
 7    1  0.6061051E-012  0.5930194E+02  0.7816164E-02  0.1266605E+00
        -11   -1    0    0    0    0  0.00000000000E+00  0.00000000000E+00  0.45593999997E+02  0.45594000000E+02  0.51100000000E-03 0. -1.
         11   -1    0    0    0    0 -0.00000000000E+00 -0.00000000000E+00 -0.45593999997E+02  0.45594000000E+02  0.51100000000E-03 0.  1.
    9900012    2    1    2    0    0 -0.15785490738E+02 -0.27671810603E+02 -0.13454606582E+01  0.59301935892E+02  0.49999985163E+02 0.  0.
         12    1    1    2    0    0  0.15785490738E+02  0.27671810603E+02  0.13454606582E+01  0.31886064108E+02  0.00000000000E+00 0. -1.
         11    1    3    3    0    0 -0.14235472254E+02 -0.25603385164E+02  0.38752331591E+01  0.29549948129E+02  0.51100000000E-03 0. -1.
        -11    1    3    3    0    0  0.10796684749E+00 -0.14220413029E+02  0.35703683673E+01  0.14662173581E+02  0.51100000000E-03 0.  1.
        -12    1    3    3    0    0 -0.16579853315E+01  0.12151987590E+02 -0.87910621846E+01  0.15089814183E+02  0.00000000000E+00 0.  1.
</event>
<event>
 7    1  0.6061051E-012  0.5930197E+02  0.7816164E-02  0.1266605E+00
        -11   -1    0    0    0    0  0.00000000000E+00  0.00000000000E+00  0.45593999997E+02  0.45594000000E+02  0.51100000000E-03 0.  1.
         11   -1    0    0    0    0 -0.00000000000E+00 -0.00000000000E+00 -0.45593999997E+02  0.45594000000E+02  0.51100000000E-03 0. -1.
    9900012    2    1    2    0    0 -0.69019744855E+01  0.29073828355E+02  0.11126284331E+02  0.59301969359E+02  0.50000046198E+02 0.  0.
         12    1    1    2    0    0  0.69019744855E+01 -0.29073828355E+02 -0.11126284331E+02  0.31886030641E+02  0.00000000000E+00 0. -1.
         11    1    3    3    0    0 -0.79145126964E+00 -0.40885818789E+01  0.11619927084E+02  0.12343646244E+02  0.51100000000E-03 0. -1.
        -11    1    3    3    0    0 -0.14228662953E+02  0.35308806592E+01  0.54957817790E+01  0.15656487003E+02  0.51100000000E-03 0.  1.
        -12    1    3    3    0    0  0.81181397370E+01  0.29631529575E+02 -0.59894245319E+01  0.31301836112E+02  0.00000000000E+00 0.  1.
</event>
<event>
 7    1  0.6061051E-012  0.5930195E+02  0.7816164E-02  0.1266605E+00
        -11   -1    0    0    0    0  0.00000000000E+00  0.00000000000E+00  0.45593999997E+02  0.45594000000E+02  0.51100000000E-03 0. -1.
         11   -1    0    0    0    0 -0.00000000000E+00 -0.00000000000E+00 -0.45593999997E+02  0.45594000000E+02  0.51100000000E-03 0.  1.
    9900012    2    1    2    0    0  0.12772317062E+02 -0.23415023914E+02 -0.17473549739E+02  0.59301947116E+02  0.50000005632E+02 0.  0.
         12    1    1    2    0    0 -0.12772317062E+02  0.23415023914E+02  0.17473549739E+02  0.31886052884E+02  0.00000000000E+00 0. -1.
         11    1    3    3    0    0 -0.10116139661E+02 -0.89114667328E+01  0.96553047108E+01  0.16582383131E+02  0.51100000000E-03 0. -1.
        -11    1    3    3    0    0  0.45752490442E+01  0.39853259003E+01 -0.95527250207E+01  0.11316814125E+02  0.51100000000E-03 0.  1.
        -12    1    3    3    0    0  0.18313207679E+02 -0.18488883082E+02 -0.17576129429E+02  0.31402749861E+02  0.00000000000E+00 0.  1.
</event>
<event>
 7    1  0.6061051E-012  0.5930195E+02  0.7816164E-02  0.1266605E+00
        -11   -1    0    0    0    0  0.00000000000E+00  0.00000000000E+00  0.45593999997E+02  0.45594000000E+02  0.51100000000E-03 0. -1.
         11   -1    0    0    0    0 -0.00000000000E+00 -0.00000000000E+00 -0.45593999997E+02  0.45594000000E+02  0.51100000000E-03 0.  1.
    9900012    2    1    2    0    0  0.26797389192E+02  0.31759132011E+01  0.16986273020E+02  0.59301953471E+02  0.50000017222E+02 0.  0.
         12    1    1    2    0    0 -0.26797389192E+02 -0.31759132011E+01 -0.16986273020E+02  0.31886046529E+02  0.00000000000E+00 0. -1.
         11    1    3    3    0    0  0.27253237382E+01 -0.42330181862E+01 -0.31936321070E+00  0.50445837850E+01  0.51100000000E-03 0. -1.
        -11    1    3    3    0    0  0.42151496015E+00 -0.19682743900E+01 -0.13871571973E+02  0.14016857286E+02  0.51100000000E-03 0.  1.
         12    1    3    3    0    0  0.23650550493E+02  0.93772057773E+01  0.31177208203E+02  0.40240512399E+02  0.00000000000E+00 0. -1.
</event>
<event>
 7    1  0.6061051E-012  0.5930193E+02  0.7816164E-02  0.1266605E+00
        -11   -1    0    0    0    0  0.00000000000E+00  0.00000000000E+00  0.45593999997E+02  0.45594000000E+02  0.51100000000E-03 0.  1.
         11   -1    0    0    0    0 -0.00000000000E+00 -0.00000000000E+00 -0.45593999997E+02  0.45594000000E+02  0.51100000000E-03 0. -1.
    9900012    2    1    2    0    0 -0.44421170357E+01 -0.26111072306E+02  0.17753898242E+02  0.59301930887E+02  0.49999976034E+02 0.  0.
         12    1    1    2    0    0  0.44421170357E+01  0.26111072306E+02 -0.17753898242E+02  0.31886069113E+02  0.00000000000E+00 0. -1.
         11    1    3    3    0    0  0.60676107224E+01  0.13548133938E+01  0.18798263781E+02  0.19799650013E+02  0.51100000000E-03 0. -1.
        -11    1    3    3    0    0 -0.50139824751E+01  0.90999137630E+00  0.77637670478E+01  0.92867746608E+01  0.51100000000E-03 0.  1.
         12    1    3    3    0    0 -0.54957452830E+01 -0.28375877076E+02 -0.88081325870E+01  0.30215506213E+02  0.00000000000E+00 0. -1.
</event>
<event>
 7    1  0.6061051E-012  0.5930191E+02  0.7816164E-02  0.1266605E+00
        -11   -1    0    0    0    0  0.00000000000E+00  0.00000000000E+00  0.45593999997E+02  0.45594000000E+02  0.51100000000E-03 0.  1.
         11   -1    0    0    0    0 -0.00000000000E+00 -0.00000000000E+00 -0.45593999997E+02  0.45594000000E+02  0.51100000000E-03 0. -1.
    9900012    2    1    2    0    0 -0.12304019506E+02  0.22265745885E+02  0.19224220627E+02  0.59301905938E+02  0.49999930533E+02 0.  0.
         12    1    1    2    0    0  0.12304019506E+02 -0.22265745885E+02 -0.19224220627E+02  0.31886094062E+02  0.00000000000E+00 0. -1.
         11    1    3    3    0    0 -0.54260590337E+01 -0.37660623533E+01  0.70873343188E+01  0.96879125871E+01  0.51100000000E-03 0. -1.
        -11    1    3    3    0    0 -0.43714022177E+00  0.35574597313E+02  0.46479416596E+01  0.35879610191E+02  0.51100000000E-03 0.  1.
         12    1    3    3    0    0 -0.64408202504E+01 -0.95427890745E+01  0.74889446489E+01  0.13734383160E+02  0.00000000000E+00 0. -1.
</event>
<event>
 7    1  0.6061051E-012  0.5930198E+02  0.7816164E-02  0.1266605E+00
        -11   -1    0    0    0    0  0.00000000000E+00  0.00000000000E+00  0.45593999997E+02  0.45594000000E+02  0.51100000000E-03 0. -1.
         11   -1    0    0    0    0 -0.00000000000E+00 -0.00000000000E+00 -0.45593999997E+02  0.45594000000E+02  0.51100000000E-03 0.  1.
    9900012    2    1    2    0    0 -0.62003756825E+01 -0.31277083601E+02  0.13314315142E+00  0.59301978858E+02  0.50000063522E+02 0.  0.
         12    1    1    2    0    0  0.62003756825E+01  0.31277083601E+02 -0.13314315142E+00  0.31886021142E+02  0.00000000000E+00 0. -1.
         11    1    3    3    0    0  0.17035376069E+02 -0.28173836578E+02  0.56139762715E+01  0.33398889729E+02  0.51100000000E-03 0. -1.
        -11    1    3    3    0    0 -0.13582933189E+02 -0.49807615136E+01  0.34826991830E+00  0.14471535906E+02  0.51100000000E-03 0.  1.
        -12    1    3    3    0    0 -0.96528185626E+01  0.18775144904E+01 -0.58291030384E+01  0.11431553223E+02  0.00000000000E+00 0.  1.
</event>
<event>
 7    1  0.6061051E-012  0.5930197E+02  0.7816164E-02  0.1266605E+00
        -11   -1    0    0    0    0  0.00000000000E+00  0.00000000000E+00  0.45593999997E+02  0.45594000000E+02  0.51100000000E-03 0.  1.
         11   -1    0    0    0    0 -0.00000000000E+00 -0.00000000000E+00 -0.45593999997E+02  0.45594000000E+02  0.51100000000E-03 0. -1.
    9900012    2    1    2    0    0  0.23966208997E+02  0.20158366954E+02 -0.59983319978E+01  0.59301969850E+02  0.50000047094E+02 0.  0.
         12    1    1    2    0    0 -0.23966208997E+02 -0.20158366954E+02  0.59983319978E+01  0.31886030150E+02  0.00000000000E+00 0. -1.
         11    1    3    3    0    0 -0.64858658611E+01  0.22277695311E+01 -0.80823858347E+01  0.10599734624E+02  0.51100000000E-03 0. -1.
        -11    1    3    3    0    0 -0.65996960440E+01  0.16075682410E+01  0.44905701676E+01  0.81428179529E+01  0.51100000000E-03 0.  1.
        -12    1    3    3    0    0  0.37051770903E+02  0.16323029182E+02 -0.24065163307E+01  0.40559417273E+02  0.00000000000E+00 0.  1.
</event>
<event>
 7    1  0.6061051E-012  0.5930194E+02  0.7816164E-02  0.1266605E+00
        -11   -1    0    0    0    0  0.00000000000E+00  0.00000000000E+00  0.45593999997E+02  0.45594000000E+02  0.51100000000E-03 0.  1.
         11   -1    0    0    0    0 -0.00000000000E+00 -0.00000000000E+00 -0.45593999997E+02  0.45594000000E+02  0.51100000000E-03 0. -1.
    9900012    2    1    2    0    0  0.12598005653E+02 -0.18432662445E+01  0.29233773312E+02  0.59301939113E+02  0.49999991036E+02 0.  0.
         12    1    1    2    0    0 -0.12598005653E+02  0.18432662445E+01 -0.29233773312E+02  0.31886060887E+02  0.00000000000E+00 0. -1.
         11    1    3    3    0    0  0.11923921856E+02 -0.37115926832E+01  0.22703809828E+01  0.12692929636E+02  0.51100000000E-03 0. -1.
        -11    1    3    3    0    0  0.18014299437E+02  0.75303537819E+01  0.16611137304E+02  0.25634958457E+02  0.51100000000E-03 0.  1.
        -12    1    3    3    0    0 -0.17340215640E+02 -0.56620273432E+01  0.10352255025E+02  0.20974051020E+02  0.00000000000E+00 0.  1.
</event>
<event>
 7    1  0.6061051E-012  0.5930189E+02  0.7816164E-02  0.1266605E+00
        -11   -1    0    0    0    0  0.00000000000E+00  0.00000000000E+00  0.45593999997E+02  0.45594000000E+02  0.51100000000E-03 0.  1.
         11   -1    0    0    0    0 -0.00000000000E+00 -0.00000000000E+00 -0.45593999997E+02  0.45594000000E+02  0.51100000000E-03 0. -1.
    9900012    2    1    2    0    0  0.10136037295E+02 -0.26039815331E+02  0.15359444711E+02  0.59301893679E+02  0.49999908175E+02 0.  0.
         12    1    1    2    0    0 -0.10136037295E+02  0.26039815331E+02 -0.15359444711E+02  0.31886106321E+02  0.00000000000E+00 0. -1.
         11    1    3    3    0    0 -0.51087985907E+01 -0.16826607147E+02  0.11488694434E+01  0.17622554650E+02  0.51100000000E-03 0. -1.
        -11    1    3    3    0    0 -0.72055279266E+01 -0.14050599033E+02  0.28058203553E+01  0.16037817620E+02  0.51100000000E-03 0.  1.
        -12    1    3    3    0    0  0.22450363812E+02  0.48373908498E+01  0.11404754912E+02  0.25641521409E+02  0.00000000000E+00 0.  1.
</event>
<event>
 7    1  0.6061051E-012  0.5930195E+02  0.7816164E-02  0.1266605E+00
        -11   -1    0    0    0    0  0.00000000000E+00  0.00000000000E+00  0.45593999997E+02  0.45594000000E+02  0.51100000000E-03 0.  1.
         11   -1    0    0    0    0 -0.00000000000E+00 -0.00000000000E+00 -0.45593999997E+02  0.45594000000E+02  0.51100000000E-03 0. -1.
    9900012    2    1    2    0    0 -0.16763578146E+01 -0.91850183057E+01  0.30488448056E+02  0.59301949732E+02  0.50000010404E+02 0.  0.
         12    1    1    2    0    0  0.16763578146E+01  0.91850183057E+01 -0.30488448056E+02  0.31886050268E+02  0.00000000000E+00 0. -1.
         11    1    3    3    0    0  0.66098438645E+01 -0.86916164883E+01 -0.91277316972E+01  0.14231996321E+02  0.51100000000E-03 0. -1.
        -11    1    3    3    0    0  0.59169626769E+01  0.32919252354E+01  0.13431995770E+02  0.15042131820E+02  0.51100000000E-03 0.  1.
        -12    1    3    3    0    0 -0.14203164356E+02 -0.37853270528E+01  0.26184183983E+02  0.30027821591E+02  0.00000000000E+00 0.  1.
</event>
<event>
 7    1  0.6061051E-012  0.5930193E+02  0.7816164E-02  0.1266605E+00
        -11   -1    0    0    0    0  0.00000000000E+00  0.00000000000E+00  0.45593999997E+02  0.45594000000E+02  0.51100000000E-03 0.  1.
         11   -1    0    0    0    0 -0.00000000000E+00 -0.00000000000E+00 -0.45593999997E+02  0.45594000000E+02  0.51100000000E-03 0. -1.
    9900012    2    1    2    0    0  0.78887279478E+01 -0.17577736047E+02  0.25406942631E+02  0.59301928322E+02  0.49999971357E+02 0.  0.
         12    1    1    2    0    0 -0.78887279478E+01  0.17577736047E+02 -0.25406942631E+02  0.31886071678E+02  0.00000000000E+00 0. -1.
         11    1    3    3    0    0  0.27589759653E+01 -0.30744051578E+01 -0.13637615660E+02  0.14249507942E+02  0.51100000000E-03 0. -1.
        -11    1    3    3    0    0  0.97145255708E+00 -0.11428288319E+02  0.90356375567E+01  0.14601104078E+02  0.51100000000E-03 0.  1.
        -12    1    3    3    0    0  0.41582994254E+01 -0.30750425703E+01  0.30008920734E+02  0.30451316302E+02  0.00000000000E+00 0.  1.
</event>
<event>
 7    1  0.6061051E-012  0.5930202E+02  0.7816164E-02  0.1266605E+00
        -11   -1    0    0    0    0  0.00000000000E+00  0.00000000000E+00  0.45593999997E+02  0.45594000000E+02  0.51100000000E-03 0. -1.
         11   -1    0    0    0    0 -0.00000000000E+00 -0.00000000000E+00 -0.45593999997E+02  0.45594000000E+02  0.51100000000E-03 0.  1.
    9900012    2    1    2    0    0 -0.64005470225E+01 -0.16611462951E+02 -0.26453886996E+02  0.59302018115E+02  0.50000135118E+02 0.  0.
         12    1    1    2    0    0  0.64005470225E+01  0.16611462951E+02  0.26453886996E+02  0.31885981885E+02  0.00000000000E+00 0. -1.
         11    1    3    3    0    0 -0.62650834874E+00 -0.12069867017E+02  0.31823048295E+01  0.12498050520E+02  0.51100000000E-03 0. -1.
        -11    1    3    3    0    0  0.81245451405E+01 -0.10791250052E+01  0.48067696029E+01  0.95014619293E+01  0.51100000000E-03 0.  1.
         12    1    3    3    0    0 -0.13898583814E+02 -0.34624709287E+01 -0.34442961429E+02  0.37302505666E+02  0.00000000000E+00 0. -1.
</event>
<event>
 7    1  0.6061051E-012  0.5930195E+02  0.7816164E-02  0.1266605E+00
        -11   -1    0    0    0    0  0.00000000000E+00  0.00000000000E+00  0.45593999997E+02  0.45594000000E+02  0.51100000000E-03 0. -1.
         11   -1    0    0    0    0 -0.00000000000E+00 -0.00000000000E+00 -0.45593999997E+02  0.45594000000E+02  0.51100000000E-03 0.  1.
    9900012    2    1    2    0    0  0.18840567106E+02 -0.25707910579E+02 -0.92543332629E+00  0.59301951921E+02  0.50000014396E+02 0.  0.
         12    1    1    2    0    0 -0.18840567106E+02  0.25707910579E+02  0.92543332629E+00  0.31886048079E+02  0.00000000000E+00 0. -1.
         11    1    3    3    0    0  0.10170729161E+02 -0.18796988897E+02  0.19335117157E+02  0.28820431624E+02  0.51100000000E-03 0. -1.
        -11    1    3    3    0    0 -0.50713647941E+01  0.93145810554E-01 -0.11904658678E+02  0.12940182206E+02  0.51100000000E-03 0.  1.
        -12    1    3    3    0    0  0.13741202740E+02 -0.70040674931E+01 -0.83558918052E+01  0.17541338091E+02  0.00000000000E+00 0.  1.
</event>
<event>
 7    1  0.6061051E-012  0.5930194E+02  0.7816164E-02  0.1266605E+00
        -11   -1    0    0    0    0  0.00000000000E+00  0.00000000000E+00  0.45593999997E+02  0.45594000000E+02  0.51100000000E-03 0.  1.
         11   -1    0    0    0    0 -0.00000000000E+00 -0.00000000000E+00 -0.45593999997E+02  0.45594000000E+02  0.51100000000E-03 0. -1.
    9900012    2    1    2    0    0 -0.25595891871E+02 -0.14338813584E+02 -0.12488785008E+02  0.59301937110E+02  0.49999987384E+02 0.  0.
         12    1    1    2    0    0  0.25595891871E+02  0.14338813584E+02  0.12488785008E+02  0.31886062890E+02  0.00000000000E+00 0. -1.
         11    1    3    3    0    0  0.12147892810E+02  0.50365420875E+00 -0.36920409716E+01  0.12706539028E+02  0.51100000000E-03 0. -1.
        -11    1    3    3    0    0  0.10407547718E+00 -0.63741416541E+01 -0.39760253833E+01  0.75132743622E+01  0.51100000000E-03 0.  1.
        -12    1    3    3    0    0 -0.37847860158E+02 -0.84683261387E+01 -0.48207186529E+01  0.39082123720E+02  0.00000000000E+00 0.  1.
</event>
<event>
 7    1  0.6061051E-012  0.5930192E+02  0.7816164E-02  0.1266605E+00
        -11   -1    0    0    0    0  0.00000000000E+00  0.00000000000E+00  0.45593999997E+02  0.45594000000E+02  0.51100000000E-03 0.  1.
         11   -1    0    0    0    0 -0.00000000000E+00 -0.00000000000E+00 -0.45593999997E+02  0.45594000000E+02  0.51100000000E-03 0. -1.
    9900012    2    1    2    0    0  0.18841700561E+02 -0.22393815053E+02  0.12658169714E+02  0.59301923208E+02  0.49999962029E+02 0.  0.
         12    1    1    2    0    0 -0.18841700561E+02  0.22393815053E+02 -0.12658169714E+02  0.31886076792E+02  0.00000000000E+00 0. -1.
         11    1    3    3    0    0  0.29662601270E+02 -0.10644406762E+02  0.12471197001E+01  0.31539318591E+02  0.51100000000E-03 0. -1.
        -11    1    3    3    0    0  0.29302647989E+01  0.24079366558E+01  0.63355860344E+01  0.73840545360E+01  0.51100000000E-03 0.  1.
         12    1    3    3    0    0 -0.13751165507E+02 -0.14157344948E+02  0.50754639796E+01  0.20378550080E+02  0.00000000000E+00 0. -1.
</event>
<event>
 7    1  0.6061051E-012  0.5930193E+02  0.7816164E-02  0.1266605E+00
        -11   -1    0    0    0    0  0.00000000000E+00  0.00000000000E+00  0.45593999997E+02  0.45594000000E+02  0.51100000000E-03 0. -1.
         11   -1    0    0    0    0 -0.00000000000E+00 -0.00000000000E+00 -0.45593999997E+02  0.45594000000E+02  0.51100000000E-03 0.  1.
    9900012    2    1    2    0    0  0.23020421075E+02 -0.22062651567E+02 -0.14510212058E+00  0.59301930389E+02  0.49999975126E+02 0.  0.
         12    1    1    2    0    0 -0.23020421075E+02  0.22062651567E+02  0.14510212058E+00  0.31886069611E+02  0.00000000000E+00 0. -1.
         11    1    3    3    0    0  0.12500877454E+02  0.47053417227E+01 -0.52013705033E+01  0.14334100363E+02  0.51100000000E-03 0. -1.
        -11    1    3    3    0    0  0.18624532423E+02 -0.91150116404E+01 -0.72577038466E+01  0.21968862296E+02  0.51100000000E-03 0.  1.
         12    1    3    3    0    0 -0.81049888023E+01 -0.17652981649E+02  0.12313972229E+02  0.22998967730E+02  0.00000000000E+00 0. -1.
</event>
<event>
 7    1  0.6061051E-012  0.5930193E+02  0.7816164E-02  0.1266605E+00
        -11   -1    0    0    0    0  0.00000000000E+00  0.00000000000E+00  0.45593999997E+02  0.45594000000E+02  0.51100000000E-03 0.  1.
         11   -1    0    0    0    0 -0.00000000000E+00 -0.00000000000E+00 -0.45593999997E+02  0.45594000000E+02  0.51100000000E-03 0. -1.
    9900012    2    1    2    0    0 -0.15646733582E+02 -0.10308072858E+02  0.25800091618E+02  0.59301931485E+02  0.49999977125E+02 0.  0.
         12    1    1    2    0    0  0.15646733582E+02  0.10308072858E+02 -0.25800091618E+02  0.31886068515E+02  0.00000000000E+00 0. -1.
         11    1    3    3    0    0 -0.12621915994E+01 -0.12855315546E+02  0.10000916143E+01  0.12955788240E+02  0.51100000000E-03 0. -1.
        -11    1    3    3    0    0 -0.17966205480E+02 -0.12869619547E+02  0.86472227244E+01  0.23731542465E+02  0.51100000000E-03 0.  1.
        -12    1    3    3    0    0  0.35816634974E+01  0.15416862236E+02  0.16152777280E+02  0.22614600780E+02  0.00000000000E+00 0.  1.
</event>
<event>
 7    1  0.6061051E-012  0.5930194E+02  0.7816164E-02  0.1266605E+00
        -11   -1    0    0    0    0  0.00000000000E+00  0.00000000000E+00  0.45593999997E+02  0.45594000000E+02  0.51100000000E-03 0. -1.
         11   -1    0    0    0    0 -0.00000000000E+00 -0.00000000000E+00 -0.45593999997E+02  0.45594000000E+02  0.51100000000E-03 0.  1.
    9900012    2    1    2    0    0 -0.24111829384E+02  0.14068802592E+02 -0.15408099188E+02  0.59301936537E+02  0.49999986338E+02 0.  0.
         12    1    1    2    0    0  0.24111829384E+02 -0.14068802592E+02  0.15408099188E+02  0.31886063463E+02  0.00000000000E+00 0. -1.
         11    1    3    3    0    0 -0.13928608598E+01  0.82175758979E+01  0.45959970978E+01  0.95179727146E+01  0.51100000000E-03 0. -1.
        -11    1    3    3    0    0 -0.16617667802E+02  0.17974477123E+02  0.13115975127E+01  0.24514261141E+02  0.51100000000E-03 0.  1.
         12    1    3    3    0    0 -0.61013007220E+01 -0.12123250428E+02 -0.21315693799E+02  0.25269702681E+02  0.00000000000E+00 0. -1.
</event>
<event>
 7    1  0.6061051E-012  0.5930191E+02  0.7816164E-02  0.1266605E+00
        -11   -1    0    0    0    0  0.00000000000E+00  0.00000000000E+00  0.45593999997E+02  0.45594000000E+02  0.51100000000E-03 0.  1.
         11   -1    0    0    0    0 -0.00000000000E+00 -0.00000000000E+00 -0.45593999997E+02  0.45594000000E+02  0.51100000000E-03 0. -1.
    9900012    2    1    2    0    0  0.20220011031E+02 -0.21948883241E+01  0.24557208602E+02  0.59301907810E+02  0.49999933947E+02 0.  0.
         12    1    1    2    0    0 -0.20220011031E+02  0.21948883241E+01 -0.24557208602E+02  0.31886092190E+02  0.00000000000E+00 0. -1.
         11    1    3    3    0    0 -0.77733883440E+01 -0.42413540947E+01  0.16093651722E+02  0.18369003155E+02  0.51100000000E-03 0. -1.
        -11    1    3    3    0    0  0.78568909628E+01 -0.61696556360E+00  0.17124954603E+02  0.18851404524E+02  0.51100000000E-03 0.  1.
         12    1    3    3    0    0  0.20136508412E+02  0.26634313342E+01 -0.86613977230E+01  0.22081500131E+02  0.00000000000E+00 0. -1.
</event>
<event>
 7    1  0.6061051E-012  0.5930193E+02  0.7816164E-02  0.1266605E+00
        -11   -1    0    0    0    0  0.00000000000E+00  0.00000000000E+00  0.45593999997E+02  0.45594000000E+02  0.51100000000E-03 0. -1.
         11   -1    0    0    0    0 -0.00000000000E+00 -0.00000000000E+00 -0.45593999997E+02  0.45594000000E+02  0.51100000000E-03 0.  1.
    9900012    2    1    2    0    0  0.87238910713E+01 -0.28981738560E+02  0.10033647876E+02  0.59301928823E+02  0.49999972271E+02 0.  0.
         12    1    1    2    0    0 -0.87238910713E+01  0.28981738560E+02 -0.10033647876E+02  0.31886071177E+02  0.00000000000E+00 0. -1.
         11    1    3    3    0    0 -0.25112783207E+01 -0.71324203439E+01  0.17467699983E+02  0.19034139900E+02  0.51100000000E-03 0. -1.
        -11    1    3    3    0    0 -0.67844332240E+01  0.93698793155E+00 -0.88409364984E+01  0.11183409095E+02  0.51100000000E-03 0.  1.
        -12    1    3    3    0    0  0.18019602616E+02 -0.22786306148E+02  0.14068843907E+01  0.29084379828E+02  0.00000000000E+00 0.  1.
</event>
<event>
 7    1  0.6061051E-012  0.5930194E+02  0.7816164E-02  0.1266605E+00
        -11   -1    0    0    0    0  0.00000000000E+00  0.00000000000E+00  0.45593999997E+02  0.45594000000E+02  0.51100000000E-03 0. -1.
         11   -1    0    0    0    0 -0.00000000000E+00 -0.00000000000E+00 -0.45593999997E+02  0.45594000000E+02  0.51100000000E-03 0.  1.
    9900012    2    1    2    0    0 -0.27743453639E+02  0.12043113032E+02 -0.10098768677E+02  0.59301938467E+02  0.49999989858E+02 0.  0.
         12    1    1    2    0    0  0.27743453639E+02 -0.12043113032E+02  0.10098768677E+02  0.31886061533E+02  0.00000000000E+00 0. -1.
         11    1    3    3    0    0 -0.40378071030E+02  0.98705286614E+01 -0.15167786247E+02  0.44247911771E+02  0.51100000000E-03 0.  1.
        -11    1    3    3    0    0  0.38845399146E+01  0.17519793527E+01 -0.10247314292E+01  0.43828252034E+01  0.51100000000E-03 0. -1.
        -12    1    3    3    0    0  0.87500774769E+01  0.42060501751E+00  0.60937489985E+01  0.10671201492E+02  0.00000000000E+00 0.  1.
</event>
<event>
 7    1  0.6061051E-012  0.5930201E+02  0.7816164E-02  0.1266605E+00
        -11   -1    0    0    0    0  0.00000000000E+00  0.00000000000E+00  0.45593999997E+02  0.45594000000E+02  0.51100000000E-03 0. -1.
         11   -1    0    0    0    0 -0.00000000000E+00 -0.00000000000E+00 -0.45593999997E+02  0.45594000000E+02  0.51100000000E-03 0.  1.
    9900012    2    1    2    0    0  0.24018981764E+02  0.18482627520E+02 -0.99094491154E+01  0.59302012689E+02  0.50000125222E+02 0.  0.
         12    1    1    2    0    0 -0.24018981764E+02 -0.18482627520E+02  0.99094491154E+01  0.31885987311E+02  0.00000000000E+00 0. -1.
         11    1    3    3    0    0  0.32654480725E+02 -0.56170983809E+00 -0.58568224146E+01  0.33180310403E+02  0.51100000000E-03 0.  1.
        -11    1    3    3    0    0 -0.19368157517E+01  0.66407377499E+01  0.57139189222E+01  0.89721526307E+01  0.51100000000E-03 0. -1.
        -12    1    3    3    0    0 -0.66986832095E+01  0.12403599608E+02 -0.97665456230E+01  0.17149549656E+02  0.00000000000E+00 0.  1.
</event>
<event>
 7    1  0.6061051E-012  0.5930195E+02  0.7816164E-02  0.1266605E+00
        -11   -1    0    0    0    0  0.00000000000E+00  0.00000000000E+00  0.45593999997E+02  0.45594000000E+02  0.51100000000E-03 0.  1.
         11   -1    0    0    0    0 -0.00000000000E+00 -0.00000000000E+00 -0.45593999997E+02  0.45594000000E+02  0.51100000000E-03 0. -1.
    9900012    2    1    2    0    0  0.21953718500E+02  0.84214348384E+01  0.21536801850E+02  0.59301950469E+02  0.50000011748E+02 0.  0.
         12    1    1    2    0    0 -0.21953718500E+02 -0.84214348384E+01 -0.21536801850E+02  0.31886049531E+02  0.00000000000E+00 0. -1.
         11    1    3    3    0    0 -0.11146597576E+01  0.39458441609E+01  0.18197110086E+02  0.18653336652E+02  0.51100000000E-03 0. -1.
        -11    1    3    3    0    0  0.26085754790E+02  0.14296448057E+02  0.52284281824E+01  0.30202508033E+02  0.51100000000E-03 0.  1.
         12    1    3    3    0    0 -0.30173765317E+01 -0.98208573792E+01 -0.18887364175E+01  0.10446105784E+02  0.00000000000E+00 0. -1.
</event>
<event>
 7    1  0.6061051E-012  0.5930194E+02  0.7816164E-02  0.1266605E+00
        -11   -1    0    0    0    0  0.00000000000E+00  0.00000000000E+00  0.45593999997E+02  0.45594000000E+02  0.51100000000E-03 0.  1.
         11   -1    0    0    0    0 -0.00000000000E+00 -0.00000000000E+00 -0.45593999997E+02  0.45594000000E+02  0.51100000000E-03 0. -1.
    9900012    2    1    2    0    0 -0.23074554350E+02 -0.21936072400E+02  0.17591041535E+01  0.59301940692E+02  0.49999993917E+02 0.  0.
         12    1    1    2    0    0  0.23074554350E+02  0.21936072400E+02 -0.17591041535E+01  0.31886059308E+02  0.00000000000E+00 0. -1.
         11    1    3    3    0    0 -0.94478256235E+01 -0.29105684509E+00  0.12207713940E+02  0.15439378323E+02  0.51100000000E-03 0. -1.
        -11    1    3    3    0    0  0.58251565990E+01  0.35065966932E+01  0.50703049146E+01  0.84815483233E+01  0.51100000000E-03 0.  1.
         12    1    3    3    0    0 -0.19451885325E+02 -0.25151612248E+02 -0.15518914702E+02  0.35381014045E+02  0.00000000000E+00 0. -1.
</event>
<event>
 7    1  0.6061051E-012  0.5930194E+02  0.7816164E-02  0.1266605E+00
        -11   -1    0    0    0    0  0.00000000000E+00  0.00000000000E+00  0.45593999997E+02  0.45594000000E+02  0.51100000000E-03 0.  1.
         11   -1    0    0    0    0 -0.00000000000E+00 -0.00000000000E+00 -0.45593999997E+02  0.45594000000E+02  0.51100000000E-03 0. -1.
    9900012    2    1    2    0    0 -0.92310647275E+01  0.15646845040E+02  0.26204665467E+02  0.59301940226E+02  0.49999993066E+02 0.  0.
         12    1    1    2    0    0  0.92310647275E+01 -0.15646845040E+02 -0.26204665467E+02  0.31886059774E+02  0.00000000000E+00 0. -1.
         11    1    3    3    0    0  0.11984409778E+01  0.53550680060E+01 -0.64767025899E+01  0.84888568621E+01  0.51100000000E-03 0. -1.
        -11    1    3    3    0    0  0.14541673592E+01  0.20668229026E+02  0.95509370973E+01  0.22814703450E+02  0.51100000000E-03 0.  1.
        -12    1    3    3    0    0 -0.11883673064E+02 -0.10376451992E+02  0.23130430959E+02  0.27998379914E+02  0.00000000000E+00 0.  1.
</event>
<event>
 7    1  0.6061051E-012  0.5930190E+02  0.7816164E-02  0.1266605E+00
        -11   -1    0    0    0    0  0.00000000000E+00  0.00000000000E+00  0.45593999997E+02  0.45594000000E+02  0.51100000000E-03 0. -1.
         11   -1    0    0    0    0 -0.00000000000E+00 -0.00000000000E+00 -0.45593999997E+02  0.45594000000E+02  0.51100000000E-03 0.  1.
    9900012    2    1    2    0    0 -0.24138342119E+02 -0.10593627400E+02 -0.17939868574E+02  0.59301899797E+02  0.49999919333E+02 0.  0.
         12    1    1    2    0    0  0.24138342119E+02  0.10593627400E+02  0.17939868574E+02  0.31886100203E+02  0.00000000000E+00 0. -1.
         11    1    3    3    0    0  0.95787191732E+01 -0.91410621794E+01 -0.44094969077E+01  0.13955448470E+02  0.51100000000E-03 0. -1.
        -11    1    3    3    0    0 -0.75100811691E+01  0.72387444212E+01 -0.14330021437E+02  0.17724284319E+02  0.51100000000E-03 0.  1.
         12    1    3    3    0    0 -0.26206980123E+02 -0.86913096418E+01  0.79964977122E+00  0.27622167008E+02  0.00000000000E+00 0. -1.
</event>
<event>
 7    1  0.6061051E-012  0.5930195E+02  0.7816164E-02  0.1266605E+00
        -11   -1    0    0    0    0  0.00000000000E+00  0.00000000000E+00  0.45593999997E+02  0.45594000000E+02  0.51100000000E-03 0.  1.
         11   -1    0    0    0    0 -0.00000000000E+00 -0.00000000000E+00 -0.45593999997E+02  0.45594000000E+02  0.51100000000E-03 0. -1.
    9900012    2    1    2    0    0  0.28792583326E+02  0.13640889892E+02 -0.12780094852E+01  0.59301952269E+02  0.50000015031E+02 0.  0.
         12    1    1    2    0    0 -0.28792583326E+02 -0.13640889892E+02  0.12780094852E+01  0.31886047731E+02  0.00000000000E+00 0. -1.
         11    1    3    3    0    0 -0.12124643393E+00 -0.26649661360E+01 -0.73634137370E+01  0.78317691058E+01  0.51100000000E-03 0. -1.
        -11    1    3    3    0    0  0.82962815467E+01  0.25077930293E+02 -0.43205268091E+01  0.26765609043E+02  0.51100000000E-03 0.  1.
         12    1    3    3    0    0  0.20617548213E+02 -0.87720742649E+01  0.10405931061E+02  0.24704574121E+02  0.00000000000E+00 0. -1.
</event>
<event>
 7    1  0.6061051E-012  0.5930187E+02  0.7816164E-02  0.1266605E+00
        -11   -1    0    0    0    0  0.00000000000E+00  0.00000000000E+00  0.45593999997E+02  0.45594000000E+02  0.51100000000E-03 0.  1.
         11   -1    0    0    0    0 -0.00000000000E+00 -0.00000000000E+00 -0.45593999997E+02  0.45594000000E+02  0.51100000000E-03 0. -1.
    9900012    2    1    2    0    0  0.24191003722E+02 -0.51345122845E+01  0.20128529513E+02  0.59301865430E+02  0.49999856657E+02 0.  0.
         12    1    1    2    0    0 -0.24191003722E+02  0.51345122845E+01 -0.20128529513E+02  0.31886134570E+02  0.00000000000E+00 0. -1.
         11    1    3    3    0    0  0.46811895155E+01 -0.10209154850E+02  0.69134844906E+01  0.13188504316E+02  0.51100000000E-03 0. -1.
        -11    1    3    3    0    0  0.11000303800E+01 -0.66322259152E+01  0.21690257109E+02  0.22708230692E+02  0.51100000000E-03 0.  1.
         12    1    3    3    0    0  0.18409783826E+02  0.11706868481E+02 -0.84752120874E+01  0.23405130422E+02  0.00000000000E+00 0. -1.
</event>
<event>
 7    1  0.6061051E-012  0.5930194E+02  0.7816164E-02  0.1266605E+00
        -11   -1    0    0    0    0  0.00000000000E+00  0.00000000000E+00  0.45593999997E+02  0.45594000000E+02  0.51100000000E-03 0. -1.
         11   -1    0    0    0    0 -0.00000000000E+00 -0.00000000000E+00 -0.45593999997E+02  0.45594000000E+02  0.51100000000E-03 0.  1.
    9900012    2    1    2    0    0 -0.86612441081E+01  0.30198774790E+02  0.54532517850E+01  0.59301935593E+02  0.49999984618E+02 0.  0.
         12    1    1    2    0    0  0.86612441081E+01 -0.30198774790E+02 -0.54532517850E+01  0.31886064407E+02  0.00000000000E+00 0. -1.
         11    1    3    3    0    0 -0.59895253697E+01 -0.73086347699E+01 -0.48557362656E+01  0.10623969658E+02  0.51100000000E-03 0. -1.
        -11    1    3    3    0    0 -0.11885152735E+02  0.19190969549E+02 -0.49626834881E+01  0.23112299657E+02  0.51100000000E-03 0.  1.
         12    1    3    3    0    0  0.92134339962E+01  0.18316440011E+02  0.15271671539E+02  0.25565666278E+02  0.00000000000E+00 0. -1.
</event>
<event>
 7    1  0.6061051E-012  0.5930205E+02  0.7816164E-02  0.1266604E+00
        -11   -1    0    0    0    0  0.00000000000E+00  0.00000000000E+00  0.45593999997E+02  0.45594000000E+02  0.51100000000E-03 0. -1.
         11   -1    0    0    0    0 -0.00000000000E+00 -0.00000000000E+00 -0.45593999997E+02  0.45594000000E+02  0.51100000000E-03 0.  1.
    9900012    2    1    2    0    0 -0.10181187362E+02 -0.25007503407E+02 -0.16961200128E+02  0.59302045215E+02  0.50000184541E+02 0.  0.
         12    1    1    2    0    0  0.10181187362E+02  0.25007503407E+02  0.16961200128E+02  0.31885954785E+02  0.00000000000E+00 0. -1.
         11    1    3    3    0    0  0.71668378161E+01 -0.25480893568E+01 -0.25385759344E+02  0.26500813222E+02  0.51100000000E-03 0. -1.
        -11    1    3    3    0    0 -0.10786535959E+02 -0.47186645553E+01 -0.71188494368E+00  0.11794996126E+02  0.51100000000E-03 0.  1.
        -12    1    3    3    0    0 -0.65614892193E+01 -0.17740749495E+02  0.91364441596E+01  0.21006235867E+02  0.00000000000E+00 0.  1.
</event>
<event>
 7    1  0.6061051E-012  0.5930191E+02  0.7816164E-02  0.1266605E+00
        -11   -1    0    0    0    0  0.00000000000E+00  0.00000000000E+00  0.45593999997E+02  0.45594000000E+02  0.51100000000E-03 0.  1.
         11   -1    0    0    0    0 -0.00000000000E+00 -0.00000000000E+00 -0.45593999997E+02  0.45594000000E+02  0.51100000000E-03 0. -1.
    9900012    2    1    2    0    0  0.10800627428E+00  0.24749445839E+02  0.20104129060E+02  0.59301909930E+02  0.49999937814E+02 0.  0.
         12    1    1    2    0    0 -0.10800627428E+00 -0.24749445839E+02 -0.20104129060E+02  0.31886090070E+02  0.00000000000E+00 0. -1.
         11    1    3    3    0    0 -0.86810675513E+01 -0.50706616486E+01  0.34993001504E+00  0.10059572290E+02  0.51100000000E-03 0. -1.
        -11    1    3    3    0    0 -0.30060838747E+01 -0.18467759254E+01  0.14647485031E+02  0.15066384423E+02  0.51100000000E-03 0.  1.
        -12    1    3    3    0    0  0.11795157700E+02  0.31666883413E+02  0.51067140135E+01  0.34175953217E+02  0.00000000000E+00 0.  1.
</event>
<event>
 7    1  0.6061051E-012  0.5930198E+02  0.7816164E-02  0.1266605E+00
        -11   -1    0    0    0    0  0.00000000000E+00  0.00000000000E+00  0.45593999997E+02  0.45594000000E+02  0.51100000000E-03 0.  1.
         11   -1    0    0    0    0 -0.00000000000E+00 -0.00000000000E+00 -0.45593999997E+02  0.45594000000E+02  0.51100000000E-03 0. -1.
    9900012    2    1    2    0    0  0.51040128189E+01  0.19814221329E+01  0.31412433593E+02  0.59301984809E+02  0.50000074374E+02 0.  0.
         12    1    1    2    0    0 -0.51040128189E+01 -0.19814221329E+01 -0.31412433593E+02  0.31886015191E+02  0.00000000000E+00 0. -1.
         11    1    3    3    0    0 -0.13886446795E+02  0.44549805886E+01 -0.47204413001E+01  0.15328497087E+02  0.51100000000E-03 0. -1.
        -11    1    3    3    0    0 -0.15796808903E+01 -0.39614684326E+01  0.44017282952E+01  0.61289343367E+01  0.51100000000E-03 0.  1.
        -12    1    3    3    0    0  0.20570140504E+02  0.14879099770E+01  0.31731146598E+02  0.37844553385E+02  0.00000000000E+00 0.  1.
</event>
<event>
 7    1  0.6061051E-012  0.5930186E+02  0.7816164E-02  0.1266605E+00
        -11   -1    0    0    0    0  0.00000000000E+00  0.00000000000E+00  0.45593999997E+02  0.45594000000E+02  0.51100000000E-03 0.  1.
         11   -1    0    0    0    0 -0.00000000000E+00 -0.00000000000E+00 -0.45593999997E+02  0.45594000000E+02  0.51100000000E-03 0. -1.
    9900012    2    1    2    0    0 -0.18048000081E+02  0.73518120281E+00  0.26276517818E+02  0.59301855878E+02  0.49999839236E+02 0.  0.
         12    1    1    2    0    0  0.18048000081E+02 -0.73518120281E+00 -0.26276517818E+02  0.31886144122E+02  0.00000000000E+00 0. -1.
         11    1    3    3    0    0  0.13745709290E+01  0.30925274281E+01  0.58829523561E+01  0.67869212326E+01  0.51100000000E-03 0. -1.
        -11    1    3    3    0    0 -0.21734579616E+02  0.17500793210E+02  0.15547867759E+02  0.31943792921E+02  0.51100000000E-03 0.  1.
         12    1    3    3    0    0  0.23120086059E+01 -0.19858139435E+02  0.48456977036E+01  0.20571141725E+02  0.00000000000E+00 0. -1.
</event>
<event>
 7    1  0.6061051E-012  0.5930195E+02  0.7816164E-02  0.1266605E+00
        -11   -1    0    0    0    0  0.00000000000E+00  0.00000000000E+00  0.45593999997E+02  0.45594000000E+02  0.51100000000E-03 0.  1.
         11   -1    0    0    0    0 -0.00000000000E+00 -0.00000000000E+00 -0.45593999997E+02  0.45594000000E+02  0.51100000000E-03 0. -1.
    9900012    2    1    2    0    0  0.25690031456E+02 -0.58882893308E+01 -0.17946325815E+02  0.59301948540E+02  0.50000008229E+02 0.  0.
         12    1    1    2    0    0 -0.25690031456E+02  0.58882893308E+01  0.17946325815E+02  0.31886051460E+02  0.00000000000E+00 0. -1.
         11    1    3    3    0    0  0.21691579323E+02 -0.11194116623E+02 -0.27081624324E+02  0.36458843054E+02  0.51100000000E-03 0. -1.
        -11    1    3    3    0    0  0.33040213192E+01  0.95798240454E+01 -0.24921827640E+01  0.10435543149E+02  0.51100000000E-03 0.  1.
        -12    1    3    3    0    0  0.69443081395E+00 -0.42739967528E+01  0.11627481274E+02  0.12407562338E+02  0.00000000000E+00 0.  1.
</event>
<event>
 7    1  0.6061051E-012  0.5930195E+02  0.7816164E-02  0.1266605E+00
        -11   -1    0    0    0    0  0.00000000000E+00  0.00000000000E+00  0.45593999997E+02  0.45594000000E+02  0.51100000000E-03 0.  1.
         11   -1    0    0    0    0 -0.00000000000E+00 -0.00000000000E+00 -0.45593999997E+02  0.45594000000E+02  0.51100000000E-03 0. -1.
    9900012    2    1    2    0    0  0.13837663821E+02 -0.10238137722E+02  0.26840641038E+02  0.59301946382E+02  0.50000004293E+02 0.  0.
         12    1    1    2    0    0 -0.13837663821E+02  0.10238137722E+02 -0.26840641038E+02  0.31886053618E+02  0.00000000000E+00 0. -1.
         11    1    3    3    0    0 -0.46602352849E+01  0.50036868858E+01 -0.63068850249E+00  0.68667636926E+01  0.51100000000E-03 0. -1.
        -11    1    3    3    0    0  0.68160938348E+01  0.62788112967E+01 -0.59429520009E+01  0.11009145526E+02  0.51100000000E-03 0.  1.
        -12    1    3    3    0    0  0.11681805271E+02 -0.21520635904E+02  0.33414281541E+02  0.41426037163E+02  0.00000000000E+00 0.  1.
</event>
<event>
 7    1  0.6061051E-012  0.5930194E+02  0.7816164E-02  0.1266605E+00
        -11   -1    0    0    0    0  0.00000000000E+00  0.00000000000E+00  0.45593999997E+02  0.45594000000E+02  0.51100000000E-03 0. -1.
         11   -1    0    0    0    0 -0.00000000000E+00 -0.00000000000E+00 -0.45593999997E+02  0.45594000000E+02  0.51100000000E-03 0.  1.
    9900012    2    1    2    0    0  0.31843919559E+01  0.31591544135E+02 -0.29248742827E+01  0.59301938742E+02  0.49999990360E+02 0.  0.
         12    1    1    2    0    0 -0.31843919559E+01 -0.31591544135E+02  0.29248742827E+01  0.31886061258E+02  0.00000000000E+00 0. -1.
         11    1    3    3    0    0 -0.17436670091E+02  0.13553278811E+02 -0.10860049872E+02  0.24610353794E+02  0.51100000000E-03 0. -1.
        -11    1    3    3    0    0  0.43280910244E+01  0.14711505721E+02 -0.17712369496E+01  0.15436905554E+02  0.51100000000E-03 0.  1.
         12    1    3    3    0    0  0.16292971022E+02  0.33267596038E+01  0.97064125391E+01  0.19254679394E+02  0.00000000000E+00 0. -1.
</event>
<event>
 7    1  0.6061051E-012  0.5930196E+02  0.7816164E-02  0.1266605E+00
        -11   -1    0    0    0    0  0.00000000000E+00  0.00000000000E+00  0.45593999997E+02  0.45594000000E+02  0.51100000000E-03 0.  1.
         11   -1    0    0    0    0 -0.00000000000E+00 -0.00000000000E+00 -0.45593999997E+02  0.45594000000E+02  0.51100000000E-03 0. -1.
    9900012    2    1    2    0    0  0.29018853706E+02 -0.38328388353E+00  0.13209029831E+02  0.59301964718E+02  0.50000037734E+02 0.  0.
         12    1    1    2    0    0 -0.29018853706E+02  0.38328388353E+00 -0.13209029831E+02  0.31886035282E+02  0.00000000000E+00 0. -1.
         11    1    3    3    0    0  0.21849650718E+01 -0.45317702626E+01 -0.10401159468E+01  0.51373977383E+01  0.51100000000E-03 0. -1.
        -11    1    3    3    0    0  0.45012141309E+01 -0.10102015190E+02  0.23606371399E+02  0.26068609676E+02  0.51100000000E-03 0.  1.
         12    1    3    3    0    0  0.22332674503E+02  0.14250501569E+02 -0.93572256218E+01  0.28095957303E+02  0.00000000000E+00 0. -1.
</event>
<event>
 7    1  0.6061051E-012  0.5930195E+02  0.7816164E-02  0.1266605E+00
        -11   -1    0    0    0    0  0.00000000000E+00  0.00000000000E+00  0.45593999997E+02  0.45594000000E+02  0.51100000000E-03 0.  1.
         11   -1    0    0    0    0 -0.00000000000E+00 -0.00000000000E+00 -0.45593999997E+02  0.45594000000E+02  0.51100000000E-03 0. -1.
    9900012    2    1    2    0    0  0.21505036101E+02 -0.22961121018E+02 -0.52000300005E+01  0.59301953395E+02  0.50000017083E+02 0.  0.
         12    1    1    2    0    0 -0.21505036101E+02  0.22961121018E+02  0.52000300005E+01  0.31886046605E+02  0.00000000000E+00 0. -1.
         11    1    3    3    0    0  0.21624459022E+02 -0.63989801299E+01  0.11305756101E+01  0.22579689462E+02  0.51100000000E-03 0. -1.
        -11    1    3    3    0    0  0.11488709422E+01  0.67516342032E+01  0.70358008099E+01  0.98187047085E+01  0.51100000000E-03 0.  1.
        -12    1    3    3    0    0 -0.12682938641E+01 -0.23313775092E+02 -0.13366406420E+02  0.26903559224E+02  0.00000000000E+00 0.  1.
</event>
<event>
 7    1  0.6061051E-012  0.5930194E+02  0.7816164E-02  0.1266605E+00
        -11   -1    0    0    0    0  0.00000000000E+00  0.00000000000E+00  0.45593999997E+02  0.45594000000E+02  0.51100000000E-03 0. -1.
         11   -1    0    0    0    0 -0.00000000000E+00 -0.00000000000E+00 -0.45593999997E+02  0.45594000000E+02  0.51100000000E-03 0.  1.
    9900012    2    1    2    0    0  0.30681745543E+02  0.68777230529E+01 -0.52960294928E+01  0.59301944861E+02  0.50000001519E+02 0.  0.
         12    1    1    2    0    0 -0.30681745543E+02 -0.68777230529E+01  0.52960294928E+01  0.31886055139E+02  0.00000000000E+00 0. -1.
         11    1    3    3    0    0  0.27474778174E+01  0.13303299022E+02  0.42632443258E+01  0.14237333025E+02  0.51100000000E-03 0. -1.
        -11    1    3    3    0    0  0.12977081797E+02  0.20952263981E+01 -0.20728051244E+02  0.24544790369E+02  0.51100000000E-03 0.  1.
         12    1    3    3    0    0  0.14957185928E+02 -0.85208023668E+01  0.11168777425E+02  0.20519821467E+02  0.00000000000E+00 0. -1.
</event>
<event>
 7    1  0.6061051E-012  0.5930193E+02  0.7816164E-02  0.1266605E+00
        -11   -1    0    0    0    0  0.00000000000E+00  0.00000000000E+00  0.45593999997E+02  0.45594000000E+02  0.51100000000E-03 0. -1.
         11   -1    0    0    0    0 -0.00000000000E+00 -0.00000000000E+00 -0.45593999997E+02  0.45594000000E+02  0.51100000000E-03 0.  1.
    9900012    2    1    2    0    0 -0.68818432901E+01  0.30858403843E+02  0.41377061378E+01  0.59301929893E+02  0.49999974221E+02 0.  0.
         12    1    1    2    0    0  0.68818432901E+01 -0.30858403843E+02 -0.41377061378E+01  0.31886070107E+02  0.00000000000E+00 0. -1.
         11    1    3    3    0    0  0.69456233303E+01  0.11094104913E+02 -0.91623777269E+01  0.15977171625E+02  0.51100000000E-03 0.  1.
        -11    1    3    3    0    0 -0.13601591894E+02  0.66645942418E+01  0.22636666344E+02  0.27236717532E+02  0.51100000000E-03 0. -1.
         12    1    3    3    0    0 -0.22587472633E+00  0.13099704688E+02 -0.93365824795E+01  0.16088040736E+02  0.00000000000E+00 0. -1.
</event>
<event>
 7    1  0.6061051E-012  0.5930230E+02  0.7816164E-02  0.1266604E+00
        -11   -1    0    0    0    0  0.00000000000E+00  0.00000000000E+00  0.45593999997E+02  0.45594000000E+02  0.51100000000E-03 0.  1.
         11   -1    0    0    0    0 -0.00000000000E+00 -0.00000000000E+00 -0.45593999997E+02  0.45594000000E+02  0.51100000000E-03 0. -1.
    9900012    2    1    2    0    0  0.72131958060E+01 -0.77003241650E+01  0.30089412937E+02  0.59302298552E+02  0.50000646562E+02 0.  0.
         12    1    1    2    0    0 -0.72131958060E+01  0.77003241650E+01 -0.30089412937E+02  0.31885701448E+02  0.00000000000E+00 0. -1.
         11    1    3    3    0    0  0.18024487286E+02 -0.20810490406E+01 -0.21421101529E+01  0.18270236540E+02  0.51100000000E-03 0. -1.
        -11    1    3    3    0    0 -0.80814137748E+00  0.10993404813E+01 -0.32689365346E+01  0.35422575158E+01  0.51100000000E-03 0.  1.
         12    1    3    3    0    0 -0.10003150103E+02 -0.67186156056E+01  0.35500459624E+02  0.37489804496E+02  0.00000000000E+00 0. -1.
</event>
<event>
 7    1  0.6061051E-012  0.5930172E+02  0.7816164E-02  0.1266606E+00
        -11   -1    0    0    0    0  0.00000000000E+00  0.00000000000E+00  0.45593999997E+02  0.45594000000E+02  0.51100000000E-03 0. -1.
         11   -1    0    0    0    0 -0.00000000000E+00 -0.00000000000E+00 -0.45593999997E+02  0.45594000000E+02  0.51100000000E-03 0.  1.
    9900012    2    1    2    0    0 -0.14799366744E+02  0.27890537748E+02 -0.44532828440E+01  0.59301716429E+02  0.49999584912E+02 0.  0.
         12    1    1    2    0    0  0.14799366744E+02 -0.27890537748E+02  0.44532828440E+01  0.31886283571E+02  0.00000000000E+00 0. -1.
         11    1    3    3    0    0 -0.85753436984E+01  0.11715594111E+01  0.54495310778E+00  0.86721419010E+01  0.51100000000E-03 0. -1.
        -11    1    3    3    0    0 -0.22633156281E+02  0.24059231825E+02 -0.73527830663E+01  0.33840357834E+02  0.51100000000E-03 0.  1.
         12    1    3    3    0    0  0.16409133236E+02  0.26597465117E+01  0.23545471145E+01  0.16789216693E+02  0.00000000000E+00 0. -1.
</event>
<event>
 7    1  0.6061051E-012  0.5930196E+02  0.7816164E-02  0.1266605E+00
        -11   -1    0    0    0    0  0.00000000000E+00  0.00000000000E+00  0.45593999997E+02  0.45594000000E+02  0.51100000000E-03 0.  1.
         11   -1    0    0    0    0 -0.00000000000E+00 -0.00000000000E+00 -0.45593999997E+02  0.45594000000E+02  0.51100000000E-03 0. -1.
    9900012    2    1    2    0    0 -0.58345702062E+00 -0.31592434497E+02  0.42775298887E+01  0.59301959143E+02  0.50000027567E+02 0.  0.
         12    1    1    2    0    0  0.58345702062E+00  0.31592434497E+02 -0.42775298887E+01  0.31886040857E+02  0.00000000000E+00 0. -1.
         11    1    3    3    0    0 -0.27472533357E+01  0.31903644612E+01  0.10506976087E+02  0.11319115382E+02  0.51100000000E-03 0. -1.
        -11    1    3    3    0    0  0.15633850379E+02 -0.17717062703E+02 -0.10449046876E+02  0.25835908526E+02  0.51100000000E-03 0.  1.
        -12    1    3    3    0    0 -0.13470054064E+02 -0.17065736256E+02  0.42196006774E+01  0.22146935235E+02  0.00000000000E+00 0.  1.
</event>
