<event>
 7    1  0.1204848E-011  0.5930194E+02  0.7816164E-02  0.1266605E+00
        -11   -1    0    0    0    0  0.00000000000E+00  0.00000000000E+00  0.45593999997E+02  0.45594000000E+02  0.51100000000E-03 0.  1.
         11   -1    0    0    0    0 -0.00000000000E+00 -0.00000000000E+00 -0.45593999997E+02  0.45594000000E+02  0.51100000000E-03 0. -1.
    9900012    2    1    2    0    0  0.84019251854E+01 -0.24548161679E+02  0.18534185412E+02  0.59301943212E+02  0.49999998511E+02 0.  0.
         12    1    1    2    0    0 -0.84019251854E+01  0.24548161679E+02 -0.18534185412E+02  0.31886056788E+02  0.00000000000E+00 0. -1.
         11    1    3    3    0    0 -0.24064869964E+01 -0.27903093270E+01  0.63879714958E+01  0.73744956367E+01  0.51100000000E-03 0. -1.
        -11    1    3    3    0    0  0.24348903467E+02 -0.13637565162E+02  0.19959869874E+02  0.34311057828E+02  0.51100000000E-03 0.  1.
         12    1    3    3    0    0 -0.13540491285E+02 -0.81202871896E+01 -0.78136559579E+01  0.17616389747E+02  0.00000000000E+00 0. -1.
</event>
<event>
 7    1  0.1204848E-011  0.5930208E+02  0.7816164E-02  0.1266604E+00
        -11   -1    0    0    0    0  0.00000000000E+00  0.00000000000E+00  0.45593999997E+02  0.45594000000E+02  0.51100000000E-03 0. -1.
         11   -1    0    0    0    0 -0.00000000000E+00 -0.00000000000E+00 -0.45593999997E+02  0.45594000000E+02  0.51100000000E-03 0.  1.
    9900012    2    1    2    0    0  0.11395531414E+02 -0.19270080408E+02 -0.22705021582E+02  0.59302076143E+02  0.50000240947E+02 0.  0.
         12    1    1    2    0    0 -0.11395531414E+02  0.19270080408E+02  0.22705021582E+02  0.31885923857E+02  0.00000000000E+00 0. -1.
         11    1    3    3    0    0  0.12211260742E+01 -0.77510752935E+01  0.31831111467E+01  0.84677336949E+01  0.51100000000E-03 0. -1.
        -11    1    3    3    0    0 -0.11845850916E+02  0.55967508202E+01 -0.48636167033E+00  0.13110467254E+02  0.51100000000E-03 0.  1.
        -12    1    3    3    0    0  0.22020256256E+02 -0.17115755935E+02 -0.25401771058E+02  0.37723875195E+02  0.00000000000E+00 0.  1.
</event>
<event>
 7    1  0.1204848E-011  0.5930196E+02  0.7816164E-02  0.1266605E+00
        -11   -1    0    0    0    0  0.00000000000E+00  0.00000000000E+00  0.45593999997E+02  0.45594000000E+02  0.51100000000E-03 0.  1.
         11   -1    0    0    0    0 -0.00000000000E+00 -0.00000000000E+00 -0.45593999997E+02  0.45594000000E+02  0.51100000000E-03 0. -1.
    9900012    2    1    2    0    0 -0.72904824177E+01 -0.15039183817E+02  0.27154952905E+02  0.59301958366E+02  0.50000026150E+02 0.  0.
         12    1    1    2    0    0  0.72904824177E+01  0.15039183817E+02 -0.27154952905E+02  0.31886041634E+02  0.00000000000E+00 0. -1.
         11    1    3    3    0    0 -0.78374147665E+01  0.30094556780E+01 -0.72316797282E+01  0.11080572442E+02  0.51100000000E-03 0. -1.
        -11    1    3    3    0    0  0.74525369218E+01  0.53072494396E+01  0.12399096133E+02  0.15409243601E+02  0.51100000000E-03 0.  1.
        -12    1    3    3    0    0 -0.69056045730E+01 -0.23355888935E+02  0.21987536501E+02  0.32812142323E+02  0.00000000000E+00 0.  1.
</event>
<event>
 7    1  0.1204848E-011  0.5930201E+02  0.7816164E-02  0.1266605E+00
        -11   -1    0    0    0    0  0.00000000000E+00  0.00000000000E+00  0.45593999997E+02  0.45594000000E+02  0.51100000000E-03 0.  1.
         11   -1    0    0    0    0 -0.00000000000E+00 -0.00000000000E+00 -0.45593999997E+02  0.45594000000E+02  0.51100000000E-03 0. -1.
    9900012    2    1    2    0    0 -0.45888610327E+00 -0.31533444002E+02 -0.47061123870E+01  0.59302013095E+02  0.50000125962E+02 0.  0.
         12    1    1    2    0    0  0.45888610327E+00  0.31533444002E+02  0.47061123870E+01  0.31885986905E+02  0.00000000000E+00 0. -1.
         11    1    3    3    0    0 -0.74057639219E+01  0.30076075123E+01  0.12553470208E+01  0.80911642313E+01  0.51100000000E-03 0. -1.
        -11    1    3    3    0    0 -0.66436118147E+01 -0.27315930315E+02  0.92262059169E+01  0.29587505856E+02  0.51100000000E-03 0.  1.
         12    1    3    3    0    0  0.13590489633E+02 -0.72251211997E+01 -0.15187665325E+02  0.21623343008E+02  0.00000000000E+00 0. -1.
</event>
<event>
 7    1  0.1204848E-011  0.5930194E+02  0.7816164E-02  0.1266605E+00
        -11   -1    0    0    0    0  0.00000000000E+00  0.00000000000E+00  0.45593999997E+02  0.45594000000E+02  0.51100000000E-03 0.  1.
         11   -1    0    0    0    0 -0.00000000000E+00 -0.00000000000E+00 -0.45593999997E+02  0.45594000000E+02  0.51100000000E-03 0. -1.
    9900012    2    1    2    0    0  0.23910458412E+02 -0.13903818068E+02  0.15864890670E+02  0.59301938244E+02  0.49999989451E+02 0.  0.
         12    1    1    2    0    0 -0.23910458412E+02  0.13903818068E+02 -0.15864890670E+02  0.31886061756E+02  0.00000000000E+00 0. -1.
         11    1    3    3    0    0 -0.44909622689E+01  0.16118071556E+01 -0.34160297009E+01  0.58682129806E+01  0.51100000000E-03 0. -1.
        -11    1    3    3    0    0  0.10725815894E+02 -0.20755728754E+02  0.24915508833E+02  0.34155907006E+02  0.51100000000E-03 0.  1.
         12    1    3    3    0    0  0.17675604787E+02  0.52401035308E+01 -0.56345884620E+01  0.19277818257E+02  0.00000000000E+00 0. -1.
</event>
<event>
 7    1  0.1204848E-011  0.5930196E+02  0.7816164E-02  0.1266605E+00
        -11   -1    0    0    0    0  0.00000000000E+00  0.00000000000E+00  0.45593999997E+02  0.45594000000E+02  0.51100000000E-03 0.  1.
         11   -1    0    0    0    0 -0.00000000000E+00 -0.00000000000E+00 -0.45593999997E+02  0.45594000000E+02  0.51100000000E-03 0. -1.
    9900012    2    1    2    0    0  0.24577880419E+02  0.19071082674E+02  0.69957995511E+01  0.59301958985E+02  0.50000027278E+02 0.  0.
         12    1    1    2    0    0 -0.24577880419E+02 -0.19071082674E+02 -0.69957995511E+01  0.31886041015E+02  0.00000000000E+00 0. -1.
         11    1    3    3    0    0 -0.31377657021E+01  0.50096705902E+01 -0.23137960282E+01  0.63479150391E+01  0.51100000000E-03 0. -1.
        -11    1    3    3    0    0  0.16939112880E+02  0.20023090171E+02  0.22753764921E+02  0.34721628757E+02  0.51100000000E-03 0.  1.
         12    1    3    3    0    0  0.10776533242E+02 -0.59616780872E+01 -0.13444169342E+02  0.18232415189E+02  0.00000000000E+00 0. -1.
</event>
<event>
 7    1  0.1204848E-011  0.5930194E+02  0.7816164E-02  0.1266605E+00
        -11   -1    0    0    0    0  0.00000000000E+00  0.00000000000E+00  0.45593999997E+02  0.45594000000E+02  0.51100000000E-03 0. -1.
         11   -1    0    0    0    0 -0.00000000000E+00 -0.00000000000E+00 -0.45593999997E+02  0.45594000000E+02  0.51100000000E-03 0.  1.
    9900012    2    1    2    0    0  0.24341792115E+02  0.19821000243E+02  0.55969411594E+01  0.59301942791E+02  0.49999997745E+02 0.  0.
         12    1    1    2    0    0 -0.24341792115E+02 -0.19821000243E+02 -0.55969411594E+01  0.31886057209E+02  0.00000000000E+00 0. -1.
         11    1    3    3    0    0  0.14535399067E+02  0.25614343221E+02 -0.97597487451E+01  0.31026200227E+02  0.51100000000E-03 0. -1.
        -11    1    3    3    0    0  0.97027109851E+01  0.50023251180E+01  0.19943473641E+01  0.11096994130E+02  0.51100000000E-03 0.  1.
         12    1    3    3    0    0  0.10368206296E+00 -0.10795668096E+02  0.13362342540E+02  0.17178748435E+02  0.00000000000E+00 0. -1.
</event>
<event>
 7    1  0.1204848E-011  0.5930191E+02  0.7816164E-02  0.1266605E+00
        -11   -1    0    0    0    0  0.00000000000E+00  0.00000000000E+00  0.45593999997E+02  0.45594000000E+02  0.51100000000E-03 0. -1.
         11   -1    0    0    0    0 -0.00000000000E+00 -0.00000000000E+00 -0.45593999997E+02  0.45594000000E+02  0.51100000000E-03 0.  1.
    9900012    2    1    2    0    0  0.26331995340E+02  0.37799037924E+01 -0.17580130039E+02  0.59301911756E+02  0.49999941145E+02 0.  0.
         12    1    1    2    0    0 -0.26331995340E+02 -0.37799037924E+01  0.17580130039E+02  0.31886088244E+02  0.00000000000E+00 0. -1.
         11    1    3    3    0    0  0.61578041281E+00 -0.13493984465E+02  0.13125668727E+01  0.13571648180E+02  0.51100000000E-03 0. -1.
        -11    1    3    3    0    0 -0.35493891197E+01  0.57737517500E+01 -0.11626295711E+02  0.13457530406E+02  0.51100000000E-03 0.  1.
         12    1    3    3    0    0  0.29265604047E+02  0.11500136507E+02 -0.72664012009E+01  0.32272733171E+02  0.00000000000E+00 0. -1.
</event>
<event>
 7    1  0.1204848E-011  0.5930183E+02  0.7816164E-02  0.1266605E+00
        -11   -1    0    0    0    0  0.00000000000E+00  0.00000000000E+00  0.45593999997E+02  0.45594000000E+02  0.51100000000E-03 0.  1.
         11   -1    0    0    0    0 -0.00000000000E+00 -0.00000000000E+00 -0.45593999997E+02  0.45594000000E+02  0.51100000000E-03 0. -1.
    9900012    2    1    2    0    0  0.37946045490E+01  0.25873170771E+02  0.18245764026E+02  0.59301829105E+02  0.49999790408E+02 0.  0.
         12    1    1    2    0    0 -0.37946045490E+01 -0.25873170771E+02 -0.18245764026E+02  0.31886170895E+02  0.00000000000E+00 0. -1.
         11    1    3    3    0    0 -0.39820271474E+01  0.26371662235E+01  0.57766423774E+01  0.74953841336E+01  0.51100000000E-03 0.  1.
        -11    1    3    3    0    0 -0.28716780557E+01  0.17993826572E+02  0.27292970752E+02  0.32816620519E+02  0.51100000000E-03 0. -1.
         12    1    3    3    0    0  0.10648309752E+02  0.52421779757E+01 -0.14823849103E+02  0.18989824452E+02  0.00000000000E+00 0. -1.
</event>
<event>
 7    1  0.1204848E-011  0.5930197E+02  0.7816164E-02  0.1266605E+00
        -11   -1    0    0    0    0  0.00000000000E+00  0.00000000000E+00  0.45593999997E+02  0.45594000000E+02  0.51100000000E-03 0.  1.
         11   -1    0    0    0    0 -0.00000000000E+00 -0.00000000000E+00 -0.45593999997E+02  0.45594000000E+02  0.51100000000E-03 0. -1.
    9900012    2    1    2    0    0  0.88375201064E+01 -0.14650651641E+02  0.26906792316E+02  0.59301971274E+02  0.50000049692E+02 0.  0.
         12    1    1    2    0    0 -0.88375201064E+01  0.14650651641E+02 -0.26906792316E+02  0.31886028726E+02  0.00000000000E+00 0. -1.
         11    1    3    3    0    0 -0.55374385376E+01  0.81292354206E+00 -0.24620114295E+01  0.61143741121E+01  0.51100000000E-03 0. -1.
        -11    1    3    3    0    0  0.23130293825E+02  0.34293628453E+01  0.17621432912E+02  0.29279445352E+02  0.51100000000E-03 0.  1.
         12    1    3    3    0    0 -0.87553351815E+01 -0.18892938029E+02  0.11747370833E+02  0.23908151811E+02  0.00000000000E+00 0. -1.
</event>
<event>
 7    1  0.1204848E-011  0.5930213E+02  0.7816164E-02  0.1266604E+00
        -11   -1    0    0    0    0  0.00000000000E+00  0.00000000000E+00  0.45593999997E+02  0.45594000000E+02  0.51100000000E-03 0.  1.
         11   -1    0    0    0    0 -0.00000000000E+00 -0.00000000000E+00 -0.45593999997E+02  0.45594000000E+02  0.51100000000E-03 0. -1.
    9900012    2    1    2    0    0 -0.11543189017E+02 -0.33706047369E+01  0.29531386565E+02  0.59302125676E+02  0.50000331282E+02 0.  0.
         12    1    1    2    0    0  0.11543189017E+02  0.33706047369E+01 -0.29531386565E+02  0.31885874324E+02  0.00000000000E+00 0. -1.
         11    1    3    3    0    0  0.40366916776E+01 -0.70497439862E+01  0.49271930293E+01  0.95011052715E+01  0.51100000000E-03 0. -1.
        -11    1    3    3    0    0  0.39231853709E+01 -0.14908717635E+02  0.14073384338E+02  0.20873940499E+02  0.51100000000E-03 0.  1.
         12    1    3    3    0    0 -0.19503066065E+02  0.18587856884E+02  0.10530809197E+02  0.28927079906E+02  0.00000000000E+00 0. -1.
</event>
<event>
 7    1  0.1204848E-011  0.5930195E+02  0.7816164E-02  0.1266605E+00
        -11   -1    0    0    0    0  0.00000000000E+00  0.00000000000E+00  0.45593999997E+02  0.45594000000E+02  0.51100000000E-03 0.  1.
         11   -1    0    0    0    0 -0.00000000000E+00 -0.00000000000E+00 -0.45593999997E+02  0.45594000000E+02  0.51100000000E-03 0. -1.
    9900012    2    1    2    0    0  0.15104248282E+02 -0.88186253202E+01  0.26661092549E+02  0.59301947804E+02  0.50000006888E+02 0.  0.
         12    1    1    2    0    0 -0.15104248282E+02  0.88186253202E+01 -0.26661092549E+02  0.31886052196E+02  0.00000000000E+00 0. -1.
         11    1    3    3    0    0  0.97521283920E+01  0.71598918461E+00  0.11061379727E+02  0.14763833188E+02  0.51100000000E-03 0. -1.
        -11    1    3    3    0    0  0.18120969300E+02 -0.60031688875E+01 -0.52834586282E+01  0.19807132564E+02  0.51100000000E-03 0.  1.
        -12    1    3    3    0    0 -0.12768849411E+02 -0.35314456173E+01  0.20883171451E+02  0.24730982052E+02  0.00000000000E+00 0.  1.
</event>
<event>
 7    1  0.1204848E-011  0.5930193E+02  0.7816164E-02  0.1266605E+00
        -11   -1    0    0    0    0  0.00000000000E+00  0.00000000000E+00  0.45593999997E+02  0.45594000000E+02  0.51100000000E-03 0.  1.
         11   -1    0    0    0    0 -0.00000000000E+00 -0.00000000000E+00 -0.45593999997E+02  0.45594000000E+02  0.51100000000E-03 0. -1.
    9900012    2    1    2    0    0 -0.13855541110E+01 -0.24695643415E+02  0.20122796837E+02  0.59301929116E+02  0.49999972804E+02 0.  0.
         12    1    1    2    0    0  0.13855541110E+01  0.24695643415E+02 -0.20122796837E+02  0.31886070884E+02  0.00000000000E+00 0. -1.
         11    1    3    3    0    0  0.99556677883E+01 -0.18891019362E+02 -0.73978821873E+01  0.22598995437E+02  0.51100000000E-03 0. -1.
        -11    1    3    3    0    0  0.14498308441E+01 -0.63965229485E+01  0.23601137089E+00  0.65630188888E+01  0.51100000000E-03 0.  1.
        -12    1    3    3    0    0 -0.12791052743E+02  0.59189889549E+00  0.27284667653E+02  0.30139914790E+02  0.00000000000E+00 0.  1.
</event>
<event>
 7    1  0.1204848E-011  0.5930198E+02  0.7816164E-02  0.1266605E+00
        -11   -1    0    0    0    0  0.00000000000E+00  0.00000000000E+00  0.45593999997E+02  0.45594000000E+02  0.51100000000E-03 0. -1.
         11   -1    0    0    0    0 -0.00000000000E+00 -0.00000000000E+00 -0.45593999997E+02  0.45594000000E+02  0.51100000000E-03 0.  1.
    9900012    2    1    2    0    0 -0.14601506905E+02 -0.25124056237E+02 -0.13126160425E+02  0.59301979659E+02  0.50000064982E+02 0.  0.
         12    1    1    2    0    0  0.14601506905E+02  0.25124056237E+02  0.13126160425E+02  0.31886020341E+02  0.00000000000E+00 0. -1.
         11    1    3    3    0    0 -0.81194263561E+01 -0.28457223848E+02 -0.17674160103E+02  0.34469038413E+02  0.51100000000E-03 0. -1.
        -11    1    3    3    0    0  0.63770817999E+01 -0.43876658436E+01 -0.26690668272E+01  0.81879607857E+01  0.51100000000E-03 0.  1.
        -12    1    3    3    0    0 -0.12859162349E+02  0.77208334549E+01  0.72170665056E+01  0.16644980460E+02  0.00000000000E+00 0.  1.
</event>
<event>
 7    1  0.1204848E-011  0.5930189E+02  0.7816164E-02  0.1266605E+00
        -11   -1    0    0    0    0  0.00000000000E+00  0.00000000000E+00  0.45593999997E+02  0.45594000000E+02  0.51100000000E-03 0.  1.
         11   -1    0    0    0    0 -0.00000000000E+00 -0.00000000000E+00 -0.45593999997E+02  0.45594000000E+02  0.51100000000E-03 0. -1.
    9900012    2    1    2    0    0 -0.17075353798E+02 -0.19756903203E+02  0.18298111472E+02  0.59301893074E+02  0.49999907072E+02 0.  0.
         12    1    1    2    0    0  0.17075353798E+02  0.19756903203E+02 -0.18298111472E+02  0.31886106926E+02  0.00000000000E+00 0. -1.
         11    1    3    3    0    0  0.44488516837E+00 -0.15326599714E+02  0.35238110901E+01  0.15732762836E+02  0.51100000000E-03 0. -1.
        -11    1    3    3    0    0  0.27143622931E+01 -0.13493790733E+02 -0.41959081642E+01  0.14389433505E+02  0.51100000000E-03 0.  1.
        -12    1    3    3    0    0 -0.20234601259E+02  0.90634872441E+01  0.18970208546E+02  0.29179696733E+02  0.00000000000E+00 0.  1.
</event>
<event>
 7    1  0.1204848E-011  0.5930197E+02  0.7816164E-02  0.1266605E+00
        -11   -1    0    0    0    0  0.00000000000E+00  0.00000000000E+00  0.45593999997E+02  0.45594000000E+02  0.51100000000E-03 0. -1.
         11   -1    0    0    0    0 -0.00000000000E+00 -0.00000000000E+00 -0.45593999997E+02  0.45594000000E+02  0.51100000000E-03 0.  1.
    9900012    2    1    2    0    0  0.22359318661E+02 -0.19096468629E+02 -0.12333060726E+02  0.59301974347E+02  0.50000055295E+02 0.  0.
         12    1    1    2    0    0 -0.22359318661E+02  0.19096468629E+02  0.12333060726E+02  0.31886025653E+02  0.00000000000E+00 0. -1.
         11    1    3    3    0    0  0.14996288008E+02  0.46599463543E+01 -0.10472968059E+02  0.18875561297E+02  0.51100000000E-03 0. -1.
        -11    1    3    3    0    0  0.18819436851E+02 -0.12894284595E+02  0.47652011450E+01  0.23305383945E+02  0.51100000000E-03 0.  1.
        -12    1    3    3    0    0 -0.11456406198E+02 -0.10862130387E+02 -0.66252938117E+01  0.17121029105E+02  0.00000000000E+00 0.  1.
</event>
<event>
 7    1  0.1204848E-011  0.5930194E+02  0.7816164E-02  0.1266605E+00
        -11   -1    0    0    0    0  0.00000000000E+00  0.00000000000E+00  0.45593999997E+02  0.45594000000E+02  0.51100000000E-03 0. -1.
         11   -1    0    0    0    0 -0.00000000000E+00 -0.00000000000E+00 -0.45593999997E+02  0.45594000000E+02  0.51100000000E-03 0.  1.
    9900012    2    1    2    0    0 -0.13965283589E+02  0.22301848973E+02 -0.18008858922E+02  0.59301943283E+02  0.49999998641E+02 0.  0.
         12    1    1    2    0    0  0.13965283589E+02 -0.22301848973E+02  0.18008858922E+02  0.31886056717E+02  0.00000000000E+00 0. -1.
         11    1    3    3    0    0  0.36485886963E+01  0.29522399702E+01  0.65556387546E+01  0.80625256625E+01  0.51100000000E-03 0. -1.
        -11    1    3    3    0    0  0.70619825300E+01  0.10030440319E+02  0.34684297945E+01  0.12747993401E+02  0.51100000000E-03 0.  1.
        -12    1    3    3    0    0 -0.24675854815E+02  0.93191686832E+01 -0.28032927471E+02  0.38491424219E+02  0.00000000000E+00 0.  1.
</event>
<event>
 7    1  0.1204848E-011  0.5930196E+02  0.7816164E-02  0.1266605E+00
        -11   -1    0    0    0    0  0.00000000000E+00  0.00000000000E+00  0.45593999997E+02  0.45594000000E+02  0.51100000000E-03 0. -1.
         11   -1    0    0    0    0 -0.00000000000E+00 -0.00000000000E+00 -0.45593999997E+02  0.45594000000E+02  0.51100000000E-03 0.  1.
    9900012    2    1    2    0    0  0.19813683067E+02 -0.24622818554E+02  0.42254128111E+01  0.59301963187E+02  0.50000034941E+02 0.  0.
         12    1    1    2    0    0 -0.19813683067E+02  0.24622818554E+02 -0.42254128111E+01  0.31886036813E+02  0.00000000000E+00 0. -1.
         11    1    3    3    0    0 -0.67567844492E+01 -0.86291262131E+01 -0.94507487199E+01  0.14471786584E+02  0.51100000000E-03 0. -1.
        -11    1    3    3    0    0  0.16286680306E+02 -0.22405994496E+00 -0.62229788511E+01  0.17436502639E+02  0.51100000000E-03 0.  1.
         12    1    3    3    0    0  0.10283787210E+02 -0.15769632396E+02  0.19899140382E+02  0.27393673964E+02  0.00000000000E+00 0. -1.
</event>
<event>
 7    1  0.1204848E-011  0.5930193E+02  0.7816164E-02  0.1266605E+00
        -11   -1    0    0    0    0  0.00000000000E+00  0.00000000000E+00  0.45593999997E+02  0.45594000000E+02  0.51100000000E-03 0.  1.
         11   -1    0    0    0    0 -0.00000000000E+00 -0.00000000000E+00 -0.45593999997E+02  0.45594000000E+02  0.51100000000E-03 0. -1.
    9900012    2    1    2    0    0 -0.44331787870E+00  0.28998597788E+02  0.13251655345E+02  0.59301928216E+02  0.49999971163E+02 0.  0.
         12    1    1    2    0    0  0.44331787870E+00 -0.28998597788E+02 -0.13251655345E+02  0.31886071784E+02  0.00000000000E+00 0. -1.
         11    1    3    3    0    0 -0.58624362190E+01  0.45928273070E+01 -0.95637019520E+00  0.75084529236E+01  0.51100000000E-03 0. -1.
        -11    1    3    3    0    0 -0.82309820586E+01 -0.90022840094E+01  0.93702968250E+01  0.15381568382E+02  0.51100000000E-03 0.  1.
        -12    1    3    3    0    0  0.13650100399E+02  0.33408054491E+02  0.48377287155E+01  0.36411906911E+02  0.00000000000E+00 0.  1.
</event>
<event>
 7    1  0.1204848E-011  0.5930194E+02  0.7816164E-02  0.1266605E+00
        -11   -1    0    0    0    0  0.00000000000E+00  0.00000000000E+00  0.45593999997E+02  0.45594000000E+02  0.51100000000E-03 0.  1.
         11   -1    0    0    0    0 -0.00000000000E+00 -0.00000000000E+00 -0.45593999997E+02  0.45594000000E+02  0.51100000000E-03 0. -1.
    9900012    2    1    2    0    0  0.14153719156E+01  0.31496421395E+02  0.47637409286E+01  0.59301936179E+02  0.49999985686E+02 0.  0.
         12    1    1    2    0    0 -0.14153719156E+01 -0.31496421395E+02 -0.47637409286E+01  0.31886063821E+02  0.00000000000E+00 0. -1.
         11    1    3    3    0    0  0.76820881859E+01  0.31505897913E-01  0.41288244411E+01  0.87213911186E+01  0.51100000000E-03 0. -1.
        -11    1    3    3    0    0  0.16292528958E+02  0.94253880821E+01 -0.20212237423E+01  0.18930657306E+02  0.51100000000E-03 0.  1.
        -12    1    3    3    0    0 -0.22559245228E+02  0.22039527415E+02  0.26561402299E+01  0.31649887755E+02  0.00000000000E+00 0.  1.
</event>
<event>
 7    1  0.1204848E-011  0.5930201E+02  0.7816164E-02  0.1266605E+00
        -11   -1    0    0    0    0  0.00000000000E+00  0.00000000000E+00  0.45593999997E+02  0.45594000000E+02  0.51100000000E-03 0.  1.
         11   -1    0    0    0    0 -0.00000000000E+00 -0.00000000000E+00 -0.45593999997E+02  0.45594000000E+02  0.51100000000E-03 0. -1.
    9900012    2    1    2    0    0  0.24707506996E+02 -0.19410913265E+02  0.54288126801E+01  0.59302008360E+02  0.50000117327E+02 0.  0.
         12    1    1    2    0    0 -0.24707506996E+02  0.19410913265E+02 -0.54288126801E+01  0.31885991640E+02  0.00000000000E+00 0. -1.
         11    1    3    3    0    0 -0.39192156155E+01 -0.17397665765E+02  0.22001523455E+01  0.17968853489E+02  0.51100000000E-03 0. -1.
        -11    1    3    3    0    0 -0.31984145719E+01 -0.65399765957E+01  0.54752138549E+01  0.91092873851E+01  0.51100000000E-03 0.  1.
         12    1    3    3    0    0  0.31825137184E+02  0.45267290958E+01 -0.22465535203E+01  0.32223867486E+02  0.00000000000E+00 0. -1.
</event>
<event>
 7    1  0.1204848E-011  0.5930194E+02  0.7816164E-02  0.1266605E+00
        -11   -1    0    0    0    0  0.00000000000E+00  0.00000000000E+00  0.45593999997E+02  0.45594000000E+02  0.51100000000E-03 0.  1.
         11   -1    0    0    0    0 -0.00000000000E+00 -0.00000000000E+00 -0.45593999997E+02  0.45594000000E+02  0.51100000000E-03 0. -1.
    9900012    2    1    2    0    0  0.11789831057E+02 -0.24251505867E+02  0.17017210036E+02  0.59301935794E+02  0.49999984983E+02 0.  0.
         12    1    1    2    0    0 -0.11789831057E+02  0.24251505867E+02 -0.17017210036E+02  0.31886064206E+02  0.00000000000E+00 0. -1.
         11    1    3    3    0    0  0.19873145709E+02 -0.28113572758E+02 -0.27416315183E+01  0.34537391871E+02  0.51100000000E-03 0. -1.
        -11    1    3    3    0    0  0.13785289411E+01 -0.28246440821E+01  0.27023526881E+01  0.41450773870E+01  0.51100000000E-03 0.  1.
         12    1    3    3    0    0 -0.94618435927E+01  0.66867109729E+01  0.17056488866E+02  0.20619466536E+02  0.00000000000E+00 0. -1.
</event>
<event>
 7    1  0.1204848E-011  0.5930194E+02  0.7816164E-02  0.1266605E+00
        -11   -1    0    0    0    0  0.00000000000E+00  0.00000000000E+00  0.45593999997E+02  0.45594000000E+02  0.51100000000E-03 0.  1.
         11   -1    0    0    0    0 -0.00000000000E+00 -0.00000000000E+00 -0.45593999997E+02  0.45594000000E+02  0.51100000000E-03 0. -1.
    9900012    2    1    2    0    0 -0.16402041636E+02 -0.98144432109E+01  0.25521958767E+02  0.59301942786E+02  0.49999997735E+02 0.  0.
         12    1    1    2    0    0  0.16402041636E+02  0.98144432109E+01 -0.25521958767E+02  0.31886057214E+02  0.00000000000E+00 0. -1.
         11    1    3    3    0    0  0.86750814210E+00  0.13196539373E+01 -0.48420647365E+01  0.50930980811E+01  0.51100000000E-03 0. -1.
        -11    1    3    3    0    0  0.86010899267E+01  0.52568422128E+01 -0.12919701864E+01  0.10162791211E+02  0.51100000000E-03 0.  1.
        -12    1    3    3    0    0 -0.25870639704E+02 -0.16390939361E+02  0.31655993690E+02  0.44046053494E+02  0.00000000000E+00 0.  1.
</event>
<event>
 7    1  0.1204848E-011  0.5930195E+02  0.7816164E-02  0.1266605E+00
        -11   -1    0    0    0    0  0.00000000000E+00  0.00000000000E+00  0.45593999997E+02  0.45594000000E+02  0.51100000000E-03 0.  1.
         11   -1    0    0    0    0 -0.00000000000E+00 -0.00000000000E+00 -0.45593999997E+02  0.45594000000E+02  0.51100000000E-03 0. -1.
    9900012    2    1    2    0    0  0.12343981018E+02 -0.15767344140E+02  0.24814047455E+02  0.59301953527E+02  0.50000017325E+02 0.  0.
         12    1    1    2    0    0 -0.12343981018E+02  0.15767344140E+02 -0.24814047455E+02  0.31886046473E+02  0.00000000000E+00 0. -1.
         11    1    3    3    0    0  0.19795044955E+02 -0.10109439965E+02 -0.42754085531E+01  0.22634568689E+02  0.51100000000E-03 0. -1.
        -11    1    3    3    0    0  0.11084733916E+01 -0.36368830419E+01 -0.20432142228E+01  0.43162896267E+01  0.51100000000E-03 0.  1.
        -12    1    3    3    0    0 -0.85595373285E+01 -0.20210211323E+01  0.31132670231E+02  0.32351095211E+02  0.00000000000E+00 0.  1.
</event>
<event>
 7    1  0.1204848E-011  0.5930194E+02  0.7816164E-02  0.1266605E+00
        -11   -1    0    0    0    0  0.00000000000E+00  0.00000000000E+00  0.45593999997E+02  0.45594000000E+02  0.51100000000E-03 0.  1.
         11   -1    0    0    0    0 -0.00000000000E+00 -0.00000000000E+00 -0.45593999997E+02  0.45594000000E+02  0.51100000000E-03 0. -1.
    9900012    2    1    2    0    0 -0.26863931468E+01  0.26899276125E+02  0.16909546412E+02  0.59301944677E+02  0.50000001185E+02 0.  0.
         12    1    1    2    0    0  0.26863931468E+01 -0.26899276125E+02 -0.16909546412E+02  0.31886055323E+02  0.00000000000E+00 0. -1.
         11    1    3    3    0    0 -0.74739587384E+01  0.43490418693E+01 -0.68118040640E+01  0.11007947096E+02  0.51100000000E-03 0. -1.
        -11    1    3    3    0    0 -0.61356494820E+01  0.22990609370E+00 -0.66506429459E+01  0.90515249120E+01  0.51100000000E-03 0.  1.
        -12    1    3    3    0    0  0.10923215074E+02  0.22320328162E+02  0.30371993422E+02  0.39242472669E+02  0.00000000000E+00 0.  1.
</event>
<event>
 7    1  0.1204848E-011  0.5930195E+02  0.7816164E-02  0.1266605E+00
        -11   -1    0    0    0    0  0.00000000000E+00  0.00000000000E+00  0.45593999997E+02  0.45594000000E+02  0.51100000000E-03 0. -1.
         11   -1    0    0    0    0 -0.00000000000E+00 -0.00000000000E+00 -0.45593999997E+02  0.45594000000E+02  0.51100000000E-03 0.  1.
    9900012    2    1    2    0    0  0.15691892827E+02 -0.75595998697E+01 -0.26708375330E+02  0.59301947196E+02  0.50000005777E+02 0.  0.
         12    1    1    2    0    0 -0.15691892827E+02  0.75595998697E+01  0.26708375330E+02  0.31886052804E+02  0.00000000000E+00 0. -1.
         11    1    3    3    0    0  0.60605782894E+01 -0.74197355675E+00  0.36592055702E+01  0.71183509065E+01  0.51100000000E-03 0.  1.
        -11    1    3    3    0    0  0.14313074033E+02 -0.13106826148E+02  0.14045983497E+01  0.19458311251E+02  0.51100000000E-03 0. -1.
        -12    1    3    3    0    0 -0.46817594961E+01  0.62891998349E+01 -0.31772179250E+02  0.32725285038E+02  0.00000000000E+00 0.  1.
</event>
<event>
 7    1  0.1204848E-011  0.5930206E+02  0.7816164E-02  0.1266604E+00
        -11   -1    0    0    0    0  0.00000000000E+00  0.00000000000E+00  0.45593999997E+02  0.45594000000E+02  0.51100000000E-03 0. -1.
         11   -1    0    0    0    0 -0.00000000000E+00 -0.00000000000E+00 -0.45593999997E+02  0.45594000000E+02  0.51100000000E-03 0.  1.
    9900012    2    1    2    0    0  0.19560206572E+02  0.23792904458E+02 -0.82467748604E+01  0.59302058281E+02  0.50000208370E+02 0.  0.
         12    1    1    2    0    0 -0.19560206572E+02 -0.23792904458E+02  0.82467748604E+01  0.31885941719E+02  0.00000000000E+00 0. -1.
         11    1    3    3    0    0 -0.12095363326E+01  0.23910663814E+02 -0.75849235727E+01  0.25114017760E+02  0.51100000000E-03 0. -1.
        -11    1    3    3    0    0  0.95240358176E+01  0.12979333942E+02  0.34001175224E+01  0.16453910394E+02  0.51100000000E-03 0.  1.
        -12    1    3    3    0    0  0.11245707087E+02 -0.13097093298E+02 -0.40619688100E+01  0.17734130127E+02  0.00000000000E+00 0.  1.
</event>
<event>
 7    1  0.1204848E-011  0.5930195E+02  0.7816164E-02  0.1266605E+00
        -11   -1    0    0    0    0  0.00000000000E+00  0.00000000000E+00  0.45593999997E+02  0.45594000000E+02  0.51100000000E-03 0. -1.
         11   -1    0    0    0    0 -0.00000000000E+00 -0.00000000000E+00 -0.45593999997E+02  0.45594000000E+02  0.51100000000E-03 0.  1.
    9900012    2    1    2    0    0 -0.29385263097E+02  0.10885605704E+02  0.58932131403E+01  0.59301951955E+02  0.50000014458E+02 0.  0.
         12    1    1    2    0    0  0.29385263097E+02 -0.10885605704E+02 -0.58932131403E+01  0.31886048045E+02  0.00000000000E+00 0. -1.
         11    1    3    3    0    0  0.41515255543E+00  0.59995612479E+00 -0.10825608168E+02  0.10850165504E+02  0.51100000000E-03 0. -1.
        -11    1    3    3    0    0 -0.18023957747E+01  0.13206413736E+02 -0.35148501197E+01  0.13784490049E+02  0.51100000000E-03 0.  1.
        -12    1    3    3    0    0 -0.27998019877E+02 -0.29207641563E+01  0.20233671428E+02  0.34667296401E+02  0.00000000000E+00 0.  1.
</event>
<event>
 7    1  0.1204848E-011  0.5930195E+02  0.7816164E-02  0.1266605E+00
        -11   -1    0    0    0    0  0.00000000000E+00  0.00000000000E+00  0.45593999997E+02  0.45594000000E+02  0.51100000000E-03 0.  1.
         11   -1    0    0    0    0 -0.00000000000E+00 -0.00000000000E+00 -0.45593999997E+02  0.45594000000E+02  0.51100000000E-03 0. -1.
    9900012    2    1    2    0    0 -0.41146342757E+01  0.24406954816E+02  0.20102007384E+02  0.59301947258E+02  0.50000005891E+02 0.  0.
         12    1    1    2    0    0  0.41146342757E+01 -0.24406954816E+02 -0.20102007384E+02  0.31886052742E+02  0.00000000000E+00 0. -1.
         11    1    3    3    0    0 -0.60097036809E+01  0.11291783088E+02  0.21481789957E+02  0.25001764011E+02  0.51100000000E-03 0. -1.
        -11    1    3    3    0    0 -0.28622031375E+01  0.18288876640E+02  0.99131511306E+01  0.20998709036E+02  0.51100000000E-03 0.  1.
         12    1    3    3    0    0  0.47572725428E+01 -0.51737049123E+01 -0.11292933704E+02  0.13301474212E+02  0.00000000000E+00 0. -1.
</event>
<event>
 7    1  0.1204848E-011  0.5930192E+02  0.7816164E-02  0.1266605E+00
        -11   -1    0    0    0    0  0.00000000000E+00  0.00000000000E+00  0.45593999997E+02  0.45594000000E+02  0.51100000000E-03 0.  1.
         11   -1    0    0    0    0 -0.00000000000E+00 -0.00000000000E+00 -0.45593999997E+02  0.45594000000E+02  0.51100000000E-03 0. -1.
    9900012    2    1    2    0    0 -0.64797445263E+00 -0.23438613591E+01  0.31793213203E+02  0.59301922117E+02  0.49999960041E+02 0.  0.
         12    1    1    2    0    0  0.64797445263E+00  0.23438613591E+01 -0.31793213203E+02  0.31886077883E+02  0.00000000000E+00 0. -1.
         11    1    3    3    0    0  0.11047897985E+02  0.63412869196E+01  0.31481924235E+01  0.13121702842E+02  0.51100000000E-03 0. -1.
        -11    1    3    3    0    0 -0.64764440778E+01  0.10927512822E+02  0.20899825429E+02  0.24457260018E+02  0.51100000000E-03 0.  1.
        -12    1    3    3    0    0 -0.52194283595E+01 -0.19612661101E+02  0.77451953503E+01  0.21722959257E+02  0.00000000000E+00 0.  1.
</event>
<event>
 7    1  0.1204848E-011  0.5930193E+02  0.7816164E-02  0.1266605E+00
        -11   -1    0    0    0    0  0.00000000000E+00  0.00000000000E+00  0.45593999997E+02  0.45594000000E+02  0.51100000000E-03 0.  1.
         11   -1    0    0    0    0 -0.00000000000E+00 -0.00000000000E+00 -0.45593999997E+02  0.45594000000E+02  0.51100000000E-03 0. -1.
    9900012    2    1    2    0    0  0.13115673921E+01  0.22162818323E+02  0.22886918089E+02  0.59301925537E+02  0.49999966277E+02 0.  0.
         12    1    1    2    0    0 -0.13115673921E+01 -0.22162818323E+02 -0.22886918089E+02  0.31886074463E+02  0.00000000000E+00 0. -1.
         11    1    3    3    0    0  0.85191757029E+01 -0.53478514922E+01  0.88646065788E+01  0.13407353217E+02  0.51100000000E-03 0. -1.
        -11    1    3    3    0    0  0.63041986890E+01 -0.60131698762E+00  0.13260048409E+02  0.14694672072E+02  0.51100000000E-03 0.  1.
         12    1    3    3    0    0 -0.13511807000E+02  0.28111986803E+02  0.76226310189E+00  0.31199900248E+02  0.00000000000E+00 0. -1.
</event>
<event>
 7    1  0.1204848E-011  0.5930170E+02  0.7816164E-02  0.1266606E+00
        -11   -1    0    0    0    0  0.00000000000E+00  0.00000000000E+00  0.45593999997E+02  0.45594000000E+02  0.51100000000E-03 0.  1.
         11   -1    0    0    0    0 -0.00000000000E+00 -0.00000000000E+00 -0.45593999997E+02  0.45594000000E+02  0.51100000000E-03 0. -1.
    9900012    2    1    2    0    0 -0.25941818057E+02  0.95534009443E+01  0.15889953565E+02  0.59301701720E+02  0.49999558087E+02 0.  0.
         12    1    1    2    0    0  0.25941818057E+02 -0.95534009443E+01 -0.15889953565E+02  0.31886298280E+02  0.00000000000E+00 0. -1.
         11    1    3    3    0    0 -0.20118853768E+02  0.43583550615E+01  0.49041754734E+01  0.21161627374E+02  0.51100000000E-03 0. -1.
        -11    1    3    3    0    0 -0.19781908660E+02  0.44723090651E+01 -0.12959635863E+00  0.20281574251E+02  0.51100000000E-03 0.  1.
         12    1    3    3    0    0  0.13958944372E+02  0.72273681777E+00  0.11115374450E+02  0.17858500095E+02  0.00000000000E+00 0. -1.
</event>
<event>
 7    1  0.1204848E-011  0.5930188E+02  0.7816164E-02  0.1266605E+00
        -11   -1    0    0    0    0  0.00000000000E+00  0.00000000000E+00  0.45593999997E+02  0.45594000000E+02  0.51100000000E-03 0.  1.
         11   -1    0    0    0    0 -0.00000000000E+00 -0.00000000000E+00 -0.45593999997E+02  0.45594000000E+02  0.51100000000E-03 0. -1.
    9900012    2    1    2    0    0 -0.17571143059E+02  0.32160835006E+00  0.26605945756E+02  0.59301876844E+02  0.49999877473E+02 0.  0.
         12    1    1    2    0    0  0.17571143059E+02 -0.32160835006E+00 -0.26605945756E+02  0.31886123156E+02  0.00000000000E+00 0. -1.
         11    1    3    3    0    0 -0.22889628220E+02  0.12549791168E+01  0.20713427242E+01  0.23017395890E+02  0.51100000000E-03 0. -1.
        -11    1    3    3    0    0 -0.46671538113E+01 -0.98275979078E+01  0.18828183458E+02  0.21745447751E+02  0.51100000000E-03 0.  1.
         12    1    3    3    0    0  0.99856389721E+01  0.88942271411E+01  0.57064195743E+01  0.14539033203E+02  0.00000000000E+00 0. -1.
</event>
<event>
 7    1  0.1204848E-011  0.5930194E+02  0.7816164E-02  0.1266605E+00
        -11   -1    0    0    0    0  0.00000000000E+00  0.00000000000E+00  0.45593999997E+02  0.45594000000E+02  0.51100000000E-03 0. -1.
         11   -1    0    0    0    0 -0.00000000000E+00 -0.00000000000E+00 -0.45593999997E+02  0.45594000000E+02  0.51100000000E-03 0.  1.
    9900012    2    1    2    0    0 -0.63717281054E+01  0.16249289846E+02 -0.26684874744E+02  0.59301939101E+02  0.49999991015E+02 0.  0.
         12    1    1    2    0    0  0.63717281054E+01 -0.16249289846E+02  0.26684874744E+02  0.31886060899E+02  0.00000000000E+00 0. -1.
         11    1    3    3    0    0  0.12269792541E+02 -0.24161462261E+01 -0.75364399582E+01  0.14600804741E+02  0.51100000000E-03 0. -1.
        -11    1    3    3    0    0  0.55498003413E+01  0.14646690213E+02 -0.96867920743E+01  0.18416290587E+02  0.51100000000E-03 0.  1.
        -12    1    3    3    0    0 -0.24191320987E+02  0.40187458596E+01 -0.94616427113E+01  0.26284843774E+02  0.00000000000E+00 0.  1.
</event>
<event>
 7    1  0.1204848E-011  0.5930196E+02  0.7816164E-02  0.1266605E+00
        -11   -1    0    0    0    0  0.00000000000E+00  0.00000000000E+00  0.45593999997E+02  0.45594000000E+02  0.51100000000E-03 0. -1.
         11   -1    0    0    0    0 -0.00000000000E+00 -0.00000000000E+00 -0.45593999997E+02  0.45594000000E+02  0.51100000000E-03 0.  1.
    9900012    2    1    2    0    0  0.16984819293E+02  0.12558512888E+02 -0.23885541569E+02  0.59301961858E+02  0.50000032518E+02 0.  0.
         12    1    1    2    0    0 -0.16984819293E+02 -0.12558512888E+02  0.23885541569E+02  0.31886038142E+02  0.00000000000E+00 0. -1.
         11    1    3    3    0    0  0.33518729403E+01 -0.39976050653E+01  0.23900189903E+01  0.57383002275E+01  0.51100000000E-03 0. -1.
        -11    1    3    3    0    0  0.58463730320E+01 -0.13708184412E+02 -0.48421841974E+01  0.15669752569E+02  0.51100000000E-03 0.  1.
         12    1    3    3    0    0  0.77865733208E+01  0.30264302365E+02 -0.21433376361E+02  0.37893909062E+02  0.00000000000E+00 0. -1.
</event>
<event>
 7    1  0.1204848E-011  0.5930195E+02  0.7816164E-02  0.1266605E+00
        -11   -1    0    0    0    0  0.00000000000E+00  0.00000000000E+00  0.45593999997E+02  0.45594000000E+02  0.51100000000E-03 0. -1.
         11   -1    0    0    0    0 -0.00000000000E+00 -0.00000000000E+00 -0.45593999997E+02  0.45594000000E+02  0.51100000000E-03 0.  1.
    9900012    2    1    2    0    0  0.24827514506E+02 -0.17847779219E+02 -0.90427635853E+01  0.59301948615E+02  0.50000008367E+02 0.  0.
         12    1    1    2    0    0 -0.24827514506E+02  0.17847779219E+02  0.90427635853E+01  0.31886051385E+02  0.00000000000E+00 0. -1.
         11    1    3    3    0    0 -0.62914771876E+01  0.91067944188E+01  0.25984156062E+01  0.11369615372E+02  0.51100000000E-03 0. -1.
        -11    1    3    3    0    0 -0.13973799335E+01 -0.67811272261E+01 -0.61763714934E+01  0.92781421751E+01  0.51100000000E-03 0.  1.
        -12    1    3    3    0    0  0.32516371628E+02 -0.20173446412E+02 -0.54648076981E+01  0.38654191068E+02  0.00000000000E+00 0.  1.
</event>
<event>
 7    1  0.1204848E-011  0.5930193E+02  0.7816164E-02  0.1266605E+00
        -11   -1    0    0    0    0  0.00000000000E+00  0.00000000000E+00  0.45593999997E+02  0.45594000000E+02  0.51100000000E-03 0. -1.
         11   -1    0    0    0    0 -0.00000000000E+00 -0.00000000000E+00 -0.45593999997E+02  0.45594000000E+02  0.51100000000E-03 0.  1.
    9900012    2    1    2    0    0  0.13915106213E+02  0.39761922824E+01 -0.28412691160E+02  0.59301932432E+02  0.49999978852E+02 0.  0.
         12    1    1    2    0    0 -0.13915106213E+02 -0.39761922824E+01  0.28412691160E+02  0.31886067568E+02  0.00000000000E+00 0. -1.
         11    1    3    3    0    0 -0.38559795132E+01  0.49381558756E+01 -0.79243056584E+01  0.10101909814E+02  0.51100000000E-03 0. -1.
        -11    1    3    3    0    0  0.35152676064E+01  0.18964508330E+02 -0.14064825839E+02  0.23871091485E+02  0.51100000000E-03 0.  1.
         12    1    3    3    0    0  0.14255818120E+02 -0.19926471923E+02 -0.64235596631E+01  0.25328931133E+02  0.00000000000E+00 0. -1.
</event>
<event>
 7    1  0.1204848E-011  0.5930193E+02  0.7816164E-02  0.1266605E+00
        -11   -1    0    0    0    0  0.00000000000E+00  0.00000000000E+00  0.45593999997E+02  0.45594000000E+02  0.51100000000E-03 0.  1.
         11   -1    0    0    0    0 -0.00000000000E+00 -0.00000000000E+00 -0.45593999997E+02  0.45594000000E+02  0.51100000000E-03 0. -1.
    9900012    2    1    2    0    0 -0.18981523909E+02  0.25620704743E+02  0.53499830491E-01  0.59301927434E+02  0.49999969737E+02 0.  0.
         12    1    1    2    0    0  0.18981523909E+02 -0.25620704743E+02 -0.53499830491E-01  0.31886072566E+02  0.00000000000E+00 0. -1.
         11    1    3    3    0    0 -0.10637494036E+02  0.12203751620E+01  0.78883594512E+01  0.13299316147E+02  0.51100000000E-03 0. -1.
        -11    1    3    3    0    0  0.31178760231E+01 -0.42996554411E+01  0.92677594049E+01  0.10681739206E+02  0.51100000000E-03 0.  1.
         12    1    3    3    0    0 -0.11461905897E+02  0.28699985022E+02 -0.17102619026E+02  0.35320872081E+02  0.00000000000E+00 0. -1.
</event>
<event>
 7    1  0.1204848E-011  0.5930191E+02  0.7816164E-02  0.1266605E+00
        -11   -1    0    0    0    0  0.00000000000E+00  0.00000000000E+00  0.45593999997E+02  0.45594000000E+02  0.51100000000E-03 0. -1.
         11   -1    0    0    0    0 -0.00000000000E+00 -0.00000000000E+00 -0.45593999997E+02  0.45594000000E+02  0.51100000000E-03 0.  1.
    9900012    2    1    2    0    0  0.23249261718E+02 -0.16220882877E+01  0.21761505108E+02  0.59301914549E+02  0.49999946237E+02 0.  0.
         12    1    1    2    0    0 -0.23249261718E+02  0.16220882877E+01 -0.21761505108E+02  0.31886085451E+02  0.00000000000E+00 0. -1.
         11    1    3    3    0    0  0.10790431163E+01 -0.15709622755E+01 -0.49591501620E+00  0.19693116773E+01  0.51100000000E-03 0. -1.
        -11    1    3    3    0    0 -0.41823578900E+01 -0.15570241970E+02 -0.44551493454E+01  0.16726413497E+02  0.51100000000E-03 0.  1.
         12    1    3    3    0    0  0.26352576492E+02  0.15519115957E+02  0.26712569470E+02  0.40606189375E+02  0.00000000000E+00 0. -1.
</event>
<event>
 7    1  0.1204848E-011  0.5930197E+02  0.7816164E-02  0.1266605E+00
        -11   -1    0    0    0    0  0.00000000000E+00  0.00000000000E+00  0.45593999997E+02  0.45594000000E+02  0.51100000000E-03 0.  1.
         11   -1    0    0    0    0 -0.00000000000E+00 -0.00000000000E+00 -0.45593999997E+02  0.45594000000E+02  0.51100000000E-03 0. -1.
    9900012    2    1    2    0    0  0.14611530630E+02  0.22757530367E+01  0.28249650928E+02  0.59301973958E+02  0.50000054585E+02 0.  0.
         12    1    1    2    0    0 -0.14611530630E+02 -0.22757530367E+01 -0.28249650928E+02  0.31886026042E+02  0.00000000000E+00 0. -1.
         11    1    3    3    0    0  0.13285198093E+02 -0.12579014861E+02  0.96503175172E+00  0.18321009518E+02  0.51100000000E-03 0. -1.
        -11    1    3    3    0    0  0.49572298176E+00 -0.66933516118E+01  0.14332274460E+02  0.15825953005E+02  0.51100000000E-03 0.  1.
        -12    1    3    3    0    0  0.83060955524E+00  0.21548119509E+02  0.12952344716E+02  0.25155011434E+02  0.00000000000E+00 0.  1.
</event>
<event>
 7    1  0.1204848E-011  0.5930195E+02  0.7816164E-02  0.1266605E+00
        -11   -1    0    0    0    0  0.00000000000E+00  0.00000000000E+00  0.45593999997E+02  0.45594000000E+02  0.51100000000E-03 0. -1.
         11   -1    0    0    0    0 -0.00000000000E+00 -0.00000000000E+00 -0.45593999997E+02  0.45594000000E+02  0.51100000000E-03 0.  1.
    9900012    2    1    2    0    0 -0.13132235908E+01 -0.31857567196E+02  0.30179296648E+00  0.59301949401E+02  0.50000009799E+02 0.  0.
         12    1    1    2    0    0  0.13132235908E+01  0.31857567196E+02 -0.30179296648E+00  0.31886050599E+02  0.00000000000E+00 0. -1.
         11    1    3    3    0    0 -0.83238567258E+01  0.99102922934E+00  0.59713392098E+00  0.84038859408E+01  0.51100000000E-03 0. -1.
        -11    1    3    3    0    0 -0.12393959666E+02 -0.28943343806E+01 -0.70866909187E+01  0.14567381238E+02  0.51100000000E-03 0.  1.
         12    1    3    3    0    0  0.19404592801E+02 -0.29954262044E+02  0.67913499642E+01  0.36330682222E+02  0.00000000000E+00 0. -1.
</event>
<event>
 7    1  0.1204848E-011  0.5930195E+02  0.7816164E-02  0.1266605E+00
        -11   -1    0    0    0    0  0.00000000000E+00  0.00000000000E+00  0.45593999997E+02  0.45594000000E+02  0.51100000000E-03 0.  1.
         11   -1    0    0    0    0 -0.00000000000E+00 -0.00000000000E+00 -0.45593999997E+02  0.45594000000E+02  0.51100000000E-03 0. -1.
    9900012    2    1    2    0    0  0.48136700167E+01  0.64238703008E+01  0.30859082084E+02  0.59301945434E+02  0.50000002565E+02 0.  0.
         12    1    1    2    0    0 -0.48136700167E+01 -0.64238703008E+01 -0.30859082084E+02  0.31886054566E+02  0.00000000000E+00 0. -1.
         11    1    3    3    0    0 -0.64108606647E+00 -0.12561923242E+02 -0.36905018673E+01  0.13108497670E+02  0.51100000000E-03 0. -1.
        -11    1    3    3    0    0 -0.23275999950E+01 -0.47476269104E+01  0.34832665289E+01  0.63317319107E+01  0.51100000000E-03 0.  1.
         12    1    3    3    0    0  0.77823560781E+01  0.23733420453E+02  0.31066317423E+02  0.39861715853E+02  0.00000000000E+00 0. -1.
</event>
<event>
 7    1  0.1204848E-011  0.5930196E+02  0.7816164E-02  0.1266605E+00
        -11   -1    0    0    0    0  0.00000000000E+00  0.00000000000E+00  0.45593999997E+02  0.45594000000E+02  0.51100000000E-03 0. -1.
         11   -1    0    0    0    0 -0.00000000000E+00 -0.00000000000E+00 -0.45593999997E+02  0.45594000000E+02  0.51100000000E-03 0.  1.
    9900012    2    1    2    0    0  0.16374425556E+02  0.15173350682E+02 -0.22767675214E+02  0.59301962023E+02  0.50000032819E+02 0.  0.
         12    1    1    2    0    0 -0.16374425556E+02 -0.15173350682E+02  0.22767675214E+02  0.31886037977E+02  0.00000000000E+00 0. -1.
         11    1    3    3    0    0 -0.69146488149E+00 -0.10536318507E+02 -0.14431233041E+02  0.17881627966E+02  0.51100000000E-03 0. -1.
        -11    1    3    3    0    0  0.20950292140E+02  0.19660664781E+02 -0.14288145975E+02  0.32087499062E+02  0.51100000000E-03 0.  1.
        -12    1    3    3    0    0 -0.38844017018E+01  0.60490044080E+01  0.59517038018E+01  0.93328349956E+01  0.00000000000E+00 0.  1.
</event>
<event>
 7    1  0.1204848E-011  0.5930194E+02  0.7816164E-02  0.1266605E+00
        -11   -1    0    0    0    0  0.00000000000E+00  0.00000000000E+00  0.45593999997E+02  0.45594000000E+02  0.51100000000E-03 0. -1.
         11   -1    0    0    0    0 -0.00000000000E+00 -0.00000000000E+00 -0.45593999997E+02  0.45594000000E+02  0.51100000000E-03 0.  1.
    9900012    2    1    2    0    0 -0.10156518596E+02  0.29743490466E+02  0.53750269503E+01  0.59301937060E+02  0.49999987293E+02 0.  0.
         12    1    1    2    0    0  0.10156518596E+02 -0.29743490466E+02 -0.53750269503E+01  0.31886062940E+02  0.00000000000E+00 0. -1.
         11    1    3    3    0    0  0.41642561639E+01  0.36269894247E+01  0.16642110655E+02  0.17534421263E+02  0.51100000000E-03 0. -1.
        -11    1    3    3    0    0  0.35398207133E+01 -0.28990235121E+01  0.22665679944E+01  0.51060746901E+01  0.51100000000E-03 0.  1.
        -12    1    3    3    0    0 -0.17860595473E+02  0.29015524553E+02 -0.13533651699E+02  0.36661441108E+02  0.00000000000E+00 0.  1.
</event>
<event>
 7    1  0.1204848E-011  0.5930195E+02  0.7816164E-02  0.1266605E+00
        -11   -1    0    0    0    0  0.00000000000E+00  0.00000000000E+00  0.45593999997E+02  0.45594000000E+02  0.51100000000E-03 0.  1.
         11   -1    0    0    0    0 -0.00000000000E+00 -0.00000000000E+00 -0.45593999997E+02  0.45594000000E+02  0.51100000000E-03 0. -1.
    9900012    2    1    2    0    0  0.55301370187E+01 -0.31236272551E+02  0.32300165787E+01  0.59301950614E+02  0.50000012012E+02 0.  0.
         12    1    1    2    0    0 -0.55301370187E+01  0.31236272551E+02 -0.32300165787E+01  0.31886049386E+02  0.00000000000E+00 0. -1.
         11    1    3    3    0    0 -0.12499435824E+02 -0.33378950363E+01 -0.73400220166E+01  0.14874587815E+02  0.51100000000E-03 0. -1.
        -11    1    3    3    0    0  0.14500394354E+02 -0.18562119959E+01 -0.28885877851E+01  0.14901372388E+02  0.51100000000E-03 0.  1.
        -12    1    3    3    0    0  0.35291784889E+01 -0.26042165519E+02  0.13458626380E+02  0.29525990412E+02  0.00000000000E+00 0.  1.
</event>
<event>
 7    1  0.1204848E-011  0.5930200E+02  0.7816164E-02  0.1266605E+00
        -11   -1    0    0    0    0  0.00000000000E+00  0.00000000000E+00  0.45593999997E+02  0.45594000000E+02  0.51100000000E-03 0. -1.
         11   -1    0    0    0    0 -0.00000000000E+00 -0.00000000000E+00 -0.45593999997E+02  0.45594000000E+02  0.51100000000E-03 0.  1.
    9900012    2    1    2    0    0  0.31790889343E+02  0.22613310249E+01  0.97108210058E+00  0.59301995803E+02  0.50000094425E+02 0.  0.
         12    1    1    2    0    0 -0.31790889343E+02 -0.22613310249E+01 -0.97108210058E+00  0.31886004197E+02  0.00000000000E+00 0. -1.
         11    1    3    3    0    0 -0.42425061834E+00  0.85466265820E+01  0.25856410739E+01  0.89392591719E+01  0.51100000000E-03 0. -1.
        -11    1    3    3    0    0  0.24393612242E+02  0.55017324563E+01  0.14511054272E+02  0.28911729014E+02  0.51100000000E-03 0.  1.
        -12    1    3    3    0    0  0.78215277191E+01 -0.11787028013E+02 -0.16125613245E+02  0.21451007617E+02  0.00000000000E+00 0.  1.
</event>
<event>
 7    1  0.1204848E-011  0.5930193E+02  0.7816164E-02  0.1266605E+00
        -11   -1    0    0    0    0  0.00000000000E+00  0.00000000000E+00  0.45593999997E+02  0.45594000000E+02  0.51100000000E-03 0. -1.
         11   -1    0    0    0    0 -0.00000000000E+00 -0.00000000000E+00 -0.45593999997E+02  0.45594000000E+02  0.51100000000E-03 0.  1.
    9900012    2    1    2    0    0  0.45813451459E+01 -0.27777478963E+02 -0.14971460522E+02  0.59301926378E+02  0.49999967812E+02 0.  0.
         12    1    1    2    0    0 -0.45813451459E+01  0.27777478963E+02  0.14971460522E+02  0.31886073622E+02  0.00000000000E+00 0. -1.
         11    1    3    3    0    0 -0.13723129545E+02 -0.63319095659E+01 -0.13384189719E+02  0.20187964185E+02  0.51100000000E-03 0. -1.
        -11    1    3    3    0    0  0.59065244632E+01 -0.88175684535E+01 -0.13948831127E+02  0.17527305404E+02  0.51100000000E-03 0.  1.
         12    1    3    3    0    0  0.12397950228E+02 -0.12628000943E+02  0.12361560324E+02  0.21586656789E+02  0.00000000000E+00 0. -1.
</event>
<event>
 7    1  0.1204848E-011  0.5930197E+02  0.7816164E-02  0.1266605E+00
        -11   -1    0    0    0    0  0.00000000000E+00  0.00000000000E+00  0.45593999997E+02  0.45594000000E+02  0.51100000000E-03 0.  1.
         11   -1    0    0    0    0 -0.00000000000E+00 -0.00000000000E+00 -0.45593999997E+02  0.45594000000E+02  0.51100000000E-03 0. -1.
    9900012    2    1    2    0    0 -0.22425180785E+02  0.67505818056E+01  0.21639314669E+02  0.59301968147E+02  0.50000043988E+02 0.  0.
         12    1    1    2    0    0  0.22425180785E+02 -0.67505818056E+01 -0.21639314669E+02  0.31886031853E+02  0.00000000000E+00 0. -1.
         11    1    3    3    0    0 -0.78121173169E+01  0.13128399566E+02  0.17708201970E+02  0.23387271526E+02  0.51100000000E-03 0. -1.
        -11    1    3    3    0    0  0.41333079194E+01 -0.70749020207E+00  0.13486106082E+02  0.14123024969E+02  0.51100000000E-03 0.  1.
         12    1    3    3    0    0 -0.18746371388E+02 -0.56703275588E+01 -0.95549933834E+01  0.21791671652E+02  0.00000000000E+00 0. -1.
</event>
<event>
 7    1  0.1204848E-011  0.5930196E+02  0.7816164E-02  0.1266605E+00
        -11   -1    0    0    0    0  0.00000000000E+00  0.00000000000E+00  0.45593999997E+02  0.45594000000E+02  0.51100000000E-03 0.  1.
         11   -1    0    0    0    0 -0.00000000000E+00 -0.00000000000E+00 -0.45593999997E+02  0.45594000000E+02  0.51100000000E-03 0. -1.
    9900012    2    1    2    0    0  0.72086444706E+00 -0.28078759022E+02 -0.15092490843E+02  0.59301958640E+02  0.50000026649E+02 0.  0.
         12    1    1    2    0    0 -0.72086444706E+00  0.28078759022E+02  0.15092490843E+02  0.31886041360E+02  0.00000000000E+00 0. -1.
         11    1    3    3    0    0 -0.13404019469E+02 -0.11761197377E+02 -0.17146862085E+02  0.24738803149E+02  0.51100000000E-03 0. -1.
        -11    1    3    3    0    0 -0.60962469917E+01 -0.84584840068E+01 -0.52477034350E+01  0.11672556304E+02  0.51100000000E-03 0.  1.
         12    1    3    3    0    0  0.20221130907E+02 -0.78590776387E+01  0.73020746765E+01  0.22890599186E+02  0.00000000000E+00 0. -1.
</event>
<event>
 7    1  0.1204848E-011  0.5930194E+02  0.7816164E-02  0.1266605E+00
        -11   -1    0    0    0    0  0.00000000000E+00  0.00000000000E+00  0.45593999997E+02  0.45594000000E+02  0.51100000000E-03 0. -1.
         11   -1    0    0    0    0 -0.00000000000E+00 -0.00000000000E+00 -0.45593999997E+02  0.45594000000E+02  0.51100000000E-03 0.  1.
    9900012    2    1    2    0    0  0.30191576269E+02  0.10239928063E+02  0.57724170393E+00  0.59301943293E+02  0.49999998660E+02 0.  0.
         12    1    1    2    0    0 -0.30191576269E+02 -0.10239928063E+02 -0.57724170393E+00  0.31886056707E+02  0.00000000000E+00 0. -1.
         11    1    3    3    0    0  0.14621167958E+02  0.84618382692E+01  0.10197280835E+01  0.16923980175E+02  0.51100000000E-03 0. -1.
        -11    1    3    3    0    0  0.17986901608E+02  0.17918154264E+02 -0.39255913083E+01  0.25690448596E+02  0.51100000000E-03 0.  1.
         12    1    3    3    0    0 -0.24164932965E+01 -0.16140064471E+02  0.34831049287E+01  0.16687514522E+02  0.00000000000E+00 0. -1.
</event>
<event>
 7    1  0.1204848E-011  0.5930193E+02  0.7816164E-02  0.1266605E+00
        -11   -1    0    0    0    0  0.00000000000E+00  0.00000000000E+00  0.45593999997E+02  0.45594000000E+02  0.51100000000E-03 0.  1.
         11   -1    0    0    0    0 -0.00000000000E+00 -0.00000000000E+00 -0.45593999997E+02  0.45594000000E+02  0.51100000000E-03 0. -1.
    9900012    2    1    2    0    0 -0.91921194596E+01 -0.12271962063E+02  0.27957559321E+02  0.59301933510E+02  0.49999980818E+02 0.  0.
         12    1    1    2    0    0  0.91921194596E+01  0.12271962063E+02 -0.27957559321E+02  0.31886066490E+02  0.00000000000E+00 0. -1.
         11    1    3    3    0    0  0.22112751832E+01  0.14213718983E+02  0.40480570718E+01  0.14943437073E+02  0.51100000000E-03 0. -1.
        -11    1    3    3    0    0  0.24001121633E+01 -0.18258073063E+01 -0.37518872105E+01  0.48136024574E+01  0.51100000000E-03 0.  1.
        -12    1    3    3    0    0 -0.13803506806E+02 -0.24659873739E+02  0.27661389460E+02  0.39544893979E+02  0.00000000000E+00 0.  1.
</event>
<event>
 7    1  0.1204848E-011  0.5930196E+02  0.7816164E-02  0.1266605E+00
        -11   -1    0    0    0    0  0.00000000000E+00  0.00000000000E+00  0.45593999997E+02  0.45594000000E+02  0.51100000000E-03 0.  1.
         11   -1    0    0    0    0 -0.00000000000E+00 -0.00000000000E+00 -0.45593999997E+02  0.45594000000E+02  0.51100000000E-03 0. -1.
    9900012    2    1    2    0    0 -0.18766624239E+02 -0.23761978229E+02  0.99950814703E+01  0.59301961547E+02  0.50000031950E+02 0.  0.
         12    1    1    2    0    0  0.18766624239E+02  0.23761978229E+02 -0.99950814703E+01  0.31886038453E+02  0.00000000000E+00 0. -1.
         11    1    3    3    0    0 -0.13483275508E+02 -0.41610187990E+00  0.17343608123E+01  0.13600730380E+02  0.51100000000E-03 0. -1.
        -11    1    3    3    0    0 -0.14865815620E+02 -0.25873320574E+02  0.15311309646E+02  0.33538893764E+02  0.51100000000E-03 0.  1.
         12    1    3    3    0    0  0.95824668894E+01  0.25274442257E+01 -0.70505889877E+01  0.12162337402E+02  0.00000000000E+00 0. -1.
</event>
<event>
 7    1  0.1204848E-011  0.5930195E+02  0.7816164E-02  0.1266605E+00
        -11   -1    0    0    0    0  0.00000000000E+00  0.00000000000E+00  0.45593999997E+02  0.45594000000E+02  0.51100000000E-03 0.  1.
         11   -1    0    0    0    0 -0.00000000000E+00 -0.00000000000E+00 -0.45593999997E+02  0.45594000000E+02  0.51100000000E-03 0. -1.
    9900012    2    1    2    0    0  0.28770397005E+02  0.92583263670E+01  0.10162072663E+02  0.59301951770E+02  0.50000014119E+02 0.  0.
         12    1    1    2    0    0 -0.28770397005E+02 -0.92583263670E+01 -0.10162072663E+02  0.31886048230E+02  0.00000000000E+00 0. -1.
         11    1    3    3    0    0 -0.75612904727E+01 -0.42014518824E+01  0.12916952179E+01  0.87460727375E+01  0.51100000000E-03 0. -1.
        -11    1    3    3    0    0  0.15706669854E+01  0.68139979613E+01 -0.86032357958E+01  0.11086623896E+02  0.51100000000E-03 0.  1.
        -12    1    3    3    0    0  0.34761020492E+02  0.66457802881E+01  0.17473613241E+02  0.39469255136E+02  0.00000000000E+00 0.  1.
</event>
<event>
 7    1  0.1204848E-011  0.5930194E+02  0.7816164E-02  0.1266605E+00
        -11   -1    0    0    0    0  0.00000000000E+00  0.00000000000E+00  0.45593999997E+02  0.45594000000E+02  0.51100000000E-03 0. -1.
         11   -1    0    0    0    0 -0.00000000000E+00 -0.00000000000E+00 -0.45593999997E+02  0.45594000000E+02  0.51100000000E-03 0.  1.
    9900012    2    1    2    0    0  0.19286685886E+02  0.24358571362E+02  0.71697166760E+01  0.59301935827E+02  0.49999985044E+02 0.  0.
         12    1    1    2    0    0 -0.19286685886E+02 -0.24358571362E+02 -0.71697166760E+01  0.31886064173E+02  0.00000000000E+00 0. -1.
         11    1    3    3    0    0 -0.29752806610E+01  0.12142711110E+02  0.13989570976E+02  0.18761818261E+02  0.51100000000E-03 0. -1.
        -11    1    3    3    0    0  0.65672613991E+01  0.20391242706E+02 -0.78454143945E+01  0.22814079615E+02  0.51100000000E-03 0.  1.
         12    1    3    3    0    0  0.15694705148E+02 -0.81753824541E+01  0.10255600944E+01  0.17726037951E+02  0.00000000000E+00 0. -1.
</event>
<event>
 7    1  0.1204848E-011  0.5930196E+02  0.7816164E-02  0.1266605E+00
        -11   -1    0    0    0    0  0.00000000000E+00  0.00000000000E+00  0.45593999997E+02  0.45594000000E+02  0.51100000000E-03 0. -1.
         11   -1    0    0    0    0 -0.00000000000E+00 -0.00000000000E+00 -0.45593999997E+02  0.45594000000E+02  0.51100000000E-03 0.  1.
    9900012    2    1    2    0    0 -0.84015548379E+01 -0.17253855321E+02 -0.25464444095E+02  0.59301959792E+02  0.50000028750E+02 0.  0.
         12    1    1    2    0    0  0.84015548379E+01  0.17253855321E+02  0.25464444095E+02  0.31886040208E+02  0.00000000000E+00 0. -1.
         11    1    3    3    0    0  0.41673870851E+01 -0.14116880431E+02 -0.21557150409E+02  0.26102953133E+02  0.51100000000E-03 0. -1.
        -11    1    3    3    0    0 -0.12050288717E+02  0.12475822828E+02 -0.18887378766E+01  0.17447720322E+02  0.51100000000E-03 0.  1.
         12    1    3    3    0    0 -0.51865320616E+00 -0.15612797718E+02 -0.20185558087E+01  0.15751286337E+02  0.00000000000E+00 0. -1.
</event>
<event>
 7    1  0.1204848E-011  0.5930199E+02  0.7816164E-02  0.1266605E+00
        -11   -1    0    0    0    0  0.00000000000E+00  0.00000000000E+00  0.45593999997E+02  0.45594000000E+02  0.51100000000E-03 0.  1.
         11   -1    0    0    0    0 -0.00000000000E+00 -0.00000000000E+00 -0.45593999997E+02  0.45594000000E+02  0.51100000000E-03 0. -1.
    9900012    2    1    2    0    0 -0.28706514946E+02  0.80405270846E+01  0.11313869371E+02  0.59301988705E+02  0.50000081481E+02 0.  0.
         12    1    1    2    0    0  0.28706514946E+02 -0.80405270846E+01 -0.11313869371E+02  0.31886011295E+02  0.00000000000E+00 0. -1.
         11    1    3    3    0    0  0.20483364562E+01 -0.16565706866E+01 -0.65942173549E+01  0.71009584890E+01  0.51100000000E-03 0. -1.
        -11    1    3    3    0    0  0.78817864888E+01 -0.24694393177E+01  0.10498249657E+01  0.83260327599E+01  0.51100000000E-03 0.  1.
         12    1    3    3    0    0 -0.38636637891E+02  0.12166537089E+02  0.16858261760E+02  0.43874997457E+02  0.00000000000E+00 0. -1.
</event>
<event>
 7    1  0.1204848E-011  0.5930193E+02  0.7816164E-02  0.1266605E+00
        -11   -1    0    0    0    0  0.00000000000E+00  0.00000000000E+00  0.45593999997E+02  0.45594000000E+02  0.51100000000E-03 0. -1.
         11   -1    0    0    0    0 -0.00000000000E+00 -0.00000000000E+00 -0.45593999997E+02  0.45594000000E+02  0.51100000000E-03 0.  1.
    9900012    2    1    2    0    0 -0.50563668708E+00  0.29194637267E+02  0.12811683514E+02  0.59301925484E+02  0.49999966181E+02 0.  0.
         12    1    1    2    0    0  0.50563668708E+00 -0.29194637267E+02 -0.12811683514E+02  0.31886074516E+02  0.00000000000E+00 0. -1.
         11    1    3    3    0    0 -0.72335407162E+01 -0.91558624870E+01 -0.13295311620E+01  0.11744001982E+02  0.51100000000E-03 0.  1.
        -11    1    3    3    0    0 -0.68886745204E+01  0.78412484611E+01  0.89456268386E+01  0.13746390576E+02  0.51100000000E-03 0. -1.
        -12    1    3    3    0    0  0.13616578550E+02  0.30509251293E+02  0.51955878369E+01  0.33811532926E+02  0.00000000000E+00 0.  1.
</event>
<event>
 7    1  0.1204848E-011  0.5930197E+02  0.7816164E-02  0.1266605E+00
        -11   -1    0    0    0    0  0.00000000000E+00  0.00000000000E+00  0.45593999997E+02  0.45594000000E+02  0.51100000000E-03 0.  1.
         11   -1    0    0    0    0 -0.00000000000E+00 -0.00000000000E+00 -0.45593999997E+02  0.45594000000E+02  0.51100000000E-03 0. -1.
    9900012    2    1    2    0    0  0.78174966979E+01  0.22525516264E+02  0.21170894209E+02  0.59301970156E+02  0.50000047652E+02 0.  0.
         12    1    1    2    0    0 -0.78174966979E+01 -0.22525516264E+02 -0.21170894209E+02  0.31886029844E+02  0.00000000000E+00 0. -1.
         11    1    3    3    0    0  0.33021501783E+01  0.36280727380E+01  0.59282252998E+01  0.76948660196E+01  0.51100000000E-03 0. -1.
        -11    1    3    3    0    0  0.17547086029E+02  0.27280077946E+02  0.15847104735E+02  0.36100327001E+02  0.51100000000E-03 0.  1.
         12    1    3    3    0    0 -0.13031739509E+02 -0.83826344199E+01 -0.60443582602E+00  0.15506777135E+02  0.00000000000E+00 0. -1.
</event>
<event>
 7    1  0.1204848E-011  0.5930194E+02  0.7816164E-02  0.1266605E+00
        -11   -1    0    0    0    0  0.00000000000E+00  0.00000000000E+00  0.45593999997E+02  0.45594000000E+02  0.51100000000E-03 0. -1.
         11   -1    0    0    0    0 -0.00000000000E+00 -0.00000000000E+00 -0.45593999997E+02  0.45594000000E+02  0.51100000000E-03 0.  1.
    9900012    2    1    2    0    0 -0.28414110429E+02  0.13342287709E+02  0.55984456164E+01  0.59301938686E+02  0.49999990258E+02 0.  0.
         12    1    1    2    0    0  0.28414110429E+02 -0.13342287709E+02 -0.55984456164E+01  0.31886061314E+02  0.00000000000E+00 0. -1.
         11    1    3    3    0    0  0.48915398595E+01  0.24033208318E+01 -0.64607084606E+01  0.84524474143E+01  0.51100000000E-03 0. -1.
        -11    1    3    3    0    0 -0.21810283634E+02 -0.93849144992E+01  0.13751833261E+02  0.27438622609E+02  0.51100000000E-03 0.  1.
         12    1    3    3    0    0 -0.11495366654E+02  0.20323881377E+02 -0.16926791841E+01  0.23410868663E+02  0.00000000000E+00 0. -1.
</event>
<event>
 7    1  0.1204848E-011  0.5930202E+02  0.7816164E-02  0.1266605E+00
        -11   -1    0    0    0    0  0.00000000000E+00  0.00000000000E+00  0.45593999997E+02  0.45594000000E+02  0.51100000000E-03 0. -1.
         11   -1    0    0    0    0 -0.00000000000E+00 -0.00000000000E+00 -0.45593999997E+02  0.45594000000E+02  0.51100000000E-03 0.  1.
    9900012    2    1    2    0    0  0.10767614439E+02  0.14874428870E+02 -0.26067714830E+02  0.59302017008E+02  0.50000133099E+02 0.  0.
         12    1    1    2    0    0 -0.10767614439E+02 -0.14874428870E+02  0.26067714830E+02  0.31885982992E+02  0.00000000000E+00 0. -1.
         11    1    3    3    0    0 -0.90350021213E+01  0.25306486546E+02 -0.45448947294E+01  0.27252625433E+02  0.51100000000E-03 0. -1.
        -11    1    3    3    0    0  0.45394749502E+01 -0.22407275784E+01 -0.94249146154E+00  0.51493672737E+01  0.51100000000E-03 0.  1.
        -12    1    3    3    0    0  0.15263141610E+02 -0.81913300970E+01 -0.20580328639E+02  0.26900024302E+02  0.00000000000E+00 0.  1.
</event>
<event>
 7    1  0.1204848E-011  0.5930193E+02  0.7816164E-02  0.1266605E+00
        -11   -1    0    0    0    0  0.00000000000E+00  0.00000000000E+00  0.45593999997E+02  0.45594000000E+02  0.51100000000E-03 0. -1.
         11   -1    0    0    0    0 -0.00000000000E+00 -0.00000000000E+00 -0.45593999997E+02  0.45594000000E+02  0.51100000000E-03 0.  1.
    9900012    2    1    2    0    0 -0.27545477719E+02 -0.71918397285E+01 -0.14361249442E+02  0.59301931146E+02  0.49999976507E+02 0.  0.
         12    1    1    2    0    0  0.27545477719E+02  0.71918397285E+01  0.14361249442E+02  0.31886068854E+02  0.00000000000E+00 0. -1.
         11    1    3    3    0    0 -0.77852881075E+01  0.93504802374E+01 -0.10101749267E+02  0.15814156003E+02  0.51100000000E-03 0. -1.
        -11    1    3    3    0    0 -0.21764901335E+02 -0.16507464763E+01  0.88438356097E+01  0.23550994089E+02  0.51100000000E-03 0.  1.
         12    1    3    3    0    0  0.20047117236E+01 -0.14891573490E+02 -0.13103335785E+02  0.19936781054E+02  0.00000000000E+00 0. -1.
</event>
<event>
 7    1  0.1204848E-011  0.5930194E+02  0.7816164E-02  0.1266605E+00
        -11   -1    0    0    0    0  0.00000000000E+00  0.00000000000E+00  0.45593999997E+02  0.45594000000E+02  0.51100000000E-03 0. -1.
         11   -1    0    0    0    0 -0.00000000000E+00 -0.00000000000E+00 -0.45593999997E+02  0.45594000000E+02  0.51100000000E-03 0.  1.
    9900012    2    1    2    0    0 -0.61131028888E+01 -0.22801021885E+02 -0.21435118774E+02  0.59301938111E+02  0.49999989209E+02 0.  0.
         12    1    1    2    0    0  0.61131028888E+01  0.22801021885E+02  0.21435118774E+02  0.31886061889E+02  0.00000000000E+00 0. -1.
         11    1    3    3    0    0  0.77456126899E+01 -0.18092363952E+02  0.13182262341E+01  0.19724752722E+02  0.51100000000E-03 0. -1.
        -11    1    3    3    0    0 -0.56253871047E+00  0.11125327709E+02 -0.45615960701E+01  0.12037338801E+02  0.51100000000E-03 0.  1.
         12    1    3    3    0    0 -0.13296176868E+02 -0.15833985643E+02 -0.18191748938E+02  0.27539846588E+02  0.00000000000E+00 0. -1.
</event>
<event>
 7    1  0.1204848E-011  0.5930197E+02  0.7816164E-02  0.1266605E+00
        -11   -1    0    0    0    0  0.00000000000E+00  0.00000000000E+00  0.45593999997E+02  0.45594000000E+02  0.51100000000E-03 0. -1.
         11   -1    0    0    0    0 -0.00000000000E+00 -0.00000000000E+00 -0.45593999997E+02  0.45594000000E+02  0.51100000000E-03 0.  1.
    9900012    2    1    2    0    0  0.19152868878E+02 -0.20731047485E+02  0.14836120086E+02  0.59301965826E+02  0.50000039755E+02 0.  0.
         12    1    1    2    0    0 -0.19152868878E+02  0.20731047485E+02 -0.14836120086E+02  0.31886034174E+02  0.00000000000E+00 0. -1.
         11    1    3    3    0    0 -0.93080099873E+01 -0.49242171996E+01  0.58186876031E+01  0.12030963828E+02  0.51100000000E-03 0. -1.
        -11    1    3    3    0    0  0.18282558553E+02 -0.25819303051E+02  0.93501439008E+01  0.32989597580E+02  0.51100000000E-03 0.  1.
        -12    1    3    3    0    0  0.10178320313E+02  0.10012472765E+02 -0.33271141776E+00  0.14281404418E+02  0.00000000000E+00 0.  1.
</event>
<event>
 7    1  0.1204848E-011  0.5930182E+02  0.7816164E-02  0.1266605E+00
        -11   -1    0    0    0    0  0.00000000000E+00  0.00000000000E+00  0.45593999997E+02  0.45594000000E+02  0.51100000000E-03 0.  1.
         11   -1    0    0    0    0 -0.00000000000E+00 -0.00000000000E+00 -0.45593999997E+02  0.45594000000E+02  0.51100000000E-03 0. -1.
    9900012    2    1    2    0    0 -0.40708647314E+01  0.19517121114E+02  0.24884507213E+02  0.59301817170E+02  0.49999768641E+02 0.  0.
         12    1    1    2    0    0  0.40708647314E+01 -0.19517121114E+02 -0.24884507213E+02  0.31886182830E+02  0.00000000000E+00 0. -1.
         11    1    3    3    0    0 -0.14443781059E+02  0.86854885781E+01  0.10940685204E+02  0.20093758138E+02  0.51100000000E-03 0. -1.
        -11    1    3    3    0    0  0.81492354413E+01  0.38839543218E+01  0.24651023912E+02  0.26252011725E+02  0.51100000000E-03 0.  1.
         12    1    3    3    0    0  0.22236808860E+01  0.69476782137E+01 -0.10707201902E+02  0.12956047307E+02  0.00000000000E+00 0. -1.
</event>
<event>
 7    1  0.1204848E-011  0.5930195E+02  0.7816164E-02  0.1266605E+00
        -11   -1    0    0    0    0  0.00000000000E+00  0.00000000000E+00  0.45593999997E+02  0.45594000000E+02  0.51100000000E-03 0. -1.
         11   -1    0    0    0    0 -0.00000000000E+00 -0.00000000000E+00 -0.45593999997E+02  0.45594000000E+02  0.51100000000E-03 0.  1.
    9900012    2    1    2    0    0 -0.10426907819E+01 -0.15973574525E+02 -0.27576758335E+02  0.59301954660E+02  0.50000019391E+02 0.  0.
         12    1    1    2    0    0  0.10426907819E+01  0.15973574525E+02  0.27576758335E+02  0.31886045340E+02  0.00000000000E+00 0. -1.
         11    1    3    3    0    0  0.13961191658E+02 -0.64356739763E+01  0.21124408760E+01  0.15517576446E+02  0.51100000000E-03 0. -1.
        -11    1    3    3    0    0  0.71678148957E+00  0.83299433581E+01 -0.70301490924E+01  0.10923585884E+02  0.51100000000E-03 0.  1.
        -12    1    3    3    0    0 -0.15720663929E+02 -0.17867843907E+02 -0.22659050118E+02  0.32860792330E+02  0.00000000000E+00 0.  1.
</event>
<event>
 7    1  0.1204848E-011  0.5930190E+02  0.7816164E-02  0.1266605E+00
        -11   -1    0    0    0    0  0.00000000000E+00  0.00000000000E+00  0.45593999997E+02  0.45594000000E+02  0.51100000000E-03 0.  1.
         11   -1    0    0    0    0 -0.00000000000E+00 -0.00000000000E+00 -0.45593999997E+02  0.45594000000E+02  0.51100000000E-03 0. -1.
    9900012    2    1    2    0    0 -0.61215872327E+01 -0.20155764043E+02  0.23937312696E+02  0.59301896546E+02  0.49999913404E+02 0.  0.
         12    1    1    2    0    0  0.61215872327E+01  0.20155764043E+02 -0.23937312696E+02  0.31886103454E+02  0.00000000000E+00 0. -1.
         11    1    3    3    0    0 -0.20425365145E+02  0.34636951025E+01  0.16111652655E+02  0.26244581852E+02  0.51100000000E-03 0. -1.
        -11    1    3    3    0    0 -0.33319697800E+00 -0.10981264329E+01 -0.36667513558E+01  0.38421306140E+01  0.51100000000E-03 0.  1.
        -12    1    3    3    0    0  0.14636974890E+02 -0.22521332713E+02  0.11492411396E+02  0.29215184079E+02  0.00000000000E+00 0.  1.
</event>
<event>
 7    1  0.1204848E-011  0.5930190E+02  0.7816164E-02  0.1266605E+00
        -11   -1    0    0    0    0  0.00000000000E+00  0.00000000000E+00  0.45593999997E+02  0.45594000000E+02  0.51100000000E-03 0.  1.
         11   -1    0    0    0    0 -0.00000000000E+00 -0.00000000000E+00 -0.45593999997E+02  0.45594000000E+02  0.51100000000E-03 0. -1.
    9900012    2    1    2    0    0 -0.22075444986E+02 -0.15604681617E+02  0.16908343021E+02  0.59301899213E+02  0.49999918268E+02 0.  0.
         12    1    1    2    0    0  0.22075444986E+02  0.15604681617E+02 -0.16908343021E+02  0.31886100787E+02  0.00000000000E+00 0. -1.
         11    1    3    3    0    0 -0.19441295554E+02 -0.10096414799E+02  0.20775690713E+01  0.22004950764E+02  0.51100000000E-03 0. -1.
        -11    1    3    3    0    0 -0.11817264152E+02 -0.59258977662E+01  0.21981554669E+02  0.25650589512E+02  0.51100000000E-03 0.  1.
         12    1    3    3    0    0  0.91831147205E+01  0.41763094787E+00 -0.71507807195E+01  0.11646358936E+02  0.00000000000E+00 0. -1.
</event>
<event>
 7    1  0.1204848E-011  0.5930193E+02  0.7816164E-02  0.1266605E+00
        -11   -1    0    0    0    0  0.00000000000E+00  0.00000000000E+00  0.45593999997E+02  0.45594000000E+02  0.51100000000E-03 0.  1.
         11   -1    0    0    0    0 -0.00000000000E+00 -0.00000000000E+00 -0.45593999997E+02  0.45594000000E+02  0.51100000000E-03 0. -1.
    9900012    2    1    2    0    0 -0.44999838125E+01 -0.18938507627E+02  0.25254795332E+02  0.59301927606E+02  0.49999970050E+02 0.  0.
         12    1    1    2    0    0  0.44999838125E+01  0.18938507627E+02 -0.25254795332E+02  0.31886072394E+02  0.00000000000E+00 0. -1.
         11    1    3    3    0    0 -0.14579553883E+02  0.63769053344E-01 -0.40600363328E+00  0.14585345286E+02  0.51100000000E-03 0. -1.
        -11    1    3    3    0    0  0.75255186794E+01  0.54042809930E+01  0.15704783931E+02  0.18234032001E+02  0.51100000000E-03 0.  1.
        -12    1    3    3    0    0  0.25540513908E+01 -0.24406557673E+02  0.99560150350E+01  0.26482550318E+02  0.00000000000E+00 0.  1.
</event>
<event>
 7    1  0.1204848E-011  0.5930194E+02  0.7816164E-02  0.1266605E+00
        -11   -1    0    0    0    0  0.00000000000E+00  0.00000000000E+00  0.45593999997E+02  0.45594000000E+02  0.51100000000E-03 0.  1.
         11   -1    0    0    0    0 -0.00000000000E+00 -0.00000000000E+00 -0.45593999997E+02  0.45594000000E+02  0.51100000000E-03 0. -1.
    9900012    2    1    2    0    0 -0.15699613315E+02  0.14579544070E+02  0.23615240234E+02  0.59301944508E+02  0.50000000877E+02 0.  0.
         12    1    1    2    0    0  0.15699613315E+02 -0.14579544070E+02 -0.23615240234E+02  0.31886055492E+02  0.00000000000E+00 0. -1.
         11    1    3    3    0    0  0.53102639854E+01  0.83521267013E+01  0.94113643079E+00  0.99419646988E+01  0.51100000000E-03 0. -1.
        -11    1    3    3    0    0 -0.12704396169E+02 -0.12899555559E+02  0.22006202602E+02  0.28496897530E+02  0.51100000000E-03 0.  1.
         12    1    3    3    0    0 -0.83054811314E+01  0.19126972927E+02  0.66790120069E+00  0.20863082279E+02  0.00000000000E+00 0. -1.
</event>
<event>
 7    1  0.1204848E-011  0.5930195E+02  0.7816164E-02  0.1266605E+00
        -11   -1    0    0    0    0  0.00000000000E+00  0.00000000000E+00  0.45593999997E+02  0.45594000000E+02  0.51100000000E-03 0. -1.
         11   -1    0    0    0    0 -0.00000000000E+00 -0.00000000000E+00 -0.45593999997E+02  0.45594000000E+02  0.51100000000E-03 0.  1.
    9900012    2    1    2    0    0  0.11216052471E+02 -0.14118291171E+02 -0.26298180324E+02  0.59301948709E+02  0.50000008537E+02 0.  0.
         12    1    1    2    0    0 -0.11216052471E+02  0.14118291171E+02  0.26298180324E+02  0.31886051291E+02  0.00000000000E+00 0. -1.
         11    1    3    3    0    0  0.68361715373E+01  0.10307216246E+02 -0.94545605801E+01  0.15567937052E+02  0.51100000000E-03 0. -1.
        -11    1    3    3    0    0  0.14290679440E+02 -0.11507592644E+02  0.24249777328E+01  0.18507531564E+02  0.51100000000E-03 0.  1.
        -12    1    3    3    0    0 -0.99107985069E+01 -0.12917914773E+02 -0.19268597477E+02  0.25226480092E+02  0.00000000000E+00 0.  1.
</event>
<event>
 7    1  0.1204848E-011  0.5930195E+02  0.7816164E-02  0.1266605E+00
        -11   -1    0    0    0    0  0.00000000000E+00  0.00000000000E+00  0.45593999997E+02  0.45594000000E+02  0.51100000000E-03 0.  1.
         11   -1    0    0    0    0 -0.00000000000E+00 -0.00000000000E+00 -0.45593999997E+02  0.45594000000E+02  0.51100000000E-03 0. -1.
    9900012    2    1    2    0    0  0.44032091232E+01 -0.29480864918E+02 -0.11323019232E+02  0.59301946443E+02  0.50000004405E+02 0.  0.
         12    1    1    2    0    0 -0.44032091232E+01  0.29480864918E+02  0.11323019232E+02  0.31886053557E+02  0.00000000000E+00 0. -1.
         11    1    3    3    0    0 -0.14468304696E+02 -0.39726851131E+01 -0.38832260569E+00  0.15008826153E+02  0.51100000000E-03 0. -1.
        -11    1    3    3    0    0  0.34301677161E+01  0.58739590831E+01 -0.58073022198E+01  0.89439479652E+01  0.51100000000E-03 0.  1.
        -12    1    3    3    0    0  0.15441346103E+02 -0.31382138888E+02 -0.51273944065E+01  0.35349172325E+02  0.00000000000E+00 0.  1.
</event>
<event>
 7    1  0.1204848E-011  0.5930195E+02  0.7816164E-02  0.1266605E+00
        -11   -1    0    0    0    0  0.00000000000E+00  0.00000000000E+00  0.45593999997E+02  0.45594000000E+02  0.51100000000E-03 0.  1.
         11   -1    0    0    0    0 -0.00000000000E+00 -0.00000000000E+00 -0.45593999997E+02  0.45594000000E+02  0.51100000000E-03 0. -1.
    9900012    2    1    2    0    0 -0.19110762475E+02 -0.25505125997E+02 -0.99375169698E+00  0.59301949179E+02  0.50000009395E+02 0.  0.
         12    1    1    2    0    0  0.19110762475E+02  0.25505125997E+02  0.99375169698E+00  0.31886050821E+02  0.00000000000E+00 0. -1.
         11    1    3    3    0    0  0.88917125161E+01 -0.35369053745E+01 -0.15441678213E+02  0.18166388672E+02  0.51100000000E-03 0. -1.
        -11    1    3    3    0    0  0.12153511247E+01 -0.40399941289E+01  0.12149778739E+01  0.43903077811E+01  0.51100000000E-03 0.  1.
         12    1    3    3    0    0 -0.29217826116E+02 -0.17928226494E+02  0.13232948642E+02  0.36745252726E+02  0.00000000000E+00 0. -1.
</event>
<event>
 7    1  0.1249173E-011  0.5930197E+02  0.7816164E-02  0.1266605E+00
        -11   -1    0    0    0    0  0.00000000000E+00  0.00000000000E+00  0.45593999997E+02  0.45594000000E+02  0.51100000000E-03 0. -1.
         11   -1    0    0    0    0 -0.00000000000E+00 -0.00000000000E+00 -0.45593999997E+02  0.45594000000E+02  0.51100000000E-03 0.  1.
    9900012    2    1    2    0    0 -0.16658319598E+02  0.25580462947E+02 -0.92119100261E+01  0.59301968846E+02  0.50000045263E+02 0.  0.
         12    1    1    2    0    0  0.16658319598E+02 -0.25580462947E+02  0.92119100261E+01  0.31886031154E+02  0.00000000000E+00 0. -1.
         11    1    3    3    0    0 -0.10569304239E+02 -0.10339673996E+02  0.28448587859E+01  0.15056967564E+02  0.51100000000E-03 0. -1.
        -11    1    3    3    0    0  0.21080463250E+01  0.63662855285E+01 -0.11802137021E+02  0.13574383568E+02  0.51100000000E-03 0.  1.
        -12    1    3    3    0    0 -0.81970616838E+01  0.29553851414E+02 -0.25463179139E+00  0.30670617715E+02  0.00000000000E+00 0.  1.
</event>
<event>
 7    1  0.1204848E-011  0.5930198E+02  0.7816164E-02  0.1266605E+00
        -11   -1    0    0    0    0  0.00000000000E+00  0.00000000000E+00  0.45593999997E+02  0.45594000000E+02  0.51100000000E-03 0. -1.
         11   -1    0    0    0    0 -0.00000000000E+00 -0.00000000000E+00 -0.45593999997E+02  0.45594000000E+02  0.51100000000E-03 0.  1.
    9900012    2    1    2    0    0 -0.25693838002E+02 -0.59084346551E+01 -0.17934202902E+02  0.59301975709E+02  0.50000057779E+02 0.  0.
         12    1    1    2    0    0  0.25693838002E+02  0.59084346551E+01  0.17934202902E+02  0.31886024291E+02  0.00000000000E+00 0. -1.
         11    1    3    3    0    0 -0.11570559979E+02  0.12307758089E+01  0.15345651491E+02  0.19258288794E+02  0.51100000000E-03 0. -1.
        -11    1    3    3    0    0 -0.17068717197E+01  0.43397826999E+01 -0.11926784085E+02  0.12806065119E+02  0.51100000000E-03 0.  1.
        -12    1    3    3    0    0 -0.12416406304E+02 -0.11478993164E+02 -0.21353070308E+02  0.27237621796E+02  0.00000000000E+00 0.  1.
</event>
<event>
 7    1  0.1204848E-011  0.5930200E+02  0.7816164E-02  0.1266605E+00
        -11   -1    0    0    0    0  0.00000000000E+00  0.00000000000E+00  0.45593999997E+02  0.45594000000E+02  0.51100000000E-03 0. -1.
         11   -1    0    0    0    0 -0.00000000000E+00 -0.00000000000E+00 -0.45593999997E+02  0.45594000000E+02  0.51100000000E-03 0.  1.
    9900012    2    1    2    0    0 -0.21650309872E+02  0.22473986139E+02  0.65498971227E+01  0.59301998011E+02  0.50000098452E+02 0.  0.
         12    1    1    2    0    0  0.21650309872E+02 -0.22473986139E+02 -0.65498971227E+01  0.31886001989E+02  0.00000000000E+00 0. -1.
         11    1    3    3    0    0 -0.11802163557E+02 -0.16953210584E+01  0.13937073872E+02  0.18341406884E+02  0.51100000000E-03 0. -1.
        -11    1    3    3    0    0 -0.13271592853E+02  0.20634383600E+02  0.71976796862E+01  0.25567940013E+02  0.51100000000E-03 0.  1.
        -12    1    3    3    0    0  0.34234465388E+01  0.35349235980E+01 -0.14584856436E+02  0.15392651113E+02  0.00000000000E+00 0.  1.
</event>
<event>
 7    1  0.1204848E-011  0.5930192E+02  0.7816164E-02  0.1266605E+00
        -11   -1    0    0    0    0  0.00000000000E+00  0.00000000000E+00  0.45593999997E+02  0.45594000000E+02  0.51100000000E-03 0.  1.
         11   -1    0    0    0    0 -0.00000000000E+00 -0.00000000000E+00 -0.45593999997E+02  0.45594000000E+02  0.51100000000E-03 0. -1.
    9900012    2    1    2    0    0  0.21822279863E+01  0.15119181097E+02  0.27988753062E+02  0.59301920686E+02  0.49999957431E+02 0.  0.
         12    1    1    2    0    0 -0.21822279863E+01 -0.15119181097E+02 -0.27988753062E+02  0.31886079314E+02  0.00000000000E+00 0. -1.
         11    1    3    3    0    0 -0.44940226094E+01 -0.36855310545E+01  0.15582633596E+02  0.16631231116E+02  0.51100000000E-03 0. -1.
        -11    1    3    3    0    0  0.21839971078E+00  0.20191000142E+02  0.22737028597E+02  0.30408825279E+02  0.51100000000E-03 0.  1.
        -12    1    3    3    0    0  0.64578508849E+01 -0.13862879913E+01 -0.10330909130E+02  0.12261864292E+02  0.00000000000E+00 0.  1.
</event>
<event>
 7    1  0.1204848E-011  0.5930202E+02  0.7816164E-02  0.1266604E+00
        -11   -1    0    0    0    0  0.00000000000E+00  0.00000000000E+00  0.45593999997E+02  0.45594000000E+02  0.51100000000E-03 0.  1.
         11   -1    0    0    0    0 -0.00000000000E+00 -0.00000000000E+00 -0.45593999997E+02  0.45594000000E+02  0.51100000000E-03 0. -1.
    9900012    2    1    2    0    0 -0.83563533201E+00 -0.30644311821E+02  0.87717441233E+01  0.59302021446E+02  0.50000141192E+02 0.  0.
         12    1    1    2    0    0  0.83563533201E+00  0.30644311821E+02 -0.87717441233E+01  0.31885978554E+02  0.00000000000E+00 0. -1.
         11    1    3    3    0    0 -0.19126702034E+01  0.50138618288E+01 -0.78018491708E+01  0.94692116087E+01  0.51100000000E-03 0. -1.
        -11    1    3    3    0    0 -0.49615633913E+01 -0.10965879786E+01 -0.61911407871E+01  0.80093595866E+01  0.51100000000E-03 0.  1.
        -12    1    3    3    0    0  0.60385982627E+01 -0.34561585671E+02  0.22764734081E+02  0.41823450251E+02  0.00000000000E+00 0.  1.
</event>
<event>
 7    1  0.1204848E-011  0.5930194E+02  0.7816164E-02  0.1266605E+00
        -11   -1    0    0    0    0  0.00000000000E+00  0.00000000000E+00  0.45593999997E+02  0.45594000000E+02  0.51100000000E-03 0. -1.
         11   -1    0    0    0    0 -0.00000000000E+00 -0.00000000000E+00 -0.45593999997E+02  0.45594000000E+02  0.51100000000E-03 0.  1.
    9900012    2    1    2    0    0  0.15306010617E+02 -0.12492095376E+02 -0.25027871996E+02  0.59301940592E+02  0.49999993734E+02 0.  0.
         12    1    1    2    0    0 -0.15306010617E+02  0.12492095376E+02  0.25027871996E+02  0.31886059408E+02  0.00000000000E+00 0. -1.
         11    1    3    3    0    0 -0.99499012700E+00  0.90242392942E+00 -0.10357305648E+01  0.16962052839E+01  0.51100000000E-03 0. -1.
        -11    1    3    3    0    0 -0.33462141323E+01 -0.20374724071E+01 -0.32969207038E+02  0.33201160459E+02  0.51100000000E-03 0.  1.
         12    1    3    3    0    0  0.19647214877E+02 -0.11357046899E+02  0.89770656068E+01  0.24404574849E+02  0.00000000000E+00 0. -1.
</event>
<event>
 7    1  0.1204848E-011  0.5930193E+02  0.7816164E-02  0.1266605E+00
        -11   -1    0    0    0    0  0.00000000000E+00  0.00000000000E+00  0.45593999997E+02  0.45594000000E+02  0.51100000000E-03 0. -1.
         11   -1    0    0    0    0 -0.00000000000E+00 -0.00000000000E+00 -0.45593999997E+02  0.45594000000E+02  0.51100000000E-03 0.  1.
    9900012    2    1    2    0    0  0.16595516713E+02  0.12774349045E+02 -0.24044259840E+02  0.59301927810E+02  0.49999970422E+02 0.  0.
         12    1    1    2    0    0 -0.16595516713E+02 -0.12774349045E+02  0.24044259840E+02  0.31886072190E+02  0.00000000000E+00 0. -1.
         11    1    3    3    0    0 -0.38021695650E+01  0.25400066602E+01  0.79776190376E+00  0.46416108789E+01  0.51100000000E-03 0. -1.
        -11    1    3    3    0    0  0.15972388161E+02  0.86274654808E+01  0.91601980075E+01  0.20333705318E+02  0.51100000000E-03 0.  1.
        -12    1    3    3    0    0  0.44252981173E+01  0.16068769036E+01 -0.34002219751E+02  0.34326611612E+02  0.00000000000E+00 0.  1.
</event>
<event>
 7    1  0.1204848E-011  0.5930196E+02  0.7816164E-02  0.1266605E+00
        -11   -1    0    0    0    0  0.00000000000E+00  0.00000000000E+00  0.45593999997E+02  0.45594000000E+02  0.51100000000E-03 0. -1.
         11   -1    0    0    0    0 -0.00000000000E+00 -0.00000000000E+00 -0.45593999997E+02  0.45594000000E+02  0.51100000000E-03 0.  1.
    9900012    2    1    2    0    0  0.71033914653E+01  0.30715220017E+02  0.47787466142E+01  0.59301963398E+02  0.50000035326E+02 0.  0.
         12    1    1    2    0    0 -0.71033914653E+01 -0.30715220017E+02 -0.47787466142E+01  0.31886036602E+02  0.00000000000E+00 0. -1.
         11    1    3    3    0    0 -0.72802797496E+01  0.24303657554E+02  0.12249102440E+02  0.28172872672E+02  0.51100000000E-03 0. -1.
        -11    1    3    3    0    0  0.69173329849E+01  0.14354167958E+02 -0.11344793531E+02  0.19560060683E+02  0.51100000000E-03 0.  1.
        -12    1    3    3    0    0  0.74663382299E+01 -0.79426054949E+01  0.38744377047E+01  0.11569030043E+02  0.00000000000E+00 0.  1.
</event>
<event>
 7    1  0.1204848E-011  0.5930187E+02  0.7816164E-02  0.1266605E+00
        -11   -1    0    0    0    0  0.00000000000E+00  0.00000000000E+00  0.45593999997E+02  0.45594000000E+02  0.51100000000E-03 0. -1.
         11   -1    0    0    0    0 -0.00000000000E+00 -0.00000000000E+00 -0.45593999997E+02  0.45594000000E+02  0.51100000000E-03 0.  1.
    9900012    2    1    2    0    0 -0.15566550297E+02  0.11705325491E+02 -0.25246642109E+02  0.59301873381E+02  0.49999871156E+02 0.  0.
         12    1    1    2    0    0  0.15566550297E+02 -0.11705325491E+02  0.25246642109E+02  0.31886126619E+02  0.00000000000E+00 0. -1.
         11    1    3    3    0    0 -0.12527324281E+02  0.83088617836E+01 -0.26989347779E+01  0.15272697436E+02  0.51100000000E-03 0. -1.
        -11    1    3    3    0    0 -0.17312688468E+02 -0.69371279201E+01 -0.53416570003E+01  0.19400675904E+02  0.51100000000E-03 0.  1.
        -12    1    3    3    0    0  0.14273462451E+02  0.10333591627E+02 -0.17206050331E+02  0.24628500041E+02  0.00000000000E+00 0.  1.
</event>
<event>
 7    1  0.1204848E-011  0.5930191E+02  0.7816164E-02  0.1266605E+00
        -11   -1    0    0    0    0  0.00000000000E+00  0.00000000000E+00  0.45593999997E+02  0.45594000000E+02  0.51100000000E-03 0.  1.
         11   -1    0    0    0    0 -0.00000000000E+00 -0.00000000000E+00 -0.45593999997E+02  0.45594000000E+02  0.51100000000E-03 0. -1.
    9900012    2    1    2    0    0  0.11402447985E+02  0.19787278428E+02  0.22252427308E+02  0.59301910106E+02  0.49999938135E+02 0.  0.
         12    1    1    2    0    0 -0.11402447985E+02 -0.19787278428E+02 -0.22252427308E+02  0.31886089894E+02  0.00000000000E+00 0. -1.
         11    1    3    3    0    0 -0.14592572593E+01 -0.11995734808E+02  0.12528410614E+01  0.12148938073E+02  0.51100000000E-03 0. -1.
        -11    1    3    3    0    0  0.11578468707E+02  0.16203470405E+01  0.32617279238E+01  0.12137764681E+02  0.51100000000E-03 0.  1.
        -12    1    3    3    0    0  0.12832365365E+01  0.30162666195E+02  0.17737858323E+02  0.35015207352E+02  0.00000000000E+00 0.  1.
</event>
<event>
 7    1  0.1204848E-011  0.5930195E+02  0.7816164E-02  0.1266605E+00
        -11   -1    0    0    0    0  0.00000000000E+00  0.00000000000E+00  0.45593999997E+02  0.45594000000E+02  0.51100000000E-03 0. -1.
         11   -1    0    0    0    0 -0.00000000000E+00 -0.00000000000E+00 -0.45593999997E+02  0.45594000000E+02  0.51100000000E-03 0.  1.
    9900012    2    1    2    0    0 -0.17274238209E+02  0.26785876214E+02 -0.91539156447E+00  0.59301946435E+02  0.50000004390E+02 0.  0.
         12    1    1    2    0    0  0.17274238209E+02 -0.26785876214E+02  0.91539156447E+00  0.31886053565E+02  0.00000000000E+00 0. -1.
         11    1    3    3    0    0  0.10132222014E+02  0.62875509878E+01  0.20103535050E+01  0.12092838453E+02  0.51100000000E-03 0. -1.
        -11    1    3    3    0    0  0.40397426257E+01  0.50258894621E+01  0.82067443273E+01  0.10436941031E+02  0.51100000000E-03 0.  1.
        -12    1    3    3    0    0 -0.31446202849E+02  0.15472435764E+02 -0.11132489397E+02  0.36772166951E+02  0.00000000000E+00 0.  1.
</event>
<event>
 7    1  0.1204848E-011  0.5930200E+02  0.7816164E-02  0.1266605E+00
        -11   -1    0    0    0    0  0.00000000000E+00  0.00000000000E+00  0.45593999997E+02  0.45594000000E+02  0.51100000000E-03 0.  1.
         11   -1    0    0    0    0 -0.00000000000E+00 -0.00000000000E+00 -0.45593999997E+02  0.45594000000E+02  0.51100000000E-03 0. -1.
    9900012    2    1    2    0    0 -0.56618925407E+01  0.20338544787E+02  0.23895676245E+02  0.59302003475E+02  0.50000108417E+02 0.  0.
         12    1    1    2    0    0  0.56618925407E+01 -0.20338544787E+02 -0.23895676245E+02  0.31885996525E+02  0.00000000000E+00 0. -1.
         11    1    3    3    0    0 -0.30827710391E+01  0.14885509337E+02  0.28431574840E+02  0.32240290223E+02  0.51100000000E-03 0. -1.
        -11    1    3    3    0    0  0.10936374070E+01  0.38995533454E+01  0.10632579153E+02  0.11377798503E+02  0.51100000000E-03 0.  1.
         12    1    3    3    0    0 -0.36727589086E+01  0.15534821040E+01 -0.15168477748E+02  0.15683914748E+02  0.00000000000E+00 0. -1.
</event>
<event>
 7    1  0.1204848E-011  0.5930193E+02  0.7816164E-02  0.1266605E+00
        -11   -1    0    0    0    0  0.00000000000E+00  0.00000000000E+00  0.45593999997E+02  0.45594000000E+02  0.51100000000E-03 0.  1.
         11   -1    0    0    0    0 -0.00000000000E+00 -0.00000000000E+00 -0.45593999997E+02  0.45594000000E+02  0.51100000000E-03 0. -1.
    9900012    2    1    2    0    0 -0.88313483558E+01 -0.15366242641E+02  0.26506745105E+02  0.59301926822E+02  0.49999968621E+02 0.  0.
         12    1    1    2    0    0  0.88313483558E+01  0.15366242641E+02 -0.26506745105E+02  0.31886073178E+02  0.00000000000E+00 0. -1.
         11    1    3    3    0    0 -0.18812240861E+02 -0.48357095224E+01  0.91747110925E+01  0.21481615784E+02  0.51100000000E-03 0. -1.
        -11    1    3    3    0    0 -0.93936837351E+01 -0.32676692293E+01 -0.12322186771E+01  0.10021842118E+02  0.51100000000E-03 0.  1.
         12    1    3    3    0    0  0.19374576240E+02 -0.72628638895E+01  0.18564252689E+02  0.27798468920E+02  0.00000000000E+00 0. -1.
</event>
<event>
 7    1  0.1204848E-011  0.5930195E+02  0.7816164E-02  0.1266605E+00
        -11   -1    0    0    0    0  0.00000000000E+00  0.00000000000E+00  0.45593999997E+02  0.45594000000E+02  0.51100000000E-03 0. -1.
         11   -1    0    0    0    0 -0.00000000000E+00 -0.00000000000E+00 -0.45593999997E+02  0.45594000000E+02  0.51100000000E-03 0.  1.
    9900012    2    1    2    0    0  0.11796153842E+02  0.69429327211E+01 -0.28798725717E+02  0.59301950336E+02  0.50000011505E+02 0.  0.
         12    1    1    2    0    0 -0.11796153842E+02 -0.69429327211E+01  0.28798725717E+02  0.31886049664E+02  0.00000000000E+00 0. -1.
         11    1    3    3    0    0 -0.49740340861E+00  0.30342036334E+01  0.80857095315E+01  0.86505780575E+01  0.51100000000E-03 0. -1.
        -11    1    3    3    0    0 -0.21641558376E+01  0.15301344836E+02 -0.11349368741E+02  0.19173494604E+02  0.51100000000E-03 0.  1.
         12    1    3    3    0    0  0.14457713088E+02 -0.11392615748E+02 -0.25535066508E+02  0.31477877674E+02  0.00000000000E+00 0. -1.
</event>
<event>
 7    1  0.1204848E-011  0.5930192E+02  0.7816164E-02  0.1266605E+00
        -11   -1    0    0    0    0  0.00000000000E+00  0.00000000000E+00  0.45593999997E+02  0.45594000000E+02  0.51100000000E-03 0.  1.
         11   -1    0    0    0    0 -0.00000000000E+00 -0.00000000000E+00 -0.45593999997E+02  0.45594000000E+02  0.51100000000E-03 0. -1.
    9900012    2    1    2    0    0  0.22696868829E+02  0.19231842356E+00  0.22395026147E+02  0.59301920951E+02  0.49999957913E+02 0.  0.
         12    1    1    2    0    0 -0.22696868829E+02 -0.19231842356E+00 -0.22395026147E+02  0.31886079049E+02  0.00000000000E+00 0. -1.
         11    1    3    3    0    0  0.13267971555E+02 -0.17819373184E+02  0.17159468472E+00  0.22217078450E+02  0.51100000000E-03 0. -1.
        -11    1    3    3    0    0  0.45998810498E+01 -0.46181091094E+01  0.55996958557E+01  0.85931618952E+01  0.51100000000E-03 0.  1.
        -12    1    3    3    0    0  0.48290162245E+01  0.22629800717E+02  0.16623735606E+02  0.28491680605E+02  0.00000000000E+00 0.  1.
</event>
<event>
 7    1  0.1204848E-011  0.5930198E+02  0.7816164E-02  0.1266605E+00
        -11   -1    0    0    0    0  0.00000000000E+00  0.00000000000E+00  0.45593999997E+02  0.45594000000E+02  0.51100000000E-03 0.  1.
         11   -1    0    0    0    0 -0.00000000000E+00 -0.00000000000E+00 -0.45593999997E+02  0.45594000000E+02  0.51100000000E-03 0. -1.
    9900012    2    1    2    0    0  0.17157925062E+02 -0.19915669084E+02  0.18046885392E+02  0.59301978927E+02  0.50000063649E+02 0.  0.
         12    1    1    2    0    0 -0.17157925062E+02  0.19915669084E+02 -0.18046885392E+02  0.31886021073E+02  0.00000000000E+00 0. -1.
         11    1    3    3    0    0  0.24684615577E+01 -0.14196136093E+02 -0.10140844081E+02  0.17619883693E+02  0.51100000000E-03 0. -1.
        -11    1    3    3    0    0 -0.69602518198E+01 -0.57894802964E+01  0.85630532634E+01  0.12461503479E+02  0.51100000000E-03 0.  1.
         12    1    3    3    0    0  0.21649715324E+02  0.69947305447E-01  0.19624676209E+02  0.29220591756E+02  0.00000000000E+00 0. -1.
</event>
<event>
 7    1  0.1204848E-011  0.5930188E+02  0.7816164E-02  0.1266605E+00
        -11   -1    0    0    0    0  0.00000000000E+00  0.00000000000E+00  0.45593999997E+02  0.45594000000E+02  0.51100000000E-03 0. -1.
         11   -1    0    0    0    0 -0.00000000000E+00 -0.00000000000E+00 -0.45593999997E+02  0.45594000000E+02  0.51100000000E-03 0.  1.
    9900012    2    1    2    0    0 -0.64442594459E+01 -0.28609365546E+02 -0.12518004252E+02  0.59301879082E+02  0.49999881554E+02 0.  0.
         12    1    1    2    0    0  0.64442594459E+01  0.28609365546E+02  0.12518004252E+02  0.31886120918E+02  0.00000000000E+00 0. -1.
         11    1    3    3    0    0 -0.32005752073E+01 -0.14409247275E+02 -0.14362463251E+02  0.20594912954E+02  0.51100000000E-03 0. -1.
        -11    1    3    3    0    0  0.77899635225E+01 -0.15358185328E+01 -0.13691400738E+02  0.15827088320E+02  0.51100000000E-03 0.  1.
         12    1    3    3    0    0 -0.11033647761E+02 -0.12664299738E+02  0.15535859736E+02  0.22879877808E+02  0.00000000000E+00 0. -1.
</event>
<event>
 7    1  0.1204848E-011  0.5930195E+02  0.7816164E-02  0.1266605E+00
        -11   -1    0    0    0    0  0.00000000000E+00  0.00000000000E+00  0.45593999997E+02  0.45594000000E+02  0.51100000000E-03 0. -1.
         11   -1    0    0    0    0 -0.00000000000E+00 -0.00000000000E+00 -0.45593999997E+02  0.45594000000E+02  0.51100000000E-03 0.  1.
    9900012    2    1    2    0    0 -0.47526007726E+01 -0.89144735266E+01 -0.30243429692E+02  0.59301951454E+02  0.50000013543E+02 0.  0.
         12    1    1    2    0    0  0.47526007726E+01  0.89144735266E+01  0.30243429692E+02  0.31886048546E+02  0.00000000000E+00 0. -1.
         11    1    3    3    0    0 -0.20568427282E+01  0.18994034845E+01  0.73944554666E+01  0.79067254609E+01  0.51100000000E-03 0. -1.
        -11    1    3    3    0    0 -0.90522019204E+01  0.77050804939E+01 -0.41265240393E+01  0.12583275644E+02  0.51100000000E-03 0.  1.
        -12    1    3    3    0    0  0.63564438761E+01 -0.18518957505E+02 -0.33511361119E+02  0.38811950349E+02  0.00000000000E+00 0.  1.
</event>
<event>
 7    1  0.1204848E-011  0.5930197E+02  0.7816164E-02  0.1266605E+00
        -11   -1    0    0    0    0  0.00000000000E+00  0.00000000000E+00  0.45593999997E+02  0.45594000000E+02  0.51100000000E-03 0. -1.
         11   -1    0    0    0    0 -0.00000000000E+00 -0.00000000000E+00 -0.45593999997E+02  0.45594000000E+02  0.51100000000E-03 0.  1.
    9900012    2    1    2    0    0  0.27496523733E+02  0.84846906154E+01 -0.13735731158E+02  0.59301966965E+02  0.50000041833E+02 0.  0.
         12    1    1    2    0    0 -0.27496523733E+02 -0.84846906154E+01  0.13735731158E+02  0.31886033035E+02  0.00000000000E+00 0. -1.
         11    1    3    3    0    0  0.17496950789E+02 -0.23192553094E+01 -0.44208451694E+01  0.18195222020E+02  0.51100000000E-03 0. -1.
        -11    1    3    3    0    0  0.15796649043E+02  0.75022361588E+00  0.99010880375E+01  0.18658201978E+02  0.51100000000E-03 0.  1.
         12    1    3    3    0    0 -0.57970760992E+01  0.10053722309E+02 -0.19215974026E+02  0.22448542967E+02  0.00000000000E+00 0. -1.
</event>
<event>
 7    1  0.1204848E-011  0.5930195E+02  0.7816164E-02  0.1266605E+00
        -11   -1    0    0    0    0  0.00000000000E+00  0.00000000000E+00  0.45593999997E+02  0.45594000000E+02  0.51100000000E-03 0. -1.
         11   -1    0    0    0    0 -0.00000000000E+00 -0.00000000000E+00 -0.45593999997E+02  0.45594000000E+02  0.51100000000E-03 0.  1.
    9900012    2    1    2    0    0 -0.37740523857E+01  0.17739280529E+02 -0.26225837793E+02  0.59301951122E+02  0.50000012938E+02 0.  0.
         12    1    1    2    0    0  0.37740523857E+01 -0.17739280529E+02  0.26225837793E+02  0.31886048878E+02  0.00000000000E+00 0. -1.
         11    1    3    3    0    0  0.23464275031E+01 -0.14816499892E+02 -0.83575320072E+01  0.17172149912E+02  0.51100000000E-03 0.  1.
        -11    1    3    3    0    0  0.51583851666E+01  0.13788712127E+02 -0.13132022109E+02  0.19727836287E+02  0.51100000000E-03 0. -1.
        -12    1    3    3    0    0 -0.11278865055E+02  0.18767068295E+02 -0.47362836768E+01  0.22401964922E+02  0.00000000000E+00 0.  1.
</event>
<event>
 7    1  0.1204848E-011  0.5930200E+02  0.7816164E-02  0.1266605E+00
        -11   -1    0    0    0    0  0.00000000000E+00  0.00000000000E+00  0.45593999997E+02  0.45594000000E+02  0.51100000000E-03 0.  1.
         11   -1    0    0    0    0 -0.00000000000E+00 -0.00000000000E+00 -0.45593999997E+02  0.45594000000E+02  0.51100000000E-03 0. -1.
    9900012    2    1    2    0    0  0.10595477844E+02 -0.20631771439E+02  0.21881102649E+02  0.59302003126E+02  0.50000107782E+02 0.  0.
         12    1    1    2    0    0 -0.10595477844E+02  0.20631771439E+02 -0.21881102649E+02  0.31885996874E+02  0.00000000000E+00 0. -1.
         11    1    3    3    0    0  0.85434213690E+01 -0.90107431790E+01  0.12606965166E+02  0.17695172005E+02  0.51100000000E-03 0. -1.
        -11    1    3    3    0    0  0.11805762170E+02 -0.12839754548E+02 -0.99028235085E+01  0.20057448267E+02  0.51100000000E-03 0.  1.
         12    1    3    3    0    0 -0.97537056945E+01  0.12187262878E+01  0.19176960992E+02  0.21549382855E+02  0.00000000000E+00 0. -1.
</event>
<event>
 7    1  0.1204848E-011  0.5930194E+02  0.7816164E-02  0.1266605E+00
        -11   -1    0    0    0    0  0.00000000000E+00  0.00000000000E+00  0.45593999997E+02  0.45594000000E+02  0.51100000000E-03 0.  1.
         11   -1    0    0    0    0 -0.00000000000E+00 -0.00000000000E+00 -0.45593999997E+02  0.45594000000E+02  0.51100000000E-03 0. -1.
    9900012    2    1    2    0    0 -0.15964742826E+02 -0.41636854928E+01  0.27285736239E+02  0.59301942036E+02  0.49999996368E+02 0.  0.
         12    1    1    2    0    0  0.15964742826E+02  0.41636854928E+01 -0.27285736239E+02  0.31886057964E+02  0.00000000000E+00 0. -1.
         11    1    3    3    0    0 -0.14249108471E+02 -0.89653352290E+01  0.11525061955E+02  0.20401994543E+02  0.51100000000E-03 0. -1.
        -11    1    3    3    0    0 -0.17352130689E+02 -0.35184255729E+01  0.96431873473E+01  0.20161022306E+02  0.51100000000E-03 0.  1.
         12    1    3    3    0    0  0.15636496334E+02  0.83200753092E+01  0.61174869362E+01  0.18738925187E+02  0.00000000000E+00 0. -1.
</event>
<event>
 7    1  0.1204848E-011  0.5930198E+02  0.7816164E-02  0.1266605E+00
        -11   -1    0    0    0    0  0.00000000000E+00  0.00000000000E+00  0.45593999997E+02  0.45594000000E+02  0.51100000000E-03 0.  1.
         11   -1    0    0    0    0 -0.00000000000E+00 -0.00000000000E+00 -0.45593999997E+02  0.45594000000E+02  0.51100000000E-03 0. -1.
    9900012    2    1    2    0    0 -0.24696415162E+02  0.18002158410E+02  0.90954791634E+01  0.59301978446E+02  0.50000062771E+02 0.  0.
         12    1    1    2    0    0  0.24696415162E+02 -0.18002158410E+02 -0.90954791634E+01  0.31886021554E+02  0.00000000000E+00 0. -1.
         11    1    3    3    0    0  0.18924548355E+01 -0.67319058296E+01 -0.30628733557E+01  0.76342082011E+01  0.51100000000E-03 0. -1.
        -11    1    3    3    0    0  0.62980454689E+01 -0.31639645757E+01  0.97390335693E+00  0.71150921690E+01  0.51100000000E-03 0.  1.
        -12    1    3    3    0    0 -0.32886915467E+02  0.27898028816E+02  0.11184449162E+02  0.44552678076E+02  0.00000000000E+00 0.  1.
</event>
<event>
 7    1  0.1204848E-011  0.5930193E+02  0.7816164E-02  0.1266605E+00
        -11   -1    0    0    0    0  0.00000000000E+00  0.00000000000E+00  0.45593999997E+02  0.45594000000E+02  0.51100000000E-03 0.  1.
         11   -1    0    0    0    0 -0.00000000000E+00 -0.00000000000E+00 -0.45593999997E+02  0.45594000000E+02  0.51100000000E-03 0. -1.
    9900012    2    1    2    0    0  0.10019377565E+02  0.29815127954E+02  0.52336838769E+01  0.59301933629E+02  0.49999981035E+02 0.  0.
         12    1    1    2    0    0 -0.10019377565E+02 -0.29815127954E+02 -0.52336838769E+01  0.31886066371E+02  0.00000000000E+00 0. -1.
         11    1    3    3    0    0  0.27370917449E+01  0.14024378278E+01 -0.13261947878E+01  0.33492231871E+01  0.51100000000E-03 0. -1.
        -11    1    3    3    0    0  0.27131332279E+02  0.13477570227E+02  0.13428338942E+00  0.30294754047E+02  0.51100000000E-03 0.  1.
         12    1    3    3    0    0 -0.19849046459E+02  0.14935119900E+02  0.64255952753E+01  0.25657956395E+02  0.00000000000E+00 0. -1.
</event>
<event>
 7    1  0.1204848E-011  0.5930193E+02  0.7816164E-02  0.1266605E+00
        -11   -1    0    0    0    0  0.00000000000E+00  0.00000000000E+00  0.45593999997E+02  0.45594000000E+02  0.51100000000E-03 0. -1.
         11   -1    0    0    0    0 -0.00000000000E+00 -0.00000000000E+00 -0.45593999997E+02  0.45594000000E+02  0.51100000000E-03 0.  1.
    9900012    2    1    2    0    0 -0.14924596685E+02 -0.28175671551E+02  0.33065571418E+00  0.59301931149E+02  0.49999976512E+02 0.  0.
         12    1    1    2    0    0  0.14924596685E+02  0.28175671551E+02 -0.33065571418E+00  0.31886068851E+02  0.00000000000E+00 0. -1.
         11    1    3    3    0    0 -0.16281559825E+01 -0.89634793178E+01  0.53030007700E+01  0.10541189250E+02  0.51100000000E-03 0. -1.
        -11    1    3    3    0    0  0.52833006545E+01 -0.19626015624E+02 -0.17106741258E+02  0.26565661140E+02  0.51100000000E-03 0.  1.
         12    1    3    3    0    0 -0.18579741357E+02  0.41382339026E+00  0.12134396203E+02  0.22195080759E+02  0.00000000000E+00 0. -1.
</event>
<event>
 7    1  0.1204848E-011  0.5930194E+02  0.7816164E-02  0.1266605E+00
        -11   -1    0    0    0    0  0.00000000000E+00  0.00000000000E+00  0.45593999997E+02  0.45594000000E+02  0.51100000000E-03 0.  1.
         11   -1    0    0    0    0 -0.00000000000E+00 -0.00000000000E+00 -0.45593999997E+02  0.45594000000E+02  0.51100000000E-03 0. -1.
    9900012    2    1    2    0    0 -0.27678950377E+02 -0.15539748311E+02  0.30187062364E+01  0.59301942563E+02  0.49999997329E+02 0.  0.
         12    1    1    2    0    0  0.27678950377E+02  0.15539748311E+02 -0.30187062364E+01  0.31886057437E+02  0.00000000000E+00 0. -1.
         11    1    3    3    0    0  0.14583295482E+01 -0.10821996779E+02  0.11220809080E+02  0.15657231429E+02  0.51100000000E-03 0. -1.
        -11    1    3    3    0    0  0.58697446134E+00 -0.11325810865E+02  0.20307059486E+01  0.11521384365E+02  0.51100000000E-03 0.  1.
        -12    1    3    3    0    0 -0.29724254386E+02  0.66080593333E+01 -0.10232808792E+02  0.32123326770E+02  0.00000000000E+00 0.  1.
</event>
<event>
 7    1  0.1204848E-011  0.5930194E+02  0.7816164E-02  0.1266605E+00
        -11   -1    0    0    0    0  0.00000000000E+00  0.00000000000E+00  0.45593999997E+02  0.45594000000E+02  0.51100000000E-03 0. -1.
         11   -1    0    0    0    0 -0.00000000000E+00 -0.00000000000E+00 -0.45593999997E+02  0.45594000000E+02  0.51100000000E-03 0.  1.
    9900012    2    1    2    0    0 -0.21186803772E+02  0.22717311595E+02 -0.71947243791E+01  0.59301937856E+02  0.49999988745E+02 0.  0.
         12    1    1    2    0    0  0.21186803772E+02 -0.22717311595E+02  0.71947243791E+01  0.31886062144E+02  0.00000000000E+00 0. -1.
         11    1    3    3    0    0 -0.10359518814E+02 -0.40412601333E+01 -0.56805055191E+01  0.12486775274E+02  0.51100000000E-03 0. -1.
        -11    1    3    3    0    0  0.12104903345E+02  0.91839310884E+00 -0.17544106744E+01  0.12265809715E+02  0.51100000000E-03 0.  1.
         12    1    3    3    0    0 -0.22932188302E+02  0.25840178619E+02  0.24019181440E+00  0.34549352867E+02  0.00000000000E+00 0. -1.
</event>
<event>
 7    1  0.1204848E-011  0.5930199E+02  0.7816164E-02  0.1266605E+00
        -11   -1    0    0    0    0  0.00000000000E+00  0.00000000000E+00  0.45593999997E+02  0.45594000000E+02  0.51100000000E-03 0.  1.
         11   -1    0    0    0    0 -0.00000000000E+00 -0.00000000000E+00 -0.45593999997E+02  0.45594000000E+02  0.51100000000E-03 0. -1.
    9900012    2    1    2    0    0  0.25979552047E+02 -0.11758925467E+02  0.14265633546E+02  0.59301988127E+02  0.50000080426E+02 0.  0.
         12    1    1    2    0    0 -0.25979552047E+02  0.11758925467E+02 -0.14265633546E+02  0.31886011873E+02  0.00000000000E+00 0. -1.
         11    1    3    3    0    0 -0.37043036526E+01 -0.26255096263E+01  0.13556125301E+01  0.47384440423E+01  0.51100000000E-03 0.  1.
        -11    1    3    3    0    0  0.24847839542E+02 -0.25450185337E+02  0.11933772127E+02  0.37517222459E+02  0.51100000000E-03 0. -1.
         12    1    3    3    0    0  0.48360161579E+01  0.16316769496E+02  0.97624888851E+00  0.17046321625E+02  0.00000000000E+00 0. -1.
</event>
<event>
 7    1  0.1204848E-011  0.5930197E+02  0.7816164E-02  0.1266605E+00
        -11   -1    0    0    0    0  0.00000000000E+00  0.00000000000E+00  0.45593999997E+02  0.45594000000E+02  0.51100000000E-03 0.  1.
         11   -1    0    0    0    0 -0.00000000000E+00 -0.00000000000E+00 -0.45593999997E+02  0.45594000000E+02  0.51100000000E-03 0. -1.
    9900012    2    1    2    0    0 -0.38840285118E+01  0.77096214598E+00  0.31639198545E+02  0.59301969443E+02  0.50000046351E+02 0.  0.
         12    1    1    2    0    0  0.38840285118E+01 -0.77096214598E+00 -0.31639198545E+02  0.31886030557E+02  0.00000000000E+00 0. -1.
         11    1    3    3    0    0 -0.21527488926E+02  0.76647672772E+01  0.19468363896E+02  0.30019970519E+02  0.51100000000E-03 0. -1.
        -11    1    3    3    0    0  0.19780924284E+01 -0.12076635308E+00 -0.48126391958E+01  0.52047027251E+01  0.51100000000E-03 0.  1.
        -12    1    3    3    0    0  0.15665367986E+02 -0.67730387782E+01  0.16983473845E+02  0.24077296199E+02  0.00000000000E+00 0.  1.
</event>
<event>
 7    1  0.1204848E-011  0.5930194E+02  0.7816164E-02  0.1266605E+00
        -11   -1    0    0    0    0  0.00000000000E+00  0.00000000000E+00  0.45593999997E+02  0.45594000000E+02  0.51100000000E-03 0. -1.
         11   -1    0    0    0    0 -0.00000000000E+00 -0.00000000000E+00 -0.45593999997E+02  0.45594000000E+02  0.51100000000E-03 0.  1.
    9900012    2    1    2    0    0  0.12555324831E+02 -0.16508017582E+02 -0.24219210776E+02  0.59301937266E+02  0.49999987668E+02 0.  0.
         12    1    1    2    0    0 -0.12555324831E+02  0.16508017582E+02  0.24219210776E+02  0.31886062734E+02  0.00000000000E+00 0. -1.
         11    1    3    3    0    0  0.20583414590E+02 -0.12336518605E+02 -0.34325004411E+01  0.24241466684E+02  0.51100000000E-03 0. -1.
        -11    1    3    3    0    0  0.13190451765E+01 -0.12253601525E+02 -0.18698855486E+01  0.12465436324E+02  0.51100000000E-03 0.  1.
        -12    1    3    3    0    0 -0.93471349361E+01  0.80821025476E+01 -0.18916824786E+02  0.22595034257E+02  0.00000000000E+00 0.  1.
</event>
<event>
 7    1  0.1204848E-011  0.5930192E+02  0.7816164E-02  0.1266605E+00
        -11   -1    0    0    0    0  0.00000000000E+00  0.00000000000E+00  0.45593999997E+02  0.45594000000E+02  0.51100000000E-03 0. -1.
         11   -1    0    0    0    0 -0.00000000000E+00 -0.00000000000E+00 -0.45593999997E+02  0.45594000000E+02  0.51100000000E-03 0.  1.
    9900012    2    1    2    0    0  0.13222403485E+02 -0.27484299690E+02 -0.93007077751E+01  0.59301923908E+02  0.49999963307E+02 0.  0.
         12    1    1    2    0    0 -0.13222403485E+02  0.27484299690E+02  0.93007077751E+01  0.31886076092E+02  0.00000000000E+00 0. -1.
         11    1    3    3    0    0 -0.70796196096E+01 -0.34633234151E+00  0.87559682498E+00  0.71419626132E+01  0.51100000000E-03 0. -1.
        -11    1    3    3    0    0  0.74363244253E+01  0.88594682210E+01  0.25973838175E+01  0.11854767019E+02  0.51100000000E-03 0.  1.
        -12    1    3    3    0    0  0.12865698670E+02 -0.35997435570E+02 -0.12773688418E+02  0.40305194276E+02  0.00000000000E+00 0.  1.
</event>
<event>
 7    1  0.1204848E-011  0.5930193E+02  0.7816164E-02  0.1266605E+00
        -11   -1    0    0    0    0  0.00000000000E+00  0.00000000000E+00  0.45593999997E+02  0.45594000000E+02  0.51100000000E-03 0.  1.
         11   -1    0    0    0    0 -0.00000000000E+00 -0.00000000000E+00 -0.45593999997E+02  0.45594000000E+02  0.51100000000E-03 0. -1.
    9900012    2    1    2    0    0  0.30358947221E+02  0.52865235222E+01  0.81919883472E+01  0.59301926545E+02  0.49999968115E+02 0.  0.
         12    1    1    2    0    0 -0.30358947221E+02 -0.52865235222E+01 -0.81919883472E+01  0.31886073455E+02  0.00000000000E+00 0. -1.
         11    1    3    3    0    0 -0.19014725974E+01 -0.85883375324E+01 -0.27763385156E+01  0.92240552591E+01  0.51100000000E-03 0. -1.
        -11    1    3    3    0    0 -0.50221486065E+01  0.12618757374E+01 -0.53728387804E+01  0.74620174098E+01  0.51100000000E-03 0.  1.
        -12    1    3    3    0    0  0.37282568425E+02  0.12612985317E+02  0.16341165643E+02  0.42615853876E+02  0.00000000000E+00 0.  1.
</event>
<event>
 7    1  0.1204848E-011  0.5930232E+02  0.7816164E-02  0.1266603E+00
        -11   -1    0    0    0    0  0.00000000000E+00  0.00000000000E+00  0.45593999997E+02  0.45594000000E+02  0.51100000000E-03 0.  1.
         11   -1    0    0    0    0 -0.00000000000E+00 -0.00000000000E+00 -0.45593999997E+02  0.45594000000E+02  0.51100000000E-03 0. -1.
    9900012    2    1    2    0    0 -0.75645736107E+01  0.25640348504E+02  0.17379486077E+02  0.59302316980E+02  0.50000680172E+02 0.  0.
         12    1    1    2    0    0  0.75645736107E+01 -0.25640348504E+02 -0.17379486077E+02  0.31885683020E+02  0.00000000000E+00 0. -1.
         11    1    3    3    0    0  0.89375203338E+01  0.11756736522E+02  0.11881645843E+02  0.18954514807E+02  0.51100000000E-03 0. -1.
        -11    1    3    3    0    0 -0.23256785233E+02  0.17222985393E+02  0.11061061608E+02  0.30981548854E+02  0.51100000000E-03 0.  1.
        -12    1    3    3    0    0  0.67546912889E+01 -0.33393734119E+01 -0.55632213733E+01  0.93662533192E+01  0.00000000000E+00 0.  1.
</event>
<event>
 7    1  0.1204848E-011  0.5930178E+02  0.7816164E-02  0.1266605E+00
        -11   -1    0    0    0    0  0.00000000000E+00  0.00000000000E+00  0.45593999997E+02  0.45594000000E+02  0.51100000000E-03 0. -1.
         11   -1    0    0    0    0 -0.00000000000E+00 -0.00000000000E+00 -0.45593999997E+02  0.45594000000E+02  0.51100000000E-03 0.  1.
    9900012    2    1    2    0    0  0.27210287871E+02 -0.13171874392E+02 -0.10140653466E+02  0.59301782073E+02  0.49999704632E+02 0.  0.
         12    1    1    2    0    0 -0.27210287871E+02  0.13171874392E+02  0.10140653466E+02  0.31886217927E+02  0.00000000000E+00 0. -1.
         11    1    3    3    0    0  0.13384789781E+02  0.26494672771E+01 -0.79070849671E+01  0.15770043351E+02  0.51100000000E-03 0. -1.
        -11    1    3    3    0    0  0.92363562898E+01  0.92674092655E+01 -0.10440166104E+02  0.16738943232E+02  0.51100000000E-03 0.  1.
         12    1    3    3    0    0  0.45891417995E+01 -0.25088750934E+02  0.82065976048E+01  0.26792795490E+02  0.00000000000E+00 0. -1.
</event>
<event>
 7    1  0.1204848E-011  0.5930196E+02  0.7816164E-02  0.1266605E+00
        -11   -1    0    0    0    0  0.00000000000E+00  0.00000000000E+00  0.45593999997E+02  0.45594000000E+02  0.51100000000E-03 0.  1.
         11   -1    0    0    0    0 -0.00000000000E+00 -0.00000000000E+00 -0.45593999997E+02  0.45594000000E+02  0.51100000000E-03 0. -1.
    9900012    2    1    2    0    0 -0.18580646625E+02 -0.15591323009E+02  0.20697573514E+02  0.59301963376E+02  0.50000035287E+02 0.  0.
         12    1    1    2    0    0  0.18580646625E+02  0.15591323009E+02 -0.20697573514E+02  0.31886036624E+02  0.00000000000E+00 0. -1.
         11    1    3    3    0    0  0.13121361555E+02 -0.31901452601E+01  0.42176121754E+01  0.14146922230E+02  0.51100000000E-03 0. -1.
        -11    1    3    3    0    0 -0.34970770767E+01 -0.11969335370E+02  0.10541631196E+02  0.16328518788E+02  0.51100000000E-03 0.  1.
        -12    1    3    3    0    0 -0.28204931104E+02 -0.43184237869E+00  0.59383301426E+01  0.28826522359E+02  0.00000000000E+00 0.  1.
</event>
<event>
 7    1  0.1204848E-011  0.5930193E+02  0.7816164E-02  0.1266605E+00
        -11   -1    0    0    0    0  0.00000000000E+00  0.00000000000E+00  0.45593999997E+02  0.45594000000E+02  0.51100000000E-03 0.  1.
         11   -1    0    0    0    0 -0.00000000000E+00 -0.00000000000E+00 -0.45593999997E+02  0.45594000000E+02  0.51100000000E-03 0. -1.
    9900012    2    1    2    0    0  0.46612025078E+01 -0.50631438178E+01  0.31134531758E+02  0.59301932480E+02  0.49999978939E+02 0.  0.
         12    1    1    2    0    0 -0.46612025078E+01  0.50631438178E+01 -0.31134531758E+02  0.31886067520E+02  0.00000000000E+00 0. -1.
         11    1    3    3    0    0  0.17303353439E+01 -0.22776842461E+02  0.13271611043E+02  0.26418067167E+02  0.51100000000E-03 0. -1.
        -11    1    3    3    0    0 -0.55479740977E+01  0.33680632673E+01  0.14496736617E+02  0.15883300650E+02  0.51100000000E-03 0.  1.
         12    1    3    3    0    0  0.84788412616E+01  0.14345635376E+02  0.33661840982E+01  0.17000564663E+02  0.00000000000E+00 0. -1.
</event>
<event>
 7    1  0.1204848E-011  0.5930205E+02  0.7816164E-02  0.1266604E+00
        -11   -1    0    0    0    0  0.00000000000E+00  0.00000000000E+00  0.45593999997E+02  0.45594000000E+02  0.51100000000E-03 0.  1.
         11   -1    0    0    0    0 -0.00000000000E+00 -0.00000000000E+00 -0.45593999997E+02  0.45594000000E+02  0.51100000000E-03 0. -1.
    9900012    2    1    2    0    0  0.19922537341E+02 -0.23840569802E+02  0.71717350508E+01  0.59302046255E+02  0.50000186438E+02 0.  0.
         12    1    1    2    0    0 -0.19922537341E+02  0.23840569802E+02 -0.71717350508E+01  0.31885953745E+02  0.00000000000E+00 0. -1.
         11    1    3    3    0    0 -0.18465582916E+01  0.48782075005E+01 -0.51454474952E+01  0.73268216936E+01  0.51100000000E-03 0. -1.
        -11    1    3    3    0    0  0.28467481179E+02 -0.12610216161E+02  0.94411629084E+00  0.31149741445E+02  0.51100000000E-03 0.  1.
         12    1    3    3    0    0 -0.66983855466E+01 -0.16108561142E+02  0.11373066255E+02  0.20825483116E+02  0.00000000000E+00 0. -1.
</event>
<event>
 7    1  0.1204848E-011  0.5930194E+02  0.7816164E-02  0.1266605E+00
        -11   -1    0    0    0    0  0.00000000000E+00  0.00000000000E+00  0.45593999997E+02  0.45594000000E+02  0.51100000000E-03 0.  1.
         11   -1    0    0    0    0 -0.00000000000E+00 -0.00000000000E+00 -0.45593999997E+02  0.45594000000E+02  0.51100000000E-03 0. -1.
    9900012    2    1    2    0    0 -0.17043463270E+02 -0.24669034113E+02  0.10848036463E+02  0.59301940673E+02  0.49999993882E+02 0.  0.
         12    1    1    2    0    0  0.17043463270E+02  0.24669034113E+02 -0.10848036463E+02  0.31886059327E+02  0.00000000000E+00 0. -1.
         11    1    3    3    0    0 -0.93808671480E+00 -0.19710562174E+01 -0.54761987461E+01  0.58952372526E+01  0.51100000000E-03 0. -1.
        -11    1    3    3    0    0 -0.83978080771E+01  0.68373823192E+01 -0.87353870054E+01  0.13913301688E+02  0.51100000000E-03 0.  1.
        -12    1    3    3    0    0 -0.77075684776E+01 -0.29535360215E+02  0.25059622214E+02  0.39493401732E+02  0.00000000000E+00 0.  1.
</event>
<event>
 7    1  0.1204848E-011  0.5930194E+02  0.7816164E-02  0.1266605E+00
        -11   -1    0    0    0    0  0.00000000000E+00  0.00000000000E+00  0.45593999997E+02  0.45594000000E+02  0.51100000000E-03 0. -1.
         11   -1    0    0    0    0 -0.00000000000E+00 -0.00000000000E+00 -0.45593999997E+02  0.45594000000E+02  0.51100000000E-03 0.  1.
    9900012    2    1    2    0    0  0.78876033284E+01 -0.30532225832E+02 -0.47212227337E+01  0.59301936514E+02  0.49999986296E+02 0.  0.
         12    1    1    2    0    0 -0.78876033284E+01  0.30532225832E+02  0.47212227337E+01  0.31886063486E+02  0.00000000000E+00 0. -1.
         11    1    3    3    0    0  0.16305029779E+02  0.90109088976E+01 -0.10873246376E+01  0.18660995429E+02  0.51100000000E-03 0.  1.
        -11    1    3    3    0    0 -0.54936111944E+01 -0.21194776402E+02 -0.22177380224E+01  0.22007195934E+02  0.51100000000E-03 0. -1.
        -12    1    3    3    0    0 -0.29238152565E+01 -0.18348358328E+02 -0.14161600737E+01  0.18633745151E+02  0.00000000000E+00 0.  1.
</event>
<event>
 7    1  0.1204848E-011  0.5930196E+02  0.7816164E-02  0.1266605E+00
        -11   -1    0    0    0    0  0.00000000000E+00  0.00000000000E+00  0.45593999997E+02  0.45594000000E+02  0.51100000000E-03 0.  1.
         11   -1    0    0    0    0 -0.00000000000E+00 -0.00000000000E+00 -0.45593999997E+02  0.45594000000E+02  0.51100000000E-03 0. -1.
    9900012    2    1    2    0    0 -0.23395062782E+02  0.77239910974E+00  0.21651646541E+02  0.59301962916E+02  0.50000034447E+02 0.  0.
         12    1    1    2    0    0  0.23395062782E+02 -0.77239910974E+00 -0.21651646541E+02  0.31886037084E+02  0.00000000000E+00 0. -1.
         11    1    3    3    0    0 -0.21712555934E+02 -0.28774970507E+01 -0.75601567361E+01  0.23170477867E+02  0.51100000000E-03 0. -1.
        -11    1    3    3    0    0 -0.11209671908E+02  0.55871359821E+00  0.16295384607E+02  0.19786572844E+02  0.51100000000E-03 0.  1.
        -12    1    3    3    0    0  0.95271650593E+01  0.30911825623E+01  0.12916418671E+02  0.16344912205E+02  0.00000000000E+00 0.  1.
</event>
<event>
 7    1  0.1204848E-011  0.5930195E+02  0.7816164E-02  0.1266605E+00
        -11   -1    0    0    0    0  0.00000000000E+00  0.00000000000E+00  0.45593999997E+02  0.45594000000E+02  0.51100000000E-03 0. -1.
         11   -1    0    0    0    0 -0.00000000000E+00 -0.00000000000E+00 -0.45593999997E+02  0.45594000000E+02  0.51100000000E-03 0.  1.
    9900012    2    1    2    0    0 -0.11580293573E+01 -0.31865016671E+02  0.42035154087E-02  0.59301947608E+02  0.50000006530E+02 0.  0.
         12    1    1    2    0    0  0.11580293573E+01  0.31865016671E+02 -0.42035154087E-02  0.31886052392E+02  0.00000000000E+00 0. -1.
         11    1    3    3    0    0 -0.49054509580E+01  0.10989196053E+01  0.76473694740E+01  0.91516847375E+01  0.51100000000E-03 0. -1.
        -11    1    3    3    0    0  0.13116386621E+02  0.20877751690E+01 -0.21644014224E+01  0.13456709736E+02  0.51100000000E-03 0.  1.
         12    1    3    3    0    0 -0.93689650200E+01 -0.35051711446E+02 -0.54787645362E+01  0.36693553135E+02  0.00000000000E+00 0. -1.
</event>
<event>
 7    1  0.1204848E-011  0.5930197E+02  0.7816164E-02  0.1266605E+00
        -11   -1    0    0    0    0  0.00000000000E+00  0.00000000000E+00  0.45593999997E+02  0.45594000000E+02  0.51100000000E-03 0.  1.
         11   -1    0    0    0    0 -0.00000000000E+00 -0.00000000000E+00 -0.45593999997E+02  0.45594000000E+02  0.51100000000E-03 0. -1.
    9900012    2    1    2    0    0  0.28035045396E+02  0.95038511214E+01  0.11850401638E+02  0.59301968960E+02  0.50000045471E+02 0.  0.
         12    1    1    2    0    0 -0.28035045396E+02 -0.95038511214E+01 -0.11850401638E+02  0.31886031040E+02  0.00000000000E+00 0. -1.
         11    1    3    3    0    0 -0.19321176808E+01  0.52849360572E+01  0.61588563136E+01  0.83423701198E+01  0.51100000000E-03 0. -1.
        -11    1    3    3    0    0 -0.67996994799E+01 -0.75131220418E+01 -0.44328030635E+01  0.11060409535E+02  0.51100000000E-03 0.  1.
         12    1    3    3    0    0  0.36766862557E+02  0.11732037106E+02  0.10124348387E+02  0.39899189305E+02  0.00000000000E+00 0. -1.
</event>
<event>
 7    1  0.1204848E-011  0.5930193E+02  0.7816164E-02  0.1266605E+00
        -11   -1    0    0    0    0  0.00000000000E+00  0.00000000000E+00  0.45593999997E+02  0.45594000000E+02  0.51100000000E-03 0.  1.
         11   -1    0    0    0    0 -0.00000000000E+00 -0.00000000000E+00 -0.45593999997E+02  0.45594000000E+02  0.51100000000E-03 0. -1.
    9900012    2    1    2    0    0  0.57254446743E+01 -0.19590320102E+02  0.24498168978E+02  0.59301927152E+02  0.49999969222E+02 0.  0.
         12    1    1    2    0    0 -0.57254446743E+01  0.19590320102E+02 -0.24498168978E+02  0.31886072848E+02  0.00000000000E+00 0. -1.
         11    1    3    3    0    0 -0.41812769743E+01  0.35237491666E+01  0.85605352856E+01  0.10157886097E+02  0.51100000000E-03 0. -1.
        -11    1    3    3    0    0  0.21800357486E+02 -0.16211818267E+02 -0.11724061840E+01  0.27192888308E+02  0.51100000000E-03 0.  1.
         12    1    3    3    0    0 -0.11893635837E+02 -0.69022510013E+01  0.17110039877E+02  0.21951152746E+02  0.00000000000E+00 0. -1.
</event>
<event>
 7    1  0.1204848E-011  0.5930196E+02  0.7816164E-02  0.1266605E+00
        -11   -1    0    0    0    0  0.00000000000E+00  0.00000000000E+00  0.45593999997E+02  0.45594000000E+02  0.51100000000E-03 0.  1.
         11   -1    0    0    0    0 -0.00000000000E+00 -0.00000000000E+00 -0.45593999997E+02  0.45594000000E+02  0.51100000000E-03 0. -1.
    9900012    2    1    2    0    0  0.13831410276E+02  0.32711682596E+01  0.28543144406E+02  0.59301960036E+02  0.50000029195E+02 0.  0.
         12    1    1    2    0    0 -0.13831410276E+02 -0.32711682596E+01 -0.28543144406E+02  0.31886039964E+02  0.00000000000E+00 0. -1.
         11    1    3    3    0    0  0.65318470469E+01 -0.13498924235E+02  0.56983071736E+01  0.16042340423E+02  0.51100000000E-03 0. -1.
        -11    1    3    3    0    0 -0.74194268539E+01  0.66710326471E+01 -0.42240973054E+01  0.10834831320E+02  0.51100000000E-03 0.  1.
        -12    1    3    3    0    0  0.14718990083E+02  0.10099059847E+02  0.27068934538E+02  0.32424788293E+02  0.00000000000E+00 0.  1.
</event>
<event>
 7    1  0.1204848E-011  0.5930189E+02  0.7816164E-02  0.1266605E+00
        -11   -1    0    0    0    0  0.00000000000E+00  0.00000000000E+00  0.45593999997E+02  0.45594000000E+02  0.51100000000E-03 0.  1.
         11   -1    0    0    0    0 -0.00000000000E+00 -0.00000000000E+00 -0.45593999997E+02  0.45594000000E+02  0.51100000000E-03 0. -1.
    9900012    2    1    2    0    0 -0.32657644282E+01  0.30524259419E+02 -0.86213998121E+01  0.59301887583E+02  0.49999897058E+02 0.  0.
         12    1    1    2    0    0  0.32657644282E+01 -0.30524259419E+02  0.86213998121E+01  0.31886112417E+02  0.00000000000E+00 0. -1.
         11    1    3    3    0    0  0.92016540267E+01  0.11416894745E+02  0.49339264484E+01  0.15471249236E+02  0.51100000000E-03 0. -1.
        -11    1    3    3    0    0  0.51004663763E+01  0.15506894764E+02  0.59125514876E+01  0.17361935602E+02  0.51100000000E-03 0.  1.
        -12    1    3    3    0    0 -0.17567884831E+02  0.36004699093E+01 -0.19467877748E+02  0.26468702745E+02  0.00000000000E+00 0.  1.
</event>
<event>
 7    1  0.1204848E-011  0.5930192E+02  0.7816164E-02  0.1266605E+00
        -11   -1    0    0    0    0  0.00000000000E+00  0.00000000000E+00  0.45593999997E+02  0.45594000000E+02  0.51100000000E-03 0.  1.
         11   -1    0    0    0    0 -0.00000000000E+00 -0.00000000000E+00 -0.45593999997E+02  0.45594000000E+02  0.51100000000E-03 0. -1.
    9900012    2    1    2    0    0 -0.31157542821E+02 -0.67306183576E+01 -0.79280973007E+00  0.59301917685E+02  0.49999951957E+02 0.  0.
         12    1    1    2    0    0  0.31157542821E+02  0.67306183576E+01  0.79280973007E+00  0.31886082315E+02  0.00000000000E+00 0. -1.
         11    1    3    3    0    0 -0.16948091454E+01 -0.10822166058E+02 -0.60718331618E+01  0.12524328901E+02  0.51100000000E-03 0. -1.
        -11    1    3    3    0    0 -0.14550361318E+01 -0.10375948580E+02 -0.73710000972E+01  0.12810506695E+02  0.51100000000E-03 0.  1.
        -12    1    3    3    0    0 -0.28007697544E+02  0.14467496280E+02  0.12650023529E+02  0.33967082089E+02  0.00000000000E+00 0.  1.
</event>
<event>
 7    1  0.1204848E-011  0.5930192E+02  0.7816164E-02  0.1266605E+00
        -11   -1    0    0    0    0  0.00000000000E+00  0.00000000000E+00  0.45593999997E+02  0.45594000000E+02  0.51100000000E-03 0.  1.
         11   -1    0    0    0    0 -0.00000000000E+00 -0.00000000000E+00 -0.45593999997E+02  0.45594000000E+02  0.51100000000E-03 0. -1.
    9900012    2    1    2    0    0  0.20626138159E+02 -0.21240557053E+02  0.11837353725E+02  0.59301924944E+02  0.49999965195E+02 0.  0.
         12    1    1    2    0    0 -0.20626138159E+02  0.21240557053E+02 -0.11837353725E+02  0.31886075056E+02  0.00000000000E+00 0. -1.
         11    1    3    3    0    0  0.20628835031E+02  0.65797440024E+00  0.12300783838E+02  0.24026881786E+02  0.51100000000E-03 0. -1.
        -11    1    3    3    0    0 -0.87984590469E+00  0.63667861953E+01 -0.25603312663E+01  0.69184818947E+01  0.51100000000E-03 0.  1.
         12    1    3    3    0    0  0.87714903207E+00 -0.28265317649E+02  0.20969011534E+01  0.28356561263E+02  0.00000000000E+00 0. -1.
</event>
<event>
 7    1  0.1281092E-011  0.5930193E+02  0.7816164E-02  0.1266605E+00
        -11   -1    0    0    0    0  0.00000000000E+00  0.00000000000E+00  0.45593999997E+02  0.45594000000E+02  0.51100000000E-03 0. -1.
         11   -1    0    0    0    0 -0.00000000000E+00 -0.00000000000E+00 -0.45593999997E+02  0.45594000000E+02  0.51100000000E-03 0.  1.
    9900012    2    1    2    0    0  0.14133260755E+02 -0.21252578541E+02 -0.19112838786E+02  0.59301925286E+02  0.49999965820E+02 0.  0.
         12    1    1    2    0    0 -0.14133260755E+02  0.21252578541E+02  0.19112838786E+02  0.31886074714E+02  0.00000000000E+00 0. -1.
         11    1    3    3    0    0  0.17570273435E+01 -0.17082676559E+02 -0.11032074455E+01  0.17208197187E+02  0.51100000000E-03 0.  1.
        -11    1    3    3    0    0  0.36942553466E+01 -0.73821285408E+01 -0.27573991410E+02  0.28783126079E+02  0.51100000000E-03 0. -1.
         12    1    3    3    0    0  0.86819780653E+01  0.32122265594E+01  0.95643600691E+01  0.13310602020E+02  0.00000000000E+00 0. -1.
</event>
<event>
 7    1  0.1204848E-011  0.5930194E+02  0.7816164E-02  0.1266605E+00
        -11   -1    0    0    0    0  0.00000000000E+00  0.00000000000E+00  0.45593999997E+02  0.45594000000E+02  0.51100000000E-03 0. -1.
         11   -1    0    0    0    0 -0.00000000000E+00 -0.00000000000E+00 -0.45593999997E+02  0.45594000000E+02  0.51100000000E-03 0.  1.
    9900012    2    1    2    0    0 -0.29816056151E+02  0.10257004758E+02 -0.47452381508E+01  0.59301942920E+02  0.49999997980E+02 0.  0.
         12    1    1    2    0    0  0.29816056151E+02 -0.10257004758E+02  0.47452381508E+01  0.31886057080E+02  0.00000000000E+00 0. -1.
         11    1    3    3    0    0 -0.23071576800E+02  0.13633534710E+01  0.32888512934E+01  0.23344655316E+02  0.51100000000E-03 0. -1.
        -11    1    3    3    0    0 -0.16918477520E+02 -0.25464799349E+01 -0.11031197647E+02  0.20356983161E+02  0.51100000000E-03 0.  1.
         12    1    3    3    0    0  0.10173998169E+02  0.11440131222E+02  0.29971082026E+01  0.15600304443E+02  0.00000000000E+00 0. -1.
</event>
<event>
 7    1  0.1204848E-011  0.5930195E+02  0.7816164E-02  0.1266605E+00
        -11   -1    0    0    0    0  0.00000000000E+00  0.00000000000E+00  0.45593999997E+02  0.45594000000E+02  0.51100000000E-03 0.  1.
         11   -1    0    0    0    0 -0.00000000000E+00 -0.00000000000E+00 -0.45593999997E+02  0.45594000000E+02  0.51100000000E-03 0. -1.
    9900012    2    1    2    0    0 -0.94404735975E+01 -0.12098202553E+02  0.27950508543E+02  0.59301953293E+02  0.50000016898E+02 0.  0.
         12    1    1    2    0    0  0.94404735975E+01  0.12098202553E+02 -0.27950508543E+02  0.31886046707E+02  0.00000000000E+00 0. -1.
         11    1    3    3    0    0 -0.16836617960E+02 -0.82969216513E+01  0.58389148569E+01  0.19657149849E+02  0.51100000000E-03 0. -1.
        -11    1    3    3    0    0 -0.98569296251E+01  0.17177816015E+01 -0.12498442665E+01  0.10083250776E+02  0.51100000000E-03 0.  1.
        -12    1    3    3    0    0  0.17253073988E+02 -0.55190625029E+01  0.23361437953E+02  0.29561552668E+02  0.00000000000E+00 0.  1.
</event>
<event>
 7    1  0.1204848E-011  0.5930194E+02  0.7816164E-02  0.1266605E+00
        -11   -1    0    0    0    0  0.00000000000E+00  0.00000000000E+00  0.45593999997E+02  0.45594000000E+02  0.51100000000E-03 0. -1.
         11   -1    0    0    0    0 -0.00000000000E+00 -0.00000000000E+00 -0.45593999997E+02  0.45594000000E+02  0.51100000000E-03 0.  1.
    9900012    2    1    2    0    0  0.16914136201E+02 -0.26670022231E+02 -0.43980182063E+01  0.59301942649E+02  0.49999997486E+02 0.  0.
         12    1    1    2    0    0 -0.16914136201E+02  0.26670022231E+02  0.43980182063E+01  0.31886057351E+02  0.00000000000E+00 0. -1.
         11    1    3    3    0    0  0.39984573007E+01  0.29759234003E+01  0.42060358611E+01  0.65218493387E+01  0.51100000000E-03 0. -1.
        -11    1    3    3    0    0  0.59841119074E+01  0.70635399390E+01 -0.12126398737E+02  0.15256236049E+02  0.51100000000E-03 0.  1.
         12    1    3    3    0    0  0.69315669930E+01 -0.36709485570E+02  0.35223446698E+01  0.37523857262E+02  0.00000000000E+00 0. -1.
</event>
<event>
 7    1  0.1204848E-011  0.5930197E+02  0.7816164E-02  0.1266605E+00
        -11   -1    0    0    0    0  0.00000000000E+00  0.00000000000E+00  0.45593999997E+02  0.45594000000E+02  0.51100000000E-03 0. -1.
         11   -1    0    0    0    0 -0.00000000000E+00 -0.00000000000E+00 -0.45593999997E+02  0.45594000000E+02  0.51100000000E-03 0.  1.
    9900012    2    1    2    0    0  0.31310194287E+02 -0.46043739078E+01 -0.38974543944E+01  0.59301973654E+02  0.50000054032E+02 0.  0.
         12    1    1    2    0    0 -0.31310194287E+02  0.46043739078E+01  0.38974543944E+01  0.31886026346E+02  0.00000000000E+00 0. -1.
         11    1    3    3    0    0 -0.70917178031E+01 -0.46242892445E+01 -0.52325222025E+01  0.99526780957E+01  0.51100000000E-03 0. -1.
        -11    1    3    3    0    0 -0.86358312866E+00 -0.44029231582E+01 -0.76113197801E+01  0.88353662750E+01  0.51100000000E-03 0.  1.
         12    1    3    3    0    0  0.39265495219E+02  0.44228384950E+01  0.89463875882E+01  0.40513929284E+02  0.00000000000E+00 0. -1.
</event>
<event>
 7    1  0.1204848E-011  0.5930197E+02  0.7816164E-02  0.1266605E+00
        -11   -1    0    0    0    0  0.00000000000E+00  0.00000000000E+00  0.45593999997E+02  0.45594000000E+02  0.51100000000E-03 0. -1.
         11   -1    0    0    0    0 -0.00000000000E+00 -0.00000000000E+00 -0.45593999997E+02  0.45594000000E+02  0.51100000000E-03 0.  1.
    9900012    2    1    2    0    0  0.31225777565E+01 -0.29168935727E+02 -0.12495661123E+02  0.59301970925E+02  0.50000049054E+02 0.  0.
         12    1    1    2    0    0 -0.31225777565E+01  0.29168935727E+02  0.12495661123E+02  0.31886029075E+02  0.00000000000E+00 0. -1.
         11    1    3    3    0    0  0.25943321557E+00 -0.24948975496E+02  0.43278144160E+01  0.25322888101E+02  0.51100000000E-03 0. -1.
        -11    1    3    3    0    0  0.66188587303E+01 -0.14569467099E+02 -0.16469481438E+02  0.22963503251E+02  0.51100000000E-03 0.  1.
        -12    1    3    3    0    0 -0.37557141893E+01  0.10349506868E+02 -0.35399410040E+00  0.11015579572E+02  0.00000000000E+00 0.  1.
</event>
<event>
 7    1  0.1204848E-011  0.5930192E+02  0.7816164E-02  0.1266605E+00
        -11   -1    0    0    0    0  0.00000000000E+00  0.00000000000E+00  0.45593999997E+02  0.45594000000E+02  0.51100000000E-03 0. -1.
         11   -1    0    0    0    0 -0.00000000000E+00 -0.00000000000E+00 -0.45593999997E+02  0.45594000000E+02  0.51100000000E-03 0.  1.
    9900012    2    1    2    0    0  0.22644633776E+02 -0.12694355817E+02 -0.18514754040E+02  0.59301917995E+02  0.49999952522E+02 0.  0.
         12    1    1    2    0    0 -0.22644633776E+02  0.12694355817E+02  0.18514754040E+02  0.31886082005E+02  0.00000000000E+00 0. -1.
         11    1    3    3    0    0  0.15473398218E+02  0.41082620921E+01 -0.31754144758E+01  0.16321370260E+02  0.51100000000E-03 0. -1.
        -11    1    3    3    0    0  0.17928544024E+01 -0.70575891896E+01 -0.26341824720E+02  0.27329757077E+02  0.51100000000E-03 0.  1.
         12    1    3    3    0    0  0.53783811562E+01 -0.97450287189E+01  0.11002485155E+02  0.15650790657E+02  0.00000000000E+00 0. -1.
</event>
<event>
 7    1  0.1204848E-011  0.5930196E+02  0.7816164E-02  0.1266605E+00
        -11   -1    0    0    0    0  0.00000000000E+00  0.00000000000E+00  0.45593999997E+02  0.45594000000E+02  0.51100000000E-03 0.  1.
         11   -1    0    0    0    0 -0.00000000000E+00 -0.00000000000E+00 -0.45593999997E+02  0.45594000000E+02  0.51100000000E-03 0. -1.
    9900012    2    1    2    0    0  0.20444572471E+01  0.24567258039E+02  0.20223497965E+02  0.59301955358E+02  0.50000020663E+02 0.  0.
         12    1    1    2    0    0 -0.20444572471E+01 -0.24567258039E+02 -0.20223497965E+02  0.31886044642E+02  0.00000000000E+00 0. -1.
         11    1    3    3    0    0 -0.73384455005E+00  0.10568127430E+02 -0.42213073437E+01  0.11403652097E+02  0.51100000000E-03 0. -1.
        -11    1    3    3    0    0 -0.89238660518E+01  0.23345908983E+02  0.20720439615E+02  0.32465419598E+02  0.51100000000E-03 0.  1.
         12    1    3    3    0    0  0.11702167849E+02 -0.93467783740E+01  0.37243656940E+01  0.15432883663E+02  0.00000000000E+00 0. -1.
</event>
<event>
 7    1  0.1204848E-011  0.5930194E+02  0.7816164E-02  0.1266605E+00
        -11   -1    0    0    0    0  0.00000000000E+00  0.00000000000E+00  0.45593999997E+02  0.45594000000E+02  0.51100000000E-03 0. -1.
         11   -1    0    0    0    0 -0.00000000000E+00 -0.00000000000E+00 -0.45593999997E+02  0.45594000000E+02  0.51100000000E-03 0.  1.
    9900012    2    1    2    0    0  0.10531918475E+02  0.29552470057E+02 -0.56965937977E+01  0.59301937620E+02  0.49999988314E+02 0.  0.
         12    1    1    2    0    0 -0.10531918475E+02 -0.29552470057E+02  0.56965937977E+01  0.31886062380E+02  0.00000000000E+00 0. -1.
         11    1    3    3    0    0  0.11234676676E+01  0.17540489918E+02  0.12133621505E+02  0.21357802725E+02  0.51100000000E-03 0. -1.
        -11    1    3    3    0    0 -0.61333043650E+01  0.13112459251E+02 -0.28409787333E+00  0.14478767969E+02  0.51100000000E-03 0.  1.
         12    1    3    3    0    0  0.15541755172E+02 -0.11004791122E+01 -0.17546117429E+02  0.23465366925E+02  0.00000000000E+00 0. -1.
</event>
<event>
 7    1  0.1204848E-011  0.5930195E+02  0.7816164E-02  0.1266605E+00
        -11   -1    0    0    0    0  0.00000000000E+00  0.00000000000E+00  0.45593999997E+02  0.45594000000E+02  0.51100000000E-03 0.  1.
         11   -1    0    0    0    0 -0.00000000000E+00 -0.00000000000E+00 -0.45593999997E+02  0.45594000000E+02  0.51100000000E-03 0. -1.
    9900012    2    1    2    0    0 -0.16068172399E+02  0.26557380425E+02 -0.72965511103E+01  0.59301948545E+02  0.50000008239E+02 0.  0.
         12    1    1    2    0    0  0.16068172399E+02 -0.26557380425E+02  0.72965511103E+01  0.31886051455E+02  0.00000000000E+00 0. -1.
         11    1    3    3    0    0  0.83669277890E+01  0.29264616328E+01 -0.89779446667E+01  0.12616384150E+02  0.51100000000E-03 0. -1.
        -11    1    3    3    0    0 -0.60472728675E+01  0.17219864232E+02 -0.12907156459E+02  0.22353700396E+02  0.51100000000E-03 0.  1.
         12    1    3    3    0    0 -0.18387827320E+02  0.64110545602E+01  0.14588550015E+02  0.24331863999E+02  0.00000000000E+00 0. -1.
</event>
<event>
 7    1  0.1204848E-011  0.5930193E+02  0.7816164E-02  0.1266605E+00
        -11   -1    0    0    0    0  0.00000000000E+00  0.00000000000E+00  0.45593999997E+02  0.45594000000E+02  0.51100000000E-03 0.  1.
         11   -1    0    0    0    0 -0.00000000000E+00 -0.00000000000E+00 -0.45593999997E+02  0.45594000000E+02  0.51100000000E-03 0. -1.
    9900012    2    1    2    0    0  0.28273393337E+02 -0.56122555986E+01  0.13632288651E+02  0.59301929726E+02  0.49999973916E+02 0.  0.
         12    1    1    2    0    0 -0.28273393337E+02  0.56122555986E+01 -0.13632288651E+02  0.31886070274E+02  0.00000000000E+00 0. -1.
         11    1    3    3    0    0 -0.69054408689E-01  0.30228541164E+01 -0.27576553394E+01  0.40923194832E+01  0.51100000000E-03 0. -1.
        -11    1    3    3    0    0  0.23167307839E+02  0.14804667071E+02  0.28270040299E+01  0.27638637297E+02  0.51100000000E-03 0.  1.
         12    1    3    3    0    0  0.51751399066E+01 -0.23439776786E+02  0.13562939961E+02  0.27570972946E+02  0.00000000000E+00 0. -1.
</event>
<event>
 7    1  0.1204848E-011  0.5930195E+02  0.7816164E-02  0.1266605E+00
        -11   -1    0    0    0    0  0.00000000000E+00  0.00000000000E+00  0.45593999997E+02  0.45594000000E+02  0.51100000000E-03 0. -1.
         11   -1    0    0    0    0 -0.00000000000E+00 -0.00000000000E+00 -0.45593999997E+02  0.45594000000E+02  0.51100000000E-03 0.  1.
    9900012    2    1    2    0    0  0.19723857754E+02  0.24642101050E+02 -0.45228821373E+01  0.59301950203E+02  0.50000011262E+02 0.  0.
         12    1    1    2    0    0 -0.19723857754E+02 -0.24642101050E+02  0.45228821373E+01  0.31886049797E+02  0.00000000000E+00 0. -1.
         11    1    3    3    0    0 -0.84841889580E+01 -0.77447141928E+01  0.59536736670E+01  0.12938635577E+02  0.51100000000E-03 0. -1.
        -11    1    3    3    0    0  0.11496945668E+02  0.21681310719E+02 -0.10031854862E+02  0.26512206744E+02  0.51100000000E-03 0.  1.
        -12    1    3    3    0    0  0.16711101044E+02  0.10705504523E+02 -0.44470094203E+00  0.19851107882E+02  0.00000000000E+00 0.  1.
</event>
<event>
 7    1  0.1204848E-011  0.5930198E+02  0.7816164E-02  0.1266605E+00
        -11   -1    0    0    0    0  0.00000000000E+00  0.00000000000E+00  0.45593999997E+02  0.45594000000E+02  0.51100000000E-03 0.  1.
         11   -1    0    0    0    0 -0.00000000000E+00 -0.00000000000E+00 -0.45593999997E+02  0.45594000000E+02  0.51100000000E-03 0. -1.
    9900012    2    1    2    0    0  0.26428054699E+00 -0.21853353566E+02  0.23218077498E+02  0.59301983802E+02  0.50000072540E+02 0.  0.
         12    1    1    2    0    0 -0.26428054699E+00  0.21853353566E+02 -0.23218077498E+02  0.31886016198E+02  0.00000000000E+00 0. -1.
         11    1    3    3    0    0  0.56688347683E+01 -0.22632548484E+02  0.17802346351E+02  0.29347767792E+02  0.51100000000E-03 0. -1.
        -11    1    3    3    0    0  0.79103214362E+01  0.39473743169E-01  0.12546481087E+02  0.14832023844E+02  0.51100000000E-03 0.  1.
         12    1    3    3    0    0 -0.13314875658E+02  0.73972117518E+00 -0.71307499404E+01  0.15122192166E+02  0.00000000000E+00 0. -1.
</event>
<event>
 7    1  0.1204848E-011  0.5930196E+02  0.7816164E-02  0.1266605E+00
        -11   -1    0    0    0    0  0.00000000000E+00  0.00000000000E+00  0.45593999997E+02  0.45594000000E+02  0.51100000000E-03 0.  1.
         11   -1    0    0    0    0 -0.00000000000E+00 -0.00000000000E+00 -0.45593999997E+02  0.45594000000E+02  0.51100000000E-03 0. -1.
    9900012    2    1    2    0    0 -0.33970804568E+01  0.17304244217E+02  0.26565810036E+02  0.59301964084E+02  0.50000036577E+02 0.  0.
         12    1    1    2    0    0  0.33970804568E+01 -0.17304244217E+02 -0.26565810036E+02  0.31886035916E+02  0.00000000000E+00 0. -1.
         11    1    3    3    0    0  0.76542544804E+01 -0.29196312865E+01 -0.40630930370E+01  0.91444291122E+01  0.51100000000E-03 0. -1.
        -11    1    3    3    0    0  0.91181662975E+00 -0.15995556623E+01 -0.57740148900E+01  0.60604650064E+01  0.51100000000E-03 0.  1.
        -12    1    3    3    0    0 -0.11963151567E+02  0.21823431166E+02  0.36402917963E+02  0.44097069965E+02  0.00000000000E+00 0.  1.
</event>
<event>
 7    1  0.1204848E-011  0.5930204E+02  0.7816164E-02  0.1266604E+00
        -11   -1    0    0    0    0  0.00000000000E+00  0.00000000000E+00  0.45593999997E+02  0.45594000000E+02  0.51100000000E-03 0. -1.
         11   -1    0    0    0    0 -0.00000000000E+00 -0.00000000000E+00 -0.45593999997E+02  0.45594000000E+02  0.51100000000E-03 0.  1.
    9900012    2    1    2    0    0 -0.14603556153E+02 -0.16743278532E+02 -0.22871662915E+02  0.59302043956E+02  0.50000182245E+02 0.  0.
         12    1    1    2    0    0  0.14603556153E+02  0.16743278532E+02  0.22871662915E+02  0.31885956044E+02  0.00000000000E+00 0. -1.
         11    1    3    3    0    0 -0.46198652680E+01 -0.23866041675E+02 -0.19794770530E+02  0.31349067625E+02  0.51100000000E-03 0. -1.
        -11    1    3    3    0    0  0.71985459312E+01 -0.12600579465E+01 -0.48218933868E+01  0.87554249267E+01  0.51100000000E-03 0.  1.
        -12    1    3    3    0    0 -0.17182236816E+02  0.83828210898E+01  0.17450010011E+01  0.19197551405E+02  0.00000000000E+00 0.  1.
</event>
<event>
 7    1  0.1204848E-011  0.5930193E+02  0.7816164E-02  0.1266605E+00
        -11   -1    0    0    0    0  0.00000000000E+00  0.00000000000E+00  0.45593999997E+02  0.45594000000E+02  0.51100000000E-03 0.  1.
         11   -1    0    0    0    0 -0.00000000000E+00 -0.00000000000E+00 -0.45593999997E+02  0.45594000000E+02  0.51100000000E-03 0. -1.
    9900012    2    1    2    0    0  0.34395575161E+01  0.28605285240E+02  0.13661195929E+02  0.59301934488E+02  0.49999982602E+02 0.  0.
         12    1    1    2    0    0 -0.34395575161E+01 -0.28605285240E+02 -0.13661195929E+02  0.31886065512E+02  0.00000000000E+00 0. -1.
         11    1    3    3    0    0 -0.97863675991E+01  0.34047505112E+01  0.14862899421E+02  0.18118253125E+02  0.51100000000E-03 0. -1.
        -11    1    3    3    0    0 -0.48664213340E+01 -0.18059986656E-01  0.75082944978E+01  0.89474504352E+01  0.51100000000E-03 0.  1.
        -12    1    3    3    0    0  0.18092346449E+02  0.25218594716E+02 -0.87099979897E+01  0.32236230928E+02  0.00000000000E+00 0.  1.
</event>
<event>
 7    1  0.1204848E-011  0.5930193E+02  0.7816164E-02  0.1266605E+00
        -11   -1    0    0    0    0  0.00000000000E+00  0.00000000000E+00  0.45593999997E+02  0.45594000000E+02  0.51100000000E-03 0.  1.
         11   -1    0    0    0    0 -0.00000000000E+00 -0.00000000000E+00 -0.45593999997E+02  0.45594000000E+02  0.51100000000E-03 0. -1.
    9900012    2    1    2    0    0  0.14580798899E+02  0.26707139137E+02  0.95315473404E+01  0.59301931379E+02  0.49999976932E+02 0.  0.
         12    1    1    2    0    0 -0.14580798899E+02 -0.26707139137E+02 -0.95315473404E+01  0.31886068621E+02  0.00000000000E+00 0. -1.
         11    1    3    3    0    0 -0.17453697660E+01 -0.18262673444E+01  0.49188840770E+01  0.55296463591E+01  0.51100000000E-03 0. -1.
        -11    1    3    3    0    0 -0.12369031703E+02  0.80650771004E+01  0.10389335033E+02  0.18054824745E+02  0.51100000000E-03 0.  1.
         12    1    3    3    0    0  0.28695200367E+02  0.20468329380E+02 -0.57766717694E+01  0.35717460275E+02  0.00000000000E+00 0. -1.
</event>
<event>
 7    1  0.1204848E-011  0.5930188E+02  0.7816164E-02  0.1266605E+00
        -11   -1    0    0    0    0  0.00000000000E+00  0.00000000000E+00  0.45593999997E+02  0.45594000000E+02  0.51100000000E-03 0. -1.
         11   -1    0    0    0    0 -0.00000000000E+00 -0.00000000000E+00 -0.45593999997E+02  0.45594000000E+02  0.51100000000E-03 0.  1.
    9900012    2    1    2    0    0  0.20436141620E+01  0.22427037832E+02 -0.22573802327E+02  0.59301875490E+02  0.49999875003E+02 0.  0.
         12    1    1    2    0    0 -0.20436141620E+01 -0.22427037832E+02  0.22573802327E+02  0.31886124510E+02  0.00000000000E+00 0. -1.
         11    1    3    3    0    0 -0.78928791422E+01  0.16936170119E+02 -0.14292205678E+02  0.23524424390E+02  0.51100000000E-03 0. -1.
        -11    1    3    3    0    0 -0.19227351618E+01 -0.71120395232E+01 -0.15395087535E+02  0.17067124455E+02  0.51100000000E-03 0.  1.
         12    1    3    3    0    0  0.11859228466E+02  0.12602907236E+02  0.71134908856E+01  0.18710326646E+02  0.00000000000E+00 0. -1.
</event>
<event>
 7    1  0.1204848E-011  0.5930191E+02  0.7816164E-02  0.1266605E+00
        -11   -1    0    0    0    0  0.00000000000E+00  0.00000000000E+00  0.45593999997E+02  0.45594000000E+02  0.51100000000E-03 0. -1.
         11   -1    0    0    0    0 -0.00000000000E+00 -0.00000000000E+00 -0.45593999997E+02  0.45594000000E+02  0.51100000000E-03 0.  1.
    9900012    2    1    2    0    0  0.10805379242E+02  0.28053637635E+02  0.10628262696E+02  0.59301909411E+02  0.49999936868E+02 0.  0.
         12    1    1    2    0    0 -0.10805379242E+02 -0.28053637635E+02 -0.10628262696E+02  0.31886090589E+02  0.00000000000E+00 0. -1.
         11    1    3    3    0    0  0.11324752673E+02  0.91642383449E+01  0.14640686649E+02  0.20653885672E+02  0.51100000000E-03 0. -1.
        -11    1    3    3    0    0 -0.87591479991E+01  0.21176689293E+02  0.76736696875E+01  0.24167334355E+02  0.51100000000E-03 0.  1.
        -12    1    3    3    0    0  0.82397745679E+01 -0.22872900032E+01 -0.11686093640E+02  0.14480689385E+02  0.00000000000E+00 0.  1.
</event>
<event>
 7    1  0.1204848E-011  0.5930195E+02  0.7816164E-02  0.1266605E+00
        -11   -1    0    0    0    0  0.00000000000E+00  0.00000000000E+00  0.45593999997E+02  0.45594000000E+02  0.51100000000E-03 0.  1.
         11   -1    0    0    0    0 -0.00000000000E+00 -0.00000000000E+00 -0.45593999997E+02  0.45594000000E+02  0.51100000000E-03 0. -1.
    9900012    2    1    2    0    0 -0.20445976146E+02  0.23240325335E+02  0.76530576148E+01  0.59301953630E+02  0.50000017513E+02 0.  0.
         12    1    1    2    0    0  0.20445976146E+02 -0.23240325335E+02 -0.76530576148E+01  0.31886046370E+02  0.00000000000E+00 0. -1.
         11    1    3    3    0    0  0.15127051208E+01 -0.65127338160E+01 -0.40187206926E+01  0.78009034609E+01  0.51100000000E-03 0. -1.
        -11    1    3    3    0    0 -0.27590813453E+02  0.96835783896E+01  0.82029776600E+01  0.30369615081E+02  0.51100000000E-03 0.  1.
         12    1    3    3    0    0  0.56321321856E+01  0.20069480761E+02  0.34688006474E+01  0.21131435089E+02  0.00000000000E+00 0. -1.
</event>
<event>
 7    1  0.1204848E-011  0.5930195E+02  0.7816164E-02  0.1266605E+00
        -11   -1    0    0    0    0  0.00000000000E+00  0.00000000000E+00  0.45593999997E+02  0.45594000000E+02  0.51100000000E-03 0.  1.
         11   -1    0    0    0    0 -0.00000000000E+00 -0.00000000000E+00 -0.45593999997E+02  0.45594000000E+02  0.51100000000E-03 0. -1.
    9900012    2    1    2    0    0 -0.13752949828E+02  0.18718054225E+02  0.21845160700E+02  0.59301949305E+02  0.50000009624E+02 0.  0.
         12    1    1    2    0    0  0.13752949828E+02 -0.18718054225E+02 -0.21845160700E+02  0.31886050695E+02  0.00000000000E+00 0. -1.
         11    1    3    3    0    0 -0.12363738264E+02  0.67797883927E+01  0.31405870580E+01  0.14446135879E+02  0.51100000000E-03 0. -1.
        -11    1    3    3    0    0 -0.53606281640E+01 -0.13143277893E+02  0.17038075349E+01  0.14296329895E+02  0.51100000000E-03 0.  1.
        -12    1    3    3    0    0  0.39714165999E+01  0.25081543725E+02  0.17000766107E+02  0.30559483531E+02  0.00000000000E+00 0.  1.
</event>
<event>
 7    1  0.1204848E-011  0.5930195E+02  0.7816164E-02  0.1266605E+00
        -11   -1    0    0    0    0  0.00000000000E+00  0.00000000000E+00  0.45593999997E+02  0.45594000000E+02  0.51100000000E-03 0.  1.
         11   -1    0    0    0    0 -0.00000000000E+00 -0.00000000000E+00 -0.45593999997E+02  0.45594000000E+02  0.51100000000E-03 0. -1.
    9900012    2    1    2    0    0  0.12195999152E+02 -0.14631196053E+01  0.29425105628E+02  0.59301953592E+02  0.50000017443E+02 0.  0.
         12    1    1    2    0    0 -0.12195999152E+02  0.14631196053E+01 -0.29425105628E+02  0.31886046408E+02  0.00000000000E+00 0. -1.
         11    1    3    3    0    0  0.11336373175E+02 -0.57207894873E+01  0.40784590687E+01  0.13336964338E+02  0.51100000000E-03 0. -1.
        -11    1    3    3    0    0  0.16323114210E+02  0.81933713496E+01  0.23704040013E+02  0.29924185950E+02  0.51100000000E-03 0.  1.
        -12    1    3    3    0    0 -0.15463488233E+02 -0.39357014676E+01  0.16426065465E+01  0.16040803304E+02  0.00000000000E+00 0.  1.
</event>
<event>
 7    1  0.1204848E-011  0.5930196E+02  0.7816164E-02  0.1266605E+00
        -11   -1    0    0    0    0  0.00000000000E+00  0.00000000000E+00  0.45593999997E+02  0.45594000000E+02  0.51100000000E-03 0.  1.
         11   -1    0    0    0    0 -0.00000000000E+00 -0.00000000000E+00 -0.45593999997E+02  0.45594000000E+02  0.51100000000E-03 0. -1.
    9900012    2    1    2    0    0 -0.31608581166E-01  0.27807337975E+02  0.15603542575E+02  0.59301959398E+02  0.50000028032E+02 0.  0.
         12    1    1    2    0    0  0.31608581166E-01 -0.27807337975E+02 -0.15603542575E+02  0.31886040602E+02  0.00000000000E+00 0. -1.
         11    1    3    3    0    0 -0.38596660961E+01 -0.40025507621E+01  0.52523312960E+01  0.76488181624E+01  0.51100000000E-03 0.  1.
        -11    1    3    3    0    0  0.13650438070E+02  0.15129444691E+02  0.21247413774E+02  0.29439550753E+02  0.51100000000E-03 0. -1.
         12    1    3    3    0    0 -0.98223805552E+01  0.16680444046E+02 -0.10896202495E+02  0.22213590483E+02  0.00000000000E+00 0. -1.
</event>
<event>
 7    1  0.1204848E-011  0.5930195E+02  0.7816164E-02  0.1266605E+00
        -11   -1    0    0    0    0  0.00000000000E+00  0.00000000000E+00  0.45593999997E+02  0.45594000000E+02  0.51100000000E-03 0.  1.
         11   -1    0    0    0    0 -0.00000000000E+00 -0.00000000000E+00 -0.45593999997E+02  0.45594000000E+02  0.51100000000E-03 0. -1.
    9900012    2    1    2    0    0 -0.27687353490E+02 -0.70082934398E+01  0.14177946553E+02  0.59301954640E+02  0.50000019355E+02 0.  0.
         12    1    1    2    0    0  0.27687353490E+02  0.70082934398E+01 -0.14177946553E+02  0.31886045360E+02  0.00000000000E+00 0. -1.
         11    1    3    3    0    0 -0.18774048472E+01 -0.22917683819E+02  0.92155588822E+01  0.24772392019E+02  0.51100000000E-03 0. -1.
        -11    1    3    3    0    0  0.11999003018E+00 -0.39369529616E+00  0.38585165933E+01  0.38804051535E+01  0.51100000000E-03 0.  1.
         12    1    3    3    0    0 -0.25929938673E+02  0.16303085675E+02  0.11038710777E+01  0.30649157467E+02  0.00000000000E+00 0. -1.
</event>
<event>
 7    1  0.1204848E-011  0.5930195E+02  0.7816164E-02  0.1266605E+00
        -11   -1    0    0    0    0  0.00000000000E+00  0.00000000000E+00  0.45593999997E+02  0.45594000000E+02  0.51100000000E-03 0.  1.
         11   -1    0    0    0    0 -0.00000000000E+00 -0.00000000000E+00 -0.45593999997E+02  0.45594000000E+02  0.51100000000E-03 0. -1.
    9900012    2    1    2    0    0 -0.14871061680E+02  0.27855930699E+02  0.44293047693E+01  0.59301951463E+02  0.50000013559E+02 0.  0.
         12    1    1    2    0    0  0.14871061680E+02 -0.27855930699E+02 -0.44293047693E+01  0.31886048537E+02  0.00000000000E+00 0. -1.
         11    1    3    3    0    0  0.16760754180E+02  0.10762178791E+02  0.25226676727E+01  0.20077629977E+02  0.51100000000E-03 0. -1.
        -11    1    3    3    0    0 -0.65339890232E+01  0.11683379555E+02 -0.78439788417E+00  0.13409312088E+02  0.51100000000E-03 0.  1.
        -12    1    3    3    0    0 -0.25097826837E+02  0.54103723530E+01  0.26910349808E+01  0.25815009398E+02  0.00000000000E+00 0.  1.
</event>
<event>
 7    1  0.1204848E-011  0.5930194E+02  0.7816164E-02  0.1266605E+00
        -11   -1    0    0    0    0  0.00000000000E+00  0.00000000000E+00  0.45593999997E+02  0.45594000000E+02  0.51100000000E-03 0.  1.
         11   -1    0    0    0    0 -0.00000000000E+00 -0.00000000000E+00 -0.45593999997E+02  0.45594000000E+02  0.51100000000E-03 0. -1.
    9900012    2    1    2    0    0 -0.30475980241E+02  0.73408899980E+01  0.58349669294E+01  0.59301939147E+02  0.49999991099E+02 0.  0.
         12    1    1    2    0    0  0.30475980241E+02 -0.73408899980E+01 -0.58349669294E+01  0.31886060853E+02  0.00000000000E+00 0. -1.
         11    1    3    3    0    0 -0.29145190352E+01  0.11058271906E+02 -0.93743356827E+01  0.14787087898E+02  0.51100000000E-03 0. -1.
        -11    1    3    3    0    0 -0.27199247495E+02 -0.65536218384E+01 -0.10585137858E+01  0.27997669102E+02  0.51100000000E-03 0.  1.
         12    1    3    3    0    0 -0.36221371161E+00  0.28362399309E+01  0.16267816398E+02  0.16517182147E+02  0.00000000000E+00 0. -1.
</event>
<event>
 7    1  0.1204848E-011  0.5930194E+02  0.7816164E-02  0.1266605E+00
        -11   -1    0    0    0    0  0.00000000000E+00  0.00000000000E+00  0.45593999997E+02  0.45594000000E+02  0.51100000000E-03 0. -1.
         11   -1    0    0    0    0 -0.00000000000E+00 -0.00000000000E+00 -0.45593999997E+02  0.45594000000E+02  0.51100000000E-03 0.  1.
    9900012    2    1    2    0    0  0.50450848337E+01 -0.78261635297E+01 -0.30496210281E+02  0.59301944143E+02  0.50000000211E+02 0.  0.
         12    1    1    2    0    0 -0.50450848337E+01  0.78261635297E+01  0.30496210281E+02  0.31886055857E+02  0.00000000000E+00 0. -1.
         11    1    3    3    0    0  0.13682267169E+02  0.10978899363E+02 -0.74049037555E+00  0.17558160278E+02  0.51100000000E-03 0. -1.
        -11    1    3    3    0    0  0.66740078877E+01 -0.85557398342E+01 -0.11195799132E+02  0.15591311166E+02  0.51100000000E-03 0.  1.
        -12    1    3    3    0    0 -0.15311190223E+02 -0.10249323058E+02 -0.18559920774E+02  0.26152472700E+02  0.00000000000E+00 0.  1.
</event>
<event>
 7    1  0.1204848E-011  0.5930195E+02  0.7816164E-02  0.1266605E+00
        -11   -1    0    0    0    0  0.00000000000E+00  0.00000000000E+00  0.45593999997E+02  0.45594000000E+02  0.51100000000E-03 0. -1.
         11   -1    0    0    0    0 -0.00000000000E+00 -0.00000000000E+00 -0.45593999997E+02  0.45594000000E+02  0.51100000000E-03 0.  1.
    9900012    2    1    2    0    0 -0.13554661346E+02  0.20260004490E+02 -0.20555371335E+02  0.59301954198E+02  0.50000018549E+02 0.  0.
         12    1    1    2    0    0  0.13554661346E+02 -0.20260004490E+02  0.20555371335E+02  0.31886045802E+02  0.00000000000E+00 0. -1.
         11    1    3    3    0    0 -0.93298151372E+01  0.21730828948E+02 -0.20344494121E+02  0.31195717952E+02  0.51100000000E-03 0. -1.
        -11    1    3    3    0    0 -0.44099492326E+01  0.12950257580E+02  0.90181463207E-01  0.13680824411E+02  0.51100000000E-03 0.  1.
        -12    1    3    3    0    0  0.18510302346E+00 -0.14421082038E+02 -0.30105867691E+00  0.14425411835E+02  0.00000000000E+00 0.  1.
</event>
<event>
 7    1  0.1204848E-011  0.5930194E+02  0.7816164E-02  0.1266605E+00
        -11   -1    0    0    0    0  0.00000000000E+00  0.00000000000E+00  0.45593999997E+02  0.45594000000E+02  0.51100000000E-03 0. -1.
         11   -1    0    0    0    0 -0.00000000000E+00 -0.00000000000E+00 -0.45593999997E+02  0.45594000000E+02  0.51100000000E-03 0.  1.
    9900012    2    1    2    0    0  0.29076192964E+02 -0.73299786554E+01 -0.10842829663E+02  0.59301944435E+02  0.50000000743E+02 0.  0.
         12    1    1    2    0    0 -0.29076192964E+02  0.73299786554E+01  0.10842829663E+02  0.31886055565E+02  0.00000000000E+00 0. -1.
         11    1    3    3    0    0 -0.55760465212E+01 -0.30949775412E+01  0.29705069393E+01  0.70352748720E+01  0.51100000000E-03 0. -1.
        -11    1    3    3    0    0 -0.21316447200E+00 -0.11288215600E+02 -0.12251982887E+02  0.16660742344E+02  0.51100000000E-03 0.  1.
        -12    1    3    3    0    0  0.34865403957E+02  0.70532144858E+01 -0.15613537154E+01  0.35605927219E+02  0.00000000000E+00 0.  1.
</event>
<event>
 7    1  0.1204848E-011  0.5930200E+02  0.7816164E-02  0.1266605E+00
        -11   -1    0    0    0    0  0.00000000000E+00  0.00000000000E+00  0.45593999997E+02  0.45594000000E+02  0.51100000000E-03 0.  1.
         11   -1    0    0    0    0 -0.00000000000E+00 -0.00000000000E+00 -0.45593999997E+02  0.45594000000E+02  0.51100000000E-03 0. -1.
    9900012    2    1    2    0    0  0.42013663476E+01 -0.29899155586E+02  0.10252129257E+02  0.59301997770E+02  0.50000098012E+02 0.  0.
         12    1    1    2    0    0 -0.42013663476E+01  0.29899155586E+02 -0.10252129257E+02  0.31886002230E+02  0.00000000000E+00 0. -1.
         11    1    3    3    0    0 -0.73657934563E+01  0.42152397452E+01 -0.28563807593E+01  0.89544441846E+01  0.51100000000E-03 0. -1.
        -11    1    3    3    0    0 -0.11112272249E+02 -0.15197378703E+02  0.76116962874E+01  0.20307162151E+02  0.51100000000E-03 0.  1.
        -12    1    3    3    0    0  0.22679432053E+02 -0.18917016628E+02  0.54968137285E+01  0.30040391434E+02  0.00000000000E+00 0.  1.
</event>
<event>
 7    1  0.1204848E-011  0.5930195E+02  0.7816164E-02  0.1266605E+00
        -11   -1    0    0    0    0  0.00000000000E+00  0.00000000000E+00  0.45593999997E+02  0.45594000000E+02  0.51100000000E-03 0.  1.
         11   -1    0    0    0    0 -0.00000000000E+00 -0.00000000000E+00 -0.45593999997E+02  0.45594000000E+02  0.51100000000E-03 0. -1.
    9900012    2    1    2    0    0 -0.13928084034E+02 -0.12355764125E+02  0.25885594316E+02  0.59301946230E+02  0.50000004016E+02 0.  0.
         12    1    1    2    0    0  0.13928084034E+02  0.12355764125E+02 -0.25885594316E+02  0.31886053770E+02  0.00000000000E+00 0. -1.
         11    1    3    3    0    0  0.91039333744E+01 -0.73512237774E+01 -0.27290106517E+01  0.12015389853E+02  0.51100000000E-03 0. -1.
        -11    1    3    3    0    0 -0.72848574836E+01  0.82517079865E+01 -0.11829011747E+01  0.11070640844E+02  0.51100000000E-03 0.  1.
        -12    1    3    3    0    0 -0.15747159925E+02 -0.13256248334E+02  0.29797506142E+02  0.36215915533E+02  0.00000000000E+00 0.  1.
</event>
<event>
 7    1  0.1204848E-011  0.5930195E+02  0.7816164E-02  0.1266605E+00
        -11   -1    0    0    0    0  0.00000000000E+00  0.00000000000E+00  0.45593999997E+02  0.45594000000E+02  0.51100000000E-03 0.  1.
         11   -1    0    0    0    0 -0.00000000000E+00 -0.00000000000E+00 -0.45593999997E+02  0.45594000000E+02  0.51100000000E-03 0. -1.
    9900012    2    1    2    0    0  0.19918609488E+01  0.25706930826E+02  0.18759173004E+02  0.59301947025E+02  0.50000005467E+02 0.  0.
         12    1    1    2    0    0 -0.19918609488E+01 -0.25706930826E+02 -0.18759173004E+02  0.31886052975E+02  0.00000000000E+00 0. -1.
         11    1    3    3    0    0 -0.12049802976E+01  0.19287644484E+02  0.13961378963E+02  0.23840832831E+02  0.51100000000E-03 0.  1.
        -11    1    3    3    0    0  0.13467549191E+02  0.15932872397E+01  0.14985577848E+02  0.20210912625E+02  0.51100000000E-03 0. -1.
         12    1    3    3    0    0 -0.10270707944E+02  0.48259991026E+01 -0.10187783807E+02  0.15250201570E+02  0.00000000000E+00 0. -1.
</event>
<event>
 7    1  0.1204848E-011  0.5930195E+02  0.7816164E-02  0.1266605E+00
        -11   -1    0    0    0    0  0.00000000000E+00  0.00000000000E+00  0.45593999997E+02  0.45594000000E+02  0.51100000000E-03 0. -1.
         11   -1    0    0    0    0 -0.00000000000E+00 -0.00000000000E+00 -0.45593999997E+02  0.45594000000E+02  0.51100000000E-03 0.  1.
    9900012    2    1    2    0    0 -0.25405420359E+02  0.13696169848E+02 -0.13553592476E+02  0.59301947859E+02  0.50000006987E+02 0.  0.
         12    1    1    2    0    0  0.25405420359E+02 -0.13696169848E+02  0.13553592476E+02  0.31886052141E+02  0.00000000000E+00 0. -1.
         11    1    3    3    0    0  0.11676691981E+01  0.60457894616E+01  0.72428649785E+01  0.95065301203E+01  0.51100000000E-03 0. -1.
        -11    1    3    3    0    0 -0.27777143909E+02  0.16114722438E+02 -0.59448659639E+01  0.32658772704E+02  0.51100000000E-03 0.  1.
        -12    1    3    3    0    0  0.12040543516E+01 -0.84643420508E+01 -0.14851591490E+02  0.17136645034E+02  0.00000000000E+00 0.  1.
</event>
<event>
 7    1  0.1204848E-011  0.5930195E+02  0.7816164E-02  0.1266605E+00
        -11   -1    0    0    0    0  0.00000000000E+00  0.00000000000E+00  0.45593999997E+02  0.45594000000E+02  0.51100000000E-03 0.  1.
         11   -1    0    0    0    0 -0.00000000000E+00 -0.00000000000E+00 -0.45593999997E+02  0.45594000000E+02  0.51100000000E-03 0. -1.
    9900012    2    1    2    0    0 -0.47749689192E+01  0.63229570962E+01  0.30885915356E+02  0.59301954745E+02  0.50000019546E+02 0.  0.
         12    1    1    2    0    0  0.47749689192E+01 -0.63229570962E+01 -0.30885915356E+02  0.31886045255E+02  0.00000000000E+00 0. -1.
         11    1    3    3    0    0  0.96695604213E+01 -0.11458188030E+01 -0.40088895303E+01  0.10530170701E+02  0.51100000000E-03 0. -1.
        -11    1    3    3    0    0  0.73713193804E+01 -0.46623011125E+01  0.12462048405E+02  0.15211050318E+02  0.51100000000E-03 0.  1.
         12    1    3    3    0    0 -0.21815848721E+02  0.12131077012E+02  0.22432756482E+02  0.33560733726E+02  0.00000000000E+00 0. -1.
</event>
<event>
 7    1  0.1204848E-011  0.5930194E+02  0.7816164E-02  0.1266605E+00
        -11   -1    0    0    0    0  0.00000000000E+00  0.00000000000E+00  0.45593999997E+02  0.45594000000E+02  0.51100000000E-03 0.  1.
         11   -1    0    0    0    0 -0.00000000000E+00 -0.00000000000E+00 -0.45593999997E+02  0.45594000000E+02  0.51100000000E-03 0. -1.
    9900012    2    1    2    0    0  0.21594930419E+02  0.53402749864E+01  0.22844282336E+02  0.59301940472E+02  0.49999993515E+02 0.  0.
         12    1    1    2    0    0 -0.21594930419E+02 -0.53402749864E+01 -0.22844282336E+02  0.31886059528E+02  0.00000000000E+00 0. -1.
         11    1    3    3    0    0  0.10026503638E+02 -0.14040843309E+02  0.77411096936E+01  0.18910336739E+02  0.51100000000E-03 0. -1.
        -11    1    3    3    0    0  0.14700944613E+02  0.77155873274E+01 -0.46469324841E+01  0.17240708863E+02  0.51100000000E-03 0.  1.
        -12    1    3    3    0    0 -0.31325178322E+01  0.11665530968E+02  0.19750105127E+02  0.23150894870E+02  0.00000000000E+00 0.  1.
</event>
<event>
 7    1  0.1204848E-011  0.5930191E+02  0.7816164E-02  0.1266605E+00
        -11   -1    0    0    0    0  0.00000000000E+00  0.00000000000E+00  0.45593999997E+02  0.45594000000E+02  0.51100000000E-03 0.  1.
         11   -1    0    0    0    0 -0.00000000000E+00 -0.00000000000E+00 -0.45593999997E+02  0.45594000000E+02  0.51100000000E-03 0. -1.
    9900012    2    1    2    0    0  0.15472534130E+02 -0.27861760310E+02 -0.10225098738E+01  0.59301913278E+02  0.49999943921E+02 0.  0.
         12    1    1    2    0    0 -0.15472534130E+02  0.27861760310E+02  0.10225098738E+01  0.31886086722E+02  0.00000000000E+00 0. -1.
         11    1    3    3    0    0 -0.12809008354E+02 -0.37148518225E+01  0.68064046267E+01  0.14973241575E+02  0.51100000000E-03 0. -1.
        -11    1    3    3    0    0  0.79128716625E+01 -0.63295772429E+01  0.80596215532E+01  0.12947377567E+02  0.51100000000E-03 0.  1.
         12    1    3    3    0    0  0.20368670822E+02 -0.17817331245E+02 -0.15888536054E+02  0.31381294136E+02  0.00000000000E+00 0. -1.
</event>
<event>
 7    1  0.1204848E-011  0.5930190E+02  0.7816164E-02  0.1266605E+00
        -11   -1    0    0    0    0  0.00000000000E+00  0.00000000000E+00  0.45593999997E+02  0.45594000000E+02  0.51100000000E-03 0.  1.
         11   -1    0    0    0    0 -0.00000000000E+00 -0.00000000000E+00 -0.45593999997E+02  0.45594000000E+02  0.51100000000E-03 0. -1.
    9900012    2    1    2    0    0 -0.21266243724E+02  0.11822992398E+02  0.20607938741E+02  0.59301899415E+02  0.49999918636E+02 0.  0.
         12    1    1    2    0    0  0.21266243724E+02 -0.11822992398E+02 -0.20607938741E+02  0.31886100585E+02  0.00000000000E+00 0. -1.
         11    1    3    3    0    0  0.71005167958E+00 -0.11257902108E+01  0.19090423630E+01  0.23272344084E+01  0.51100000000E-03 0. -1.
        -11    1    3    3    0    0 -0.37405598841E+01  0.57814629429E+01  0.32362698767E+02  0.33087178389E+02  0.51100000000E-03 0.  1.
         12    1    3    3    0    0 -0.18235735520E+02  0.71673196656E+01 -0.13663802389E+02  0.23887486617E+02  0.00000000000E+00 0. -1.
</event>
<event>
 7    1  0.1204848E-011  0.5930190E+02  0.7816164E-02  0.1266605E+00
        -11   -1    0    0    0    0  0.00000000000E+00  0.00000000000E+00  0.45593999997E+02  0.45594000000E+02  0.51100000000E-03 0.  1.
         11   -1    0    0    0    0 -0.00000000000E+00 -0.00000000000E+00 -0.45593999997E+02  0.45594000000E+02  0.51100000000E-03 0. -1.
    9900012    2    1    2    0    0 -0.22148515927E+02  0.90512493851E+01  0.21077042779E+02  0.59301896357E+02  0.49999913061E+02 0.  0.
         12    1    1    2    0    0  0.22148515927E+02 -0.90512493851E+01 -0.21077042779E+02  0.31886103643E+02  0.00000000000E+00 0. -1.
         11    1    3    3    0    0 -0.21752273056E+02  0.88025117232E+01  0.11197189587E+02  0.26000435586E+02  0.51100000000E-03 0. -1.
        -11    1    3    3    0    0 -0.63996552970E+01 -0.29978327442E+01  0.19933997388E+02  0.21149629812E+02  0.51100000000E-03 0.  1.
         12    1    3    3    0    0  0.60034124254E+01  0.32465704060E+01 -0.10054144196E+02  0.12151830959E+02  0.00000000000E+00 0. -1.
</event>
<event>
 7    1  0.1204848E-011  0.5930195E+02  0.7816164E-02  0.1266605E+00
        -11   -1    0    0    0    0  0.00000000000E+00  0.00000000000E+00  0.45593999997E+02  0.45594000000E+02  0.51100000000E-03 0. -1.
         11   -1    0    0    0    0 -0.00000000000E+00 -0.00000000000E+00 -0.45593999997E+02  0.45594000000E+02  0.51100000000E-03 0.  1.
    9900012    2    1    2    0    0  0.22669416895E+02 -0.22167468820E+02 -0.33794706832E+01  0.59301953548E+02  0.50000017362E+02 0.  0.
         12    1    1    2    0    0 -0.22669416895E+02  0.22167468820E+02  0.33794706832E+01  0.31886046452E+02  0.00000000000E+00 0. -1.
         11    1    3    3    0    0 -0.29643914687E+01 -0.65018306197E+01 -0.12305675613E+01  0.72509113201E+01  0.51100000000E-03 0. -1.
        -11    1    3    3    0    0 -0.90762561206E+01 -0.13790890666E+02 -0.47893125354E+01  0.17190247390E+02  0.51100000000E-03 0.  1.
         12    1    3    3    0    0  0.34710064484E+02 -0.18747475344E+01  0.26404094135E+01  0.34860794837E+02  0.00000000000E+00 0. -1.
</event>
<event>
 7    1  0.1204848E-011  0.5930195E+02  0.7816164E-02  0.1266605E+00
        -11   -1    0    0    0    0  0.00000000000E+00  0.00000000000E+00  0.45593999997E+02  0.45594000000E+02  0.51100000000E-03 0. -1.
         11   -1    0    0    0    0 -0.00000000000E+00 -0.00000000000E+00 -0.45593999997E+02  0.45594000000E+02  0.51100000000E-03 0.  1.
    9900012    2    1    2    0    0 -0.53115294830E+01 -0.27430501260E+02  0.15364740791E+02  0.59301952825E+02  0.50000016045E+02 0.  0.
         12    1    1    2    0    0  0.53115294830E+01  0.27430501260E+02 -0.15364740791E+02  0.31886047175E+02  0.00000000000E+00 0. -1.
         11    1    3    3    0    0 -0.11646763550E+02 -0.76996915769E+01  0.15173018101E+02  0.20619234470E+02  0.51100000000E-03 0. -1.
        -11    1    3    3    0    0  0.12745077760E+02  0.45763338645E+01 -0.13742228295E+00  0.13542478499E+02  0.51100000000E-03 0.  1.
        -12    1    3    3    0    0 -0.64098436933E+01 -0.24307143548E+02  0.32914497311E+00  0.25140239857E+02  0.00000000000E+00 0.  1.
</event>
<event>
 7    1  0.1204848E-011  0.5930190E+02  0.7816164E-02  0.1266605E+00
        -11   -1    0    0    0    0  0.00000000000E+00  0.00000000000E+00  0.45593999997E+02  0.45594000000E+02  0.51100000000E-03 0.  1.
         11   -1    0    0    0    0 -0.00000000000E+00 -0.00000000000E+00 -0.45593999997E+02  0.45594000000E+02  0.51100000000E-03 0. -1.
    9900012    2    1    2    0    0 -0.12386203835E+02 -0.11383822258E+02  0.27087155259E+02  0.59301899036E+02  0.49999917946E+02 0.  0.
         12    1    1    2    0    0  0.12386203835E+02  0.11383822258E+02 -0.27087155259E+02  0.31886100964E+02  0.00000000000E+00 0. -1.
         11    1    3    3    0    0 -0.12256683466E+02  0.51676393512E+01  0.12286554506E+02  0.18107738896E+02  0.51100000000E-03 0.  1.
        -11    1    3    3    0    0 -0.16497836962E+02 -0.25367712881E+01  0.85691265449E+01  0.18762829291E+02  0.51100000000E-03 0. -1.
         12    1    3    3    0    0  0.16368316592E+02 -0.14014690321E+02  0.62314742082E+01  0.22431330849E+02  0.00000000000E+00 0. -1.
</event>
<event>
 7    1  0.1204848E-011  0.5930200E+02  0.7816164E-02  0.1266605E+00
        -11   -1    0    0    0    0  0.00000000000E+00  0.00000000000E+00  0.45593999997E+02  0.45594000000E+02  0.51100000000E-03 0. -1.
         11   -1    0    0    0    0 -0.00000000000E+00 -0.00000000000E+00 -0.45593999997E+02  0.45594000000E+02  0.51100000000E-03 0.  1.
    9900012    2    1    2    0    0  0.20612383834E+02 -0.21796926603E+02 -0.10804662950E+02  0.59301998085E+02  0.50000098588E+02 0.  0.
         12    1    1    2    0    0 -0.20612383834E+02  0.21796926603E+02  0.10804662950E+02  0.31886001915E+02  0.00000000000E+00 0. -1.
         11    1    3    3    0    0  0.10856897298E+02 -0.15381318265E+01 -0.77117596457E+01  0.13405569945E+02  0.51100000000E-03 0. -1.
        -11    1    3    3    0    0  0.53752976761E+01 -0.12783218180E+02 -0.21481570708E+02  0.25568777298E+02  0.51100000000E-03 0.  1.
         12    1    3    3    0    0  0.43801888605E+01 -0.74755765965E+01  0.18388667404E+02  0.20327650843E+02  0.00000000000E+00 0. -1.
</event>
<event>
 7    1  0.1204848E-011  0.5930192E+02  0.7816164E-02  0.1266605E+00
        -11   -1    0    0    0    0  0.00000000000E+00  0.00000000000E+00  0.45593999997E+02  0.45594000000E+02  0.51100000000E-03 0. -1.
         11   -1    0    0    0    0 -0.00000000000E+00 -0.00000000000E+00 -0.45593999997E+02  0.45594000000E+02  0.51100000000E-03 0.  1.
    9900012    2    1    2    0    0  0.26187641359E+02  0.11723780545E+02  0.13909792133E+02  0.59301922985E+02  0.49999961623E+02 0.  0.
         12    1    1    2    0    0 -0.26187641359E+02 -0.11723780545E+02 -0.13909792133E+02  0.31886077015E+02  0.00000000000E+00 0. -1.
         11    1    3    3    0    0  0.20802509184E+02  0.82130330095E+01 -0.57266036131E+01  0.23086625755E+02  0.51100000000E-03 0. -1.
        -11    1    3    3    0    0  0.47176635269E+01 -0.75058150342E+01 -0.43028798957E+01  0.98543586366E+01  0.51100000000E-03 0.  1.
         12    1    3    3    0    0  0.66746864829E+00  0.11016562569E+02  0.23939275642E+02  0.26360938593E+02  0.00000000000E+00 0. -1.
</event>
<event>
 7    1  0.1204848E-011  0.5930191E+02  0.7816164E-02  0.1266605E+00
        -11   -1    0    0    0    0  0.00000000000E+00  0.00000000000E+00  0.45593999997E+02  0.45594000000E+02  0.51100000000E-03 0.  1.
         11   -1    0    0    0    0 -0.00000000000E+00 -0.00000000000E+00 -0.45593999997E+02  0.45594000000E+02  0.51100000000E-03 0. -1.
    9900012    2    1    2    0    0 -0.26337300725E+02  0.15513372256E+02 -0.90777064260E+01  0.59301907700E+02  0.49999933747E+02 0.  0.
         12    1    1    2    0    0  0.26337300725E+02 -0.15513372256E+02  0.90777064260E+01  0.31886092300E+02  0.00000000000E+00 0. -1.
         11    1    3    3    0    0 -0.17928932031E+02  0.28150667612E+02 -0.13040137980E+02  0.35832274412E+02  0.51100000000E-03 0. -1.
        -11    1    3    3    0    0 -0.46320491177E+01  0.27814646663E+01  0.52621346085E+01  0.75420478398E+01  0.51100000000E-03 0.  1.
         12    1    3    3    0    0 -0.37763195761E+01 -0.15418760022E+02 -0.12997030549E+01  0.15927585448E+02  0.00000000000E+00 0. -1.
</event>
<event>
 7    1  0.1204848E-011  0.5930196E+02  0.7816164E-02  0.1266605E+00
        -11   -1    0    0    0    0  0.00000000000E+00  0.00000000000E+00  0.45593999997E+02  0.45594000000E+02  0.51100000000E-03 0. -1.
         11   -1    0    0    0    0 -0.00000000000E+00 -0.00000000000E+00 -0.45593999997E+02  0.45594000000E+02  0.51100000000E-03 0.  1.
    9900012    2    1    2    0    0  0.19816570256E+02 -0.13490292231E+02 -0.21024629465E+02  0.59301960965E+02  0.50000030890E+02 0.  0.
         12    1    1    2    0    0 -0.19816570256E+02  0.13490292231E+02  0.21024629465E+02  0.31886039035E+02  0.00000000000E+00 0. -1.
         11    1    3    3    0    0 -0.22069039136E+01 -0.13825320362E+00 -0.10713612768E+01  0.24571027814E+01  0.51100000000E-03 0. -1.
        -11    1    3    3    0    0  0.23779564895E+01  0.26079008314E+01 -0.29561312191E+02  0.29771244558E+02  0.51100000000E-03 0.  1.
        -12    1    3    3    0    0  0.19645517680E+02 -0.15959939859E+02  0.96080440025E+01  0.27073613626E+02  0.00000000000E+00 0.  1.
</event>
<event>
 7    1  0.1204848E-011  0.5930193E+02  0.7816164E-02  0.1266605E+00
        -11   -1    0    0    0    0  0.00000000000E+00  0.00000000000E+00  0.45593999997E+02  0.45594000000E+02  0.51100000000E-03 0.  1.
         11   -1    0    0    0    0 -0.00000000000E+00 -0.00000000000E+00 -0.45593999997E+02  0.45594000000E+02  0.51100000000E-03 0. -1.
    9900012    2    1    2    0    0 -0.29146992659E+02 -0.65712001450E+01 -0.11135249641E+02  0.59301927226E+02  0.49999969357E+02 0.  0.
         12    1    1    2    0    0  0.29146992659E+02  0.65712001450E+01  0.11135249641E+02  0.31886072774E+02  0.00000000000E+00 0. -1.
         11    1    3    3    0    0 -0.22617691992E+02  0.39123208029E+01 -0.12404361650E+01  0.22987059996E+02  0.51100000000E-03 0. -1.
        -11    1    3    3    0    0 -0.43876015700E+01  0.71834768917E+01  0.76135302302E+01  0.11349855973E+02  0.51100000000E-03 0.  1.
         12    1    3    3    0    0 -0.21416990967E+01 -0.17666997840E+02 -0.17508343706E+02  0.24965011256E+02  0.00000000000E+00 0. -1.
</event>
<event>
 7    1  0.1204848E-011  0.5930184E+02  0.7816164E-02  0.1266605E+00
        -11   -1    0    0    0    0  0.00000000000E+00  0.00000000000E+00  0.45593999997E+02  0.45594000000E+02  0.51100000000E-03 0.  1.
         11   -1    0    0    0    0 -0.00000000000E+00 -0.00000000000E+00 -0.45593999997E+02  0.45594000000E+02  0.51100000000E-03 0. -1.
    9900012    2    1    2    0    0 -0.92925317487E+01  0.15246537439E+02  0.26418164509E+02  0.59301835819E+02  0.49999802653E+02 0.  0.
         12    1    1    2    0    0  0.92925317487E+01 -0.15246537439E+02 -0.26418164509E+02  0.31886164181E+02  0.00000000000E+00 0. -1.
         11    1    3    3    0    0  0.71867740283E+01  0.79445758314E+01 -0.49162592886E+01  0.11787095135E+02  0.51100000000E-03 0. -1.
        -11    1    3    3    0    0  0.46860731851E+01 -0.71518315168E+01  0.14555709410E+02  0.16881251513E+02  0.51100000000E-03 0.  1.
         12    1    3    3    0    0 -0.21165378962E+02  0.14453793124E+02  0.16778714387E+02  0.30633489171E+02  0.00000000000E+00 0. -1.
</event>
<event>
 7    1  0.1204848E-011  0.5930193E+02  0.7816164E-02  0.1266605E+00
        -11   -1    0    0    0    0  0.00000000000E+00  0.00000000000E+00  0.45593999997E+02  0.45594000000E+02  0.51100000000E-03 0. -1.
         11   -1    0    0    0    0 -0.00000000000E+00 -0.00000000000E+00 -0.45593999997E+02  0.45594000000E+02  0.51100000000E-03 0.  1.
    9900012    2    1    2    0    0 -0.26311489799E+01  0.30885099393E+02 -0.74772607337E+01  0.59301925649E+02  0.49999966481E+02 0.  0.
         12    1    1    2    0    0  0.26311489799E+01 -0.30885099393E+02  0.74772607337E+01  0.31886074351E+02  0.00000000000E+00 0. -1.
         11    1    3    3    0    0 -0.14024758932E+02  0.33931466874E+02  0.38070831452E+01  0.36912493679E+02  0.51100000000E-03 0. -1.
        -11    1    3    3    0    0 -0.39344256946E-01 -0.16147119590E+01 -0.10733161903E+02  0.10854013423E+02  0.51100000000E-03 0.  1.
        -12    1    3    3    0    0  0.11432954209E+02 -0.14316555219E+01 -0.55118197557E+00  0.11535418547E+02  0.00000000000E+00 0.  1.
</event>
<event>
 7    1  0.1204848E-011  0.5930194E+02  0.7816164E-02  0.1266605E+00
        -11   -1    0    0    0    0  0.00000000000E+00  0.00000000000E+00  0.45593999997E+02  0.45594000000E+02  0.51100000000E-03 0.  1.
         11   -1    0    0    0    0 -0.00000000000E+00 -0.00000000000E+00 -0.45593999997E+02  0.45594000000E+02  0.51100000000E-03 0. -1.
    9900012    2    1    2    0    0  0.23918686449E+00  0.31880136097E+02 -0.56590115437E+00  0.59301944552E+02  0.50000000956E+02 0.  0.
         12    1    1    2    0    0 -0.23918686449E+00 -0.31880136097E+02  0.56590115437E+00  0.31886055448E+02  0.00000000000E+00 0. -1.
         11    1    3    3    0    0  0.57573520087E+01  0.21179841046E+02  0.21655334910E+01  0.22054983664E+02  0.51100000000E-03 0. -1.
        -11    1    3    3    0    0  0.36281041816E+01  0.47017382598E+01  0.15157328309E+02  0.16279253187E+02  0.51100000000E-03 0.  1.
         12    1    3    3    0    0 -0.91462693258E+01  0.59985567916E+01 -0.17888762954E+02  0.20967707700E+02  0.00000000000E+00 0. -1.
</event>
<event>
 7    1  0.1204848E-011  0.5930194E+02  0.7816164E-02  0.1266605E+00
        -11   -1    0    0    0    0  0.00000000000E+00  0.00000000000E+00  0.45593999997E+02  0.45594000000E+02  0.51100000000E-03 0. -1.
         11   -1    0    0    0    0 -0.00000000000E+00 -0.00000000000E+00 -0.45593999997E+02  0.45594000000E+02  0.51100000000E-03 0.  1.
    9900012    2    1    2    0    0  0.30421691443E+02  0.85475148727E+01 -0.42639431268E+01  0.59301944557E+02  0.50000000965E+02 0.  0.
         12    1    1    2    0    0 -0.30421691443E+02 -0.85475148727E+01  0.42639431268E+01  0.31886055443E+02  0.00000000000E+00 0. -1.
         11    1    3    3    0    0  0.11734426399E+02  0.90090958895E+01  0.39620665649E+01  0.15315304221E+02  0.51100000000E-03 0. -1.
        -11    1    3    3    0    0 -0.16593191069E+01  0.14611951574E+02 -0.11207709253E+02  0.18489867919E+02  0.51100000000E-03 0.  1.
         12    1    3    3    0    0  0.20346584151E+02 -0.15073532591E+02  0.29816995617E+01  0.25496772416E+02  0.00000000000E+00 0. -1.
</event>
<event>
 7    1  0.1204848E-011  0.5930196E+02  0.7816164E-02  0.1266605E+00
        -11   -1    0    0    0    0  0.00000000000E+00  0.00000000000E+00  0.45593999997E+02  0.45594000000E+02  0.51100000000E-03 0.  1.
         11   -1    0    0    0    0 -0.00000000000E+00 -0.00000000000E+00 -0.45593999997E+02  0.45594000000E+02  0.51100000000E-03 0. -1.
    9900012    2    1    2    0    0  0.88164899556E+01  0.27038879421E+02  0.14418328622E+02  0.59301957666E+02  0.50000024872E+02 0.  0.
         12    1    1    2    0    0 -0.88164899556E+01 -0.27038879421E+02 -0.14418328622E+02  0.31886042334E+02  0.00000000000E+00 0. -1.
         11    1    3    3    0    0 -0.79372648351E+01  0.21109769355E+02 -0.40513068412E+01  0.22913655812E+02  0.51100000000E-03 0. -1.
        -11    1    3    3    0    0 -0.48945512326E+01  0.80859964317E+01  0.40196974051E+01  0.10271218893E+02  0.51100000000E-03 0.  1.
         12    1    3    3    0    0  0.21648306023E+02 -0.21568863655E+01  0.14449938058E+02  0.26117082960E+02  0.00000000000E+00 0. -1.
</event>
<event>
 7    1  0.1204848E-011  0.5930196E+02  0.7816164E-02  0.1266605E+00
        -11   -1    0    0    0    0  0.00000000000E+00  0.00000000000E+00  0.45593999997E+02  0.45594000000E+02  0.51100000000E-03 0.  1.
         11   -1    0    0    0    0 -0.00000000000E+00 -0.00000000000E+00 -0.45593999997E+02  0.45594000000E+02  0.51100000000E-03 0. -1.
    9900012    2    1    2    0    0  0.55811291776E+01 -0.17796921335E+01  0.31343309360E+02  0.59301963109E+02  0.50000034800E+02 0.  0.
         12    1    1    2    0    0 -0.55811291776E+01  0.17796921335E+01 -0.31343309360E+02  0.31886036891E+02  0.00000000000E+00 0. -1.
         11    1    3    3    0    0  0.19391942126E+01  0.85102867150E+01 -0.23951110157E+01  0.90510779029E+01  0.51100000000E-03 0. -1.
        -11    1    3    3    0    0 -0.66349890167E+01  0.72729371060E+01 -0.10990286968E+01  0.99058850053E+01  0.51100000000E-03 0.  1.
         12    1    3    3    0    0  0.10276923982E+02 -0.17562915955E+02  0.34837449072E+02  0.40345000201E+02  0.00000000000E+00 0. -1.
</event>
<event>
 7    1  0.1204848E-011  0.5930195E+02  0.7816164E-02  0.1266605E+00
        -11   -1    0    0    0    0  0.00000000000E+00  0.00000000000E+00  0.45593999997E+02  0.45594000000E+02  0.51100000000E-03 0. -1.
         11   -1    0    0    0    0 -0.00000000000E+00 -0.00000000000E+00 -0.45593999997E+02  0.45594000000E+02  0.51100000000E-03 0.  1.
    9900012    2    1    2    0    0 -0.10437745909E+02 -0.20275617527E+02 -0.22286158513E+02  0.59301951844E+02  0.50000014255E+02 0.  0.
         12    1    1    2    0    0  0.10437745909E+02  0.20275617527E+02  0.22286158513E+02  0.31886048156E+02  0.00000000000E+00 0. -1.
         11    1    3    3    0    0  0.71142355083E+01 -0.15012073711E+02  0.81371673270E+01  0.18498329555E+02  0.51100000000E-03 0. -1.
        -11    1    3    3    0    0  0.18674576833E+01 -0.59098299925E+01 -0.22787797729E+01  0.66035086321E+01  0.51100000000E-03 0.  1.
         12    1    3    3    0    0 -0.19419439100E+02  0.64628617628E+00 -0.28144546067E+02  0.34200113656E+02  0.00000000000E+00 0. -1.
</event>
<event>
 7    1  0.1204848E-011  0.5930191E+02  0.7816164E-02  0.1266605E+00
        -11   -1    0    0    0    0  0.00000000000E+00  0.00000000000E+00  0.45593999997E+02  0.45594000000E+02  0.51100000000E-03 0. -1.
         11   -1    0    0    0    0 -0.00000000000E+00 -0.00000000000E+00 -0.45593999997E+02  0.45594000000E+02  0.51100000000E-03 0.  1.
    9900012    2    1    2    0    0  0.11597380363E+02  0.29701567411E+02  0.20147443217E+00  0.59301906951E+02  0.49999932381E+02 0.  0.
         12    1    1    2    0    0 -0.11597380363E+02 -0.29701567411E+02 -0.20147443217E+00  0.31886093049E+02  0.00000000000E+00 0. -1.
         11    1    3    3    0    0 -0.92786425636E+01  0.13191986352E+02 -0.35073794498E+01  0.16505254394E+02  0.51100000000E-03 0. -1.
        -11    1    3    3    0    0  0.83662273409E+01  0.25407589800E+02 -0.91088843774E+00  0.26765072340E+02  0.51100000000E-03 0.  1.
        -12    1    3    3    0    0  0.12509795586E+02 -0.88980087411E+01  0.46197423197E+01  0.16031580217E+02  0.00000000000E+00 0.  1.
</event>
<event>
 7    1  0.1204848E-011  0.5930196E+02  0.7816164E-02  0.1266605E+00
        -11   -1    0    0    0    0  0.00000000000E+00  0.00000000000E+00  0.45593999997E+02  0.45594000000E+02  0.51100000000E-03 0.  1.
         11   -1    0    0    0    0 -0.00000000000E+00 -0.00000000000E+00 -0.45593999997E+02  0.45594000000E+02  0.51100000000E-03 0. -1.
    9900012    2    1    2    0    0  0.11230789702E+02  0.32076476097E+01  0.29669852943E+02  0.59301955809E+02  0.50000021486E+02 0.  0.
         12    1    1    2    0    0 -0.11230789702E+02 -0.32076476097E+01 -0.29669852943E+02  0.31886044191E+02  0.00000000000E+00 0. -1.
         11    1    3    3    0    0 -0.14028869268E+01 -0.95001404485E+01  0.57101782659E-01  0.96033338557E+01  0.51100000000E-03 0. -1.
        -11    1    3    3    0    0 -0.41078030926E+01 -0.82001751950E+01 -0.75961956673E+00  0.92029311431E+01  0.51100000000E-03 0.  1.
        -12    1    3    3    0    0  0.16741479721E+02  0.20907963253E+02  0.30372370727E+02  0.40495690810E+02  0.00000000000E+00 0.  1.
</event>
<event>
 7    1  0.1204848E-011  0.5930194E+02  0.7816164E-02  0.1266605E+00
        -11   -1    0    0    0    0  0.00000000000E+00  0.00000000000E+00  0.45593999997E+02  0.45594000000E+02  0.51100000000E-03 0.  1.
         11   -1    0    0    0    0 -0.00000000000E+00 -0.00000000000E+00 -0.45593999997E+02  0.45594000000E+02  0.51100000000E-03 0. -1.
    9900012    2    1    2    0    0  0.16656294775E+02 -0.12925255269E+02  0.23921250307E+02  0.59301943554E+02  0.49999999136E+02 0.  0.
         12    1    1    2    0    0 -0.16656294775E+02  0.12925255269E+02 -0.23921250307E+02  0.31886056446E+02  0.00000000000E+00 0. -1.
         11    1    3    3    0    0 -0.13424405771E+02 -0.61276403251E+01 -0.51764232385E+01  0.15638350426E+02  0.51100000000E-03 0. -1.
        -11    1    3    3    0    0  0.76266495736E+01  0.27811161882E+01  0.65265060780E+01  0.10416125615E+02  0.51100000000E-03 0.  1.
        -12    1    3    3    0    0  0.22454050973E+02 -0.95787311322E+01  0.22571167468E+02  0.33247467513E+02  0.00000000000E+00 0.  1.
</event>
<event>
 7    1  0.1204848E-011  0.5930194E+02  0.7816164E-02  0.1266605E+00
        -11   -1    0    0    0    0  0.00000000000E+00  0.00000000000E+00  0.45593999997E+02  0.45594000000E+02  0.51100000000E-03 0.  1.
         11   -1    0    0    0    0 -0.00000000000E+00 -0.00000000000E+00 -0.45593999997E+02  0.45594000000E+02  0.51100000000E-03 0. -1.
    9900012    2    1    2    0    0  0.31836865161E+02 -0.26924792097E+00  0.17499764190E+01  0.59301938857E+02  0.49999990570E+02 0.  0.
         12    1    1    2    0    0 -0.31836865161E+02  0.26924792097E+00 -0.17499764190E+01  0.31886061143E+02  0.00000000000E+00 0. -1.
         11    1    3    3    0    0  0.56278837018E+01 -0.22173100759E+02 -0.44383011328E+01  0.23302746393E+02  0.51100000000E-03 0. -1.
        -11    1    3    3    0    0  0.11550065472E+01  0.35735964706E+01 -0.14566229200E+01  0.40281984126E+01  0.51100000000E-03 0.  1.
        -12    1    3    3    0    0  0.25053974912E+02  0.18330256368E+02  0.76449004718E+01  0.31970994052E+02  0.00000000000E+00 0.  1.
</event>
<event>
 7    1  0.1204848E-011  0.5930194E+02  0.7816164E-02  0.1266605E+00
        -11   -1    0    0    0    0  0.00000000000E+00  0.00000000000E+00  0.45593999997E+02  0.45594000000E+02  0.51100000000E-03 0. -1.
         11   -1    0    0    0    0 -0.00000000000E+00 -0.00000000000E+00 -0.45593999997E+02  0.45594000000E+02  0.51100000000E-03 0.  1.
    9900012    2    1    2    0    0 -0.22251445774E+02 -0.18776948723E+02 -0.13000772522E+02  0.59301941470E+02  0.49999995336E+02 0.  0.
         12    1    1    2    0    0  0.22251445774E+02  0.18776948723E+02  0.13000772522E+02  0.31886058530E+02  0.00000000000E+00 0. -1.
         11    1    3    3    0    0 -0.46986448452E+00 -0.36310182072E+01  0.91970410399E+01  0.98990216691E+01  0.51100000000E-03 0. -1.
        -11    1    3    3    0    0 -0.19075880344E+02 -0.17561070998E+02  0.97627642053E+00  0.25946744332E+02  0.51100000000E-03 0.  1.
        -12    1    3    3    0    0 -0.27057009460E+01  0.24151404826E+01 -0.23174089982E+02  0.23456175470E+02  0.00000000000E+00 0.  1.
</event>
<event>
 7    1  0.1204848E-011  0.5930196E+02  0.7816164E-02  0.1266605E+00
        -11   -1    0    0    0    0  0.00000000000E+00  0.00000000000E+00  0.45593999997E+02  0.45594000000E+02  0.51100000000E-03 0. -1.
         11   -1    0    0    0    0 -0.00000000000E+00 -0.00000000000E+00 -0.45593999997E+02  0.45594000000E+02  0.51100000000E-03 0.  1.
    9900012    2    1    2    0    0 -0.29282933542E+02  0.12319938891E+02 -0.27291746180E+01  0.59301960967E+02  0.50000030894E+02 0.  0.
         12    1    1    2    0    0  0.29282933542E+02 -0.12319938891E+02  0.27291746180E+01  0.31886039033E+02  0.00000000000E+00 0. -1.
         11    1    3    3    0    0 -0.18044812872E+02 -0.47384774807E+01 -0.35868263739E+01  0.18998256870E+02  0.51100000000E-03 0. -1.
        -11    1    3    3    0    0  0.92346632764E+01  0.29177275036E+01 -0.93015595562E+01  0.13427998736E+02  0.51100000000E-03 0.  1.
         12    1    3    3    0    0 -0.20472783947E+02  0.14140688868E+02  0.10159211312E+02  0.26875705361E+02  0.00000000000E+00 0. -1.
</event>
<event>
 7    1  0.1204848E-011  0.5930196E+02  0.7816164E-02  0.1266605E+00
        -11   -1    0    0    0    0  0.00000000000E+00  0.00000000000E+00  0.45593999997E+02  0.45594000000E+02  0.51100000000E-03 0.  1.
         11   -1    0    0    0    0 -0.00000000000E+00 -0.00000000000E+00 -0.45593999997E+02  0.45594000000E+02  0.51100000000E-03 0. -1.
    9900012    2    1    2    0    0  0.16601740063E+02  0.13807682342E+02  0.23461665725E+02  0.59301958800E+02  0.50000026941E+02 0.  0.
         12    1    1    2    0    0 -0.16601740063E+02 -0.13807682342E+02 -0.23461665725E+02  0.31886041200E+02  0.00000000000E+00 0. -1.
         11    1    3    3    0    0  0.87251580374E+01 -0.81922445769E+00 -0.46253792273E+01  0.99092706465E+01  0.51100000000E-03 0. -1.
        -11    1    3    3    0    0  0.22193446325E+02  0.11628985754E+02  0.12441901848E+02  0.27974690192E+02  0.51100000000E-03 0.  1.
         12    1    3    3    0    0 -0.14316864299E+02  0.29979210459E+01  0.15645143104E+02  0.21417997962E+02  0.00000000000E+00 0. -1.
</event>
<event>
 7    1  0.1204848E-011  0.5930195E+02  0.7816164E-02  0.1266605E+00
        -11   -1    0    0    0    0  0.00000000000E+00  0.00000000000E+00  0.45593999997E+02  0.45594000000E+02  0.51100000000E-03 0.  1.
         11   -1    0    0    0    0 -0.00000000000E+00 -0.00000000000E+00 -0.45593999997E+02  0.45594000000E+02  0.51100000000E-03 0. -1.
    9900012    2    1    2    0    0 -0.10907333073E+02 -0.16750743935E+02 -0.24842762125E+02  0.59301950274E+02  0.50000011392E+02 0.  0.
         12    1    1    2    0    0  0.10907333073E+02  0.16750743935E+02  0.24842762125E+02  0.31886049726E+02  0.00000000000E+00 0. -1.
         11    1    3    3    0    0 -0.22582746025E+02 -0.91674851370E+00 -0.68550755484E+01  0.23618063149E+02  0.51100000000E-03 0. -1.
        -11    1    3    3    0    0 -0.67297352741E+01 -0.30456790795E+00 -0.38440469797E+01  0.77562101514E+01  0.51100000000E-03 0.  1.
        -12    1    3    3    0    0  0.18405148226E+02 -0.15529427513E+02 -0.14143639596E+02  0.27927676974E+02  0.00000000000E+00 0.  1.
</event>
<event>
 7    1  0.1204848E-011  0.5930192E+02  0.7816164E-02  0.1266605E+00
        -11   -1    0    0    0    0  0.00000000000E+00  0.00000000000E+00  0.45593999997E+02  0.45594000000E+02  0.51100000000E-03 0.  1.
         11   -1    0    0    0    0 -0.00000000000E+00 -0.00000000000E+00 -0.45593999997E+02  0.45594000000E+02  0.51100000000E-03 0. -1.
    9900012    2    1    2    0    0  0.28027964369E+01 -0.31519233433E+02 -0.39248150922E+01  0.59301922825E+02  0.49999961332E+02 0.  0.
         12    1    1    2    0    0 -0.28027964369E+01  0.31519233433E+02  0.39248150922E+01  0.31886077175E+02  0.00000000000E+00 0. -1.
         11    1    3    3    0    0 -0.22928388152E+01  0.12589364793E+02 -0.47452828288E+01  0.13647964138E+02  0.51100000000E-03 0. -1.
        -11    1    3    3    0    0  0.74321402000E+01 -0.18592364057E+02  0.49351613421E+00  0.20028885831E+02  0.51100000000E-03 0.  1.
        -12    1    3    3    0    0 -0.23365049479E+01 -0.25516234169E+02  0.32695160243E+00  0.25625072856E+02  0.00000000000E+00 0.  1.
</event>
<event>
 7    1  0.1204848E-011  0.5930191E+02  0.7816164E-02  0.1266605E+00
        -11   -1    0    0    0    0  0.00000000000E+00  0.00000000000E+00  0.45593999997E+02  0.45594000000E+02  0.51100000000E-03 0.  1.
         11   -1    0    0    0    0 -0.00000000000E+00 -0.00000000000E+00 -0.45593999997E+02  0.45594000000E+02  0.51100000000E-03 0. -1.
    9900012    2    1    2    0    0  0.42998725345E+01 -0.30971656807E+02  0.62442350915E+01  0.59301907404E+02  0.49999933207E+02 0.  0.
         12    1    1    2    0    0 -0.42998725345E+01  0.30971656807E+02 -0.62442350915E+01  0.31886092596E+02  0.00000000000E+00 0. -1.
         11    1    3    3    0    0  0.13448426406E+02 -0.14113678218E+02  0.93660473674E+01  0.21628197549E+02  0.51100000000E-03 0. -1.
        -11    1    3    3    0    0  0.94101093684E+01 -0.15892915373E+02 -0.45913546438E+01  0.19031958783E+02  0.51100000000E-03 0.  1.
         12    1    3    3    0    0 -0.18558663240E+02 -0.96506321548E+00  0.14695423679E+01  0.18641751072E+02  0.00000000000E+00 0. -1.
</event>
<event>
 7    1  0.1204848E-011  0.5930195E+02  0.7816164E-02  0.1266605E+00
        -11   -1    0    0    0    0  0.00000000000E+00  0.00000000000E+00  0.45593999997E+02  0.45594000000E+02  0.51100000000E-03 0. -1.
         11   -1    0    0    0    0 -0.00000000000E+00 -0.00000000000E+00 -0.45593999997E+02  0.45594000000E+02  0.51100000000E-03 0.  1.
    9900012    2    1    2    0    0 -0.86452082925E+01  0.20427431982E+02  0.22906349068E+02  0.59301946130E+02  0.50000003834E+02 0.  0.
         12    1    1    2    0    0  0.86452082925E+01 -0.20427431982E+02 -0.22906349068E+02  0.31886053870E+02  0.00000000000E+00 0. -1.
         11    1    3    3    0    0  0.14520179467E+01 -0.29426383936E+01  0.17641479982E+02  0.17944060105E+02  0.51100000000E-03 0. -1.
        -11    1    3    3    0    0 -0.14845412082E+02  0.19924029365E+02  0.15696699053E+02  0.29389446532E+02  0.51100000000E-03 0.  1.
         12    1    3    3    0    0  0.47481858425E+01  0.34460410106E+01 -0.10431829967E+02  0.11968439494E+02  0.00000000000E+00 0. -1.
</event>
<event>
 7    1  0.1204848E-011  0.5930195E+02  0.7816164E-02  0.1266605E+00
        -11   -1    0    0    0    0  0.00000000000E+00  0.00000000000E+00  0.45593999997E+02  0.45594000000E+02  0.51100000000E-03 0. -1.
         11   -1    0    0    0    0 -0.00000000000E+00 -0.00000000000E+00 -0.45593999997E+02  0.45594000000E+02  0.51100000000E-03 0.  1.
    9900012    2    1    2    0    0  0.13615410042E+02  0.27599941537E+02 -0.83417147540E+01  0.59301947116E+02  0.50000005633E+02 0.  0.
         12    1    1    2    0    0 -0.13615410042E+02 -0.27599941537E+02  0.83417147540E+01  0.31886052884E+02  0.00000000000E+00 0. -1.
         11    1    3    3    0    0  0.25538768501E+02  0.13616302834E+01  0.93922316422E-01  0.25575213689E+02  0.51100000000E-03 0. -1.
        -11    1    3    3    0    0 -0.75020910701E+01  0.24598137259E+01  0.57679341705E+00  0.79161066755E+01  0.51100000000E-03 0.  1.
        -12    1    3    3    0    0 -0.44212673890E+01  0.23778497528E+02 -0.90124304875E+01  0.25810626752E+02  0.00000000000E+00 0.  1.
</event>
<event>
 7    1  0.1204848E-011  0.5930194E+02  0.7816164E-02  0.1266605E+00
        -11   -1    0    0    0    0  0.00000000000E+00  0.00000000000E+00  0.45593999997E+02  0.45594000000E+02  0.51100000000E-03 0.  1.
         11   -1    0    0    0    0 -0.00000000000E+00 -0.00000000000E+00 -0.45593999997E+02  0.45594000000E+02  0.51100000000E-03 0. -1.
    9900012    2    1    2    0    0 -0.13619269142E+02 -0.18412822842E+01  0.28772312819E+02  0.59301940392E+02  0.49999993369E+02 0.  0.
         12    1    1    2    0    0  0.13619269142E+02  0.18412822842E+01 -0.28772312819E+02  0.31886059608E+02  0.00000000000E+00 0. -1.
         11    1    3    3    0    0 -0.20021144548E+01  0.13395859059E+01 -0.48890628066E+01  0.54503108239E+01  0.51100000000E-03 0. -1.
        -11    1    3    3    0    0 -0.21840840595E+02 -0.14770829717E+02  0.23793134372E+02  0.35514968280E+02  0.51100000000E-03 0.  1.
         12    1    3    3    0    0  0.10223685908E+02  0.11589961527E+02  0.98682412537E+01  0.18336661288E+02  0.00000000000E+00 0. -1.
</event>
<event>
 7    1  0.1204848E-011  0.5930203E+02  0.7816164E-02  0.1266604E+00
        -11   -1    0    0    0    0  0.00000000000E+00  0.00000000000E+00  0.45593999997E+02  0.45594000000E+02  0.51100000000E-03 0.  1.
         11   -1    0    0    0    0 -0.00000000000E+00 -0.00000000000E+00 -0.45593999997E+02  0.45594000000E+02  0.51100000000E-03 0. -1.
    9900012    2    1    2    0    0 -0.44048025311E+01 -0.27935646787E+02 -0.14727938549E+02  0.59302034111E+02  0.50000164291E+02 0.  0.
         12    1    1    2    0    0  0.44048025311E+01  0.27935646787E+02  0.14727938549E+02  0.31885965889E+02  0.00000000000E+00 0. -1.
         11    1    3    3    0    0 -0.12498593643E+02 -0.17027425590E+02  0.39169322187E+01  0.21482328168E+02  0.51100000000E-03 0. -1.
        -11    1    3    3    0    0  0.45411317563E+01 -0.17085063480E+02  0.19286392484E+00  0.17679323191E+02  0.51100000000E-03 0.  1.
         12    1    3    3    0    0  0.35526593552E+01  0.61768422823E+01 -0.18837734692E+02  0.20140382752E+02  0.00000000000E+00 0. -1.
</event>
<event>
 7    1  0.1204848E-011  0.5930200E+02  0.7816164E-02  0.1266605E+00
        -11   -1    0    0    0    0  0.00000000000E+00  0.00000000000E+00  0.45593999997E+02  0.45594000000E+02  0.51100000000E-03 0. -1.
         11   -1    0    0    0    0 -0.00000000000E+00 -0.00000000000E+00 -0.45593999997E+02  0.45594000000E+02  0.51100000000E-03 0.  1.
    9900012    2    1    2    0    0 -0.22431504514E+02 -0.72950626574E+00 -0.22649776594E+02  0.59302000660E+02  0.50000103283E+02 0.  0.
         12    1    1    2    0    0  0.22431504514E+02  0.72950626574E+00  0.22649776594E+02  0.31885999340E+02  0.00000000000E+00 0. -1.
         11    1    3    3    0    0 -0.27559720906E+02  0.10480273903E+02 -0.48551185304E+00  0.29489151895E+02  0.51100000000E-03 0. -1.
        -11    1    3    3    0    0  0.16808524850E+01 -0.73764413155E+01 -0.54250017473E+00  0.75849494565E+01  0.51100000000E-03 0.  1.
        -12    1    3    3    0    0  0.34473639069E+01 -0.38333388528E+01 -0.21621764567E+02  0.22227899308E+02  0.00000000000E+00 0.  1.
</event>
<event>
 7    1  0.1204848E-011  0.5930196E+02  0.7816164E-02  0.1266605E+00
        -11   -1    0    0    0    0  0.00000000000E+00  0.00000000000E+00  0.45593999997E+02  0.45594000000E+02  0.51100000000E-03 0.  1.
         11   -1    0    0    0    0 -0.00000000000E+00 -0.00000000000E+00 -0.45593999997E+02  0.45594000000E+02  0.51100000000E-03 0. -1.
    9900012    2    1    2    0    0 -0.13845991026E+02  0.26414010934E+02  0.11283099087E+02  0.59301956562E+02  0.50000022860E+02 0.  0.
         12    1    1    2    0    0  0.13845991026E+02 -0.26414010934E+02 -0.11283099087E+02  0.31886043438E+02  0.00000000000E+00 0. -1.
         11    1    3    3    0    0 -0.55085454166E+01  0.15782121910E+02  0.61247430605E+01  0.17802581903E+02  0.51100000000E-03 0. -1.
        -11    1    3    3    0    0 -0.19601374172E+01  0.20357155772E+02  0.15715848830E+02  0.25792321232E+02  0.51100000000E-03 0.  1.
         12    1    3    3    0    0 -0.63773081926E+01 -0.97252667477E+01 -0.10557492804E+02  0.15707053428E+02  0.00000000000E+00 0. -1.
</event>
<event>
 7    1  0.1204848E-011  0.5930195E+02  0.7816164E-02  0.1266605E+00
        -11   -1    0    0    0    0  0.00000000000E+00  0.00000000000E+00  0.45593999997E+02  0.45594000000E+02  0.51100000000E-03 0. -1.
         11   -1    0    0    0    0 -0.00000000000E+00 -0.00000000000E+00 -0.45593999997E+02  0.45594000000E+02  0.51100000000E-03 0.  1.
    9900012    2    1    2    0    0 -0.15959060052E+02 -0.10618603013E+02 -0.25480856507E+02  0.59301946998E+02  0.50000005418E+02 0.  0.
         12    1    1    2    0    0  0.15959060052E+02  0.10618603013E+02  0.25480856507E+02  0.31886053002E+02  0.00000000000E+00 0. -1.
         11    1    3    3    0    0 -0.10910838132E+02 -0.59618787487E+01 -0.11561153060E+02  0.16977945909E+02  0.51100000000E-03 0. -1.
        -11    1    3    3    0    0 -0.19335449458E+02  0.45291024089E+01  0.76108861115E+00  0.19873390010E+02  0.51100000000E-03 0.  1.
        -12    1    3    3    0    0  0.14287227538E+02 -0.91858266730E+01 -0.14680792058E+02  0.22450611079E+02  0.00000000000E+00 0.  1.
</event>
<event>
 7    1  0.1204848E-011  0.5930213E+02  0.7816164E-02  0.1266604E+00
        -11   -1    0    0    0    0  0.00000000000E+00  0.00000000000E+00  0.45593999997E+02  0.45594000000E+02  0.51100000000E-03 0.  1.
         11   -1    0    0    0    0 -0.00000000000E+00 -0.00000000000E+00 -0.45593999997E+02  0.45594000000E+02  0.51100000000E-03 0. -1.
    9900012    2    1    2    0    0 -0.29076041335E+02 -0.59080593870E+01 -0.11678505021E+02  0.59302128129E+02  0.50000335755E+02 0.  0.
         12    1    1    2    0    0  0.29076041335E+02  0.59080593870E+01  0.11678505021E+02  0.31885871871E+02  0.00000000000E+00 0. -1.
         11    1    3    3    0    0 -0.16267844761E+02 -0.17367550379E+01 -0.21188175275E+02  0.26769345584E+02  0.51100000000E-03 0. -1.
        -11    1    3    3    0    0 -0.21027783438E+02  0.13161525146E+01  0.79926411796E+01  0.22534024209E+02  0.51100000000E-03 0.  1.
         12    1    3    3    0    0  0.82195868645E+01 -0.54874568637E+01  0.15170290737E+01  0.99987583362E+01  0.00000000000E+00 0. -1.
</event>
<event>
 7    1  0.1204848E-011  0.5930193E+02  0.7816164E-02  0.1266605E+00
        -11   -1    0    0    0    0  0.00000000000E+00  0.00000000000E+00  0.45593999997E+02  0.45594000000E+02  0.51100000000E-03 0.  1.
         11   -1    0    0    0    0 -0.00000000000E+00 -0.00000000000E+00 -0.45593999997E+02  0.45594000000E+02  0.51100000000E-03 0. -1.
    9900012    2    1    2    0    0 -0.27664978975E+02  0.50496822372E+01 -0.15029013438E+02  0.59301927848E+02  0.49999970492E+02 0.  0.
         12    1    1    2    0    0  0.27664978975E+02 -0.50496822372E+01  0.15029013438E+02  0.31886072152E+02  0.00000000000E+00 0. -1.
         11    1    3    3    0    0 -0.34877232780E+02  0.70870757766E+01 -0.42455325113E+01  0.35842329110E+02  0.51100000000E-03 0. -1.
        -11    1    3    3    0    0 -0.21662973979E+01 -0.71409085667E+01  0.10333808702E+01  0.75334783373E+01  0.51100000000E-03 0.  1.
        -12    1    3    3    0    0  0.93785512030E+01  0.51035150273E+01 -0.11816861797E+02  0.15926120401E+02  0.00000000000E+00 0.  1.
</event>
<event>
 7    1  0.1204848E-011  0.5930196E+02  0.7816164E-02  0.1266605E+00
        -11   -1    0    0    0    0  0.00000000000E+00  0.00000000000E+00  0.45593999997E+02  0.45594000000E+02  0.51100000000E-03 0. -1.
         11   -1    0    0    0    0 -0.00000000000E+00 -0.00000000000E+00 -0.45593999997E+02  0.45594000000E+02  0.51100000000E-03 0.  1.
    9900012    2    1    2    0    0  0.27608090139E+02 -0.70839720897E+01 -0.14294411611E+02  0.59301960657E+02  0.50000030328E+02 0.  0.
         12    1    1    2    0    0 -0.27608090139E+02  0.70839720897E+01  0.14294411611E+02  0.31886039343E+02  0.00000000000E+00 0. -1.
         11    1    3    3    0    0  0.15224905081E+01 -0.69487156351E+01  0.53514829362E+01  0.89017411893E+01  0.51100000000E-03 0. -1.
        -11    1    3    3    0    0  0.25925590221E+02  0.15234714094E+02 -0.17735792077E+02  0.34911188216E+02  0.51100000000E-03 0.  1.
         12    1    3    3    0    0  0.16000940966E+00 -0.15369970548E+02 -0.19101024702E+01  0.15489031252E+02  0.00000000000E+00 0. -1.
</event>
<event>
 7    1  0.1204848E-011  0.5930193E+02  0.7816164E-02  0.1266605E+00
        -11   -1    0    0    0    0  0.00000000000E+00  0.00000000000E+00  0.45593999997E+02  0.45594000000E+02  0.51100000000E-03 0. -1.
         11   -1    0    0    0    0 -0.00000000000E+00 -0.00000000000E+00 -0.45593999997E+02  0.45594000000E+02  0.51100000000E-03 0.  1.
    9900012    2    1    2    0    0  0.11489226320E+02 -0.13143246164E+02 -0.26682839625E+02  0.59301934523E+02  0.49999982665E+02 0.  0.
         12    1    1    2    0    0 -0.11489226320E+02  0.13143246164E+02  0.26682839625E+02  0.31886065477E+02  0.00000000000E+00 0. -1.
         11    1    3    3    0    0 -0.86823703020E+01 -0.68105564510E+01 -0.15024444458E+01  0.11136632023E+02  0.51100000000E-03 0. -1.
        -11    1    3    3    0    0  0.35160324996E+01 -0.18461614664E+02 -0.18832911178E+02  0.26605868606E+02  0.51100000000E-03 0.  1.
        -12    1    3    3    0    0  0.16655564122E+02  0.12128924951E+02 -0.63474840012E+01  0.21559433894E+02  0.00000000000E+00 0.  1.
</event>
<event>
 7    1  0.1204848E-011  0.5930194E+02  0.7816164E-02  0.1266605E+00
        -11   -1    0    0    0    0  0.00000000000E+00  0.00000000000E+00  0.45593999997E+02  0.45594000000E+02  0.51100000000E-03 0.  1.
         11   -1    0    0    0    0 -0.00000000000E+00 -0.00000000000E+00 -0.45593999997E+02  0.45594000000E+02  0.51100000000E-03 0. -1.
    9900012    2    1    2    0    0  0.60515829042E+01 -0.11668888762E+02  0.29050576230E+02  0.59301943488E+02  0.49999999016E+02 0.  0.
         12    1    1    2    0    0 -0.60515829042E+01  0.11668888762E+02 -0.29050576230E+02  0.31886056512E+02  0.00000000000E+00 0. -1.
         11    1    3    3    0    0 -0.26911663180E+01 -0.18055565144E+00 -0.31031808145E+01  0.41115335245E+01  0.51100000000E-03 0. -1.
        -11    1    3    3    0    0 -0.14700192177E+02 -0.42033610531E+01  0.25539398835E+02  0.29766168502E+02  0.51100000000E-03 0.  1.
        -12    1    3    3    0    0  0.23442941400E+02 -0.72849720573E+01  0.66143582099E+01  0.25424241461E+02  0.00000000000E+00 0.  1.
</event>
<event>
 7    1  0.1204848E-011  0.5930197E+02  0.7816164E-02  0.1266605E+00
        -11   -1    0    0    0    0  0.00000000000E+00  0.00000000000E+00  0.45593999997E+02  0.45594000000E+02  0.51100000000E-03 0.  1.
         11   -1    0    0    0    0 -0.00000000000E+00 -0.00000000000E+00 -0.45593999997E+02  0.45594000000E+02  0.51100000000E-03 0. -1.
    9900012    2    1    2    0    0 -0.29362467548E+02 -0.67053914139E+01  0.10469089933E+02  0.59301974557E+02  0.50000055678E+02 0.  0.
         12    1    1    2    0    0  0.29362467548E+02  0.67053914139E+01 -0.10469089933E+02  0.31886025443E+02  0.00000000000E+00 0. -1.
         11    1    3    3    0    0 -0.33718944424E+01 -0.10526280933E+02 -0.44039292951E+01  0.11898187085E+02  0.51100000000E-03 0. -1.
        -11    1    3    3    0    0  0.40297104615E+01  0.96585368497E+01 -0.42930475789E+01  0.11311770783E+02  0.51100000000E-03 0.  1.
        -12    1    3    3    0    0 -0.30020283567E+02 -0.58376473305E+01  0.19166066807E+02  0.36092016689E+02  0.00000000000E+00 0.  1.
</event>
<event>
 7    1  0.1204848E-011  0.5930194E+02  0.7816164E-02  0.1266605E+00
        -11   -1    0    0    0    0  0.00000000000E+00  0.00000000000E+00  0.45593999997E+02  0.45594000000E+02  0.51100000000E-03 0. -1.
         11   -1    0    0    0    0 -0.00000000000E+00 -0.00000000000E+00 -0.45593999997E+02  0.45594000000E+02  0.51100000000E-03 0.  1.
    9900012    2    1    2    0    0 -0.19796486548E+02 -0.24991337481E+02 -0.50310382059E+00  0.59301938120E+02  0.49999989226E+02 0.  0.
         12    1    1    2    0    0  0.19796486548E+02  0.24991337481E+02  0.50310382059E+00  0.31886061880E+02  0.00000000000E+00 0. -1.
         11    1    3    3    0    0 -0.53237468408E+01 -0.18480699144E+02 -0.20853119108E+02  0.28367782748E+02  0.51100000000E-03 0. -1.
        -11    1    3    3    0    0  0.64777871699E+00  0.44581327870E+01  0.28065611906E+01  0.53076690920E+01  0.51100000000E-03 0.  1.
        -12    1    3    3    0    0 -0.15120518424E+02 -0.10968771125E+02  0.17543454097E+02  0.25626486280E+02  0.00000000000E+00 0.  1.
</event>
<event>
 7    1  0.1204848E-011  0.5930171E+02  0.7816164E-02  0.1266606E+00
        -11   -1    0    0    0    0  0.00000000000E+00  0.00000000000E+00  0.45593999997E+02  0.45594000000E+02  0.51100000000E-03 0. -1.
         11   -1    0    0    0    0 -0.00000000000E+00 -0.00000000000E+00 -0.45593999997E+02  0.45594000000E+02  0.51100000000E-03 0.  1.
    9900012    2    1    2    0    0  0.25337061708E+02  0.31678710505E+01 -0.19097998820E+02  0.59301707304E+02  0.49999568270E+02 0.  0.
         12    1    1    2    0    0 -0.25337061708E+02 -0.31678710505E+01  0.19097998820E+02  0.31886292696E+02  0.00000000000E+00 0. -1.
         11    1    3    3    0    0  0.23395101848E+02  0.27651626241E+01 -0.11931649605E+02  0.26407218282E+02  0.51100000000E-03 0. -1.
        -11    1    3    3    0    0  0.78496572537E+01  0.14492496077E+02 -0.61169980564E+01  0.17580307934E+02  0.51100000000E-03 0.  1.
         12    1    3    3    0    0 -0.59076973939E+01 -0.14089787651E+02 -0.10493511581E+01  0.15314181088E+02  0.00000000000E+00 0. -1.
</event>
<event>
 7    1  0.1204848E-011  0.5930194E+02  0.7816164E-02  0.1266605E+00
        -11   -1    0    0    0    0  0.00000000000E+00  0.00000000000E+00  0.45593999997E+02  0.45594000000E+02  0.51100000000E-03 0.  1.
         11   -1    0    0    0    0 -0.00000000000E+00 -0.00000000000E+00 -0.45593999997E+02  0.45594000000E+02  0.51100000000E-03 0. -1.
    9900012    2    1    2    0    0  0.96139703754E+01  0.13360599258E+02  0.27309093196E+02  0.59301943328E+02  0.49999998724E+02 0.  0.
         12    1    1    2    0    0 -0.96139703754E+01 -0.13360599258E+02 -0.27309093196E+02  0.31886056672E+02  0.00000000000E+00 0. -1.
         11    1    3    3    0    0 -0.38573547543E+00  0.44538157373E+01  0.35319609880E+02  0.35601405995E+02  0.51100000000E-03 0. -1.
        -11    1    3    3    0    0 -0.40040821033E+01 -0.14051098635E+01 -0.40467165942E+01  0.58636953087E+01  0.51100000000E-03 0.  1.
        -12    1    3    3    0    0  0.14003787954E+02  0.10311893384E+02 -0.39638000901E+01  0.17836842024E+02  0.00000000000E+00 0.  1.
</event>
<event>
 7    1  0.1204848E-011  0.5930198E+02  0.7816164E-02  0.1266605E+00
        -11   -1    0    0    0    0  0.00000000000E+00  0.00000000000E+00  0.45593999997E+02  0.45594000000E+02  0.51100000000E-03 0.  1.
         11   -1    0    0    0    0 -0.00000000000E+00 -0.00000000000E+00 -0.45593999997E+02  0.45594000000E+02  0.51100000000E-03 0. -1.
    9900012    2    1    2    0    0 -0.30160782945E+02  0.10345528573E+02 -0.12540061308E+00  0.59301976187E+02  0.50000058650E+02 0.  0.
         12    1    1    2    0    0  0.30160782945E+02 -0.10345528573E+02  0.12540061308E+00  0.31886023813E+02  0.00000000000E+00 0. -1.
         11    1    3    3    0    0 -0.10601897961E+02 -0.38640966319E+01 -0.18045721941E+01  0.11427509100E+02  0.51100000000E-03 0. -1.
        -11    1    3    3    0    0 -0.10134881184E+02 -0.87626722972E+01 -0.13298076258E+02  0.18876945590E+02  0.51100000000E-03 0.  1.
        -12    1    3    3    0    0 -0.94240038004E+01  0.22972297502E+02  0.14977247839E+02  0.28997521497E+02  0.00000000000E+00 0.  1.
</event>
<event>
 7    1  0.1204848E-011  0.5930194E+02  0.7816164E-02  0.1266605E+00
        -11   -1    0    0    0    0  0.00000000000E+00  0.00000000000E+00  0.45593999997E+02  0.45594000000E+02  0.51100000000E-03 0.  1.
         11   -1    0    0    0    0 -0.00000000000E+00 -0.00000000000E+00 -0.45593999997E+02  0.45594000000E+02  0.51100000000E-03 0. -1.
    9900012    2    1    2    0    0 -0.30011058782E+02  0.98600587159E+01 -0.43400680151E+01  0.59301943525E+02  0.49999999084E+02 0.  0.
         12    1    1    2    0    0  0.30011058782E+02 -0.98600587159E+01  0.43400680151E+01  0.31886056475E+02  0.00000000000E+00 0. -1.
         11    1    3    3    0    0  0.60532574360E+01 -0.65176727502E+01 -0.85078825390E+01  0.12308779356E+02  0.51100000000E-03 0. -1.
        -11    1    3    3    0    0 -0.14917637165E+02 -0.28071424586E+01  0.95557935842E+01  0.17936809601E+02  0.51100000000E-03 0.  1.
        -12    1    3    3    0    0 -0.21146679054E+02  0.19184873925E+02 -0.53879790603E+01  0.29056354569E+02  0.00000000000E+00 0.  1.
</event>
<event>
 7    1  0.1204848E-011  0.5930191E+02  0.7816164E-02  0.1266605E+00
        -11   -1    0    0    0    0  0.00000000000E+00  0.00000000000E+00  0.45593999997E+02  0.45594000000E+02  0.51100000000E-03 0. -1.
         11   -1    0    0    0    0 -0.00000000000E+00 -0.00000000000E+00 -0.45593999997E+02  0.45594000000E+02  0.51100000000E-03 0.  1.
    9900012    2    1    2    0    0 -0.24677940250E+02  0.17853844219E+02 -0.94319803496E+01  0.59301909903E+02  0.49999937764E+02 0.  0.
         12    1    1    2    0    0  0.24677940250E+02 -0.17853844219E+02  0.94319803496E+01  0.31886090097E+02  0.00000000000E+00 0. -1.
         11    1    3    3    0    0 -0.32430207622E+02  0.38541262941E+01 -0.63536494957E+01  0.33270730651E+02  0.51100000000E-03 0. -1.
        -11    1    3    3    0    0 -0.49434904583E+01 -0.44000680674E+00 -0.45693824376E+01  0.67461811437E+01  0.51100000000E-03 0.  1.
         12    1    3    3    0    0  0.12695757830E+02  0.14439724731E+02  0.14910515837E+01  0.19284998108E+02  0.00000000000E+00 0. -1.
</event>
<event>
 7    1  0.1204848E-011  0.5930193E+02  0.7816164E-02  0.1266605E+00
        -11   -1    0    0    0    0  0.00000000000E+00  0.00000000000E+00  0.45593999997E+02  0.45594000000E+02  0.51100000000E-03 0.  1.
         11   -1    0    0    0    0 -0.00000000000E+00 -0.00000000000E+00 -0.45593999997E+02  0.45594000000E+02  0.51100000000E-03 0. -1.
    9900012    2    1    2    0    0  0.46109205115E+01  0.34520552577E+01  0.31361512035E+02  0.59301926071E+02  0.49999967251E+02 0.  0.
         12    1    1    2    0    0 -0.46109205115E+01 -0.34520552577E+01 -0.31361512035E+02  0.31886073929E+02  0.00000000000E+00 0. -1.
         11    1    3    3    0    0  0.39568424112E+01 -0.50631062848E+01  0.15766068004E+00  0.64277915546E+01  0.51100000000E-03 0. -1.
        -11    1    3    3    0    0  0.14321083760E+02  0.79898636695E+01 -0.24184029622E+01  0.16576490420E+02  0.51100000000E-03 0.  1.
        -12    1    3    3    0    0 -0.13667005659E+02  0.52529787305E+00  0.33622254317E+02  0.36297644096E+02  0.00000000000E+00 0.  1.
</event>
<event>
 7    1  0.1204848E-011  0.5930196E+02  0.7816164E-02  0.1266605E+00
        -11   -1    0    0    0    0  0.00000000000E+00  0.00000000000E+00  0.45593999997E+02  0.45594000000E+02  0.51100000000E-03 0. -1.
         11   -1    0    0    0    0 -0.00000000000E+00 -0.00000000000E+00 -0.45593999997E+02  0.45594000000E+02  0.51100000000E-03 0.  1.
    9900012    2    1    2    0    0 -0.29676825827E+02 -0.75065358651E+01 -0.89251100351E+01  0.59301958211E+02  0.50000025866E+02 0.  0.
         12    1    1    2    0    0  0.29676825827E+02  0.75065358651E+01  0.89251100351E+01  0.31886041789E+02  0.00000000000E+00 0. -1.
         11    1    3    3    0    0 -0.90525784327E+01  0.93487507162E+01  0.91699198405E+01  0.15919665398E+02  0.51100000000E-03 0. -1.
        -11    1    3    3    0    0 -0.21391699492E+02  0.11336728092E+01 -0.96566961161E+01  0.23497697788E+02  0.51100000000E-03 0.  1.
        -12    1    3    3    0    0  0.76745209735E+00 -0.17988959391E+02 -0.84383337595E+01  0.19884595025E+02  0.00000000000E+00 0.  1.
</event>
<event>
 7    1  0.1204848E-011  0.5930193E+02  0.7816164E-02  0.1266605E+00
        -11   -1    0    0    0    0  0.00000000000E+00  0.00000000000E+00  0.45593999997E+02  0.45594000000E+02  0.51100000000E-03 0.  1.
         11   -1    0    0    0    0 -0.00000000000E+00 -0.00000000000E+00 -0.45593999997E+02  0.45594000000E+02  0.51100000000E-03 0. -1.
    9900012    2    1    2    0    0 -0.16243770455E+02  0.92374294050E+01  0.25836625563E+02  0.59301930925E+02  0.49999976103E+02 0.  0.
         12    1    1    2    0    0  0.16243770455E+02 -0.92374294050E+01 -0.25836625563E+02  0.31886069075E+02  0.00000000000E+00 0. -1.
         11    1    3    3    0    0  0.71856172262E+01  0.24021873392E+01 -0.30072012094E+01  0.81514942378E+01  0.51100000000E-03 0. -1.
        -11    1    3    3    0    0 -0.98706206932E+01 -0.14153052195E+02  0.11840008232E+02  0.20926629793E+02  0.51100000000E-03 0.  1.
        -12    1    3    3    0    0 -0.13558766988E+02  0.20988294261E+02  0.17003818540E+02  0.30223806894E+02  0.00000000000E+00 0.  1.
</event>
<event>
 7    1  0.1204848E-011  0.5930194E+02  0.7816164E-02  0.1266605E+00
        -11   -1    0    0    0    0  0.00000000000E+00  0.00000000000E+00  0.45593999997E+02  0.45594000000E+02  0.51100000000E-03 0.  1.
         11   -1    0    0    0    0 -0.00000000000E+00 -0.00000000000E+00 -0.45593999997E+02  0.45594000000E+02  0.51100000000E-03 0. -1.
    9900012    2    1    2    0    0 -0.11117567846E+01 -0.15616875475E+02  0.27777655833E+02  0.59301937742E+02  0.49999988537E+02 0.  0.
         12    1    1    2    0    0  0.11117567846E+01  0.15616875475E+02 -0.27777655833E+02  0.31886062258E+02  0.00000000000E+00 0. -1.
         11    1    3    3    0    0 -0.11605803135E+02 -0.72611056246E+01 -0.83367863187E+01  0.16028734438E+02  0.51100000000E-03 0.  1.
        -11    1    3    3    0    0  0.50477811923E+01  0.61581246829E+01  0.88110531719E+01  0.11875910611E+02  0.51100000000E-03 0. -1.
        -12    1    3    3    0    0  0.54462651582E+01 -0.14513894533E+02  0.27303388980E+02  0.31397292693E+02  0.00000000000E+00 0.  1.
</event>
<event>
 7    1  0.1204848E-011  0.5930184E+02  0.7816164E-02  0.1266605E+00
        -11   -1    0    0    0    0  0.00000000000E+00  0.00000000000E+00  0.45593999997E+02  0.45594000000E+02  0.51100000000E-03 0.  1.
         11   -1    0    0    0    0 -0.00000000000E+00 -0.00000000000E+00 -0.45593999997E+02  0.45594000000E+02  0.51100000000E-03 0. -1.
    9900012    2    1    2    0    0 -0.21145191867E+02  0.10471389648E+02  0.21446632882E+02  0.59301839958E+02  0.49999810202E+02 0.  0.
         12    1    1    2    0    0  0.21145191867E+02 -0.10471389648E+02 -0.21446632882E+02  0.31886160042E+02  0.00000000000E+00 0. -1.
         11    1    3    3    0    0  0.54555376857E+01  0.13484020584E+01  0.21693339466E+01  0.60238766243E+01  0.51100000000E-03 0. -1.
        -11    1    3    3    0    0 -0.38416416624E+01  0.16402418088E+02 -0.65661114790E+01  0.18080689976E+02  0.51100000000E-03 0.  1.
         12    1    3    3    0    0 -0.22759087890E+02 -0.72794304983E+01  0.25843410414E+02  0.35197273358E+02  0.00000000000E+00 0. -1.
</event>
<event>
 7    1  0.1204848E-011  0.5930195E+02  0.7816164E-02  0.1266605E+00
        -11   -1    0    0    0    0  0.00000000000E+00  0.00000000000E+00  0.45593999997E+02  0.45594000000E+02  0.51100000000E-03 0. -1.
         11   -1    0    0    0    0 -0.00000000000E+00 -0.00000000000E+00 -0.45593999997E+02  0.45594000000E+02  0.51100000000E-03 0.  1.
    9900012    2    1    2    0    0 -0.26824095866E+02 -0.15946569889E+02 -0.65494450760E+01  0.59301945978E+02  0.50000003558E+02 0.  0.
         12    1    1    2    0    0  0.26824095866E+02  0.15946569889E+02  0.65494450760E+01  0.31886054022E+02  0.00000000000E+00 0. -1.
         11    1    3    3    0    0  0.14574657646E+01  0.10087117617E+02 -0.14662262741E-01  0.10191877330E+02  0.51100000000E-03 0. -1.
        -11    1    3    3    0    0 -0.31584888685E+01 -0.16688044274E+02  0.78258655109E+01  0.18700562689E+02  0.51100000000E-03 0.  1.
         12    1    3    3    0    0 -0.25123072762E+02 -0.93456432316E+01 -0.14360648324E+02  0.30409505960E+02  0.00000000000E+00 0. -1.
</event>
<event>
 7    1  0.1204848E-011  0.5930194E+02  0.7816164E-02  0.1266605E+00
        -11   -1    0    0    0    0  0.00000000000E+00  0.00000000000E+00  0.45593999997E+02  0.45594000000E+02  0.51100000000E-03 0. -1.
         11   -1    0    0    0    0 -0.00000000000E+00 -0.00000000000E+00 -0.45593999997E+02  0.45594000000E+02  0.51100000000E-03 0.  1.
    9900012    2    1    2    0    0  0.11871328354E+02  0.27348905369E+02 -0.11306181533E+02  0.59301940309E+02  0.49999993217E+02 0.  0.
         12    1    1    2    0    0 -0.11871328354E+02 -0.27348905369E+02  0.11306181533E+02  0.31886059691E+02  0.00000000000E+00 0. -1.
         11    1    3    3    0    0 -0.74469291750E+01  0.68219468327E+01 -0.23319384493E+01  0.10365020498E+02  0.51100000000E-03 0. -1.
        -11    1    3    3    0    0 -0.10332668653E+01  0.12343579477E+02 -0.20655803933E+02  0.24085137141E+02  0.51100000000E-03 0.  1.
         12    1    3    3    0    0  0.20351524394E+02  0.81833790598E+01  0.11681560849E+02  0.24851782670E+02  0.00000000000E+00 0. -1.
</event>
<event>
 7    1  0.1204848E-011  0.5930207E+02  0.7816164E-02  0.1266604E+00
        -11   -1    0    0    0    0  0.00000000000E+00  0.00000000000E+00  0.45593999997E+02  0.45594000000E+02  0.51100000000E-03 0. -1.
         11   -1    0    0    0    0 -0.00000000000E+00 -0.00000000000E+00 -0.45593999997E+02  0.45594000000E+02  0.51100000000E-03 0.  1.
    9900012    2    1    2    0    0  0.19254242332E+02  0.66303113799E+01 -0.24536212223E+02  0.59302069137E+02  0.50000228169E+02 0.  0.
         12    1    1    2    0    0 -0.19254242332E+02 -0.66303113799E+01  0.24536212223E+02  0.31885930863E+02  0.00000000000E+00 0. -1.
         11    1    3    3    0    0  0.95609457686E+00 -0.61238859963E+01 -0.41104143232E+01  0.74371770656E+01  0.51100000000E-03 0. -1.
        -11    1    3    3    0    0  0.29278133221E+02 -0.18849307888E+01 -0.13547655196E+02  0.32315646528E+02  0.51100000000E-03 0.  1.
        -12    1    3    3    0    0 -0.10979985466E+02  0.14639128165E+02 -0.68781427039E+01  0.19549245544E+02  0.00000000000E+00 0.  1.
</event>
<event>
 7    1  0.1204848E-011  0.5930191E+02  0.7816164E-02  0.1266605E+00
        -11   -1    0    0    0    0  0.00000000000E+00  0.00000000000E+00  0.45593999997E+02  0.45594000000E+02  0.51100000000E-03 0.  1.
         11   -1    0    0    0    0 -0.00000000000E+00 -0.00000000000E+00 -0.45593999997E+02  0.45594000000E+02  0.51100000000E-03 0. -1.
    9900012    2    1    2    0    0 -0.11475476874E+01 -0.31458812279E+02 -0.50743690914E+01  0.59301906521E+02  0.49999931596E+02 0.  0.
         12    1    1    2    0    0  0.11475476874E+01  0.31458812279E+02  0.50743690914E+01  0.31886093479E+02  0.00000000000E+00 0. -1.
         11    1    3    3    0    0  0.47759424453E+01 -0.65918270148E+01 -0.14690666241E+02  0.16795162532E+02  0.51100000000E-03 0. -1.
        -11    1    3    3    0    0 -0.30441578151E+01 -0.99474226971E+01 -0.12128707593E+02  0.15978850498E+02  0.51100000000E-03 0.  1.
        -12    1    3    3    0    0 -0.28793323176E+01 -0.14919562567E+02  0.21745004742E+02  0.26527893490E+02  0.00000000000E+00 0.  1.
</event>
<event>
 7    1  0.1204848E-011  0.5930192E+02  0.7816164E-02  0.1266605E+00
        -11   -1    0    0    0    0  0.00000000000E+00  0.00000000000E+00  0.45593999997E+02  0.45594000000E+02  0.51100000000E-03 0. -1.
         11   -1    0    0    0    0 -0.00000000000E+00 -0.00000000000E+00 -0.45593999997E+02  0.45594000000E+02  0.51100000000E-03 0.  1.
    9900012    2    1    2    0    0  0.48088380615E+00  0.30568304824E+02  0.90592369677E+01  0.59301917087E+02  0.49999950867E+02 0.  0.
         12    1    1    2    0    0 -0.48088380615E+00 -0.30568304824E+02 -0.90592369677E+01  0.31886082913E+02  0.00000000000E+00 0. -1.
         11    1    3    3    0    0  0.11196462014E+02  0.51679100175E+01 -0.48208815915E+01  0.13240428813E+02  0.51100000000E-03 0. -1.
        -11    1    3    3    0    0  0.11049393554E+02  0.80992163264E+01 -0.23014190407E+01  0.13891829717E+02  0.51100000000E-03 0.  1.
         12    1    3    3    0    0 -0.21764971762E+02  0.17301178481E+02  0.16181537600E+02  0.32169658557E+02  0.00000000000E+00 0. -1.
</event>
<event>
 7    1  0.1204848E-011  0.5930196E+02  0.7816164E-02  0.1266605E+00
        -11   -1    0    0    0    0  0.00000000000E+00  0.00000000000E+00  0.45593999997E+02  0.45594000000E+02  0.51100000000E-03 0. -1.
         11   -1    0    0    0    0 -0.00000000000E+00 -0.00000000000E+00 -0.45593999997E+02  0.45594000000E+02  0.51100000000E-03 0.  1.
    9900012    2    1    2    0    0  0.25146125307E+02  0.51343968794E+01 -0.18921683646E+02  0.59301956638E+02  0.50000022999E+02 0.  0.
         12    1    1    2    0    0 -0.25146125307E+02 -0.51343968794E+01  0.18921683646E+02  0.31886043362E+02  0.00000000000E+00 0. -1.
         11    1    3    3    0    0 -0.83646940586E+01  0.60626962880E+01  0.25636590680E+01  0.10644094187E+02  0.51100000000E-03 0. -1.
        -11    1    3    3    0    0  0.16672725217E+02  0.11628856256E+02 -0.27522997747E+01  0.20513049951E+02  0.51100000000E-03 0.  1.
        -12    1    3    3    0    0  0.16838094149E+02 -0.12557155665E+02 -0.18733042939E+02  0.28144812501E+02  0.00000000000E+00 0.  1.
</event>
<event>
 7    1  0.1204848E-011  0.5930196E+02  0.7816164E-02  0.1266605E+00
        -11   -1    0    0    0    0  0.00000000000E+00  0.00000000000E+00  0.45593999997E+02  0.45594000000E+02  0.51100000000E-03 0.  1.
         11   -1    0    0    0    0 -0.00000000000E+00 -0.00000000000E+00 -0.45593999997E+02  0.45594000000E+02  0.51100000000E-03 0. -1.
    9900012    2    1    2    0    0  0.28638132890E+02 -0.72366866243E+01  0.12008635796E+02  0.59301958815E+02  0.50000026969E+02 0.  0.
         12    1    1    2    0    0 -0.28638132890E+02  0.72366866243E+01 -0.12008635796E+02  0.31886041185E+02  0.00000000000E+00 0. -1.
         11    1    3    3    0    0  0.27456162892E+02  0.61661537243E+01  0.55338349249E+01  0.28679010822E+02  0.51100000000E-03 0. -1.
        -11    1    3    3    0    0  0.53888151973E+01  0.27988973017E+01  0.11620058583E+02  0.13111022732E+02  0.51100000000E-03 0.  1.
        -12    1    3    3    0    0 -0.42068451993E+01 -0.16201737650E+02 -0.51452577122E+01  0.17511925261E+02  0.00000000000E+00 0.  1.
</event>
<event>
 7    1  0.1204848E-011  0.5930183E+02  0.7816164E-02  0.1266605E+00
        -11   -1    0    0    0    0  0.00000000000E+00  0.00000000000E+00  0.45593999997E+02  0.45594000000E+02  0.51100000000E-03 0.  1.
         11   -1    0    0    0    0 -0.00000000000E+00 -0.00000000000E+00 -0.45593999997E+02  0.45594000000E+02  0.51100000000E-03 0. -1.
    9900012    2    1    2    0    0 -0.23400389961E+02 -0.85368426377E+01  0.19906580606E+02  0.59301829268E+02  0.49999790705E+02 0.  0.
         12    1    1    2    0    0  0.23400389961E+02  0.85368426377E+01 -0.19906580606E+02  0.31886170732E+02  0.00000000000E+00 0. -1.
         11    1    3    3    0    0 -0.16741473084E+02  0.15575265748E+01  0.16355093532E+02  0.23456169652E+02  0.51100000000E-03 0. -1.
        -11    1    3    3    0    0 -0.14849863782E+02  0.61596466299E+00  0.12701585145E+02  0.19550655546E+02  0.51100000000E-03 0.  1.
        -12    1    3    3    0    0  0.81909469053E+01 -0.10710333875E+02 -0.91500980709E+01  0.16295004070E+02  0.00000000000E+00 0.  1.
</event>
<event>
 7    1  0.1204848E-011  0.5930187E+02  0.7816164E-02  0.1266605E+00
        -11   -1    0    0    0    0  0.00000000000E+00  0.00000000000E+00  0.45593999997E+02  0.45594000000E+02  0.51100000000E-03 0.  1.
         11   -1    0    0    0    0 -0.00000000000E+00 -0.00000000000E+00 -0.45593999997E+02  0.45594000000E+02  0.51100000000E-03 0. -1.
    9900012    2    1    2    0    0  0.13473379091E+02 -0.64067771740E+01  0.28180607910E+02  0.59301868218E+02  0.49999861740E+02 0.  0.
         12    1    1    2    0    0 -0.13473379091E+02  0.64067771740E+01 -0.28180607910E+02  0.31886131782E+02  0.00000000000E+00 0. -1.
         11    1    3    3    0    0  0.49274170848E+01 -0.64709264781E+01  0.14175431994E+02  0.16343047485E+02  0.51100000000E-03 0. -1.
        -11    1    3    3    0    0  0.14939537193E+02 -0.93209479930E+01  0.22647996501E+02  0.28688004267E+02  0.51100000000E-03 0.  1.
         12    1    3    3    0    0 -0.63935751868E+01  0.93850972971E+01 -0.86428205852E+01  0.14270816466E+02  0.00000000000E+00 0. -1.
</event>
<event>
 7    1  0.1204848E-011  0.5930194E+02  0.7816164E-02  0.1266605E+00
        -11   -1    0    0    0    0  0.00000000000E+00  0.00000000000E+00  0.45593999997E+02  0.45594000000E+02  0.51100000000E-03 0.  1.
         11   -1    0    0    0    0 -0.00000000000E+00 -0.00000000000E+00 -0.45593999997E+02  0.45594000000E+02  0.51100000000E-03 0. -1.
    9900012    2    1    2    0    0 -0.85271529668E+01 -0.15951478742E+02  0.26259455408E+02  0.59301937055E+02  0.49999987284E+02 0.  0.
         12    1    1    2    0    0  0.85271529668E+01  0.15951478742E+02 -0.26259455408E+02  0.31886062945E+02  0.00000000000E+00 0. -1.
         11    1    3    3    0    0 -0.25566702376E+02 -0.14462069877E+02  0.14727584419E+02  0.32858933011E+02  0.51100000000E-03 0. -1.
        -11    1    3    3    0    0  0.31355552840E+01  0.68006604419E+01  0.24372562709E+01  0.78753354072E+01  0.51100000000E-03 0.  1.
        -12    1    3    3    0    0  0.13903994125E+02 -0.82900693069E+01  0.90946147185E+01  0.18567668637E+02  0.00000000000E+00 0.  1.
</event>
<event>
 7    1  0.1204848E-011  0.5930195E+02  0.7816164E-02  0.1266605E+00
        -11   -1    0    0    0    0  0.00000000000E+00  0.00000000000E+00  0.45593999997E+02  0.45594000000E+02  0.51100000000E-03 0. -1.
         11   -1    0    0    0    0 -0.00000000000E+00 -0.00000000000E+00 -0.45593999997E+02  0.45594000000E+02  0.51100000000E-03 0.  1.
    9900012    2    1    2    0    0  0.25632186998E+01  0.23932720478E+02 -0.20913511137E+02  0.59301950579E+02  0.50000011949E+02 0.  0.
         12    1    1    2    0    0 -0.25632186998E+01 -0.23932720478E+02  0.20913511137E+02  0.31886049421E+02  0.00000000000E+00 0. -1.
         11    1    3    3    0    0  0.34421289859E+01  0.95406282379E+01  0.38715377095E+01  0.10856364199E+02  0.51100000000E-03 0. -1.
        -11    1    3    3    0    0 -0.31684030089E+01 -0.12737466016E+02 -0.27281089169E+01  0.13406132801E+02  0.51100000000E-03 0.  1.
        -12    1    3    3    0    0  0.22894927229E+01  0.27129558256E+02 -0.22056939930E+02  0.35039453580E+02  0.00000000000E+00 0.  1.
</event>
<event>
 7    1  0.1204848E-011  0.5930194E+02  0.7816164E-02  0.1266605E+00
        -11   -1    0    0    0    0  0.00000000000E+00  0.00000000000E+00  0.45593999997E+02  0.45594000000E+02  0.51100000000E-03 0.  1.
         11   -1    0    0    0    0 -0.00000000000E+00 -0.00000000000E+00 -0.45593999997E+02  0.45594000000E+02  0.51100000000E-03 0. -1.
    9900012    2    1    2    0    0 -0.24103581826E+02 -0.20872337201E+02  0.28959203476E+00  0.59301937518E+02  0.49999988128E+02 0.  0.
         12    1    1    2    0    0  0.24103581826E+02  0.20872337201E+02 -0.28959203476E+00  0.31886062482E+02  0.00000000000E+00 0. -1.
         11    1    3    3    0    0  0.44871119625E+01 -0.50049913381E+01 -0.43639299894E+01  0.80142371610E+01  0.51100000000E-03 0. -1.
        -11    1    3    3    0    0 -0.49129101038E+01 -0.23619168629E+02 -0.48768142086E+01  0.24612702604E+02  0.51100000000E-03 0.  1.
        -12    1    3    3    0    0 -0.23677783684E+02  0.77518227658E+01  0.95303362328E+01  0.26674997753E+02  0.00000000000E+00 0.  1.
</event>
<event>
 7    1  0.1204848E-011  0.5930194E+02  0.7816164E-02  0.1266605E+00
        -11   -1    0    0    0    0  0.00000000000E+00  0.00000000000E+00  0.45593999997E+02  0.45594000000E+02  0.51100000000E-03 0.  1.
         11   -1    0    0    0    0 -0.00000000000E+00 -0.00000000000E+00 -0.45593999997E+02  0.45594000000E+02  0.51100000000E-03 0. -1.
    9900012    2    1    2    0    0 -0.30119148603E+02  0.11583180299E+00 -0.10466334689E+02  0.59301942053E+02  0.49999996399E+02 0.  0.
         12    1    1    2    0    0  0.30119148603E+02 -0.11583180299E+00  0.10466334689E+02  0.31886057947E+02  0.00000000000E+00 0. -1.
         11    1    3    3    0    0 -0.95194495304E+01  0.12427840040E+02  0.26748306806E+01  0.15881619781E+02  0.51100000000E-03 0. -1.
        -11    1    3    3    0    0 -0.11420909158E+02 -0.14516168391E+02  0.81057876214E+01  0.20170773510E+02  0.51100000000E-03 0.  1.
         12    1    3    3    0    0 -0.91787899141E+01  0.22041601538E+01 -0.21246952991E+02  0.23249548763E+02  0.00000000000E+00 0. -1.
</event>
<event>
 7    1  0.1204848E-011  0.5930194E+02  0.7816164E-02  0.1266605E+00
        -11   -1    0    0    0    0  0.00000000000E+00  0.00000000000E+00  0.45593999997E+02  0.45594000000E+02  0.51100000000E-03 0.  1.
         11   -1    0    0    0    0 -0.00000000000E+00 -0.00000000000E+00 -0.45593999997E+02  0.45594000000E+02  0.51100000000E-03 0. -1.
    9900012    2    1    2    0    0 -0.27770351989E+02  0.12966791245E+02  0.87972103181E+01  0.59301936679E+02  0.49999986597E+02 0.  0.
         12    1    1    2    0    0  0.27770351989E+02 -0.12966791245E+02 -0.87972103181E+01  0.31886063321E+02  0.00000000000E+00 0. -1.
         11    1    3    3    0    0 -0.89955039950E+00 -0.60712340021E+01 -0.98311186531E+01  0.11589649152E+02  0.51100000000E-03 0. -1.
        -11    1    3    3    0    0 -0.21500605222E+02 -0.11159902256E+01  0.15709922017E+02  0.26651887534E+02  0.51100000000E-03 0.  1.
        -12    1    3    3    0    0 -0.53701963667E+01  0.20154015472E+02  0.29184069544E+01  0.21060399992E+02  0.00000000000E+00 0.  1.
</event>
<event>
 7    1  0.1204848E-011  0.5930195E+02  0.7816164E-02  0.1266605E+00
        -11   -1    0    0    0    0  0.00000000000E+00  0.00000000000E+00  0.45593999997E+02  0.45594000000E+02  0.51100000000E-03 0. -1.
         11   -1    0    0    0    0 -0.00000000000E+00 -0.00000000000E+00 -0.45593999997E+02  0.45594000000E+02  0.51100000000E-03 0.  1.
    9900012    2    1    2    0    0  0.82467377067E+00 -0.29698818226E+02 -0.11576712714E+02  0.59301950259E+02  0.50000011364E+02 0.  0.
         12    1    1    2    0    0 -0.82467377067E+00  0.29698818226E+02  0.11576712714E+02  0.31886049741E+02  0.00000000000E+00 0. -1.
         11    1    3    3    0    0 -0.71720660822E+01 -0.61203130939E+01  0.62190064073E+01  0.11294813199E+02  0.51100000000E-03 0. -1.
        -11    1    3    3    0    0  0.10900947843E+01 -0.11751699619E+02  0.10991670667E+02  0.16127850907E+02  0.51100000000E-03 0.  1.
        -12    1    3    3    0    0  0.69066450686E+01 -0.11826805513E+02 -0.28787389788E+02  0.31879286152E+02  0.00000000000E+00 0.  1.
</event>
<event>
 7    1  0.1204848E-011  0.5930197E+02  0.7816164E-02  0.1266605E+00
        -11   -1    0    0    0    0  0.00000000000E+00  0.00000000000E+00  0.45593999997E+02  0.45594000000E+02  0.51100000000E-03 0.  1.
         11   -1    0    0    0    0 -0.00000000000E+00 -0.00000000000E+00 -0.45593999997E+02  0.45594000000E+02  0.51100000000E-03 0. -1.
    9900012    2    1    2    0    0 -0.12845716521E+02 -0.29933169131E+01  0.29030102287E+02  0.59301965159E+02  0.50000038539E+02 0.  0.
         12    1    1    2    0    0  0.12845716521E+02  0.29933169131E+01 -0.29030102287E+02  0.31886034841E+02  0.00000000000E+00 0. -1.
         11    1    3    3    0    0 -0.11421971299E+01  0.12563191298E+02 -0.69973478564E+01  0.14425715482E+02  0.51100000000E-03 0. -1.
        -11    1    3    3    0    0 -0.11827228211E+02 -0.67662567107E+01  0.86925675885E+01  0.16162496360E+02  0.51100000000E-03 0.  1.
         12    1    3    3    0    0  0.12370882074E+00 -0.87902515002E+01  0.27334882555E+02  0.28713753318E+02  0.00000000000E+00 0. -1.
</event>
<event>
 7    1  0.1204848E-011  0.5930203E+02  0.7816164E-02  0.1266604E+00
        -11   -1    0    0    0    0  0.00000000000E+00  0.00000000000E+00  0.45593999997E+02  0.45594000000E+02  0.51100000000E-03 0.  1.
         11   -1    0    0    0    0 -0.00000000000E+00 -0.00000000000E+00 -0.45593999997E+02  0.45594000000E+02  0.51100000000E-03 0. -1.
    9900012    2    1    2    0    0  0.30145070337E+02 -0.43589529152E+01  0.94334010644E+01  0.59302034564E+02  0.50000165115E+02 0.  0.
         12    1    1    2    0    0 -0.30145070337E+02  0.43589529152E+01 -0.94334010644E+01  0.31885965436E+02  0.00000000000E+00 0. -1.
         11    1    3    3    0    0 -0.62261452437E+01 -0.17622083427E+01 -0.30028250886E+01  0.71335279919E+01  0.51100000000E-03 0. -1.
        -11    1    3    3    0    0  0.11533064030E+02 -0.17259916147E+02  0.10492709013E+02  0.23259690755E+02  0.51100000000E-03 0.  1.
        -12    1    3    3    0    0  0.24838151551E+02  0.14663171574E+02  0.19435171403E+01  0.28908815817E+02  0.00000000000E+00 0.  1.
</event>
<event>
 7    1  0.1204848E-011  0.5930193E+02  0.7816164E-02  0.1266605E+00
        -11   -1    0    0    0    0  0.00000000000E+00  0.00000000000E+00  0.45593999997E+02  0.45594000000E+02  0.51100000000E-03 0.  1.
         11   -1    0    0    0    0 -0.00000000000E+00 -0.00000000000E+00 -0.45593999997E+02  0.45594000000E+02  0.51100000000E-03 0. -1.
    9900012    2    1    2    0    0  0.17487469439E+02  0.25001169931E+02  0.92655868061E+01  0.59301934327E+02  0.49999982307E+02 0.  0.
         12    1    1    2    0    0 -0.17487469439E+02 -0.25001169931E+02 -0.92655868061E+01  0.31886065673E+02  0.00000000000E+00 0. -1.
         11    1    3    3    0    0 -0.43090320451E+00 -0.10320477227E+02  0.48571195685E+01  0.11414444294E+02  0.51100000000E-03 0. -1.
        -11    1    3    3    0    0  0.24555047053E+02  0.26673960298E+02  0.63725520629E+01  0.36811138448E+02  0.51100000000E-03 0.  1.
         12    1    3    3    0    0 -0.66366744093E+01  0.86476868595E+01 -0.19640848253E+01  0.11076351585E+02  0.00000000000E+00 0. -1.
</event>
<event>
 7    1  0.1204848E-011  0.5930196E+02  0.7816164E-02  0.1266605E+00
        -11   -1    0    0    0    0  0.00000000000E+00  0.00000000000E+00  0.45593999997E+02  0.45594000000E+02  0.51100000000E-03 0.  1.
         11   -1    0    0    0    0 -0.00000000000E+00 -0.00000000000E+00 -0.45593999997E+02  0.45594000000E+02  0.51100000000E-03 0. -1.
    9900012    2    1    2    0    0 -0.25606074506E+02 -0.16785132464E+02  0.89054999825E+01  0.59301958330E+02  0.50000026084E+02 0.  0.
         12    1    1    2    0    0  0.25606074506E+02  0.16785132464E+02 -0.89054999825E+01  0.31886041670E+02  0.00000000000E+00 0. -1.
         11    1    3    3    0    0  0.10292775725E+02  0.16036013199E+01 -0.34948505417E+01  0.10987572520E+02  0.51100000000E-03 0. -1.
        -11    1    3    3    0    0  0.25951088793E+01 -0.73005805110E+00 -0.22391398653E+01  0.35044717791E+01  0.51100000000E-03 0.  1.
        -12    1    3    3    0    0 -0.38493959110E+02 -0.17658675733E+02  0.14639490389E+02  0.44809914031E+02  0.00000000000E+00 0.  1.
</event>
<event>
 7    1  0.1204848E-011  0.5930195E+02  0.7816164E-02  0.1266605E+00
        -11   -1    0    0    0    0  0.00000000000E+00  0.00000000000E+00  0.45593999997E+02  0.45594000000E+02  0.51100000000E-03 0.  1.
         11   -1    0    0    0    0 -0.00000000000E+00 -0.00000000000E+00 -0.45593999997E+02  0.45594000000E+02  0.51100000000E-03 0. -1.
    9900012    2    1    2    0    0  0.64889354182E+01 -0.23278192679E+02  0.20802397252E+02  0.59301948681E+02  0.50000008487E+02 0.  0.
         12    1    1    2    0    0 -0.64889354182E+01  0.23278192679E+02 -0.20802397252E+02  0.31886051319E+02  0.00000000000E+00 0. -1.
         11    1    3    3    0    0  0.13126794068E+02 -0.26578589288E+02 -0.48820231966E+01  0.30042774203E+02  0.51100000000E-03 0. -1.
        -11    1    3    3    0    0 -0.63620281888E-01 -0.19599416478E+01 -0.26423498737E+00  0.19786963366E+01  0.51100000000E-03 0.  1.
        -12    1    3    3    0    0 -0.65742383678E+01  0.52603382565E+01  0.25948655436E+02  0.27280478142E+02  0.00000000000E+00 0.  1.
</event>
<event>
 7    1  0.1204848E-011  0.5930195E+02  0.7816164E-02  0.1266605E+00
        -11   -1    0    0    0    0  0.00000000000E+00  0.00000000000E+00  0.45593999997E+02  0.45594000000E+02  0.51100000000E-03 0. -1.
         11   -1    0    0    0    0 -0.00000000000E+00 -0.00000000000E+00 -0.45593999997E+02  0.45594000000E+02  0.51100000000E-03 0.  1.
    9900012    2    1    2    0    0 -0.29968508722E+01 -0.28503596480E+02 -0.13974413236E+02  0.59301947363E+02  0.50000006083E+02 0.  0.
         12    1    1    2    0    0  0.29968508722E+01  0.28503596480E+02  0.13974413236E+02  0.31886052637E+02  0.00000000000E+00 0. -1.
         11    1    3    3    0    0 -0.53812547696E+01 -0.28457116273E+02  0.15356665122E+01  0.29002131670E+02  0.51100000000E-03 0. -1.
        -11    1    3    3    0    0 -0.63308285441E+01 -0.89137085928E+01 -0.14018011533E+02  0.17777464345E+02  0.51100000000E-03 0.  1.
         12    1    3    3    0    0  0.87152324414E+01  0.88672283854E+01 -0.14920682148E+01  0.12522351349E+02  0.00000000000E+00 0. -1.
</event>
<event>
 7    1  0.1204848E-011  0.5930190E+02  0.7816164E-02  0.1266605E+00
        -11   -1    0    0    0    0  0.00000000000E+00  0.00000000000E+00  0.45593999997E+02  0.45594000000E+02  0.51100000000E-03 0. -1.
         11   -1    0    0    0    0 -0.00000000000E+00 -0.00000000000E+00 -0.45593999997E+02  0.45594000000E+02  0.51100000000E-03 0.  1.
    9900012    2    1    2    0    0 -0.27727968936E+02 -0.97872721990E+01  0.12332568527E+02  0.59301902640E+02  0.49999924518E+02 0.  0.
         12    1    1    2    0    0  0.27727968936E+02  0.97872721990E+01 -0.12332568527E+02  0.31886097360E+02  0.00000000000E+00 0. -1.
         11    1    3    3    0    0 -0.94514506342E+01 -0.16422962338E+02  0.17937020203E+02  0.26091766997E+02  0.51100000000E-03 0. -1.
        -11    1    3    3    0    0 -0.16570444792E+02 -0.66145561875E+01 -0.81416855871E+01  0.19611706673E+02  0.51100000000E-03 0.  1.
        -12    1    3    3    0    0 -0.17060735099E+01  0.13250246326E+02  0.25372339113E+01  0.13598428970E+02  0.00000000000E+00 0.  1.
</event>
<event>
 7    1  0.1204848E-011  0.5930194E+02  0.7816164E-02  0.1266605E+00
        -11   -1    0    0    0    0  0.00000000000E+00  0.00000000000E+00  0.45593999997E+02  0.45594000000E+02  0.51100000000E-03 0.  1.
         11   -1    0    0    0    0 -0.00000000000E+00 -0.00000000000E+00 -0.45593999997E+02  0.45594000000E+02  0.51100000000E-03 0. -1.
    9900012    2    1    2    0    0 -0.10226694987E+02 -0.13837468136E+02  0.26845113041E+02  0.59301938641E+02  0.49999990177E+02 0.  0.
         12    1    1    2    0    0  0.10226694987E+02  0.13837468136E+02 -0.26845113041E+02  0.31886061359E+02  0.00000000000E+00 0. -1.
         11    1    3    3    0    0  0.76152902337E+01 -0.42369885117E+01  0.18143929217E+02  0.20128260846E+02  0.51100000000E-03 0. -1.
        -11    1    3    3    0    0 -0.63714875231E+01 -0.28096246083E+01  0.20326696569E+02  0.21486377949E+02  0.51100000000E-03 0.  1.
        -12    1    3    3    0    0 -0.11470497697E+02 -0.67908550160E+01 -0.11625512745E+02  0.17687299846E+02  0.00000000000E+00 0.  1.
</event>
<event>
 7    1  0.1204848E-011  0.5930195E+02  0.7816164E-02  0.1266605E+00
        -11   -1    0    0    0    0  0.00000000000E+00  0.00000000000E+00  0.45593999997E+02  0.45594000000E+02  0.51100000000E-03 0.  1.
         11   -1    0    0    0    0 -0.00000000000E+00 -0.00000000000E+00 -0.45593999997E+02  0.45594000000E+02  0.51100000000E-03 0. -1.
    9900012    2    1    2    0    0  0.57239800841E+01 -0.10634144896E+02  0.29510527982E+02  0.59301949014E+02  0.50000009095E+02 0.  0.
         12    1    1    2    0    0 -0.57239800841E+01  0.10634144896E+02 -0.29510527982E+02  0.31886050986E+02  0.00000000000E+00 0. -1.
         11    1    3    3    0    0  0.45318011717E+01 -0.10986312449E+02 -0.69762379870E+01  0.13780572550E+02  0.51100000000E-03 0. -1.
        -11    1    3    3    0    0  0.43375770146E+01 -0.80905409911E+01  0.13874866669E+01  0.92842095731E+01  0.51100000000E-03 0.  1.
        -12    1    3    3    0    0 -0.31453981022E+01  0.84427085442E+01  0.35099279302E+02  0.36237166891E+02  0.00000000000E+00 0.  1.
</event>
<event>
 7    1  0.1204848E-011  0.5930195E+02  0.7816164E-02  0.1266605E+00
        -11   -1    0    0    0    0  0.00000000000E+00  0.00000000000E+00  0.45593999997E+02  0.45594000000E+02  0.51100000000E-03 0.  1.
         11   -1    0    0    0    0 -0.00000000000E+00 -0.00000000000E+00 -0.45593999997E+02  0.45594000000E+02  0.51100000000E-03 0. -1.
    9900012    2    1    2    0    0 -0.21068613357E+02 -0.12266065334E+02  0.20551828665E+02  0.59301945226E+02  0.50000002186E+02 0.  0.
         12    1    1    2    0    0  0.21068613357E+02  0.12266065334E+02 -0.20551828665E+02  0.31886054774E+02  0.00000000000E+00 0. -1.
         11    1    3    3    0    0  0.14209030977E+01 -0.39974669709E+01  0.18959999229E+02  0.19428851712E+02  0.51100000000E-03 0. -1.
        -11    1    3    3    0    0 -0.45055510016E+01 -0.13294863004E+01  0.15439592268E+02  0.16138417931E+02  0.51100000000E-03 0.  1.
         12    1    3    3    0    0 -0.17983965453E+02 -0.69391120628E+01 -0.13847762832E+02  0.23734675584E+02  0.00000000000E+00 0. -1.
</event>
<event>
 7    1  0.1204848E-011  0.5930199E+02  0.7816164E-02  0.1266605E+00
        -11   -1    0    0    0    0  0.00000000000E+00  0.00000000000E+00  0.45593999997E+02  0.45594000000E+02  0.51100000000E-03 0.  1.
         11   -1    0    0    0    0 -0.00000000000E+00 -0.00000000000E+00 -0.45593999997E+02  0.45594000000E+02  0.51100000000E-03 0. -1.
    9900012    2    1    2    0    0 -0.35496388274E+01  0.29044412846E+02  0.12670419224E+02  0.59301994030E+02  0.50000091193E+02 0.  0.
         12    1    1    2    0    0  0.35496388274E+01 -0.29044412846E+02 -0.12670419224E+02  0.31886005970E+02  0.00000000000E+00 0. -1.
         11    1    3    3    0    0 -0.11460324384E+02  0.28131185723E+01 -0.13766566319E+01  0.11880566267E+02  0.51100000000E-03 0. -1.
        -11    1    3    3    0    0 -0.83197479350E+00  0.27745069113E+02 -0.32840168056E+01  0.27951132514E+02  0.51100000000E-03 0.  1.
        -12    1    3    3    0    0  0.87426603502E+01 -0.15137748391E+01  0.17331092661E+02  0.19470295249E+02  0.00000000000E+00 0.  1.
</event>
<event>
 7    1  0.1204848E-011  0.5930194E+02  0.7816164E-02  0.1266605E+00
        -11   -1    0    0    0    0  0.00000000000E+00  0.00000000000E+00  0.45593999997E+02  0.45594000000E+02  0.51100000000E-03 0.  1.
         11   -1    0    0    0    0 -0.00000000000E+00 -0.00000000000E+00 -0.45593999997E+02  0.45594000000E+02  0.51100000000E-03 0. -1.
    9900012    2    1    2    0    0 -0.29546892878E+02  0.92767804887E+01  0.75923114635E+01  0.59301941474E+02  0.49999995342E+02 0.  0.
         12    1    1    2    0    0  0.29546892878E+02 -0.92767804887E+01 -0.75923114635E+01  0.31886058526E+02  0.00000000000E+00 0. -1.
         11    1    3    3    0    0 -0.17959480040E+02  0.20227418376E+02 -0.19467103213E+01  0.27119754033E+02  0.51100000000E-03 0. -1.
        -11    1    3    3    0    0  0.61246661716E+01 -0.13944084202E+01 -0.44276954361E+01  0.76850762971E+01  0.51100000000E-03 0.  1.
         12    1    3    3    0    0 -0.17712079009E+02 -0.95562294672E+01  0.13966717221E+02  0.24497111144E+02  0.00000000000E+00 0. -1.
</event>
<event>
 7    1  0.1204848E-011  0.5930193E+02  0.7816164E-02  0.1266605E+00
        -11   -1    0    0    0    0  0.00000000000E+00  0.00000000000E+00  0.45593999997E+02  0.45594000000E+02  0.51100000000E-03 0. -1.
         11   -1    0    0    0    0 -0.00000000000E+00 -0.00000000000E+00 -0.45593999997E+02  0.45594000000E+02  0.51100000000E-03 0.  1.
    9900012    2    1    2    0    0  0.26714116390E+02  0.17326014167E+02 -0.16990997178E+01  0.59301925904E+02  0.49999966946E+02 0.  0.
         12    1    1    2    0    0 -0.26714116390E+02 -0.17326014167E+02  0.16990997178E+01  0.31886074096E+02  0.00000000000E+00 0. -1.
         11    1    3    3    0    0 -0.15972052296E+01 -0.76761692601E+01  0.19458081760E+01  0.80784162294E+01  0.51100000000E-03 0. -1.
        -11    1    3    3    0    0 -0.80163908589E+01  0.43736185230E+01 -0.23406859133E+01  0.94270818493E+01  0.51100000000E-03 0.  1.
        -12    1    3    3    0    0  0.36327712479E+02  0.20628564905E+02 -0.13042219805E+01  0.41796427825E+02  0.00000000000E+00 0.  1.
</event>
<event>
 7    1  0.1204848E-011  0.5930195E+02  0.7816164E-02  0.1266605E+00
        -11   -1    0    0    0    0  0.00000000000E+00  0.00000000000E+00  0.45593999997E+02  0.45594000000E+02  0.51100000000E-03 0.  1.
         11   -1    0    0    0    0 -0.00000000000E+00 -0.00000000000E+00 -0.45593999997E+02  0.45594000000E+02  0.51100000000E-03 0. -1.
    9900012    2    1    2    0    0  0.18496063573E+02  0.21549128154E+02  0.14500039921E+02  0.59301945844E+02  0.50000003313E+02 0.  0.
         12    1    1    2    0    0 -0.18496063573E+02 -0.21549128154E+02 -0.14500039921E+02  0.31886054156E+02  0.00000000000E+00 0. -1.
         11    1    3    3    0    0  0.11645157400E+02 -0.65623666775E+01  0.47282142901E+01  0.14178517480E+02  0.51100000000E-03 0. -1.
        -11    1    3    3    0    0  0.11150231202E+01  0.45364493505E+01  0.18696518682E+02  0.19271285903E+02  0.51100000000E-03 0.  1.
         12    1    3    3    0    0  0.57358830527E+01  0.23575045481E+02 -0.89246930508E+01  0.25852142462E+02  0.00000000000E+00 0. -1.
</event>
<event>
 7    1  0.1204848E-011  0.5930194E+02  0.7816164E-02  0.1266605E+00
        -11   -1    0    0    0    0  0.00000000000E+00  0.00000000000E+00  0.45593999997E+02  0.45594000000E+02  0.51100000000E-03 0.  1.
         11   -1    0    0    0    0 -0.00000000000E+00 -0.00000000000E+00 -0.45593999997E+02  0.45594000000E+02  0.51100000000E-03 0. -1.
    9900012    2    1    2    0    0  0.30901706858E+02  0.68883500128E+01 -0.37889091153E+01  0.59301942154E+02  0.49999996584E+02 0.  0.
         12    1    1    2    0    0 -0.30901706858E+02 -0.68883500128E+01  0.37889091153E+01  0.31886057846E+02  0.00000000000E+00 0. -1.
         11    1    3    3    0    0  0.18876405720E+02 -0.31709780204E+01 -0.13523808280E+02  0.23436449927E+02  0.51100000000E-03 0. -1.
        -11    1    3    3    0    0  0.16100861205E+02  0.28726074486E+01 -0.65395006014E+01  0.17614047617E+02  0.51100000000E-03 0.  1.
        -12    1    3    3    0    0 -0.40755600668E+01  0.71867205847E+01  0.16274399766E+02  0.18251444610E+02  0.00000000000E+00 0.  1.
</event>
<event>
 7    1  0.1204848E-011  0.5930196E+02  0.7816164E-02  0.1266605E+00
        -11   -1    0    0    0    0  0.00000000000E+00  0.00000000000E+00  0.45593999997E+02  0.45594000000E+02  0.51100000000E-03 0.  1.
         11   -1    0    0    0    0 -0.00000000000E+00 -0.00000000000E+00 -0.45593999997E+02  0.45594000000E+02  0.51100000000E-03 0. -1.
    9900012    2    1    2    0    0  0.46424819907E+01  0.29486964033E+02  0.11210982314E+02  0.59301955853E+02  0.50000021567E+02 0.  0.
         12    1    1    2    0    0 -0.46424819907E+01 -0.29486964033E+02 -0.11210982314E+02  0.31886044147E+02  0.00000000000E+00 0. -1.
         11    1    3    3    0    0  0.60772246361E+01 -0.57971578253E+00  0.12494171100E+01  0.62313540296E+01  0.51100000000E-03 0. -1.
        -11    1    3    3    0    0  0.17506210591E+02  0.20173342931E+02  0.15650075226E+02  0.30957325936E+02  0.51100000000E-03 0.  1.
        -12    1    3    3    0    0 -0.18940953236E+02  0.98933368844E+01 -0.56885100228E+01  0.22113275888E+02  0.00000000000E+00 0.  1.
</event>
<event>
 7    1  0.1204848E-011  0.5930194E+02  0.7816164E-02  0.1266605E+00
        -11   -1    0    0    0    0  0.00000000000E+00  0.00000000000E+00  0.45593999997E+02  0.45594000000E+02  0.51100000000E-03 0.  1.
         11   -1    0    0    0    0 -0.00000000000E+00 -0.00000000000E+00 -0.45593999997E+02  0.45594000000E+02  0.51100000000E-03 0. -1.
    9900012    2    1    2    0    0 -0.15872693903E+02 -0.68308736729E+01  0.26797711080E+02  0.59301944019E+02  0.49999999984E+02 0.  0.
         12    1    1    2    0    0  0.15872693903E+02  0.68308736729E+01 -0.26797711080E+02  0.31886055981E+02  0.00000000000E+00 0. -1.
         11    1    3    3    0    0 -0.82960265728E+01 -0.15799295814E+02  0.97231439511E+01  0.20321942173E+02  0.51100000000E-03 0. -1.
        -11    1    3    3    0    0 -0.20684714584E+02  0.59641658985E+01  0.93377891959E+01  0.23465357436E+02  0.51100000000E-03 0.  1.
        -12    1    3    3    0    0  0.13108047254E+02  0.30042562429E+01  0.77367779334E+01  0.15514644410E+02  0.00000000000E+00 0.  1.
</event>
<event>
 7    1  0.1204848E-011  0.5930195E+02  0.7816164E-02  0.1266605E+00
        -11   -1    0    0    0    0  0.00000000000E+00  0.00000000000E+00  0.45593999997E+02  0.45594000000E+02  0.51100000000E-03 0. -1.
         11   -1    0    0    0    0 -0.00000000000E+00 -0.00000000000E+00 -0.45593999997E+02  0.45594000000E+02  0.51100000000E-03 0.  1.
    9900012    2    1    2    0    0 -0.37998515428E+01 -0.26617254154E+02  0.17140681850E+02  0.59301951880E+02  0.50000014320E+02 0.  0.
         12    1    1    2    0    0  0.37998515428E+01  0.26617254154E+02 -0.17140681850E+02  0.31886048120E+02  0.00000000000E+00 0. -1.
         11    1    3    3    0    0  0.52486995718E+01 -0.69713308246E+01  0.23807193703E+02  0.25356079605E+02  0.51100000000E-03 0. -1.
        -11    1    3    3    0    0  0.51613979289E+01 -0.54190945736E+00  0.51970181356E+01  0.73445688915E+01  0.51100000000E-03 0.  1.
        -12    1    3    3    0    0 -0.14209949043E+02 -0.19104013873E+02 -0.11863529989E+02  0.26601303383E+02  0.00000000000E+00 0.  1.
</event>
<event>
 7    1  0.1204848E-011  0.5930195E+02  0.7816164E-02  0.1266605E+00
        -11   -1    0    0    0    0  0.00000000000E+00  0.00000000000E+00  0.45593999997E+02  0.45594000000E+02  0.51100000000E-03 0.  1.
         11   -1    0    0    0    0 -0.00000000000E+00 -0.00000000000E+00 -0.45593999997E+02  0.45594000000E+02  0.51100000000E-03 0. -1.
    9900012    2    1    2    0    0 -0.22835757034E+02 -0.10355392144E+02  0.19698079780E+02  0.59301948304E+02  0.50000007798E+02 0.  0.
         12    1    1    2    0    0  0.22835757034E+02  0.10355392144E+02 -0.19698079780E+02  0.31886051696E+02  0.00000000000E+00 0. -1.
         11    1    3    3    0    0  0.19727368212E+01 -0.12617222115E+02  0.68166329694E+01  0.14475927250E+02  0.51100000000E-03 0. -1.
        -11    1    3    3    0    0  0.63238300859E+00 -0.99763016565E+01  0.13243080315E+02  0.16592337976E+02  0.51100000000E-03 0.  1.
        -12    1    3    3    0    0 -0.25440876864E+02  0.12238131627E+02 -0.36163350492E+00  0.28233683077E+02  0.00000000000E+00 0.  1.
</event>
<event>
 7    1  0.1204848E-011  0.5930194E+02  0.7816164E-02  0.1266605E+00
        -11   -1    0    0    0    0  0.00000000000E+00  0.00000000000E+00  0.45593999997E+02  0.45594000000E+02  0.51100000000E-03 0.  1.
         11   -1    0    0    0    0 -0.00000000000E+00 -0.00000000000E+00 -0.45593999997E+02  0.45594000000E+02  0.51100000000E-03 0. -1.
    9900012    2    1    2    0    0 -0.23489119234E+02 -0.47993162966E+01  0.21022575440E+02  0.59301939763E+02  0.49999992223E+02 0.  0.
         12    1    1    2    0    0  0.23489119234E+02  0.47993162966E+01 -0.21022575440E+02  0.31886060237E+02  0.00000000000E+00 0. -1.
         11    1    3    3    0    0  0.11616937437E+02  0.49910625747E+01  0.11789044707E+01  0.12698573032E+02  0.51100000000E-03 0. -1.
        -11    1    3    3    0    0  0.54052141078E+00 -0.42865780132E+01  0.71727808252E+01  0.83735117774E+01  0.51100000000E-03 0.  1.
         12    1    3    3    0    0 -0.35646578081E+02 -0.55038008581E+01  0.12670890144E+02  0.38229854954E+02  0.00000000000E+00 0. -1.
</event>
<event>
 7    1  0.1204848E-011  0.5930198E+02  0.7816164E-02  0.1266605E+00
        -11   -1    0    0    0    0  0.00000000000E+00  0.00000000000E+00  0.45593999997E+02  0.45594000000E+02  0.51100000000E-03 0. -1.
         11   -1    0    0    0    0 -0.00000000000E+00 -0.00000000000E+00 -0.45593999997E+02  0.45594000000E+02  0.51100000000E-03 0.  1.
    9900012    2    1    2    0    0 -0.21234712119E+02 -0.50369472393E+01 -0.23247248386E+02  0.59301978081E+02  0.50000062106E+02 0.  0.
         12    1    1    2    0    0  0.21234712119E+02  0.50369472393E+01  0.23247248386E+02  0.31886021919E+02  0.00000000000E+00 0. -1.
         11    1    3    3    0    0 -0.29125908529E+02  0.69926413936E+01 -0.11828899919E+02  0.32204634059E+02  0.51100000000E-03 0. -1.
        -11    1    3    3    0    0 -0.59502864062E+01 -0.13114466753E+01  0.18326921899E+00  0.60958501101E+01  0.51100000000E-03 0.  1.
        -12    1    3    3    0    0  0.13841482817E+02 -0.10718141958E+02 -0.11601617686E+02  0.21001493912E+02  0.00000000000E+00 0.  1.
</event>
<event>
 7    1  0.1204848E-011  0.5930198E+02  0.7816164E-02  0.1266605E+00
        -11   -1    0    0    0    0  0.00000000000E+00  0.00000000000E+00  0.45593999997E+02  0.45594000000E+02  0.51100000000E-03 0.  1.
         11   -1    0    0    0    0 -0.00000000000E+00 -0.00000000000E+00 -0.45593999997E+02  0.45594000000E+02  0.51100000000E-03 0. -1.
    9900012    2    1    2    0    0  0.46057279138E+01 -0.31097060787E+00  0.31550100399E+02  0.59301980061E+02  0.50000065716E+02 0.  0.
         12    1    1    2    0    0 -0.46057279138E+01  0.31097060787E+00 -0.31550100399E+02  0.31886019939E+02  0.00000000000E+00 0. -1.
         11    1    3    3    0    0 -0.57653383684E+01  0.11839282517E+02  0.24525145320E+01  0.13394870840E+02  0.51100000000E-03 0. -1.
        -11    1    3    3    0    0  0.74434231115E+00  0.98188574970E+01  0.26385263623E+01  0.10194401878E+02  0.51100000000E-03 0.  1.
        -12    1    3    3    0    0  0.96267239710E+01 -0.21969110622E+02  0.26459059505E+02  0.35712707344E+02  0.00000000000E+00 0.  1.
</event>
<event>
 7    1  0.1204848E-011  0.5930196E+02  0.7816164E-02  0.1266605E+00
        -11   -1    0    0    0    0  0.00000000000E+00  0.00000000000E+00  0.45593999997E+02  0.45594000000E+02  0.51100000000E-03 0.  1.
         11   -1    0    0    0    0 -0.00000000000E+00 -0.00000000000E+00 -0.45593999997E+02  0.45594000000E+02  0.51100000000E-03 0. -1.
    9900012    2    1    2    0    0  0.31235642634E+02 -0.41534062991E+01 -0.48788866677E+01  0.59301957760E+02  0.50000025044E+02 0.  0.
         12    1    1    2    0    0 -0.31235642634E+02  0.41534062991E+01  0.48788866677E+01  0.31886042240E+02  0.00000000000E+00 0. -1.
         11    1    3    3    0    0 -0.51106917324E+01  0.58563957262E+01  0.49293125064E+01  0.92040568736E+01  0.51100000000E-03 0. -1.
        -11    1    3    3    0    0  0.92737524461E+01  0.11340233205E+02 -0.27931925471E+01  0.14913259149E+02  0.51100000000E-03 0.  1.
        -12    1    3    3    0    0  0.27072581920E+02 -0.21350035231E+02 -0.70150066270E+01  0.35184641737E+02  0.00000000000E+00 0.  1.
</event>
<event>
 7    1  0.1204848E-011  0.5930200E+02  0.7816164E-02  0.1266605E+00
        -11   -1    0    0    0    0  0.00000000000E+00  0.00000000000E+00  0.45593999997E+02  0.45594000000E+02  0.51100000000E-03 0.  1.
         11   -1    0    0    0    0 -0.00000000000E+00 -0.00000000000E+00 -0.45593999997E+02  0.45594000000E+02  0.51100000000E-03 0. -1.
    9900012    2    1    2    0    0 -0.59799404841E+01  0.29522479627E+02  0.10458505579E+02  0.59302002596E+02  0.50000106814E+02 0.  0.
         12    1    1    2    0    0  0.59799404841E+01 -0.29522479627E+02 -0.10458505579E+02  0.31885997404E+02  0.00000000000E+00 0. -1.
         11    1    3    3    0    0 -0.91042443665E+01  0.31429829907E+02 -0.61137650231E+01  0.33288129963E+02  0.51100000000E-03 0. -1.
        -11    1    3    3    0    0 -0.52548950621E+01  0.55164534620E+01  0.11327724238E+02  0.13651465767E+02  0.51100000000E-03 0.  1.
         12    1    3    3    0    0  0.83791989445E+01 -0.74238037418E+01  0.52445463645E+01  0.12362406866E+02  0.00000000000E+00 0. -1.
</event>
<event>
 7    1  0.1204848E-011  0.5930195E+02  0.7816164E-02  0.1266605E+00
        -11   -1    0    0    0    0  0.00000000000E+00  0.00000000000E+00  0.45593999997E+02  0.45594000000E+02  0.51100000000E-03 0.  1.
         11   -1    0    0    0    0 -0.00000000000E+00 -0.00000000000E+00 -0.45593999997E+02  0.45594000000E+02  0.51100000000E-03 0. -1.
    9900012    2    1    2    0    0  0.81102999046E+01  0.18691888888E+02 -0.24526652545E+02  0.59301947252E+02  0.50000005881E+02 0.  0.
         12    1    1    2    0    0 -0.81102999046E+01 -0.18691888888E+02  0.24526652545E+02  0.31886052748E+02  0.00000000000E+00 0. -1.
         11    1    3    3    0    0 -0.53682144009E+01  0.43831032566E+01  0.36935812206E+01  0.78531434793E+01  0.51100000000E-03 0. -1.
        -11    1    3    3    0    0  0.36016266904E+01  0.26141796733E+02 -0.11735106604E+02  0.28880408212E+02  0.51100000000E-03 0.  1.
         12    1    3    3    0    0  0.98768876152E+01 -0.11833011101E+02 -0.16485127161E+02  0.22568395561E+02  0.00000000000E+00 0. -1.
</event>
<event>
 7    1  0.1204848E-011  0.5930195E+02  0.7816164E-02  0.1266605E+00
        -11   -1    0    0    0    0  0.00000000000E+00  0.00000000000E+00  0.45593999997E+02  0.45594000000E+02  0.51100000000E-03 0. -1.
         11   -1    0    0    0    0 -0.00000000000E+00 -0.00000000000E+00 -0.45593999997E+02  0.45594000000E+02  0.51100000000E-03 0.  1.
    9900012    2    1    2    0    0  0.16511677284E+02  0.10837762498E+02 -0.25032531864E+02  0.59301949222E+02  0.50000009473E+02 0.  0.
         12    1    1    2    0    0 -0.16511677284E+02 -0.10837762498E+02  0.25032531864E+02  0.31886050778E+02  0.00000000000E+00 0. -1.
         11    1    3    3    0    0 -0.70134069421E+01 -0.89835828778E+00 -0.11499922552E+02  0.13499746054E+02  0.51100000000E-03 0. -1.
        -11    1    3    3    0    0 -0.31742384743E+01 -0.52880138895E+01 -0.12708960826E+02  0.14126449176E+02  0.51100000000E-03 0.  1.
         12    1    3    3    0    0  0.26699322700E+02  0.17024134676E+02 -0.82364848596E+00  0.31675753992E+02  0.00000000000E+00 0. -1.
</event>
<event>
 7    1  0.1204848E-011  0.5930196E+02  0.7816164E-02  0.1266605E+00
        -11   -1    0    0    0    0  0.00000000000E+00  0.00000000000E+00  0.45593999997E+02  0.45594000000E+02  0.51100000000E-03 0.  1.
         11   -1    0    0    0    0 -0.00000000000E+00 -0.00000000000E+00 -0.45593999997E+02  0.45594000000E+02  0.51100000000E-03 0. -1.
    9900012    2    1    2    0    0  0.65732189948E+01 -0.14664235901E+02  0.27540385570E+02  0.59301955092E+02  0.50000020179E+02 0.  0.
         12    1    1    2    0    0 -0.65732189948E+01  0.14664235901E+02 -0.27540385570E+02  0.31886044908E+02  0.00000000000E+00 0. -1.
         11    1    3    3    0    0  0.13417177683E+02 -0.25990211785E+01 -0.28771671318E+01  0.13966161213E+02  0.51100000000E-03 0. -1.
        -11    1    3    3    0    0  0.69791331521E+01 -0.15103713635E+02  0.25310472511E+02  0.30289445094E+02  0.51100000000E-03 0.  1.
         12    1    3    3    0    0 -0.13823091841E+02  0.30384989123E+01  0.51070801911E+01  0.15046348785E+02  0.00000000000E+00 0. -1.
</event>
<event>
 7    1  0.1204848E-011  0.5930195E+02  0.7816164E-02  0.1266605E+00
        -11   -1    0    0    0    0  0.00000000000E+00  0.00000000000E+00  0.45593999997E+02  0.45594000000E+02  0.51100000000E-03 0. -1.
         11   -1    0    0    0    0 -0.00000000000E+00 -0.00000000000E+00 -0.45593999997E+02  0.45594000000E+02  0.51100000000E-03 0.  1.
    9900012    2    1    2    0    0  0.21578645809E+02  0.21600080112E+02 -0.91934015415E+01  0.59301952146E+02  0.50000014807E+02 0.  0.
         12    1    1    2    0    0 -0.21578645809E+02 -0.21600080112E+02  0.91934015415E+01  0.31886047854E+02  0.00000000000E+00 0. -1.
         11    1    3    3    0    0  0.11854067762E+02 -0.32346470511E+01 -0.96111263024E+00  0.12324999059E+02  0.51100000000E-03 0. -1.
        -11    1    3    3    0    0 -0.86209868551E+01 -0.43728326482E+01 -0.79000998482E+01  0.12484176288E+02  0.51100000000E-03 0.  1.
        -12    1    3    3    0    0  0.18345564902E+02  0.29207559812E+02 -0.33218906305E+00  0.34492776799E+02  0.00000000000E+00 0.  1.
</event>
<event>
 7    1  0.1204848E-011  0.5930194E+02  0.7816164E-02  0.1266605E+00
        -11   -1    0    0    0    0  0.00000000000E+00  0.00000000000E+00  0.45593999997E+02  0.45594000000E+02  0.51100000000E-03 0. -1.
         11   -1    0    0    0    0 -0.00000000000E+00 -0.00000000000E+00 -0.45593999997E+02  0.45594000000E+02  0.51100000000E-03 0.  1.
    9900012    2    1    2    0    0  0.14306121176E+02 -0.23170622382E+02 -0.16588488685E+02  0.59301940327E+02  0.49999993250E+02 0.  0.
         12    1    1    2    0    0 -0.14306121176E+02  0.23170622382E+02  0.16588488685E+02  0.31886059673E+02  0.00000000000E+00 0. -1.
         11    1    3    3    0    0  0.24887459366E+02 -0.63793302614E+01 -0.17128852010E+02  0.30878456239E+02  0.51100000000E-03 0. -1.
        -11    1    3    3    0    0  0.10293076105E+01 -0.11434318031E+02 -0.71280993772E+01  0.13513434204E+02  0.51100000000E-03 0.  1.
        -12    1    3    3    0    0 -0.11610645801E+02 -0.53569740892E+01  0.76684627028E+01  0.14910049883E+02  0.00000000000E+00 0.  1.
</event>
<event>
 7    1  0.1204848E-011  0.5930195E+02  0.7816164E-02  0.1266605E+00
        -11   -1    0    0    0    0  0.00000000000E+00  0.00000000000E+00  0.45593999997E+02  0.45594000000E+02  0.51100000000E-03 0. -1.
         11   -1    0    0    0    0 -0.00000000000E+00 -0.00000000000E+00 -0.45593999997E+02  0.45594000000E+02  0.51100000000E-03 0.  1.
    9900012    2    1    2    0    0  0.27927943188E+02 -0.12658616787E+02 -0.87469606372E+01  0.59301954305E+02  0.50000018743E+02 0.  0.
         12    1    1    2    0    0 -0.27927943188E+02  0.12658616787E+02  0.87469606372E+01  0.31886045695E+02  0.00000000000E+00 0. -1.
         11    1    3    3    0    0  0.33313550288E+02 -0.10019130497E+02 -0.20468219360E+01  0.34847741519E+02  0.51100000000E-03 0.  1.
        -11    1    3    3    0    0  0.41728678243E+01 -0.67265192188E+01 -0.10705105640E+02  0.13313833922E+02  0.51100000000E-03 0. -1.
         12    1    3    3    0    0 -0.95584749239E+01  0.40870329285E+01  0.40049669392E+01  0.11140378863E+02  0.00000000000E+00 0. -1.
</event>
<event>
 7    1  0.1204848E-011  0.5930187E+02  0.7816164E-02  0.1266605E+00
        -11   -1    0    0    0    0  0.00000000000E+00  0.00000000000E+00  0.45593999997E+02  0.45594000000E+02  0.51100000000E-03 0.  1.
         11   -1    0    0    0    0 -0.00000000000E+00 -0.00000000000E+00 -0.45593999997E+02  0.45594000000E+02  0.51100000000E-03 0. -1.
    9900012    2    1    2    0    0  0.15247680530E+02  0.21873510268E+02  0.17486659116E+02  0.59301867277E+02  0.49999860026E+02 0.  0.
         12    1    1    2    0    0 -0.15247680530E+02 -0.21873510268E+02 -0.17486659116E+02  0.31886132723E+02  0.00000000000E+00 0. -1.
         11    1    3    3    0    0  0.80753596416E+01  0.24214032087E+02 -0.20699097151E+01  0.25608891225E+02  0.51100000000E-03 0. -1.
        -11    1    3    3    0    0  0.32589044353E+01  0.11612201093E+02  0.47137817577E+01  0.12949262954E+02  0.51100000000E-03 0.  1.
         12    1    3    3    0    0  0.39134164526E+01 -0.13952722912E+02  0.14842787073E+02  0.20743713098E+02  0.00000000000E+00 0. -1.
</event>
<event>
 7    1  0.1204848E-011  0.5930193E+02  0.7816164E-02  0.1266605E+00
        -11   -1    0    0    0    0  0.00000000000E+00  0.00000000000E+00  0.45593999997E+02  0.45594000000E+02  0.51100000000E-03 0.  1.
         11   -1    0    0    0    0 -0.00000000000E+00 -0.00000000000E+00 -0.45593999997E+02  0.45594000000E+02  0.51100000000E-03 0. -1.
    9900012    2    1    2    0    0  0.22353545171E+02 -0.22669495366E+02  0.17704381065E+01  0.59301930111E+02  0.49999974620E+02 0.  0.
         12    1    1    2    0    0 -0.22353545171E+02  0.22669495366E+02 -0.17704381065E+01  0.31886069889E+02  0.00000000000E+00 0. -1.
         11    1    3    3    0    0  0.71187054436E+01 -0.23555960547E+02 -0.15704764887E+02  0.29192445682E+02  0.51100000000E-03 0. -1.
        -11    1    3    3    0    0 -0.10016935366E+01 -0.65093279625E+01  0.58978413413E+01  0.88407733379E+01  0.51100000000E-03 0.  1.
        -12    1    3    3    0    0  0.16236533264E+02  0.73957931437E+01  0.11577361652E+02  0.21268711091E+02  0.00000000000E+00 0.  1.
</event>
<event>
 7    1  0.1204848E-011  0.5930188E+02  0.7816164E-02  0.1266605E+00
        -11   -1    0    0    0    0  0.00000000000E+00  0.00000000000E+00  0.45593999997E+02  0.45594000000E+02  0.51100000000E-03 0.  1.
         11   -1    0    0    0    0 -0.00000000000E+00 -0.00000000000E+00 -0.45593999997E+02  0.45594000000E+02  0.51100000000E-03 0. -1.
    9900012    2    1    2    0    0 -0.41399948335E+01  0.31102089473E+01  0.31462862717E+02  0.59301879395E+02  0.49999882125E+02 0.  0.
         12    1    1    2    0    0  0.41399948335E+01 -0.31102089473E+01 -0.31462862717E+02  0.31886120605E+02  0.00000000000E+00 0. -1.
         11    1    3    3    0    0  0.18082809781E+01 -0.97107345635E+01 -0.25826825336E+01  0.10209725520E+02  0.51100000000E-03 0. -1.
        -11    1    3    3    0    0 -0.16077983456E+02 -0.15382828825E+01  0.23762423969E+02  0.28731875319E+02  0.51100000000E-03 0.  1.
         12    1    3    3    0    0  0.10129707644E+02  0.14359226393E+02  0.10283121282E+02  0.20360278556E+02  0.00000000000E+00 0. -1.
</event>
<event>
 7    1  0.1204848E-011  0.5930194E+02  0.7816164E-02  0.1266605E+00
        -11   -1    0    0    0    0  0.00000000000E+00  0.00000000000E+00  0.45593999997E+02  0.45594000000E+02  0.51100000000E-03 0. -1.
         11   -1    0    0    0    0 -0.00000000000E+00 -0.00000000000E+00 -0.45593999997E+02  0.45594000000E+02  0.51100000000E-03 0.  1.
    9900012    2    1    2    0    0 -0.87170607493E+01 -0.30665137614E+02  0.61899080753E+00  0.59301937800E+02  0.49999988642E+02 0.  0.
         12    1    1    2    0    0  0.87170607493E+01  0.30665137614E+02 -0.61899080753E+00  0.31886062200E+02  0.00000000000E+00 0. -1.
         11    1    3    3    0    0 -0.97465209399E+01 -0.22951975384E+01 -0.14678213092E+01  0.10120133489E+02  0.51100000000E-03 0. -1.
        -11    1    3    3    0    0  0.38509936589E+01 -0.38324179291E+02  0.37628199624E+01  0.38700538560E+02  0.51100000000E-03 0.  1.
         12    1    3    3    0    0 -0.28215334683E+01  0.99542392147E+01 -0.16760078456E+01  0.10481265752E+02  0.00000000000E+00 0. -1.
</event>
<event>
 7    1  0.1204848E-011  0.5930194E+02  0.7816164E-02  0.1266605E+00
        -11   -1    0    0    0    0  0.00000000000E+00  0.00000000000E+00  0.45593999997E+02  0.45594000000E+02  0.51100000000E-03 0. -1.
         11   -1    0    0    0    0 -0.00000000000E+00 -0.00000000000E+00 -0.45593999997E+02  0.45594000000E+02  0.51100000000E-03 0.  1.
    9900012    2    1    2    0    0  0.71352552288E+01  0.60133839424E+01 -0.30490135522E+02  0.59301936936E+02  0.49999987066E+02 0.  0.
         12    1    1    2    0    0 -0.71352552288E+01 -0.60133839424E+01  0.30490135522E+02  0.31886063064E+02  0.00000000000E+00 0. -1.
         11    1    3    3    0    0  0.18184542003E+01 -0.48701333735E+01 -0.19962529064E+02  0.20628318924E+02  0.51100000000E-03 0. -1.
        -11    1    3    3    0    0  0.90074254891E+01  0.37474128388E+00 -0.21330419614E+02  0.23157308699E+02  0.51100000000E-03 0.  1.
         12    1    3    3    0    0 -0.36906244606E+01  0.10508776032E+02  0.10802813157E+02  0.15516309313E+02  0.00000000000E+00 0. -1.
</event>
<event>
 7    1  0.1204848E-011  0.5930198E+02  0.7816164E-02  0.1266605E+00
        -11   -1    0    0    0    0  0.00000000000E+00  0.00000000000E+00  0.45593999997E+02  0.45594000000E+02  0.51100000000E-03 0.  1.
         11   -1    0    0    0    0 -0.00000000000E+00 -0.00000000000E+00 -0.45593999997E+02  0.45594000000E+02  0.51100000000E-03 0. -1.
    9900012    2    1    2    0    0  0.96705930925E+01 -0.13996610098E+02  0.26968371472E+02  0.59301976027E+02  0.50000058358E+02 0.  0.
         12    1    1    2    0    0 -0.96705930925E+01  0.13996610098E+02 -0.26968371472E+02  0.31886023973E+02  0.00000000000E+00 0. -1.
         11    1    3    3    0    0  0.10031000961E+01 -0.74938589622E+01 -0.69524263283E+01  0.10271337014E+02  0.51100000000E-03 0. -1.
        -11    1    3    3    0    0  0.13294233672E+02  0.93680616400E+01  0.76061742550E+01  0.17954139213E+02  0.51100000000E-03 0.  1.
        -12    1    3    3    0    0 -0.46267406760E+01 -0.15870812776E+02  0.26314623545E+02  0.31076499799E+02  0.00000000000E+00 0.  1.
</event>
<event>
 7    1  0.1204848E-011  0.5930193E+02  0.7816164E-02  0.1266605E+00
        -11   -1    0    0    0    0  0.00000000000E+00  0.00000000000E+00  0.45593999997E+02  0.45594000000E+02  0.51100000000E-03 0.  1.
         11   -1    0    0    0    0 -0.00000000000E+00 -0.00000000000E+00 -0.45593999997E+02  0.45594000000E+02  0.51100000000E-03 0. -1.
    9900012    2    1    2    0    0  0.19159685154E+02  0.42113919035E+01  0.25137468264E+02  0.59301926744E+02  0.49999968478E+02 0.  0.
         12    1    1    2    0    0 -0.19159685154E+02 -0.42113919035E+01 -0.25137468264E+02  0.31886073256E+02  0.00000000000E+00 0. -1.
         11    1    3    3    0    0  0.17839394119E+02 -0.75386557958E+01 -0.40935539324E+01  0.19794759352E+02  0.51100000000E-03 0. -1.
        -11    1    3    3    0    0  0.34146799212E+01  0.13555333582E+01 -0.35166061423E+01  0.50856689501E+01  0.51100000000E-03 0.  1.
        -12    1    3    3    0    0 -0.20943888859E+01  0.10394514341E+02  0.32747628339E+02  0.34421498442E+02  0.00000000000E+00 0.  1.
</event>
<event>
 7    1  0.1204848E-011  0.5930196E+02  0.7816164E-02  0.1266605E+00
        -11   -1    0    0    0    0  0.00000000000E+00  0.00000000000E+00  0.45593999997E+02  0.45594000000E+02  0.51100000000E-03 0.  1.
         11   -1    0    0    0    0 -0.00000000000E+00 -0.00000000000E+00 -0.45593999997E+02  0.45594000000E+02  0.51100000000E-03 0. -1.
    9900012    2    1    2    0    0 -0.30180157361E+02 -0.94307975176E+01  0.41155646689E+01  0.59301957400E+02  0.50000024388E+02 0.  0.
         12    1    1    2    0    0  0.30180157361E+02  0.94307975176E+01 -0.41155646689E+01  0.31886042600E+02  0.00000000000E+00 0. -1.
         11    1    3    3    0    0  0.36453598637E+01 -0.31519462218E+01  0.27241264651E+01  0.55357274843E+01  0.51100000000E-03 0. -1.
        -11    1    3    3    0    0  0.73625495701E+00 -0.17316570139E+02 -0.13275955616E+01  0.17382985445E+02  0.51100000000E-03 0.  1.
         12    1    3    3    0    0 -0.34561772181E+02  0.11037718844E+02  0.27190337654E+01  0.36383244471E+02  0.00000000000E+00 0. -1.
</event>
<event>
 7    1  0.1207277E-011  0.5930193E+02  0.7816164E-02  0.1266605E+00
        -11   -1    0    0    0    0  0.00000000000E+00  0.00000000000E+00  0.45593999997E+02  0.45594000000E+02  0.51100000000E-03 0. -1.
         11   -1    0    0    0    0 -0.00000000000E+00 -0.00000000000E+00 -0.45593999997E+02  0.45594000000E+02  0.51100000000E-03 0.  1.
    9900012    2    1    2    0    0 -0.20153202589E+02 -0.10413916004E+02 -0.22408045373E+02  0.59301925946E+02  0.49999967024E+02 0.  0.
         12    1    1    2    0    0  0.20153202589E+02  0.10413916004E+02  0.22408045373E+02  0.31886074054E+02  0.00000000000E+00 0. -1.
         11    1    3    3    0    0 -0.22172643215E+02 -0.43842861971E+01 -0.54815765100E+01  0.23257165646E+02  0.51100000000E-03 0. -1.
        -11    1    3    3    0    0 -0.59842189104E+01 -0.59545006649E+01 -0.23951128744E+02  0.25395344504E+02  0.51100000000E-03 0.  1.
         12    1    3    3    0    0  0.80036595358E+01 -0.75129141554E-01  0.70246598808E+01  0.10649415796E+02  0.00000000000E+00 0. -1.
</event>
<event>
 7    1  0.1204848E-011  0.5930178E+02  0.7816164E-02  0.1266605E+00
        -11   -1    0    0    0    0  0.00000000000E+00  0.00000000000E+00  0.45593999997E+02  0.45594000000E+02  0.51100000000E-03 0. -1.
         11   -1    0    0    0    0 -0.00000000000E+00 -0.00000000000E+00 -0.45593999997E+02  0.45594000000E+02  0.51100000000E-03 0.  1.
    9900012    2    1    2    0    0  0.20774093344E+02  0.18907603919E+02 -0.15088756461E+02  0.59301780222E+02  0.49999701256E+02 0.  0.
         12    1    1    2    0    0 -0.20774093344E+02 -0.18907603919E+02  0.15088756461E+02  0.31886219778E+02  0.00000000000E+00 0. -1.
         11    1    3    3    0    0 -0.14102767006E+01  0.12136661685E+02 -0.27106235261E+02  0.29732733266E+02  0.51100000000E-03 0. -1.
        -11    1    3    3    0    0  0.11928249456E+01 -0.11138883499E+00 -0.27480115198E+01  0.29978002598E+01  0.51100000000E-03 0.  1.
         12    1    3    3    0    0  0.20991545099E+02  0.68823310697E+01  0.14765490320E+02  0.26571246696E+02  0.00000000000E+00 0. -1.
</event>
<event>
 7    1  0.1204848E-011  0.5930188E+02  0.7816164E-02  0.1266605E+00
        -11   -1    0    0    0    0  0.00000000000E+00  0.00000000000E+00  0.45593999997E+02  0.45594000000E+02  0.51100000000E-03 0.  1.
         11   -1    0    0    0    0 -0.00000000000E+00 -0.00000000000E+00 -0.45593999997E+02  0.45594000000E+02  0.51100000000E-03 0. -1.
    9900012    2    1    2    0    0 -0.13473351762E+02  0.11113655057E+02  0.26677332876E+02  0.59301880358E+02  0.49999883882E+02 0.  0.
         12    1    1    2    0    0  0.13473351762E+02 -0.11113655057E+02 -0.26677332876E+02  0.31886119642E+02  0.00000000000E+00 0. -1.
         11    1    3    3    0    0  0.89521211015E+01 -0.78061838044E+01 -0.11546525231E+01  0.11933574507E+02  0.51100000000E-03 0. -1.
        -11    1    3    3    0    0  0.81403637140E+00 -0.47000488335E+01  0.60928963602E+01  0.77379907320E+01  0.51100000000E-03 0.  1.
        -12    1    3    3    0    0 -0.23239509234E+02  0.23619887695E+02  0.21739089039E+02  0.39630315119E+02  0.00000000000E+00 0.  1.
</event>
<event>
 7    1  0.1204848E-011  0.5930195E+02  0.7816164E-02  0.1266605E+00
        -11   -1    0    0    0    0  0.00000000000E+00  0.00000000000E+00  0.45593999997E+02  0.45594000000E+02  0.51100000000E-03 0. -1.
         11   -1    0    0    0    0 -0.00000000000E+00 -0.00000000000E+00 -0.45593999997E+02  0.45594000000E+02  0.51100000000E-03 0.  1.
    9900012    2    1    2    0    0  0.49818183036E+01 -0.10871040711E+02 -0.29558794311E+02  0.59301947236E+02  0.50000005851E+02 0.  0.
         12    1    1    2    0    0 -0.49818183036E+01  0.10871040711E+02  0.29558794311E+02  0.31886052764E+02  0.00000000000E+00 0. -1.
         11    1    3    3    0    0  0.32508953941E+01  0.82648474500E+01 -0.15401443166E+02  0.17778652258E+02  0.51100000000E-03 0. -1.
        -11    1    3    3    0    0 -0.41122376052E+01  0.90209334754E+01 -0.61727869090E+01  0.11678657345E+02  0.51100000000E-03 0.  1.
         12    1    3    3    0    0  0.58431605147E+01 -0.28156821636E+02 -0.79845642359E+01  0.29844637634E+02  0.00000000000E+00 0. -1.
</event>
<event>
 7    1  0.1204848E-011  0.5930193E+02  0.7816164E-02  0.1266605E+00
        -11   -1    0    0    0    0  0.00000000000E+00  0.00000000000E+00  0.45593999997E+02  0.45594000000E+02  0.51100000000E-03 0. -1.
         11   -1    0    0    0    0 -0.00000000000E+00 -0.00000000000E+00 -0.45593999997E+02  0.45594000000E+02  0.51100000000E-03 0.  1.
    9900012    2    1    2    0    0  0.99414632041E+01  0.99630700763E+01 -0.28611639407E+02  0.59301931482E+02  0.49999977119E+02 0.  0.
         12    1    1    2    0    0 -0.99414632041E+01 -0.99630700763E+01  0.28611639407E+02  0.31886068518E+02  0.00000000000E+00 0. -1.
         11    1    3    3    0    0  0.11033132187E+02 -0.35602162395E+01 -0.18230754987E+01  0.11735789282E+02  0.51100000000E-03 0. -1.
        -11    1    3    3    0    0  0.67666640017E+01 -0.37488303094E+01  0.59272589276E+01  0.97454537635E+01  0.51100000000E-03 0.  1.
        -12    1    3    3    0    0 -0.78583329846E+01  0.17272116625E+02 -0.32715822836E+02  0.37820688437E+02  0.00000000000E+00 0.  1.
</event>
<event>
 7    1  0.1204848E-011  0.5930197E+02  0.7816164E-02  0.1266605E+00
        -11   -1    0    0    0    0  0.00000000000E+00  0.00000000000E+00  0.45593999997E+02  0.45594000000E+02  0.51100000000E-03 0.  1.
         11   -1    0    0    0    0 -0.00000000000E+00 -0.00000000000E+00 -0.45593999997E+02  0.45594000000E+02  0.51100000000E-03 0. -1.
    9900012    2    1    2    0    0  0.29535505957E+02 -0.81127309438E+01  0.88632221603E+01  0.59301965086E+02  0.50000038405E+02 0.  0.
         12    1    1    2    0    0 -0.29535505957E+02  0.81127309438E+01 -0.88632221603E+01  0.31886034914E+02  0.00000000000E+00 0. -1.
         11    1    3    3    0    0  0.76439047922E+01 -0.11404734324E+01  0.80431292156E+01  0.11154455969E+02  0.51100000000E-03 0. -1.
        -11    1    3    3    0    0  0.17956365964E+02 -0.10259009864E+02  0.19713363519E+02  0.28570877892E+02  0.51100000000E-03 0.  1.
         12    1    3    3    0    0  0.39352352008E+01  0.32867523528E+01 -0.18893270574E+02  0.19576631225E+02  0.00000000000E+00 0. -1.
</event>
<event>
 7    1  0.1204848E-011  0.5930189E+02  0.7816164E-02  0.1266605E+00
        -11   -1    0    0    0    0  0.00000000000E+00  0.00000000000E+00  0.45593999997E+02  0.45594000000E+02  0.51100000000E-03 0. -1.
         11   -1    0    0    0    0 -0.00000000000E+00 -0.00000000000E+00 -0.45593999997E+02  0.45594000000E+02  0.51100000000E-03 0.  1.
    9900012    2    1    2    0    0  0.21772126105E+02  0.11014322202E+02 -0.20527620928E+02  0.59301890334E+02  0.49999902075E+02 0.  0.
         12    1    1    2    0    0 -0.21772126105E+02 -0.11014322202E+02  0.20527620928E+02  0.31886109666E+02  0.00000000000E+00 0. -1.
         11    1    3    3    0    0  0.12044666161E+02  0.14185230936E+00  0.23564915392E+01  0.12273840378E+02  0.51100000000E-03 0. -1.
        -11    1    3    3    0    0  0.21819997605E+02  0.15360385816E+02 -0.92066106223E+01  0.28227919288E+02  0.51100000000E-03 0.  1.
         12    1    3    3    0    0 -0.12092537660E+02 -0.44879159240E+01 -0.13677501845E+02  0.18800130668E+02  0.00000000000E+00 0. -1.
</event>
<event>
 7    1  0.1204848E-011  0.5930195E+02  0.7816164E-02  0.1266605E+00
        -11   -1    0    0    0    0  0.00000000000E+00  0.00000000000E+00  0.45593999997E+02  0.45594000000E+02  0.51100000000E-03 0.  1.
         11   -1    0    0    0    0 -0.00000000000E+00 -0.00000000000E+00 -0.45593999997E+02  0.45594000000E+02  0.51100000000E-03 0. -1.
    9900012    2    1    2    0    0  0.33796168236E+01 -0.20635106189E+02  0.24072616715E+02  0.59301948304E+02  0.50000007798E+02 0.  0.
         12    1    1    2    0    0 -0.33796168236E+01  0.20635106189E+02 -0.24072616715E+02  0.31886051696E+02  0.00000000000E+00 0. -1.
         11    1    3    3    0    0  0.42736608684E+01  0.10154585742E+02  0.11766000935E+02  0.16118888519E+02  0.51100000000E-03 0. -1.
        -11    1    3    3    0    0  0.40035363604E+01  0.39010977791E+01  0.47662224961E+01  0.73460019341E+01  0.51100000000E-03 0.  1.
         12    1    3    3    0    0 -0.48975804053E+01 -0.34690789710E+02  0.75403932833E+01  0.35837057851E+02  0.00000000000E+00 0. -1.
</event>
<event>
 7    1  0.1204848E-011  0.5930195E+02  0.7816164E-02  0.1266605E+00
        -11   -1    0    0    0    0  0.00000000000E+00  0.00000000000E+00  0.45593999997E+02  0.45594000000E+02  0.51100000000E-03 0.  1.
         11   -1    0    0    0    0 -0.00000000000E+00 -0.00000000000E+00 -0.45593999997E+02  0.45594000000E+02  0.51100000000E-03 0. -1.
    9900012    2    1    2    0    0 -0.32035380916E+01 -0.28806099955E+02  0.13291590210E+02  0.59301946290E+02  0.50000004125E+02 0.  0.
         12    1    1    2    0    0  0.32035380916E+01  0.28806099955E+02 -0.13291590210E+02  0.31886053710E+02  0.00000000000E+00 0. -1.
         11    1    3    3    0    0 -0.86928722383E+01 -0.18640065943E+02  0.20166132480E+02  0.28804357059E+02  0.51100000000E-03 0. -1.
        -11    1    3    3    0    0 -0.31794461259E+01 -0.90259202063E+01  0.85073657526E+01  0.12804350259E+02  0.51100000000E-03 0.  1.
         12    1    3    3    0    0  0.86687802726E+01 -0.11401138056E+01 -0.15381908023E+02  0.17693238972E+02  0.00000000000E+00 0. -1.
</event>
<event>
 7    1  0.1204848E-011  0.5930188E+02  0.7816164E-02  0.1266605E+00
        -11   -1    0    0    0    0  0.00000000000E+00  0.00000000000E+00  0.45593999997E+02  0.45594000000E+02  0.51100000000E-03 0.  1.
         11   -1    0    0    0    0 -0.00000000000E+00 -0.00000000000E+00 -0.45593999997E+02  0.45594000000E+02  0.51100000000E-03 0. -1.
    9900012    2    1    2    0    0  0.90278288295E+01 -0.62923393280E+01  0.29927065213E+02  0.59301882961E+02  0.49999888628E+02 0.  0.
         12    1    1    2    0    0 -0.90278288295E+01  0.62923393280E+01 -0.29927065213E+02  0.31886117039E+02  0.00000000000E+00 0. -1.
         11    1    3    3    0    0  0.44647689265E+01 -0.50964239341E+01  0.27603066963E+02  0.28422473582E+02  0.51100000000E-03 0. -1.
        -11    1    3    3    0    0  0.40572961895E+01  0.13002854797E+02  0.77490630581E+01  0.15671115588E+02  0.51100000000E-03 0.  1.
         12    1    3    3    0    0  0.50576371348E+00 -0.14198770191E+02 -0.54250648082E+01  0.15208293791E+02  0.00000000000E+00 0. -1.
</event>
<event>
 7    1  0.1204848E-011  0.5930194E+02  0.7816164E-02  0.1266605E+00
        -11   -1    0    0    0    0  0.00000000000E+00  0.00000000000E+00  0.45593999997E+02  0.45594000000E+02  0.51100000000E-03 0.  1.
         11   -1    0    0    0    0 -0.00000000000E+00 -0.00000000000E+00 -0.45593999997E+02  0.45594000000E+02  0.51100000000E-03 0. -1.
    9900012    2    1    2    0    0  0.69453512911E+01 -0.17928070941E+01  0.31068776989E+02  0.59301937756E+02  0.49999988562E+02 0.  0.
         12    1    1    2    0    0 -0.69453512911E+01  0.17928070941E+01 -0.31068776989E+02  0.31886062244E+02  0.00000000000E+00 0. -1.
         11    1    3    3    0    0  0.46951410606E+01  0.65136416979E+01  0.54260794326E+00  0.80477513250E+01  0.51100000000E-03 0. -1.
        -11    1    3    3    0    0 -0.75353744063E+00  0.11203764912E+02 -0.36323848795E+01  0.11801965389E+02  0.51100000000E-03 0.  1.
        -12    1    3    3    0    0  0.30037476710E+01 -0.19510213704E+02  0.34158553925E+02  0.39452221042E+02  0.00000000000E+00 0.  1.
</event>
<event>
 7    1  0.1204848E-011  0.5930190E+02  0.7816164E-02  0.1266605E+00
        -11   -1    0    0    0    0  0.00000000000E+00  0.00000000000E+00  0.45593999997E+02  0.45594000000E+02  0.51100000000E-03 0. -1.
         11   -1    0    0    0    0 -0.00000000000E+00 -0.00000000000E+00 -0.45593999997E+02  0.45594000000E+02  0.51100000000E-03 0.  1.
    9900012    2    1    2    0    0 -0.21600022267E+02 -0.18033531337E+02  0.14998467207E+02  0.59301902198E+02  0.49999923713E+02 0.  0.
         12    1    1    2    0    0  0.21600022267E+02  0.18033531337E+02 -0.14998467207E+02  0.31886097802E+02  0.00000000000E+00 0. -1.
         11    1    3    3    0    0 -0.14440690948E+02  0.48215464824E+01  0.76167816884E+01  0.17023402395E+02  0.51100000000E-03 0. -1.
        -11    1    3    3    0    0 -0.86694767622E+01  0.67220537421E+01 -0.21255422877E+01  0.11174245573E+02  0.51100000000E-03 0.  1.
        -12    1    3    3    0    0  0.15101454434E+01 -0.29577131562E+02  0.95072278067E+01  0.31104254231E+02  0.00000000000E+00 0.  1.
</event>
<event>
 7    1  0.1204848E-011  0.5930194E+02  0.7816164E-02  0.1266605E+00
        -11   -1    0    0    0    0  0.00000000000E+00  0.00000000000E+00  0.45593999997E+02  0.45594000000E+02  0.51100000000E-03 0. -1.
         11   -1    0    0    0    0 -0.00000000000E+00 -0.00000000000E+00 -0.45593999997E+02  0.45594000000E+02  0.51100000000E-03 0.  1.
    9900012    2    1    2    0    0 -0.24740104034E+02 -0.15925701431E+02 -0.12289024802E+02  0.59301939656E+02  0.49999992026E+02 0.  0.
         12    1    1    2    0    0  0.24740104034E+02  0.15925701431E+02  0.12289024802E+02  0.31886060344E+02  0.00000000000E+00 0. -1.
         11    1    3    3    0    0 -0.28185537970E+01 -0.93722941108E+01 -0.75691542427E+01  0.12372398256E+02  0.51100000000E-03 0. -1.
        -11    1    3    3    0    0 -0.44341495644E+01 -0.16985729735E+02 -0.15912383725E+02  0.23693472794E+02  0.51100000000E-03 0.  1.
         12    1    3    3    0    0 -0.17487400673E+02  0.10432322414E+02  0.11192513165E+02  0.23236068605E+02  0.00000000000E+00 0. -1.
</event>
<event>
 7    1  0.1204848E-011  0.5930200E+02  0.7816164E-02  0.1266605E+00
        -11   -1    0    0    0    0  0.00000000000E+00  0.00000000000E+00  0.45593999997E+02  0.45594000000E+02  0.51100000000E-03 0. -1.
         11   -1    0    0    0    0 -0.00000000000E+00 -0.00000000000E+00 -0.45593999997E+02  0.45594000000E+02  0.51100000000E-03 0.  1.
    9900012    2    1    2    0    0  0.17690698810E+02 -0.19694227943E+02 -0.17773389439E+02  0.59302002904E+02  0.50000107376E+02 0.  0.
         12    1    1    2    0    0 -0.17690698810E+02  0.19694227943E+02  0.17773389439E+02  0.31885997096E+02  0.00000000000E+00 0. -1.
         11    1    3    3    0    0 -0.87605489246E+00 -0.88467360027E+01 -0.44735784619E+01  0.99521412064E+01  0.51100000000E-03 0. -1.
        -11    1    3    3    0    0 -0.75679200758E+01 -0.18725366001E+02 -0.65366639360E+01  0.21228300021E+02  0.51100000000E-03 0.  1.
         12    1    3    3    0    0  0.26134673778E+02  0.78778740605E+01 -0.67631470410E+01  0.28121561676E+02  0.00000000000E+00 0. -1.
</event>
<event>
 7    1  0.1204848E-011  0.5930192E+02  0.7816164E-02  0.1266605E+00
        -11   -1    0    0    0    0  0.00000000000E+00  0.00000000000E+00  0.45593999997E+02  0.45594000000E+02  0.51100000000E-03 0. -1.
         11   -1    0    0    0    0 -0.00000000000E+00 -0.00000000000E+00 -0.45593999997E+02  0.45594000000E+02  0.51100000000E-03 0.  1.
    9900012    2    1    2    0    0  0.50219045274E+01 -0.26284237662E+02 -0.17339007440E+02  0.59301923829E+02  0.49999963163E+02 0.  0.
         12    1    1    2    0    0 -0.50219045274E+01  0.26284237662E+02  0.17339007440E+02  0.31886076171E+02  0.00000000000E+00 0. -1.
         11    1    3    3    0    0  0.15444241517E+02  0.63267150326E+01 -0.11390050961E+02  0.20206067907E+02  0.51100000000E-03 0.  1.
        -11    1    3    3    0    0 -0.19874755826E+01 -0.12798774410E+02  0.62134592539E+01  0.14365436358E+02  0.51100000000E-03 0. -1.
        -12    1    3    3    0    0 -0.84348614068E+01 -0.19812178285E+02 -0.12162415733E+02  0.24730419564E+02  0.00000000000E+00 0.  1.
</event>
<event>
 7    1  0.1204848E-011  0.5930197E+02  0.7816164E-02  0.1266605E+00
        -11   -1    0    0    0    0  0.00000000000E+00  0.00000000000E+00  0.45593999997E+02  0.45594000000E+02  0.51100000000E-03 0. -1.
         11   -1    0    0    0    0 -0.00000000000E+00 -0.00000000000E+00 -0.45593999997E+02  0.45594000000E+02  0.51100000000E-03 0.  1.
    9900012    2    1    2    0    0 -0.12854831379E+02  0.24799714386E+02 -0.15376820381E+02  0.59301966562E+02  0.50000041097E+02 0.  0.
         12    1    1    2    0    0  0.12854831379E+02 -0.24799714386E+02  0.15376820381E+02  0.31886033438E+02  0.00000000000E+00 0. -1.
         11    1    3    3    0    0  0.54179967879E+01  0.16387593311E+01  0.85233390328E+01  0.10231692424E+02  0.51100000000E-03 0. -1.
        -11    1    3    3    0    0 -0.55755555298E+01  0.75158967458E+01  0.73417493359E+01  0.11894402336E+02  0.51100000000E-03 0.  1.
        -12    1    3    3    0    0 -0.12697272637E+02  0.15645058309E+02 -0.31241908749E+02  0.37175871802E+02  0.00000000000E+00 0.  1.
</event>
<event>
 7    1  0.1204848E-011  0.5930202E+02  0.7816164E-02  0.1266605E+00
        -11   -1    0    0    0    0  0.00000000000E+00  0.00000000000E+00  0.45593999997E+02  0.45594000000E+02  0.51100000000E-03 0.  1.
         11   -1    0    0    0    0 -0.00000000000E+00 -0.00000000000E+00 -0.45593999997E+02  0.45594000000E+02  0.51100000000E-03 0. -1.
    9900012    2    1    2    0    0 -0.67880665471E+01  0.18729693320E+02  0.24896516291E+02  0.59302019025E+02  0.50000136777E+02 0.  0.
         12    1    1    2    0    0  0.67880665471E+01 -0.18729693320E+02 -0.24896516291E+02  0.31885980975E+02  0.00000000000E+00 0. -1.
         11    1    3    3    0    0 -0.19682039686E+02  0.85617249046E+00  0.38240751812E+01  0.20068364875E+02  0.51100000000E-03 0. -1.
        -11    1    3    3    0    0 -0.12948104756E+01 -0.50184569239E+01  0.24708611109E+00  0.51886892249E+01  0.51100000000E-03 0.  1.
        -12    1    3    3    0    0  0.14188783614E+02  0.22891977754E+02  0.20825354998E+02  0.34044964925E+02  0.00000000000E+00 0.  1.
</event>
<event>
 7    1  0.1204848E-011  0.5930192E+02  0.7816164E-02  0.1266605E+00
        -11   -1    0    0    0    0  0.00000000000E+00  0.00000000000E+00  0.45593999997E+02  0.45594000000E+02  0.51100000000E-03 0.  1.
         11   -1    0    0    0    0 -0.00000000000E+00 -0.00000000000E+00 -0.45593999997E+02  0.45594000000E+02  0.51100000000E-03 0. -1.
    9900012    2    1    2    0    0  0.10987979503E+02  0.16593099785E+02  0.24912961669E+02  0.59301916622E+02  0.49999950019E+02 0.  0.
         12    1    1    2    0    0 -0.10987979503E+02 -0.16593099785E+02 -0.24912961669E+02  0.31886083378E+02  0.00000000000E+00 0. -1.
         11    1    3    3    0    0 -0.74740749825E+01  0.58165718146E+01  0.20689681048E+02  0.22754278865E+02  0.51100000000E-03 0. -1.
        -11    1    3    3    0    0 -0.63256789564E+01  0.39829419324E+01 -0.52727281357E+01  0.91476610644E+01  0.51100000000E-03 0.  1.
        -12    1    3    3    0    0  0.24787733442E+02  0.67935860385E+01  0.94960087560E+01  0.27399976693E+02  0.00000000000E+00 0.  1.
</event>
<event>
 7    1  0.1204848E-011  0.5930190E+02  0.7816164E-02  0.1266605E+00
        -11   -1    0    0    0    0  0.00000000000E+00  0.00000000000E+00  0.45593999997E+02  0.45594000000E+02  0.51100000000E-03 0. -1.
         11   -1    0    0    0    0 -0.00000000000E+00 -0.00000000000E+00 -0.45593999997E+02  0.45594000000E+02  0.51100000000E-03 0.  1.
    9900012    2    1    2    0    0  0.17959879733E+01 -0.25970974613E+02  0.18412124944E+02  0.59301898951E+02  0.49999917791E+02 0.  0.
         12    1    1    2    0    0 -0.17959879733E+01  0.25970974613E+02 -0.18412124944E+02  0.31886101049E+02  0.00000000000E+00 0. -1.
         11    1    3    3    0    0  0.27323147609E+01 -0.11586265382E+02 -0.89880546569E+00  0.11937962179E+02  0.51100000000E-03 0. -1.
        -11    1    3    3    0    0  0.84825981855E+01 -0.25359200450E+02  0.53653184644E+01  0.27273249933E+02  0.51100000000E-03 0.  1.
         12    1    3    3    0    0 -0.94189249731E+01  0.10974491219E+02  0.13945611945E+02  0.20090686839E+02  0.00000000000E+00 0. -1.
</event>
<event>
 7    1  0.1204848E-011  0.5930194E+02  0.7816164E-02  0.1266605E+00
        -11   -1    0    0    0    0  0.00000000000E+00  0.00000000000E+00  0.45593999997E+02  0.45594000000E+02  0.51100000000E-03 0.  1.
         11   -1    0    0    0    0 -0.00000000000E+00 -0.00000000000E+00 -0.45593999997E+02  0.45594000000E+02  0.51100000000E-03 0. -1.
    9900012    2    1    2    0    0 -0.21632812383E+02  0.23028739851E+02  0.42918161108E+01  0.59301935391E+02  0.49999984249E+02 0.  0.
         12    1    1    2    0    0  0.21632812383E+02 -0.23028739851E+02 -0.42918161108E+01  0.31886064609E+02  0.00000000000E+00 0. -1.
         11    1    3    3    0    0 -0.75219040317E+01  0.17764365584E+02  0.28798772093E+01  0.19505010071E+02  0.51100000000E-03 0. -1.
        -11    1    3    3    0    0 -0.12266352218E+02  0.18151031863E+02  0.10123318029E+02  0.24133066995E+02  0.51100000000E-03 0.  1.
         12    1    3    3    0    0 -0.18445561326E+01 -0.12886657596E+02 -0.87113791274E+01  0.15663858325E+02  0.00000000000E+00 0. -1.
</event>
<event>
 7    1  0.1204848E-011  0.5930197E+02  0.7816164E-02  0.1266605E+00
        -11   -1    0    0    0    0  0.00000000000E+00  0.00000000000E+00  0.45593999997E+02  0.45594000000E+02  0.51100000000E-03 0.  1.
         11   -1    0    0    0    0 -0.00000000000E+00 -0.00000000000E+00 -0.45593999997E+02  0.45594000000E+02  0.51100000000E-03 0. -1.
    9900012    2    1    2    0    0  0.49563574992E+01 -0.22897375226E+02  0.21630151347E+02  0.59301972979E+02  0.50000052800E+02 0.  0.
         12    1    1    2    0    0 -0.49563574992E+01  0.22897375226E+02 -0.21630151347E+02  0.31886027021E+02  0.00000000000E+00 0. -1.
         11    1    3    3    0    0  0.33112266741E+01  0.28596885723E+01  0.94423934550E+01  0.10406768722E+02  0.51100000000E-03 0. -1.
        -11    1    3    3    0    0  0.12750807681E+01  0.10308524592E+02  0.68312870466E+01  0.12432135504E+02  0.51100000000E-03 0.  1.
         12    1    3    3    0    0  0.37005005702E+00 -0.36065588390E+02  0.53564708455E+01  0.36463068753E+02  0.00000000000E+00 0. -1.
</event>
<event>
 7    1  0.1204848E-011  0.5930207E+02  0.7816164E-02  0.1266604E+00
        -11   -1    0    0    0    0  0.00000000000E+00  0.00000000000E+00  0.45593999997E+02  0.45594000000E+02  0.51100000000E-03 0.  1.
         11   -1    0    0    0    0 -0.00000000000E+00 -0.00000000000E+00 -0.45593999997E+02  0.45594000000E+02  0.51100000000E-03 0. -1.
    9900012    2    1    2    0    0  0.25818612973E+02  0.17149106548E+02  0.74846236588E+01  0.59302074852E+02  0.50000238591E+02 0.  0.
         12    1    1    2    0    0 -0.25818612973E+02 -0.17149106548E+02 -0.74846236588E+01  0.31885925148E+02  0.00000000000E+00 0. -1.
         11    1    3    3    0    0  0.22183109547E+02  0.35935312769E+01  0.81297867023E+01  0.23897641062E+02  0.51100000000E-03 0. -1.
        -11    1    3    3    0    0 -0.22365496217E+01  0.12152302131E+02  0.14529293675E+02  0.19073043182E+02  0.51100000000E-03 0.  1.
        -12    1    3    3    0    0  0.58720530473E+01  0.14032731404E+01 -0.15174456718E+02  0.16331390608E+02  0.00000000000E+00 0.  1.
</event>
<event>
 7    1  0.1204848E-011  0.5930187E+02  0.7816164E-02  0.1266605E+00
        -11   -1    0    0    0    0  0.00000000000E+00  0.00000000000E+00  0.45593999997E+02  0.45594000000E+02  0.51100000000E-03 0.  1.
         11   -1    0    0    0    0 -0.00000000000E+00 -0.00000000000E+00 -0.45593999997E+02  0.45594000000E+02  0.51100000000E-03 0. -1.
    9900012    2    1    2    0    0  0.12087424228E+02  0.47049927857E+01  0.29128728236E+02  0.59301865235E+02  0.49999856301E+02 0.  0.
         12    1    1    2    0    0 -0.12087424228E+02 -0.47049927857E+01 -0.29128728236E+02  0.31886134765E+02  0.00000000000E+00 0. -1.
         11    1    3    3    0    0  0.26564188254E+01 -0.27735131666E+01 -0.29854127620E+01  0.48643217289E+01  0.51100000000E-03 0. -1.
        -11    1    3    3    0    0  0.21465514059E+02  0.17188764655E+02  0.14821429116E+02  0.31239345152E+02  0.51100000000E-03 0.  1.
        -12    1    3    3    0    0 -0.12034508657E+02 -0.97102587025E+01  0.17292711882E+02  0.23198198355E+02  0.00000000000E+00 0.  1.
</event>
<event>
 7    1  0.1204848E-011  0.5930164E+02  0.7816164E-02  0.1266606E+00
        -11   -1    0    0    0    0  0.00000000000E+00  0.00000000000E+00  0.45593999997E+02  0.45594000000E+02  0.51100000000E-03 0.  1.
         11   -1    0    0    0    0 -0.00000000000E+00 -0.00000000000E+00 -0.45593999997E+02  0.45594000000E+02  0.51100000000E-03 0. -1.
    9900012    2    1    2    0    0  0.12524157690E+02  0.63039961403E+01  0.28638178461E+02  0.59301636790E+02  0.49999439670E+02 0.  0.
         12    1    1    2    0    0 -0.12524157690E+02 -0.63039961403E+01 -0.28638178461E+02  0.31886363210E+02  0.00000000000E+00 0. -1.
         11    1    3    3    0    0  0.12731347586E+02  0.84450275118E+01  0.14256770314E+02  0.20896439914E+02  0.51100000000E-03 0. -1.
        -11    1    3    3    0    0  0.12582807003E+02 -0.96847800441E+01  0.17071697333E+02  0.23314477191E+02  0.51100000000E-03 0.  1.
         12    1    3    3    0    0 -0.12789996900E+02  0.75437486726E+01 -0.26902891856E+01  0.15090719686E+02  0.00000000000E+00 0. -1.
</event>
<event>
 7    1  0.1280887E-011  0.5930198E+02  0.7816164E-02  0.1266605E+00
        -11   -1    0    0    0    0  0.00000000000E+00  0.00000000000E+00  0.45593999997E+02  0.45594000000E+02  0.51100000000E-03 0. -1.
         11   -1    0    0    0    0 -0.00000000000E+00 -0.00000000000E+00 -0.45593999997E+02  0.45594000000E+02  0.51100000000E-03 0.  1.
    9900012    2    1    2    0    0  0.12413175897E+02  0.14991793518E+02 -0.25256235378E+02  0.59301980583E+02  0.50000066669E+02 0.  0.
         12    1    1    2    0    0 -0.12413175897E+02 -0.14991793518E+02  0.25256235378E+02  0.31886019417E+02  0.00000000000E+00 0. -1.
         11    1    3    3    0    0 -0.72812003686E+01 -0.15187433983E+00  0.10378387375E+02  0.12678717183E+02  0.51100000000E-03 0. -1.
        -11    1    3    3    0    0 -0.15901092206E+01  0.70051513799E+01 -0.70225390900E+01  0.10045727884E+02  0.51100000000E-03 0.  1.
        -12    1    3    3    0    0  0.21284485486E+02  0.81385164782E+01 -0.28612083664E+02  0.36577535517E+02  0.00000000000E+00 0.  1.
</event>
<event>
 7    1  0.1204848E-011  0.5930195E+02  0.7816164E-02  0.1266605E+00
        -11   -1    0    0    0    0  0.00000000000E+00  0.00000000000E+00  0.45593999997E+02  0.45594000000E+02  0.51100000000E-03 0. -1.
         11   -1    0    0    0    0 -0.00000000000E+00 -0.00000000000E+00 -0.45593999997E+02  0.45594000000E+02  0.51100000000E-03 0.  1.
    9900012    2    1    2    0    0 -0.51071080323E+00 -0.29464993925E+02  0.12176764990E+02  0.59301948219E+02  0.50000007644E+02 0.  0.
         12    1    1    2    0    0  0.51071080323E+00  0.29464993925E+02 -0.12176764990E+02  0.31886051781E+02  0.00000000000E+00 0. -1.
         11    1    3    3    0    0 -0.10093623213E+01  0.39003164896E+01  0.17806154415E+02  0.18256243215E+02  0.51100000000E-03 0. -1.
        -11    1    3    3    0    0 -0.14545751148E+01 -0.21995368990E+01 -0.92416900255E+01  0.96105455685E+01  0.51100000000E-03 0.  1.
         12    1    3    3    0    0  0.19532266328E+01 -0.31165773516E+02  0.36123006001E+01  0.31435159436E+02  0.00000000000E+00 0. -1.
</event>
<event>
 7    1  0.1204848E-011  0.5930193E+02  0.7816164E-02  0.1266605E+00
        -11   -1    0    0    0    0  0.00000000000E+00  0.00000000000E+00  0.45593999997E+02  0.45594000000E+02  0.51100000000E-03 0.  1.
         11   -1    0    0    0    0 -0.00000000000E+00 -0.00000000000E+00 -0.45593999997E+02  0.45594000000E+02  0.51100000000E-03 0. -1.
    9900012    2    1    2    0    0 -0.18923810526E+02  0.18391561811E+02  0.17898648712E+02  0.59301925040E+02  0.49999965370E+02 0.  0.
         12    1    1    2    0    0  0.18923810526E+02 -0.18391561811E+02 -0.17898648712E+02  0.31886074960E+02  0.00000000000E+00 0. -1.
         11    1    3    3    0    0 -0.45989161469E+01  0.16202614004E+02  0.20600580581E+01  0.16968163417E+02  0.51100000000E-03 0. -1.
        -11    1    3    3    0    0  0.11807615319E+02 -0.30204508357E+01  0.21474079970E+01  0.12375551064E+02  0.51100000000E-03 0.  1.
        -12    1    3    3    0    0 -0.26132509698E+02  0.52093986426E+01  0.13691182657E+02  0.29958210558E+02  0.00000000000E+00 0.  1.
</event>
<event>
 7    1  0.1204848E-011  0.5930196E+02  0.7816164E-02  0.1266605E+00
        -11   -1    0    0    0    0  0.00000000000E+00  0.00000000000E+00  0.45593999997E+02  0.45594000000E+02  0.51100000000E-03 0. -1.
         11   -1    0    0    0    0 -0.00000000000E+00 -0.00000000000E+00 -0.45593999997E+02  0.45594000000E+02  0.51100000000E-03 0.  1.
    9900012    2    1    2    0    0 -0.82430910517E+01  0.38704882790E+01 -0.30557984354E+02  0.59301958581E+02  0.50000026541E+02 0.  0.
         12    1    1    2    0    0  0.82430910517E+01 -0.38704882790E+01  0.30557984354E+02  0.31886041419E+02  0.00000000000E+00 0. -1.
         11    1    3    3    0    0  0.11198687402E+01  0.69603426864E+01  0.11007548180E+02  0.13071594910E+02  0.51100000000E-03 0. -1.
        -11    1    3    3    0    0 -0.29347451723E+00  0.66641067678E+01 -0.10632293140E+02  0.12551577749E+02  0.51100000000E-03 0.  1.
        -12    1    3    3    0    0 -0.90694852747E+01 -0.97539611752E+01 -0.30933239394E+02  0.33678785922E+02  0.00000000000E+00 0.  1.
</event>
<event>
 7    1  0.1204848E-011  0.5930195E+02  0.7816164E-02  0.1266605E+00
        -11   -1    0    0    0    0  0.00000000000E+00  0.00000000000E+00  0.45593999997E+02  0.45594000000E+02  0.51100000000E-03 0.  1.
         11   -1    0    0    0    0 -0.00000000000E+00 -0.00000000000E+00 -0.45593999997E+02  0.45594000000E+02  0.51100000000E-03 0. -1.
    9900012    2    1    2    0    0 -0.49156434138E+01 -0.16731909326E+02  0.26694563488E+02  0.59301951959E+02  0.50000014465E+02 0.  0.
         12    1    1    2    0    0  0.49156434138E+01  0.16731909326E+02 -0.26694563488E+02  0.31886048041E+02  0.00000000000E+00 0. -1.
         11    1    3    3    0    0  0.47185433602E+01 -0.40796317873E+01  0.10456143076E+02  0.12175342921E+02  0.51100000000E-03 0. -1.
        -11    1    3    3    0    0  0.80388224721E+01  0.64168584110E+01  0.18355710422E+02  0.21041170214E+02  0.51100000000E-03 0.  1.
         12    1    3    3    0    0 -0.17673009246E+02 -0.19069135950E+02 -0.21172900101E+01  0.26085438824E+02  0.00000000000E+00 0. -1.
</event>
<event>
 7    1  0.1204848E-011  0.5930189E+02  0.7816164E-02  0.1266605E+00
        -11   -1    0    0    0    0  0.00000000000E+00  0.00000000000E+00  0.45593999997E+02  0.45594000000E+02  0.51100000000E-03 0.  1.
         11   -1    0    0    0    0 -0.00000000000E+00 -0.00000000000E+00 -0.45593999997E+02  0.45594000000E+02  0.51100000000E-03 0. -1.
    9900012    2    1    2    0    0  0.14916691144E+02  0.25023179571E+02  0.12963680212E+02  0.59301887112E+02  0.49999896199E+02 0.  0.
         12    1    1    2    0    0 -0.14916691144E+02 -0.25023179571E+02 -0.12963680212E+02  0.31886112888E+02  0.00000000000E+00 0. -1.
         11    1    3    3    0    0  0.67483978824E+01  0.16729935035E+02 -0.25912186736E+01  0.18224873517E+02  0.51100000000E-03 0. -1.
        -11    1    3    3    0    0  0.81491288658E+01  0.19602582235E+02  0.19768723474E+02  0.29008136094E+02  0.51100000000E-03 0.  1.
         12    1    3    3    0    0  0.19164395380E-01 -0.11309337699E+02 -0.42138245892E+01  0.12068877501E+02  0.00000000000E+00 0. -1.
</event>
<event>
 7    1  0.1204848E-011  0.5930196E+02  0.7816164E-02  0.1266605E+00
        -11   -1    0    0    0    0  0.00000000000E+00  0.00000000000E+00  0.45593999997E+02  0.45594000000E+02  0.51100000000E-03 0. -1.
         11   -1    0    0    0    0 -0.00000000000E+00 -0.00000000000E+00 -0.45593999997E+02  0.45594000000E+02  0.51100000000E-03 0.  1.
    9900012    2    1    2    0    0 -0.20559905083E+01 -0.11850660412E+02 -0.29530569452E+02  0.59301956323E+02  0.50000022424E+02 0.  0.
         12    1    1    2    0    0  0.20559905083E+01  0.11850660412E+02  0.29530569452E+02  0.31886043677E+02  0.00000000000E+00 0. -1.
         11    1    3    3    0    0 -0.96604914524E+01  0.32737359115E+01  0.21413173870E+01  0.10422460474E+02  0.51100000000E-03 0. -1.
        -11    1    3    3    0    0  0.11222039986E+02 -0.10978844141E+02  0.10156335711E+01  0.15732155349E+02  0.51100000000E-03 0.  1.
        -12    1    3    3    0    0 -0.36175390417E+01 -0.41455521827E+01 -0.32687520410E+02  0.33147340500E+02  0.00000000000E+00 0.  1.
</event>
<event>
 7    1  0.1204848E-011  0.5930193E+02  0.7816164E-02  0.1266605E+00
        -11   -1    0    0    0    0  0.00000000000E+00  0.00000000000E+00  0.45593999997E+02  0.45594000000E+02  0.51100000000E-03 0.  1.
         11   -1    0    0    0    0 -0.00000000000E+00 -0.00000000000E+00 -0.45593999997E+02  0.45594000000E+02  0.51100000000E-03 0. -1.
    9900012    2    1    2    0    0 -0.86540048179E+01  0.16652835182E+02  0.25778149466E+02  0.59301926098E+02  0.49999967301E+02 0.  0.
         12    1    1    2    0    0  0.86540048179E+01 -0.16652835182E+02 -0.25778149466E+02  0.31886073902E+02  0.00000000000E+00 0. -1.
         11    1    3    3    0    0  0.10891137249E+02  0.11810927181E+02  0.17385376737E+02  0.23672055171E+02  0.51100000000E-03 0. -1.
        -11    1    3    3    0    0  0.10947980658E+01  0.96028463006E+01 -0.46801818452E+01  0.10738591260E+02  0.51100000000E-03 0.  1.
         12    1    3    3    0    0 -0.20639940133E+02 -0.47609382994E+01  0.13072954574E+02  0.24891279668E+02  0.00000000000E+00 0. -1.
</event>
<event>
 7    1  0.1204848E-011  0.5930196E+02  0.7816164E-02  0.1266605E+00
        -11   -1    0    0    0    0  0.00000000000E+00  0.00000000000E+00  0.45593999997E+02  0.45594000000E+02  0.51100000000E-03 0.  1.
         11   -1    0    0    0    0 -0.00000000000E+00 -0.00000000000E+00 -0.45593999997E+02  0.45594000000E+02  0.51100000000E-03 0. -1.
    9900012    2    1    2    0    0 -0.14683466917E+02 -0.12530137530E+02  0.25379344128E+02  0.59301958295E+02  0.50000026020E+02 0.  0.
         12    1    1    2    0    0  0.14683466917E+02  0.12530137530E+02 -0.25379344128E+02  0.31886041705E+02  0.00000000000E+00 0. -1.
         11    1    3    3    0    0  0.88331305329E+01  0.30547279607E+01  0.18766720408E+02  0.20965336941E+02  0.51100000000E-03 0. -1.
        -11    1    3    3    0    0 -0.19153104492E+01 -0.77745179871E+01  0.12296764935E+02  0.14673853351E+02  0.51100000000E-03 0.  1.
         12    1    3    3    0    0 -0.21601287001E+02 -0.78103475037E+01 -0.56841412144E+01  0.23662768003E+02  0.00000000000E+00 0. -1.
</event>
<event>
 7    1  0.1204848E-011  0.5930165E+02  0.7816164E-02  0.1266606E+00
        -11   -1    0    0    0    0  0.00000000000E+00  0.00000000000E+00  0.45593999997E+02  0.45594000000E+02  0.51100000000E-03 0.  1.
         11   -1    0    0    0    0 -0.00000000000E+00 -0.00000000000E+00 -0.45593999997E+02  0.45594000000E+02  0.51100000000E-03 0. -1.
    9900012    2    1    2    0    0  0.24391766031E+02 -0.10845767163E+02  0.17439916607E+02  0.59301645446E+02  0.49999455456E+02 0.  0.
         12    1    1    2    0    0 -0.24391766031E+02  0.10845767163E+02 -0.17439916607E+02  0.31886354554E+02  0.00000000000E+00 0. -1.
         11    1    3    3    0    0  0.23248612767E+01  0.15179694769E+02  0.98999910279E+01  0.18271232467E+02  0.51100000000E-03 0. -1.
        -11    1    3    3    0    0 -0.15524418127E-03  0.20492744556E+01  0.47965788423E+01  0.52160037069E+01  0.51100000000E-03 0.  1.
        -12    1    3    3    0    0  0.22067059998E+02 -0.28074736388E+02  0.27433467369E+01  0.35814409273E+02  0.00000000000E+00 0.  1.
</event>
<event>
 7    1  0.1204848E-011  0.5930194E+02  0.7816164E-02  0.1266605E+00
        -11   -1    0    0    0    0  0.00000000000E+00  0.00000000000E+00  0.45593999997E+02  0.45594000000E+02  0.51100000000E-03 0. -1.
         11   -1    0    0    0    0 -0.00000000000E+00 -0.00000000000E+00 -0.45593999997E+02  0.45594000000E+02  0.51100000000E-03 0.  1.
    9900012    2    1    2    0    0  0.10449668159E+02  0.23737589752E+01 -0.30031495784E+02  0.59301936660E+02  0.49999986563E+02 0.  0.
         12    1    1    2    0    0 -0.10449668159E+02 -0.23737589752E+01  0.30031495784E+02  0.31886063340E+02  0.00000000000E+00 0. -1.
         11    1    3    3    0    0  0.15285859082E+02  0.56373181380E+01 -0.26041430991E+01  0.16499042554E+02  0.51100000000E-03 0. -1.
        -11    1    3    3    0    0 -0.13388093126E+01 -0.16767789624E+02 -0.73542093472E+01  0.18358528662E+02  0.51100000000E-03 0.  1.
        -12    1    3    3    0    0 -0.34973816109E+01  0.13504230461E+02 -0.20073143338E+02  0.24444365444E+02  0.00000000000E+00 0.  1.
</event>
<event>
 7    1  0.1204848E-011  0.5930199E+02  0.7816164E-02  0.1266605E+00
        -11   -1    0    0    0    0  0.00000000000E+00  0.00000000000E+00  0.45593999997E+02  0.45594000000E+02  0.51100000000E-03 0.  1.
         11   -1    0    0    0    0 -0.00000000000E+00 -0.00000000000E+00 -0.45593999997E+02  0.45594000000E+02  0.51100000000E-03 0. -1.
    9900012    2    1    2    0    0  0.23792738197E+02 -0.11402714773E+02  0.17905341027E+02  0.59301991589E+02  0.50000086740E+02 0.  0.
         12    1    1    2    0    0 -0.23792738197E+02  0.11402714773E+02 -0.17905341027E+02  0.31886008411E+02  0.00000000000E+00 0. -1.
         11    1    3    3    0    0  0.90233891907E+01 -0.90336141300E+01 -0.18842395677E+01  0.12906513695E+02  0.51100000000E-03 0. -1.
        -11    1    3    3    0    0  0.67187842405E+01 -0.18692219732E+02  0.49217342610E+00  0.19869156377E+02  0.51100000000E-03 0.  1.
        -12    1    3    3    0    0  0.80505647658E+01  0.16323119088E+02  0.19297407169E+02  0.26526321518E+02  0.00000000000E+00 0.  1.
</event>
<event>
 7    1  0.1204848E-011  0.5930197E+02  0.7816164E-02  0.1266605E+00
        -11   -1    0    0    0    0  0.00000000000E+00  0.00000000000E+00  0.45593999997E+02  0.45594000000E+02  0.51100000000E-03 0. -1.
         11   -1    0    0    0    0 -0.00000000000E+00 -0.00000000000E+00 -0.45593999997E+02  0.45594000000E+02  0.51100000000E-03 0.  1.
    9900012    2    1    2    0    0 -0.29396460439E+02 -0.12270857311E+02 -0.14117588061E+01  0.59301970325E+02  0.50000047960E+02 0.  0.
         12    1    1    2    0    0  0.29396460439E+02  0.12270857311E+02  0.14117588061E+01  0.31886029675E+02  0.00000000000E+00 0. -1.
         11    1    3    3    0    0 -0.28947736370E+02  0.11868303343E+01 -0.15205227873E+01  0.29011928529E+02  0.51100000000E-03 0. -1.
        -11    1    3    3    0    0  0.56717467739E+01  0.51407755058E+01 -0.60582808698E+01  0.97621233155E+01  0.51100000000E-03 0.  1.
        -12    1    3    3    0    0 -0.61204708435E+01 -0.18598463151E+02  0.61670448510E+01  0.20527918480E+02  0.00000000000E+00 0.  1.
</event>
<event>
 7    1  0.1204848E-011  0.5930205E+02  0.7816164E-02  0.1266604E+00
        -11   -1    0    0    0    0  0.00000000000E+00  0.00000000000E+00  0.45593999997E+02  0.45594000000E+02  0.51100000000E-03 0.  1.
         11   -1    0    0    0    0 -0.00000000000E+00 -0.00000000000E+00 -0.45593999997E+02  0.45594000000E+02  0.51100000000E-03 0. -1.
    9900012    2    1    2    0    0  0.15666868742E+02  0.27548191045E+02  0.35157158701E+01  0.59302049111E+02  0.50000191645E+02 0.  0.
         12    1    1    2    0    0 -0.15666868742E+02 -0.27548191045E+02 -0.35157158701E+01  0.31885950889E+02  0.00000000000E+00 0. -1.
         11    1    3    3    0    0 -0.70019439545E+00  0.74013820993E+01 -0.45888707044E+01  0.87366162657E+01  0.51100000000E-03 0. -1.
        -11    1    3    3    0    0  0.10054894039E+02  0.20515256687E+02 -0.14522341698E+02  0.27071665256E+02  0.51100000000E-03 0.  1.
        -12    1    3    3    0    0  0.63121690984E+01 -0.36844774104E+00  0.22626928273E+02  0.23493767589E+02  0.00000000000E+00 0.  1.
</event>
<event>
 7    1  0.1204848E-011  0.5930188E+02  0.7816164E-02  0.1266605E+00
        -11   -1    0    0    0    0  0.00000000000E+00  0.00000000000E+00  0.45593999997E+02  0.45594000000E+02  0.51100000000E-03 0.  1.
         11   -1    0    0    0    0 -0.00000000000E+00 -0.00000000000E+00 -0.45593999997E+02  0.45594000000E+02  0.51100000000E-03 0. -1.
    9900012    2    1    2    0    0  0.20552352363E+02 -0.19055644192E+02  0.15205524335E+02  0.59301878669E+02  0.49999880802E+02 0.  0.
         12    1    1    2    0    0 -0.20552352363E+02  0.19055644192E+02 -0.15205524335E+02  0.31886121331E+02  0.00000000000E+00 0. -1.
         11    1    3    3    0    0  0.51130977225E+01 -0.99450176434E+01 -0.99835055010E+01  0.14990581263E+02  0.51100000000E-03 0. -1.
        -11    1    3    3    0    0  0.12647572024E+02 -0.19223703732E+02  0.24773421069E+02  0.33811747293E+02  0.51100000000E-03 0.  1.
         12    1    3    3    0    0  0.27916826164E+01  0.10113077183E+02  0.41560876721E+00  0.10499550114E+02  0.00000000000E+00 0. -1.
</event>
<event>
 7    1  0.1204848E-011  0.5930195E+02  0.7816164E-02  0.1266605E+00
        -11   -1    0    0    0    0  0.00000000000E+00  0.00000000000E+00  0.45593999997E+02  0.45594000000E+02  0.51100000000E-03 0.  1.
         11   -1    0    0    0    0 -0.00000000000E+00 -0.00000000000E+00 -0.45593999997E+02  0.45594000000E+02  0.51100000000E-03 0. -1.
    9900012    2    1    2    0    0 -0.14613725160E+02 -0.80079765628E+01  0.27185135918E+02  0.59301948714E+02  0.50000008548E+02 0.  0.
         12    1    1    2    0    0  0.14613725160E+02  0.80079765628E+01 -0.27185135918E+02  0.31886051286E+02  0.00000000000E+00 0. -1.
         11    1    3    3    0    0  0.63320609675E+01 -0.12469398714E+02  0.76548793152E+01  0.15942963274E+02  0.51100000000E-03 0. -1.
        -11    1    3    3    0    0  0.63760008555E+01 -0.66275233496E+01  0.39432535947E+01  0.10006333086E+02  0.51100000000E-03 0.  1.
         12    1    3    3    0    0 -0.27321786983E+02  0.11088945500E+02  0.15587003008E+02  0.33352652354E+02  0.00000000000E+00 0. -1.
</event>
<event>
 7    1  0.1204848E-011  0.5930197E+02  0.7816164E-02  0.1266605E+00
        -11   -1    0    0    0    0  0.00000000000E+00  0.00000000000E+00  0.45593999997E+02  0.45594000000E+02  0.51100000000E-03 0. -1.
         11   -1    0    0    0    0 -0.00000000000E+00 -0.00000000000E+00 -0.45593999997E+02  0.45594000000E+02  0.51100000000E-03 0.  1.
    9900012    2    1    2    0    0  0.25419407351E+02 -0.13509573528E+02 -0.13713653385E+02  0.59301966441E+02  0.50000040877E+02 0.  0.
         12    1    1    2    0    0 -0.25419407351E+02  0.13509573528E+02  0.13713653385E+02  0.31886033559E+02  0.00000000000E+00 0. -1.
         11    1    3    3    0    0 -0.83976177677E+01  0.58544269824E+01  0.60048631822E+01  0.11868137241E+02  0.51100000000E-03 0. -1.
        -11    1    3    3    0    0  0.10471248679E+02 -0.13987497601E+02 -0.14974882505E+02  0.23011828357E+02  0.51100000000E-03 0.  1.
        -12    1    3    3    0    0  0.23345776439E+02 -0.53765029095E+01 -0.47436340621E+01  0.24422000844E+02  0.00000000000E+00 0.  1.
</event>
<event>
 7    1  0.1204848E-011  0.5930195E+02  0.7816164E-02  0.1266605E+00
        -11   -1    0    0    0    0  0.00000000000E+00  0.00000000000E+00  0.45593999997E+02  0.45594000000E+02  0.51100000000E-03 0.  1.
         11   -1    0    0    0    0 -0.00000000000E+00 -0.00000000000E+00 -0.45593999997E+02  0.45594000000E+02  0.51100000000E-03 0. -1.
    9900012    2    1    2    0    0  0.20865762882E+02 -0.24108687567E+02  0.33358245497E+00  0.59301950479E+02  0.50000011765E+02 0.  0.
         12    1    1    2    0    0 -0.20865762882E+02  0.24108687567E+02 -0.33358245497E+00  0.31886049521E+02  0.00000000000E+00 0. -1.
         11    1    3    3    0    0  0.18554787016E+02 -0.21061393239E+02 -0.36408726234E+01  0.28304034343E+02  0.51100000000E-03 0.  1.
        -11    1    3    3    0    0  0.12531322933E+02 -0.11453421959E+02  0.50744134745E+01  0.17719046289E+02  0.51100000000E-03 0. -1.
        -12    1    3    3    0    0 -0.10220347067E+02  0.84061276314E+01 -0.10999583962E+01  0.13278869846E+02  0.00000000000E+00 0.  1.
</event>
<event>
 7    1  0.1204848E-011  0.5930196E+02  0.7816164E-02  0.1266605E+00
        -11   -1    0    0    0    0  0.00000000000E+00  0.00000000000E+00  0.45593999997E+02  0.45594000000E+02  0.51100000000E-03 0. -1.
         11   -1    0    0    0    0 -0.00000000000E+00 -0.00000000000E+00 -0.45593999997E+02  0.45594000000E+02  0.51100000000E-03 0.  1.
    9900012    2    1    2    0    0  0.51088170108E+01 -0.13988211110E+02 -0.28194851471E+02  0.59301957430E+02  0.50000024443E+02 0.  0.
         12    1    1    2    0    0 -0.51088170108E+01  0.13988211110E+02  0.28194851471E+02  0.31886042570E+02  0.00000000000E+00 0. -1.
         11    1    3    3    0    0  0.53474507585E+01 -0.63878762549E+00  0.83933418730E+01  0.99725356506E+01  0.51100000000E-03 0. -1.
        -11    1    3    3    0    0  0.13075295493E+02 -0.53034573661E+01 -0.66666424854E+01  0.15605580238E+02  0.51100000000E-03 0.  1.
         12    1    3    3    0    0 -0.13313929241E+02 -0.80459661184E+01 -0.29921550858E+02  0.33723841542E+02  0.00000000000E+00 0. -1.
</event>
<event>
 7    1  0.1204848E-011  0.5930198E+02  0.7816164E-02  0.1266605E+00
        -11   -1    0    0    0    0  0.00000000000E+00  0.00000000000E+00  0.45593999997E+02  0.45594000000E+02  0.51100000000E-03 0.  1.
         11   -1    0    0    0    0 -0.00000000000E+00 -0.00000000000E+00 -0.45593999997E+02  0.45594000000E+02  0.51100000000E-03 0. -1.
    9900012    2    1    2    0    0 -0.28550180104E+02 -0.98897676191E+01  0.10188137916E+02  0.59301977330E+02  0.50000060735E+02 0.  0.
         12    1    1    2    0    0  0.28550180104E+02  0.98897676191E+01 -0.10188137916E+02  0.31886022670E+02  0.00000000000E+00 0. -1.
         11    1    3    3    0    0 -0.22581136175E+01  0.72151618419E+01 -0.94018726991E+01  0.12064528504E+02  0.51100000000E-03 0. -1.
        -11    1    3    3    0    0  0.17958129251E+01 -0.78866670439E+01 -0.43622765894E+01  0.91898813065E+01  0.51100000000E-03 0.  1.
         12    1    3    3    0    0 -0.28087879411E+02 -0.92182624172E+01  0.23952287205E+02  0.38047567519E+02  0.00000000000E+00 0. -1.
</event>
<event>
 7    1  0.1204848E-011  0.5930194E+02  0.7816164E-02  0.1266605E+00
        -11   -1    0    0    0    0  0.00000000000E+00  0.00000000000E+00  0.45593999997E+02  0.45594000000E+02  0.51100000000E-03 0.  1.
         11   -1    0    0    0    0 -0.00000000000E+00 -0.00000000000E+00 -0.45593999997E+02  0.45594000000E+02  0.51100000000E-03 0. -1.
    9900012    2    1    2    0    0 -0.28533230054E+02 -0.11204456788E+02 -0.87770184731E+01  0.59301935293E+02  0.49999984071E+02 0.  0.
         12    1    1    2    0    0  0.28533230054E+02  0.11204456788E+02  0.87770184731E+01  0.31886064707E+02  0.00000000000E+00 0. -1.
         11    1    3    3    0    0 -0.25918311579E+01  0.58342433358E+01  0.69357071877E+01  0.94265592083E+01  0.51100000000E-03 0. -1.
        -11    1    3    3    0    0 -0.32470399986E+02 -0.13809529811E+02 -0.20829050752E+02  0.40974130184E+02  0.51100000000E-03 0.  1.
         12    1    3    3    0    0  0.65290010905E+01 -0.32291703127E+01  0.51163250913E+01  0.89012459009E+01  0.00000000000E+00 0. -1.
</event>
<event>
 7    1  0.1204848E-011  0.5930191E+02  0.7816164E-02  0.1266605E+00
        -11   -1    0    0    0    0  0.00000000000E+00  0.00000000000E+00  0.45593999997E+02  0.45594000000E+02  0.51100000000E-03 0.  1.
         11   -1    0    0    0    0 -0.00000000000E+00 -0.00000000000E+00 -0.45593999997E+02  0.45594000000E+02  0.51100000000E-03 0. -1.
    9900012    2    1    2    0    0  0.23638413696E+01  0.31777830422E+02  0.11420060381E+01  0.59301914788E+02  0.49999946673E+02 0.  0.
         12    1    1    2    0    0 -0.23638413696E+01 -0.31777830422E+02 -0.11420060381E+01  0.31886085212E+02  0.00000000000E+00 0. -1.
         11    1    3    3    0    0  0.16810059185E+01  0.56424238434E+01  0.32628078102E+01  0.67311694967E+01  0.51100000000E-03 0. -1.
        -11    1    3    3    0    0 -0.49562908794E+01  0.97266387381E+01  0.20997458494E+02  0.23665704804E+02  0.51100000000E-03 0.  1.
         12    1    3    3    0    0  0.56391263305E+01  0.16408767841E+02 -0.23118260266E+02  0.28905040487E+02  0.00000000000E+00 0. -1.
</event>
<event>
 7    1  0.1204848E-011  0.5930194E+02  0.7816164E-02  0.1266605E+00
        -11   -1    0    0    0    0  0.00000000000E+00  0.00000000000E+00  0.45593999997E+02  0.45594000000E+02  0.51100000000E-03 0. -1.
         11   -1    0    0    0    0 -0.00000000000E+00 -0.00000000000E+00 -0.45593999997E+02  0.45594000000E+02  0.51100000000E-03 0.  1.
    9900012    2    1    2    0    0  0.15546933478E+02 -0.24752877652E+02 -0.12740044496E+02  0.59301939937E+02  0.49999992539E+02 0.  0.
         12    1    1    2    0    0 -0.15546933478E+02  0.24752877652E+02  0.12740044496E+02  0.31886060063E+02  0.00000000000E+00 0. -1.
         11    1    3    3    0    0  0.82544264737E+01  0.86208054920E+00  0.75020329759E+01  0.11187458975E+02  0.51100000000E-03 0. -1.
        -11    1    3    3    0    0  0.86041221986E+00 -0.33284301687E+02 -0.12926899545E+02  0.35716799690E+02  0.51100000000E-03 0.  1.
         12    1    3    3    0    0  0.64320947843E+01  0.76693434862E+01 -0.73151779266E+01  0.12397681272E+02  0.00000000000E+00 0. -1.
</event>
<event>
 7    1  0.1204848E-011  0.5930200E+02  0.7816164E-02  0.1266605E+00
        -11   -1    0    0    0    0  0.00000000000E+00  0.00000000000E+00  0.45593999997E+02  0.45594000000E+02  0.51100000000E-03 0.  1.
         11   -1    0    0    0    0 -0.00000000000E+00 -0.00000000000E+00 -0.45593999997E+02  0.45594000000E+02  0.51100000000E-03 0. -1.
    9900012    2    1    2    0    0 -0.81691785314E+01  0.59348449739E+01  0.30244981226E+02  0.59302003825E+02  0.50000109055E+02 0.  0.
         12    1    1    2    0    0  0.81691785314E+01 -0.59348449739E+01 -0.30244981226E+02  0.31885996175E+02  0.00000000000E+00 0. -1.
         11    1    3    3    0    0  0.14132073538E+01 -0.40643684456E+01 -0.97295530220E+01  0.10638629994E+02  0.51100000000E-03 0. -1.
        -11    1    3    3    0    0  0.46129135030E+01 -0.50043996020E+01  0.13163472025E+02  0.14818906248E+02  0.51100000000E-03 0.  1.
        -12    1    3    3    0    0 -0.14195299388E+02  0.15003613022E+02  0.26811062223E+02  0.33844467583E+02  0.00000000000E+00 0.  1.
</event>
<event>
 7    1  0.1204848E-011  0.5930196E+02  0.7816164E-02  0.1266605E+00
        -11   -1    0    0    0    0  0.00000000000E+00  0.00000000000E+00  0.45593999997E+02  0.45594000000E+02  0.51100000000E-03 0. -1.
         11   -1    0    0    0    0 -0.00000000000E+00 -0.00000000000E+00 -0.45593999997E+02  0.45594000000E+02  0.51100000000E-03 0.  1.
    9900012    2    1    2    0    0  0.17373772853E+02 -0.16115661050E+02 -0.21334413958E+02  0.59301957079E+02  0.50000023802E+02 0.  0.
         12    1    1    2    0    0 -0.17373772853E+02  0.16115661050E+02  0.21334413958E+02  0.31886042921E+02  0.00000000000E+00 0. -1.
         11    1    3    3    0    0  0.33709504041E+01  0.20001801647E+01 -0.10519916259E+02  0.11226427111E+02  0.51100000000E-03 0. -1.
        -11    1    3    3    0    0  0.29421252321E+01 -0.15726162566E+02 -0.25152729734E+02  0.29809865871E+02  0.51100000000E-03 0.  1.
         12    1    3    3    0    0  0.11060697217E+02 -0.23896786490E+01  0.14338232036E+02  0.18265664096E+02  0.00000000000E+00 0. -1.
</event>
<event>
 7    1  0.1204848E-011  0.5930196E+02  0.7816164E-02  0.1266605E+00
        -11   -1    0    0    0    0  0.00000000000E+00  0.00000000000E+00  0.45593999997E+02  0.45594000000E+02  0.51100000000E-03 0. -1.
         11   -1    0    0    0    0 -0.00000000000E+00 -0.00000000000E+00 -0.45593999997E+02  0.45594000000E+02  0.51100000000E-03 0.  1.
    9900012    2    1    2    0    0 -0.16341755375E+02  0.67143822206E+01  0.26544000289E+02  0.59301955267E+02  0.50000020498E+02 0.  0.
         12    1    1    2    0    0  0.16341755375E+02 -0.67143822206E+01 -0.26544000289E+02  0.31886044733E+02  0.00000000000E+00 0. -1.
         11    1    3    3    0    0 -0.25638016475E+02  0.10135319399E+02  0.26069977531E+02  0.37943066782E+02  0.51100000000E-03 0. -1.
        -11    1    3    3    0    0  0.10665778544E+01  0.60216525350E+01 -0.47940973087E+01  0.77705377445E+01  0.51100000000E-03 0.  1.
        -12    1    3    3    0    0  0.82296832455E+01 -0.94425897136E+01  0.52681200668E+01  0.13588350741E+02  0.00000000000E+00 0.  1.
</event>
<event>
 7    1  0.1204848E-011  0.5930193E+02  0.7816164E-02  0.1266605E+00
        -11   -1    0    0    0    0  0.00000000000E+00  0.00000000000E+00  0.45593999997E+02  0.45594000000E+02  0.51100000000E-03 0.  1.
         11   -1    0    0    0    0 -0.00000000000E+00 -0.00000000000E+00 -0.45593999997E+02  0.45594000000E+02  0.51100000000E-03 0. -1.
    9900012    2    1    2    0    0  0.58123732772E+01  0.24301604476E+01  0.31257510035E+02  0.59301932564E+02  0.49999979093E+02 0.  0.
         12    1    1    2    0    0 -0.58123732772E+01 -0.24301604476E+01 -0.31257510035E+02  0.31886067436E+02  0.00000000000E+00 0. -1.
         11    1    3    3    0    0  0.63565120360E+01 -0.47532421605E+01  0.48324403266E+01  0.92925258177E+01  0.51100000000E-03 0. -1.
        -11    1    3    3    0    0 -0.52543195562E+01 -0.13574649000E+02  0.24679340850E+02  0.28652204707E+02  0.51100000000E-03 0.  1.
         12    1    3    3    0    0  0.47101807974E+01  0.20758051609E+02  0.17457288585E+01  0.21357202040E+02  0.00000000000E+00 0. -1.
</event>
<event>
 7    1  0.1204848E-011  0.5930193E+02  0.7816164E-02  0.1266605E+00
        -11   -1    0    0    0    0  0.00000000000E+00  0.00000000000E+00  0.45593999997E+02  0.45594000000E+02  0.51100000000E-03 0.  1.
         11   -1    0    0    0    0 -0.00000000000E+00 -0.00000000000E+00 -0.45593999997E+02  0.45594000000E+02  0.51100000000E-03 0. -1.
    9900012    2    1    2    0    0 -0.16738710090E+02 -0.80419279036E+01  0.25920345519E+02  0.59301932012E+02  0.49999978087E+02 0.  0.
         12    1    1    2    0    0  0.16738710090E+02  0.80419279036E+01 -0.25920345519E+02  0.31886067988E+02  0.00000000000E+00 0. -1.
         11    1    3    3    0    0 -0.10762664150E+02 -0.12913161436E+02 -0.53192572151E+01  0.17631766090E+02  0.51100000000E-03 0.  1.
        -11    1    3    3    0    0  0.70885537636E+01 -0.32398682866E+01  0.11492930320E+01  0.78781479872E+01  0.51100000000E-03 0. -1.
        -12    1    3    3    0    0 -0.13064599704E+02  0.81111018194E+01  0.30090309702E+02  0.33792017935E+02  0.00000000000E+00 0.  1.
</event>
<event>
 7    1  0.1204848E-011  0.5930194E+02  0.7816164E-02  0.1266605E+00
        -11   -1    0    0    0    0  0.00000000000E+00  0.00000000000E+00  0.45593999997E+02  0.45594000000E+02  0.51100000000E-03 0.  1.
         11   -1    0    0    0    0 -0.00000000000E+00 -0.00000000000E+00 -0.45593999997E+02  0.45594000000E+02  0.51100000000E-03 0. -1.
    9900012    2    1    2    0    0  0.56903651858E+01  0.75695457041E+01  0.30447377597E+02  0.59301935950E+02  0.49999985268E+02 0.  0.
         12    1    1    2    0    0 -0.56903651858E+01 -0.75695457041E+01 -0.30447377597E+02  0.31886064050E+02  0.00000000000E+00 0. -1.
         11    1    3    3    0    0 -0.55664688706E+01  0.18357804272E+02  0.78077954875E+01  0.20711258388E+02  0.51100000000E-03 0. -1.
        -11    1    3    3    0    0  0.66922870766E+01  0.85682978266E+01  0.11372689091E+02  0.15733419570E+02  0.51100000000E-03 0.  1.
         12    1    3    3    0    0  0.45645469798E+01 -0.19356556395E+02  0.11266893018E+02  0.22857257991E+02  0.00000000000E+00 0. -1.
</event>
<event>
 7    1  0.1204848E-011  0.5930196E+02  0.7816164E-02  0.1266605E+00
        -11   -1    0    0    0    0  0.00000000000E+00  0.00000000000E+00  0.45593999997E+02  0.45594000000E+02  0.51100000000E-03 0.  1.
         11   -1    0    0    0    0 -0.00000000000E+00 -0.00000000000E+00 -0.45593999997E+02  0.45594000000E+02  0.51100000000E-03 0. -1.
    9900012    2    1    2    0    0  0.16074596375E+02 -0.27441296736E+02  0.23025694410E+01  0.59301964793E+02  0.50000037871E+02 0.  0.
         12    1    1    2    0    0 -0.16074596375E+02  0.27441296736E+02 -0.23025694410E+01  0.31886035207E+02  0.00000000000E+00 0. -1.
         11    1    3    3    0    0  0.18918618870E+01 -0.81854803272E+01 -0.80604264763E+01  0.11642667427E+02  0.51100000000E-03 0. -1.
        -11    1    3    3    0    0  0.67693385999E+01 -0.26286321284E+02 -0.65287065991E+01  0.27918070167E+02  0.51100000000E-03 0.  1.
        -12    1    3    3    0    0  0.74133958883E+01  0.70305048755E+01  0.16891702516E+02  0.19741227198E+02  0.00000000000E+00 0.  1.
</event>
<event>
 7    1  0.1204848E-011  0.5930196E+02  0.7816164E-02  0.1266605E+00
        -11   -1    0    0    0    0  0.00000000000E+00  0.00000000000E+00  0.45593999997E+02  0.45594000000E+02  0.51100000000E-03 0.  1.
         11   -1    0    0    0    0 -0.00000000000E+00 -0.00000000000E+00 -0.45593999997E+02  0.45594000000E+02  0.51100000000E-03 0. -1.
    9900012    2    1    2    0    0  0.61199475783E+01 -0.17455516228E+02  0.25972494514E+02  0.59301964241E+02  0.50000036864E+02 0.  0.
         12    1    1    2    0    0 -0.61199475783E+01  0.17455516228E+02 -0.25972494514E+02  0.31886035759E+02  0.00000000000E+00 0. -1.
         11    1    3    3    0    0  0.12083774513E+02 -0.17710898068E+01  0.10794451536E+02  0.16299526060E+02  0.51100000000E-03 0. -1.
        -11    1    3    3    0    0  0.13385532647E+02 -0.88519428888E+01  0.15734680827E+02  0.22474642558E+02  0.51100000000E-03 0.  1.
         12    1    3    3    0    0 -0.19349359581E+02 -0.68324835323E+01 -0.55663784776E+00  0.20527795622E+02  0.00000000000E+00 0. -1.
</event>
<event>
 7    1  0.1204848E-011  0.5930193E+02  0.7816164E-02  0.1266605E+00
        -11   -1    0    0    0    0  0.00000000000E+00  0.00000000000E+00  0.45593999997E+02  0.45594000000E+02  0.51100000000E-03 0.  1.
         11   -1    0    0    0    0 -0.00000000000E+00 -0.00000000000E+00 -0.45593999997E+02  0.45594000000E+02  0.51100000000E-03 0. -1.
    9900012    2    1    2    0    0  0.29618478434E+02  0.67268490934E+01  0.97065270089E+01  0.59301930470E+02  0.49999975274E+02 0.  0.
         12    1    1    2    0    0 -0.29618478434E+02 -0.67268490934E+01 -0.97065270089E+01  0.31886069530E+02  0.00000000000E+00 0. -1.
         11    1    3    3    0    0  0.43842735303E+01  0.93792295275E+01 -0.73839093341E+01  0.12716678742E+02  0.51100000000E-03 0. -1.
        -11    1    3    3    0    0  0.14870816399E+02  0.82953658906E+01 -0.68005357984E+01  0.18335800038E+02  0.51100000000E-03 0.  1.
        -12    1    3    3    0    0  0.10363388505E+02 -0.10947746325E+02  0.23890972141E+02  0.28249451689E+02  0.00000000000E+00 0.  1.
</event>
<event>
 7    1  0.1204848E-011  0.5930194E+02  0.7816164E-02  0.1266605E+00
        -11   -1    0    0    0    0  0.00000000000E+00  0.00000000000E+00  0.45593999997E+02  0.45594000000E+02  0.51100000000E-03 0.  1.
         11   -1    0    0    0    0 -0.00000000000E+00 -0.00000000000E+00 -0.45593999997E+02  0.45594000000E+02  0.51100000000E-03 0. -1.
    9900012    2    1    2    0    0 -0.15351630815E+02  0.31611605031E+01  0.27767886347E+02  0.59301936954E+02  0.49999987099E+02 0.  0.
         12    1    1    2    0    0  0.15351630815E+02 -0.31611605031E+01 -0.27767886347E+02  0.31886063046E+02  0.00000000000E+00 0. -1.
         11    1    3    3    0    0  0.79645772393E+01 -0.82247190448E+01 -0.19296691010E+01  0.11610517519E+02  0.51100000000E-03 0. -1.
        -11    1    3    3    0    0  0.85794021251E+00 -0.36303511553E+01 -0.26736507127E+01  0.45895445649E+01  0.51100000000E-03 0.  1.
        -12    1    3    3    0    0 -0.24174148267E+02  0.15016230703E+02  0.32371206160E+02  0.43101874869E+02  0.00000000000E+00 0.  1.
</event>
<event>
 7    1  0.1204848E-011  0.5930194E+02  0.7816164E-02  0.1266605E+00
        -11   -1    0    0    0    0  0.00000000000E+00  0.00000000000E+00  0.45593999997E+02  0.45594000000E+02  0.51100000000E-03 0. -1.
         11   -1    0    0    0    0 -0.00000000000E+00 -0.00000000000E+00 -0.45593999997E+02  0.45594000000E+02  0.51100000000E-03 0.  1.
    9900012    2    1    2    0    0  0.13923726032E+01 -0.16787008451E+02 -0.27073569988E+02  0.59301944332E+02  0.50000000555E+02 0.  0.
         12    1    1    2    0    0 -0.13923726032E+01  0.16787008451E+02  0.27073569988E+02  0.31886055668E+02  0.00000000000E+00 0. -1.
         11    1    3    3    0    0  0.12436868579E+02 -0.97316420464E+01  0.11359582510E+01  0.15832591651E+02  0.51100000000E-03 0. -1.
        -11    1    3    3    0    0  0.71014097878E+01 -0.95702894223E+01 -0.20248064988E+02  0.23494778071E+02  0.51100000000E-03 0.  1.
        -12    1    3    3    0    0 -0.18145905763E+02  0.25149230182E+01 -0.79614632513E+01  0.19974574610E+02  0.00000000000E+00 0.  1.
</event>
<event>
 7    1  0.1204848E-011  0.5930198E+02  0.7816164E-02  0.1266605E+00
        -11   -1    0    0    0    0  0.00000000000E+00  0.00000000000E+00  0.45593999997E+02  0.45594000000E+02  0.51100000000E-03 0.  1.
         11   -1    0    0    0    0 -0.00000000000E+00 -0.00000000000E+00 -0.45593999997E+02  0.45594000000E+02  0.51100000000E-03 0. -1.
    9900012    2    1    2    0    0  0.55523103278E+01  0.15205806069E+02  0.27471325630E+02  0.59301977670E+02  0.50000061355E+02 0.  0.
         12    1    1    2    0    0 -0.55523103278E+01 -0.15205806069E+02 -0.27471325630E+02  0.31886022330E+02  0.00000000000E+00 0. -1.
         11    1    3    3    0    0  0.43784383841E+01 -0.81184338933E+00  0.87800803011E+01  0.98447764184E+01  0.51100000000E-03 0. -1.
        -11    1    3    3    0    0 -0.50890232566E+01 -0.14086444808E+02  0.49134569323E+01  0.15762872337E+02  0.51100000000E-03 0.  1.
        -12    1    3    3    0    0  0.62628952003E+01  0.30104094266E+02  0.13777788396E+02  0.33694328914E+02  0.00000000000E+00 0.  1.
</event>
<event>
 7    1  0.1204848E-011  0.5930197E+02  0.7816164E-02  0.1266605E+00
        -11   -1    0    0    0    0  0.00000000000E+00  0.00000000000E+00  0.45593999997E+02  0.45594000000E+02  0.51100000000E-03 0.  1.
         11   -1    0    0    0    0 -0.00000000000E+00 -0.00000000000E+00 -0.45593999997E+02  0.45594000000E+02  0.51100000000E-03 0. -1.
    9900012    2    1    2    0    0  0.23730459921E+01 -0.10968872047E+02  0.29845798421E+02  0.59301965680E+02  0.50000039489E+02 0.  0.
         12    1    1    2    0    0 -0.23730459921E+01  0.10968872047E+02 -0.29845798421E+02  0.31886034320E+02  0.00000000000E+00 0. -1.
         11    1    3    3    0    0  0.55303228557E+01  0.34713799733E+01  0.72955431250E+01  0.97908068900E+01  0.51100000000E-03 0. -1.
        -11    1    3    3    0    0  0.16179169788E+02 -0.68315474214E+01  0.22738069673E+02  0.28730739425E+02  0.51100000000E-03 0.  1.
         12    1    3    3    0    0 -0.19336446651E+02 -0.76087045985E+01 -0.18781437727E+00  0.20780419365E+02  0.00000000000E+00 0. -1.
</event>
<event>
 7    1  0.1204848E-011  0.5930194E+02  0.7816164E-02  0.1266605E+00
        -11   -1    0    0    0    0  0.00000000000E+00  0.00000000000E+00  0.45593999997E+02  0.45594000000E+02  0.51100000000E-03 0.  1.
         11   -1    0    0    0    0 -0.00000000000E+00 -0.00000000000E+00 -0.45593999997E+02  0.45594000000E+02  0.51100000000E-03 0. -1.
    9900012    2    1    2    0    0  0.83885783762E+01  0.40722933747E+01  0.30492112448E+02  0.59301941259E+02  0.49999994950E+02 0.  0.
         12    1    1    2    0    0 -0.83885783762E+01 -0.40722933747E+01 -0.30492112448E+02  0.31886058741E+02  0.00000000000E+00 0. -1.
         11    1    3    3    0    0 -0.15783048701E+02 -0.82598867199E+01  0.65378595390E+01  0.18975614945E+02  0.51100000000E-03 0. -1.
        -11    1    3    3    0    0  0.67583363593E+01 -0.31498551528E+01  0.12026136430E+02  0.14150076167E+02  0.51100000000E-03 0.  1.
        -12    1    3    3    0    0  0.17413290718E+02  0.15482035247E+02  0.11928116479E+02  0.26176250147E+02  0.00000000000E+00 0.  1.
</event>
<event>
 7    1  0.1204848E-011  0.5930192E+02  0.7816164E-02  0.1266605E+00
        -11   -1    0    0    0    0  0.00000000000E+00  0.00000000000E+00  0.45593999997E+02  0.45594000000E+02  0.51100000000E-03 0. -1.
         11   -1    0    0    0    0 -0.00000000000E+00 -0.00000000000E+00 -0.45593999997E+02  0.45594000000E+02  0.51100000000E-03 0.  1.
    9900012    2    1    2    0    0 -0.18055026939E+02 -0.65414258289E+01 -0.25454814029E+02  0.59301924561E+02  0.49999964497E+02 0.  0.
         12    1    1    2    0    0  0.18055026939E+02  0.65414258289E+01  0.25454814029E+02  0.31886075439E+02  0.00000000000E+00 0. -1.
         11    1    3    3    0    0  0.69000677609E+01 -0.11714668179E+02  0.82198691748E+01  0.15887436394E+02  0.51100000000E-03 0. -1.
        -11    1    3    3    0    0 -0.10966719210E+02 -0.24103324370E+01 -0.16932350803E+02  0.20317065158E+02  0.51100000000E-03 0.  1.
        -12    1    3    3    0    0 -0.13988375490E+02  0.75835747875E+01 -0.16742332401E+02  0.23097423009E+02  0.00000000000E+00 0.  1.
</event>
<event>
 7    1  0.1204848E-011  0.5930190E+02  0.7816164E-02  0.1266605E+00
        -11   -1    0    0    0    0  0.00000000000E+00  0.00000000000E+00  0.45593999997E+02  0.45594000000E+02  0.51100000000E-03 0.  1.
         11   -1    0    0    0    0 -0.00000000000E+00 -0.00000000000E+00 -0.45593999997E+02  0.45594000000E+02  0.51100000000E-03 0. -1.
    9900012    2    1    2    0    0 -0.53337945808E+01 -0.57065815289E+01  0.30914538190E+02  0.59301904145E+02  0.49999927263E+02 0.  0.
         12    1    1    2    0    0  0.53337945808E+01  0.57065815289E+01 -0.30914538190E+02  0.31886095855E+02  0.00000000000E+00 0. -1.
         11    1    3    3    0    0 -0.12694263953E+02  0.10003886197E+02  0.55427538009E+01  0.17086374581E+02  0.51100000000E-03 0. -1.
        -11    1    3    3    0    0  0.10210866601E+00  0.66780807704E+01  0.15148167873E+02  0.16555185868E+02  0.51100000000E-03 0.  1.
        -12    1    3    3    0    0  0.72583607065E+01 -0.22388548497E+02  0.10223616517E+02  0.25660343696E+02  0.00000000000E+00 0.  1.
</event>
<event>
 7    1  0.1204848E-011  0.5930195E+02  0.7816164E-02  0.1266605E+00
        -11   -1    0    0    0    0  0.00000000000E+00  0.00000000000E+00  0.45593999997E+02  0.45594000000E+02  0.51100000000E-03 0.  1.
         11   -1    0    0    0    0 -0.00000000000E+00 -0.00000000000E+00 -0.45593999997E+02  0.45594000000E+02  0.51100000000E-03 0. -1.
    9900012    2    1    2    0    0 -0.29729881243E+02  0.31157957874E+01 -0.11097118222E+02  0.59301952033E+02  0.50000014600E+02 0.  0.
         12    1    1    2    0    0  0.29729881243E+02 -0.31157957874E+01  0.11097118222E+02  0.31886047967E+02  0.00000000000E+00 0. -1.
         11    1    3    3    0    0 -0.66591159056E+01 -0.56909611352E+01  0.65151009017E+01  0.10916840354E+02  0.51100000000E-03 0. -1.
        -11    1    3    3    0    0 -0.26902562424E+02  0.94060212908E+01  0.18315762468E+01  0.28558287296E+02  0.51100000000E-03 0.  1.
         12    1    3    3    0    0  0.38317970867E+01 -0.59926436820E+00 -0.19443795371E+02  0.19826824383E+02  0.00000000000E+00 0. -1.
</event>
<event>
 7    1  0.1204848E-011  0.5930185E+02  0.7816164E-02  0.1266605E+00
        -11   -1    0    0    0    0  0.00000000000E+00  0.00000000000E+00  0.45593999997E+02  0.45594000000E+02  0.51100000000E-03 0.  1.
         11   -1    0    0    0    0 -0.00000000000E+00 -0.00000000000E+00 -0.45593999997E+02  0.45594000000E+02  0.51100000000E-03 0. -1.
    9900012    2    1    2    0    0  0.19554550175E+02  0.23067580905E+02  0.10111010105E+02  0.59301854941E+02  0.49999837527E+02 0.  0.
         12    1    1    2    0    0 -0.19554550175E+02 -0.23067580905E+02 -0.10111010105E+02  0.31886145059E+02  0.00000000000E+00 0. -1.
         11    1    3    3    0    0  0.37109491330E+01 -0.24342206192E+01 -0.97025534606E+01  0.10669400986E+02  0.51100000000E-03 0. -1.
        -11    1    3    3    0    0  0.88948481739E+01  0.17520617729E+02 -0.61548931276E+01  0.20590606579E+02  0.51100000000E-03 0.  1.
        -12    1    3    3    0    0  0.69487528684E+01  0.79811837958E+01  0.25968456693E+02  0.28041847375E+02  0.00000000000E+00 0.  1.
</event>
<event>
 7    1  0.1204848E-011  0.5930196E+02  0.7816164E-02  0.1266605E+00
        -11   -1    0    0    0    0  0.00000000000E+00  0.00000000000E+00  0.45593999997E+02  0.45594000000E+02  0.51100000000E-03 0.  1.
         11   -1    0    0    0    0 -0.00000000000E+00 -0.00000000000E+00 -0.45593999997E+02  0.45594000000E+02  0.51100000000E-03 0. -1.
    9900012    2    1    2    0    0  0.61297178742E+01  0.30120446449E+02 -0.84796731017E+01  0.59301959302E+02  0.50000027857E+02 0.  0.
         12    1    1    2    0    0 -0.61297178742E+01 -0.30120446449E+02  0.84796731017E+01  0.31886040698E+02  0.00000000000E+00 0. -1.
         11    1    3    3    0    0  0.19045059711E+02  0.62486575023E+01 -0.47038083849E+01  0.20588487889E+02  0.51100000000E-03 0. -1.
        -11    1    3    3    0    0 -0.10593921816E+02 -0.34173517799E+01 -0.14859469521E+01  0.11230205307E+02  0.51100000000E-03 0.  1.
        -12    1    3    3    0    0 -0.23214200210E+01  0.27289140726E+02 -0.22899177647E+01  0.27483266106E+02  0.00000000000E+00 0.  1.
</event>
<event>
 7    1  0.1204848E-011  0.5930194E+02  0.7816164E-02  0.1266605E+00
        -11   -1    0    0    0    0  0.00000000000E+00  0.00000000000E+00  0.45593999997E+02  0.45594000000E+02  0.51100000000E-03 0. -1.
         11   -1    0    0    0    0 -0.00000000000E+00 -0.00000000000E+00 -0.45593999997E+02  0.45594000000E+02  0.51100000000E-03 0.  1.
    9900012    2    1    2    0    0 -0.27511016018E+02 -0.12406673548E+02 -0.10292679976E+02  0.59301940162E+02  0.49999992951E+02 0.  0.
         12    1    1    2    0    0  0.27511016018E+02  0.12406673548E+02  0.10292679976E+02  0.31886059838E+02  0.00000000000E+00 0. -1.
         11    1    3    3    0    0 -0.24017200766E+01  0.52269019658E+01  0.47239374028E+01  0.74434097249E+01  0.51100000000E-03 0. -1.
        -11    1    3    3    0    0 -0.22547581153E+02  0.39463211519E+01 -0.19020328900E+02  0.29761380651E+02  0.51100000000E-03 0.  1.
         12    1    3    3    0    0 -0.25617147885E+01 -0.21579896666E+02  0.40037115220E+01  0.22097149787E+02  0.00000000000E+00 0. -1.
</event>
<event>
 7    1  0.1204848E-011  0.5930195E+02  0.7816164E-02  0.1266605E+00
        -11   -1    0    0    0    0  0.00000000000E+00  0.00000000000E+00  0.45593999997E+02  0.45594000000E+02  0.51100000000E-03 0.  1.
         11   -1    0    0    0    0 -0.00000000000E+00 -0.00000000000E+00 -0.45593999997E+02  0.45594000000E+02  0.51100000000E-03 0. -1.
    9900012    2    1    2    0    0 -0.29845972769E+02  0.12932379747E+01  0.11147462356E+02  0.59301945494E+02  0.50000002674E+02 0.  0.
         12    1    1    2    0    0  0.29845972769E+02 -0.12932379747E+01 -0.11147462356E+02  0.31886054506E+02  0.00000000000E+00 0. -1.
         11    1    3    3    0    0 -0.10837946257E+02 -0.12738615412E+02  0.11504048370E+02  0.20299668244E+02  0.51100000000E-03 0. -1.
        -11    1    3    3    0    0  0.38115223575E+01 -0.63618690272E+01  0.34177551795E+01  0.81659127432E+01  0.51100000000E-03 0.  1.
        -12    1    3    3    0    0 -0.22819548870E+02  0.20393722414E+02 -0.37743411935E+01  0.30836364506E+02  0.00000000000E+00 0.  1.
</event>
<event>
 7    1  0.1204848E-011  0.5930195E+02  0.7816164E-02  0.1266605E+00
        -11   -1    0    0    0    0  0.00000000000E+00  0.00000000000E+00  0.45593999997E+02  0.45594000000E+02  0.51100000000E-03 0. -1.
         11   -1    0    0    0    0 -0.00000000000E+00 -0.00000000000E+00 -0.45593999997E+02  0.45594000000E+02  0.51100000000E-03 0.  1.
    9900012    2    1    2    0    0 -0.33338569811E+01  0.13184031112E+02  0.28840719372E+02  0.59301947052E+02  0.50000005516E+02 0.  0.
         12    1    1    2    0    0  0.33338569811E+01 -0.13184031112E+02 -0.28840719372E+02  0.31886052948E+02  0.00000000000E+00 0. -1.
         11    1    3    3    0    0  0.12679306921E+02  0.12454741663E+02  0.99378082625E+01  0.20362844772E+02  0.51100000000E-03 0. -1.
        -11    1    3    3    0    0  0.35195454580E+01  0.57306474761E+00 -0.61875836612E+01  0.71415541209E+01  0.51100000000E-03 0.  1.
         12    1    3    3    0    0 -0.19532709360E+02  0.15622470140E+00  0.25090494770E+02  0.31797548159E+02  0.00000000000E+00 0. -1.
</event>
<event>
 7    1  0.1204848E-011  0.5930195E+02  0.7816164E-02  0.1266605E+00
        -11   -1    0    0    0    0  0.00000000000E+00  0.00000000000E+00  0.45593999997E+02  0.45594000000E+02  0.51100000000E-03 0. -1.
         11   -1    0    0    0    0 -0.00000000000E+00 -0.00000000000E+00 -0.45593999997E+02  0.45594000000E+02  0.51100000000E-03 0.  1.
    9900012    2    1    2    0    0 -0.92982110361E+01 -0.20376125068E+02 -0.22695304622E+02  0.59301952061E+02  0.50000014652E+02 0.  0.
         12    1    1    2    0    0  0.92982110361E+01  0.20376125068E+02  0.22695304622E+02  0.31886047939E+02  0.00000000000E+00 0. -1.
         11    1    3    3    0    0 -0.28150969805E+01 -0.82520552217E+01  0.64787215455E+01  0.10862551243E+02  0.51100000000E-03 0. -1.
        -11    1    3    3    0    0 -0.75131827540E+00 -0.12562026921E+02  0.51791737923E+01  0.13608557636E+02  0.51100000000E-03 0.  1.
         12    1    3    3    0    0 -0.57317957801E+01  0.43795707472E+00 -0.34353199960E+02  0.34830843182E+02  0.00000000000E+00 0. -1.
</event>
<event>
 7    1  0.1204848E-011  0.5930196E+02  0.7816164E-02  0.1266605E+00
        -11   -1    0    0    0    0  0.00000000000E+00  0.00000000000E+00  0.45593999997E+02  0.45594000000E+02  0.51100000000E-03 0.  1.
         11   -1    0    0    0    0 -0.00000000000E+00 -0.00000000000E+00 -0.45593999997E+02  0.45594000000E+02  0.51100000000E-03 0. -1.
    9900012    2    1    2    0    0  0.18665356581E+02 -0.16467265517E+01  0.25799468932E+02  0.59301955375E+02  0.50000020695E+02 0.  0.
         12    1    1    2    0    0 -0.18665356581E+02  0.16467265517E+01 -0.25799468932E+02  0.31886044625E+02  0.00000000000E+00 0. -1.
         11    1    3    3    0    0 -0.27946150787E+01  0.30686946002E+01 -0.24989942475E+01  0.48447634099E+01  0.51100000000E-03 0. -1.
        -11    1    3    3    0    0  0.16052357975E+01  0.16641299256E+02  0.60532862085E+01  0.17780660760E+02  0.51100000000E-03 0.  1.
        -12    1    3    3    0    0  0.19854735863E+02 -0.21356720408E+02  0.22245176971E+02  0.36676531205E+02  0.00000000000E+00 0.  1.
</event>
<event>
 7    1  0.1204848E-011  0.5930189E+02  0.7816164E-02  0.1266605E+00
        -11   -1    0    0    0    0  0.00000000000E+00  0.00000000000E+00  0.45593999997E+02  0.45594000000E+02  0.51100000000E-03 0.  1.
         11   -1    0    0    0    0 -0.00000000000E+00 -0.00000000000E+00 -0.45593999997E+02  0.45594000000E+02  0.51100000000E-03 0. -1.
    9900012    2    1    2    0    0  0.85354368115E+01 -0.30629475660E+02  0.23886703685E+01  0.59301886927E+02  0.49999895863E+02 0.  0.
         12    1    1    2    0    0 -0.85354368115E+01  0.30629475660E+02 -0.23886703685E+01  0.31886113073E+02  0.00000000000E+00 0. -1.
         11    1    3    3    0    0  0.15859900488E+02 -0.20322998660E+01 -0.48045349936E+01  0.16695815134E+02  0.51100000000E-03 0. -1.
        -11    1    3    3    0    0  0.36147657218E+01 -0.30650915316E+02  0.51712226823E+01  0.31293556608E+02  0.51100000000E-03 0.  1.
         12    1    3    3    0    0 -0.10939229398E+02  0.20537395219E+01  0.20219826798E+01  0.11312515185E+02  0.00000000000E+00 0. -1.
</event>
<event>
 7    1  0.1204848E-011  0.5930190E+02  0.7816164E-02  0.1266605E+00
        -11   -1    0    0    0    0  0.00000000000E+00  0.00000000000E+00  0.45593999997E+02  0.45594000000E+02  0.51100000000E-03 0.  1.
         11   -1    0    0    0    0 -0.00000000000E+00 -0.00000000000E+00 -0.45593999997E+02  0.45594000000E+02  0.51100000000E-03 0. -1.
    9900012    2    1    2    0    0 -0.16068244437E+02  0.13391430634E+02  0.24066672494E+02  0.59301896151E+02  0.49999912684E+02 0.  0.
         12    1    1    2    0    0  0.16068244437E+02 -0.13391430634E+02 -0.24066672494E+02  0.31886103849E+02  0.00000000000E+00 0. -1.
         11    1    3    3    0    0 -0.13119861720E+02  0.24405465875E+02  0.91254435590E+01  0.29172440017E+02  0.51100000000E-03 0. -1.
        -11    1    3    3    0    0 -0.21295195700E+00  0.19097576614E+01  0.16693413972E+02  0.16803648210E+02  0.51100000000E-03 0.  1.
        -12    1    3    3    0    0 -0.27354307601E+01 -0.12923792902E+02 -0.17521850371E+01  0.13325807924E+02  0.00000000000E+00 0.  1.
</event>
<event>
 7    1  0.1204848E-011  0.5930195E+02  0.7816164E-02  0.1266605E+00
        -11   -1    0    0    0    0  0.00000000000E+00  0.00000000000E+00  0.45593999997E+02  0.45594000000E+02  0.51100000000E-03 0.  1.
         11   -1    0    0    0    0 -0.00000000000E+00 -0.00000000000E+00 -0.45593999997E+02  0.45594000000E+02  0.51100000000E-03 0. -1.
    9900012    2    1    2    0    0  0.22521927425E+02  0.18317058127E+02  0.13189703753E+02  0.59301951037E+02  0.50000012783E+02 0.  0.
         12    1    1    2    0    0 -0.22521927425E+02 -0.18317058127E+02 -0.13189703753E+02  0.31886048963E+02  0.00000000000E+00 0. -1.
         11    1    3    3    0    0  0.41593819649E+01  0.15228278406E+02 -0.88017026967E+01  0.18074039176E+02  0.51100000000E-03 0. -1.
        -11    1    3    3    0    0 -0.68373420409E+01  0.65079523669E+01  0.57266793968E+01  0.11040722230E+02  0.51100000000E-03 0.  1.
        -12    1    3    3    0    0  0.25199887501E+02 -0.34191726455E+01  0.16264727053E+02  0.30187189630E+02  0.00000000000E+00 0.  1.
</event>
<event>
 7    1  0.1204848E-011  0.5930195E+02  0.7816164E-02  0.1266605E+00
        -11   -1    0    0    0    0  0.00000000000E+00  0.00000000000E+00  0.45593999997E+02  0.45594000000E+02  0.51100000000E-03 0.  1.
         11   -1    0    0    0    0 -0.00000000000E+00 -0.00000000000E+00 -0.45593999997E+02  0.45594000000E+02  0.51100000000E-03 0. -1.
    9900012    2    1    2    0    0  0.14000290741E+02  0.29073442169E+01  0.28500160410E+02  0.59301953920E+02  0.50000018041E+02 0.  0.
         12    1    1    2    0    0 -0.14000290741E+02 -0.29073442169E+01 -0.28500160410E+02  0.31886046080E+02  0.00000000000E+00 0. -1.
         11    1    3    3    0    0 -0.75808939401E+01  0.78552720917E+01 -0.11563728480E+01  0.10977816312E+02  0.51100000000E-03 0. -1.
        -11    1    3    3    0    0  0.11936358264E+02 -0.13417449736E+02  0.22988326284E+01  0.18104950641E+02  0.51100000000E-03 0.  1.
        -12    1    3    3    0    0  0.96448264176E+01  0.84695218608E+01  0.27357700629E+02  0.30219186966E+02  0.00000000000E+00 0.  1.
</event>
<event>
 7    1  0.1204848E-011  0.5930196E+02  0.7816164E-02  0.1266605E+00
        -11   -1    0    0    0    0  0.00000000000E+00  0.00000000000E+00  0.45593999997E+02  0.45594000000E+02  0.51100000000E-03 0. -1.
         11   -1    0    0    0    0 -0.00000000000E+00 -0.00000000000E+00 -0.45593999997E+02  0.45594000000E+02  0.51100000000E-03 0.  1.
    9900012    2    1    2    0    0 -0.42959087162E+01 -0.11595403177E+02 -0.29390670667E+02  0.59301957147E+02  0.50000023927E+02 0.  0.
         12    1    1    2    0    0  0.42959087162E+01  0.11595403177E+02  0.29390670667E+02  0.31886042853E+02  0.00000000000E+00 0. -1.
         11    1    3    3    0    0 -0.92277813417E+00 -0.25846541408E+02 -0.46767557069E+01  0.26282451683E+02  0.51100000000E-03 0. -1.
        -11    1    3    3    0    0 -0.42438057086E+00  0.23204634953E+01  0.23290549154E+01  0.33149881994E+01  0.51100000000E-03 0.  1.
        -12    1    3    3    0    0 -0.29487500112E+01  0.11930674736E+02 -0.27042969875E+02  0.29704517265E+02  0.00000000000E+00 0.  1.
</event>
<event>
 7    1  0.1204848E-011  0.5930192E+02  0.7816164E-02  0.1266605E+00
        -11   -1    0    0    0    0  0.00000000000E+00  0.00000000000E+00  0.45593999997E+02  0.45594000000E+02  0.51100000000E-03 0. -1.
         11   -1    0    0    0    0 -0.00000000000E+00 -0.00000000000E+00 -0.45593999997E+02  0.45594000000E+02  0.51100000000E-03 0.  1.
    9900012    2    1    2    0    0 -0.28290710966E+02  0.96519971528E+01  0.11099391162E+02  0.59301923726E+02  0.49999962974E+02 0.  0.
         12    1    1    2    0    0  0.28290710966E+02 -0.96519971528E+01 -0.11099391162E+02  0.31886076274E+02  0.00000000000E+00 0. -1.
         11    1    3    3    0    0 -0.53042735443E+01  0.10253680664E+02  0.99120049176E+01  0.15215818306E+02  0.51100000000E-03 0. -1.
        -11    1    3    3    0    0 -0.14311640017E+02  0.24782440146E+01 -0.17806535748E+02  0.22979065451E+02  0.51100000000E-03 0.  1.
         12    1    3    3    0    0 -0.86747974044E+01 -0.30799275255E+01  0.18993921993E+02  0.21107039969E+02  0.00000000000E+00 0. -1.
</event>
<event>
 7    1  0.1204848E-011  0.5930194E+02  0.7816164E-02  0.1266605E+00
        -11   -1    0    0    0    0  0.00000000000E+00  0.00000000000E+00  0.45593999997E+02  0.45594000000E+02  0.51100000000E-03 0. -1.
         11   -1    0    0    0    0 -0.00000000000E+00 -0.00000000000E+00 -0.45593999997E+02  0.45594000000E+02  0.51100000000E-03 0.  1.
    9900012    2    1    2    0    0  0.30291569006E+02  0.80454152780E+01 -0.58662414736E+01  0.59301942720E+02  0.49999997614E+02 0.  0.
         12    1    1    2    0    0 -0.30291569006E+02 -0.80454152780E+01  0.58662414736E+01  0.31886057280E+02  0.00000000000E+00 0. -1.
         11    1    3    3    0    0  0.91809478761E+01  0.41810529826E+01  0.10225952133E+02  0.14364578143E+02  0.51100000000E-03 0. -1.
        -11    1    3    3    0    0  0.65986809502E+01  0.97587266587E+01  0.93637907974E+01  0.15048452234E+02  0.51100000000E-03 0.  1.
        -12    1    3    3    0    0  0.14511940180E+02 -0.58943643634E+01 -0.25455984404E+02  0.29888912342E+02  0.00000000000E+00 0.  1.
</event>
<event>
 7    1  0.1204848E-011  0.5930214E+02  0.7816164E-02  0.1266604E+00
        -11   -1    0    0    0    0  0.00000000000E+00  0.00000000000E+00  0.45593999997E+02  0.45594000000E+02  0.51100000000E-03 0. -1.
         11   -1    0    0    0    0 -0.00000000000E+00 -0.00000000000E+00 -0.45593999997E+02  0.45594000000E+02  0.51100000000E-03 0.  1.
    9900012    2    1    2    0    0  0.30293655847E+02  0.97724369107E+01 -0.18713985523E+01  0.59302137297E+02  0.50000352476E+02 0.  0.
         12    1    1    2    0    0 -0.30293655847E+02 -0.97724369107E+01  0.18713985523E+01  0.31885862703E+02  0.00000000000E+00 0. -1.
         11    1    3    3    0    0  0.90611277106E+01 -0.13926708041E+02 -0.57347733623E+01  0.17576827302E+02  0.51100000000E-03 0. -1.
        -11    1    3    3    0    0  0.38162200427E+00  0.15261356018E+02 -0.69428357499E+01  0.16770736160E+02  0.51100000000E-03 0.  1.
         12    1    3    3    0    0  0.20850906132E+02  0.84377889336E+01  0.10806210560E+02  0.24954573835E+02  0.00000000000E+00 0. -1.
</event>
<event>
 7    1  0.1204848E-011  0.5930205E+02  0.7816164E-02  0.1266604E+00
        -11   -1    0    0    0    0  0.00000000000E+00  0.00000000000E+00  0.45593999997E+02  0.45594000000E+02  0.51100000000E-03 0.  1.
         11   -1    0    0    0    0 -0.00000000000E+00 -0.00000000000E+00 -0.45593999997E+02  0.45594000000E+02  0.51100000000E-03 0. -1.
    9900012    2    1    2    0    0  0.31795223028E+02 -0.12127020895E+00 -0.24005640172E+01  0.59302052916E+02  0.50000198586E+02 0.  0.
         12    1    1    2    0    0 -0.31795223028E+02  0.12127020895E+00  0.24005640172E+01  0.31885947084E+02  0.00000000000E+00 0. -1.
         11    1    3    3    0    0 -0.59129670169E+01 -0.44513644648E+01 -0.10068777378E+01  0.74693793304E+01  0.51100000000E-03 0. -1.
        -11    1    3    3    0    0 -0.22469633937E+01  0.10488525076E+02  0.30773336583E+01  0.11159210791E+02  0.51100000000E-03 0.  1.
        -12    1    3    3    0    0  0.39955153438E+02 -0.61584308203E+01 -0.44710199377E+01  0.40673462795E+02  0.00000000000E+00 0.  1.
</event>
<event>
 7    1  0.1204848E-011  0.5930196E+02  0.7816164E-02  0.1266605E+00
        -11   -1    0    0    0    0  0.00000000000E+00  0.00000000000E+00  0.45593999997E+02  0.45594000000E+02  0.51100000000E-03 0.  1.
         11   -1    0    0    0    0 -0.00000000000E+00 -0.00000000000E+00 -0.45593999997E+02  0.45594000000E+02  0.51100000000E-03 0. -1.
    9900012    2    1    2    0    0  0.30428439297E+02 -0.76851555348E+01  0.56363202531E+01  0.59301958546E+02  0.50000026477E+02 0.  0.
         12    1    1    2    0    0 -0.30428439297E+02  0.76851555348E+01 -0.56363202531E+01  0.31886041454E+02  0.00000000000E+00 0. -1.
         11    1    3    3    0    0  0.84808794173E+01  0.47560372048E+01 -0.82907232678E+01  0.12778157072E+02  0.51100000000E-03 0. -1.
        -11    1    3    3    0    0  0.26521251338E+02 -0.14544678426E+02 -0.15112479363E+01  0.30285447225E+02  0.51100000000E-03 0.  1.
        -12    1    3    3    0    0 -0.45736914585E+01  0.21034856867E+01  0.15438291457E+02  0.16238354249E+02  0.00000000000E+00 0.  1.
</event>
<event>
 7    1  0.1204848E-011  0.5930194E+02  0.7816164E-02  0.1266605E+00
        -11   -1    0    0    0    0  0.00000000000E+00  0.00000000000E+00  0.45593999997E+02  0.45594000000E+02  0.51100000000E-03 0.  1.
         11   -1    0    0    0    0 -0.00000000000E+00 -0.00000000000E+00 -0.45593999997E+02  0.45594000000E+02  0.51100000000E-03 0. -1.
    9900012    2    1    2    0    0  0.23397772433E+02 -0.63477982349E+01  0.20711602336E+02  0.59301940842E+02  0.49999994191E+02 0.  0.
         12    1    1    2    0    0 -0.23397772433E+02  0.63477982349E+01 -0.20711602336E+02  0.31886059158E+02  0.00000000000E+00 0. -1.
         11    1    3    3    0    0 -0.11822649790E+02 -0.13570103863E+01  0.10763658902E+02  0.16045961437E+02  0.51100000000E-03 0. -1.
        -11    1    3    3    0    0  0.11935221071E+02 -0.11835334281E+02 -0.53853537665E+00  0.16817094284E+02  0.51100000000E-03 0.  1.
        -12    1    3    3    0    0  0.23285201152E+02  0.68445464325E+01  0.10486478811E+02  0.26438885121E+02  0.00000000000E+00 0.  1.
</event>
<event>
 7    1  0.1204848E-011  0.5930194E+02  0.7816164E-02  0.1266605E+00
        -11   -1    0    0    0    0  0.00000000000E+00  0.00000000000E+00  0.45593999997E+02  0.45594000000E+02  0.51100000000E-03 0.  1.
         11   -1    0    0    0    0 -0.00000000000E+00 -0.00000000000E+00 -0.45593999997E+02  0.45594000000E+02  0.51100000000E-03 0. -1.
    9900012    2    1    2    0    0  0.40691195797E+01  0.25877286552E+02  0.18180461920E+02  0.59301938954E+02  0.49999990746E+02 0.  0.
         12    1    1    2    0    0 -0.40691195797E+01 -0.25877286552E+02 -0.18180461920E+02  0.31886061046E+02  0.00000000000E+00 0. -1.
         11    1    3    3    0    0 -0.62867727936E+00 -0.10033211059E+01 -0.78437535147E+00  0.14202581864E+01  0.51100000000E-03 0.  1.
        -11    1    3    3    0    0  0.13072742616E+02  0.83725876278E+01 -0.12837720227E+02  0.20144574555E+02  0.51100000000E-03 0. -1.
        -12    1    3    3    0    0 -0.83749457570E+01  0.18508020030E+02  0.31802557499E+02  0.37737106213E+02  0.00000000000E+00 0.  1.
</event>
<event>
 7    1  0.1204848E-011  0.5930195E+02  0.7816164E-02  0.1266605E+00
        -11   -1    0    0    0    0  0.00000000000E+00  0.00000000000E+00  0.45593999997E+02  0.45594000000E+02  0.51100000000E-03 0. -1.
         11   -1    0    0    0    0 -0.00000000000E+00 -0.00000000000E+00 -0.45593999997E+02  0.45594000000E+02  0.51100000000E-03 0.  1.
    9900012    2    1    2    0    0 -0.14447184171E+02  0.88713990909E+01 -0.27005506304E+02  0.59301949397E+02  0.50000009792E+02 0.  0.
         12    1    1    2    0    0  0.14447184171E+02 -0.88713990909E+01  0.27005506304E+02  0.31886050603E+02  0.00000000000E+00 0. -1.
         11    1    3    3    0    0  0.32633642823E+01  0.92873347439E+01 -0.18908791130E+01  0.10023949180E+02  0.51100000000E-03 0. -1.
        -11    1    3    3    0    0  0.11401284263E+02  0.49813758517E+01 -0.46346377668E+01  0.13277170471E+02  0.51100000000E-03 0.  1.
        -12    1    3    3    0    0 -0.29111832716E+02 -0.53973115047E+01 -0.20479989424E+02  0.36000829746E+02  0.00000000000E+00 0.  1.
</event>
<event>
 7    1  0.1533593E-011  0.5930193E+02  0.7816164E-02  0.1266605E+00
        -11   -1    0    0    0    0  0.00000000000E+00  0.00000000000E+00  0.45593999997E+02  0.45594000000E+02  0.51100000000E-03 0.  1.
         11   -1    0    0    0    0 -0.00000000000E+00 -0.00000000000E+00 -0.45593999997E+02  0.45594000000E+02  0.51100000000E-03 0. -1.
    9900012    2    1    2    0    0 -0.18118508052E+02 -0.25213076272E+02 -0.72623536200E+01  0.59301932051E+02  0.49999978158E+02 0.  0.
         12    1    1    2    0    0  0.18118508052E+02  0.25213076272E+02  0.72623536200E+01  0.31886067949E+02  0.00000000000E+00 0. -1.
         11    1    3    3    0    0 -0.25279228900E+02 -0.16469027501E+02 -0.29353313474E+01  0.30313106917E+02  0.51100000000E-03 0. -1.
        -11    1    3    3    0    0 -0.17037194331E+01  0.43531223715E+01  0.77767634943E+01  0.90736092595E+01  0.51100000000E-03 0.  1.
        -12    1    3    3    0    0  0.88644402807E+01 -0.13097171143E+02 -0.12103785767E+02  0.19915215874E+02  0.00000000000E+00 0.  1.
</event>
<event>
 7    1  0.1204848E-011  0.5930178E+02  0.7816164E-02  0.1266605E+00
        -11   -1    0    0    0    0  0.00000000000E+00  0.00000000000E+00  0.45593999997E+02  0.45594000000E+02  0.51100000000E-03 0.  1.
         11   -1    0    0    0    0 -0.00000000000E+00 -0.00000000000E+00 -0.45593999997E+02  0.45594000000E+02  0.51100000000E-03 0. -1.
    9900012    2    1    2    0    0 -0.24748531018E+02 -0.94840034109E+01  0.17728360797E+02  0.59301782212E+02  0.49999704887E+02 0.  0.
         12    1    1    2    0    0  0.24748531018E+02  0.94840034109E+01 -0.17728360797E+02  0.31886217788E+02  0.00000000000E+00 0. -1.
         11    1    3    3    0    0 -0.92343574456E+00  0.16332687532E+01  0.15885585430E+02  0.15996003410E+02  0.51100000000E-03 0. -1.
        -11    1    3    3    0    0  0.24258408471E+00 -0.66932327138E+01  0.14341036920E+02  0.15827935791E+02  0.51100000000E-03 0.  1.
        -12    1    3    3    0    0 -0.24067679358E+02 -0.44240394503E+01 -0.12498261552E+02  0.27477843012E+02  0.00000000000E+00 0.  1.
</event>
<event>
 7    1  0.1204848E-011  0.5930194E+02  0.7816164E-02  0.1266605E+00
        -11   -1    0    0    0    0  0.00000000000E+00  0.00000000000E+00  0.45593999997E+02  0.45594000000E+02  0.51100000000E-03 0.  1.
         11   -1    0    0    0    0 -0.00000000000E+00 -0.00000000000E+00 -0.45593999997E+02  0.45594000000E+02  0.51100000000E-03 0. -1.
    9900012    2    1    2    0    0  0.17545170439E+02 -0.12570451479E+02  0.23470646815E+02  0.59301944771E+02  0.50000001356E+02 0.  0.
         12    1    1    2    0    0 -0.17545170439E+02  0.12570451479E+02 -0.23470646815E+02  0.31886055229E+02  0.00000000000E+00 0. -1.
         11    1    3    3    0    0  0.17824983698E+02 -0.15735505458E+02  0.13410382788E+02  0.27297885315E+02  0.51100000000E-03 0.  1.
        -11    1    3    3    0    0 -0.16345798211E+01 -0.11509149399E+02 -0.33304076370E+01  0.12092311044E+02  0.51100000000E-03 0. -1.
         12    1    3    3    0    0  0.13547665620E+01  0.14674203379E+02  0.13390671664E+02  0.19911748413E+02  0.00000000000E+00 0. -1.
</event>
<event>
 7    1  0.1204848E-011  0.5930192E+02  0.7816164E-02  0.1266605E+00
        -11   -1    0    0    0    0  0.00000000000E+00  0.00000000000E+00  0.45593999997E+02  0.45594000000E+02  0.51100000000E-03 0.  1.
         11   -1    0    0    0    0 -0.00000000000E+00 -0.00000000000E+00 -0.45593999997E+02  0.45594000000E+02  0.51100000000E-03 0. -1.
    9900012    2    1    2    0    0 -0.31078597937E+02 -0.38695906130E+01 -0.59890619682E+01  0.59301923972E+02  0.49999963423E+02 0.  0.
         12    1    1    2    0    0  0.31078597937E+02  0.38695906130E+01  0.59890619682E+01  0.31886076028E+02  0.00000000000E+00 0. -1.
         11    1    3    3    0    0 -0.21301221362E+02 -0.13956542938E+01 -0.23491956328E+02  0.31742115475E+02  0.51100000000E-03 0. -1.
        -11    1    3    3    0    0 -0.12206909233E+02  0.45787253462E+01  0.73667171805E+01  0.14974708047E+02  0.51100000000E-03 0.  1.
        -12    1    3    3    0    0  0.24295326585E+01 -0.70526616654E+01  0.10136177180E+02  0.12585100449E+02  0.00000000000E+00 0.  1.
</event>
<event>
 7    1  0.1204848E-011  0.5930196E+02  0.7816164E-02  0.1266605E+00
        -11   -1    0    0    0    0  0.00000000000E+00  0.00000000000E+00  0.45593999997E+02  0.45594000000E+02  0.51100000000E-03 0.  1.
         11   -1    0    0    0    0 -0.00000000000E+00 -0.00000000000E+00 -0.45593999997E+02  0.45594000000E+02  0.51100000000E-03 0. -1.
    9900012    2    1    2    0    0 -0.23754199135E+02 -0.45658872673E+00  0.21266147712E+02  0.59301960918E+02  0.50000030805E+02 0.  0.
         12    1    1    2    0    0  0.23754199135E+02  0.45658872673E+00 -0.21266147712E+02  0.31886039082E+02  0.00000000000E+00 0. -1.
         11    1    3    3    0    0 -0.75742530925E+01 -0.12329706980E+02  0.17568261052E+02  0.22760377430E+02  0.51100000000E-03 0. -1.
        -11    1    3    3    0    0 -0.17941542776E+02  0.83671686049E+01  0.14831877334E+02  0.24736472124E+02  0.51100000000E-03 0.  1.
         12    1    3    3    0    0  0.17615967337E+01  0.35059496484E+01 -0.11133990674E+02  0.11805111364E+02  0.00000000000E+00 0. -1.
</event>
<event>
 7    1  0.1204848E-011  0.5930202E+02  0.7816164E-02  0.1266604E+00
        -11   -1    0    0    0    0  0.00000000000E+00  0.00000000000E+00  0.45593999997E+02  0.45594000000E+02  0.51100000000E-03 0.  1.
         11   -1    0    0    0    0 -0.00000000000E+00 -0.00000000000E+00 -0.45593999997E+02  0.45594000000E+02  0.51100000000E-03 0. -1.
    9900012    2    1    2    0    0  0.17967867166E+02  0.12374555934E+02  0.23253851999E+02  0.59302023179E+02  0.50000144352E+02 0.  0.
         12    1    1    2    0    0 -0.17967867166E+02 -0.12374555934E+02 -0.23253851999E+02  0.31885976821E+02  0.00000000000E+00 0. -1.
         11    1    3    3    0    0  0.12772042066E+02  0.17297117646E+01  0.80701979449E+00  0.12913877904E+02  0.51100000000E-03 0. -1.
        -11    1    3    3    0    0  0.10176987439E+02  0.65033045708E+01  0.32363230339E+02  0.34543345552E+02  0.51100000000E-03 0.  1.
         12    1    3    3    0    0 -0.49811623388E+01  0.41415395985E+01 -0.99163981346E+01  0.11844799722E+02  0.00000000000E+00 0. -1.
</event>
<event>
 7    1  0.1204848E-011  0.5930193E+02  0.7816164E-02  0.1266605E+00
        -11   -1    0    0    0    0  0.00000000000E+00  0.00000000000E+00  0.45593999997E+02  0.45594000000E+02  0.51100000000E-03 0.  1.
         11   -1    0    0    0    0 -0.00000000000E+00 -0.00000000000E+00 -0.45593999997E+02  0.45594000000E+02  0.51100000000E-03 0. -1.
    9900012    2    1    2    0    0  0.22430910395E+01  0.30444962075E+02 -0.92083675493E+01  0.59301933982E+02  0.49999981679E+02 0.  0.
         12    1    1    2    0    0 -0.22430910395E+01 -0.30444962075E+02  0.92083675493E+01  0.31886066018E+02  0.00000000000E+00 0. -1.
         11    1    3    3    0    0  0.22377367352E+02  0.22713641393E+02 -0.59233902798E+01  0.32430581672E+02  0.51100000000E-03 0. -1.
        -11    1    3    3    0    0  0.18918985712E+01 -0.17687952054E+01  0.33719994628E+00  0.26118232611E+01  0.51100000000E-03 0.  1.
        -12    1    3    3    0    0 -0.22026174883E+02  0.95001158876E+01 -0.36221772158E+01  0.24259529048E+02  0.00000000000E+00 0.  1.
</event>
<event>
 7    1  0.1204848E-011  0.5930194E+02  0.7816164E-02  0.1266605E+00
        -11   -1    0    0    0    0  0.00000000000E+00  0.00000000000E+00  0.45593999997E+02  0.45594000000E+02  0.51100000000E-03 0. -1.
         11   -1    0    0    0    0 -0.00000000000E+00 -0.00000000000E+00 -0.45593999997E+02  0.45594000000E+02  0.51100000000E-03 0.  1.
    9900012    2    1    2    0    0 -0.77799925777E+01  0.24899815377E+02 -0.18335524581E+02  0.59301944239E+02  0.50000000386E+02 0.  0.
         12    1    1    2    0    0  0.77799925777E+01 -0.24899815377E+02  0.18335524581E+02  0.31886055761E+02  0.00000000000E+00 0. -1.
         11    1    3    3    0    0 -0.91129257294E+01  0.23739411167E+01 -0.88439735147E+01  0.12918857518E+02  0.51100000000E-03 0. -1.
        -11    1    3    3    0    0 -0.17469595436E+02  0.17252972922E+02  0.26297749127E+00  0.24554449632E+02  0.51100000000E-03 0.  1.
         12    1    3    3    0    0  0.18802528587E+02  0.52729013388E+01 -0.97545285573E+01  0.21828637089E+02  0.00000000000E+00 0. -1.
</event>
<event>
 7    1  0.1204848E-011  0.5930196E+02  0.7816164E-02  0.1266605E+00
        -11   -1    0    0    0    0  0.00000000000E+00  0.00000000000E+00  0.45593999997E+02  0.45594000000E+02  0.51100000000E-03 0.  1.
         11   -1    0    0    0    0 -0.00000000000E+00 -0.00000000000E+00 -0.45593999997E+02  0.45594000000E+02  0.51100000000E-03 0. -1.
    9900012    2    1    2    0    0  0.21886058056E+02  0.23135429873E+02  0.15721940392E+01  0.59301961570E+02  0.50000031994E+02 0.  0.
         12    1    1    2    0    0 -0.21886058056E+02 -0.23135429873E+02 -0.15721940392E+01  0.31886038430E+02  0.00000000000E+00 0. -1.
         11    1    3    3    0    0  0.42576308011E+01  0.86469659659E+00 -0.17670180532E+01  0.46901464054E+01  0.51100000000E-03 0.  1.
        -11    1    3    3    0    0  0.15052123069E+02  0.21996865421E+02 -0.18611514609E+02  0.32508721499E+02  0.51100000000E-03 0. -1.
         12    1    3    3    0    0  0.25763041860E+01  0.27386785585E+00  0.21950726702E+02  0.22103093666E+02  0.00000000000E+00 0. -1.
</event>
<event>
 7    1  0.1204848E-011  0.5930193E+02  0.7816164E-02  0.1266605E+00
        -11   -1    0    0    0    0  0.00000000000E+00  0.00000000000E+00  0.45593999997E+02  0.45594000000E+02  0.51100000000E-03 0.  1.
         11   -1    0    0    0    0 -0.00000000000E+00 -0.00000000000E+00 -0.45593999997E+02  0.45594000000E+02  0.51100000000E-03 0. -1.
    9900012    2    1    2    0    0 -0.22419348200E+02  0.21923069581E+02  0.57856375181E+01  0.59301925374E+02  0.49999965980E+02 0.  0.
         12    1    1    2    0    0  0.22419348200E+02 -0.21923069581E+02 -0.57856375181E+01  0.31886074626E+02  0.00000000000E+00 0. -1.
         11    1    3    3    0    0 -0.82544456445E+01  0.27278630591E+02 -0.10514942992E+02  0.30378011557E+02  0.51100000000E-03 0.  1.
        -11    1    3    3    0    0  0.21093075603E+01 -0.14276703081E+01 -0.26240651967E+01  0.36569303125E+01  0.51100000000E-03 0. -1.
        -12    1    3    3    0    0 -0.16274210116E+02 -0.39278907018E+01  0.18924645707E+02  0.25266983504E+02  0.00000000000E+00 0.  1.
</event>
<event>
 7    1  0.1204848E-011  0.5930209E+02  0.7816164E-02  0.1266604E+00
        -11   -1    0    0    0    0  0.00000000000E+00  0.00000000000E+00  0.45593999997E+02  0.45594000000E+02  0.51100000000E-03 0.  1.
         11   -1    0    0    0    0 -0.00000000000E+00 -0.00000000000E+00 -0.45593999997E+02  0.45594000000E+02  0.51100000000E-03 0. -1.
    9900012    2    1    2    0    0 -0.59885969082E+01  0.12700320821E+02  0.28627783260E+02  0.59302087495E+02  0.50000261649E+02 0.  0.
         12    1    1    2    0    0  0.59885969082E+01 -0.12700320821E+02 -0.28627783260E+02  0.31885912505E+02  0.00000000000E+00 0. -1.
         11    1    3    3    0    0  0.27024911566E+01  0.11753025099E+01 -0.42570862460E+01  0.51776035005E+01  0.51100000000E-03 0. -1.
        -11    1    3    3    0    0 -0.75226879988E+01  0.66792411317E+00 -0.84724415397E+01  0.11349855649E+02  0.51100000000E-03 0.  1.
        -12    1    3    3    0    0 -0.11684000659E+01  0.10857094198E+02  0.41357311046E+02  0.42774628345E+02  0.00000000000E+00 0.  1.
</event>
<event>
 7    1  0.1204848E-011  0.5930195E+02  0.7816164E-02  0.1266605E+00
        -11   -1    0    0    0    0  0.00000000000E+00  0.00000000000E+00  0.45593999997E+02  0.45594000000E+02  0.51100000000E-03 0.  1.
         11   -1    0    0    0    0 -0.00000000000E+00 -0.00000000000E+00 -0.45593999997E+02  0.45594000000E+02  0.51100000000E-03 0. -1.
    9900012    2    1    2    0    0 -0.25992575106E+01  0.19915123675E+02  0.24765942520E+02  0.59301949767E+02  0.50000010466E+02 0.  0.
         12    1    1    2    0    0  0.25992575106E+01 -0.19915123675E+02 -0.24765942520E+02  0.31886050233E+02  0.00000000000E+00 0. -1.
         11    1    3    3    0    0  0.10913973987E+02 -0.25723918679E+01  0.32239651186E+01  0.11667303864E+02  0.51100000000E-03 0. -1.
        -11    1    3    3    0    0  0.52384087246E+01 -0.50760418027E+01  0.99545356748E+01  0.12340984852E+02  0.51100000000E-03 0.  1.
        -12    1    3    3    0    0 -0.18751640223E+02  0.27563557346E+02  0.11587441726E+02  0.35293661050E+02  0.00000000000E+00 0.  1.
</event>
<event>
 7    1  0.1204848E-011  0.5930195E+02  0.7816164E-02  0.1266605E+00
        -11   -1    0    0    0    0  0.00000000000E+00  0.00000000000E+00  0.45593999997E+02  0.45594000000E+02  0.51100000000E-03 0.  1.
         11   -1    0    0    0    0 -0.00000000000E+00 -0.00000000000E+00 -0.45593999997E+02  0.45594000000E+02  0.51100000000E-03 0. -1.
    9900012    2    1    2    0    0  0.18597623387E+02 -0.25841247635E+02  0.17546206152E+01  0.59301947116E+02  0.50000005633E+02 0.  0.
         12    1    1    2    0    0 -0.18597623387E+02  0.25841247635E+02 -0.17546206152E+01  0.31886052884E+02  0.00000000000E+00 0. -1.
         11    1    3    3    0    0 -0.84597712514E+01 -0.16288343190E+02 -0.25784882002E+01  0.18534466681E+02  0.51100000000E-03 0. -1.
        -11    1    3    3    0    0  0.14880212406E+02  0.47846609639E+01  0.12738666907E+02  0.20164010926E+02  0.51100000000E-03 0.  1.
         12    1    3    3    0    0  0.12177182233E+02 -0.14337565409E+02 -0.84055580917E+01  0.20603469510E+02  0.00000000000E+00 0. -1.
</event>
<event>
 7    1  0.1204848E-011  0.5930199E+02  0.7816164E-02  0.1266605E+00
        -11   -1    0    0    0    0  0.00000000000E+00  0.00000000000E+00  0.45593999997E+02  0.45594000000E+02  0.51100000000E-03 0.  1.
         11   -1    0    0    0    0 -0.00000000000E+00 -0.00000000000E+00 -0.45593999997E+02  0.45594000000E+02  0.51100000000E-03 0. -1.
    9900012    2    1    2    0    0 -0.28118569047E+02  0.42174778639E+01  0.14431799963E+02  0.59301985903E+02  0.50000076371E+02 0.  0.
         12    1    1    2    0    0  0.28118569047E+02 -0.42174778639E+01 -0.14431799963E+02  0.31886014097E+02  0.00000000000E+00 0. -1.
         11    1    3    3    0    0 -0.58857196922E+01 -0.18877676473E+00  0.25541370016E+00  0.58942827707E+01  0.51100000000E-03 0. -1.
        -11    1    3    3    0    0 -0.32955965033E+02 -0.74363641571E+01  0.30145886775E+01  0.33918768968E+02  0.51100000000E-03 0.  1.
         12    1    3    3    0    0  0.10723115678E+02  0.11842618786E+02  0.11161797585E+02  0.19488934165E+02  0.00000000000E+00 0. -1.
</event>
<event>
 7    1  0.1204848E-011  0.5930186E+02  0.7816164E-02  0.1266605E+00
        -11   -1    0    0    0    0  0.00000000000E+00  0.00000000000E+00  0.45593999997E+02  0.45594000000E+02  0.51100000000E-03 0.  1.
         11   -1    0    0    0    0 -0.00000000000E+00 -0.00000000000E+00 -0.45593999997E+02  0.45594000000E+02  0.51100000000E-03 0. -1.
    9900012    2    1    2    0    0  0.71122033390E+00 -0.93212868138E+01  0.30484972902E+02  0.59301862023E+02  0.49999850444E+02 0.  0.
         12    1    1    2    0    0 -0.71122033390E+00  0.93212868138E+01 -0.30484972902E+02  0.31886137977E+02  0.00000000000E+00 0. -1.
         11    1    3    3    0    0 -0.47202183121E+01 -0.34921088454E+01  0.18048858636E+02  0.18979899458E+02  0.51100000000E-03 0. -1.
        -11    1    3    3    0    0 -0.10918453943E+02  0.57503124206E+00  0.18714139282E+02  0.21674000710E+02  0.51100000000E-03 0.  1.
         12    1    3    3    0    0  0.16349892589E+02 -0.64042092104E+01 -0.62780250161E+01  0.18647961856E+02  0.00000000000E+00 0. -1.
</event>
<event>
 7    1  0.1204848E-011  0.5930195E+02  0.7816164E-02  0.1266605E+00
        -11   -1    0    0    0    0  0.00000000000E+00  0.00000000000E+00  0.45593999997E+02  0.45594000000E+02  0.51100000000E-03 0. -1.
         11   -1    0    0    0    0 -0.00000000000E+00 -0.00000000000E+00 -0.45593999997E+02  0.45594000000E+02  0.51100000000E-03 0.  1.
    9900012    2    1    2    0    0  0.21732086482E+02 -0.23325177432E+02  0.61065656292E+00  0.59301946833E+02  0.50000005117E+02 0.  0.
         12    1    1    2    0    0 -0.21732086482E+02  0.23325177432E+02 -0.61065656292E+00  0.31886053167E+02  0.00000000000E+00 0. -1.
         11    1    3    3    0    0  0.16230834383E+02 -0.83273762955E+01  0.16169572620E+01  0.18313921802E+02  0.51100000000E-03 0. -1.
        -11    1    3    3    0    0  0.67337955252E+01 -0.27203610954E+02  0.27466948400E+01  0.28158920148E+02  0.51100000000E-03 0.  1.
         12    1    3    3    0    0 -0.12325434259E+01  0.12205809817E+02 -0.37529955391E+01  0.12829104883E+02  0.00000000000E+00 0. -1.
</event>
<event>
 7    1  0.1204848E-011  0.5930195E+02  0.7816164E-02  0.1266605E+00
        -11   -1    0    0    0    0  0.00000000000E+00  0.00000000000E+00  0.45593999997E+02  0.45594000000E+02  0.51100000000E-03 0.  1.
         11   -1    0    0    0    0 -0.00000000000E+00 -0.00000000000E+00 -0.45593999997E+02  0.45594000000E+02  0.51100000000E-03 0. -1.
    9900012    2    1    2    0    0  0.27558932661E+02 -0.10299955509E+02  0.12293762118E+02  0.59301945997E+02  0.50000003591E+02 0.  0.
         12    1    1    2    0    0 -0.27558932661E+02  0.10299955509E+02 -0.12293762118E+02  0.31886054003E+02  0.00000000000E+00 0. -1.
         11    1    3    3    0    0 -0.63716728317E+01 -0.75463145243E+01 -0.55234773379E+01  0.11316089419E+02  0.51100000000E-03 0. -1.
        -11    1    3    3    0    0 -0.44322076473E+01 -0.10945815273E+01  0.65206291846E+01  0.79599735284E+01  0.51100000000E-03 0.  1.
        -12    1    3    3    0    0  0.38362813140E+02 -0.16590594575E+01  0.11296610271E+02  0.40025883049E+02  0.00000000000E+00 0.  1.
</event>
<event>
 7    1  0.1204848E-011  0.5930195E+02  0.7816164E-02  0.1266605E+00
        -11   -1    0    0    0    0  0.00000000000E+00  0.00000000000E+00  0.45593999997E+02  0.45594000000E+02  0.51100000000E-03 0.  1.
         11   -1    0    0    0    0 -0.00000000000E+00 -0.00000000000E+00 -0.45593999997E+02  0.45594000000E+02  0.51100000000E-03 0. -1.
    9900012    2    1    2    0    0  0.91156641266E+01  0.26449061402E+02  0.15299401540E+02  0.59301954949E+02  0.50000019918E+02 0.  0.
         12    1    1    2    0    0 -0.91156641266E+01 -0.26449061402E+02 -0.15299401540E+02  0.31886045051E+02  0.00000000000E+00 0. -1.
         11    1    3    3    0    0 -0.27049466114E+01 -0.18545249306E+01  0.50153380382E+01  0.59924631653E+01  0.51100000000E-03 0. -1.
        -11    1    3    3    0    0 -0.31910081533E+01 -0.98144776255E+01  0.64338913024E+01  0.12161474485E+02  0.51100000000E-03 0.  1.
         12    1    3    3    0    0  0.15011618891E+02  0.38118063958E+02  0.38501721996E+01  0.41148017299E+02  0.00000000000E+00 0. -1.
</event>
<event>
 7    1  0.1204848E-011  0.5930180E+02  0.7816164E-02  0.1266605E+00
        -11   -1    0    0    0    0  0.00000000000E+00  0.00000000000E+00  0.45593999997E+02  0.45594000000E+02  0.51100000000E-03 0.  1.
         11   -1    0    0    0    0 -0.00000000000E+00 -0.00000000000E+00 -0.45593999997E+02  0.45594000000E+02  0.51100000000E-03 0. -1.
    9900012    2    1    2    0    0  0.21394659480E+02  0.23640817731E+02 -0.33177370556E+00  0.59301799363E+02  0.49999736166E+02 0.  0.
         12    1    1    2    0    0 -0.21394659480E+02 -0.23640817731E+02  0.33177370556E+00  0.31886200637E+02  0.00000000000E+00 0. -1.
         11    1    3    3    0    0  0.19151127874E+01  0.26305184766E+02  0.51351292862E+01  0.26870056860E+02  0.51100000000E-03 0.  1.
        -11    1    3    3    0    0  0.12624852256E+02  0.98141804991E+01  0.23931384136E+01  0.16168863444E+02  0.51100000000E-03 0. -1.
         12    1    3    3    0    0  0.68546944373E+01 -0.12478547535E+02 -0.78600414054E+01  0.16262879059E+02  0.00000000000E+00 0. -1.
</event>
<event>
 7    1  0.1204848E-011  0.5930195E+02  0.7816164E-02  0.1266605E+00
        -11   -1    0    0    0    0  0.00000000000E+00  0.00000000000E+00  0.45593999997E+02  0.45594000000E+02  0.51100000000E-03 0.  1.
         11   -1    0    0    0    0 -0.00000000000E+00 -0.00000000000E+00 -0.45593999997E+02  0.45594000000E+02  0.51100000000E-03 0. -1.
    9900012    2    1    2    0    0  0.31050981479E+02  0.97549090399E+00 -0.71836898808E+01  0.59301946095E+02  0.50000003771E+02 0.  0.
         12    1    1    2    0    0 -0.31050981479E+02 -0.97549090399E+00  0.71836898808E+01  0.31886053905E+02  0.00000000000E+00 0. -1.
         11    1    3    3    0    0 -0.12658179583E+02 -0.24006383131E+01 -0.40310628805E+01  0.13499705288E+02  0.51100000000E-03 0. -1.
        -11    1    3    3    0    0  0.13449538429E+02 -0.32515312139E+01 -0.51419067882E+01  0.14761495346E+02  0.51100000000E-03 0.  1.
        -12    1    3    3    0    0  0.30259622633E+02  0.66276604310E+01  0.19892797879E+01  0.31040745461E+02  0.00000000000E+00 0.  1.
</event>
<event>
 7    1  0.1204848E-011  0.5930192E+02  0.7816164E-02  0.1266605E+00
        -11   -1    0    0    0    0  0.00000000000E+00  0.00000000000E+00  0.45593999997E+02  0.45594000000E+02  0.51100000000E-03 0.  1.
         11   -1    0    0    0    0 -0.00000000000E+00 -0.00000000000E+00 -0.45593999997E+02  0.45594000000E+02  0.51100000000E-03 0. -1.
    9900012    2    1    2    0    0 -0.91784610809E+01  0.29203011004E+02  0.89253765131E+01  0.59301916116E+02  0.49999949096E+02 0.  0.
         12    1    1    2    0    0  0.91784610809E+01 -0.29203011004E+02 -0.89253765131E+01  0.31886083884E+02  0.00000000000E+00 0. -1.
         11    1    3    3    0    0 -0.16364661870E+01  0.27600124646E+02  0.89923241538E+01  0.29074160280E+02  0.51100000000E-03 0. -1.
        -11    1    3    3    0    0 -0.15679876290E+02  0.97926941429E+01  0.16295192929E+01  0.18558305753E+02  0.51100000000E-03 0.  1.
         12    1    3    3    0    0  0.81378813962E+01 -0.81898077846E+01 -0.16964669336E+01  0.11669450082E+02  0.00000000000E+00 0. -1.
</event>
<event>
 7    1  0.1204848E-011  0.5930192E+02  0.7816164E-02  0.1266605E+00
        -11   -1    0    0    0    0  0.00000000000E+00  0.00000000000E+00  0.45593999997E+02  0.45594000000E+02  0.51100000000E-03 0.  1.
         11   -1    0    0    0    0 -0.00000000000E+00 -0.00000000000E+00 -0.45593999997E+02  0.45594000000E+02  0.51100000000E-03 0. -1.
    9900012    2    1    2    0    0  0.18668882700E+02 -0.18185471403E+02  0.18370731414E+02  0.59301916451E+02  0.49999949707E+02 0.  0.
         12    1    1    2    0    0 -0.18668882700E+02  0.18185471403E+02 -0.18370731414E+02  0.31886083549E+02  0.00000000000E+00 0. -1.
         11    1    3    3    0    0 -0.82904596002E+01 -0.67507503910E+01  0.44688135199E+01  0.11587693721E+02  0.51100000000E-03 0. -1.
        -11    1    3    3    0    0  0.25528201715E+02 -0.42822332460E+01  0.23971874140E+02  0.35279985181E+02  0.51100000000E-03 0.  1.
         12    1    3    3    0    0  0.14311405859E+01 -0.71524877661E+01 -0.10069956246E+02  0.12434237549E+02  0.00000000000E+00 0. -1.
</event>
<event>
 7    1  0.1204848E-011  0.5930196E+02  0.7816164E-02  0.1266605E+00
        -11   -1    0    0    0    0  0.00000000000E+00  0.00000000000E+00  0.45593999997E+02  0.45594000000E+02  0.51100000000E-03 0.  1.
         11   -1    0    0    0    0 -0.00000000000E+00 -0.00000000000E+00 -0.45593999997E+02  0.45594000000E+02  0.51100000000E-03 0. -1.
    9900012    2    1    2    0    0  0.23065406472E+00  0.11803326412E+02  0.29620057063E+02  0.59301960796E+02  0.50000030582E+02 0.  0.
         12    1    1    2    0    0 -0.23065406472E+00 -0.11803326412E+02 -0.29620057063E+02  0.31886039204E+02  0.00000000000E+00 0. -1.
         11    1    3    3    0    0  0.24683125032E+01  0.38283055808E+01 -0.20039640176E+01  0.49763804395E+01  0.51100000000E-03 0. -1.
        -11    1    3    3    0    0 -0.67311671134E+00 -0.92456313511E+00 -0.10845391717E+02  0.10905522677E+02  0.51100000000E-03 0.  1.
        -12    1    3    3    0    0 -0.15645417271E+01  0.88995839667E+01  0.42469412797E+02  0.43420057680E+02  0.00000000000E+00 0.  1.
</event>
<event>
 7    1  0.1204848E-011  0.5930198E+02  0.7816164E-02  0.1266605E+00
        -11   -1    0    0    0    0  0.00000000000E+00  0.00000000000E+00  0.45593999997E+02  0.45594000000E+02  0.51100000000E-03 0.  1.
         11   -1    0    0    0    0 -0.00000000000E+00 -0.00000000000E+00 -0.45593999997E+02  0.45594000000E+02  0.51100000000E-03 0. -1.
    9900012    2    1    2    0    0  0.19633360085E+02  0.23873986689E+02  0.78282881499E+01  0.59301981685E+02  0.50000068677E+02 0.  0.
         12    1    1    2    0    0 -0.19633360085E+02 -0.23873986689E+02 -0.78282881499E+01  0.31886018315E+02  0.00000000000E+00 0. -1.
         11    1    3    3    0    0 -0.24535859203E+01  0.97686916403E+01  0.25919026341E+01  0.10400258639E+02  0.51100000000E-03 0. -1.
        -11    1    3    3    0    0  0.10174602950E+02 -0.20738288346E+01  0.20958579592E+02  0.23389856135E+02  0.51100000000E-03 0.  1.
        -12    1    3    3    0    0  0.11912343055E+02  0.16179123883E+02 -0.15722194076E+02  0.25511866911E+02  0.00000000000E+00 0.  1.
</event>
<event>
 7    1  0.1204848E-011  0.5930189E+02  0.7816164E-02  0.1266605E+00
        -11   -1    0    0    0    0  0.00000000000E+00  0.00000000000E+00  0.45593999997E+02  0.45594000000E+02  0.51100000000E-03 0.  1.
         11   -1    0    0    0    0 -0.00000000000E+00 -0.00000000000E+00 -0.45593999997E+02  0.45594000000E+02  0.51100000000E-03 0. -1.
    9900012    2    1    2    0    0 -0.95785211112E+01  0.15558836588E+02  0.26132331732E+02  0.59301886652E+02  0.49999895361E+02 0.  0.
         12    1    1    2    0    0  0.95785211112E+01 -0.15558836588E+02 -0.26132331732E+02  0.31886113348E+02  0.00000000000E+00 0. -1.
         11    1    3    3    0    0 -0.87614273320E+01 -0.44933264972E+00  0.21385750616E+02  0.23115251208E+02  0.51100000000E-03 0. -1.
        -11    1    3    3    0    0 -0.73009105380E+00 -0.79748780388E+00  0.15951386950E+02  0.15987988167E+02  0.51100000000E-03 0.  1.
        -12    1    3    3    0    0 -0.87002725496E-01  0.16805657041E+02 -0.11204805834E+02  0.20198647277E+02  0.00000000000E+00 0.  1.
</event>
<event>
 7    1  0.1204848E-011  0.5930196E+02  0.7816164E-02  0.1266605E+00
        -11   -1    0    0    0    0  0.00000000000E+00  0.00000000000E+00  0.45593999997E+02  0.45594000000E+02  0.51100000000E-03 0.  1.
         11   -1    0    0    0    0 -0.00000000000E+00 -0.00000000000E+00 -0.45593999997E+02  0.45594000000E+02  0.51100000000E-03 0. -1.
    9900012    2    1    2    0    0  0.31736941762E+02  0.25839627769E+01  0.16760860423E+01  0.59301959160E+02  0.50000027597E+02 0.  0.
         12    1    1    2    0    0 -0.31736941762E+02 -0.25839627769E+01 -0.16760860423E+01  0.31886040840E+02  0.00000000000E+00 0. -1.
         11    1    3    3    0    0  0.13247866026E+02  0.70241140025E+01 -0.67300005145E+01  0.16435846158E+02  0.51100000000E-03 0. -1.
        -11    1    3    3    0    0  0.24425755175E+02  0.27358940227E+01 -0.63784291119E+01  0.25392656225E+02  0.51100000000E-03 0.  1.
         12    1    3    3    0    0 -0.59366794383E+01 -0.71760452484E+01  0.14784515669E+02  0.17473456777E+02  0.00000000000E+00 0. -1.
</event>
<event>
 7    1  0.1204848E-011  0.5930184E+02  0.7816164E-02  0.1266605E+00
        -11   -1    0    0    0    0  0.00000000000E+00  0.00000000000E+00  0.45593999997E+02  0.45594000000E+02  0.51100000000E-03 0. -1.
         11   -1    0    0    0    0 -0.00000000000E+00 -0.00000000000E+00 -0.45593999997E+02  0.45594000000E+02  0.51100000000E-03 0.  1.
    9900012    2    1    2    0    0  0.29468368362E+02 -0.88891890392E+01 -0.83261488269E+01  0.59301840464E+02  0.49999811124E+02 0.  0.
         12    1    1    2    0    0 -0.29468368362E+02  0.88891890392E+01  0.83261488269E+01  0.31886159536E+02  0.00000000000E+00 0. -1.
         11    1    3    3    0    0 -0.76630408068E+01 -0.30173552797E+00  0.72202804941E+00  0.77028931902E+01  0.51100000000E-03 0. -1.
        -11    1    3    3    0    0  0.20655647422E+02 -0.13175047790E+02 -0.19711134266E+02  0.31444657241E+02  0.51100000000E-03 0.  1.
         12    1    3    3    0    0  0.16475761747E+02  0.45875942791E+01  0.10662957390E+02  0.20154290032E+02  0.00000000000E+00 0. -1.
</event>
<event>
 7    1  0.1204848E-011  0.5930194E+02  0.7816164E-02  0.1266605E+00
        -11   -1    0    0    0    0  0.00000000000E+00  0.00000000000E+00  0.45593999997E+02  0.45594000000E+02  0.51100000000E-03 0.  1.
         11   -1    0    0    0    0 -0.00000000000E+00 -0.00000000000E+00 -0.45593999997E+02  0.45594000000E+02  0.51100000000E-03 0. -1.
    9900012    2    1    2    0    0  0.11974701162E+01 -0.84241156735E+01  0.30729813760E+02  0.59301935438E+02  0.49999984334E+02 0.  0.
         12    1    1    2    0    0 -0.11974701162E+01  0.84241156735E+01 -0.30729813760E+02  0.31886064562E+02  0.00000000000E+00 0. -1.
         11    1    3    3    0    0 -0.10826038642E+02 -0.14230088041E+02  0.18622228023E+01  0.17976829319E+02  0.51100000000E-03 0. -1.
        -11    1    3    3    0    0  0.72203001112E+01 -0.12411177862E+01 -0.33080376815E+01  0.80384215253E+01  0.51100000000E-03 0.  1.
        -12    1    3    3    0    0  0.48032086469E+01  0.70470901534E+01  0.32175628639E+02  0.33286684594E+02  0.00000000000E+00 0.  1.
</event>
<event>
 7    1  0.1204848E-011  0.5930195E+02  0.7816164E-02  0.1266605E+00
        -11   -1    0    0    0    0  0.00000000000E+00  0.00000000000E+00  0.45593999997E+02  0.45594000000E+02  0.51100000000E-03 0.  1.
         11   -1    0    0    0    0 -0.00000000000E+00 -0.00000000000E+00 -0.45593999997E+02  0.45594000000E+02  0.51100000000E-03 0. -1.
    9900012    2    1    2    0    0  0.23870417451E+02 -0.11913904020E+02 -0.17463740274E+02  0.59301950344E+02  0.50000011520E+02 0.  0.
         12    1    1    2    0    0 -0.23870417451E+02  0.11913904020E+02  0.17463740274E+02  0.31886049656E+02  0.00000000000E+00 0. -1.
         11    1    3    3    0    0 -0.16725387813E+01  0.95871128486E+00  0.88537813648E+01  0.90612338023E+01  0.51100000000E-03 0. -1.
        -11    1    3    3    0    0 -0.54527189251E+01 -0.65035580153E+01 -0.13822004057E+02  0.16219624131E+02  0.51100000000E-03 0.  1.
        -12    1    3    3    0    0  0.30995675157E+02 -0.63690572896E+01 -0.12495517582E+02  0.34021092411E+02  0.00000000000E+00 0.  1.
</event>
<event>
 7    1  0.1204848E-011  0.5930195E+02  0.7816164E-02  0.1266605E+00
        -11   -1    0    0    0    0  0.00000000000E+00  0.00000000000E+00  0.45593999997E+02  0.45594000000E+02  0.51100000000E-03 0.  1.
         11   -1    0    0    0    0 -0.00000000000E+00 -0.00000000000E+00 -0.45593999997E+02  0.45594000000E+02  0.51100000000E-03 0. -1.
    9900012    2    1    2    0    0 -0.31805553670E+02 -0.29286550754E+00  0.22452877408E+01  0.59301947697E+02  0.50000006691E+02 0.  0.
         12    1    1    2    0    0  0.31805553670E+02  0.29286550754E+00 -0.22452877408E+01  0.31886052303E+02  0.00000000000E+00 0. -1.
         11    1    3    3    0    0 -0.74406087797E+01  0.66365549954E+01  0.59545456849E+01  0.11613058847E+02  0.51100000000E-03 0. -1.
        -11    1    3    3    0    0 -0.26213880916E+02 -0.15201408055E+02  0.97069825528E+01  0.31819425986E+02  0.51100000000E-03 0.  1.
         12    1    3    3    0    0  0.18489360258E+01  0.82719875523E+01 -0.13416240497E+02  0.15869462863E+02  0.00000000000E+00 0. -1.
</event>
<event>
 7    1  0.1204848E-011  0.5930197E+02  0.7816164E-02  0.1266605E+00
        -11   -1    0    0    0    0  0.00000000000E+00  0.00000000000E+00  0.45593999997E+02  0.45594000000E+02  0.51100000000E-03 0.  1.
         11   -1    0    0    0    0 -0.00000000000E+00 -0.00000000000E+00 -0.45593999997E+02  0.45594000000E+02  0.51100000000E-03 0. -1.
    9900012    2    1    2    0    0  0.13582542198E+02 -0.42802961427E+01  0.28529149945E+02  0.59301971960E+02  0.50000050941E+02 0.  0.
         12    1    1    2    0    0 -0.13582542198E+02  0.42802961427E+01 -0.28529149945E+02  0.31886028040E+02  0.00000000000E+00 0. -1.
         11    1    3    3    0    0 -0.92303168578E+01 -0.86821136977E+01  0.37515105801E+01  0.13215584718E+02  0.51100000000E-03 0. -1.
        -11    1    3    3    0    0  0.53624156097E+01  0.15729831640E+02  0.49344926424E+01  0.17335868092E+02  0.51100000000E-03 0.  1.
        -12    1    3    3    0    0  0.17450443446E+02 -0.11328014085E+02  0.19843146722E+02  0.28750519150E+02  0.00000000000E+00 0.  1.
</event>
<event>
 7    1  0.1204848E-011  0.5930195E+02  0.7816164E-02  0.1266605E+00
        -11   -1    0    0    0    0  0.00000000000E+00  0.00000000000E+00  0.45593999997E+02  0.45594000000E+02  0.51100000000E-03 0. -1.
         11   -1    0    0    0    0 -0.00000000000E+00 -0.00000000000E+00 -0.45593999997E+02  0.45594000000E+02  0.51100000000E-03 0.  1.
    9900012    2    1    2    0    0 -0.27712059353E+02  0.13501308870E+02 -0.81533130230E+01  0.59301951514E+02  0.50000013654E+02 0.  0.
         12    1    1    2    0    0  0.27712059353E+02 -0.13501308870E+02  0.81533130230E+01  0.31886048486E+02  0.00000000000E+00 0. -1.
         11    1    3    3    0    0 -0.97828616420E+01  0.50922521070E+01  0.17923272850E+02  0.21044693472E+02  0.51100000000E-03 0. -1.
        -11    1    3    3    0    0 -0.43282432219E+00  0.42700066613E+01  0.21427489214E+01  0.47970477362E+01  0.51100000000E-03 0.  1.
        -12    1    3    3    0    0 -0.17496373389E+02  0.41390501014E+01 -0.28219334794E+02  0.33460210306E+02  0.00000000000E+00 0.  1.
</event>
<event>
 7    1  0.1204848E-011  0.5930191E+02  0.7816164E-02  0.1266605E+00
        -11   -1    0    0    0    0  0.00000000000E+00  0.00000000000E+00  0.45593999997E+02  0.45594000000E+02  0.51100000000E-03 0.  1.
         11   -1    0    0    0    0 -0.00000000000E+00 -0.00000000000E+00 -0.45593999997E+02  0.45594000000E+02  0.51100000000E-03 0. -1.
    9900012    2    1    2    0    0  0.29774264114E+02  0.11831067821E+01 -0.11349709832E+02  0.59301914344E+02  0.49999945864E+02 0.  0.
         12    1    1    2    0    0 -0.29774264114E+02 -0.11831067821E+01  0.11349709832E+02  0.31886085656E+02  0.00000000000E+00 0. -1.
         11    1    3    3    0    0  0.99478147830E+01 -0.68107451335E+01 -0.62783863054E+01  0.13592770251E+02  0.51100000000E-03 0.  1.
        -11    1    3    3    0    0 -0.35880322606E+01 -0.13299688493E+02 -0.13020966363E+01  0.13836587203E+02  0.51100000000E-03 0. -1.
        -12    1    3    3    0    0  0.23414481592E+02  0.21293540409E+02 -0.37692268900E+01  0.31872556890E+02  0.00000000000E+00 0.  1.
</event>
<event>
 7    1  0.1204848E-011  0.5930195E+02  0.7816164E-02  0.1266605E+00
        -11   -1    0    0    0    0  0.00000000000E+00  0.00000000000E+00  0.45593999997E+02  0.45594000000E+02  0.51100000000E-03 0.  1.
         11   -1    0    0    0    0 -0.00000000000E+00 -0.00000000000E+00 -0.45593999997E+02  0.45594000000E+02  0.51100000000E-03 0. -1.
    9900012    2    1    2    0    0  0.29204233512E+02 -0.97289064763E+01 -0.83175415525E+01  0.59301947035E+02  0.50000005484E+02 0.  0.
         12    1    1    2    0    0 -0.29204233512E+02  0.97289064763E+01  0.83175415525E+01  0.31886052965E+02  0.00000000000E+00 0. -1.
         11    1    3    3    0    0  0.19956717738E+02  0.71173134503E+00 -0.21866613437E+02  0.29612935145E+02  0.51100000000E-03 0. -1.
        -11    1    3    3    0    0  0.69540546232E+01 -0.77885624407E+01 -0.44511584123E+01  0.11350479817E+02  0.51100000000E-03 0.  1.
        -12    1    3    3    0    0  0.22934611498E+01 -0.26520753806E+01  0.18000230297E+02  0.18338532074E+02  0.00000000000E+00 0.  1.
</event>
<event>
 7    1  0.1204848E-011  0.5930193E+02  0.7816164E-02  0.1266605E+00
        -11   -1    0    0    0    0  0.00000000000E+00  0.00000000000E+00  0.45593999997E+02  0.45594000000E+02  0.51100000000E-03 0.  1.
         11   -1    0    0    0    0 -0.00000000000E+00 -0.00000000000E+00 -0.45593999997E+02  0.45594000000E+02  0.51100000000E-03 0. -1.
    9900012    2    1    2    0    0 -0.87779943538E+01 -0.92527963866E+01  0.29224199830E+02  0.59301932799E+02  0.49999979521E+02 0.  0.
         12    1    1    2    0    0  0.87779943538E+01  0.92527963866E+01 -0.29224199830E+02  0.31886067201E+02  0.00000000000E+00 0. -1.
         11    1    3    3    0    0 -0.15537888089E+02  0.64890568756E+01  0.95198815201E+01  0.19343266783E+02  0.51100000000E-03 0. -1.
        -11    1    3    3    0    0  0.10033901917E+02 -0.26796588230E+01  0.23730344536E+02  0.25903455583E+02  0.51100000000E-03 0.  1.
         12    1    3    3    0    0 -0.32740081816E+01 -0.13062194439E+02 -0.40260262261E+01  0.14055210433E+02  0.00000000000E+00 0. -1.
</event>
<event>
 7    1  0.1204848E-011  0.5930205E+02  0.7816164E-02  0.1266604E+00
        -11   -1    0    0    0    0  0.00000000000E+00  0.00000000000E+00  0.45593999997E+02  0.45594000000E+02  0.51100000000E-03 0. -1.
         11   -1    0    0    0    0 -0.00000000000E+00 -0.00000000000E+00 -0.45593999997E+02  0.45594000000E+02  0.51100000000E-03 0.  1.
    9900012    2    1    2    0    0 -0.86782007161E+01  0.15858852705E+02 -0.26265934743E+02  0.59302051610E+02  0.50000196204E+02 0.  0.
         12    1    1    2    0    0  0.86782007161E+01 -0.15858852705E+02  0.26265934743E+02  0.31885948390E+02  0.00000000000E+00 0. -1.
         11    1    3    3    0    0 -0.44779846756E+01  0.20642643306E+02 -0.27626433636E+02  0.34776298036E+02  0.51100000000E-03 0. -1.
        -11    1    3    3    0    0 -0.13468153421E+02 -0.31756334407E+01 -0.29981601185E+01  0.14158558142E+02  0.51100000000E-03 0.  1.
         12    1    3    3    0    0  0.92679373801E+01 -0.16081571602E+01  0.43586590115E+01  0.10367195431E+02  0.00000000000E+00 0. -1.
</event>
<event>
 7    1  0.1204848E-011  0.5930193E+02  0.7816164E-02  0.1266605E+00
        -11   -1    0    0    0    0  0.00000000000E+00  0.00000000000E+00  0.45593999997E+02  0.45594000000E+02  0.51100000000E-03 0.  1.
         11   -1    0    0    0    0 -0.00000000000E+00 -0.00000000000E+00 -0.45593999997E+02  0.45594000000E+02  0.51100000000E-03 0. -1.
    9900012    2    1    2    0    0  0.15775122655E+02  0.27435102517E+02  0.38964245833E+01  0.59301929853E+02  0.49999974149E+02 0.  0.
         12    1    1    2    0    0 -0.15775122655E+02 -0.27435102517E+02 -0.38964245833E+01  0.31886070147E+02  0.00000000000E+00 0. -1.
         11    1    3    3    0    0  0.61063981315E+01 -0.40563827238E+00 -0.10466515988E+02  0.12124380303E+02  0.51100000000E-03 0. -1.
        -11    1    3    3    0    0  0.69797446918E+01  0.25363979715E+02 -0.55885657089E+01  0.26893872348E+02  0.51100000000E-03 0.  1.
        -12    1    3    3    0    0  0.26889798317E+01  0.24767610740E+01  0.19951506281E+02  0.20283677201E+02  0.00000000000E+00 0.  1.
</event>
<event>
 7    1  0.1204848E-011  0.5930194E+02  0.7816164E-02  0.1266605E+00
        -11   -1    0    0    0    0  0.00000000000E+00  0.00000000000E+00  0.45593999997E+02  0.45594000000E+02  0.51100000000E-03 0. -1.
         11   -1    0    0    0    0 -0.00000000000E+00 -0.00000000000E+00 -0.45593999997E+02  0.45594000000E+02  0.51100000000E-03 0.  1.
    9900012    2    1    2    0    0  0.13508246193E+02  0.18793974224E+02 -0.21932502482E+02  0.59301939606E+02  0.49999991935E+02 0.  0.
         12    1    1    2    0    0 -0.13508246193E+02 -0.18793974224E+02  0.21932502482E+02  0.31886060394E+02  0.00000000000E+00 0. -1.
         11    1    3    3    0    0 -0.90739544397E+01  0.95017556081E+01 -0.65826126483E+01  0.14695264487E+02  0.51100000000E-03 0. -1.
        -11    1    3    3    0    0  0.21871930382E+02  0.19979287361E+02 -0.16373247003E+02  0.33847252174E+02  0.51100000000E-03 0.  1.
        -12    1    3    3    0    0  0.71027025110E+00 -0.10687068745E+02  0.10233571695E+01  0.10759422944E+02  0.00000000000E+00 0.  1.
</event>
<event>
 7    1  0.1204848E-011  0.5930196E+02  0.7816164E-02  0.1266605E+00
        -11   -1    0    0    0    0  0.00000000000E+00  0.00000000000E+00  0.45593999997E+02  0.45594000000E+02  0.51100000000E-03 0. -1.
         11   -1    0    0    0    0 -0.00000000000E+00 -0.00000000000E+00 -0.45593999997E+02  0.45594000000E+02  0.51100000000E-03 0.  1.
    9900012    2    1    2    0    0  0.30399633692E+02 -0.75040145738E+01  0.60226064580E+01  0.59301956786E+02  0.50000023267E+02 0.  0.
         12    1    1    2    0    0 -0.30399633692E+02  0.75040145738E+01 -0.60226064580E+01  0.31886043214E+02  0.00000000000E+00 0. -1.
         11    1    3    3    0    0  0.70536244640E+01 -0.13842956810E+02 -0.24162940522E+01  0.15723216863E+02  0.51100000000E-03 0. -1.
        -11    1    3    3    0    0  0.22933395040E+02 -0.10982375321E+02  0.49524098416E+01  0.25905202938E+02  0.51100000000E-03 0.  1.
        -12    1    3    3    0    0  0.41261418794E+00  0.17321317557E+02  0.34864906686E+01  0.17673536985E+02  0.00000000000E+00 0.  1.
</event>
<event>
 7    1  0.1204848E-011  0.5930194E+02  0.7816164E-02  0.1266605E+00
        -11   -1    0    0    0    0  0.00000000000E+00  0.00000000000E+00  0.45593999997E+02  0.45594000000E+02  0.51100000000E-03 0. -1.
         11   -1    0    0    0    0 -0.00000000000E+00 -0.00000000000E+00 -0.45593999997E+02  0.45594000000E+02  0.51100000000E-03 0.  1.
    9900012    2    1    2    0    0  0.28155803581E+02  0.72516318734E-01 -0.14965511218E+02  0.59301936274E+02  0.49999985859E+02 0.  0.
         12    1    1    2    0    0 -0.28155803581E+02 -0.72516318734E-01  0.14965511218E+02  0.31886063726E+02  0.00000000000E+00 0. -1.
         11    1    3    3    0    0  0.10005103381E+02  0.12449028318E+02 -0.12170480622E+01  0.16017540572E+02  0.51100000000E-03 0. -1.
        -11    1    3    3    0    0  0.22428262692E+02 -0.48042960658E+00  0.26382963711E+01  0.22588014255E+02  0.51100000000E-03 0.  1.
        -12    1    3    3    0    0 -0.42775624919E+01 -0.11896082393E+02 -0.16386759527E+02  0.20696381446E+02  0.00000000000E+00 0.  1.
</event>
<event>
 7    1  0.1204848E-011  0.5930194E+02  0.7816164E-02  0.1266605E+00
        -11   -1    0    0    0    0  0.00000000000E+00  0.00000000000E+00  0.45593999997E+02  0.45594000000E+02  0.51100000000E-03 0.  1.
         11   -1    0    0    0    0 -0.00000000000E+00 -0.00000000000E+00 -0.45593999997E+02  0.45594000000E+02  0.51100000000E-03 0. -1.
    9900012    2    1    2    0    0 -0.10493202794E+01 -0.30608340908E+02  0.88740792975E+01  0.59301938946E+02  0.49999990732E+02 0.  0.
         12    1    1    2    0    0  0.10493202794E+01  0.30608340908E+02 -0.88740792975E+01  0.31886061054E+02  0.00000000000E+00 0. -1.
         11    1    3    3    0    0 -0.57768188226E+01 -0.26192313811E+02 -0.12277069757E+02  0.29498057234E+02  0.51100000000E-03 0. -1.
        -11    1    3    3    0    0  0.18266636321E+01 -0.81477232296E+01  0.22755778472E+00  0.83530758801E+01  0.51100000000E-03 0.  1.
        -12    1    3    3    0    0  0.29008349111E+01  0.37316961327E+01  0.20923591270E+02  0.21450805832E+02  0.00000000000E+00 0.  1.
</event>
<event>
 7    1  0.1204848E-011  0.5930196E+02  0.7816164E-02  0.1266605E+00
        -11   -1    0    0    0    0  0.00000000000E+00  0.00000000000E+00  0.45593999997E+02  0.45594000000E+02  0.51100000000E-03 0.  1.
         11   -1    0    0    0    0 -0.00000000000E+00 -0.00000000000E+00 -0.45593999997E+02  0.45594000000E+02  0.51100000000E-03 0. -1.
    9900012    2    1    2    0    0  0.19510241730E+02 -0.91759187465E+01 -0.23491962262E+02  0.59301963744E+02  0.50000035957E+02 0.  0.
         12    1    1    2    0    0 -0.19510241730E+02  0.91759187465E+01  0.23491962262E+02  0.31886036256E+02  0.00000000000E+00 0. -1.
         11    1    3    3    0    0 -0.46832121516E+01 -0.21330291067E+01 -0.20348982315E+02  0.20989601491E+02  0.51100000000E-03 0. -1.
        -11    1    3    3    0    0  0.34358365432E+01  0.37863832065E+01  0.10167435245E+02  0.11380615549E+02  0.51100000000E-03 0.  1.
        -12    1    3    3    0    0  0.20757617339E+02 -0.10829272846E+02 -0.13310415192E+02  0.26931746704E+02  0.00000000000E+00 0.  1.
</event>
<event>
 7    1  0.1204848E-011  0.5930195E+02  0.7816164E-02  0.1266605E+00
        -11   -1    0    0    0    0  0.00000000000E+00  0.00000000000E+00  0.45593999997E+02  0.45594000000E+02  0.51100000000E-03 0.  1.
         11   -1    0    0    0    0 -0.00000000000E+00 -0.00000000000E+00 -0.45593999997E+02  0.45594000000E+02  0.51100000000E-03 0. -1.
    9900012    2    1    2    0    0  0.39830607590E+01  0.15351822682E+02  0.27661837273E+02  0.59301945462E+02  0.50000002616E+02 0.  0.
         12    1    1    2    0    0 -0.39830607590E+01 -0.15351822682E+02 -0.27661837273E+02  0.31886054538E+02  0.00000000000E+00 0. -1.
         11    1    3    3    0    0 -0.95996737291E+01 -0.56143094856E+01 -0.57461998415E-01  0.11121039018E+02  0.51100000000E-03 0. -1.
        -11    1    3    3    0    0  0.52935550286E+01  0.23304393296E+02  0.57447656510E+01  0.24578828377E+02  0.51100000000E-03 0.  1.
        -12    1    3    3    0    0  0.82891794595E+01 -0.23382611284E+01  0.21974533620E+02  0.23602078066E+02  0.00000000000E+00 0.  1.
</event>
<event>
 7    1  0.1204848E-011  0.5930194E+02  0.7816164E-02  0.1266605E+00
        -11   -1    0    0    0    0  0.00000000000E+00  0.00000000000E+00  0.45593999997E+02  0.45594000000E+02  0.51100000000E-03 0.  1.
         11   -1    0    0    0    0 -0.00000000000E+00 -0.00000000000E+00 -0.45593999997E+02  0.45594000000E+02  0.51100000000E-03 0. -1.
    9900012    2    1    2    0    0  0.30166804943E+02  0.93643715695E+01  0.43581035436E+01  0.59301942830E+02  0.49999997815E+02 0.  0.
         12    1    1    2    0    0 -0.30166804943E+02 -0.93643715695E+01 -0.43581035436E+01  0.31886057170E+02  0.00000000000E+00 0. -1.
         11    1    3    3    0    0  0.12329805862E+02 -0.80993133605E+01 -0.62818563180E+01  0.16033861312E+02  0.51100000000E-03 0. -1.
        -11    1    3    3    0    0  0.12129798518E+02 -0.81183505528E+01 -0.91212642809E+00  0.14624349649E+02  0.51100000000E-03 0.  1.
        -12    1    3    3    0    0  0.57072005633E+01  0.25582035483E+02  0.11552086290E+02  0.28643731869E+02  0.00000000000E+00 0.  1.
</event>
<event>
 7    1  0.1535685E-011  0.5930183E+02  0.7816164E-02  0.1266605E+00
        -11   -1    0    0    0    0  0.00000000000E+00  0.00000000000E+00  0.45593999997E+02  0.45594000000E+02  0.51100000000E-03 0.  1.
         11   -1    0    0    0    0 -0.00000000000E+00 -0.00000000000E+00 -0.45593999997E+02  0.45594000000E+02  0.51100000000E-03 0. -1.
    9900012    2    1    2    0    0  0.28136870458E+02 -0.14629336900E+02  0.33206245319E+01  0.59301834903E+02  0.49999800982E+02 0.  0.
         12    1    1    2    0    0 -0.28136870458E+02  0.14629336900E+02 -0.33206245319E+01  0.31886165097E+02  0.00000000000E+00 0. -1.
         11    1    3    3    0    0  0.87595197099E+01 -0.15877493573E+02 -0.11875772566E+02  0.21676207279E+02  0.51100000000E-03 0. -1.
        -11    1    3    3    0    0  0.22704605611E+02 -0.77164225469E+01  0.68656425213E+01  0.24943523015E+02  0.51100000000E-03 0.  1.
        -12    1    3    3    0    0 -0.33272548631E+01  0.89645792198E+01  0.83307545766E+01  0.12682104610E+02  0.00000000000E+00 0.  1.
</event>
<event>
 7    1  0.1204848E-011  0.5930194E+02  0.7816164E-02  0.1266605E+00
        -11   -1    0    0    0    0  0.00000000000E+00  0.00000000000E+00  0.45593999997E+02  0.45594000000E+02  0.51100000000E-03 0. -1.
         11   -1    0    0    0    0 -0.00000000000E+00 -0.00000000000E+00 -0.45593999997E+02  0.45594000000E+02  0.51100000000E-03 0.  1.
    9900012    2    1    2    0    0  0.10248871638E+02  0.15167762830E+02 -0.26107856918E+02  0.59301943612E+02  0.49999999242E+02 0.  0.
         12    1    1    2    0    0 -0.10248871638E+02 -0.15167762830E+02  0.26107856918E+02  0.31886056388E+02  0.00000000000E+00 0. -1.
         11    1    3    3    0    0 -0.79658730220E+01  0.12549542823E+02 -0.12621147368E+02  0.19499731260E+02  0.51100000000E-03 0. -1.
        -11    1    3    3    0    0 -0.27310628257E+01  0.63176960083E+01 -0.16911323378E+02  0.18258281564E+02  0.51100000000E-03 0.  1.
        -12    1    3    3    0    0  0.20945807486E+02 -0.36994760017E+01  0.34246138281E+01  0.21543930788E+02  0.00000000000E+00 0.  1.
</event>
<event>
 7    1  0.1204848E-011  0.5930194E+02  0.7816164E-02  0.1266605E+00
        -11   -1    0    0    0    0  0.00000000000E+00  0.00000000000E+00  0.45593999997E+02  0.45594000000E+02  0.51100000000E-03 0. -1.
         11   -1    0    0    0    0 -0.00000000000E+00 -0.00000000000E+00 -0.45593999997E+02  0.45594000000E+02  0.51100000000E-03 0.  1.
    9900012    2    1    2    0    0  0.38531207039E+01 -0.12958479362E+02 -0.28878232468E+02  0.59301936633E+02  0.49999986515E+02 0.  0.
         12    1    1    2    0    0 -0.38531207039E+01  0.12958479362E+02  0.28878232468E+02  0.31886063367E+02  0.00000000000E+00 0. -1.
         11    1    3    3    0    0 -0.91069483731E+01 -0.99576063338E+01 -0.20994819392E+02  0.24957421224E+02  0.51100000000E-03 0. -1.
        -11    1    3    3    0    0 -0.33946183139E+01 -0.32992698147E+01 -0.15568111871E+02  0.16271899776E+02  0.51100000000E-03 0.  1.
         12    1    3    3    0    0  0.16354687391E+02  0.29839678676E+00  0.76846987950E+01  0.18072615634E+02  0.00000000000E+00 0. -1.
</event>
<event>
 7    1  0.1204848E-011  0.5930184E+02  0.7816164E-02  0.1266605E+00
        -11   -1    0    0    0    0  0.00000000000E+00  0.00000000000E+00  0.45593999997E+02  0.45594000000E+02  0.51100000000E-03 0. -1.
         11   -1    0    0    0    0 -0.00000000000E+00 -0.00000000000E+00 -0.45593999997E+02  0.45594000000E+02  0.51100000000E-03 0.  1.
    9900012    2    1    2    0    0 -0.22259135537E+02 -0.11320096549E+02 -0.19827086146E+02  0.59301842411E+02  0.49999814675E+02 0.  0.
         12    1    1    2    0    0  0.22259135537E+02  0.11320096549E+02  0.19827086146E+02  0.31886157589E+02  0.00000000000E+00 0. -1.
         11    1    3    3    0    0  0.43576016734E+01  0.25831692417E+01  0.21665859807E+01  0.55095871667E+01  0.51100000000E-03 0.  1.
        -11    1    3    3    0    0 -0.43740746753E+01  0.10978947525E+02 -0.15987772292E+02  0.19881616663E+02  0.51100000000E-03 0. -1.
        -12    1    3    3    0    0 -0.22242662535E+02 -0.24882213316E+02 -0.60058998339E+01  0.33910638581E+02  0.00000000000E+00 0.  1.
</event>
<event>
 7    1  0.1204848E-011  0.5930194E+02  0.7816164E-02  0.1266605E+00
        -11   -1    0    0    0    0  0.00000000000E+00  0.00000000000E+00  0.45593999997E+02  0.45594000000E+02  0.51100000000E-03 0. -1.
         11   -1    0    0    0    0 -0.00000000000E+00 -0.00000000000E+00 -0.45593999997E+02  0.45594000000E+02  0.51100000000E-03 0.  1.
    9900012    2    1    2    0    0  0.30884603404E+02  0.35820713393E+01  0.70732432248E+01  0.59301941413E+02  0.49999995231E+02 0.  0.
         12    1    1    2    0    0 -0.30884603404E+02 -0.35820713393E+01 -0.70732432248E+01  0.31886058587E+02  0.00000000000E+00 0. -1.
         11    1    3    3    0    0 -0.33507035203E+01 -0.27366157949E+01  0.56063842635E+01  0.70815128935E+01  0.51100000000E-03 0. -1.
        -11    1    3    3    0    0  0.90382195306E+01  0.17309064315E+02 -0.10577934076E+02  0.22207787132E+02  0.51100000000E-03 0.  1.
         12    1    3    3    0    0  0.25197087394E+02 -0.10990377180E+02  0.12044793037E+02  0.30012641387E+02  0.00000000000E+00 0. -1.
</event>
<event>
 7    1  0.1204848E-011  0.5930195E+02  0.7816164E-02  0.1266605E+00
        -11   -1    0    0    0    0  0.00000000000E+00  0.00000000000E+00  0.45593999997E+02  0.45594000000E+02  0.51100000000E-03 0.  1.
         11   -1    0    0    0    0 -0.00000000000E+00 -0.00000000000E+00 -0.45593999997E+02  0.45594000000E+02  0.51100000000E-03 0. -1.
    9900012    2    1    2    0    0 -0.57964382561E+01 -0.27382015662E+02  0.15275699304E+02  0.59301945566E+02  0.50000002805E+02 0.  0.
         12    1    1    2    0    0  0.57964382561E+01  0.27382015662E+02 -0.15275699304E+02  0.31886054434E+02  0.00000000000E+00 0. -1.
         11    1    3    3    0    0  0.41394204267E+01  0.34760822566E+00  0.95319788316E+01  0.10397800424E+02  0.51100000000E-03 0. -1.
        -11    1    3    3    0    0 -0.23418497397E+02 -0.25892653118E+02  0.50904077640E+01  0.35281266378E+02  0.51100000000E-03 0.  1.
         12    1    3    3    0    0  0.13482638714E+02 -0.18369707699E+01  0.65331270847E+00  0.13622878763E+02  0.00000000000E+00 0. -1.
</event>
<event>
 7    1  0.1204848E-011  0.5930194E+02  0.7816164E-02  0.1266605E+00
        -11   -1    0    0    0    0  0.00000000000E+00  0.00000000000E+00  0.45593999997E+02  0.45594000000E+02  0.51100000000E-03 0. -1.
         11   -1    0    0    0    0 -0.00000000000E+00 -0.00000000000E+00 -0.45593999997E+02  0.45594000000E+02  0.51100000000E-03 0.  1.
    9900012    2    1    2    0    0  0.16376782736E+02  0.10933021658E+02 -0.25079694858E+02  0.59301936123E+02  0.49999985584E+02 0.  0.
         12    1    1    2    0    0 -0.16376782736E+02 -0.10933021658E+02  0.25079694858E+02  0.31886063877E+02  0.00000000000E+00 0. -1.
         11    1    3    3    0    0 -0.59705562894E+01  0.34281941860E+01 -0.97241457497E+00  0.69531034904E+01  0.51100000000E-03 0. -1.
        -11    1    3    3    0    0  0.38204098738E+01  0.31270435513E+01 -0.31531198736E+02  0.31915363494E+02  0.51100000000E-03 0.  1.
         12    1    3    3    0    0  0.18526929152E+02  0.43777839208E+01  0.74239184527E+01  0.20433469139E+02  0.00000000000E+00 0. -1.
</event>
<event>
 7    1  0.1204848E-011  0.5930197E+02  0.7816164E-02  0.1266605E+00
        -11   -1    0    0    0    0  0.00000000000E+00  0.00000000000E+00  0.45593999997E+02  0.45594000000E+02  0.51100000000E-03 0. -1.
         11   -1    0    0    0    0 -0.00000000000E+00 -0.00000000000E+00 -0.45593999997E+02  0.45594000000E+02  0.51100000000E-03 0.  1.
    9900012    2    1    2    0    0 -0.11089091526E+02  0.21099761481E+02 -0.21179029390E+02  0.59301965889E+02  0.50000039870E+02 0.  0.
         12    1    1    2    0    0  0.11089091526E+02 -0.21099761481E+02  0.21179029390E+02  0.31886034111E+02  0.00000000000E+00 0. -1.
         11    1    3    3    0    0 -0.11487673812E+02  0.11575071442E+02  0.22211942222E+01  0.16458512465E+02  0.51100000000E-03 0. -1.
        -11    1    3    3    0    0 -0.12988559037E+02 -0.63948737675E+01 -0.57996965733E+01  0.15595946812E+02  0.51100000000E-03 0.  1.
        -12    1    3    3    0    0  0.13387141323E+02  0.15919563806E+02 -0.17600527039E+02  0.27247506613E+02  0.00000000000E+00 0.  1.
</event>
<event>
 7    1  0.1204848E-011  0.5930196E+02  0.7816164E-02  0.1266605E+00
        -11   -1    0    0    0    0  0.00000000000E+00  0.00000000000E+00  0.45593999997E+02  0.45594000000E+02  0.51100000000E-03 0. -1.
         11   -1    0    0    0    0 -0.00000000000E+00 -0.00000000000E+00 -0.45593999997E+02  0.45594000000E+02  0.51100000000E-03 0.  1.
    9900012    2    1    2    0    0  0.18622633171E+01  0.23718666284E+01 -0.31743118749E+02  0.59301962869E+02  0.50000034363E+02 0.  0.
         12    1    1    2    0    0 -0.18622633171E+01 -0.23718666284E+01  0.31743118749E+02  0.31886037131E+02  0.00000000000E+00 0. -1.
         11    1    3    3    0    0  0.46037110154E+01  0.12329280642E+02 -0.41709793997E+00  0.13167356880E+02  0.51100000000E-03 0. -1.
        -11    1    3    3    0    0 -0.83873141275E+01  0.99111107358E+01 -0.14751919251E+02  0.19651877165E+02  0.51100000000E-03 0.  1.
        -12    1    3    3    0    0  0.56458664292E+01 -0.19868524749E+02 -0.16574101559E+02  0.26482728823E+02  0.00000000000E+00 0.  1.
</event>
<event>
 7    1  0.1204848E-011  0.5930195E+02  0.7816164E-02  0.1266605E+00
        -11   -1    0    0    0    0  0.00000000000E+00  0.00000000000E+00  0.45593999997E+02  0.45594000000E+02  0.51100000000E-03 0.  1.
         11   -1    0    0    0    0 -0.00000000000E+00 -0.00000000000E+00 -0.45593999997E+02  0.45594000000E+02  0.51100000000E-03 0. -1.
    9900012    2    1    2    0    0  0.31461280261E+02 -0.49530352142E+00  0.51636141409E+01  0.59301946745E+02  0.50000004955E+02 0.  0.
         12    1    1    2    0    0 -0.31461280261E+02  0.49530352142E+00 -0.51636141409E+01  0.31886053255E+02  0.00000000000E+00 0. -1.
         11    1    3    3    0    0  0.59436833588E+01  0.37036107249E+01 -0.82895613738E+01  0.10851770929E+02  0.51100000000E-03 0. -1.
        -11    1    3    3    0    0  0.10343168378E+02  0.16436084915E+02  0.11929280154E+02  0.22791089151E+02  0.51100000000E-03 0.  1.
         12    1    3    3    0    0  0.15174428523E+02 -0.20634999161E+02  0.15238953608E+01  0.25659086665E+02  0.00000000000E+00 0. -1.
</event>
<event>
 7    1  0.1282014E-011  0.5930195E+02  0.7816164E-02  0.1266605E+00
        -11   -1    0    0    0    0  0.00000000000E+00  0.00000000000E+00  0.45593999997E+02  0.45594000000E+02  0.51100000000E-03 0. -1.
         11   -1    0    0    0    0 -0.00000000000E+00 -0.00000000000E+00 -0.45593999997E+02  0.45594000000E+02  0.51100000000E-03 0.  1.
    9900012    2    1    2    0    0  0.17752301927E+02 -0.65747681677E+01 -0.25658306346E+02  0.59301945294E+02  0.50000002310E+02 0.  0.
         12    1    1    2    0    0 -0.17752301927E+02  0.65747681677E+01  0.25658306346E+02  0.31886054706E+02  0.00000000000E+00 0. -1.
         11    1    3    3    0    0  0.59456613142E+01 -0.29500092721E+01  0.73939143640E+01  0.99359656326E+01  0.51100000000E-03 0. -1.
        -11    1    3    3    0    0  0.11593312257E+02 -0.95697119478E+01  0.74306227235E+00  0.15051126790E+02  0.51100000000E-03 0.  1.
        -12    1    3    3    0    0  0.21332835556E+00  0.59449530522E+01 -0.33795282982E+02  0.34314852872E+02  0.00000000000E+00 0.  1.
</event>
<event>
 7    1  0.1204848E-011  0.5930195E+02  0.7816164E-02  0.1266605E+00
        -11   -1    0    0    0    0  0.00000000000E+00  0.00000000000E+00  0.45593999997E+02  0.45594000000E+02  0.51100000000E-03 0. -1.
         11   -1    0    0    0    0 -0.00000000000E+00 -0.00000000000E+00 -0.45593999997E+02  0.45594000000E+02  0.51100000000E-03 0.  1.
    9900012    2    1    2    0    0  0.26077316810E+02  0.85250403171E+01  0.16248620773E+02  0.59301945973E+02  0.50000003547E+02 0.  0.
         12    1    1    2    0    0 -0.26077316810E+02 -0.85250403171E+01 -0.16248620773E+02  0.31886054027E+02  0.00000000000E+00 0. -1.
         11    1    3    3    0    0 -0.82439991838E+01 -0.64946626390E+01 -0.80935975292E+01  0.13253319832E+02  0.51100000000E-03 0. -1.
        -11    1    3    3    0    0 -0.47377464687E+00  0.42297106026E+00 -0.55385032990E+00  0.84268462836E+00  0.51100000000E-03 0.  1.
        -12    1    3    3    0    0  0.34795090641E+02  0.14596731896E+02  0.24896068632E+02  0.45205941513E+02  0.00000000000E+00 0.  1.
</event>
<event>
 7    1  0.1204848E-011  0.5930197E+02  0.7816164E-02  0.1266605E+00
        -11   -1    0    0    0    0  0.00000000000E+00  0.00000000000E+00  0.45593999997E+02  0.45594000000E+02  0.51100000000E-03 0.  1.
         11   -1    0    0    0    0 -0.00000000000E+00 -0.00000000000E+00 -0.45593999997E+02  0.45594000000E+02  0.51100000000E-03 0. -1.
    9900012    2    1    2    0    0 -0.15577010350E+02  0.25330998921E+02  0.11507226452E+02  0.59301968287E+02  0.50000044244E+02 0.  0.
         12    1    1    2    0    0  0.15577010350E+02 -0.25330998921E+02 -0.11507226452E+02  0.31886031713E+02  0.00000000000E+00 0. -1.
         11    1    3    3    0    0  0.80126671622E+01  0.71208148348E+01 -0.13136190677E+01  0.10799742325E+02  0.51100000000E-03 0. -1.
        -11    1    3    3    0    0  0.21373917565E+01  0.92731526495E+01  0.18387421795E+02  0.20704035455E+02  0.51100000000E-03 0.  1.
         12    1    3    3    0    0 -0.25727069269E+02  0.89370314362E+01 -0.55665762756E+01  0.27798190508E+02  0.00000000000E+00 0. -1.
</event>
<event>
 7    1  0.1204848E-011  0.5930197E+02  0.7816164E-02  0.1266605E+00
        -11   -1    0    0    0    0  0.00000000000E+00  0.00000000000E+00  0.45593999997E+02  0.45594000000E+02  0.51100000000E-03 0. -1.
         11   -1    0    0    0    0 -0.00000000000E+00 -0.00000000000E+00 -0.45593999997E+02  0.45594000000E+02  0.51100000000E-03 0.  1.
    9900012    2    1    2    0    0  0.25350824478E+02 -0.13522821852E+02 -0.13827065729E+02  0.59301972351E+02  0.50000051655E+02 0.  0.
         12    1    1    2    0    0 -0.25350824478E+02  0.13522821852E+02  0.13827065729E+02  0.31886027649E+02  0.00000000000E+00 0. -1.
         11    1    3    3    0    0  0.21080081115E+02  0.39166675443E+01  0.15112224430E+01  0.21494043314E+02  0.51100000000E-03 0. -1.
        -11    1    3    3    0    0  0.11400480869E+02  0.31869387756E+01 -0.96033280817E+01  0.15243078866E+02  0.51100000000E-03 0.  1.
         12    1    3    3    0    0 -0.71297375054E+01 -0.20626428172E+02 -0.57349600899E+01  0.22564850171E+02  0.00000000000E+00 0. -1.
</event>
<event>
 7    1  0.1204848E-011  0.5930188E+02  0.7816164E-02  0.1266605E+00
        -11   -1    0    0    0    0  0.00000000000E+00  0.00000000000E+00  0.45593999997E+02  0.45594000000E+02  0.51100000000E-03 0.  1.
         11   -1    0    0    0    0 -0.00000000000E+00 -0.00000000000E+00 -0.45593999997E+02  0.45594000000E+02  0.51100000000E-03 0. -1.
    9900012    2    1    2    0    0 -0.31360585177E+02  0.55653283346E+01 -0.15051163704E+01  0.59301881431E+02  0.49999885839E+02 0.  0.
         12    1    1    2    0    0  0.31360585177E+02 -0.55653283346E+01  0.15051163704E+01  0.31886118569E+02  0.00000000000E+00 0. -1.
         11    1    3    3    0    0 -0.13674968494E+01 -0.49937619222E+01 -0.25551527534E+01  0.57737779333E+01  0.51100000000E-03 0. -1.
        -11    1    3    3    0    0  0.55692092222E+01  0.11635022209E+02 -0.99466860976E+01  0.16288842739E+02  0.51100000000E-03 0.  1.
        -12    1    3    3    0    0 -0.35562297550E+02 -0.10759319527E+01  0.10996722481E+02  0.37239260759E+02  0.00000000000E+00 0.  1.
</event>
<event>
 7    1  0.1204848E-011  0.5930190E+02  0.7816164E-02  0.1266605E+00
        -11   -1    0    0    0    0  0.00000000000E+00  0.00000000000E+00  0.45593999997E+02  0.45594000000E+02  0.51100000000E-03 0. -1.
         11   -1    0    0    0    0 -0.00000000000E+00 -0.00000000000E+00 -0.45593999997E+02  0.45594000000E+02  0.51100000000E-03 0.  1.
    9900012    2    1    2    0    0 -0.99968291250E+01  0.27238137377E+02 -0.13223860386E+02  0.59301902656E+02  0.49999924548E+02 0.  0.
         12    1    1    2    0    0  0.99968291250E+01 -0.27238137377E+02  0.13223860386E+02  0.31886097344E+02  0.00000000000E+00 0. -1.
         11    1    3    3    0    0  0.77213612311E+01 -0.56028740006E+01  0.63245022825E+01  0.11446001298E+02  0.51100000000E-03 0. -1.
        -11    1    3    3    0    0  0.39965595444E+01  0.34006434280E+00  0.29118869283E+00  0.40215572936E+01  0.51100000000E-03 0.  1.
        -12    1    3    3    0    0 -0.21714749901E+02  0.32500947035E+02 -0.19839551361E+02  0.43834344065E+02  0.00000000000E+00 0.  1.
</event>
<event>
 7    1  0.1204848E-011  0.5930218E+02  0.7816164E-02  0.1266604E+00
        -11   -1    0    0    0    0  0.00000000000E+00  0.00000000000E+00  0.45593999997E+02  0.45594000000E+02  0.51100000000E-03 0.  1.
         11   -1    0    0    0    0 -0.00000000000E+00 -0.00000000000E+00 -0.45593999997E+02  0.45594000000E+02  0.51100000000E-03 0. -1.
    9900012    2    1    2    0    0 -0.23079267861E+02 -0.12652223184E+02  0.17999279336E+02  0.59302181630E+02  0.50000433328E+02 0.  0.
         12    1    1    2    0    0  0.23079267861E+02  0.12652223184E+02 -0.17999279336E+02  0.31885818370E+02  0.00000000000E+00 0. -1.
         11    1    3    3    0    0 -0.15793019796E+02 -0.25897280024E+02  0.14942816140E+02  0.33813848367E+02  0.51100000000E-03 0. -1.
        -11    1    3    3    0    0 -0.74637002123E+01 -0.97351209607E-01  0.82898427453E+01  0.11155168807E+02  0.51100000000E-03 0.  1.
         12    1    3    3    0    0  0.17745214777E+00  0.13342408049E+02 -0.52333795491E+01  0.14333164456E+02  0.00000000000E+00 0. -1.
</event>
<event>
 7    1  0.1204848E-011  0.5930190E+02  0.7816164E-02  0.1266605E+00
        -11   -1    0    0    0    0  0.00000000000E+00  0.00000000000E+00  0.45593999997E+02  0.45594000000E+02  0.51100000000E-03 0. -1.
         11   -1    0    0    0    0 -0.00000000000E+00 -0.00000000000E+00 -0.45593999997E+02  0.45594000000E+02  0.51100000000E-03 0.  1.
    9900012    2    1    2    0    0 -0.26757926487E+02  0.15224993666E+02 -0.83028003519E+01  0.59301897139E+02  0.49999914485E+02 0.  0.
         12    1    1    2    0    0  0.26757926487E+02 -0.15224993666E+02  0.83028003519E+01  0.31886102861E+02  0.00000000000E+00 0. -1.
         11    1    3    3    0    0 -0.12827838288E+02  0.73384407009E+01  0.14861494184E+02  0.20958772786E+02  0.51100000000E-03 0. -1.
        -11    1    3    3    0    0 -0.18746387053E+02 -0.19711130751E+01 -0.10461179708E+02  0.21558028561E+02  0.51100000000E-03 0.  1.
         12    1    3    3    0    0  0.48162988540E+01  0.98576660400E+01 -0.12703114828E+02  0.16785095792E+02  0.00000000000E+00 0. -1.
</event>
<event>
 7    1  0.1204848E-011  0.5930194E+02  0.7816164E-02  0.1266605E+00
        -11   -1    0    0    0    0  0.00000000000E+00  0.00000000000E+00  0.45593999997E+02  0.45594000000E+02  0.51100000000E-03 0.  1.
         11   -1    0    0    0    0 -0.00000000000E+00 -0.00000000000E+00 -0.45593999997E+02  0.45594000000E+02  0.51100000000E-03 0. -1.
    9900012    2    1    2    0    0 -0.15923798349E+02  0.24836474849E+02  0.12095566540E+02  0.59301944009E+02  0.49999999965E+02 0.  0.
         12    1    1    2    0    0  0.15923798349E+02 -0.24836474849E+02 -0.12095566540E+02  0.31886055991E+02  0.00000000000E+00 0. -1.
         11    1    3    3    0    0 -0.23596701377E+02  0.18810922783E+02 -0.84270007842E+01  0.31331605039E+02  0.51100000000E-03 0. -1.
        -11    1    3    3    0    0 -0.22777614205E+01  0.71156898717E+01  0.35642523752E+01  0.82779909817E+01  0.51100000000E-03 0.  1.
        -12    1    3    3    0    0  0.99506644481E+01 -0.10901378062E+01  0.16958314949E+02  0.19692347988E+02  0.00000000000E+00 0.  1.
</event>
<event>
 7    1  0.1204848E-011  0.5930198E+02  0.7816164E-02  0.1266605E+00
        -11   -1    0    0    0    0  0.00000000000E+00  0.00000000000E+00  0.45593999997E+02  0.45594000000E+02  0.51100000000E-03 0.  1.
         11   -1    0    0    0    0 -0.00000000000E+00 -0.00000000000E+00 -0.45593999997E+02  0.45594000000E+02  0.51100000000E-03 0. -1.
    9900012    2    1    2    0    0 -0.26506158802E+02  0.17699899436E+02 -0.92486296018E+00  0.59301980086E+02  0.50000065761E+02 0.  0.
         12    1    1    2    0    0  0.26506158802E+02 -0.17699899436E+02  0.92486296018E+00  0.31886019914E+02  0.00000000000E+00 0. -1.
         11    1    3    3    0    0 -0.20792200284E+02  0.13115565744E+01 -0.16169034571E+02  0.26371830663E+02  0.51100000000E-03 0. -1.
        -11    1    3    3    0    0 -0.46180460274E+01 -0.25742750232E+01 -0.34230527215E+01  0.62984546677E+01  0.51100000000E-03 0.  1.
        -12    1    3    3    0    0 -0.10959124900E+01  0.18962617885E+02  0.18667224332E+02  0.26631694755E+02  0.00000000000E+00 0.  1.
</event>
<event>
 7    1  0.1204848E-011  0.5930190E+02  0.7816164E-02  0.1266605E+00
        -11   -1    0    0    0    0  0.00000000000E+00  0.00000000000E+00  0.45593999997E+02  0.45594000000E+02  0.51100000000E-03 0.  1.
         11   -1    0    0    0    0 -0.00000000000E+00 -0.00000000000E+00 -0.45593999997E+02  0.45594000000E+02  0.51100000000E-03 0. -1.
    9900012    2    1    2    0    0 -0.83194520645E+01 -0.22060617417E+02  0.21467171104E+02  0.59301897092E+02  0.49999914400E+02 0.  0.
         12    1    1    2    0    0  0.83194520645E+01  0.22060617417E+02 -0.21467171104E+02  0.31886102908E+02  0.00000000000E+00 0. -1.
         11    1    3    3    0    0  0.44730488663E+01  0.52620083841E+01  0.17371337098E+02  0.18693855975E+02  0.51100000000E-03 0. -1.
        -11    1    3    3    0    0 -0.34587496280E+01 -0.67748581030E+01  0.14022690452E+02  0.15952977749E+02  0.51100000000E-03 0.  1.
         12    1    3    3    0    0 -0.93337513028E+01 -0.20547767698E+02 -0.99268564459E+01  0.24655063367E+02  0.00000000000E+00 0. -1.
</event>
<event>
 7    1  0.1204848E-011  0.5930194E+02  0.7816164E-02  0.1266605E+00
        -11   -1    0    0    0    0  0.00000000000E+00  0.00000000000E+00  0.45593999997E+02  0.45594000000E+02  0.51100000000E-03 0. -1.
         11   -1    0    0    0    0 -0.00000000000E+00 -0.00000000000E+00 -0.45593999997E+02  0.45594000000E+02  0.51100000000E-03 0.  1.
    9900012    2    1    2    0    0 -0.25763037497E+02  0.13555356752E+02 -0.13009179969E+02  0.59301944094E+02  0.50000000122E+02 0.  0.
         12    1    1    2    0    0  0.25763037497E+02 -0.13555356752E+02  0.13009179969E+02  0.31886055906E+02  0.00000000000E+00 0. -1.
         11    1    3    3    0    0 -0.52987550825E+01  0.16502679799E+02  0.10896218502E+02  0.20472977895E+02  0.51100000000E-03 0. -1.
        -11    1    3    3    0    0 -0.15717290003E+01 -0.61343005792E+01  0.19704988121E+01  0.66319560822E+01  0.51100000000E-03 0.  1.
        -12    1    3    3    0    0 -0.18892553414E+02  0.31869775323E+01 -0.25875897283E+02  0.32197010118E+02  0.00000000000E+00 0.  1.
</event>
<event>
 7    1  0.1204848E-011  0.5930192E+02  0.7816164E-02  0.1266605E+00
        -11   -1    0    0    0    0  0.00000000000E+00  0.00000000000E+00  0.45593999997E+02  0.45594000000E+02  0.51100000000E-03 0.  1.
         11   -1    0    0    0    0 -0.00000000000E+00 -0.00000000000E+00 -0.45593999997E+02  0.45594000000E+02  0.51100000000E-03 0. -1.
    9900012    2    1    2    0    0  0.82871997104E+01  0.18701258233E+02  0.24460317024E+02  0.59301923925E+02  0.49999963337E+02 0.  0.
         12    1    1    2    0    0 -0.82871997104E+01 -0.18701258233E+02 -0.24460317024E+02  0.31886076075E+02  0.00000000000E+00 0. -1.
         11    1    3    3    0    0  0.62659320525E+01 -0.10253003744E+02  0.16886585382E+02  0.20725413298E+02  0.51100000000E-03 0. -1.
        -11    1    3    3    0    0  0.10585831313E+02  0.52827105735E+01  0.62215975283E+01  0.13366941747E+02  0.51100000000E-03 0.  1.
        -12    1    3    3    0    0 -0.85645636552E+01  0.23671551404E+02  0.13521341142E+01  0.25209568880E+02  0.00000000000E+00 0.  1.
</event>
<event>
 7    1  0.1204848E-011  0.5930198E+02  0.7816164E-02  0.1266605E+00
        -11   -1    0    0    0    0  0.00000000000E+00  0.00000000000E+00  0.45593999997E+02  0.45594000000E+02  0.51100000000E-03 0.  1.
         11   -1    0    0    0    0 -0.00000000000E+00 -0.00000000000E+00 -0.45593999997E+02  0.45594000000E+02  0.51100000000E-03 0. -1.
    9900012    2    1    2    0    0 -0.75294317003E+01 -0.82900404843E+01  0.29854663729E+02  0.59301983326E+02  0.50000071670E+02 0.  0.
         12    1    1    2    0    0  0.75294317003E+01  0.82900404843E+01 -0.29854663729E+02  0.31886016674E+02  0.00000000000E+00 0. -1.
         11    1    3    3    0    0  0.77857979622E+00 -0.22511137980E+01 -0.54909042306E+01  0.59852927548E+01  0.51100000000E-03 0. -1.
        -11    1    3    3    0    0  0.66480664315E+01  0.11988372052E+02  0.41828005720E+01  0.14332259858E+02  0.51100000000E-03 0.  1.
        -12    1    3    3    0    0 -0.14956077928E+02 -0.18027298738E+02  0.31162767388E+02  0.38984430713E+02  0.00000000000E+00 0.  1.
</event>
<event>
 7    1  0.1204848E-011  0.5930205E+02  0.7816164E-02  0.1266604E+00
        -11   -1    0    0    0    0  0.00000000000E+00  0.00000000000E+00  0.45593999997E+02  0.45594000000E+02  0.51100000000E-03 0. -1.
         11   -1    0    0    0    0 -0.00000000000E+00 -0.00000000000E+00 -0.45593999997E+02  0.45594000000E+02  0.51100000000E-03 0.  1.
    9900012    2    1    2    0    0 -0.27156787747E+02 -0.13500376362E+02 -0.98469590300E+01  0.59302048786E+02  0.50000191054E+02 0.  0.
         12    1    1    2    0    0  0.27156787747E+02  0.13500376362E+02  0.98469590300E+01  0.31885951214E+02  0.00000000000E+00 0. -1.
         11    1    3    3    0    0 -0.25114457927E+01 -0.58185874774E+01 -0.38967260786E+01  0.74396098415E+01  0.51100000000E-03 0.  1.
        -11    1    3    3    0    0 -0.25419950459E+02 -0.23687509261E+02 -0.81468334658E+01  0.35688133491E+02  0.51100000000E-03 0. -1.
         12    1    3    3    0    0  0.77460850394E+00  0.16005720376E+02  0.21966005144E+01  0.16174305454E+02  0.00000000000E+00 0. -1.
</event>
<event>
 7    1  0.1204848E-011  0.5930197E+02  0.7816164E-02  0.1266605E+00
        -11   -1    0    0    0    0  0.00000000000E+00  0.00000000000E+00  0.45593999997E+02  0.45594000000E+02  0.51100000000E-03 0. -1.
         11   -1    0    0    0    0 -0.00000000000E+00 -0.00000000000E+00 -0.45593999997E+02  0.45594000000E+02  0.51100000000E-03 0.  1.
    9900012    2    1    2    0    0 -0.32996808180E+01  0.19341596496E+02 -0.25134316047E+02  0.59301967139E+02  0.50000042149E+02 0.  0.
         12    1    1    2    0    0  0.32996808180E+01 -0.19341596496E+02  0.25134316047E+02  0.31886032861E+02  0.00000000000E+00 0. -1.
         11    1    3    3    0    0  0.64344815212E+01  0.10314046520E+02 -0.43071533226E+01  0.12897041446E+02  0.51100000000E-03 0. -1.
        -11    1    3    3    0    0  0.14682371364E+02 -0.16432385932E+01 -0.85065196721E+01  0.17047965836E+02  0.51100000000E-03 0.  1.
         12    1    3    3    0    0 -0.24416533704E+02  0.10670788569E+02 -0.12320643052E+02  0.29356959856E+02  0.00000000000E+00 0. -1.
</event>
<event>
 7    1  0.1204848E-011  0.5930191E+02  0.7816164E-02  0.1266605E+00
        -11   -1    0    0    0    0  0.00000000000E+00  0.00000000000E+00  0.45593999997E+02  0.45594000000E+02  0.51100000000E-03 0. -1.
         11   -1    0    0    0    0 -0.00000000000E+00 -0.00000000000E+00 -0.45593999997E+02  0.45594000000E+02  0.51100000000E-03 0.  1.
    9900012    2    1    2    0    0  0.95230376026E+01  0.21197377716E+02 -0.21833588696E+02  0.59301911143E+02  0.49999940027E+02 0.  0.
         12    1    1    2    0    0 -0.95230376026E+01 -0.21197377716E+02  0.21833588696E+02  0.31886088857E+02  0.00000000000E+00 0. -1.
         11    1    3    3    0    0 -0.52433362830E+01 -0.54598921035E+01  0.63392385507E+01  0.98736489112E+01  0.51100000000E-03 0. -1.
        -11    1    3    3    0    0  0.17727222903E+02  0.68427544395E+01 -0.69248370295E+01  0.20224517011E+02  0.51100000000E-03 0.  1.
         12    1    3    3    0    0 -0.29608490179E+01  0.19814515380E+02 -0.21247990217E+02  0.29203745221E+02  0.00000000000E+00 0. -1.
</event>
<event>
 7    1  0.1204848E-011  0.5930192E+02  0.7816164E-02  0.1266605E+00
        -11   -1    0    0    0    0  0.00000000000E+00  0.00000000000E+00  0.45593999997E+02  0.45594000000E+02  0.51100000000E-03 0.  1.
         11   -1    0    0    0    0 -0.00000000000E+00 -0.00000000000E+00 -0.45593999997E+02  0.45594000000E+02  0.51100000000E-03 0. -1.
    9900012    2    1    2    0    0 -0.37793541451E+01 -0.16263967789E+02  0.27164716359E+02  0.59301921833E+02  0.49999959523E+02 0.  0.
         12    1    1    2    0    0  0.37793541451E+01  0.16263967789E+02 -0.27164716359E+02  0.31886078167E+02  0.00000000000E+00 0. -1.
         11    1    3    3    0    0  0.30476232494E+01 -0.42913869807E+01  0.79728294499E+00  0.53235016713E+01  0.51100000000E-03 0. -1.
        -11    1    3    3    0    0  0.10388020840E+02  0.12293386435E+01  0.30189065034E+02  0.31949990584E+02  0.51100000000E-03 0.  1.
         12    1    3    3    0    0 -0.17214998234E+02 -0.13201919452E+02 -0.38216316198E+01  0.22028429578E+02  0.00000000000E+00 0. -1.
</event>
<event>
 7    1  0.1204848E-011  0.5930198E+02  0.7816164E-02  0.1266605E+00
        -11   -1    0    0    0    0  0.00000000000E+00  0.00000000000E+00  0.45593999997E+02  0.45594000000E+02  0.51100000000E-03 0. -1.
         11   -1    0    0    0    0 -0.00000000000E+00 -0.00000000000E+00 -0.45593999997E+02  0.45594000000E+02  0.51100000000E-03 0.  1.
    9900012    2    1    2    0    0 -0.13013163788E+02  0.19668553012E+02 -0.21459823340E+02  0.59301977558E+02  0.50000061152E+02 0.  0.
         12    1    1    2    0    0  0.13013163788E+02 -0.19668553012E+02  0.21459823340E+02  0.31886022442E+02  0.00000000000E+00 0. -1.
         11    1    3    3    0    0 -0.72736541625E+01 -0.68978513748E+01 -0.11052508229E+02  0.14921271289E+02  0.51100000000E-03 0. -1.
        -11    1    3    3    0    0 -0.19694461718E+02  0.15500406183E+02 -0.36270012289E+01  0.25323695473E+02  0.51100000000E-03 0.  1.
         12    1    3    3    0    0  0.13954952093E+02  0.11065998204E+02 -0.67803138818E+01  0.19057010796E+02  0.00000000000E+00 0. -1.
</event>
<event>
 7    1  0.1204848E-011  0.5930193E+02  0.7816164E-02  0.1266605E+00
        -11   -1    0    0    0    0  0.00000000000E+00  0.00000000000E+00  0.45593999997E+02  0.45594000000E+02  0.51100000000E-03 0.  1.
         11   -1    0    0    0    0 -0.00000000000E+00 -0.00000000000E+00 -0.45593999997E+02  0.45594000000E+02  0.51100000000E-03 0. -1.
    9900012    2    1    2    0    0  0.34750830150E+01  0.30228656771E+02 -0.95327493706E+01  0.59301934035E+02  0.49999981776E+02 0.  0.
         12    1    1    2    0    0 -0.34750830150E+01 -0.30228656771E+02  0.95327493706E+01  0.31886065965E+02  0.00000000000E+00 0. -1.
         11    1    3    3    0    0 -0.15109169843E+02  0.84645451072E+01  0.76982922277E+01  0.18952552353E+02  0.51100000000E-03 0. -1.
        -11    1    3    3    0    0 -0.23464108201E+00  0.62489040030E+00  0.45734448982E+01  0.46218981975E+01  0.51100000000E-03 0.  1.
         12    1    3    3    0    0  0.18818893940E+02  0.21139221264E+02 -0.21804486497E+02  0.35727483485E+02  0.00000000000E+00 0. -1.
</event>
<event>
 7    1  0.1204848E-011  0.5930198E+02  0.7816164E-02  0.1266605E+00
        -11   -1    0    0    0    0  0.00000000000E+00  0.00000000000E+00  0.45593999997E+02  0.45594000000E+02  0.51100000000E-03 0. -1.
         11   -1    0    0    0    0 -0.00000000000E+00 -0.00000000000E+00 -0.45593999997E+02  0.45594000000E+02  0.51100000000E-03 0.  1.
    9900012    2    1    2    0    0  0.14454132115E+02  0.27743776978E+02 -0.61708369239E+01  0.59301979167E+02  0.50000064085E+02 0.  0.
         12    1    1    2    0    0 -0.14454132115E+02 -0.27743776978E+02  0.61708369239E+01  0.31886020833E+02  0.00000000000E+00 0. -1.
         11    1    3    3    0    0 -0.39566151419E+01  0.16952848959E+02 -0.15580803951E+02  0.23362691267E+02  0.51100000000E-03 0. -1.
        -11    1    3    3    0    0 -0.16494657750E+01  0.22372420563E+01 -0.77219580416E+01  0.82069863908E+01  0.51100000000E-03 0.  1.
         12    1    3    3    0    0  0.20060213032E+02  0.85536859633E+01  0.17131925069E+02  0.27732301509E+02  0.00000000000E+00 0. -1.
</event>
<event>
 7    1  0.1204848E-011  0.5930200E+02  0.7816164E-02  0.1266605E+00
        -11   -1    0    0    0    0  0.00000000000E+00  0.00000000000E+00  0.45593999997E+02  0.45594000000E+02  0.51100000000E-03 0.  1.
         11   -1    0    0    0    0 -0.00000000000E+00 -0.00000000000E+00 -0.45593999997E+02  0.45594000000E+02  0.51100000000E-03 0. -1.
    9900012    2    1    2    0    0  0.47158753717E+01 -0.22776515693E+02  0.21810734977E+02  0.59301995109E+02  0.50000093160E+02 0.  0.
         12    1    1    2    0    0 -0.47158753717E+01  0.22776515693E+02 -0.21810734977E+02  0.31886004891E+02  0.00000000000E+00 0. -1.
         11    1    3    3    0    0 -0.93148205502E+01 -0.15866028309E+02  0.16575592589E+02  0.24763824546E+02  0.51100000000E-03 0. -1.
        -11    1    3    3    0    0  0.15366489186E+02 -0.17115387804E+02  0.71133532290E+01  0.24076238992E+02  0.51100000000E-03 0.  1.
        -12    1    3    3    0    0 -0.13357932642E+01  0.10204900420E+02 -0.18782108402E+01  0.10461931571E+02  0.00000000000E+00 0.  1.
</event>
<event>
 7    1  0.1204848E-011  0.5930190E+02  0.7816164E-02  0.1266605E+00
        -11   -1    0    0    0    0  0.00000000000E+00  0.00000000000E+00  0.45593999997E+02  0.45594000000E+02  0.51100000000E-03 0. -1.
         11   -1    0    0    0    0 -0.00000000000E+00 -0.00000000000E+00 -0.45593999997E+02  0.45594000000E+02  0.51100000000E-03 0.  1.
    9900012    2    1    2    0    0  0.14507820428E+02 -0.74899588860E+01  0.27388813792E+02  0.59301898661E+02  0.49999917262E+02 0.  0.
         12    1    1    2    0    0 -0.14507820428E+02  0.74899588860E+01 -0.27388813792E+02  0.31886101339E+02  0.00000000000E+00 0. -1.
         11    1    3    3    0    0 -0.31301014561E+01 -0.16311430400E+02  0.11756026746E+02  0.20348573953E+02  0.51100000000E-03 0. -1.
        -11    1    3    3    0    0  0.11703808254E+02 -0.95336168788E+01  0.17708935160E+01  0.15198850040E+02  0.51100000000E-03 0.  1.
        -12    1    3    3    0    0  0.59341136301E+01  0.18355088393E+02  0.13861893530E+02  0.23754474668E+02  0.00000000000E+00 0.  1.
</event>
<event>
 7    1  0.1204848E-011  0.5930194E+02  0.7816164E-02  0.1266605E+00
        -11   -1    0    0    0    0  0.00000000000E+00  0.00000000000E+00  0.45593999997E+02  0.45594000000E+02  0.51100000000E-03 0.  1.
         11   -1    0    0    0    0 -0.00000000000E+00 -0.00000000000E+00 -0.45593999997E+02  0.45594000000E+02  0.51100000000E-03 0. -1.
    9900012    2    1    2    0    0  0.27979027583E+02  0.31436041944E+01  0.14967046403E+02  0.59301941764E+02  0.49999995872E+02 0.  0.
         12    1    1    2    0    0 -0.27979027583E+02 -0.31436041944E+01 -0.14967046403E+02  0.31886058236E+02  0.00000000000E+00 0. -1.
         11    1    3    3    0    0  0.14761030465E+02 -0.48646981364E+01  0.14176366054E+02  0.21036222643E+02  0.51100000000E-03 0. -1.
        -11    1    3    3    0    0  0.18243655935E+02  0.49318164873E+01  0.14186802496E+02  0.23630894208E+02  0.51100000000E-03 0.  1.
         12    1    3    3    0    0 -0.50256588171E+01  0.30764858435E+01 -0.13396122147E+02  0.14634824914E+02  0.00000000000E+00 0. -1.
</event>
<event>
 7    1  0.1204848E-011  0.5930194E+02  0.7816164E-02  0.1266605E+00
        -11   -1    0    0    0    0  0.00000000000E+00  0.00000000000E+00  0.45593999997E+02  0.45594000000E+02  0.51100000000E-03 0.  1.
         11   -1    0    0    0    0 -0.00000000000E+00 -0.00000000000E+00 -0.45593999997E+02  0.45594000000E+02  0.51100000000E-03 0. -1.
    9900012    2    1    2    0    0  0.21921994790E+02 -0.22034545523E+02  0.71151615952E+01  0.59301943855E+02  0.49999999684E+02 0.  0.
         12    1    1    2    0    0 -0.21921994790E+02  0.22034545523E+02 -0.71151615952E+01  0.31886056145E+02  0.00000000000E+00 0. -1.
         11    1    3    3    0    0 -0.10453721986E+02 -0.83975393842E-01 -0.57000184092E+01  0.11907038480E+02  0.51100000000E-03 0. -1.
        -11    1    3    3    0    0  0.10295165807E+01 -0.31104873738E+01  0.10218061087E+02  0.10730508317E+02  0.51100000000E-03 0.  1.
         12    1    3    3    0    0  0.31346200196E+02 -0.18840082755E+02  0.25971189173E+01  0.36664397058E+02  0.00000000000E+00 0. -1.
</event>
<event>
 7    1  0.1204848E-011  0.5930192E+02  0.7816164E-02  0.1266605E+00
        -11   -1    0    0    0    0  0.00000000000E+00  0.00000000000E+00  0.45593999997E+02  0.45594000000E+02  0.51100000000E-03 0. -1.
         11   -1    0    0    0    0 -0.00000000000E+00 -0.00000000000E+00 -0.45593999997E+02  0.45594000000E+02  0.51100000000E-03 0.  1.
    9900012    2    1    2    0    0 -0.28183058791E+02  0.13333159991E+02 -0.66831281895E+01  0.59301919016E+02  0.49999954384E+02 0.  0.
         12    1    1    2    0    0  0.28183058791E+02 -0.13333159991E+02  0.66831281895E+01  0.31886080984E+02  0.00000000000E+00 0. -1.
         11    1    3    3    0    0 -0.20849358539E+02  0.45289216297E+00  0.17165897585E+02  0.27010533185E+02  0.51100000000E-03 0. -1.
        -11    1    3    3    0    0 -0.19037944363E+01 -0.33855727960E+01 -0.15999287389E+01  0.42007509619E+01  0.51100000000E-03 0.  1.
        -12    1    3    3    0    0 -0.54299058155E+01  0.16265840624E+02 -0.22249097036E+02  0.28090634868E+02  0.00000000000E+00 0.  1.
</event>
<event>
 7    1  0.1204848E-011  0.5930194E+02  0.7816164E-02  0.1266605E+00
        -11   -1    0    0    0    0  0.00000000000E+00  0.00000000000E+00  0.45593999997E+02  0.45594000000E+02  0.51100000000E-03 0.  1.
         11   -1    0    0    0    0 -0.00000000000E+00 -0.00000000000E+00 -0.45593999997E+02  0.45594000000E+02  0.51100000000E-03 0. -1.
    9900012    2    1    2    0    0  0.17743437678E+01  0.22102575352E+02  0.22913937685E+02  0.59301942337E+02  0.49999996917E+02 0.  0.
         12    1    1    2    0    0 -0.17743437678E+01 -0.22102575352E+02 -0.22913937685E+02  0.31886057663E+02  0.00000000000E+00 0. -1.
         11    1    3    3    0    0 -0.47547394662E+01  0.83653317923E+01  0.17269960150E+01  0.97759316121E+01  0.51100000000E-03 0. -1.
        -11    1    3    3    0    0 -0.14181658579E+02  0.16409611793E+02  0.18431584685E+02  0.28462573909E+02  0.51100000000E-03 0.  1.
        -12    1    3    3    0    0  0.20710741813E+02 -0.26723682332E+01  0.27553569857E+01  0.21063436817E+02  0.00000000000E+00 0.  1.
</event>
<event>
 7    1  0.1204848E-011  0.5930193E+02  0.7816164E-02  0.1266605E+00
        -11   -1    0    0    0    0  0.00000000000E+00  0.00000000000E+00  0.45593999997E+02  0.45594000000E+02  0.51100000000E-03 0.  1.
         11   -1    0    0    0    0 -0.00000000000E+00 -0.00000000000E+00 -0.45593999997E+02  0.45594000000E+02  0.51100000000E-03 0. -1.
    9900012    2    1    2    0    0  0.17407880916E+02  0.43322767287E+01  0.26361305459E+02  0.59301931489E+02  0.49999977131E+02 0.  0.
         12    1    1    2    0    0 -0.17407880916E+02 -0.43322767287E+01 -0.26361305459E+02  0.31886068511E+02  0.00000000000E+00 0. -1.
         11    1    3    3    0    0  0.17573152472E+02  0.19037963015E+02  0.49331360294E+01  0.26374145577E+02  0.51100000000E-03 0. -1.
        -11    1    3    3    0    0  0.80520294429E+01 -0.75967790442E+00  0.11072531068E+02  0.13711791757E+02  0.51100000000E-03 0.  1.
         12    1    3    3    0    0 -0.82173009985E+01 -0.13946008382E+02  0.10355638361E+02  0.19215994155E+02  0.00000000000E+00 0. -1.
</event>
<event>
 7    1  0.1204848E-011  0.5930197E+02  0.7816164E-02  0.1266605E+00
        -11   -1    0    0    0    0  0.00000000000E+00  0.00000000000E+00  0.45593999997E+02  0.45594000000E+02  0.51100000000E-03 0. -1.
         11   -1    0    0    0    0 -0.00000000000E+00 -0.00000000000E+00 -0.45593999997E+02  0.45594000000E+02  0.51100000000E-03 0.  1.
    9900012    2    1    2    0    0  0.56741818349E+01  0.19451350745E+02  0.24620463715E+02  0.59301974552E+02  0.50000055670E+02 0.  0.
         12    1    1    2    0    0 -0.56741818349E+01 -0.19451350745E+02 -0.24620463715E+02  0.31886025448E+02  0.00000000000E+00 0. -1.
         11    1    3    3    0    0 -0.10918998284E+02  0.13823254748E+02  0.13038837276E+02  0.21916162372E+02  0.51100000000E-03 0. -1.
        -11    1    3    3    0    0 -0.33563496504E+01  0.93346242300E+01 -0.50670398954E+01  0.11138904168E+02  0.51100000000E-03 0.  1.
         12    1    3    3    0    0  0.19949529769E+02 -0.37065282326E+01  0.16648666334E+02  0.26246908013E+02  0.00000000000E+00 0. -1.
</event>
<event>
 7    1  0.1204848E-011  0.5930197E+02  0.7816164E-02  0.1266605E+00
        -11   -1    0    0    0    0  0.00000000000E+00  0.00000000000E+00  0.45593999997E+02  0.45594000000E+02  0.51100000000E-03 0.  1.
         11   -1    0    0    0    0 -0.00000000000E+00 -0.00000000000E+00 -0.45593999997E+02  0.45594000000E+02  0.51100000000E-03 0. -1.
    9900012    2    1    2    0    0 -0.16176438834E+02 -0.27010105733E+02 -0.50493788679E+01  0.59301965251E+02  0.50000038706E+02 0.  0.
         12    1    1    2    0    0  0.16176438834E+02  0.27010105733E+02  0.50493788679E+01  0.31886034749E+02  0.00000000000E+00 0. -1.
         11    1    3    3    0    0 -0.69160378068E+00 -0.20543645803E+02  0.13133327081E+02  0.24392703400E+02  0.51100000000E-03 0. -1.
        -11    1    3    3    0    0 -0.35069597782E+01 -0.81409538521E+00  0.61954530077E+01  0.71655534618E+01  0.51100000000E-03 0.  1.
         12    1    3    3    0    0 -0.11977875275E+02 -0.56523645456E+01 -0.24378158957E+02  0.27743708389E+02  0.00000000000E+00 0. -1.
</event>
<event>
 7    1  0.1204848E-011  0.5930202E+02  0.7816164E-02  0.1266604E+00
        -11   -1    0    0    0    0  0.00000000000E+00  0.00000000000E+00  0.45593999997E+02  0.45594000000E+02  0.51100000000E-03 0. -1.
         11   -1    0    0    0    0 -0.00000000000E+00 -0.00000000000E+00 -0.45593999997E+02  0.45594000000E+02  0.51100000000E-03 0.  1.
    9900012    2    1    2    0    0  0.24153483797E+02 -0.19620098977E+02 -0.69553294973E+01  0.59302020765E+02  0.50000139950E+02 0.  0.
         12    1    1    2    0    0 -0.24153483797E+02  0.19620098977E+02  0.69553294973E+01  0.31885979235E+02  0.00000000000E+00 0. -1.
         11    1    3    3    0    0  0.54643296400E+01  0.81209286429E+01  0.33904912557E+01  0.10358755314E+02  0.51100000000E-03 0. -1.
        -11    1    3    3    0    0  0.24660026368E+02 -0.72694165465E+01 -0.10086771608E+02  0.27617101207E+02  0.51100000000E-03 0.  1.
         12    1    3    3    0    0 -0.59708722107E+01 -0.20471611073E+02 -0.25904914521E+00  0.21326164243E+02  0.00000000000E+00 0. -1.
</event>
<event>
 7    1  0.1204848E-011  0.5930194E+02  0.7816164E-02  0.1266605E+00
        -11   -1    0    0    0    0  0.00000000000E+00  0.00000000000E+00  0.45593999997E+02  0.45594000000E+02  0.51100000000E-03 0. -1.
         11   -1    0    0    0    0 -0.00000000000E+00 -0.00000000000E+00 -0.45593999997E+02  0.45594000000E+02  0.51100000000E-03 0.  1.
    9900012    2    1    2    0    0 -0.29636732549E+01 -0.96964593015E+01 -0.30231051146E+02  0.59301935088E+02  0.49999983696E+02 0.  0.
         12    1    1    2    0    0  0.29636732549E+01  0.96964593015E+01  0.30231051146E+02  0.31886064912E+02  0.00000000000E+00 0. -1.
         11    1    3    3    0    0 -0.19593757887E+01 -0.47112869858E+01 -0.63534850830E-01  0.51028830559E+01  0.51100000000E-03 0. -1.
        -11    1    3    3    0    0  0.14905890156E+02 -0.15778352736E+01 -0.34282248515E+02  0.37415874826E+02  0.51100000000E-03 0.  1.
         12    1    3    3    0    0 -0.15910187622E+02 -0.34073370421E+01  0.41147322198E+01  0.16783177206E+02  0.00000000000E+00 0. -1.
</event>
<event>
 7    1  0.1204848E-011  0.5930193E+02  0.7816164E-02  0.1266605E+00
        -11   -1    0    0    0    0  0.00000000000E+00  0.00000000000E+00  0.45593999997E+02  0.45594000000E+02  0.51100000000E-03 0.  1.
         11   -1    0    0    0    0 -0.00000000000E+00 -0.00000000000E+00 -0.45593999997E+02  0.45594000000E+02  0.51100000000E-03 0. -1.
    9900012    2    1    2    0    0  0.25026515227E+02 -0.16368448935E+02 -0.11066569874E+02  0.59301928531E+02  0.49999971738E+02 0.  0.
         12    1    1    2    0    0 -0.25026515227E+02  0.16368448935E+02  0.11066569874E+02  0.31886071469E+02  0.00000000000E+00 0. -1.
         11    1    3    3    0    0  0.13543469480E+02  0.16244902506E+01  0.17715878357E+02  0.22358821086E+02  0.51100000000E-03 0.  1.
        -11    1    3    3    0    0  0.42137802696E+01 -0.10398912132E+01 -0.83879690571E+01  0.94443286188E+01  0.51100000000E-03 0. -1.
        -12    1    3    3    0    0  0.72692654773E+01 -0.16953047972E+02 -0.20394479174E+02  0.27498778826E+02  0.00000000000E+00 0.  1.
</event>
<event>
 7    1  0.1204848E-011  0.5930204E+02  0.7816164E-02  0.1266604E+00
        -11   -1    0    0    0    0  0.00000000000E+00  0.00000000000E+00  0.45593999997E+02  0.45594000000E+02  0.51100000000E-03 0.  1.
         11   -1    0    0    0    0 -0.00000000000E+00 -0.00000000000E+00 -0.45593999997E+02  0.45594000000E+02  0.51100000000E-03 0. -1.
    9900012    2    1    2    0    0  0.79856674096E+01 -0.18619639473E+02  0.24622201362E+02  0.59302036662E+02  0.50000168942E+02 0.  0.
         12    1    1    2    0    0 -0.79856674096E+01  0.18619639473E+02 -0.24622201362E+02  0.31885963338E+02  0.00000000000E+00 0. -1.
         11    1    3    3    0    0  0.51974034305E+01  0.88169396258E+01  0.11075945138E+02  0.15080715757E+02  0.51100000000E-03 0. -1.
        -11    1    3    3    0    0 -0.11931996525E+02 -0.10712345135E+02  0.14915248335E+02  0.21899577908E+02  0.51100000000E-03 0.  1.
        -12    1    3    3    0    0  0.14720260505E+02 -0.16724233964E+02 -0.13689921120E+01  0.22321742997E+02  0.00000000000E+00 0.  1.
</event>
<event>
 7    1  0.1204848E-011  0.5930195E+02  0.7816164E-02  0.1266605E+00
        -11   -1    0    0    0    0  0.00000000000E+00  0.00000000000E+00  0.45593999997E+02  0.45594000000E+02  0.51100000000E-03 0.  1.
         11   -1    0    0    0    0 -0.00000000000E+00 -0.00000000000E+00 -0.45593999997E+02  0.45594000000E+02  0.51100000000E-03 0. -1.
    9900012    2    1    2    0    0 -0.18728527835E+02  0.24023568931E+02  0.94249859724E+01  0.59301953214E+02  0.50000016754E+02 0.  0.
         12    1    1    2    0    0  0.18728527835E+02 -0.24023568931E+02 -0.94249859724E+01  0.31886046786E+02  0.00000000000E+00 0. -1.
         11    1    3    3    0    0  0.93480059889E+01  0.87456710968E+01 -0.43191051235E+01  0.13510242345E+02  0.51100000000E-03 0. -1.
        -11    1    3    3    0    0  0.46796292851E+01  0.90193112599E+01  0.49519522679E+01  0.11303483418E+02  0.51100000000E-03 0.  1.
        -12    1    3    3    0    0 -0.32756163109E+02  0.62585865740E+01  0.87921388280E+01  0.34488227451E+02  0.00000000000E+00 0.  1.
</event>
<event>
 7    1  0.1204848E-011  0.5930196E+02  0.7816164E-02  0.1266605E+00
        -11   -1    0    0    0    0  0.00000000000E+00  0.00000000000E+00  0.45593999997E+02  0.45594000000E+02  0.51100000000E-03 0. -1.
         11   -1    0    0    0    0 -0.00000000000E+00 -0.00000000000E+00 -0.45593999997E+02  0.45594000000E+02  0.51100000000E-03 0.  1.
    9900012    2    1    2    0    0  0.62310935612E+01 -0.28043452765E+01 -0.31145287967E+02  0.59301955373E+02  0.50000020691E+02 0.  0.
         12    1    1    2    0    0 -0.62310935612E+01  0.28043452765E+01  0.31145287967E+02  0.31886044627E+02  0.00000000000E+00 0. -1.
         11    1    3    3    0    0  0.87318596833E+01 -0.15731341753E+01 -0.34106844081E+02  0.35241976932E+02  0.51100000000E-03 0. -1.
        -11    1    3    3    0    0 -0.11337385287E+01  0.10121068607E+02 -0.36894067147E+01  0.10832041127E+02  0.51100000000E-03 0.  1.
         12    1    3    3    0    0 -0.13670275934E+01 -0.11352279709E+02  0.66509628286E+01  0.13227937314E+02  0.00000000000E+00 0. -1.
</event>
<event>
 7    1  0.1204848E-011  0.5930195E+02  0.7816164E-02  0.1266605E+00
        -11   -1    0    0    0    0  0.00000000000E+00  0.00000000000E+00  0.45593999997E+02  0.45594000000E+02  0.51100000000E-03 0.  1.
         11   -1    0    0    0    0 -0.00000000000E+00 -0.00000000000E+00 -0.45593999997E+02  0.45594000000E+02  0.51100000000E-03 0. -1.
    9900012    2    1    2    0    0 -0.21691950528E+02 -0.37195404394E+01  0.23072595839E+02  0.59301946975E+02  0.50000005375E+02 0.  0.
         12    1    1    2    0    0  0.21691950528E+02  0.37195404394E+01 -0.23072595839E+02  0.31886053025E+02  0.00000000000E+00 0. -1.
         11    1    3    3    0    0  0.51284570786E+01 -0.96432654449E+01 -0.26324132713E+01  0.11234911675E+02  0.51100000000E-03 0. -1.
        -11    1    3    3    0    0 -0.15887704385E+02  0.65852755403E+01 -0.28960582248E+01  0.17440532047E+02  0.51100000000E-03 0.  1.
        -12    1    3    3    0    0 -0.10932703221E+02 -0.66155053485E+00  0.28601067335E+02  0.30626503253E+02  0.00000000000E+00 0.  1.
</event>
<event>
 7    1  0.1204848E-011  0.5930195E+02  0.7816164E-02  0.1266605E+00
        -11   -1    0    0    0    0  0.00000000000E+00  0.00000000000E+00  0.45593999997E+02  0.45594000000E+02  0.51100000000E-03 0.  1.
         11   -1    0    0    0    0 -0.00000000000E+00 -0.00000000000E+00 -0.45593999997E+02  0.45594000000E+02  0.51100000000E-03 0. -1.
    9900012    2    1    2    0    0 -0.28207974250E+02  0.55458753205E+01  0.13793978803E+02  0.59301946691E+02  0.50000004858E+02 0.  0.
         12    1    1    2    0    0  0.28207974250E+02 -0.55458753205E+01 -0.13793978803E+02  0.31886053309E+02  0.00000000000E+00 0. -1.
         11    1    3    3    0    0 -0.92487267686E+01  0.14182327034E+01 -0.39679526814E+00  0.93652430608E+01  0.51100000000E-03 0. -1.
        -11    1    3    3    0    0 -0.22381106905E+02  0.37728907103E+01 -0.10499607168E+02  0.25007806812E+02  0.51100000000E-03 0.  1.
        -12    1    3    3    0    0  0.34218594235E+01  0.35475190688E+00  0.24690381239E+02  0.24928896818E+02  0.00000000000E+00 0.  1.
</event>
<event>
 7    1  0.1204848E-011  0.5930193E+02  0.7816164E-02  0.1266605E+00
        -11   -1    0    0    0    0  0.00000000000E+00  0.00000000000E+00  0.45593999997E+02  0.45594000000E+02  0.51100000000E-03 0. -1.
         11   -1    0    0    0    0 -0.00000000000E+00 -0.00000000000E+00 -0.45593999997E+02  0.45594000000E+02  0.51100000000E-03 0.  1.
    9900012    2    1    2    0    0  0.35967837820E+01 -0.13110726763E+00 -0.31682287669E+02  0.59301931025E+02  0.49999976287E+02 0.  0.
         12    1    1    2    0    0 -0.35967837820E+01  0.13110726763E+00  0.31682287669E+02  0.31886068975E+02  0.00000000000E+00 0. -1.
         11    1    3    3    0    0  0.29392602360E+01  0.14730725413E+02  0.51300176358E+01  0.15872951935E+02  0.51100000000E-03 0. -1.
        -11    1    3    3    0    0  0.76565763859E+01 -0.21441191252E+01 -0.86740611517E+01  0.11766891939E+02  0.51100000000E-03 0.  1.
        -12    1    3    3    0    0 -0.69990528399E+01 -0.12717713556E+02 -0.28138244154E+02  0.31662087151E+02  0.00000000000E+00 0.  1.
</event>
<event>
 7    1  0.1204848E-011  0.5930196E+02  0.7816164E-02  0.1266605E+00
        -11   -1    0    0    0    0  0.00000000000E+00  0.00000000000E+00  0.45593999997E+02  0.45594000000E+02  0.51100000000E-03 0. -1.
         11   -1    0    0    0    0 -0.00000000000E+00 -0.00000000000E+00 -0.45593999997E+02  0.45594000000E+02  0.51100000000E-03 0.  1.
    9900012    2    1    2    0    0 -0.16096797746E+02 -0.26915651608E+02 -0.57584881524E+01  0.59301962539E+02  0.50000033761E+02 0.  0.
         12    1    1    2    0    0  0.16096797746E+02  0.26915651608E+02  0.57584881524E+01  0.31886037461E+02  0.00000000000E+00 0. -1.
         11    1    3    3    0    0 -0.12304287067E+02  0.42352669086E+01 -0.21954794551E+01  0.13196707783E+02  0.51100000000E-03 0. -1.
        -11    1    3    3    0    0 -0.11454542021E+02 -0.25069804287E+01 -0.10403313652E+02  0.15675471890E+02  0.51100000000E-03 0.  1.
         12    1    3    3    0    0  0.76620313415E+01 -0.28643938088E+02  0.68403049543E+01  0.30429782867E+02  0.00000000000E+00 0. -1.
</event>
<event>
 7    1  0.1204848E-011  0.5930196E+02  0.7816164E-02  0.1266605E+00
        -11   -1    0    0    0    0  0.00000000000E+00  0.00000000000E+00  0.45593999997E+02  0.45594000000E+02  0.51100000000E-03 0. -1.
         11   -1    0    0    0    0 -0.00000000000E+00 -0.00000000000E+00 -0.45593999997E+02  0.45594000000E+02  0.51100000000E-03 0.  1.
    9900012    2    1    2    0    0  0.27398123870E+02  0.14570659134E+02  0.73319837844E+01  0.59301964100E+02  0.50000036607E+02 0.  0.
         12    1    1    2    0    0 -0.27398123870E+02 -0.14570659134E+02 -0.73319837844E+01  0.31886035900E+02  0.00000000000E+00 0. -1.
         11    1    3    3    0    0  0.14812597696E+02  0.14177559358E+02 -0.19001274128E+01  0.20591909195E+02  0.51100000000E-03 0. -1.
        -11    1    3    3    0    0  0.17695099383E+01 -0.12992169325E+02 -0.71632220307E+01  0.14941197386E+02  0.51100000000E-03 0.  1.
         12    1    3    3    0    0  0.10816016235E+02  0.13385269101E+02  0.16395333228E+02  0.23768857519E+02  0.00000000000E+00 0. -1.
</event>
<event>
 7    1  0.1204848E-011  0.5930195E+02  0.7816164E-02  0.1266605E+00
        -11   -1    0    0    0    0  0.00000000000E+00  0.00000000000E+00  0.45593999997E+02  0.45594000000E+02  0.51100000000E-03 0.  1.
         11   -1    0    0    0    0 -0.00000000000E+00 -0.00000000000E+00 -0.45593999997E+02  0.45594000000E+02  0.51100000000E-03 0. -1.
    9900012    2    1    2    0    0  0.56804813061E+01  0.18424897524E+02  0.25396365050E+02  0.59301951728E+02  0.50000014044E+02 0.  0.
         12    1    1    2    0    0 -0.56804813061E+01 -0.18424897524E+02 -0.25396365050E+02  0.31886048272E+02  0.00000000000E+00 0. -1.
         11    1    3    3    0    0 -0.10250904650E+02  0.77475290999E+01 -0.18945640467E+01  0.12988249554E+02  0.51100000000E-03 0. -1.
        -11    1    3    3    0    0 -0.42459291291E+01 -0.26169069444E+01 -0.42695296808E+01  0.65654398239E+01  0.51100000000E-03 0.  1.
         12    1    3    3    0    0  0.20177315085E+02  0.13294275368E+02  0.31560458778E+02  0.39748262350E+02  0.00000000000E+00 0. -1.
</event>
<event>
 7    1  0.1204848E-011  0.5930194E+02  0.7816164E-02  0.1266605E+00
        -11   -1    0    0    0    0  0.00000000000E+00  0.00000000000E+00  0.45593999997E+02  0.45594000000E+02  0.51100000000E-03 0.  1.
         11   -1    0    0    0    0 -0.00000000000E+00 -0.00000000000E+00 -0.45593999997E+02  0.45594000000E+02  0.51100000000E-03 0. -1.
    9900012    2    1    2    0    0 -0.28344210593E+02  0.35696480420E+01 -0.14162764874E+02  0.59301943954E+02  0.49999999866E+02 0.  0.
         12    1    1    2    0    0  0.28344210593E+02 -0.35696480420E+01  0.14162764874E+02  0.31886056046E+02  0.00000000000E+00 0. -1.
         11    1    3    3    0    0  0.23970136398E+01  0.14929186526E+02 -0.18709678177E+01  0.15235708239E+02  0.51100000000E-03 0. -1.
        -11    1    3    3    0    0 -0.99677713160E+01  0.87008607271E+01 -0.59109090532E+01  0.14491386700E+02  0.51100000000E-03 0.  1.
        -12    1    3    3    0    0 -0.20773452917E+02 -0.20060399211E+02 -0.63808880032E+01  0.29574849015E+02  0.00000000000E+00 0.  1.
</event>
<event>
 7    1  0.1204848E-011  0.5930195E+02  0.7816164E-02  0.1266605E+00
        -11   -1    0    0    0    0  0.00000000000E+00  0.00000000000E+00  0.45593999997E+02  0.45594000000E+02  0.51100000000E-03 0. -1.
         11   -1    0    0    0    0 -0.00000000000E+00 -0.00000000000E+00 -0.45593999997E+02  0.45594000000E+02  0.51100000000E-03 0.  1.
    9900012    2    1    2    0    0 -0.92296299439E+01  0.23123892118E+02 -0.19920332993E+02  0.59301950979E+02  0.50000012678E+02 0.  0.
         12    1    1    2    0    0  0.92296299439E+01 -0.23123892118E+02  0.19920332993E+02  0.31886049021E+02  0.00000000000E+00 0. -1.
         11    1    3    3    0    0  0.39232516989E+01  0.49106552201E+01  0.12378817818E+02  0.13883139754E+02  0.51100000000E-03 0. -1.
        -11    1    3    3    0    0  0.25346436766E+01  0.98865056797E+01 -0.23452395633E+02  0.25576987201E+02  0.51100000000E-03 0.  1.
        -12    1    3    3    0    0 -0.15687525319E+02  0.83267312185E+01 -0.88467551784E+01  0.19841824024E+02  0.00000000000E+00 0.  1.
</event>
<event>
 7    1  0.1204848E-011  0.5930191E+02  0.7816164E-02  0.1266605E+00
        -11   -1    0    0    0    0  0.00000000000E+00  0.00000000000E+00  0.45593999997E+02  0.45594000000E+02  0.51100000000E-03 0.  1.
         11   -1    0    0    0    0 -0.00000000000E+00 -0.00000000000E+00 -0.45593999997E+02  0.45594000000E+02  0.51100000000E-03 0. -1.
    9900012    2    1    2    0    0 -0.27926856891E+02  0.13017667457E+02  0.82069245945E+01  0.59301911919E+02  0.49999941441E+02 0.  0.
         12    1    1    2    0    0  0.27926856891E+02 -0.13017667457E+02 -0.82069245945E+01  0.31886088081E+02  0.00000000000E+00 0. -1.
         11    1    3    3    0    0 -0.21844696214E+02  0.30634662255E+01  0.65373744186E+01  0.23006799920E+02  0.51100000000E-03 0. -1.
        -11    1    3    3    0    0 -0.89787781435E+01  0.67877421404E+01  0.16992655173E+02  0.20382400016E+02  0.51100000000E-03 0.  1.
         12    1    3    3    0    0  0.28966174666E+01  0.31664590908E+01 -0.15323104997E+02  0.15912711984E+02  0.00000000000E+00 0. -1.
</event>
<event>
 7    1  0.1204848E-011  0.5930220E+02  0.7816164E-02  0.1266604E+00
        -11   -1    0    0    0    0  0.00000000000E+00  0.00000000000E+00  0.45593999997E+02  0.45594000000E+02  0.51100000000E-03 0.  1.
         11   -1    0    0    0    0 -0.00000000000E+00 -0.00000000000E+00 -0.45593999997E+02  0.45594000000E+02  0.51100000000E-03 0. -1.
    9900012    2    1    2    0    0  0.21150107082E+02  0.13525300061E+02  0.19658163692E+02  0.59302201107E+02  0.50000468849E+02 0.  0.
         12    1    1    2    0    0 -0.21150107082E+02 -0.13525300061E+02 -0.19658163692E+02  0.31885798893E+02  0.00000000000E+00 0. -1.
         11    1    3    3    0    0  0.20878819325E+01 -0.10431063483E+02 -0.38766917861E+01  0.11322326431E+02  0.51100000000E-03 0. -1.
        -11    1    3    3    0    0  0.18465211074E+02  0.66522634501E+00  0.11389923565E+02  0.21705688314E+02  0.51100000000E-03 0.  1.
         12    1    3    3    0    0  0.59701407491E+00  0.23291137199E+02  0.12144931913E+02  0.26274186362E+02  0.00000000000E+00 0. -1.
</event>
<event>
 7    1  0.1204848E-011  0.5930195E+02  0.7816164E-02  0.1266605E+00
        -11   -1    0    0    0    0  0.00000000000E+00  0.00000000000E+00  0.45593999997E+02  0.45594000000E+02  0.51100000000E-03 0.  1.
         11   -1    0    0    0    0 -0.00000000000E+00 -0.00000000000E+00 -0.45593999997E+02  0.45594000000E+02  0.51100000000E-03 0. -1.
    9900012    2    1    2    0    0  0.16547417183E+02  0.13730540964E+02  0.23545175233E+02  0.59301952152E+02  0.50000014817E+02 0.  0.
         12    1    1    2    0    0 -0.16547417183E+02 -0.13730540964E+02 -0.23545175233E+02  0.31886047848E+02  0.00000000000E+00 0. -1.
         11    1    3    3    0    0 -0.47401257462E+01 -0.19263248458E+01  0.18028168247E+02  0.18740180631E+02  0.51100000000E-03 0. -1.
        -11    1    3    3    0    0  0.11656380121E+01  0.26915143885E+01  0.14650506900E+02  0.14941228676E+02  0.51100000000E-03 0.  1.
         12    1    3    3    0    0  0.20121904917E+02  0.12965351422E+02 -0.91334999136E+01  0.25620542845E+02  0.00000000000E+00 0. -1.
</event>
<event>
 7    1  0.1204848E-011  0.5930194E+02  0.7816164E-02  0.1266605E+00
        -11   -1    0    0    0    0  0.00000000000E+00  0.00000000000E+00  0.45593999997E+02  0.45594000000E+02  0.51100000000E-03 0. -1.
         11   -1    0    0    0    0 -0.00000000000E+00 -0.00000000000E+00 -0.45593999997E+02  0.45594000000E+02  0.51100000000E-03 0.  1.
    9900012    2    1    2    0    0  0.13124417373E+02  0.26582304353E+02 -0.11741021034E+02  0.59301940177E+02  0.49999992978E+02 0.  0.
         12    1    1    2    0    0 -0.13124417373E+02 -0.26582304353E+02  0.11741021034E+02  0.31886059823E+02  0.00000000000E+00 0. -1.
         11    1    3    3    0    0  0.49710462459E+01  0.11781261325E+02 -0.52454715272E+01  0.13821157368E+02  0.51100000000E-03 0. -1.
        -11    1    3    3    0    0 -0.79546052721E+01  0.22145026301E+02  0.54130991576E+01  0.24144970028E+02  0.51100000000E-03 0.  1.
         12    1    3    3    0    0  0.16107976399E+02 -0.73439832735E+01 -0.11908648665E+02  0.21335812781E+02  0.00000000000E+00 0. -1.
</event>
<event>
 7    1  0.1204848E-011  0.5930194E+02  0.7816164E-02  0.1266605E+00
        -11   -1    0    0    0    0  0.00000000000E+00  0.00000000000E+00  0.45593999997E+02  0.45594000000E+02  0.51100000000E-03 0. -1.
         11   -1    0    0    0    0 -0.00000000000E+00 -0.00000000000E+00 -0.45593999997E+02  0.45594000000E+02  0.51100000000E-03 0.  1.
    9900012    2    1    2    0    0 -0.11798135353E+02  0.94131504069E+01 -0.28087674119E+02  0.59301939789E+02  0.49999992269E+02 0.  0.
         12    1    1    2    0    0  0.11798135353E+02 -0.94131504069E+01  0.28087674119E+02  0.31886060211E+02  0.00000000000E+00 0. -1.
         11    1    3    3    0    0 -0.12923373627E+02 -0.10195658112E+02 -0.13538872298E+01  0.16516598958E+02  0.51100000000E-03 0. -1.
        -11    1    3    3    0    0 -0.24897540485E+01 -0.58315157162E+01 -0.10001499037E+01  0.64191705743E+01  0.51100000000E-03 0.  1.
         12    1    3    3    0    0  0.36149923222E+01  0.25440324235E+02 -0.25733636985E+02  0.36366170257E+02  0.00000000000E+00 0. -1.
</event>
<event>
 7    1  0.1204848E-011  0.5930194E+02  0.7816164E-02  0.1266605E+00
        -11   -1    0    0    0    0  0.00000000000E+00  0.00000000000E+00  0.45593999997E+02  0.45594000000E+02  0.51100000000E-03 0.  1.
         11   -1    0    0    0    0 -0.00000000000E+00 -0.00000000000E+00 -0.45593999997E+02  0.45594000000E+02  0.51100000000E-03 0. -1.
    9900012    2    1    2    0    0  0.11840627128E+02  0.23485298253E+02  0.18026674627E+02  0.59301942186E+02  0.49999996641E+02 0.  0.
         12    1    1    2    0    0 -0.11840627128E+02 -0.23485298253E+02 -0.18026674627E+02  0.31886057814E+02  0.00000000000E+00 0. -1.
         11    1    3    3    0    0  0.14785547531E+02 -0.23568472862E+00  0.14317369712E+02  0.20582882179E+02  0.51100000000E-03 0. -1.
        -11    1    3    3    0    0  0.71834653322E+01 -0.31279961933E+01 -0.42853985310E+01  0.89303513478E+01  0.51100000000E-03 0.  1.
        -12    1    3    3    0    0 -0.10128385736E+02  0.26848979175E+02  0.79947034463E+01  0.29788708659E+02  0.00000000000E+00 0.  1.
</event>
<event>
 7    1  0.1204848E-011  0.5930191E+02  0.7816164E-02  0.1266605E+00
        -11   -1    0    0    0    0  0.00000000000E+00  0.00000000000E+00  0.45593999997E+02  0.45594000000E+02  0.51100000000E-03 0.  1.
         11   -1    0    0    0    0 -0.00000000000E+00 -0.00000000000E+00 -0.45593999997E+02  0.45594000000E+02  0.51100000000E-03 0. -1.
    9900012    2    1    2    0    0  0.18447138866E+02  0.14673994516E+02  0.21473227727E+02  0.59301912808E+02  0.49999943063E+02 0.  0.
         12    1    1    2    0    0 -0.18447138866E+02 -0.14673994516E+02 -0.21473227727E+02  0.31886087192E+02  0.00000000000E+00 0. -1.
         11    1    3    3    0    0  0.11166657155E+02  0.47763383734E+01 -0.18560798028E+01  0.12286279859E+02  0.51100000000E-03 0. -1.
        -11    1    3    3    0    0  0.20145015628E+02  0.14139093050E+01  0.24274687777E+02  0.31576593564E+02  0.51100000000E-03 0.  1.
        -12    1    3    3    0    0 -0.12864533918E+02  0.84837468378E+01 -0.94538024729E+00  0.15439039385E+02  0.00000000000E+00 0.  1.
</event>
<event>
 7    1  0.1204848E-011  0.5930196E+02  0.7816164E-02  0.1266605E+00
        -11   -1    0    0    0    0  0.00000000000E+00  0.00000000000E+00  0.45593999997E+02  0.45594000000E+02  0.51100000000E-03 0.  1.
         11   -1    0    0    0    0 -0.00000000000E+00 -0.00000000000E+00 -0.45593999997E+02  0.45594000000E+02  0.51100000000E-03 0. -1.
    9900012    2    1    2    0    0  0.92180818435E+01 -0.19916687959E+02 -0.23131620901E+02  0.59301962654E+02  0.50000033970E+02 0.  0.
         12    1    1    2    0    0 -0.92180818435E+01  0.19916687959E+02  0.23131620901E+02  0.31886037346E+02  0.00000000000E+00 0. -1.
         11    1    3    3    0    0  0.60842783180E+01 -0.32067596159E+01  0.37297668940E+01  0.78238680478E+01  0.51100000000E-03 0. -1.
        -11    1    3    3    0    0 -0.92166345084E+01 -0.55130100248E+01  0.76267971144E+01  0.13172230854E+02  0.51100000000E-03 0.  1.
         12    1    3    3    0    0  0.12350438034E+02 -0.11196918318E+02 -0.34488184909E+02  0.38305863752E+02  0.00000000000E+00 0. -1.
</event>
<event>
 7    1  0.1204848E-011  0.5930197E+02  0.7816164E-02  0.1266605E+00
        -11   -1    0    0    0    0  0.00000000000E+00  0.00000000000E+00  0.45593999997E+02  0.45594000000E+02  0.51100000000E-03 0.  1.
         11   -1    0    0    0    0 -0.00000000000E+00 -0.00000000000E+00 -0.45593999997E+02  0.45594000000E+02  0.51100000000E-03 0. -1.
    9900012    2    1    2    0    0 -0.57402541239E+01 -0.20984405653E+02  0.23311440729E+02  0.59301967527E+02  0.50000042857E+02 0.  0.
         12    1    1    2    0    0  0.57402541239E+01  0.20984405653E+02 -0.23311440729E+02  0.31886032473E+02  0.00000000000E+00 0. -1.
         11    1    3    3    0    0 -0.13819148394E+02 -0.23747341078E+02  0.24596847663E+02  0.36876957383E+02  0.51100000000E-03 0. -1.
        -11    1    3    3    0    0  0.11960613458E+01 -0.87675442304E+01  0.57900174826E+00  0.88676737570E+01  0.51100000000E-03 0.  1.
         12    1    3    3    0    0  0.68828329247E+01  0.11530479656E+02 -0.18644086823E+01  0.13557336387E+02  0.00000000000E+00 0. -1.
</event>
<event>
 7    1  0.1204848E-011  0.5930195E+02  0.7816164E-02  0.1266605E+00
        -11   -1    0    0    0    0  0.00000000000E+00  0.00000000000E+00  0.45593999997E+02  0.45594000000E+02  0.51100000000E-03 0.  1.
         11   -1    0    0    0    0 -0.00000000000E+00 -0.00000000000E+00 -0.45593999997E+02  0.45594000000E+02  0.51100000000E-03 0. -1.
    9900012    2    1    2    0    0  0.63594037826E+01 -0.85958882512E+00  0.31233627765E+02  0.59301946422E+02  0.50000004367E+02 0.  0.
         12    1    1    2    0    0 -0.63594037826E+01  0.85958882512E+00 -0.31233627765E+02  0.31886053578E+02  0.00000000000E+00 0. -1.
         11    1    3    3    0    0  0.92397161974E+01  0.27227292555E+00  0.49081853910E+00  0.92567484061E+01  0.51100000000E-03 0. -1.
        -11    1    3    3    0    0  0.17786381521E+02 -0.44538642590E+01  0.11724195239E+02  0.21763479242E+02  0.51100000000E-03 0.  1.
         12    1    3    3    0    0 -0.20666693935E+02  0.33220025083E+01  0.19018613986E+02  0.28281718774E+02  0.00000000000E+00 0. -1.
</event>
<event>
 7    1  0.1204848E-011  0.5930196E+02  0.7816164E-02  0.1266605E+00
        -11   -1    0    0    0    0  0.00000000000E+00  0.00000000000E+00  0.45593999997E+02  0.45594000000E+02  0.51100000000E-03 0.  1.
         11   -1    0    0    0    0 -0.00000000000E+00 -0.00000000000E+00 -0.45593999997E+02  0.45594000000E+02  0.51100000000E-03 0. -1.
    9900012    2    1    2    0    0 -0.29497393157E+02 -0.98431841508E+01  0.70523051124E+01  0.59301960975E+02  0.50000030908E+02 0.  0.
         12    1    1    2    0    0  0.29497393157E+02  0.98431841508E+01 -0.70523051124E+01  0.31886039025E+02  0.00000000000E+00 0. -1.
         11    1    3    3    0    0 -0.97669531945E+01  0.13326826121E+02  0.88470336548E+01  0.18742136322E+02  0.51100000000E-03 0. -1.
        -11    1    3    3    0    0 -0.16516356850E+01  0.28556462823E+01  0.69443756542E+01  0.76881057233E+01  0.51100000000E-03 0.  1.
         12    1    3    3    0    0 -0.18078804278E+02 -0.26025656554E+02 -0.87391041966E+01  0.32871718929E+02  0.00000000000E+00 0. -1.
</event>
<event>
 7    1  0.1204848E-011  0.5930196E+02  0.7816164E-02  0.1266605E+00
        -11   -1    0    0    0    0  0.00000000000E+00  0.00000000000E+00  0.45593999997E+02  0.45594000000E+02  0.51100000000E-03 0.  1.
         11   -1    0    0    0    0 -0.00000000000E+00 -0.00000000000E+00 -0.45593999997E+02  0.45594000000E+02  0.51100000000E-03 0. -1.
    9900012    2    1    2    0    0 -0.11330148301E+02 -0.17394790920E+02  0.24202661208E+02  0.59301955699E+02  0.50000021285E+02 0.  0.
         12    1    1    2    0    0  0.11330148301E+02  0.17394790920E+02 -0.24202661208E+02  0.31886044301E+02  0.00000000000E+00 0. -1.
         11    1    3    3    0    0 -0.85195846576E+01 -0.25528034205E+02  0.98751561822E+01  0.28666750130E+02  0.51100000000E-03 0. -1.
        -11    1    3    3    0    0  0.65960521734E+01 -0.65817495954E+01  0.71844947803E+01  0.11766235486E+02  0.51100000000E-03 0.  1.
        -12    1    3    3    0    0 -0.94066158163E+01  0.14714992881E+02  0.71430102452E+01  0.18868970082E+02  0.00000000000E+00 0.  1.
</event>
<event>
 7    1  0.1204848E-011  0.5930195E+02  0.7816164E-02  0.1266605E+00
        -11   -1    0    0    0    0  0.00000000000E+00  0.00000000000E+00  0.45593999997E+02  0.45594000000E+02  0.51100000000E-03 0. -1.
         11   -1    0    0    0    0 -0.00000000000E+00 -0.00000000000E+00 -0.45593999997E+02  0.45594000000E+02  0.51100000000E-03 0.  1.
    9900012    2    1    2    0    0 -0.71634413497E-01 -0.31596869446E+02 -0.42840610001E+01  0.59301945541E+02  0.50000002760E+02 0.  0.
         12    1    1    2    0    0  0.71634413497E-01  0.31596869446E+02  0.42840610001E+01  0.31886054459E+02  0.00000000000E+00 0. -1.
         11    1    3    3    0    0  0.11915977709E+02 -0.87294330328E+01  0.10053131410E+02  0.17867819600E+02  0.51100000000E-03 0. -1.
        -11    1    3    3    0    0 -0.40321947556E+01 -0.18050456846E+02  0.56917463116E+01  0.19351319418E+02  0.51100000000E-03 0.  1.
        -12    1    3    3    0    0 -0.79554173668E+01 -0.48169795679E+01 -0.20028938722E+02  0.22082806524E+02  0.00000000000E+00 0.  1.
</event>
<event>
 7    1  0.1204848E-011  0.5930197E+02  0.7816164E-02  0.1266605E+00
        -11   -1    0    0    0    0  0.00000000000E+00  0.00000000000E+00  0.45593999997E+02  0.45594000000E+02  0.51100000000E-03 0.  1.
         11   -1    0    0    0    0 -0.00000000000E+00 -0.00000000000E+00 -0.45593999997E+02  0.45594000000E+02  0.51100000000E-03 0. -1.
    9900012    2    1    2    0    0 -0.16591886784E+02  0.21109083360E+02  0.17199843210E+02  0.59301973064E+02  0.50000052955E+02 0.  0.
         12    1    1    2    0    0  0.16591886784E+02 -0.21109083360E+02 -0.17199843210E+02  0.31886026936E+02  0.00000000000E+00 0. -1.
         11    1    3    3    0    0  0.47126551106E+01  0.22412788273E+02 -0.34909822748E+00  0.22905546625E+02  0.51100000000E-03 0. -1.
        -11    1    3    3    0    0 -0.11387731980E+02  0.10549965883E+02  0.13104326774E+02  0.20315156909E+02  0.51100000000E-03 0.  1.
        -12    1    3    3    0    0 -0.99168099140E+01 -0.11853670795E+02  0.44446146629E+01  0.16081269530E+02  0.00000000000E+00 0.  1.
</event>
<event>
 7    1  0.1204848E-011  0.5930197E+02  0.7816164E-02  0.1266605E+00
        -11   -1    0    0    0    0  0.00000000000E+00  0.00000000000E+00  0.45593999997E+02  0.45594000000E+02  0.51100000000E-03 0.  1.
         11   -1    0    0    0    0 -0.00000000000E+00 -0.00000000000E+00 -0.45593999997E+02  0.45594000000E+02  0.51100000000E-03 0. -1.
    9900012    2    1    2    0    0  0.10147662080E+02 -0.61847668079E+00  0.30221867181E+02  0.59301971476E+02  0.50000050060E+02 0.  0.
         12    1    1    2    0    0 -0.10147662080E+02  0.61847668079E+00 -0.30221867181E+02  0.31886028524E+02  0.00000000000E+00 0. -1.
         11    1    3    3    0    0  0.11104351006E+02 -0.14427176583E+02 -0.19503835055E+01  0.18309943514E+02  0.51100000000E-03 0. -1.
        -11    1    3    3    0    0  0.86488201284E+01  0.32113562450E+01  0.55378300884E+01  0.10760225876E+02  0.51100000000E-03 0.  1.
        -12    1    3    3    0    0 -0.96055090541E+01  0.10597343657E+02  0.26634420598E+02  0.30231802086E+02  0.00000000000E+00 0.  1.
</event>
<event>
 7    1  0.1204848E-011  0.5930200E+02  0.7816164E-02  0.1266605E+00
        -11   -1    0    0    0    0  0.00000000000E+00  0.00000000000E+00  0.45593999997E+02  0.45594000000E+02  0.51100000000E-03 0. -1.
         11   -1    0    0    0    0 -0.00000000000E+00 -0.00000000000E+00 -0.45593999997E+02  0.45594000000E+02  0.51100000000E-03 0.  1.
    9900012    2    1    2    0    0  0.24728084395E+02 -0.19308643715E+02 -0.56934302540E+01  0.59301999498E+02  0.50000101164E+02 0.  0.
         12    1    1    2    0    0 -0.24728084395E+02  0.19308643715E+02  0.56934302540E+01  0.31886000502E+02  0.00000000000E+00 0. -1.
         11    1    3    3    0    0  0.16146227870E+02  0.95846252622E+01 -0.10530272236E+01  0.18806237860E+02  0.51100000000E-03 0. -1.
        -11    1    3    3    0    0  0.11258755125E+02 -0.33982484430E+01 -0.85827389451E+01  0.14559226198E+02  0.51100000000E-03 0.  1.
        -12    1    3    3    0    0 -0.26768985987E+01 -0.25495020534E+02  0.39423359146E+01  0.25936535440E+02  0.00000000000E+00 0.  1.
</event>
<event>
 7    1  0.1599387E-011  0.5930193E+02  0.7816164E-02  0.1266605E+00
        -11   -1    0    0    0    0  0.00000000000E+00  0.00000000000E+00  0.45593999997E+02  0.45594000000E+02  0.51100000000E-03 0. -1.
         11   -1    0    0    0    0 -0.00000000000E+00 -0.00000000000E+00 -0.45593999997E+02  0.45594000000E+02  0.51100000000E-03 0.  1.
    9900012    2    1    2    0    0 -0.19634135245E+02  0.61704083725E+01 -0.24354638113E+02  0.59301927743E+02  0.49999970301E+02 0.  0.
         12    1    1    2    0    0  0.19634135245E+02 -0.61704083725E+01  0.24354638113E+02  0.31886072257E+02  0.00000000000E+00 0. -1.
         11    1    3    3    0    0  0.20805464120E+01 -0.12008420586E+02 -0.36394994863E+01  0.12719150723E+02  0.51100000000E-03 0. -1.
        -11    1    3    3    0    0 -0.20921104743E+02  0.10503683316E+01 -0.17576277400E+01  0.21021064503E+02  0.51100000000E-03 0.  1.
        -12    1    3    3    0    0 -0.79357691425E+00  0.17128460627E+02 -0.18957510887E+02  0.25561712517E+02  0.00000000000E+00 0.  1.
</event>
<event>
 7    1  0.1204848E-011  0.5930194E+02  0.7816164E-02  0.1266605E+00
        -11   -1    0    0    0    0  0.00000000000E+00  0.00000000000E+00  0.45593999997E+02  0.45594000000E+02  0.51100000000E-03 0.  1.
         11   -1    0    0    0    0 -0.00000000000E+00 -0.00000000000E+00 -0.45593999997E+02  0.45594000000E+02  0.51100000000E-03 0. -1.
    9900012    2    1    2    0    0  0.12680262823E+02  0.64839401773E+01  0.28528766050E+02  0.59301936621E+02  0.49999986492E+02 0.  0.
         12    1    1    2    0    0 -0.12680262823E+02 -0.64839401773E+01 -0.28528766050E+02  0.31886063379E+02  0.00000000000E+00 0. -1.
         11    1    3    3    0    0 -0.60503630887E+01  0.97638154173E+01 -0.58561552889E+01  0.12893158652E+02  0.51100000000E-03 0. -1.
        -11    1    3    3    0    0 -0.84401506084E+00 -0.68269862542E+01  0.23007109542E+00  0.68828072549E+01  0.51100000000E-03 0.  1.
        -12    1    3    3    0    0  0.19574640972E+02  0.35471110142E+01  0.34154850243E+02  0.39525970714E+02  0.00000000000E+00 0.  1.
</event>
<event>
 7    1  0.1204848E-011  0.5930192E+02  0.7816164E-02  0.1266605E+00
        -11   -1    0    0    0    0  0.00000000000E+00  0.00000000000E+00  0.45593999997E+02  0.45594000000E+02  0.51100000000E-03 0.  1.
         11   -1    0    0    0    0 -0.00000000000E+00 -0.00000000000E+00 -0.45593999997E+02  0.45594000000E+02  0.51100000000E-03 0. -1.
    9900012    2    1    2    0    0 -0.11220783669E+02  0.11230045291E+02  0.27653247236E+02  0.59301921751E+02  0.49999959373E+02 0.  0.
         12    1    1    2    0    0  0.11220783669E+02 -0.11230045291E+02 -0.27653247236E+02  0.31886078249E+02  0.00000000000E+00 0. -1.
         11    1    3    3    0    0 -0.86538627698E+01  0.17643380778E+02  0.12329013570E+01  0.19690055158E+02  0.51100000000E-03 0. -1.
        -11    1    3    3    0    0  0.43949196963E+01  0.10350708135E+02  0.84211661916E+01  0.14048790635E+02  0.51100000000E-03 0.  1.
        -12    1    3    3    0    0 -0.69618405957E+01 -0.16764043621E+02  0.17999179687E+02  0.25563075958E+02  0.00000000000E+00 0.  1.
</event>
<event>
 7    1  0.1204848E-011  0.5930195E+02  0.7816164E-02  0.1266605E+00
        -11   -1    0    0    0    0  0.00000000000E+00  0.00000000000E+00  0.45593999997E+02  0.45594000000E+02  0.51100000000E-03 0.  1.
         11   -1    0    0    0    0 -0.00000000000E+00 -0.00000000000E+00 -0.45593999997E+02  0.45594000000E+02  0.51100000000E-03 0. -1.
    9900012    2    1    2    0    0 -0.28104738227E+02  0.30899930813E+01  0.14740962114E+02  0.59301947687E+02  0.50000006674E+02 0.  0.
         12    1    1    2    0    0  0.28104738227E+02 -0.30899930813E+01 -0.14740962114E+02  0.31886052313E+02  0.00000000000E+00 0. -1.
         11    1    3    3    0    0  0.15423420560E+00 -0.81108062088E+01  0.33590186223E+01  0.87802034095E+01  0.51100000000E-03 0. -1.
        -11    1    3    3    0    0 -0.19446565944E+02  0.35581404369E+01  0.25463075088E+02  0.32236586103E+02  0.51100000000E-03 0.  1.
         12    1    3    3    0    0 -0.88124064881E+01  0.76426588532E+01 -0.14081131596E+02  0.18285158175E+02  0.00000000000E+00 0. -1.
</event>
<event>
 7    1  0.1204848E-011  0.5930195E+02  0.7816164E-02  0.1266605E+00
        -11   -1    0    0    0    0  0.00000000000E+00  0.00000000000E+00  0.45593999997E+02  0.45594000000E+02  0.51100000000E-03 0.  1.
         11   -1    0    0    0    0 -0.00000000000E+00 -0.00000000000E+00 -0.45593999997E+02  0.45594000000E+02  0.51100000000E-03 0. -1.
    9900012    2    1    2    0    0  0.24696158148E+02 -0.18236020676E+02  0.86178707907E+01  0.59301947025E+02  0.50000005466E+02 0.  0.
         12    1    1    2    0    0 -0.24696158148E+02  0.18236020676E+02 -0.86178707907E+01  0.31886052975E+02  0.00000000000E+00 0. -1.
         11    1    3    3    0    0 -0.74497834635E+01  0.74293598164E+00  0.10481984688E+01  0.75597584497E+01  0.51100000000E-03 0. -1.
        -11    1    3    3    0    0  0.64181944975E+01 -0.19412878575E+02 -0.76686383909E+01  0.21837149315E+02  0.51100000000E-03 0.  1.
        -12    1    3    3    0    0  0.25727747114E+02  0.43392191726E+00  0.15238310713E+02  0.29905039260E+02  0.00000000000E+00 0.  1.
</event>
<event>
 7    1  0.1204848E-011  0.5930193E+02  0.7816164E-02  0.1266605E+00
        -11   -1    0    0    0    0  0.00000000000E+00  0.00000000000E+00  0.45593999997E+02  0.45594000000E+02  0.51100000000E-03 0.  1.
         11   -1    0    0    0    0 -0.00000000000E+00 -0.00000000000E+00 -0.45593999997E+02  0.45594000000E+02  0.51100000000E-03 0. -1.
    9900012    2    1    2    0    0 -0.22112245635E+02 -0.22238737162E+02  0.57627036803E+01  0.59301927942E+02  0.49999970663E+02 0.  0.
         12    1    1    2    0    0  0.22112245635E+02  0.22238737162E+02 -0.57627036803E+01  0.31886072058E+02  0.00000000000E+00 0. -1.
         11    1    3    3    0    0  0.20143937719E+01  0.72680594396E+01  0.25349878377E+01  0.79566722871E+01  0.51100000000E-03 0.  1.
        -11    1    3    3    0    0 -0.22690468572E+02 -0.21093485350E+01  0.65470078455E+01  0.23710124994E+02  0.51100000000E-03 0. -1.
         12    1    3    3    0    0 -0.14361708352E+01 -0.27397448066E+02 -0.33192920029E+01  0.27635130660E+02  0.00000000000E+00 0. -1.
</event>
<event>
 7    1  0.1204848E-011  0.5930195E+02  0.7816164E-02  0.1266605E+00
        -11   -1    0    0    0    0  0.00000000000E+00  0.00000000000E+00  0.45593999997E+02  0.45594000000E+02  0.51100000000E-03 0.  1.
         11   -1    0    0    0    0 -0.00000000000E+00 -0.00000000000E+00 -0.45593999997E+02  0.45594000000E+02  0.51100000000E-03 0. -1.
    9900012    2    1    2    0    0 -0.16451713132E+02  0.14394836595E+02  0.23213138526E+02  0.59301953117E+02  0.50000016577E+02 0.  0.
         12    1    1    2    0    0  0.16451713132E+02 -0.14394836595E+02 -0.23213138526E+02  0.31886046883E+02  0.00000000000E+00 0. -1.
         11    1    3    3    0    0 -0.34057694826E+01 -0.29666960016E+00  0.23362244981E+00  0.34266395098E+01  0.51100000000E-03 0. -1.
        -11    1    3    3    0    0 -0.52537100409E+01 -0.75477154693E+01 -0.11117259621E+02  0.14427852915E+02  0.51100000000E-03 0.  1.
        -12    1    3    3    0    0 -0.77922336088E+01  0.22239221665E+02  0.34096775697E+02  0.41447460692E+02  0.00000000000E+00 0.  1.
</event>
<event>
 7    1  0.1204848E-011  0.5930194E+02  0.7816164E-02  0.1266605E+00
        -11   -1    0    0    0    0  0.00000000000E+00  0.00000000000E+00  0.45593999997E+02  0.45594000000E+02  0.51100000000E-03 0. -1.
         11   -1    0    0    0    0 -0.00000000000E+00 -0.00000000000E+00 -0.45593999997E+02  0.45594000000E+02  0.51100000000E-03 0.  1.
    9900012    2    1    2    0    0  0.20282874736E+02 -0.20264369855E+02  0.13952822283E+02  0.59301938111E+02  0.49999989209E+02 0.  0.
         12    1    1    2    0    0 -0.20282874736E+02  0.20264369855E+02 -0.13952822283E+02  0.31886061889E+02  0.00000000000E+00 0. -1.
         11    1    3    3    0    0  0.58405629872E+01  0.46246587223E+01  0.75575412614E+00  0.74880443952E+01  0.51100000000E-03 0. -1.
        -11    1    3    3    0    0  0.97131562450E+01 -0.30546642434E+02 -0.47567692001E+01  0.32404777760E+02  0.51100000000E-03 0.  1.
         12    1    3    3    0    0  0.47291555033E+01  0.56576138566E+01  0.17953837357E+02  0.19409115955E+02  0.00000000000E+00 0. -1.
</event>
<event>
 7    1  0.1204848E-011  0.5930197E+02  0.7816164E-02  0.1266605E+00
        -11   -1    0    0    0    0  0.00000000000E+00  0.00000000000E+00  0.45593999997E+02  0.45594000000E+02  0.51100000000E-03 0. -1.
         11   -1    0    0    0    0 -0.00000000000E+00 -0.00000000000E+00 -0.45593999997E+02  0.45594000000E+02  0.51100000000E-03 0.  1.
    9900012    2    1    2    0    0 -0.27521664737E+01 -0.31486365122E+02 -0.42134614638E+01  0.59301970670E+02  0.50000048589E+02 0.  0.
         12    1    1    2    0    0  0.27521664737E+01  0.31486365122E+02  0.42134614638E+01  0.31886029330E+02  0.00000000000E+00 0. -1.
         11    1    3    3    0    0 -0.87590151128E+01 -0.68060989949E+00 -0.72286020786E+01  0.11377005927E+02  0.51100000000E-03 0. -1.
        -11    1    3    3    0    0 -0.98169578069E+01 -0.24889500591E+02  0.11378404049E+02  0.29074524574E+02  0.51100000000E-03 0.  1.
        -12    1    3    3    0    0  0.15823806446E+02 -0.59162546317E+01 -0.83632634338E+01  0.18850440169E+02  0.00000000000E+00 0.  1.
</event>
<event>
 7    1  0.1204848E-011  0.5930195E+02  0.7816164E-02  0.1266605E+00
        -11   -1    0    0    0    0  0.00000000000E+00  0.00000000000E+00  0.45593999997E+02  0.45594000000E+02  0.51100000000E-03 0.  1.
         11   -1    0    0    0    0 -0.00000000000E+00 -0.00000000000E+00 -0.45593999997E+02  0.45594000000E+02  0.51100000000E-03 0. -1.
    9900012    2    1    2    0    0  0.71919972288E+01 -0.30528897275E+02  0.57429706231E+01  0.59301951255E+02  0.50000013181E+02 0.  0.
         12    1    1    2    0    0 -0.71919972288E+01  0.30528897275E+02 -0.57429706231E+01  0.31886048745E+02  0.00000000000E+00 0. -1.
         11    1    3    3    0    0 -0.56501641182E+01  0.63418919392E+01  0.15049876105E+02  0.17281282330E+02  0.51100000000E-03 0. -1.
        -11    1    3    3    0    0 -0.21983027758E+01 -0.45448653454E+01  0.41417134303E+00  0.50655576459E+01  0.51100000000E-03 0.  1.
        -12    1    3    3    0    0  0.15040464123E+02 -0.32325923869E+02 -0.97210768251E+01  0.36955111279E+02  0.00000000000E+00 0.  1.
</event>
<event>
 7    1  0.1204848E-011  0.5930195E+02  0.7816164E-02  0.1266605E+00
        -11   -1    0    0    0    0  0.00000000000E+00  0.00000000000E+00  0.45593999997E+02  0.45594000000E+02  0.51100000000E-03 0.  1.
         11   -1    0    0    0    0 -0.00000000000E+00 -0.00000000000E+00 -0.45593999997E+02  0.45594000000E+02  0.51100000000E-03 0. -1.
    9900012    2    1    2    0    0 -0.10959276354E+02  0.21062262478E+01  0.29869352588E+02  0.59301950523E+02  0.50000011846E+02 0.  0.
         12    1    1    2    0    0  0.10959276354E+02 -0.21062262478E+01 -0.29869352588E+02  0.31886049477E+02  0.00000000000E+00 0. -1.
         11    1    3    3    0    0 -0.47972812545E+01 -0.29883243482E+01  0.11088941916E+02  0.12446229265E+02  0.51100000000E-03 0. -1.
        -11    1    3    3    0    0 -0.15784438364E+02  0.19810203392E+02  0.10470920520E+02  0.27408626920E+02  0.51100000000E-03 0.  1.
         12    1    3    3    0    0  0.96224432644E+01 -0.14715652796E+02  0.83094901532E+01  0.19447094338E+02  0.00000000000E+00 0. -1.
</event>
<event>
 7    1  0.1204848E-011  0.5930193E+02  0.7816164E-02  0.1266605E+00
        -11   -1    0    0    0    0  0.00000000000E+00  0.00000000000E+00  0.45593999997E+02  0.45594000000E+02  0.51100000000E-03 0. -1.
         11   -1    0    0    0    0 -0.00000000000E+00 -0.00000000000E+00 -0.45593999997E+02  0.45594000000E+02  0.51100000000E-03 0.  1.
    9900012    2    1    2    0    0  0.16757285241E+02  0.14758570938E+02 -0.22761796771E+02  0.59301930674E+02  0.49999975647E+02 0.  0.
         12    1    1    2    0    0 -0.16757285241E+02 -0.14758570938E+02  0.22761796771E+02  0.31886069326E+02  0.00000000000E+00 0. -1.
         11    1    3    3    0    0  0.33841265604E+01  0.69614630748E+01 -0.14933414962E+01  0.78831687667E+01  0.51100000000E-03 0. -1.
        -11    1    3    3    0    0  0.18435196230E+02  0.23754210771E+02 -0.13317254174E+02  0.32885684551E+02  0.51100000000E-03 0.  1.
         12    1    3    3    0    0 -0.50620375493E+01 -0.15957102908E+02 -0.79512011009E+01  0.18533077357E+02  0.00000000000E+00 0. -1.
</event>
<event>
 7    1  0.1204848E-011  0.5930194E+02  0.7816164E-02  0.1266605E+00
        -11   -1    0    0    0    0  0.00000000000E+00  0.00000000000E+00  0.45593999997E+02  0.45594000000E+02  0.51100000000E-03 0. -1.
         11   -1    0    0    0    0 -0.00000000000E+00 -0.00000000000E+00 -0.45593999997E+02  0.45594000000E+02  0.51100000000E-03 0.  1.
    9900012    2    1    2    0    0  0.24964936530E+02 -0.16368963371E+02 -0.11204002098E+02  0.59301942219E+02  0.49999996702E+02 0.  0.
         12    1    1    2    0    0 -0.24964936530E+02  0.16368963371E+02  0.11204002098E+02  0.31886057781E+02  0.00000000000E+00 0. -1.
         11    1    3    3    0    0  0.28440889649E+01 -0.12887210799E+01  0.12768903007E+02  0.13145133256E+02  0.51100000000E-03 0. -1.
        -11    1    3    3    0    0  0.64123954692E+01 -0.32867350493E+01  0.66303397359E+01  0.97919787690E+01  0.51100000000E-03 0.  1.
        -12    1    3    3    0    0  0.15708452096E+02 -0.11793507242E+02 -0.30603244840E+02  0.36364830194E+02  0.00000000000E+00 0.  1.
</event>
<event>
 7    1  0.1204848E-011  0.5930185E+02  0.7816164E-02  0.1266605E+00
        -11   -1    0    0    0    0  0.00000000000E+00  0.00000000000E+00  0.45593999997E+02  0.45594000000E+02  0.51100000000E-03 0.  1.
         11   -1    0    0    0    0 -0.00000000000E+00 -0.00000000000E+00 -0.45593999997E+02  0.45594000000E+02  0.51100000000E-03 0. -1.
    9900012    2    1    2    0    0 -0.21128139114E+02  0.23348514414E+02 -0.50174781164E+01  0.59301851370E+02  0.49999831015E+02 0.  0.
         12    1    1    2    0    0  0.21128139114E+02 -0.23348514414E+02  0.50174781164E+01  0.31886148630E+02  0.00000000000E+00 0. -1.
         11    1    3    3    0    0 -0.97697530651E+01 -0.10312459727E+02 -0.66172934927E+01  0.15671103152E+02  0.51100000000E-03 0. -1.
        -11    1    3    3    0    0 -0.15728285737E+02  0.82153710908E+01  0.15548098948E+01  0.17812600273E+02  0.51100000000E-03 0.  1.
         12    1    3    3    0    0  0.43698996886E+01  0.25445603050E+02  0.45005481502E-01  0.25818147946E+02  0.00000000000E+00 0. -1.
</event>
<event>
 7    1  0.1204848E-011  0.5930195E+02  0.7816164E-02  0.1266605E+00
        -11   -1    0    0    0    0  0.00000000000E+00  0.00000000000E+00  0.45593999997E+02  0.45594000000E+02  0.51100000000E-03 0.  1.
         11   -1    0    0    0    0 -0.00000000000E+00 -0.00000000000E+00 -0.45593999997E+02  0.45594000000E+02  0.51100000000E-03 0. -1.
    9900012    2    1    2    0    0  0.53538052655E+01  0.30085478451E+02 -0.91060785204E+01  0.59301954298E+02  0.50000018731E+02 0.  0.
         12    1    1    2    0    0 -0.53538052655E+01 -0.30085478451E+02  0.91060785204E+01  0.31886045702E+02  0.00000000000E+00 0. -1.
         11    1    3    3    0    0 -0.29575535173E+01  0.40344895751E+01 -0.67877767455E+01  0.84319714389E+01  0.51100000000E-03 0. -1.
        -11    1    3    3    0    0 -0.11315080275E+02 -0.47446024988E+01  0.56258445982E+01  0.13497867321E+02  0.51100000000E-03 0.  1.
         12    1    3    3    0    0  0.19626439058E+02  0.30795591375E+02 -0.79441463732E+01  0.37372115539E+02  0.00000000000E+00 0. -1.
</event>
<event>
 7    1  0.1204848E-011  0.5930191E+02  0.7816164E-02  0.1266605E+00
        -11   -1    0    0    0    0  0.00000000000E+00  0.00000000000E+00  0.45593999997E+02  0.45594000000E+02  0.51100000000E-03 0.  1.
         11   -1    0    0    0    0 -0.00000000000E+00 -0.00000000000E+00 -0.45593999997E+02  0.45594000000E+02  0.51100000000E-03 0. -1.
    9900012    2    1    2    0    0 -0.20956817110E+02  0.32334763731E+01  0.23813420013E+02  0.59301913292E+02  0.49999943945E+02 0.  0.
         12    1    1    2    0    0  0.20956817110E+02 -0.32334763731E+01 -0.23813420013E+02  0.31886086708E+02  0.00000000000E+00 0. -1.
         11    1    3    3    0    0 -0.11395470269E+02 -0.10028183563E+02 -0.35920173705E+01  0.15598839613E+02  0.51100000000E-03 0. -1.
        -11    1    3    3    0    0 -0.12446693621E+02 -0.26525870275E+01  0.10354970728E+01  0.12768267482E+02  0.51100000000E-03 0.  1.
        -12    1    3    3    0    0  0.28853467806E+01  0.15914246964E+02  0.26369940310E+02  0.30934806197E+02  0.00000000000E+00 0.  1.
</event>
<event>
 7    1  0.1204848E-011  0.5930197E+02  0.7816164E-02  0.1266605E+00
        -11   -1    0    0    0    0  0.00000000000E+00  0.00000000000E+00  0.45593999997E+02  0.45594000000E+02  0.51100000000E-03 0.  1.
         11   -1    0    0    0    0 -0.00000000000E+00 -0.00000000000E+00 -0.45593999997E+02  0.45594000000E+02  0.51100000000E-03 0. -1.
    9900012    2    1    2    0    0  0.81289360345E+01  0.22245629704E+02  0.21348801105E+02  0.59301969351E+02  0.50000046183E+02 0.  0.
         12    1    1    2    0    0 -0.81289360345E+01 -0.22245629704E+02 -0.21348801105E+02  0.31886030649E+02  0.00000000000E+00 0. -1.
         11    1    3    3    0    0 -0.44421189222E+01 -0.26625566735E+01  0.86058905984E+00  0.52499754618E+01  0.51100000000E-03 0. -1.
        -11    1    3    3    0    0 -0.88218808514E+01 -0.68837620512E+01  0.79758254715E+01  0.13741381079E+02  0.51100000000E-03 0.  1.
         12    1    3    3    0    0  0.21392935808E+02  0.31791948429E+02  0.12512386573E+02  0.40310612810E+02  0.00000000000E+00 0. -1.
</event>
<event>
 7    1  0.1204848E-011  0.5930197E+02  0.7816164E-02  0.1266605E+00
        -11   -1    0    0    0    0  0.00000000000E+00  0.00000000000E+00  0.45593999997E+02  0.45594000000E+02  0.51100000000E-03 0. -1.
         11   -1    0    0    0    0 -0.00000000000E+00 -0.00000000000E+00 -0.45593999997E+02  0.45594000000E+02  0.51100000000E-03 0.  1.
    9900012    2    1    2    0    0 -0.84939608435E+01 -0.30708062977E+02 -0.12596191393E+01  0.59301966334E+02  0.50000040680E+02 0.  0.
         12    1    1    2    0    0  0.84939608435E+01  0.30708062977E+02  0.12596191393E+01  0.31886033666E+02  0.00000000000E+00 0. -1.
         11    1    3    3    0    0 -0.18339833630E+02 -0.13520793424E+02  0.31445331164E+01  0.23001074783E+02  0.51100000000E-03 0. -1.
        -11    1    3    3    0    0 -0.53528960493E+00  0.71076333956E+01 -0.66987685771E+01  0.97815381284E+01  0.51100000000E-03 0.  1.
        -12    1    3    3    0    0  0.10381162391E+02 -0.24294902948E+02  0.22946163213E+01  0.26519353422E+02  0.00000000000E+00 0.  1.
</event>
<event>
 7    1  0.1204848E-011  0.5930194E+02  0.7816164E-02  0.1266605E+00
        -11   -1    0    0    0    0  0.00000000000E+00  0.00000000000E+00  0.45593999997E+02  0.45594000000E+02  0.51100000000E-03 0.  1.
         11   -1    0    0    0    0 -0.00000000000E+00 -0.00000000000E+00 -0.45593999997E+02  0.45594000000E+02  0.51100000000E-03 0. -1.
    9900012    2    1    2    0    0 -0.11295409616E+02  0.23522938452E+02  0.18325013648E+02  0.59301936634E+02  0.49999986516E+02 0.  0.
         12    1    1    2    0    0  0.11295409616E+02 -0.23522938452E+02 -0.18325013648E+02  0.31886063366E+02  0.00000000000E+00 0. -1.
         11    1    3    3    0    0 -0.70164443577E+01  0.31093235209E+02  0.25151796206E+02  0.40603357248E+02  0.51100000000E-03 0. -1.
        -11    1    3    3    0    0 -0.12254975391E+01  0.32831837253E+01  0.23007885352E+01  0.41922270617E+01  0.51100000000E-03 0.  1.
         12    1    3    3    0    0 -0.30534677190E+01 -0.10853480482E+02 -0.91275710935E+01  0.14506352324E+02  0.00000000000E+00 0. -1.
</event>
<event>
 7    1  0.1204848E-011  0.5930197E+02  0.7816164E-02  0.1266605E+00
        -11   -1    0    0    0    0  0.00000000000E+00  0.00000000000E+00  0.45593999997E+02  0.45594000000E+02  0.51100000000E-03 0. -1.
         11   -1    0    0    0    0 -0.00000000000E+00 -0.00000000000E+00 -0.45593999997E+02  0.45594000000E+02  0.51100000000E-03 0.  1.
    9900012    2    1    2    0    0 -0.30612956850E+02 -0.31269987288E+01 -0.83539192389E+01  0.59301965207E+02  0.50000038626E+02 0.  0.
         12    1    1    2    0    0  0.30612956850E+02  0.31269987288E+01  0.83539192389E+01  0.31886034793E+02  0.00000000000E+00 0. -1.
         11    1    3    3    0    0 -0.13638957822E+01  0.11894332949E+02  0.17933770539E+01  0.12105848567E+02  0.51100000000E-03 0. -1.
        -11    1    3    3    0    0 -0.13417588200E+02  0.50528259904E+01 -0.15459219979E+02  0.21084359279E+02  0.51100000000E-03 0.  1.
        -12    1    3    3    0    0 -0.15831472868E+02 -0.20074157668E+02  0.53119236859E+01  0.26111757362E+02  0.00000000000E+00 0.  1.
</event>
<event>
 7    1  0.1204848E-011  0.5930194E+02  0.7816164E-02  0.1266605E+00
        -11   -1    0    0    0    0  0.00000000000E+00  0.00000000000E+00  0.45593999997E+02  0.45594000000E+02  0.51100000000E-03 0.  1.
         11   -1    0    0    0    0 -0.00000000000E+00 -0.00000000000E+00 -0.45593999997E+02  0.45594000000E+02  0.51100000000E-03 0. -1.
    9900012    2    1    2    0    0 -0.12459251348E+02 -0.95240782641E+01  0.27762919428E+02  0.59301941823E+02  0.49999995979E+02 0.  0.
         12    1    1    2    0    0  0.12459251348E+02  0.95240782641E+01 -0.27762919428E+02  0.31886058177E+02  0.00000000000E+00 0. -1.
         11    1    3    3    0    0 -0.97312146650E+01  0.95240093999E+01 -0.18634509863E+01  0.13743207185E+02  0.51100000000E-03 0. -1.
        -11    1    3    3    0    0  0.45376950866E+01  0.54230915945E+01  0.13848222129E+02  0.15549078929E+02  0.51100000000E-03 0.  1.
         12    1    3    3    0    0 -0.72657317694E+01 -0.24471179258E+02  0.15778148285E+02  0.30009655709E+02  0.00000000000E+00 0. -1.
</event>
<event>
 7    1  0.1204848E-011  0.5930195E+02  0.7816164E-02  0.1266605E+00
        -11   -1    0    0    0    0  0.00000000000E+00  0.00000000000E+00  0.45593999997E+02  0.45594000000E+02  0.51100000000E-03 0.  1.
         11   -1    0    0    0    0 -0.00000000000E+00 -0.00000000000E+00 -0.45593999997E+02  0.45594000000E+02  0.51100000000E-03 0. -1.
    9900012    2    1    2    0    0  0.28923076503E+02 -0.12912583894E+02  0.36661825981E+01  0.59301951764E+02  0.50000014110E+02 0.  0.
         12    1    1    2    0    0 -0.28923076503E+02  0.12912583894E+02 -0.36661825981E+01  0.31886048236E+02  0.00000000000E+00 0. -1.
         11    1    3    3    0    0  0.17301629212E+02 -0.10117429416E+01 -0.69599236352E+01  0.18676470074E+02  0.51100000000E-03 0. -1.
        -11    1    3    3    0    0  0.11144813554E+02  0.46850737121E+01 -0.88920836723E+01  0.15007529348E+02  0.51100000000E-03 0.  1.
        -12    1    3    3    0    0  0.47663373747E+00 -0.16585914665E+02  0.19518189906E+02  0.25617952342E+02  0.00000000000E+00 0.  1.
</event>
<event>
 7    1  0.1204848E-011  0.5930194E+02  0.7816164E-02  0.1266605E+00
        -11   -1    0    0    0    0  0.00000000000E+00  0.00000000000E+00  0.45593999997E+02  0.45594000000E+02  0.51100000000E-03 0. -1.
         11   -1    0    0    0    0 -0.00000000000E+00 -0.00000000000E+00 -0.45593999997E+02  0.45594000000E+02  0.51100000000E-03 0.  1.
    9900012    2    1    2    0    0 -0.20951821949E+02  0.21281256512E+02 -0.11173622261E+02  0.59301944174E+02  0.50000000266E+02 0.  0.
         12    1    1    2    0    0  0.20951821949E+02 -0.21281256512E+02  0.11173622261E+02  0.31886055826E+02  0.00000000000E+00 0. -1.
         11    1    3    3    0    0  0.77737978432E+01 -0.59407161480E+00  0.32771691347E+01  0.84572271927E+01  0.51100000000E-03 0. -1.
        -11    1    3    3    0    0  0.47199611637E+01  0.49620589134E+01 -0.11326407213E+02  0.13235843859E+02  0.51100000000E-03 0.  1.
        -12    1    3    3    0    0 -0.33445580956E+02  0.16913269214E+02 -0.31243841830E+01  0.37608873122E+02  0.00000000000E+00 0.  1.
</event>
<event>
 7    1  0.1204848E-011  0.5930196E+02  0.7816164E-02  0.1266605E+00
        -11   -1    0    0    0    0  0.00000000000E+00  0.00000000000E+00  0.45593999997E+02  0.45594000000E+02  0.51100000000E-03 0.  1.
         11   -1    0    0    0    0 -0.00000000000E+00 -0.00000000000E+00 -0.45593999997E+02  0.45594000000E+02  0.51100000000E-03 0. -1.
    9900012    2    1    2    0    0  0.29811031241E+02  0.12835994799E+01  0.11241640140E+02  0.59301957845E+02  0.50000025199E+02 0.  0.
         12    1    1    2    0    0 -0.29811031241E+02 -0.12835994799E+01 -0.11241640140E+02  0.31886042155E+02  0.00000000000E+00 0. -1.
         11    1    3    3    0    0 -0.59685579223E+01 -0.43782416379E+01  0.11113156048E+02  0.13352712126E+02  0.51100000000E-03 0. -1.
        -11    1    3    3    0    0  0.14796812005E+02 -0.11576691763E+02 -0.30552244006E+00  0.18789858486E+02  0.51100000000E-03 0.  1.
         12    1    3    3    0    0  0.20982777159E+02  0.17238532881E+02  0.43400653166E+00  0.27159387233E+02  0.00000000000E+00 0. -1.
</event>
<event>
 7    1  0.1204848E-011  0.5930193E+02  0.7816164E-02  0.1266605E+00
        -11   -1    0    0    0    0  0.00000000000E+00  0.00000000000E+00  0.45593999997E+02  0.45594000000E+02  0.51100000000E-03 0. -1.
         11   -1    0    0    0    0 -0.00000000000E+00 -0.00000000000E+00 -0.45593999997E+02  0.45594000000E+02  0.51100000000E-03 0.  1.
    9900012    2    1    2    0    0  0.46286872383E+01 -0.81416836501E+01 -0.30479664647E+02  0.59301925999E+02  0.49999967120E+02 0.  0.
         12    1    1    2    0    0 -0.46286872383E+01  0.81416836501E+01  0.30479664647E+02  0.31886074001E+02  0.00000000000E+00 0. -1.
         11    1    3    3    0    0  0.12073086212E+02  0.35984613955E+01 -0.57719098571E+01  0.13857246435E+02  0.51100000000E-03 0. -1.
        -11    1    3    3    0    0 -0.33121136025E+01 -0.15806335128E+02  0.36028128888E+01  0.16546618618E+02  0.51100000000E-03 0.  1.
        -12    1    3    3    0    0 -0.41322853715E+01  0.40661900826E+01 -0.28310567679E+02  0.28898060946E+02  0.00000000000E+00 0.  1.
</event>
<event>
 7    1  0.1204848E-011  0.5930194E+02  0.7816164E-02  0.1266605E+00
        -11   -1    0    0    0    0  0.00000000000E+00  0.00000000000E+00  0.45593999997E+02  0.45594000000E+02  0.51100000000E-03 0.  1.
         11   -1    0    0    0    0 -0.00000000000E+00 -0.00000000000E+00 -0.45593999997E+02  0.45594000000E+02  0.51100000000E-03 0. -1.
    9900012    2    1    2    0    0  0.27820192853E+02 -0.14861324526E+02  0.46795818194E+01  0.59301943752E+02  0.49999999498E+02 0.  0.
         12    1    1    2    0    0 -0.27820192853E+02  0.14861324526E+02 -0.46795818194E+01  0.31886056248E+02  0.00000000000E+00 0. -1.
         11    1    3    3    0    0 -0.68020700317E+01 -0.14358621309E+02  0.47328083048E+01  0.16578227810E+02  0.51100000000E-03 0. -1.
        -11    1    3    3    0    0  0.18816627016E+02 -0.98758663171E+01 -0.79950621119E+01  0.22705048034E+02  0.51100000000E-03 0.  1.
         12    1    3    3    0    0  0.15805635868E+02  0.93731631006E+01  0.79418356265E+01  0.20018667908E+02  0.00000000000E+00 0. -1.
</event>
<event>
 7    1  0.1204848E-011  0.5930192E+02  0.7816164E-02  0.1266605E+00
        -11   -1    0    0    0    0  0.00000000000E+00  0.00000000000E+00  0.45593999997E+02  0.45594000000E+02  0.51100000000E-03 0.  1.
         11   -1    0    0    0    0 -0.00000000000E+00 -0.00000000000E+00 -0.45593999997E+02  0.45594000000E+02  0.51100000000E-03 0. -1.
    9900012    2    1    2    0    0 -0.24987178341E+02  0.39852862617E+00 -0.19804144111E+02  0.59301921055E+02  0.49999958104E+02 0.  0.
         12    1    1    2    0    0  0.24987178341E+02 -0.39852862617E+00  0.19804144111E+02  0.31886078945E+02  0.00000000000E+00 0. -1.
         11    1    3    3    0    0  0.70272027365E+01  0.19509320316E+01 -0.22708994449E+01  0.76383701561E+01  0.51100000000E-03 0. -1.
        -11    1    3    3    0    0 -0.54143367630E+01  0.42904980970E+01 -0.22888081708E+02  0.23907900389E+02  0.51100000000E-03 0.  1.
        -12    1    3    3    0    0 -0.26600044314E+02 -0.58429015025E+01  0.53548370419E+01  0.27755650510E+02  0.00000000000E+00 0.  1.
</event>
<event>
 7    1  0.1204848E-011  0.5930194E+02  0.7816164E-02  0.1266605E+00
        -11   -1    0    0    0    0  0.00000000000E+00  0.00000000000E+00  0.45593999997E+02  0.45594000000E+02  0.51100000000E-03 0.  1.
         11   -1    0    0    0    0 -0.00000000000E+00 -0.00000000000E+00 -0.45593999997E+02  0.45594000000E+02  0.51100000000E-03 0. -1.
    9900012    2    1    2    0    0  0.24678214743E+02  0.19356812261E+02  0.57463368410E+01  0.59301939552E+02  0.49999991838E+02 0.  0.
         12    1    1    2    0    0 -0.24678214743E+02 -0.19356812261E+02 -0.57463368410E+01  0.31886060448E+02  0.00000000000E+00 0. -1.
         11    1    3    3    0    0  0.23866353245E+01  0.89188484607E+00 -0.16439726197E+01  0.30321828748E+01  0.51100000000E-03 0. -1.
        -11    1    3    3    0    0  0.26990062843E-01  0.24089958092E+02 -0.11349546045E+02  0.26629664005E+02  0.51100000000E-03 0.  1.
         12    1    3    3    0    0  0.22264589355E+02 -0.56250306770E+01  0.18739855505E+02  0.29640092673E+02  0.00000000000E+00 0. -1.
</event>
<event>
 7    1  0.1204848E-011  0.5930195E+02  0.7816164E-02  0.1266605E+00
        -11   -1    0    0    0    0  0.00000000000E+00  0.00000000000E+00  0.45593999997E+02  0.45594000000E+02  0.51100000000E-03 0.  1.
         11   -1    0    0    0    0 -0.00000000000E+00 -0.00000000000E+00 -0.45593999997E+02  0.45594000000E+02  0.51100000000E-03 0. -1.
    9900012    2    1    2    0    0  0.23251299589E+02 -0.70358656374E+01 -0.20654153973E+02  0.59301946400E+02  0.50000004327E+02 0.  0.
         12    1    1    2    0    0 -0.23251299589E+02  0.70358656374E+01  0.20654153973E+02  0.31886053600E+02  0.00000000000E+00 0. -1.
         11    1    3    3    0    0  0.45315002107E+01  0.53013317575E+01 -0.31500605281E+01  0.76525482131E+01  0.51100000000E-03 0. -1.
        -11    1    3    3    0    0  0.14636223117E+02 -0.25635610796E+01  0.12759524705E+02  0.19585615730E+02  0.51100000000E-03 0.  1.
        -12    1    3    3    0    0  0.40835762608E+01 -0.97736363154E+01 -0.30263618150E+02  0.32063782457E+02  0.00000000000E+00 0.  1.
</event>
<event>
 7    1  0.1204848E-011  0.5930192E+02  0.7816164E-02  0.1266605E+00
        -11   -1    0    0    0    0  0.00000000000E+00  0.00000000000E+00  0.45593999997E+02  0.45594000000E+02  0.51100000000E-03 0. -1.
         11   -1    0    0    0    0 -0.00000000000E+00 -0.00000000000E+00 -0.45593999997E+02  0.45594000000E+02  0.51100000000E-03 0.  1.
    9900012    2    1    2    0    0  0.15264768013E+02 -0.52899148199E+01 -0.27490462184E+02  0.59301923848E+02  0.49999963197E+02 0.  0.
         12    1    1    2    0    0 -0.15264768013E+02  0.52899148199E+01  0.27490462184E+02  0.31886076152E+02  0.00000000000E+00 0. -1.
         11    1    3    3    0    0  0.43464436862E+01 -0.94918632612E-01  0.17017842958E+01  0.46686885005E+01  0.51100000000E-03 0. -1.
        -11    1    3    3    0    0  0.73267595387E+01 -0.19681077643E+02 -0.33105011948E+02  0.39204183946E+02  0.51100000000E-03 0.  1.
         12    1    3    3    0    0  0.35915647877E+01  0.14486081455E+02  0.39127654681E+01  0.15429051402E+02  0.00000000000E+00 0. -1.
</event>
<event>
 7    1  0.1204848E-011  0.5930195E+02  0.7816164E-02  0.1266605E+00
        -11   -1    0    0    0    0  0.00000000000E+00  0.00000000000E+00  0.45593999997E+02  0.45594000000E+02  0.51100000000E-03 0.  1.
         11   -1    0    0    0    0 -0.00000000000E+00 -0.00000000000E+00 -0.45593999997E+02  0.45594000000E+02  0.51100000000E-03 0. -1.
    9900012    2    1    2    0    0  0.24375140534E+02  0.18933360106E+02  0.80062794732E+01  0.59301951139E+02  0.50000012969E+02 0.  0.
         12    1    1    2    0    0 -0.24375140534E+02 -0.18933360106E+02 -0.80062794732E+01  0.31886048861E+02  0.00000000000E+00 0. -1.
         11    1    3    3    0    0  0.41027805172E+01  0.75572025412E+01  0.15149291817E+02  0.17419677409E+02  0.51100000000E-03 0. -1.
        -11    1    3    3    0    0  0.25260991200E+02  0.11551090454E+02  0.54764507017E+01  0.28311426662E+02  0.51100000000E-03 0.  1.
         12    1    3    3    0    0 -0.49886311833E+01 -0.17493288940E+00 -0.12619463045E+02  0.13570847068E+02  0.00000000000E+00 0. -1.
</event>
<event>
 7    1  0.1204848E-011  0.5930194E+02  0.7816164E-02  0.1266605E+00
        -11   -1    0    0    0    0  0.00000000000E+00  0.00000000000E+00  0.45593999997E+02  0.45594000000E+02  0.51100000000E-03 0. -1.
         11   -1    0    0    0    0 -0.00000000000E+00 -0.00000000000E+00 -0.45593999997E+02  0.45594000000E+02  0.51100000000E-03 0.  1.
    9900012    2    1    2    0    0  0.24059170570E+02  0.20784273073E+02 -0.24271255972E+01  0.59301942948E+02  0.49999998031E+02 0.  0.
         12    1    1    2    0    0 -0.24059170570E+02 -0.20784273073E+02  0.24271255972E+01  0.31886057052E+02  0.00000000000E+00 0. -1.
         11    1    3    3    0    0  0.13393397516E+02  0.11897624730E+02  0.20898858406E+01  0.18036191237E+02  0.51100000000E-03 0. -1.
        -11    1    3    3    0    0  0.11335014213E+02  0.17487899494E+02  0.10960206007E+02  0.23546449666E+02  0.51100000000E-03 0.  1.
        -12    1    3    3    0    0 -0.66924115925E+00 -0.86012511515E+01 -0.15477217445E+02  0.17719302045E+02  0.00000000000E+00 0.  1.
</event>
<event>
 7    1  0.1204848E-011  0.5930198E+02  0.7816164E-02  0.1266605E+00
        -11   -1    0    0    0    0  0.00000000000E+00  0.00000000000E+00  0.45593999997E+02  0.45594000000E+02  0.51100000000E-03 0.  1.
         11   -1    0    0    0    0 -0.00000000000E+00 -0.00000000000E+00 -0.45593999997E+02  0.45594000000E+02  0.51100000000E-03 0. -1.
    9900012    2    1    2    0    0 -0.10250771107E+02  0.15478137158E+02  0.25924263530E+02  0.59301976765E+02  0.50000059706E+02 0.  0.
         12    1    1    2    0    0  0.10250771107E+02 -0.15478137158E+02 -0.25924263530E+02  0.31886023235E+02  0.00000000000E+00 0. -1.
         11    1    3    3    0    0 -0.44625548325E+01 -0.25646551509E+01  0.18082548930E+02  0.18800809231E+02  0.51100000000E-03 0. -1.
        -11    1    3    3    0    0 -0.57898670319E+01  0.21343592403E+02  0.18818997681E+02  0.29038356891E+02  0.51100000000E-03 0.  1.
         12    1    3    3    0    0  0.16507576965E-02 -0.33008000941E+01 -0.10977283082E+02  0.11462810643E+02  0.00000000000E+00 0. -1.
</event>
<event>
 7    1  0.1204848E-011  0.5930196E+02  0.7816164E-02  0.1266605E+00
        -11   -1    0    0    0    0  0.00000000000E+00  0.00000000000E+00  0.45593999997E+02  0.45594000000E+02  0.51100000000E-03 0.  1.
         11   -1    0    0    0    0 -0.00000000000E+00 -0.00000000000E+00 -0.45593999997E+02  0.45594000000E+02  0.51100000000E-03 0. -1.
    9900012    2    1    2    0    0 -0.21675145692E+02  0.14886677312E+02  0.18035923191E+02  0.59301958735E+02  0.50000026823E+02 0.  0.
         12    1    1    2    0    0  0.21675145692E+02 -0.14886677312E+02 -0.18035923191E+02  0.31886041265E+02  0.00000000000E+00 0. -1.
         11    1    3    3    0    0 -0.24661958330E+01  0.15986719642E+02  0.12801503458E+01  0.16226401695E+02  0.51100000000E-03 0. -1.
        -11    1    3    3    0    0 -0.89782808678E+01  0.14573642401E+02  0.17318222258E+02  0.24349977466E+02  0.51100000000E-03 0.  1.
         12    1    3    3    0    0 -0.10230668991E+02 -0.15673684730E+02 -0.56244941274E+00  0.18725579574E+02  0.00000000000E+00 0. -1.
</event>
<event>
 7    1  0.1204848E-011  0.5930193E+02  0.7816164E-02  0.1266605E+00
        -11   -1    0    0    0    0  0.00000000000E+00  0.00000000000E+00  0.45593999997E+02  0.45594000000E+02  0.51100000000E-03 0.  1.
         11   -1    0    0    0    0 -0.00000000000E+00 -0.00000000000E+00 -0.45593999997E+02  0.45594000000E+02  0.51100000000E-03 0. -1.
    9900012    2    1    2    0    0  0.22577463742E+02 -0.22503435357E+02 -0.75837929044E+00  0.59301927632E+02  0.49999970098E+02 0.  0.
         12    1    1    2    0    0 -0.22577463742E+02  0.22503435357E+02  0.75837929044E+00  0.31886072368E+02  0.00000000000E+00 0. -1.
         11    1    3    3    0    0  0.33353828431E+01 -0.77965960075E+01 -0.18923398099E+02  0.20736602515E+02  0.51100000000E-03 0. -1.
        -11    1    3    3    0    0 -0.18922100898E+01 -0.11184953281E+02  0.15438701040E+01  0.11448457279E+02  0.51100000000E-03 0.  1.
        -12    1    3    3    0    0  0.21134290989E+02 -0.35218860691E+01  0.16621148704E+02  0.27116867838E+02  0.00000000000E+00 0.  1.
</event>
<event>
 7    1  0.1204848E-011  0.5930198E+02  0.7816164E-02  0.1266605E+00
        -11   -1    0    0    0    0  0.00000000000E+00  0.00000000000E+00  0.45593999997E+02  0.45594000000E+02  0.51100000000E-03 0. -1.
         11   -1    0    0    0    0 -0.00000000000E+00 -0.00000000000E+00 -0.45593999997E+02  0.45594000000E+02  0.51100000000E-03 0.  1.
    9900012    2    1    2    0    0  0.77135343403E+01  0.58062122026E+01 -0.30389270992E+02  0.59301976360E+02  0.50000058966E+02 0.  0.
         12    1    1    2    0    0 -0.77135343403E+01 -0.58062122026E+01  0.30389270992E+02  0.31886023640E+02  0.00000000000E+00 0. -1.
         11    1    3    3    0    0 -0.13790679100E+02  0.44494254916E+01 -0.12092751261E+02  0.18873654934E+02  0.51100000000E-03 0. -1.
        -11    1    3    3    0    0  0.12405472681E+01 -0.10560815119E+02  0.89466178835E-02  0.10633430952E+02  0.51100000000E-03 0.  1.
         12    1    3    3    0    0  0.20263666172E+02  0.11917601830E+02 -0.18305466349E+02  0.29794890474E+02  0.00000000000E+00 0. -1.
</event>
<event>
 7    1  0.1204848E-011  0.5930186E+02  0.7816164E-02  0.1266605E+00
        -11   -1    0    0    0    0  0.00000000000E+00  0.00000000000E+00  0.45593999997E+02  0.45594000000E+02  0.51100000000E-03 0. -1.
         11   -1    0    0    0    0 -0.00000000000E+00 -0.00000000000E+00 -0.45593999997E+02  0.45594000000E+02  0.51100000000E-03 0.  1.
    9900012    2    1    2    0    0  0.19972390479E+02 -0.14919619132E+02 -0.19880510536E+02  0.59301856996E+02  0.49999841275E+02 0.  0.
         12    1    1    2    0    0 -0.19972390479E+02  0.14919619132E+02  0.19880510536E+02  0.31886143004E+02  0.00000000000E+00 0. -1.
         11    1    3    3    0    0  0.20858806108E+02 -0.21094897667E+01  0.91346292333E+00  0.20985093616E+02  0.51100000000E-03 0. -1.
        -11    1    3    3    0    0  0.10786816239E+02  0.30242239732E+01 -0.12989514580E+02  0.17153099560E+02  0.51100000000E-03 0.  1.
         12    1    3    3    0    0 -0.11673231868E+02 -0.15834353338E+02 -0.78044588795E+01  0.21163663820E+02  0.00000000000E+00 0. -1.
</event>
<event>
 7    1  0.1204848E-011  0.5930191E+02  0.7816164E-02  0.1266605E+00
        -11   -1    0    0    0    0  0.00000000000E+00  0.00000000000E+00  0.45593999997E+02  0.45594000000E+02  0.51100000000E-03 0.  1.
         11   -1    0    0    0    0 -0.00000000000E+00 -0.00000000000E+00 -0.45593999997E+02  0.45594000000E+02  0.51100000000E-03 0. -1.
    9900012    2    1    2    0    0  0.11426517668E+02  0.10737066615E+02  0.27764595066E+02  0.59301911424E+02  0.49999940538E+02 0.  0.
         12    1    1    2    0    0 -0.11426517668E+02 -0.10737066615E+02 -0.27764595066E+02  0.31886088576E+02  0.00000000000E+00 0. -1.
         11    1    3    3    0    0  0.13887861423E+02  0.15940853145E+02  0.33124183006E+02  0.39296246563E+02  0.51100000000E-03 0. -1.
        -11    1    3    3    0    0  0.35989601670E+01 -0.80611990467E+00  0.56162587743E+01  0.67189810586E+01  0.51100000000E-03 0.  1.
         12    1    3    3    0    0 -0.60603039221E+01 -0.43976666255E+01 -0.10975846714E+02  0.13286683802E+02  0.00000000000E+00 0. -1.
</event>
<event>
 7    1  0.1204848E-011  0.5930196E+02  0.7816164E-02  0.1266605E+00
        -11   -1    0    0    0    0  0.00000000000E+00  0.00000000000E+00  0.45593999997E+02  0.45594000000E+02  0.51100000000E-03 0. -1.
         11   -1    0    0    0    0 -0.00000000000E+00 -0.00000000000E+00 -0.45593999997E+02  0.45594000000E+02  0.51100000000E-03 0.  1.
    9900012    2    1    2    0    0  0.22837379773E+02  0.83164592953E+01 -0.20640016596E+02  0.59301957674E+02  0.50000024888E+02 0.  0.
         12    1    1    2    0    0 -0.22837379773E+02 -0.83164592953E+01  0.20640016596E+02  0.31886042326E+02  0.00000000000E+00 0. -1.
         11    1    3    3    0    0  0.96271999339E+01 -0.11704200895E+02 -0.19246362232E+02  0.24496811151E+02  0.51100000000E-03 0. -1.
        -11    1    3    3    0    0  0.57347374772E-01 -0.36598692969E+01 -0.62905672120E+01  0.72779920378E+01  0.51100000000E-03 0.  1.
         12    1    3    3    0    0  0.13152832464E+02  0.23680529487E+02  0.48969128476E+01  0.27527154485E+02  0.00000000000E+00 0. -1.
</event>
<event>
 7    1  0.1204848E-011  0.5930175E+02  0.7816164E-02  0.1266605E+00
        -11   -1    0    0    0    0  0.00000000000E+00  0.00000000000E+00  0.45593999997E+02  0.45594000000E+02  0.51100000000E-03 0. -1.
         11   -1    0    0    0    0 -0.00000000000E+00 -0.00000000000E+00 -0.45593999997E+02  0.45594000000E+02  0.51100000000E-03 0.  1.
    9900012    2    1    2    0    0 -0.25177393679E+02  0.94033464397E+01 -0.17158346250E+02  0.59301750256E+02  0.49999646605E+02 0.  0.
         12    1    1    2    0    0  0.25177393679E+02 -0.94033464397E+01  0.17158346250E+02  0.31886249744E+02  0.00000000000E+00 0. -1.
         11    1    3    3    0    0 -0.10726355615E+01  0.10077060631E+02 -0.18776208535E+01  0.10306461970E+02  0.51100000000E-03 0. -1.
        -11    1    3    3    0    0 -0.18532020870E+02  0.14926433772E+02 -0.20727378744E+02  0.31557225045E+02  0.51100000000E-03 0.  1.
        -12    1    3    3    0    0 -0.55727372469E+01 -0.15600147963E+02  0.54466533471E+01  0.17438063241E+02  0.00000000000E+00 0.  1.
</event>
<event>
 7    1  0.1204848E-011  0.5930194E+02  0.7816164E-02  0.1266605E+00
        -11   -1    0    0    0    0  0.00000000000E+00  0.00000000000E+00  0.45593999997E+02  0.45594000000E+02  0.51100000000E-03 0.  1.
         11   -1    0    0    0    0 -0.00000000000E+00 -0.00000000000E+00 -0.45593999997E+02  0.45594000000E+02  0.51100000000E-03 0. -1.
    9900012    2    1    2    0    0 -0.11062508670E+02 -0.62000622759E+01  0.29255780593E+02  0.59301943982E+02  0.49999999916E+02 0.  0.
         12    1    1    2    0    0  0.11062508670E+02  0.62000622759E+01 -0.29255780593E+02  0.31886056018E+02  0.00000000000E+00 0. -1.
         11    1    3    3    0    0 -0.15572974209E+02  0.10097485960E+02  0.12370862813E+02  0.22305044170E+02  0.51100000000E-03 0. -1.
        -11    1    3    3    0    0 -0.82297149715E+01  0.20847479077E+01 -0.73924212886E+00  0.85217874614E+01  0.51100000000E-03 0.  1.
        -12    1    3    3    0    0  0.12740180510E+02 -0.18382296143E+02  0.17624159908E+02  0.28475112351E+02  0.00000000000E+00 0.  1.
</event>
<event>
 7    1  0.1204848E-011  0.5930195E+02  0.7816164E-02  0.1266605E+00
        -11   -1    0    0    0    0  0.00000000000E+00  0.00000000000E+00  0.45593999997E+02  0.45594000000E+02  0.51100000000E-03 0.  1.
         11   -1    0    0    0    0 -0.00000000000E+00 -0.00000000000E+00 -0.45593999997E+02  0.45594000000E+02  0.51100000000E-03 0. -1.
    9900012    2    1    2    0    0  0.19611018713E+02 -0.14580245424E+02  0.20482786694E+02  0.59301950350E+02  0.50000011530E+02 0.  0.
         12    1    1    2    0    0 -0.19611018713E+02  0.14580245424E+02 -0.20482786694E+02  0.31886049650E+02  0.00000000000E+00 0. -1.
         11    1    3    3    0    0  0.28290121239E+00  0.35641637089E+00 -0.37451045256E+01  0.37726481276E+01  0.51100000000E-03 0. -1.
        -11    1    3    3    0    0 -0.10450141570E+02 -0.69839337842E+01 -0.45439849942E+01  0.13365200703E+02  0.51100000000E-03 0.  1.
        -12    1    3    3    0    0  0.29778259070E+02 -0.79527280107E+01  0.28771876214E+02  0.42164101519E+02  0.00000000000E+00 0.  1.
</event>
<event>
 7    1  0.1204848E-011  0.5930196E+02  0.7816164E-02  0.1266605E+00
        -11   -1    0    0    0    0  0.00000000000E+00  0.00000000000E+00  0.45593999997E+02  0.45594000000E+02  0.51100000000E-03 0.  1.
         11   -1    0    0    0    0 -0.00000000000E+00 -0.00000000000E+00 -0.45593999997E+02  0.45594000000E+02  0.51100000000E-03 0. -1.
    9900012    2    1    2    0    0 -0.25385590629E+02 -0.17627740436E+02  0.78456444565E+01  0.59301959458E+02  0.50000028142E+02 0.  0.
         12    1    1    2    0    0  0.25385590629E+02  0.17627740436E+02 -0.78456444565E+01  0.31886040542E+02  0.00000000000E+00 0. -1.
         11    1    3    3    0    0 -0.31645641605E+01  0.19076512274E+01 -0.12552045928E+02  0.13084626735E+02  0.51100000000E-03 0. -1.
        -11    1    3    3    0    0 -0.20998697584E+02 -0.32434821449E+00  0.50546327430E+01  0.21600921610E+02  0.51100000000E-03 0.  1.
         12    1    3    3    0    0 -0.12223288846E+01 -0.19211043449E+02  0.15343057642E+02  0.24616411114E+02  0.00000000000E+00 0. -1.
</event>
<event>
 7    1  0.1204848E-011  0.5930190E+02  0.7816164E-02  0.1266605E+00
        -11   -1    0    0    0    0  0.00000000000E+00  0.00000000000E+00  0.45593999997E+02  0.45594000000E+02  0.51100000000E-03 0.  1.
         11   -1    0    0    0    0 -0.00000000000E+00 -0.00000000000E+00 -0.45593999997E+02  0.45594000000E+02  0.51100000000E-03 0. -1.
    9900012    2    1    2    0    0 -0.27672161179E+01  0.23704022103E+02  0.21146748703E+02  0.59301903820E+02  0.49999926671E+02 0.  0.
         12    1    1    2    0    0  0.27672161179E+01 -0.23704022103E+02 -0.21146748703E+02  0.31886096180E+02  0.00000000000E+00 0. -1.
         11    1    3    3    0    0  0.34040983411E+01  0.20456882135E+02 -0.74291487547E+01  0.22028712257E+02  0.51100000000E-03 0. -1.
        -11    1    3    3    0    0  0.81569332330E+01  0.28915785581E+01  0.59957995328E+01  0.10528361631E+02  0.51100000000E-03 0.  1.
        -12    1    3    3    0    0 -0.14328247692E+02  0.35556141002E+00  0.22580097925E+02  0.26744829933E+02  0.00000000000E+00 0.  1.
</event>
<event>
 7    1  0.1204848E-011  0.5930191E+02  0.7816164E-02  0.1266605E+00
        -11   -1    0    0    0    0  0.00000000000E+00  0.00000000000E+00  0.45593999997E+02  0.45594000000E+02  0.51100000000E-03 0.  1.
         11   -1    0    0    0    0 -0.00000000000E+00 -0.00000000000E+00 -0.45593999997E+02  0.45594000000E+02  0.51100000000E-03 0. -1.
    9900012    2    1    2    0    0 -0.24116378671E+02 -0.57737581937E+01  0.20044616214E+02  0.59301911449E+02  0.49999940585E+02 0.  0.
         12    1    1    2    0    0  0.24116378671E+02  0.57737581937E+01 -0.20044616214E+02  0.31886088551E+02  0.00000000000E+00 0. -1.
         11    1    3    3    0    0 -0.78213641989E+00  0.10332957954E+02  0.81239594640E+01  0.13167401987E+02  0.51100000000E-03 0. -1.
        -11    1    3    3    0    0  0.46685073024E+01 -0.15140715423E+02  0.82870589306E+01  0.17880480137E+02  0.51100000000E-03 0.  1.
        -12    1    3    3    0    0 -0.28002749554E+02 -0.96600072480E+00  0.36335978193E+01  0.28254029325E+02  0.00000000000E+00 0.  1.
</event>
<event>
 7    1  0.1204848E-011  0.5930192E+02  0.7816164E-02  0.1266605E+00
        -11   -1    0    0    0    0  0.00000000000E+00  0.00000000000E+00  0.45593999997E+02  0.45594000000E+02  0.51100000000E-03 0. -1.
         11   -1    0    0    0    0 -0.00000000000E+00 -0.00000000000E+00 -0.45593999997E+02  0.45594000000E+02  0.51100000000E-03 0.  1.
    9900012    2    1    2    0    0 -0.18940933414E+02  0.91275085198E+01 -0.23971893969E+02  0.59301920422E+02  0.49999956949E+02 0.  0.
         12    1    1    2    0    0  0.18940933414E+02 -0.91275085198E+01  0.23971893969E+02  0.31886079578E+02  0.00000000000E+00 0. -1.
         11    1    3    3    0    0 -0.74873280512E+01  0.19952013915E+02 -0.20592902025E+02  0.29634617505E+02  0.51100000000E-03 0. -1.
        -11    1    3    3    0    0 -0.11094498044E+01 -0.14260645734E+01 -0.12726020012E+02  0.12853642466E+02  0.51100000000E-03 0.  1.
         12    1    3    3    0    0 -0.10344155558E+02 -0.93984408215E+01  0.93470280673E+01  0.16813660451E+02  0.00000000000E+00 0. -1.
</event>
<event>
 7    1  0.1204848E-011  0.5930197E+02  0.7816164E-02  0.1266605E+00
        -11   -1    0    0    0    0  0.00000000000E+00  0.00000000000E+00  0.45593999997E+02  0.45594000000E+02  0.51100000000E-03 0.  1.
         11   -1    0    0    0    0 -0.00000000000E+00 -0.00000000000E+00 -0.45593999997E+02  0.45594000000E+02  0.51100000000E-03 0. -1.
    9900012    2    1    2    0    0  0.20575639176E+02 -0.12318826987E+02  0.21014478455E+02  0.59301972800E+02  0.50000052474E+02 0.  0.
         12    1    1    2    0    0 -0.20575639176E+02  0.12318826987E+02 -0.21014478455E+02  0.31886027200E+02  0.00000000000E+00 0. -1.
         11    1    3    3    0    0  0.11057391257E+02 -0.10622412765E+01  0.57781886102E+01  0.12521250808E+02  0.51100000000E-03 0. -1.
        -11    1    3    3    0    0  0.11174459658E+02 -0.25457484929E+02  0.30021531748E+01  0.27963637308E+02  0.51100000000E-03 0.  1.
        -12    1    3    3    0    0 -0.16562117387E+01  0.14200899218E+02  0.12234136670E+02  0.18817084684E+02  0.00000000000E+00 0.  1.
</event>
<event>
 7    1  0.1204848E-011  0.5930214E+02  0.7816164E-02  0.1266604E+00
        -11   -1    0    0    0    0  0.00000000000E+00  0.00000000000E+00  0.45593999997E+02  0.45594000000E+02  0.51100000000E-03 0.  1.
         11   -1    0    0    0    0 -0.00000000000E+00 -0.00000000000E+00 -0.45593999997E+02  0.45594000000E+02  0.51100000000E-03 0. -1.
    9900012    2    1    2    0    0 -0.21304490907E+02 -0.10568333913E+02  0.21239979893E+02  0.59302144823E+02  0.50000366202E+02 0.  0.
         12    1    1    2    0    0  0.21304490907E+02  0.10568333913E+02 -0.21239979893E+02  0.31885855177E+02  0.00000000000E+00 0. -1.
         11    1    3    3    0    0  0.57485941012E+01 -0.32480571219E+01 -0.30490642440E+01  0.72727575398E+01  0.51100000000E-03 0. -1.
        -11    1    3    3    0    0 -0.54618757981E+01  0.11207576141E+02  0.19548823555E+02  0.23186167273E+02  0.51100000000E-03 0.  1.
         12    1    3    3    0    0 -0.21591209210E+02 -0.18527852932E+02  0.47402205827E+01  0.28843220010E+02  0.00000000000E+00 0. -1.
</event>
<event>
 7    1  0.1204848E-011  0.5930190E+02  0.7816164E-02  0.1266605E+00
        -11   -1    0    0    0    0  0.00000000000E+00  0.00000000000E+00  0.45593999997E+02  0.45594000000E+02  0.51100000000E-03 0. -1.
         11   -1    0    0    0    0 -0.00000000000E+00 -0.00000000000E+00 -0.45593999997E+02  0.45594000000E+02  0.51100000000E-03 0.  1.
    9900012    2    1    2    0    0  0.27724390798E+02  0.74106127370E+01  0.13898358511E+02  0.59301899649E+02  0.49999919064E+02 0.  0.
         12    1    1    2    0    0 -0.27724390798E+02 -0.74106127370E+01 -0.13898358511E+02  0.31886100351E+02  0.00000000000E+00 0. -1.
         11    1    3    3    0    0 -0.28352858767E+00 -0.37233243745E+01 -0.34155199518E+01  0.50605641642E+01  0.51100000000E-03 0. -1.
        -11    1    3    3    0    0 -0.29319271523E+01 -0.11769714733E+02  0.24473416235E+00  0.12131870293E+02  0.51100000000E-03 0.  1.
         12    1    3    3    0    0  0.30939846538E+02  0.22903651845E+02  0.17069144301E+02  0.42109465192E+02  0.00000000000E+00 0. -1.
</event>
<event>
 7    1  0.1204848E-011  0.5930196E+02  0.7816164E-02  0.1266605E+00
        -11   -1    0    0    0    0  0.00000000000E+00  0.00000000000E+00  0.45593999997E+02  0.45594000000E+02  0.51100000000E-03 0. -1.
         11   -1    0    0    0    0 -0.00000000000E+00 -0.00000000000E+00 -0.45593999997E+02  0.45594000000E+02  0.51100000000E-03 0.  1.
    9900012    2    1    2    0    0  0.19890189752E+02  0.12718157629E+02 -0.21432408267E+02  0.59301963778E+02  0.50000036019E+02 0.  0.
         12    1    1    2    0    0 -0.19890189752E+02 -0.12718157629E+02  0.21432408267E+02  0.31886036222E+02  0.00000000000E+00 0. -1.
         11    1    3    3    0    0 -0.54661868398E+01  0.55240399886E+01 -0.12005421760E+02  0.14301201637E+02  0.51100000000E-03 0. -1.
        -11    1    3    3    0    0 -0.20982295193E+01  0.13604691722E+02 -0.96425934532E+01  0.16806838273E+02  0.51100000000E-03 0.  1.
         12    1    3    3    0    0  0.27454606111E+02 -0.64105740809E+01  0.21560694594E+00  0.28193923868E+02  0.00000000000E+00 0. -1.
</event>
<event>
 7    1  0.1204848E-011  0.5930183E+02  0.7816164E-02  0.1266605E+00
        -11   -1    0    0    0    0  0.00000000000E+00  0.00000000000E+00  0.45593999997E+02  0.45594000000E+02  0.51100000000E-03 0.  1.
         11   -1    0    0    0    0 -0.00000000000E+00 -0.00000000000E+00 -0.45593999997E+02  0.45594000000E+02  0.51100000000E-03 0. -1.
    9900012    2    1    2    0    0 -0.31631936854E+02  0.22617911391E+01 -0.33215087478E+01  0.59301834525E+02  0.49999800294E+02 0.  0.
         12    1    1    2    0    0  0.31631936854E+02 -0.22617911391E+01  0.33215087478E+01  0.31886165475E+02  0.00000000000E+00 0. -1.
         11    1    3    3    0    0  0.62159755409E+01 -0.11174557776E+02  0.15367640407E+00  0.12787990855E+02  0.51100000000E-03 0. -1.
        -11    1    3    3    0    0  0.25024611268E+01 -0.58142918163E+00  0.22510794469E+01  0.34158059842E+01  0.51100000000E-03 0.  1.
        -12    1    3    3    0    0 -0.40350373522E+02  0.14017778097E+02 -0.57262645987E+01  0.43098037686E+02  0.00000000000E+00 0.  1.
</event>
<event>
 7    1  0.1204848E-011  0.5930194E+02  0.7816164E-02  0.1266605E+00
        -11   -1    0    0    0    0  0.00000000000E+00  0.00000000000E+00  0.45593999997E+02  0.45594000000E+02  0.51100000000E-03 0. -1.
         11   -1    0    0    0    0 -0.00000000000E+00 -0.00000000000E+00 -0.45593999997E+02  0.45594000000E+02  0.51100000000E-03 0.  1.
    9900012    2    1    2    0    0  0.31032798671E+01 -0.27320820843E+02 -0.16145058948E+02  0.59301944648E+02  0.50000001131E+02 0.  0.
         12    1    1    2    0    0 -0.31032798671E+01  0.27320820843E+02  0.16145058948E+02  0.31886055352E+02  0.00000000000E+00 0. -1.
         11    1    3    3    0    0 -0.38526217002E+01 -0.45150982292E+01  0.12431637498E+02  0.13775863571E+02  0.51100000000E-03 0. -1.
        -11    1    3    3    0    0 -0.80011072441E+01 -0.10693485439E+02 -0.33017812995E+01  0.13757547310E+02  0.51100000000E-03 0.  1.
        -12    1    3    3    0    0  0.14957008811E+02 -0.12112237175E+02 -0.25274915147E+02  0.31768533766E+02  0.00000000000E+00 0.  1.
</event>
<event>
 7    1  0.1204848E-011  0.5930212E+02  0.7816164E-02  0.1266604E+00
        -11   -1    0    0    0    0  0.00000000000E+00  0.00000000000E+00  0.45593999997E+02  0.45594000000E+02  0.51100000000E-03 0.  1.
         11   -1    0    0    0    0 -0.00000000000E+00 -0.00000000000E+00 -0.45593999997E+02  0.45594000000E+02  0.51100000000E-03 0. -1.
    9900012    2    1    2    0    0  0.23198591257E+02  0.11766466692E+02  0.18441400918E+02  0.59302115309E+02  0.50000312374E+02 0.  0.
         12    1    1    2    0    0 -0.23198591257E+02 -0.11766466692E+02 -0.18441400918E+02  0.31885884691E+02  0.00000000000E+00 0. -1.
         11    1    3    3    0    0  0.54480995129E+01  0.14467115066E+02 -0.56276134040E+01  0.16451420593E+02  0.51100000000E-03 0.  1.
        -11    1    3    3    0    0 -0.34464791191E+01  0.81158261961E+01 -0.25609403469E+00  0.88210224793E+01  0.51100000000E-03 0. -1.
        -12    1    3    3    0    0  0.21196970863E+02 -0.10816474571E+02  0.24325108357E+02  0.34029672236E+02  0.00000000000E+00 0.  1.
</event>
<event>
 7    1  0.1204848E-011  0.5930199E+02  0.7816164E-02  0.1266605E+00
        -11   -1    0    0    0    0  0.00000000000E+00  0.00000000000E+00  0.45593999997E+02  0.45594000000E+02  0.51100000000E-03 0. -1.
         11   -1    0    0    0    0 -0.00000000000E+00 -0.00000000000E+00 -0.45593999997E+02  0.45594000000E+02  0.51100000000E-03 0.  1.
    9900012    2    1    2    0    0 -0.42518849940E+01 -0.27280666727E+02 -0.15950051928E+02  0.59301992731E+02  0.50000088823E+02 0.  0.
         12    1    1    2    0    0  0.42518849940E+01  0.27280666727E+02  0.15950051928E+02  0.31886007269E+02  0.00000000000E+00 0. -1.
         11    1    3    3    0    0 -0.17397765084E+01 -0.45819858369E+01 -0.10478767414E+02  0.11568318084E+02  0.51100000000E-03 0. -1.
        -11    1    3    3    0    0  0.44119772558E+01 -0.16178757077E+02 -0.22599765391E+02  0.28141910381E+02  0.51100000000E-03 0.  1.
         12    1    3    3    0    0 -0.69240857414E+01 -0.65199238128E+01  0.17128480878E+02  0.19591764266E+02  0.00000000000E+00 0. -1.
</event>
<event>
 7    1  0.1204848E-011  0.5930198E+02  0.7816164E-02  0.1266605E+00
        -11   -1    0    0    0    0  0.00000000000E+00  0.00000000000E+00  0.45593999997E+02  0.45594000000E+02  0.51100000000E-03 0. -1.
         11   -1    0    0    0    0 -0.00000000000E+00 -0.00000000000E+00 -0.45593999997E+02  0.45594000000E+02  0.51100000000E-03 0.  1.
    9900012    2    1    2    0    0  0.26277480213E+01 -0.22502129170E+02 -0.22438075891E+02  0.59301982272E+02  0.50000069748E+02 0.  0.
         12    1    1    2    0    0 -0.26277480213E+01  0.22502129170E+02  0.22438075891E+02  0.31886017728E+02  0.00000000000E+00 0. -1.
         11    1    3    3    0    0 -0.64097140589E+01  0.66155627983E+00  0.58571996526E+01  0.87079778973E+01  0.51100000000E-03 0. -1.
        -11    1    3    3    0    0 -0.11397345010E+02 -0.10234181274E+02 -0.19646283909E+02  0.24912133817E+02  0.51100000000E-03 0.  1.
        -12    1    3    3    0    0  0.20434807090E+02 -0.12929504176E+02 -0.86489916352E+01  0.25681870557E+02  0.00000000000E+00 0.  1.
</event>
<event>
 7    1  0.1237535E-011  0.5930198E+02  0.7816164E-02  0.1266605E+00
        -11   -1    0    0    0    0  0.00000000000E+00  0.00000000000E+00  0.45593999997E+02  0.45594000000E+02  0.51100000000E-03 0.  1.
         11   -1    0    0    0    0 -0.00000000000E+00 -0.00000000000E+00 -0.45593999997E+02  0.45594000000E+02  0.51100000000E-03 0. -1.
    9900012    2    1    2    0    0 -0.14243531651E+02  0.22459179938E+02  0.17590482026E+02  0.59301984017E+02  0.50000072930E+02 0.  0.
         12    1    1    2    0    0  0.14243531651E+02 -0.22459179938E+02 -0.17590482026E+02  0.31886015983E+02  0.00000000000E+00 0. -1.
         11    1    3    3    0    0 -0.57885029685E+01  0.14904862740E+02 -0.94064772030E+01  0.18551105453E+02  0.51100000000E-03 0. -1.
        -11    1    3    3    0    0  0.98075044662E+01 -0.37936727855E+00  0.47795924737E+01  0.10916756289E+02  0.51100000000E-03 0.  1.
        -12    1    3    3    0    0 -0.18262533148E+02  0.79336844769E+01  0.22217366756E+02  0.29834122275E+02  0.00000000000E+00 0.  1.
</event>
<event>
 7    1  0.1204848E-011  0.5930193E+02  0.7816164E-02  0.1266605E+00
        -11   -1    0    0    0    0  0.00000000000E+00  0.00000000000E+00  0.45593999997E+02  0.45594000000E+02  0.51100000000E-03 0. -1.
         11   -1    0    0    0    0 -0.00000000000E+00 -0.00000000000E+00 -0.45593999997E+02  0.45594000000E+02  0.51100000000E-03 0.  1.
    9900012    2    1    2    0    0  0.31300451096E+02 -0.60611730502E+01 -0.51523988460E+00  0.59301928907E+02  0.49999972424E+02 0.  0.
         12    1    1    2    0    0 -0.31300451096E+02  0.60611730502E+01  0.51523988460E+00  0.31886071093E+02  0.00000000000E+00 0. -1.
         11    1    3    3    0    0 -0.34211627033E+00 -0.10872731973E+02 -0.86508291552E+01  0.13898567891E+02  0.51100000000E-03 0. -1.
        -11    1    3    3    0    0 -0.21674664923E+01 -0.67531557988E+01 -0.33851195700E+01  0.78588840813E+01  0.51100000000E-03 0.  1.
         12    1    3    3    0    0  0.33810033859E+02  0.11564714721E+02  0.11520708841E+02  0.37544476935E+02  0.00000000000E+00 0. -1.
</event>
<event>
 7    1  0.1204848E-011  0.5930195E+02  0.7816164E-02  0.1266605E+00
        -11   -1    0    0    0    0  0.00000000000E+00  0.00000000000E+00  0.45593999997E+02  0.45594000000E+02  0.51100000000E-03 0.  1.
         11   -1    0    0    0    0 -0.00000000000E+00 -0.00000000000E+00 -0.45593999997E+02  0.45594000000E+02  0.51100000000E-03 0. -1.
    9900012    2    1    2    0    0  0.13673304437E+02  0.16482456955E+02  0.23623917766E+02  0.59301950823E+02  0.50000012394E+02 0.  0.
         12    1    1    2    0    0 -0.13673304437E+02 -0.16482456955E+02 -0.23623917766E+02  0.31886049177E+02  0.00000000000E+00 0. -1.
         11    1    3    3    0    0 -0.57903024539E+01 -0.79304286959E+00 -0.18303791909E+01  0.61242801817E+01  0.51100000000E-03 0. -1.
        -11    1    3    3    0    0  0.14709631534E+02  0.28171610965E+02  0.26311119426E+02  0.41258792153E+02  0.51100000000E-03 0.  1.
         12    1    3    3    0    0  0.47539753569E+01 -0.10896111141E+02 -0.85682246928E+00  0.11918878489E+02  0.00000000000E+00 0. -1.
</event>
<event>
 7    1  0.1204848E-011  0.5930195E+02  0.7816164E-02  0.1266605E+00
        -11   -1    0    0    0    0  0.00000000000E+00  0.00000000000E+00  0.45593999997E+02  0.45594000000E+02  0.51100000000E-03 0. -1.
         11   -1    0    0    0    0 -0.00000000000E+00 -0.00000000000E+00 -0.45593999997E+02  0.45594000000E+02  0.51100000000E-03 0.  1.
    9900012    2    1    2    0    0  0.11111608338E+01  0.23975857092E+02 -0.20991522764E+02  0.59301946157E+02  0.50000003883E+02 0.  0.
         12    1    1    2    0    0 -0.11111608338E+01 -0.23975857092E+02  0.20991522764E+02  0.31886053843E+02  0.00000000000E+00 0. -1.
         11    1    3    3    0    0  0.38696055878E+01 -0.36689912062E+01 -0.10896822464E+01  0.54426787096E+01  0.51100000000E-03 0. -1.
        -11    1    3    3    0    0 -0.15391325089E+02  0.25598526356E+01 -0.20505129229E+02  0.25766374570E+02  0.51100000000E-03 0.  1.
         12    1    3    3    0    0  0.12632880335E+02  0.25084995663E+02  0.60328871107E+00  0.28092892878E+02  0.00000000000E+00 0. -1.
</event>
<event>
 7    1  0.1204848E-011  0.5930193E+02  0.7816164E-02  0.1266605E+00
        -11   -1    0    0    0    0  0.00000000000E+00  0.00000000000E+00  0.45593999997E+02  0.45594000000E+02  0.51100000000E-03 0. -1.
         11   -1    0    0    0    0 -0.00000000000E+00 -0.00000000000E+00 -0.45593999997E+02  0.45594000000E+02  0.51100000000E-03 0.  1.
    9900012    2    1    2    0    0 -0.15533499399E+02 -0.15951631032E+02 -0.22824931788E+02  0.59301927063E+02  0.49999969061E+02 0.  0.
         12    1    1    2    0    0  0.15533499399E+02  0.15951631032E+02  0.22824931788E+02  0.31886072937E+02  0.00000000000E+00 0. -1.
         11    1    3    3    0    0 -0.98296853911E+01 -0.44422732279E+01  0.75804381838E+01  0.13184064231E+02  0.51100000000E-03 0. -1.
        -11    1    3    3    0    0 -0.10519140412E+02 -0.48412373129E+01  0.27963043777E+01  0.11912565306E+02  0.51100000000E-03 0.  1.
        -12    1    3    3    0    0  0.48153264039E+01 -0.66681204914E+01 -0.33201674350E+02  0.34205297527E+02  0.00000000000E+00 0.  1.
</event>
<event>
 7    1  0.1204848E-011  0.5930194E+02  0.7816164E-02  0.1266605E+00
        -11   -1    0    0    0    0  0.00000000000E+00  0.00000000000E+00  0.45593999997E+02  0.45594000000E+02  0.51100000000E-03 0. -1.
         11   -1    0    0    0    0 -0.00000000000E+00 -0.00000000000E+00 -0.45593999997E+02  0.45594000000E+02  0.51100000000E-03 0.  1.
    9900012    2    1    2    0    0 -0.80366175454E+01 -0.21228041973E+02  0.22394277692E+02  0.59301942530E+02  0.49999997269E+02 0.  0.
         12    1    1    2    0    0  0.80366175454E+01  0.21228041973E+02 -0.22394277692E+02  0.31886057470E+02  0.00000000000E+00 0. -1.
         11    1    3    3    0    0 -0.30469527335E+01  0.49901308289E+01  0.14265295205E+02  0.15417002763E+02  0.51100000000E-03 0. -1.
        -11    1    3    3    0    0 -0.16925308245E+02 -0.25686226968E+02  0.85590889235E+01  0.31929709026E+02  0.51100000000E-03 0.  1.
         12    1    3    3    0    0  0.11935643433E+02 -0.53194583443E+00 -0.43010643619E+00  0.11955230741E+02  0.00000000000E+00 0. -1.
</event>
<event>
 7    1  0.1204848E-011  0.5930203E+02  0.7816164E-02  0.1266604E+00
        -11   -1    0    0    0    0  0.00000000000E+00  0.00000000000E+00  0.45593999997E+02  0.45594000000E+02  0.51100000000E-03 0.  1.
         11   -1    0    0    0    0 -0.00000000000E+00 -0.00000000000E+00 -0.45593999997E+02  0.45594000000E+02  0.51100000000E-03 0. -1.
    9900012    2    1    2    0    0 -0.14013547899E+02 -0.23296252732E+02  0.16661940769E+02  0.59302028378E+02  0.50000153835E+02 0.  0.
         12    1    1    2    0    0  0.14013547899E+02  0.23296252732E+02 -0.16661940769E+02  0.31885971622E+02  0.00000000000E+00 0. -1.
         11    1    3    3    0    0 -0.12062834120E+02 -0.46172116357E+01  0.14749596777E+02  0.19605642444E+02  0.51100000000E-03 0. -1.
        -11    1    3    3    0    0  0.12887757275E+02 -0.67874129858E+01  0.11351720763E+02  0.18466857533E+02  0.51100000000E-03 0.  1.
         12    1    3    3    0    0 -0.14838471053E+02 -0.11891628111E+02 -0.94393767703E+01  0.21229528401E+02  0.00000000000E+00 0. -1.
</event>
<event>
 7    1  0.1204848E-011  0.5930195E+02  0.7816164E-02  0.1266605E+00
        -11   -1    0    0    0    0  0.00000000000E+00  0.00000000000E+00  0.45593999997E+02  0.45594000000E+02  0.51100000000E-03 0.  1.
         11   -1    0    0    0    0 -0.00000000000E+00 -0.00000000000E+00 -0.45593999997E+02  0.45594000000E+02  0.51100000000E-03 0. -1.
    9900012    2    1    2    0    0  0.23922465260E+02 -0.15842048546E+02 -0.13909184397E+02  0.59301948867E+02  0.50000008826E+02 0.  0.
         12    1    1    2    0    0 -0.23922465260E+02  0.15842048546E+02  0.13909184397E+02  0.31886051133E+02  0.00000000000E+00 0. -1.
         11    1    3    3    0    0 -0.23107715326E+01 -0.53667865727E+00 -0.84236177088E+01  0.87512870266E+01  0.51100000000E-03 0. -1.
        -11    1    3    3    0    0 -0.36186174976E+01 -0.33688658671E+01 -0.15983157667E+02  0.16730360997E+02  0.51100000000E-03 0.  1.
        -12    1    3    3    0    0  0.29851854290E+02 -0.11936504022E+02  0.10497590978E+02  0.33820300844E+02  0.00000000000E+00 0.  1.
</event>
<event>
 7    1  0.1204848E-011  0.5930195E+02  0.7816164E-02  0.1266605E+00
        -11   -1    0    0    0    0  0.00000000000E+00  0.00000000000E+00  0.45593999997E+02  0.45594000000E+02  0.51100000000E-03 0.  1.
         11   -1    0    0    0    0 -0.00000000000E+00 -0.00000000000E+00 -0.45593999997E+02  0.45594000000E+02  0.51100000000E-03 0. -1.
    9900012    2    1    2    0    0  0.32692130012E+01  0.13055960335E+02  0.28906306701E+02  0.59301946293E+02  0.50000004132E+02 0.  0.
         12    1    1    2    0    0 -0.32692130012E+01 -0.13055960335E+02 -0.28906306701E+02  0.31886053707E+02  0.00000000000E+00 0. -1.
         11    1    3    3    0    0  0.85262158975E+01 -0.10961258646E+02  0.88191964208E+01  0.16450646626E+02  0.51100000000E-03 0. -1.
        -11    1    3    3    0    0  0.65599963325E+01 -0.24820271306E+01  0.98325931144E+01  0.12077826716E+02  0.51100000000E-03 0.  1.
        -12    1    3    3    0    0 -0.11816999229E+02  0.26499246111E+02  0.10254517165E+02  0.30773472952E+02  0.00000000000E+00 0.  1.
</event>
<event>
 7    1  0.1204848E-011  0.5930195E+02  0.7816164E-02  0.1266605E+00
        -11   -1    0    0    0    0  0.00000000000E+00  0.00000000000E+00  0.45593999997E+02  0.45594000000E+02  0.51100000000E-03 0. -1.
         11   -1    0    0    0    0 -0.00000000000E+00 -0.00000000000E+00 -0.45593999997E+02  0.45594000000E+02  0.51100000000E-03 0.  1.
    9900012    2    1    2    0    0 -0.25352006064E+02  0.19223088814E+02  0.21139252077E+01  0.59301952349E+02  0.50000015175E+02 0.  0.
         12    1    1    2    0    0  0.25352006064E+02 -0.19223088814E+02 -0.21139252077E+01  0.31886047651E+02  0.00000000000E+00 0. -1.
         11    1    3    3    0    0 -0.20639759987E+01  0.14177118554E+02 -0.11130730453E+02  0.18142322015E+02  0.51100000000E-03 0. -1.
        -11    1    3    3    0    0 -0.92302999020E+01  0.14107698195E+02 -0.37975088161E+01  0.17281396301E+02  0.51100000000E-03 0.  1.
         12    1    3    3    0    0 -0.14057730164E+02 -0.90617279339E+01  0.17042164477E+02  0.23878234033E+02  0.00000000000E+00 0. -1.
</event>
<event>
 7    1  0.1204848E-011  0.5930196E+02  0.7816164E-02  0.1266605E+00
        -11   -1    0    0    0    0  0.00000000000E+00  0.00000000000E+00  0.45593999997E+02  0.45594000000E+02  0.51100000000E-03 0. -1.
         11   -1    0    0    0    0 -0.00000000000E+00 -0.00000000000E+00 -0.45593999997E+02  0.45594000000E+02  0.51100000000E-03 0.  1.
    9900012    2    1    2    0    0 -0.24902908923E+02  0.18531218427E+02 -0.72910023717E+01  0.59301958464E+02  0.50000026329E+02 0.  0.
         12    1    1    2    0    0  0.24902908923E+02 -0.18531218427E+02  0.72910023717E+01  0.31886041536E+02  0.00000000000E+00 0. -1.
         11    1    3    3    0    0 -0.16500135615E+02  0.12167441504E+02 -0.12377329637E+02  0.23947847446E+02  0.51100000000E-03 0. -1.
        -11    1    3    3    0    0 -0.82932423930E+01  0.19691128688E+02  0.90364823875E+00  0.21385392182E+02  0.51100000000E-03 0.  1.
         12    1    3    3    0    0 -0.10953091491E+00 -0.13327351764E+02  0.41826790269E+01  0.13968718836E+02  0.00000000000E+00 0. -1.
</event>
<event>
 7    1  0.1204848E-011  0.5930184E+02  0.7816164E-02  0.1266605E+00
        -11   -1    0    0    0    0  0.00000000000E+00  0.00000000000E+00  0.45593999997E+02  0.45594000000E+02  0.51100000000E-03 0. -1.
         11   -1    0    0    0    0 -0.00000000000E+00 -0.00000000000E+00 -0.45593999997E+02  0.45594000000E+02  0.51100000000E-03 0.  1.
    9900012    2    1    2    0    0 -0.17495729351E+02 -0.58112304854E+01 -0.26016457958E+02  0.59301842659E+02  0.49999815128E+02 0.  0.
         12    1    1    2    0    0  0.17495729351E+02  0.58112304854E+01  0.26016457958E+02  0.31886157341E+02  0.00000000000E+00 0. -1.
         11    1    3    3    0    0  0.80881542787E+01 -0.11027997634E+02 -0.89335498876E+01  0.16335338543E+02  0.51100000000E-03 0. -1.
        -11    1    3    3    0    0 -0.47663177709E+01 -0.11159954579E+02 -0.14793320200E+01  0.12225006944E+02  0.51100000000E-03 0.  1.
        -12    1    3    3    0    0 -0.20817565859E+02  0.16376721727E+02 -0.15603576051E+02  0.30741497172E+02  0.00000000000E+00 0.  1.
</event>
<event>
 7    1  0.1204848E-011  0.5930195E+02  0.7816164E-02  0.1266605E+00
        -11   -1    0    0    0    0  0.00000000000E+00  0.00000000000E+00  0.45593999997E+02  0.45594000000E+02  0.51100000000E-03 0.  1.
         11   -1    0    0    0    0 -0.00000000000E+00 -0.00000000000E+00 -0.45593999997E+02  0.45594000000E+02  0.51100000000E-03 0. -1.
    9900012    2    1    2    0    0 -0.18678513976E+02 -0.44052288658E+01  0.25464239749E+02  0.59301946125E+02  0.50000003825E+02 0.  0.
         12    1    1    2    0    0  0.18678513976E+02  0.44052288658E+01 -0.25464239749E+02  0.31886053875E+02  0.00000000000E+00 0. -1.
         11    1    3    3    0    0 -0.33955379790E+01  0.60217378182E+01 -0.26032675331E+01  0.73870160842E+01  0.51100000000E-03 0. -1.
        -11    1    3    3    0    0 -0.52682050773E+01 -0.17182161134E+02 -0.33265389279E+01  0.18276939226E+02  0.51100000000E-03 0.  1.
        -12    1    3    3    0    0 -0.10014770920E+02  0.67551944502E+01  0.31394046210E+02  0.33637990815E+02  0.00000000000E+00 0.  1.
</event>
<event>
 7    1  0.1204848E-011  0.5930196E+02  0.7816164E-02  0.1266605E+00
        -11   -1    0    0    0    0  0.00000000000E+00  0.00000000000E+00  0.45593999997E+02  0.45594000000E+02  0.51100000000E-03 0. -1.
         11   -1    0    0    0    0 -0.00000000000E+00 -0.00000000000E+00 -0.45593999997E+02  0.45594000000E+02  0.51100000000E-03 0.  1.
    9900012    2    1    2    0    0  0.15923760880E+02  0.11957373858E+02 -0.24903302863E+02  0.59301961619E+02  0.50000032083E+02 0.  0.
         12    1    1    2    0    0 -0.15923760880E+02 -0.11957373858E+02  0.24903302863E+02  0.31886038381E+02  0.00000000000E+00 0. -1.
         11    1    3    3    0    0  0.82945787197E+01 -0.10062178634E+01 -0.55760125572E+01  0.10045119553E+02  0.51100000000E-03 0. -1.
        -11    1    3    3    0    0  0.55009435685E+01 -0.13662365282E+02  0.22761892548E+01  0.14903074952E+02  0.51100000000E-03 0.  1.
         12    1    3    3    0    0  0.21282385921E+01  0.26625957004E+02 -0.21603479560E+02  0.34353767115E+02  0.00000000000E+00 0. -1.
</event>
<event>
 7    1  0.1204848E-011  0.5930191E+02  0.7816164E-02  0.1266605E+00
        -11   -1    0    0    0    0  0.00000000000E+00  0.00000000000E+00  0.45593999997E+02  0.45594000000E+02  0.51100000000E-03 0. -1.
         11   -1    0    0    0    0 -0.00000000000E+00 -0.00000000000E+00 -0.45593999997E+02  0.45594000000E+02  0.51100000000E-03 0.  1.
    9900012    2    1    2    0    0 -0.29970199753E+02  0.51283020107E+01 -0.96026179947E+01  0.59301911700E+02  0.49999941042E+02 0.  0.
         12    1    1    2    0    0  0.29970199753E+02 -0.51283020107E+01  0.96026179947E+01  0.31886088300E+02  0.00000000000E+00 0. -1.
         11    1    3    3    0    0 -0.16979975232E+01 -0.53761919487E-01  0.40466440015E+01  0.43887827321E+01  0.51100000000E-03 0. -1.
        -11    1    3    3    0    0 -0.25961218194E+02 -0.96929544015E+01  0.77265375190E+01  0.28768691271E+02  0.51100000000E-03 0.  1.
         12    1    3    3    0    0 -0.23109840353E+01  0.14875018332E+02 -0.21375799515E+02  0.26144437697E+02  0.00000000000E+00 0. -1.
</event>
<event>
 7    1  0.1204848E-011  0.5930189E+02  0.7816164E-02  0.1266605E+00
        -11   -1    0    0    0    0  0.00000000000E+00  0.00000000000E+00  0.45593999997E+02  0.45594000000E+02  0.51100000000E-03 0.  1.
         11   -1    0    0    0    0 -0.00000000000E+00 -0.00000000000E+00 -0.45593999997E+02  0.45594000000E+02  0.51100000000E-03 0. -1.
    9900012    2    1    2    0    0  0.20232714443E+02  0.20229291516E+02 -0.14076106244E+02  0.59301894312E+02  0.49999909330E+02 0.  0.
         12    1    1    2    0    0 -0.20232714443E+02 -0.20229291516E+02  0.14076106244E+02  0.31886105688E+02  0.00000000000E+00 0. -1.
         11    1    3    3    0    0  0.37134016262E+01  0.10968007005E+02 -0.15944014025E+02  0.19705281343E+02  0.51100000000E-03 0. -1.
        -11    1    3    3    0    0 -0.37665827010E+01  0.75903337288E+01 -0.12199751477E+02  0.14853762073E+02  0.51100000000E-03 0.  1.
        -12    1    3    3    0    0  0.20285895517E+02  0.16709507828E+01  0.14067659259E+02  0.24742850896E+02  0.00000000000E+00 0.  1.
</event>
<event>
 7    1  0.1204848E-011  0.5930197E+02  0.7816164E-02  0.1266605E+00
        -11   -1    0    0    0    0  0.00000000000E+00  0.00000000000E+00  0.45593999997E+02  0.45594000000E+02  0.51100000000E-03 0.  1.
         11   -1    0    0    0    0 -0.00000000000E+00 -0.00000000000E+00 -0.45593999997E+02  0.45594000000E+02  0.51100000000E-03 0. -1.
    9900012    2    1    2    0    0  0.79853628250E+01 -0.29769287429E+01  0.30726061059E+02  0.59301969323E+02  0.50000046132E+02 0.  0.
         12    1    1    2    0    0 -0.79853628250E+01  0.29769287429E+01 -0.30726061059E+02  0.31886030677E+02  0.00000000000E+00 0. -1.
         11    1    3    3    0    0  0.72993807302E+01  0.13982710702E+02  0.70254735656E+01  0.17267149061E+02  0.51100000000E-03 0. -1.
        -11    1    3    3    0    0  0.48227648279E+01  0.54028837089E+01 -0.21979793153E+01  0.75684427915E+01  0.51100000000E-03 0.  1.
        -12    1    3    3    0    0 -0.41367827331E+01 -0.22362523154E+02  0.25898566808E+02  0.34466377470E+02  0.00000000000E+00 0.  1.
</event>
<event>
 7    1  0.1204848E-011  0.5930194E+02  0.7816164E-02  0.1266605E+00
        -11   -1    0    0    0    0  0.00000000000E+00  0.00000000000E+00  0.45593999997E+02  0.45594000000E+02  0.51100000000E-03 0. -1.
         11   -1    0    0    0    0 -0.00000000000E+00 -0.00000000000E+00 -0.45593999997E+02  0.45594000000E+02  0.51100000000E-03 0.  1.
    9900012    2    1    2    0    0 -0.18659768422E+02 -0.18738656327E+02 -0.17815630001E+02  0.59301939239E+02  0.49999991267E+02 0.  0.
         12    1    1    2    0    0  0.18659768422E+02  0.18738656327E+02  0.17815630001E+02  0.31886060761E+02  0.00000000000E+00 0. -1.
         11    1    3    3    0    0  0.58691367395E+01 -0.25578757710E+01 -0.16726176249E+01  0.66171855427E+01  0.51100000000E-03 0. -1.
        -11    1    3    3    0    0  0.65038282092E+01  0.70425860130E+01 -0.92402818774E+01  0.13314676435E+02  0.51100000000E-03 0.  1.
        -12    1    3    3    0    0 -0.31032733370E+02 -0.23223366569E+02 -0.69027304990E+01  0.39370077262E+02  0.00000000000E+00 0.  1.
</event>
<event>
 7    1  0.1204848E-011  0.5930195E+02  0.7816164E-02  0.1266605E+00
        -11   -1    0    0    0    0  0.00000000000E+00  0.00000000000E+00  0.45593999997E+02  0.45594000000E+02  0.51100000000E-03 0. -1.
         11   -1    0    0    0    0 -0.00000000000E+00 -0.00000000000E+00 -0.45593999997E+02  0.45594000000E+02  0.51100000000E-03 0.  1.
    9900012    2    1    2    0    0  0.59846265440E+01  0.24331352794E+02  0.19720287700E+02  0.59301949278E+02  0.50000009576E+02 0.  0.
         12    1    1    2    0    0 -0.59846265440E+01 -0.24331352794E+02 -0.19720287700E+02  0.31886050722E+02  0.00000000000E+00 0. -1.
         11    1    3    3    0    0  0.21562873457E+02  0.18922572946E+02  0.12002896835E+02  0.31098083725E+02  0.51100000000E-03 0. -1.
        -11    1    3    3    0    0  0.43463545864E+01  0.30336084238E+01  0.60882053345E+01  0.80721634470E+01  0.51100000000E-03 0.  1.
        -12    1    3    3    0    0 -0.19924601500E+02  0.23751714236E+01  0.16291855305E+01  0.20131702107E+02  0.00000000000E+00 0.  1.
</event>
<event>
 7    1  0.1204848E-011  0.5930194E+02  0.7816164E-02  0.1266605E+00
        -11   -1    0    0    0    0  0.00000000000E+00  0.00000000000E+00  0.45593999997E+02  0.45594000000E+02  0.51100000000E-03 0.  1.
         11   -1    0    0    0    0 -0.00000000000E+00 -0.00000000000E+00 -0.45593999997E+02  0.45594000000E+02  0.51100000000E-03 0. -1.
    9900012    2    1    2    0    0 -0.19474580754E+02 -0.72755072733E+01  0.24177029897E+02  0.59301936017E+02  0.49999985391E+02 0.  0.
         12    1    1    2    0    0  0.19474580754E+02  0.72755072733E+01 -0.24177029897E+02  0.31886063983E+02  0.00000000000E+00 0. -1.
         11    1    3    3    0    0  0.36387181568E+01  0.14371631670E+02  0.12926884403E+02  0.19669479081E+02  0.51100000000E-03 0. -1.
        -11    1    3    3    0    0 -0.45603401583E+01  0.89173805519E+00 -0.44944040689E+01  0.64646397668E+01  0.51100000000E-03 0.  1.
        -12    1    3    3    0    0 -0.18552958753E+02 -0.22538876999E+02  0.15744549563E+02  0.33167817170E+02  0.00000000000E+00 0.  1.
</event>
<event>
 7    1  0.1204848E-011  0.5930196E+02  0.7816164E-02  0.1266605E+00
        -11   -1    0    0    0    0  0.00000000000E+00  0.00000000000E+00  0.45593999997E+02  0.45594000000E+02  0.51100000000E-03 0.  1.
         11   -1    0    0    0    0 -0.00000000000E+00 -0.00000000000E+00 -0.45593999997E+02  0.45594000000E+02  0.51100000000E-03 0. -1.
    9900012    2    1    2    0    0  0.87565518568E+01 -0.17391525651E+02  0.25250292901E+02  0.59301958281E+02  0.50000025995E+02 0.  0.
         12    1    1    2    0    0 -0.87565518568E+01  0.17391525651E+02 -0.25250292901E+02  0.31886041719E+02  0.00000000000E+00 0. -1.
         11    1    3    3    0    0  0.14367566262E+02 -0.67418604159E+01 -0.73017048192E+01  0.17469817849E+02  0.51100000000E-03 0. -1.
        -11    1    3    3    0    0  0.14123428123E+01  0.11553524737E+01  0.26926973357E+02  0.26988728129E+02  0.51100000000E-03 0.  1.
        -12    1    3    3    0    0 -0.70233572176E+01 -0.11805017709E+02  0.56250243631E+01  0.14843412303E+02  0.00000000000E+00 0.  1.
</event>
<event>
 7    1  0.1204848E-011  0.5930194E+02  0.7816164E-02  0.1266605E+00
        -11   -1    0    0    0    0  0.00000000000E+00  0.00000000000E+00  0.45593999997E+02  0.45594000000E+02  0.51100000000E-03 0.  1.
         11   -1    0    0    0    0 -0.00000000000E+00 -0.00000000000E+00 -0.45593999997E+02  0.45594000000E+02  0.51100000000E-03 0. -1.
    9900012    2    1    2    0    0 -0.27861320774E+02  0.10847587124E+01 -0.15469038276E+02  0.59301936557E+02  0.49999986375E+02 0.  0.
         12    1    1    2    0    0  0.27861320774E+02 -0.10847587124E+01  0.15469038276E+02  0.31886063443E+02  0.00000000000E+00 0. -1.
         11    1    3    3    0    0 -0.21387869584E+01  0.68937081789E+01  0.18139374241E+01  0.74423108877E+01  0.51100000000E-03 0. -1.
        -11    1    3    3    0    0 -0.26839883304E+02  0.12825423099E+02 -0.70488408786E+01  0.30570524553E+02  0.51100000000E-03 0.  1.
         12    1    3    3    0    0  0.11173494890E+01 -0.18634372566E+02 -0.10234134821E+02  0.21289101116E+02  0.00000000000E+00 0. -1.
</event>
<event>
 7    1  0.1204848E-011  0.5930201E+02  0.7816164E-02  0.1266605E+00
        -11   -1    0    0    0    0  0.00000000000E+00  0.00000000000E+00  0.45593999997E+02  0.45594000000E+02  0.51100000000E-03 0. -1.
         11   -1    0    0    0    0 -0.00000000000E+00 -0.00000000000E+00 -0.45593999997E+02  0.45594000000E+02  0.51100000000E-03 0.  1.
    9900012    2    1    2    0    0  0.26668319685E+02 -0.27928037514E+01 -0.17254485574E+02  0.59302010914E+02  0.50000121984E+02 0.  0.
         12    1    1    2    0    0 -0.26668319685E+02  0.27928037514E+01  0.17254485574E+02  0.31885989086E+02  0.00000000000E+00 0. -1.
         11    1    3    3    0    0  0.63351286676E+01 -0.11299214752E+00 -0.62259262149E+01  0.88830614067E+01  0.51100000000E-03 0.  1.
        -11    1    3    3    0    0  0.10956124375E+02  0.98383172113E+01 -0.25282124778E+02  0.29257733686E+02  0.51100000000E-03 0. -1.
         12    1    3    3    0    0  0.93770666427E+01 -0.12518128815E+02  0.14253565420E+02  0.21161215821E+02  0.00000000000E+00 0. -1.
</event>
<event>
 7    1  0.1204848E-011  0.5930202E+02  0.7816164E-02  0.1266605E+00
        -11   -1    0    0    0    0  0.00000000000E+00  0.00000000000E+00  0.45593999997E+02  0.45594000000E+02  0.51100000000E-03 0.  1.
         11   -1    0    0    0    0 -0.00000000000E+00 -0.00000000000E+00 -0.45593999997E+02  0.45594000000E+02  0.51100000000E-03 0. -1.
    9900012    2    1    2    0    0 -0.10952333253E+02  0.19444826808E+02  0.22774127351E+02  0.59302019227E+02  0.50000137145E+02 0.  0.
         12    1    1    2    0    0  0.10952333253E+02 -0.19444826808E+02 -0.22774127351E+02  0.31885980773E+02  0.00000000000E+00 0. -1.
         11    1    3    3    0    0 -0.98003664322E+01  0.10487054259E+02  0.28121104827E+02  0.31572488439E+02  0.51100000000E-03 0. -1.
        -11    1    3    3    0    0  0.47652470247E-01  0.68474225923E+01  0.10039683905E+02  0.12152560228E+02  0.51100000000E-03 0.  1.
         12    1    3    3    0    0 -0.11996192910E+01  0.21103499563E+01 -0.15386661381E+02  0.15576970561E+02  0.00000000000E+00 0. -1.
</event>
<event>
 7    1  0.1204848E-011  0.5930194E+02  0.7816164E-02  0.1266605E+00
        -11   -1    0    0    0    0  0.00000000000E+00  0.00000000000E+00  0.45593999997E+02  0.45594000000E+02  0.51100000000E-03 0. -1.
         11   -1    0    0    0    0 -0.00000000000E+00 -0.00000000000E+00 -0.45593999997E+02  0.45594000000E+02  0.51100000000E-03 0.  1.
    9900012    2    1    2    0    0 -0.17398211826E+02 -0.13621695792E+02 -0.22988534459E+02  0.59301935841E+02  0.49999985069E+02 0.  0.
         12    1    1    2    0    0  0.17398211826E+02  0.13621695792E+02  0.22988534459E+02  0.31886064159E+02  0.00000000000E+00 0. -1.
         11    1    3    3    0    0 -0.43226226528E+01 -0.13348697542E+02 -0.22126584935E+00  0.14032881084E+02  0.51100000000E-03 0. -1.
        -11    1    3    3    0    0 -0.20450536117E+02 -0.29921735776E+01  0.53663694861E+00  0.20675239047E+02  0.51100000000E-03 0.  1.
        -12    1    3    3    0    0  0.73749469439E+01  0.27191753275E+01 -0.23303905559E+02  0.24593815710E+02  0.00000000000E+00 0.  1.
</event>
<event>
 7    1  0.1204848E-011  0.5930197E+02  0.7816164E-02  0.1266605E+00
        -11   -1    0    0    0    0  0.00000000000E+00  0.00000000000E+00  0.45593999997E+02  0.45594000000E+02  0.51100000000E-03 0.  1.
         11   -1    0    0    0    0 -0.00000000000E+00 -0.00000000000E+00 -0.45593999997E+02  0.45594000000E+02  0.51100000000E-03 0. -1.
    9900012    2    1    2    0    0 -0.21908113174E+02 -0.96494584323E+01  0.21062794878E+02  0.59301971728E+02  0.50000050519E+02 0.  0.
         12    1    1    2    0    0  0.21908113174E+02  0.96494584323E+01 -0.21062794878E+02  0.31886028272E+02  0.00000000000E+00 0. -1.
         11    1    3    3    0    0 -0.20061607950E+02  0.91928270489E+01  0.12033088023E+02  0.25135062966E+02  0.51100000000E-03 0. -1.
        -11    1    3    3    0    0 -0.11706811400E+02 -0.91369170865E+01  0.13038952716E+02  0.19762261389E+02  0.51100000000E-03 0.  1.
         12    1    3    3    0    0  0.98603061762E+01 -0.97053683947E+01 -0.40092458613E+01  0.14404647373E+02  0.00000000000E+00 0. -1.
</event>
<event>
 7    1  0.1204848E-011  0.5930194E+02  0.7816164E-02  0.1266605E+00
        -11   -1    0    0    0    0  0.00000000000E+00  0.00000000000E+00  0.45593999997E+02  0.45594000000E+02  0.51100000000E-03 0.  1.
         11   -1    0    0    0    0 -0.00000000000E+00 -0.00000000000E+00 -0.45593999997E+02  0.45594000000E+02  0.51100000000E-03 0. -1.
    9900012    2    1    2    0    0  0.35784045280E+01 -0.10606416064E+02  0.29856653450E+02  0.59301940414E+02  0.49999993409E+02 0.  0.
         12    1    1    2    0    0 -0.35784045280E+01  0.10606416064E+02 -0.29856653450E+02  0.31886059586E+02  0.00000000000E+00 0. -1.
         11    1    3    3    0    0 -0.74553357935E+01 -0.44467260162E+00  0.16361771593E+02  0.17985753680E+02  0.51100000000E-03 0. -1.
        -11    1    3    3    0    0  0.57956772513E+01  0.62540658922E+01  0.20891471544E+02  0.22564503063E+02  0.51100000000E-03 0.  1.
         12    1    3    3    0    0  0.52380630702E+01 -0.16415809355E+02 -0.73965896859E+01  0.18751683671E+02  0.00000000000E+00 0. -1.
</event>
<event>
 7    1  0.1204848E-011  0.5930194E+02  0.7816164E-02  0.1266605E+00
        -11   -1    0    0    0    0  0.00000000000E+00  0.00000000000E+00  0.45593999997E+02  0.45594000000E+02  0.51100000000E-03 0.  1.
         11   -1    0    0    0    0 -0.00000000000E+00 -0.00000000000E+00 -0.45593999997E+02  0.45594000000E+02  0.51100000000E-03 0. -1.
    9900012    2    1    2    0    0  0.25915164058E+02  0.92862983929E+01  0.16090057379E+02  0.59301937018E+02  0.49999987217E+02 0.  0.
         12    1    1    2    0    0 -0.25915164058E+02 -0.92862983929E+01 -0.16090057379E+02  0.31886062982E+02  0.00000000000E+00 0. -1.
         11    1    3    3    0    0  0.77682547078E+01  0.55466758371E+01  0.16738185591E+02  0.19268581971E+02  0.51100000000E-03 0. -1.
        -11    1    3    3    0    0  0.59751341735E+01  0.77798286541E+01  0.16152074231E+02  0.18897551812E+02  0.51100000000E-03 0.  1.
         12    1    3    3    0    0  0.12171775177E+02 -0.40402060984E+01 -0.16800202443E+02  0.21135803235E+02  0.00000000000E+00 0. -1.
</event>
<event>
 7    1  0.1204848E-011  0.5930194E+02  0.7816164E-02  0.1266605E+00
        -11   -1    0    0    0    0  0.00000000000E+00  0.00000000000E+00  0.45593999997E+02  0.45594000000E+02  0.51100000000E-03 0.  1.
         11   -1    0    0    0    0 -0.00000000000E+00 -0.00000000000E+00 -0.45593999997E+02  0.45594000000E+02  0.51100000000E-03 0. -1.
    9900012    2    1    2    0    0  0.20831821788E+02 -0.13279763043E+02  0.20159469141E+02  0.59301935622E+02  0.49999984670E+02 0.  0.
         12    1    1    2    0    0 -0.20831821788E+02  0.13279763043E+02 -0.20159469141E+02  0.31886064378E+02  0.00000000000E+00 0. -1.
         11    1    3    3    0    0  0.12397838191E+02 -0.32299299074E+01  0.13238044536E+02  0.18422395675E+02  0.51100000000E-03 0. -1.
        -11    1    3    3    0    0  0.17273647234E+02  0.72462253436E+01  0.99663841491E+01  0.21218281829E+02  0.51100000000E-03 0.  1.
         12    1    3    3    0    0 -0.88396636378E+01 -0.17296058479E+02 -0.30449595437E+01  0.19661258118E+02  0.00000000000E+00 0. -1.
</event>
<event>
 7    1  0.1204848E-011  0.5930196E+02  0.7816164E-02  0.1266605E+00
        -11   -1    0    0    0    0  0.00000000000E+00  0.00000000000E+00  0.45593999997E+02  0.45594000000E+02  0.51100000000E-03 0.  1.
         11   -1    0    0    0    0 -0.00000000000E+00 -0.00000000000E+00 -0.45593999997E+02  0.45594000000E+02  0.51100000000E-03 0. -1.
    9900012    2    1    2    0    0 -0.21253137082E+02  0.69481799123E+01  0.22732053213E+02  0.59301964134E+02  0.50000036670E+02 0.  0.
         12    1    1    2    0    0  0.21253137082E+02 -0.69481799123E+01 -0.22732053213E+02  0.31886035866E+02  0.00000000000E+00 0. -1.
         11    1    3    3    0    0 -0.58149471207E+01 -0.11995514718E+01 -0.33788301256E+01  0.68314732693E+01  0.51100000000E-03 0. -1.
        -11    1    3    3    0    0 -0.22069578771E+02 -0.10874301308E+02  0.19077848552E+02  0.31133278685E+02  0.51100000000E-03 0.  1.
        -12    1    3    3    0    0  0.66313888096E+01  0.19022032692E+02  0.70330347872E+01  0.21337212180E+02  0.00000000000E+00 0.  1.
</event>
<event>
 7    1  0.1204848E-011  0.5930195E+02  0.7816164E-02  0.1266605E+00
        -11   -1    0    0    0    0  0.00000000000E+00  0.00000000000E+00  0.45593999997E+02  0.45594000000E+02  0.51100000000E-03 0.  1.
         11   -1    0    0    0    0 -0.00000000000E+00 -0.00000000000E+00 -0.45593999997E+02  0.45594000000E+02  0.51100000000E-03 0. -1.
    9900012    2    1    2    0    0 -0.10815688536E+02 -0.53417450252E+01  0.29516211492E+02  0.59301951338E+02  0.50000013332E+02 0.  0.
         12    1    1    2    0    0  0.10815688536E+02  0.53417450252E+01 -0.29516211492E+02  0.31886048662E+02  0.00000000000E+00 0. -1.
         11    1    3    3    0    0 -0.39209566535E-01  0.76572580841E+00 -0.67064888934E+00  0.10186479263E+01  0.51100000000E-03 0. -1.
        -11    1    3    3    0    0 -0.19843718313E+02  0.15332596898E+02  0.85291131994E+01  0.26487873761E+02  0.51100000000E-03 0.  1.
        -12    1    3    3    0    0  0.90672393433E+01 -0.21440067732E+02  0.21657747182E+02  0.31795429651E+02  0.00000000000E+00 0.  1.
</event>
<event>
 7    1  0.1204848E-011  0.5930194E+02  0.7816164E-02  0.1266605E+00
        -11   -1    0    0    0    0  0.00000000000E+00  0.00000000000E+00  0.45593999997E+02  0.45594000000E+02  0.51100000000E-03 0.  1.
         11   -1    0    0    0    0 -0.00000000000E+00 -0.00000000000E+00 -0.45593999997E+02  0.45594000000E+02  0.51100000000E-03 0. -1.
    9900012    2    1    2    0    0 -0.58369955378E+01 -0.53336077537E+01  0.30890173763E+02  0.59301941547E+02  0.49999995475E+02 0.  0.
         12    1    1    2    0    0  0.58369955378E+01  0.53336077537E+01 -0.30890173763E+02  0.31886058453E+02  0.00000000000E+00 0. -1.
         11    1    3    3    0    0  0.48144833421E+01 -0.48653424694E+01 -0.10904642956E+02  0.12874860988E+02  0.51100000000E-03 0. -1.
        -11    1    3    3    0    0 -0.46142344374E+01  0.60987086619E+01  0.65444795237E+01  0.10065566019E+02  0.51100000000E-03 0.  1.
        -12    1    3    3    0    0 -0.60372444426E+01 -0.65669739461E+01  0.35250337195E+02  0.36361514540E+02  0.00000000000E+00 0.  1.
</event>
<event>
 7    1  0.1204848E-011  0.5930198E+02  0.7816164E-02  0.1266605E+00
        -11   -1    0    0    0    0  0.00000000000E+00  0.00000000000E+00  0.45593999997E+02  0.45594000000E+02  0.51100000000E-03 0.  1.
         11   -1    0    0    0    0 -0.00000000000E+00 -0.00000000000E+00 -0.45593999997E+02  0.45594000000E+02  0.51100000000E-03 0. -1.
    9900012    2    1    2    0    0 -0.42538119778E+01 -0.38187641406E+01  0.31369417935E+02  0.59301980218E+02  0.50000066003E+02 0.  0.
         12    1    1    2    0    0  0.42538119778E+01  0.38187641406E+01 -0.31369417935E+02  0.31886019782E+02  0.00000000000E+00 0. -1.
         11    1    3    3    0    0 -0.18251890046E+02 -0.13290007741E+02  0.22579384728E+02  0.31930931884E+02  0.51100000000E-03 0. -1.
        -11    1    3    3    0    0 -0.49433736787E+01  0.64218511685E+00  0.22871510358E+01  0.54845606181E+01  0.51100000000E-03 0.  1.
        -12    1    3    3    0    0  0.18941451747E+02  0.88290584839E+01  0.65028821711E+01  0.21886487716E+02  0.00000000000E+00 0.  1.
</event>
<event>
 7    1  0.1204848E-011  0.5930193E+02  0.7816164E-02  0.1266605E+00
        -11   -1    0    0    0    0  0.00000000000E+00  0.00000000000E+00  0.45593999997E+02  0.45594000000E+02  0.51100000000E-03 0.  1.
         11   -1    0    0    0    0 -0.00000000000E+00 -0.00000000000E+00 -0.45593999997E+02  0.45594000000E+02  0.51100000000E-03 0. -1.
    9900012    2    1    2    0    0 -0.15729633625E+02  0.27520139175E+02 -0.34557484103E+01  0.59301927315E+02  0.49999969521E+02 0.  0.
         12    1    1    2    0    0  0.15729633625E+02 -0.27520139175E+02  0.34557484103E+01  0.31886072685E+02  0.00000000000E+00 0. -1.
         11    1    3    3    0    0 -0.22992677217E+02  0.22907687084E+02 -0.95562732644E+01  0.33834120235E+02  0.51100000000E-03 0.  1.
        -11    1    3    3    0    0 -0.23106460742E+01 -0.40690681842E+01 -0.61045981636E+01  0.76917176345E+01  0.51100000000E-03 0. -1.
        -12    1    3    3    0    0  0.95736896659E+01  0.86815202749E+01  0.12205123018E+02  0.17776089446E+02  0.00000000000E+00 0.  1.
</event>
<event>
 7    1  0.1204848E-011  0.5930207E+02  0.7816164E-02  0.1266604E+00
        -11   -1    0    0    0    0  0.00000000000E+00  0.00000000000E+00  0.45593999997E+02  0.45594000000E+02  0.51100000000E-03 0.  1.
         11   -1    0    0    0    0 -0.00000000000E+00 -0.00000000000E+00 -0.45593999997E+02  0.45594000000E+02  0.51100000000E-03 0. -1.
    9900012    2    1    2    0    0 -0.81042480204E+01  0.21265774563E+02  0.22333846376E+02  0.59302067402E+02  0.50000225004E+02 0.  0.
         12    1    1    2    0    0  0.81042480204E+01 -0.21265774563E+02 -0.22333846376E+02  0.31885932598E+02  0.00000000000E+00 0. -1.
         11    1    3    3    0    0 -0.14216455846E+02  0.44493465980E+01  0.14784937112E+02  0.20988060121E+02  0.51100000000E-03 0. -1.
        -11    1    3    3    0    0 -0.13286221893E+02  0.52907792129E+01  0.65452702285E+01  0.15727574495E+02  0.51100000000E-03 0.  1.
        -12    1    3    3    0    0  0.19398429718E+02  0.11525648752E+02  0.10036390355E+01  0.22586432786E+02  0.00000000000E+00 0.  1.
</event>
<event>
 7    1  0.1204848E-011  0.5930193E+02  0.7816164E-02  0.1266605E+00
        -11   -1    0    0    0    0  0.00000000000E+00  0.00000000000E+00  0.45593999997E+02  0.45594000000E+02  0.51100000000E-03 0.  1.
         11   -1    0    0    0    0 -0.00000000000E+00 -0.00000000000E+00 -0.45593999997E+02  0.45594000000E+02  0.51100000000E-03 0. -1.
    9900012    2    1    2    0    0 -0.29425129312E+02  0.42575048418E+01  0.11522027353E+02  0.59301926287E+02  0.49999967645E+02 0.  0.
         12    1    1    2    0    0  0.29425129312E+02 -0.42575048418E+01 -0.11522027353E+02  0.31886073713E+02  0.00000000000E+00 0. -1.
         11    1    3    3    0    0 -0.49211396812E+01  0.12316515035E+01  0.89380035534E+01  0.10277280232E+02  0.51100000000E-03 0. -1.
        -11    1    3    3    0    0  0.30363179973E+01 -0.51069234025E+01  0.16191897555E+02  0.17247534325E+02  0.51100000000E-03 0.  1.
         12    1    3    3    0    0 -0.27540307628E+02  0.81327767408E+01 -0.13607873755E+02  0.31777111730E+02  0.00000000000E+00 0. -1.
</event>
<event>
 7    1  0.1204848E-011  0.5930197E+02  0.7816164E-02  0.1266605E+00
        -11   -1    0    0    0    0  0.00000000000E+00  0.00000000000E+00  0.45593999997E+02  0.45594000000E+02  0.51100000000E-03 0.  1.
         11   -1    0    0    0    0 -0.00000000000E+00 -0.00000000000E+00 -0.45593999997E+02  0.45594000000E+02  0.51100000000E-03 0. -1.
    9900012    2    1    2    0    0 -0.10012364113E+02  0.29201491150E+02  0.79840255673E+01  0.59301965678E+02  0.50000039485E+02 0.  0.
         12    1    1    2    0    0  0.10012364113E+02 -0.29201491150E+02 -0.79840255673E+01  0.31886034322E+02  0.00000000000E+00 0. -1.
         11    1    3    3    0    0 -0.19185060815E+02  0.13467503691E+01  0.19959360587E+01  0.19335564539E+02  0.51100000000E-03 0. -1.
        -11    1    3    3    0    0 -0.50011365117E+01  0.86208863501E+01  0.11731563800E+02  0.15393525825E+02  0.51100000000E-03 0.  1.
         12    1    3    3    0    0  0.14173833214E+02  0.19233854431E+02 -0.57434742916E+01  0.24572875314E+02  0.00000000000E+00 0. -1.
</event>
<event>
 7    1  0.1204848E-011  0.5930196E+02  0.7816164E-02  0.1266605E+00
        -11   -1    0    0    0    0  0.00000000000E+00  0.00000000000E+00  0.45593999997E+02  0.45594000000E+02  0.51100000000E-03 0. -1.
         11   -1    0    0    0    0 -0.00000000000E+00 -0.00000000000E+00 -0.45593999997E+02  0.45594000000E+02  0.51100000000E-03 0.  1.
    9900012    2    1    2    0    0 -0.13096942251E+02  0.27291016781E+01 -0.28943771287E+02  0.59301956210E+02  0.50000022217E+02 0.  0.
         12    1    1    2    0    0  0.13096942251E+02 -0.27291016781E+01  0.28943771287E+02  0.31886043790E+02  0.00000000000E+00 0. -1.
         11    1    3    3    0    0 -0.22468100195E+02  0.65403859857E+01 -0.16856669775E+02  0.28839894095E+02  0.51100000000E-03 0. -1.
        -11    1    3    3    0    0  0.24418162473E+01 -0.36759857298E+01 -0.19687554024E+02  0.20176102730E+02  0.51100000000E-03 0.  1.
         12    1    3    3    0    0  0.69293416971E+01 -0.13529857780E+00  0.76004525131E+01  0.10285959385E+02  0.00000000000E+00 0. -1.
</event>
<event>
 7    1  0.1204848E-011  0.5930195E+02  0.7816164E-02  0.1266605E+00
        -11   -1    0    0    0    0  0.00000000000E+00  0.00000000000E+00  0.45593999997E+02  0.45594000000E+02  0.51100000000E-03 0.  1.
         11   -1    0    0    0    0 -0.00000000000E+00 -0.00000000000E+00 -0.45593999997E+02  0.45594000000E+02  0.51100000000E-03 0. -1.
    9900012    2    1    2    0    0  0.15170082152E+02 -0.27732633520E+02  0.41820949182E+01  0.59301948624E+02  0.50000008383E+02 0.  0.
         12    1    1    2    0    0 -0.15170082152E+02  0.27732633520E+02 -0.41820949182E+01  0.31886051376E+02  0.00000000000E+00 0. -1.
         11    1    3    3    0    0 -0.69510220444E+01 -0.13778183867E+02  0.11591036212E+02  0.19300445043E+02  0.51100000000E-03 0. -1.
        -11    1    3    3    0    0  0.12160366092E+02 -0.13546957543E+02  0.93778085791E+01  0.20477740505E+02  0.51100000000E-03 0.  1.
         12    1    3    3    0    0  0.99607381036E+01 -0.40749211035E+00 -0.16786749873E+02  0.19523763077E+02  0.00000000000E+00 0. -1.
</event>
<event>
 7    1  0.1204848E-011  0.5930196E+02  0.7816164E-02  0.1266605E+00
        -11   -1    0    0    0    0  0.00000000000E+00  0.00000000000E+00  0.45593999997E+02  0.45594000000E+02  0.51100000000E-03 0. -1.
         11   -1    0    0    0    0 -0.00000000000E+00 -0.00000000000E+00 -0.45593999997E+02  0.45594000000E+02  0.51100000000E-03 0.  1.
    9900012    2    1    2    0    0  0.47247361547E+01 -0.31066548325E+02  0.54098343844E+01  0.59301955017E+02  0.50000020043E+02 0.  0.
         12    1    1    2    0    0 -0.47247361547E+01  0.31066548325E+02 -0.54098343844E+01  0.31886044983E+02  0.00000000000E+00 0. -1.
         11    1    3    3    0    0  0.25545908602E+01 -0.15218767216E+02  0.11647000452E+02  0.19333634677E+02  0.51100000000E-03 0. -1.
        -11    1    3    3    0    0 -0.54730206357E+01 -0.25250514877E+02  0.99655022359E+00  0.25856054785E+02  0.51100000000E-03 0.  1.
         12    1    3    3    0    0  0.76431659302E+01  0.94027337676E+01 -0.72337162908E+01  0.14112265556E+02  0.00000000000E+00 0. -1.
</event>
<event>
 7    1  0.1204848E-011  0.5930193E+02  0.7816164E-02  0.1266605E+00
        -11   -1    0    0    0    0  0.00000000000E+00  0.00000000000E+00  0.45593999997E+02  0.45594000000E+02  0.51100000000E-03 0. -1.
         11   -1    0    0    0    0 -0.00000000000E+00 -0.00000000000E+00 -0.45593999997E+02  0.45594000000E+02  0.51100000000E-03 0.  1.
    9900012    2    1    2    0    0 -0.14920797873E+02  0.99193320654E+01 -0.26376094590E+02  0.59301925868E+02  0.49999966880E+02 0.  0.
         12    1    1    2    0    0  0.14920797873E+02 -0.99193320654E+01  0.26376094590E+02  0.31886074132E+02  0.00000000000E+00 0. -1.
         11    1    3    3    0    0 -0.30755936848E+01  0.16682301059E+02 -0.91218508326E+01  0.19260493452E+02  0.51100000000E-03 0. -1.
        -11    1    3    3    0    0 -0.73611535959E+00  0.11211169370E+02  0.20501071542E+01  0.11420819763E+02  0.51100000000E-03 0.  1.
         12    1    3    3    0    0 -0.11109088828E+02 -0.17974138363E+02 -0.19304350911E+02  0.28620612652E+02  0.00000000000E+00 0. -1.
</event>
<event>
 7    1  0.1204848E-011  0.5930196E+02  0.7816164E-02  0.1266605E+00
        -11   -1    0    0    0    0  0.00000000000E+00  0.00000000000E+00  0.45593999997E+02  0.45594000000E+02  0.51100000000E-03 0. -1.
         11   -1    0    0    0    0 -0.00000000000E+00 -0.00000000000E+00 -0.45593999997E+02  0.45594000000E+02  0.51100000000E-03 0.  1.
    9900012    2    1    2    0    0  0.93513028944E+01  0.25447148895E+02 -0.16784377462E+02  0.59301959489E+02  0.50000028197E+02 0.  0.
         12    1    1    2    0    0 -0.93513028944E+01 -0.25447148895E+02  0.16784377462E+02  0.31886040511E+02  0.00000000000E+00 0. -1.
         11    1    3    3    0    0  0.17111863951E+02  0.71567896519E+01 -0.14090875850E+02  0.23293525033E+02  0.51100000000E-03 0. -1.
        -11    1    3    3    0    0  0.85655225292E+01  0.10270239838E+02  0.73190402691E+01  0.15245141956E+02  0.51100000000E-03 0.  1.
         12    1    3    3    0    0 -0.16326083586E+02  0.80201194048E+01 -0.10012541881E+02  0.20763292500E+02  0.00000000000E+00 0. -1.
</event>
<event>
 7    1  0.1204848E-011  0.5930193E+02  0.7816164E-02  0.1266605E+00
        -11   -1    0    0    0    0  0.00000000000E+00  0.00000000000E+00  0.45593999997E+02  0.45594000000E+02  0.51100000000E-03 0.  1.
         11   -1    0    0    0    0 -0.00000000000E+00 -0.00000000000E+00 -0.45593999997E+02  0.45594000000E+02  0.51100000000E-03 0. -1.
    9900012    2    1    2    0    0  0.11528015470E+01  0.22865904353E+02  0.22193309225E+02  0.59301929254E+02  0.49999973056E+02 0.  0.
         12    1    1    2    0    0 -0.11528015470E+01 -0.22865904353E+02 -0.22193309225E+02  0.31886070746E+02  0.00000000000E+00 0. -1.
         11    1    3    3    0    0  0.13635346852E+02  0.46867899721E+01  0.10279732439E+02  0.17707670183E+02  0.51100000000E-03 0.  1.
        -11    1    3    3    0    0 -0.13896581095E+02  0.39959554298E+01 -0.84426311326E+01  0.16743973442E+02  0.51100000000E-03 0. -1.
         12    1    3    3    0    0  0.14140357898E+01  0.14183158951E+02  0.20356207918E+02  0.24850285629E+02  0.00000000000E+00 0. -1.
</event>
<event>
 7    1  0.1204848E-011  0.5930196E+02  0.7816164E-02  0.1266605E+00
        -11   -1    0    0    0    0  0.00000000000E+00  0.00000000000E+00  0.45593999997E+02  0.45594000000E+02  0.51100000000E-03 0.  1.
         11   -1    0    0    0    0 -0.00000000000E+00 -0.00000000000E+00 -0.45593999997E+02  0.45594000000E+02  0.51100000000E-03 0. -1.
    9900012    2    1    2    0    0 -0.12523296504E+02  0.33951942324E+01  0.29126606406E+02  0.59301960736E+02  0.50000030472E+02 0.  0.
         12    1    1    2    0    0  0.12523296504E+02 -0.33951942324E+01 -0.29126606406E+02  0.31886039264E+02  0.00000000000E+00 0. -1.
         11    1    3    3    0    0 -0.18881160107E+02  0.39906818959E+01  0.13571914580E+02  0.23592808536E+02  0.51100000000E-03 0. -1.
        -11    1    3    3    0    0 -0.66699605839E+01  0.60260057783E+01 -0.51551257348E+01  0.10362260440E+02  0.51100000000E-03 0.  1.
         12    1    3    3    0    0  0.13027824187E+02 -0.66214934418E+01  0.20709817561E+02  0.25346891759E+02  0.00000000000E+00 0. -1.
</event>
<event>
 7    1  0.1204848E-011  0.5930196E+02  0.7816164E-02  0.1266605E+00
        -11   -1    0    0    0    0  0.00000000000E+00  0.00000000000E+00  0.45593999997E+02  0.45594000000E+02  0.51100000000E-03 0.  1.
         11   -1    0    0    0    0 -0.00000000000E+00 -0.00000000000E+00 -0.45593999997E+02  0.45594000000E+02  0.51100000000E-03 0. -1.
    9900012    2    1    2    0    0 -0.12676226703E+02 -0.30213072585E+01  0.29101621710E+02  0.59301962192E+02  0.50000033127E+02 0.  0.
         12    1    1    2    0    0  0.12676226703E+02  0.30213072585E+01 -0.29101621710E+02  0.31886037808E+02  0.00000000000E+00 0. -1.
         11    1    3    3    0    0 -0.13824356351E+01  0.72830493073E+01  0.63221820905E+01  0.97428908515E+01  0.51100000000E-03 0. -1.
        -11    1    3    3    0    0 -0.11525607934E+02 -0.65795699186E+01 -0.99690849948E+01  0.16598585315E+02  0.51100000000E-03 0.  1.
         12    1    3    3    0    0  0.23181686636E+00 -0.37247866471E+01  0.32748524614E+02  0.32960486025E+02  0.00000000000E+00 0. -1.
</event>
<event>
 7    1  0.1544286E-011  0.5930194E+02  0.7816164E-02  0.1266605E+00
        -11   -1    0    0    0    0  0.00000000000E+00  0.00000000000E+00  0.45593999997E+02  0.45594000000E+02  0.51100000000E-03 0.  1.
         11   -1    0    0    0    0 -0.00000000000E+00 -0.00000000000E+00 -0.45593999997E+02  0.45594000000E+02  0.51100000000E-03 0. -1.
    9900012    2    1    2    0    0  0.21220998762E+02  0.23798915823E+02 -0.37677938062E-01  0.59301943448E+02  0.49999998943E+02 0.  0.
         12    1    1    2    0    0 -0.21220998762E+02 -0.23798915823E+02  0.37677938062E-01  0.31886056552E+02  0.00000000000E+00 0. -1.
         11    1    3    3    0    0  0.74681082811E+01 -0.10930223573E+02  0.92072672351E+01  0.16125017794E+02  0.51100000000E-03 0. -1.
        -11    1    3    3    0    0 -0.50436823141E+01  0.88874876283E+01 -0.20619805485E+01  0.10424870823E+02  0.51100000000E-03 0.  1.
        -12    1    3    3    0    0  0.18796572795E+02  0.25841651767E+02 -0.71829646246E+01  0.32752054832E+02  0.00000000000E+00 0.  1.
</event>
<event>
 7    1  0.1204848E-011  0.5930193E+02  0.7816164E-02  0.1266605E+00
        -11   -1    0    0    0    0  0.00000000000E+00  0.00000000000E+00  0.45593999997E+02  0.45594000000E+02  0.51100000000E-03 0.  1.
         11   -1    0    0    0    0 -0.00000000000E+00 -0.00000000000E+00 -0.45593999997E+02  0.45594000000E+02  0.51100000000E-03 0. -1.
    9900012    2    1    2    0    0 -0.29197821609E+01 -0.23387409563E+02  0.21476157806E+02  0.59301930816E+02  0.49999975905E+02 0.  0.
         12    1    1    2    0    0  0.29197821609E+01  0.23387409563E+02 -0.21476157806E+02  0.31886069184E+02  0.00000000000E+00 0. -1.
         11    1    3    3    0    0  0.63992665507E+00 -0.73604633414E+01  0.11680417664E+02  0.13820929194E+02  0.51100000000E-03 0. -1.
        -11    1    3    3    0    0 -0.60001688420E+01 -0.46694258312E+01  0.25123365758E+02  0.26248601315E+02  0.51100000000E-03 0.  1.
         12    1    3    3    0    0  0.24404600261E+01 -0.11357520390E+02 -0.15327625616E+02  0.19232400307E+02  0.00000000000E+00 0. -1.
</event>
<event>
 7    1  0.1204848E-011  0.5930185E+02  0.7816164E-02  0.1266605E+00
        -11   -1    0    0    0    0  0.00000000000E+00  0.00000000000E+00  0.45593999997E+02  0.45594000000E+02  0.51100000000E-03 0.  1.
         11   -1    0    0    0    0 -0.00000000000E+00 -0.00000000000E+00 -0.45593999997E+02  0.45594000000E+02  0.51100000000E-03 0. -1.
    9900012    2    1    2    0    0 -0.20909279255E+02 -0.67827593592E+01  0.23098116586E+02  0.59301846684E+02  0.49999822468E+02 0.  0.
         12    1    1    2    0    0  0.20909279255E+02  0.67827593592E+01 -0.23098116586E+02  0.31886153316E+02  0.00000000000E+00 0. -1.
         11    1    3    3    0    0 -0.20840859196E+02 -0.60071484630E+01  0.75363330735E+01  0.22961349289E+02  0.51100000000E-03 0. -1.
        -11    1    3    3    0    0 -0.64268351467E+01 -0.15338038087E+02  0.10483578373E+02  0.19658714051E+02  0.51100000000E-03 0.  1.
         12    1    3    3    0    0  0.63584150880E+01  0.14562427191E+02  0.50782051390E+01  0.16681783344E+02  0.00000000000E+00 0. -1.
</event>
<event>
 7    1  0.1204848E-011  0.5930193E+02  0.7816164E-02  0.1266605E+00
        -11   -1    0    0    0    0  0.00000000000E+00  0.00000000000E+00  0.45593999997E+02  0.45594000000E+02  0.51100000000E-03 0. -1.
         11   -1    0    0    0    0 -0.00000000000E+00 -0.00000000000E+00 -0.45593999997E+02  0.45594000000E+02  0.51100000000E-03 0.  1.
    9900012    2    1    2    0    0 -0.11791350271E+02 -0.26001796921E+02  0.14198311406E+02  0.59301930453E+02  0.49999975244E+02 0.  0.
         12    1    1    2    0    0  0.11791350271E+02  0.26001796921E+02 -0.14198311406E+02  0.31886069547E+02  0.00000000000E+00 0. -1.
         11    1    3    3    0    0 -0.67931667862E+01 -0.21685702033E+02  0.23369208732E+02  0.32596575045E+02  0.51100000000E-03 0. -1.
        -11    1    3    3    0    0 -0.12270307030E+02 -0.74621458510E+01  0.29081936325E+00  0.14364143952E+02  0.51100000000E-03 0.  1.
        -12    1    3    3    0    0  0.72721235449E+01  0.31460509629E+01 -0.94617166886E+01  0.12341211456E+02  0.00000000000E+00 0.  1.
</event>
<event>
 7    1  0.1204848E-011  0.5930193E+02  0.7816164E-02  0.1266605E+00
        -11   -1    0    0    0    0  0.00000000000E+00  0.00000000000E+00  0.45593999997E+02  0.45594000000E+02  0.51100000000E-03 0.  1.
         11   -1    0    0    0    0 -0.00000000000E+00 -0.00000000000E+00 -0.45593999997E+02  0.45594000000E+02  0.51100000000E-03 0. -1.
    9900012    2    1    2    0    0 -0.10272596263E+02 -0.18542064350E+02  0.23819889411E+02  0.59301929124E+02  0.49999972820E+02 0.  0.
         12    1    1    2    0    0  0.10272596263E+02  0.18542064350E+02 -0.23819889411E+02  0.31886070876E+02  0.00000000000E+00 0. -1.
         11    1    3    3    0    0 -0.62684111979E+01  0.69592078032E+01 -0.90798733718E+01  0.13044832421E+02  0.51100000000E-03 0. -1.
        -11    1    3    3    0    0  0.66354351414E+01 -0.26813524150E+01  0.94146010906E+01  0.11825961451E+02  0.51100000000E-03 0.  1.
        -12    1    3    3    0    0 -0.10639620207E+02 -0.22819919738E+02  0.23485161692E+02  0.34431135252E+02  0.00000000000E+00 0.  1.
</event>
<event>
 7    1  0.1204848E-011  0.5930203E+02  0.7816164E-02  0.1266604E+00
        -11   -1    0    0    0    0  0.00000000000E+00  0.00000000000E+00  0.45593999997E+02  0.45594000000E+02  0.51100000000E-03 0. -1.
         11   -1    0    0    0    0 -0.00000000000E+00 -0.00000000000E+00 -0.45593999997E+02  0.45594000000E+02  0.51100000000E-03 0.  1.
    9900012    2    1    2    0    0  0.13381240532E+02 -0.71591080312E+01 -0.28042912484E+02  0.59302025551E+02  0.50000148678E+02 0.  0.
         12    1    1    2    0    0 -0.13381240532E+02  0.71591080312E+01  0.28042912484E+02  0.31885974449E+02  0.00000000000E+00 0. -1.
         11    1    3    3    0    0  0.11357643552E+02 -0.94114962983E+01 -0.11401124923E+02  0.18642906946E+02  0.51100000000E-03 0. -1.
        -11    1    3    3    0    0  0.26689476269E+01  0.10329848425E+02 -0.26104734853E+02  0.28200819703E+02  0.51100000000E-03 0.  1.
         12    1    3    3    0    0 -0.64535064661E+00 -0.80774601578E+01  0.94629472925E+01  0.12458298901E+02  0.00000000000E+00 0. -1.
</event>
<event>
 7    1  0.1204848E-011  0.5930193E+02  0.7816164E-02  0.1266605E+00
        -11   -1    0    0    0    0  0.00000000000E+00  0.00000000000E+00  0.45593999997E+02  0.45594000000E+02  0.51100000000E-03 0.  1.
         11   -1    0    0    0    0 -0.00000000000E+00 -0.00000000000E+00 -0.45593999997E+02  0.45594000000E+02  0.51100000000E-03 0. -1.
    9900012    2    1    2    0    0 -0.17337345830E+02  0.18827344937E+02  0.19017593510E+02  0.59301931871E+02  0.49999977830E+02 0.  0.
         12    1    1    2    0    0  0.17337345830E+02 -0.18827344937E+02 -0.19017593510E+02  0.31886068129E+02  0.00000000000E+00 0. -1.
         11    1    3    3    0    0  0.10795755280E+01 -0.18697440292E+01  0.18905716279E+02  0.19028597803E+02  0.51100000000E-03 0.  1.
        -11    1    3    3    0    0 -0.26738795287E+01  0.16010051294E+01 -0.12227884250E+02  0.12618795610E+02  0.51100000000E-03 0. -1.
        -12    1    3    3    0    0 -0.15743041829E+02  0.19096083837E+02  0.12339761481E+02  0.27654538458E+02  0.00000000000E+00 0.  1.
</event>
<event>
 7    1  0.1204848E-011  0.5930192E+02  0.7816164E-02  0.1266605E+00
        -11   -1    0    0    0    0  0.00000000000E+00  0.00000000000E+00  0.45593999997E+02  0.45594000000E+02  0.51100000000E-03 0.  1.
         11   -1    0    0    0    0 -0.00000000000E+00 -0.00000000000E+00 -0.45593999997E+02  0.45594000000E+02  0.51100000000E-03 0. -1.
    9900012    2    1    2    0    0 -0.47001928576E+01  0.39365116780E+01  0.31291122124E+02  0.59301917442E+02  0.49999951514E+02 0.  0.
         12    1    1    2    0    0  0.47001928576E+01 -0.39365116780E+01 -0.31291122124E+02  0.31886082558E+02  0.00000000000E+00 0. -1.
         11    1    3    3    0    0 -0.22004900964E+01 -0.63883437561E+01 -0.25430789592E+01  0.72194420466E+01  0.51100000000E-03 0. -1.
        -11    1    3    3    0    0 -0.28363819587E+01 -0.10653380336E+02 -0.13608770790E+01  0.11108175453E+02  0.51100000000E-03 0.  1.
        -12    1    3    3    0    0  0.33667919749E+00  0.20978235770E+02  0.35195078163E+02  0.40974299943E+02  0.00000000000E+00 0.  1.
</event>
<event>
 7    1  0.1204848E-011  0.5930196E+02  0.7816164E-02  0.1266605E+00
        -11   -1    0    0    0    0  0.00000000000E+00  0.00000000000E+00  0.45593999997E+02  0.45594000000E+02  0.51100000000E-03 0. -1.
         11   -1    0    0    0    0 -0.00000000000E+00 -0.00000000000E+00 -0.45593999997E+02  0.45594000000E+02  0.51100000000E-03 0.  1.
    9900012    2    1    2    0    0  0.15848277924E+02 -0.27408683830E+02 -0.37836395536E+01  0.59301956176E+02  0.50000022156E+02 0.  0.
         12    1    1    2    0    0 -0.15848277924E+02  0.27408683830E+02  0.37836395536E+01  0.31886043824E+02  0.00000000000E+00 0. -1.
         11    1    3    3    0    0 -0.30571715721E+01  0.14456726183E+01 -0.19626699139E+01  0.39100307918E+01  0.51100000000E-03 0. -1.
        -11    1    3    3    0    0  0.45200768815E+01 -0.30530209025E+02 -0.16308503067E+02  0.34906905200E+02  0.51100000000E-03 0.  1.
        -12    1    3    3    0    0  0.14385372615E+02  0.16758525761E+01  0.14487533428E+02  0.20485020184E+02  0.00000000000E+00 0.  1.
</event>
<event>
 7    1  0.1204848E-011  0.5930203E+02  0.7816164E-02  0.1266604E+00
        -11   -1    0    0    0    0  0.00000000000E+00  0.00000000000E+00  0.45593999997E+02  0.45594000000E+02  0.51100000000E-03 0.  1.
         11   -1    0    0    0    0 -0.00000000000E+00 -0.00000000000E+00 -0.45593999997E+02  0.45594000000E+02  0.51100000000E-03 0. -1.
    9900012    2    1    2    0    0 -0.17970622601E+02  0.24548561004E+02  0.95467374509E+01  0.59302026281E+02  0.50000150010E+02 0.  0.
         12    1    1    2    0    0  0.17970622601E+02 -0.24548561004E+02 -0.95467374509E+01  0.31885973719E+02  0.00000000000E+00 0. -1.
         11    1    3    3    0    0  0.60690568986E+01 -0.26544493742E+01 -0.22673810205E+01  0.70014691367E+01  0.51100000000E-03 0. -1.
        -11    1    3    3    0    0 -0.24767828566E+00 -0.79046195290E+01 -0.10608788880E+01  0.79793369842E+01  0.51100000000E-03 0.  1.
        -12    1    3    3    0    0 -0.23792001214E+02  0.35107629907E+02  0.12874997359E+02  0.44321220160E+02  0.00000000000E+00 0.  1.
</event>
<event>
 7    1  0.1204848E-011  0.5930194E+02  0.7816164E-02  0.1266605E+00
        -11   -1    0    0    0    0  0.00000000000E+00  0.00000000000E+00  0.45593999997E+02  0.45594000000E+02  0.51100000000E-03 0.  1.
         11   -1    0    0    0    0 -0.00000000000E+00 -0.00000000000E+00 -0.45593999997E+02  0.45594000000E+02  0.51100000000E-03 0. -1.
    9900012    2    1    2    0    0  0.27448578428E+02  0.12894297467E+01  0.16175090315E+02  0.59301942961E+02  0.49999998055E+02 0.  0.
         12    1    1    2    0    0 -0.27448578428E+02 -0.12894297467E+01 -0.16175090315E+02  0.31886057039E+02  0.00000000000E+00 0. -1.
         11    1    3    3    0    0  0.14031148461E+00  0.37701594190E+01  0.18158780276E+02  0.18546565470E+02  0.51100000000E-03 0. -1.
        -11    1    3    3    0    0  0.39407250480E+01  0.17032276186E+00  0.12519019985E+02  0.13125707043E+02  0.51100000000E-03 0.  1.
        -12    1    3    3    0    0  0.23367541895E+02 -0.26510524341E+01 -0.14502709946E+02  0.27629670447E+02  0.00000000000E+00 0.  1.
</event>
<event>
 7    1  0.1204848E-011  0.5930199E+02  0.7816164E-02  0.1266605E+00
        -11   -1    0    0    0    0  0.00000000000E+00  0.00000000000E+00  0.45593999997E+02  0.45594000000E+02  0.51100000000E-03 0.  1.
         11   -1    0    0    0    0 -0.00000000000E+00 -0.00000000000E+00 -0.45593999997E+02  0.45594000000E+02  0.51100000000E-03 0. -1.
    9900012    2    1    2    0    0 -0.18333981620E+02 -0.29442597482E+01 -0.25921302242E+02  0.59301992764E+02  0.50000088884E+02 0.  0.
         12    1    1    2    0    0  0.18333981620E+02  0.29442597482E+01  0.25921302242E+02  0.31886007236E+02  0.00000000000E+00 0. -1.
         11    1    3    3    0    0 -0.72488522044E+01 -0.11400606318E+02  0.28385068270E+01  0.13804955776E+02  0.51100000000E-03 0. -1.
        -11    1    3    3    0    0 -0.13739498026E+02 -0.58155551130E+01 -0.19996530639E+01  0.15053009663E+02  0.51100000000E-03 0.  1.
         12    1    3    3    0    0  0.26543686103E+01  0.14271901683E+02 -0.26760156005E+02  0.30444027326E+02  0.00000000000E+00 0. -1.
</event>
<event>
 7    1  0.1204848E-011  0.5930196E+02  0.7816164E-02  0.1266605E+00
        -11   -1    0    0    0    0  0.00000000000E+00  0.00000000000E+00  0.45593999997E+02  0.45594000000E+02  0.51100000000E-03 0.  1.
         11   -1    0    0    0    0 -0.00000000000E+00 -0.00000000000E+00 -0.45593999997E+02  0.45594000000E+02  0.51100000000E-03 0. -1.
    9900012    2    1    2    0    0  0.17262256878E+02  0.24185768131E+02  0.11566456914E+02  0.59301955746E+02  0.50000021372E+02 0.  0.
         12    1    1    2    0    0 -0.17262256878E+02 -0.24185768131E+02 -0.11566456914E+02  0.31886044254E+02  0.00000000000E+00 0. -1.
         11    1    3    3    0    0 -0.34704639308E+01  0.61103995722E+01 -0.74281264448E+01  0.10225368725E+02  0.51100000000E-03 0. -1.
        -11    1    3    3    0    0  0.19209044193E+02  0.34778403503E+01 -0.57116200389E+01  0.20339748181E+02  0.51100000000E-03 0.  1.
        -12    1    3    3    0    0  0.15236766158E+01  0.14597528208E+02  0.24706203398E+02  0.28736838840E+02  0.00000000000E+00 0.  1.
</event>
<event>
 7    1  0.1204848E-011  0.5930193E+02  0.7816164E-02  0.1266605E+00
        -11   -1    0    0    0    0  0.00000000000E+00  0.00000000000E+00  0.45593999997E+02  0.45594000000E+02  0.51100000000E-03 0. -1.
         11   -1    0    0    0    0 -0.00000000000E+00 -0.00000000000E+00 -0.45593999997E+02  0.45594000000E+02  0.51100000000E-03 0.  1.
    9900012    2    1    2    0    0  0.14811656279E+01  0.15463578644E+02 -0.27846106070E+02  0.59301925620E+02  0.49999966430E+02 0.  0.
         12    1    1    2    0    0 -0.14811656279E+01 -0.15463578644E+02  0.27846106070E+02  0.31886074380E+02  0.00000000000E+00 0. -1.
         11    1    3    3    0    0  0.13932955980E+01 -0.10971147847E+02 -0.12117723081E+02  0.16405687143E+02  0.51100000000E-03 0. -1.
        -11    1    3    3    0    0 -0.36417630488E+01 -0.46682663472E+01 -0.91320668730E+01  0.10883464266E+02  0.51100000000E-03 0.  1.
         12    1    3    3    0    0  0.37296330787E+01  0.31102992839E+02 -0.65963161159E+01  0.32012774212E+02  0.00000000000E+00 0. -1.
</event>
<event>
 7    1  0.1204848E-011  0.5930193E+02  0.7816164E-02  0.1266605E+00
        -11   -1    0    0    0    0  0.00000000000E+00  0.00000000000E+00  0.45593999997E+02  0.45594000000E+02  0.51100000000E-03 0.  1.
         11   -1    0    0    0    0 -0.00000000000E+00 -0.00000000000E+00 -0.45593999997E+02  0.45594000000E+02  0.51100000000E-03 0. -1.
    9900012    2    1    2    0    0  0.89595995868E+01  0.81136379454E+01  0.29506199616E+02  0.59301931550E+02  0.49999977243E+02 0.  0.
         12    1    1    2    0    0 -0.89595995868E+01 -0.81136379454E+01 -0.29506199616E+02  0.31886068450E+02  0.00000000000E+00 0. -1.
         11    1    3    3    0    0  0.16040965971E+01  0.11840928905E+02  0.29296927830E+01  0.12303000581E+02  0.51100000000E-03 0. -1.
        -11    1    3    3    0    0  0.13213884603E+01  0.96974878888E+01 -0.58402782614E+01  0.11397200939E+02  0.51100000000E-03 0.  1.
         12    1    3    3    0    0  0.60341145293E+01 -0.13424778848E+02  0.32416785094E+02  0.35601730030E+02  0.00000000000E+00 0. -1.
</event>
<event>
 7    1  0.1204848E-011  0.5930194E+02  0.7816164E-02  0.1266605E+00
        -11   -1    0    0    0    0  0.00000000000E+00  0.00000000000E+00  0.45593999997E+02  0.45594000000E+02  0.51100000000E-03 0. -1.
         11   -1    0    0    0    0 -0.00000000000E+00 -0.00000000000E+00 -0.45593999997E+02  0.45594000000E+02  0.51100000000E-03 0.  1.
    9900012    2    1    2    0    0 -0.13603253087E+02  0.19438264520E+02 -0.21303198887E+02  0.59301938705E+02  0.49999990292E+02 0.  0.
         12    1    1    2    0    0  0.13603253087E+02 -0.19438264520E+02  0.21303198887E+02  0.31886061295E+02  0.00000000000E+00 0. -1.
         11    1    3    3    0    0  0.64353350170E+01 -0.35863539827E+01 -0.10330517517E+01  0.74392652764E+01  0.51100000000E-03 0. -1.
        -11    1    3    3    0    0  0.33545889518E+01  0.12726873366E+02 -0.22646171398E+02  0.26193045870E+02  0.51100000000E-03 0.  1.
        -12    1    3    3    0    0 -0.23393177056E+02  0.10297745136E+02  0.23760242628E+01  0.25669627558E+02  0.00000000000E+00 0.  1.
</event>
<event>
 7    1  0.1204848E-011  0.5930195E+02  0.7816164E-02  0.1266605E+00
        -11   -1    0    0    0    0  0.00000000000E+00  0.00000000000E+00  0.45593999997E+02  0.45594000000E+02  0.51100000000E-03 0.  1.
         11   -1    0    0    0    0 -0.00000000000E+00 -0.00000000000E+00 -0.45593999997E+02  0.45594000000E+02  0.51100000000E-03 0. -1.
    9900012    2    1    2    0    0  0.27565565688E+02 -0.12766024664E+02  0.96895898099E+01  0.59301953709E+02  0.50000017656E+02 0.  0.
         12    1    1    2    0    0 -0.27565565688E+02  0.12766024664E+02 -0.96895898099E+01  0.31886046291E+02  0.00000000000E+00 0. -1.
         11    1    3    3    0    0  0.10623470363E+02 -0.16829171566E+02 -0.40438619939E+01  0.20308420870E+02  0.51100000000E-03 0. -1.
        -11    1    3    3    0    0  0.70333206803E+01  0.85211668866E+01 -0.87028275863E+01  0.14064746466E+02  0.51100000000E-03 0.  1.
        -12    1    3    3    0    0  0.99087746439E+01 -0.44580199847E+01  0.22436279390E+02  0.24928786372E+02  0.00000000000E+00 0.  1.
</event>
<event>
 7    1  0.1204848E-011  0.5930194E+02  0.7816164E-02  0.1266605E+00
        -11   -1    0    0    0    0  0.00000000000E+00  0.00000000000E+00  0.45593999997E+02  0.45594000000E+02  0.51100000000E-03 0.  1.
         11   -1    0    0    0    0 -0.00000000000E+00 -0.00000000000E+00 -0.45593999997E+02  0.45594000000E+02  0.51100000000E-03 0. -1.
    9900012    2    1    2    0    0  0.24900085196E+02  0.19654386299E+02  0.32266941828E+01  0.59301941935E+02  0.49999996184E+02 0.  0.
         12    1    1    2    0    0 -0.24900085196E+02 -0.19654386299E+02 -0.32266941828E+01  0.31886058065E+02  0.00000000000E+00 0. -1.
         11    1    3    3    0    0  0.18374319213E+02  0.27154355294E+02  0.20671633528E+00  0.32787457203E+02  0.51100000000E-03 0. -1.
        -11    1    3    3    0    0  0.12982903421E+01  0.88854963486E+01  0.24406214884E+01  0.93056024353E+01  0.51100000000E-03 0.  1.
        -12    1    3    3    0    0  0.52274756412E+01 -0.16385465343E+02  0.57935635910E+00  0.17208882296E+02  0.00000000000E+00 0.  1.
</event>
<event>
 7    1  0.1204848E-011  0.5930194E+02  0.7816164E-02  0.1266605E+00
        -11   -1    0    0    0    0  0.00000000000E+00  0.00000000000E+00  0.45593999997E+02  0.45594000000E+02  0.51100000000E-03 0.  1.
         11   -1    0    0    0    0 -0.00000000000E+00 -0.00000000000E+00 -0.45593999997E+02  0.45594000000E+02  0.51100000000E-03 0. -1.
    9900012    2    1    2    0    0  0.28750494958E+02  0.57044904616E+01  0.12553443224E+02  0.59301935512E+02  0.49999984469E+02 0.  0.
         12    1    1    2    0    0 -0.28750494958E+02 -0.57044904616E+01 -0.12553443224E+02  0.31886064488E+02  0.00000000000E+00 0. -1.
         11    1    3    3    0    0 -0.31306509655E+01  0.12396385450E+01  0.13826071483E+02  0.14230176812E+02  0.51100000000E-03 0. -1.
        -11    1    3    3    0    0  0.12422063367E+02 -0.66350168548E+01  0.12452899308E+02  0.18799090627E+02  0.51100000000E-03 0.  1.
         12    1    3    3    0    0  0.19459082556E+02  0.11099868771E+02 -0.13725527567E+02  0.26272668073E+02  0.00000000000E+00 0. -1.
</event>
<event>
 7    1  0.1204848E-011  0.5930197E+02  0.7816164E-02  0.1266605E+00
        -11   -1    0    0    0    0  0.00000000000E+00  0.00000000000E+00  0.45593999997E+02  0.45594000000E+02  0.51100000000E-03 0.  1.
         11   -1    0    0    0    0 -0.00000000000E+00 -0.00000000000E+00 -0.45593999997E+02  0.45594000000E+02  0.51100000000E-03 0. -1.
    9900012    2    1    2    0    0 -0.76157927671E+01  0.85760227074E+01  0.29751813363E+02  0.59301970718E+02  0.50000048677E+02 0.  0.
         12    1    1    2    0    0  0.76157927671E+01 -0.85760227074E+01 -0.29751813363E+02  0.31886029282E+02  0.00000000000E+00 0. -1.
         11    1    3    3    0    0  0.37020359585E+01  0.28488910557E+01  0.58608109746E+01  0.74946885210E+01  0.51100000000E-03 0. -1.
        -11    1    3    3    0    0  0.16298128783E+00  0.15397355798E+02  0.31437732035E+02  0.35006229791E+02  0.51100000000E-03 0.  1.
         12    1    3    3    0    0 -0.11480810013E+02 -0.96702241461E+01 -0.75467296457E+01  0.16801052406E+02  0.00000000000E+00 0. -1.
</event>
<event>
 7    1  0.1204848E-011  0.5930188E+02  0.7816164E-02  0.1266605E+00
        -11   -1    0    0    0    0  0.00000000000E+00  0.00000000000E+00  0.45593999997E+02  0.45594000000E+02  0.51100000000E-03 0. -1.
         11   -1    0    0    0    0 -0.00000000000E+00 -0.00000000000E+00 -0.45593999997E+02  0.45594000000E+02  0.51100000000E-03 0.  1.
    9900012    2    1    2    0    0  0.94503777205E+01 -0.29617914803E+02  0.70847827695E+01  0.59301879771E+02  0.49999882811E+02 0.  0.
         12    1    1    2    0    0 -0.94503777205E+01  0.29617914803E+02 -0.70847827695E+01  0.31886120229E+02  0.00000000000E+00 0. -1.
         11    1    3    3    0    0  0.43443300317E+01 -0.51589094514E+01 -0.14016190794E+02  0.15554457714E+02  0.51100000000E-03 0. -1.
        -11    1    3    3    0    0  0.17035471079E+02 -0.11318691202E+02  0.95560206125E+01  0.22575153945E+02  0.51100000000E-03 0.  1.
         12    1    3    3    0    0 -0.11929423390E+02 -0.13140314150E+02  0.11544952951E+02  0.21172268112E+02  0.00000000000E+00 0. -1.
</event>
<event>
 7    1  0.1204848E-011  0.5930192E+02  0.7816164E-02  0.1266605E+00
        -11   -1    0    0    0    0  0.00000000000E+00  0.00000000000E+00  0.45593999997E+02  0.45594000000E+02  0.51100000000E-03 0. -1.
         11   -1    0    0    0    0 -0.00000000000E+00 -0.00000000000E+00 -0.45593999997E+02  0.45594000000E+02  0.51100000000E-03 0.  1.
    9900012    2    1    2    0    0  0.27685147332E+02  0.15694099578E+02  0.19873744507E+01  0.59301924645E+02  0.49999964651E+02 0.  0.
         12    1    1    2    0    0 -0.27685147332E+02 -0.15694099578E+02 -0.19873744507E+01  0.31886075355E+02  0.00000000000E+00 0. -1.
         11    1    3    3    0    0  0.46257533650E+01 -0.14626159171E+01 -0.16291777925E+02  0.16998790184E+02  0.51100000000E-03 0. -1.
        -11    1    3    3    0    0  0.81158551824E+01 -0.14414709499E+01 -0.44362970393E+01  0.93608586959E+01  0.51100000000E-03 0.  1.
         12    1    3    3    0    0  0.14943538784E+02  0.18598186445E+02  0.22715449415E+02  0.32942275765E+02  0.00000000000E+00 0. -1.
</event>
<event>
 7    1  0.1204848E-011  0.5930191E+02  0.7816164E-02  0.1266605E+00
        -11   -1    0    0    0    0  0.00000000000E+00  0.00000000000E+00  0.45593999997E+02  0.45594000000E+02  0.51100000000E-03 0.  1.
         11   -1    0    0    0    0 -0.00000000000E+00 -0.00000000000E+00 -0.45593999997E+02  0.45594000000E+02  0.51100000000E-03 0. -1.
    9900012    2    1    2    0    0  0.14768647535E+02 -0.31696782515E+01  0.28081365289E+02  0.59301907629E+02  0.49999933617E+02 0.  0.
         12    1    1    2    0    0 -0.14768647535E+02  0.31696782515E+01 -0.28081365289E+02  0.31886092371E+02  0.00000000000E+00 0. -1.
         11    1    3    3    0    0  0.33562365978E+01 -0.94433157268E+01 -0.67373852250E+01  0.12076129179E+02  0.51100000000E-03 0. -1.
        -11    1    3    3    0    0 -0.92737212634E+01  0.17314200298E+00  0.16502878071E+02  0.18930844384E+02  0.51100000000E-03 0.  1.
        -12    1    3    3    0    0  0.20686132200E+02  0.61004954724E+01  0.18315872443E+02  0.28294934066E+02  0.00000000000E+00 0.  1.
</event>
<event>
 7    1  0.1204848E-011  0.5930194E+02  0.7816164E-02  0.1266605E+00
        -11   -1    0    0    0    0  0.00000000000E+00  0.00000000000E+00  0.45593999997E+02  0.45594000000E+02  0.51100000000E-03 0. -1.
         11   -1    0    0    0    0 -0.00000000000E+00 -0.00000000000E+00 -0.45593999997E+02  0.45594000000E+02  0.51100000000E-03 0.  1.
    9900012    2    1    2    0    0 -0.17573085818E+02 -0.23106316352E+02 -0.13191108594E+02  0.59301944326E+02  0.50000000544E+02 0.  0.
         12    1    1    2    0    0  0.17573085818E+02  0.23106316352E+02  0.13191108594E+02  0.31886055674E+02  0.00000000000E+00 0. -1.
         11    1    3    3    0    0  0.12157609519E+00 -0.24981921456E+01 -0.17363378168E+02  0.17542595201E+02  0.51100000000E-03 0. -1.
        -11    1    3    3    0    0 -0.51643459443E+01 -0.10367137606E+02 -0.13506272365E+02  0.17792341179E+02  0.51100000000E-03 0.  1.
         12    1    3    3    0    0 -0.12530315969E+02 -0.10240986600E+02  0.17678541938E+02  0.23967007946E+02  0.00000000000E+00 0. -1.
</event>
<event>
 7    1  0.1204848E-011  0.5930197E+02  0.7816164E-02  0.1266605E+00
        -11   -1    0    0    0    0  0.00000000000E+00  0.00000000000E+00  0.45593999997E+02  0.45594000000E+02  0.51100000000E-03 0. -1.
         11   -1    0    0    0    0 -0.00000000000E+00 -0.00000000000E+00 -0.45593999997E+02  0.45594000000E+02  0.51100000000E-03 0.  1.
    9900012    2    1    2    0    0 -0.31876643964E+02  0.70209803282E+00  0.32474623041E+00  0.59301971207E+02  0.50000049569E+02 0.  0.
         12    1    1    2    0    0  0.31876643964E+02 -0.70209803282E+00 -0.32474623041E+00  0.31886028793E+02  0.00000000000E+00 0. -1.
         11    1    3    3    0    0 -0.14037252633E+02 -0.13559929339E+02  0.67004305253E+01  0.20635210555E+02  0.51100000000E-03 0. -1.
        -11    1    3    3    0    0 -0.59058477745E+01  0.58436501250E+01  0.12371626643E+02  0.14902497468E+02  0.51100000000E-03 0.  1.
        -12    1    3    3    0    0 -0.11933543556E+02  0.84183772473E+01 -0.18747310938E+02  0.23764263184E+02  0.00000000000E+00 0.  1.
</event>
<event>
 7    1  0.1204848E-011  0.5930191E+02  0.7816164E-02  0.1266605E+00
        -11   -1    0    0    0    0  0.00000000000E+00  0.00000000000E+00  0.45593999997E+02  0.45594000000E+02  0.51100000000E-03 0. -1.
         11   -1    0    0    0    0 -0.00000000000E+00 -0.00000000000E+00 -0.45593999997E+02  0.45594000000E+02  0.51100000000E-03 0.  1.
    9900012    2    1    2    0    0  0.97453332763E+00 -0.13971364560E+02  0.28645661240E+02  0.59301911329E+02  0.49999940366E+02 0.  0.
         12    1    1    2    0    0 -0.97453332763E+00  0.13971364560E+02 -0.28645661240E+02  0.31886088671E+02  0.00000000000E+00 0. -1.
         11    1    3    3    0    0 -0.34314679358E+01 -0.41425965401E+01 -0.14920584856E+01  0.55823218354E+01  0.51100000000E-03 0. -1.
        -11    1    3    3    0    0  0.18826222796E+01 -0.36218870255E+01 -0.11159366248E+02  0.11882499215E+02  0.51100000000E-03 0.  1.
         12    1    3    3    0    0  0.25233789838E+01 -0.62068809940E+01  0.41297085973E+02  0.41837090279E+02  0.00000000000E+00 0. -1.
</event>
<event>
 7    1  0.1204848E-011  0.5930195E+02  0.7816164E-02  0.1266605E+00
        -11   -1    0    0    0    0  0.00000000000E+00  0.00000000000E+00  0.45593999997E+02  0.45594000000E+02  0.51100000000E-03 0. -1.
         11   -1    0    0    0    0 -0.00000000000E+00 -0.00000000000E+00 -0.45593999997E+02  0.45594000000E+02  0.51100000000E-03 0.  1.
    9900012    2    1    2    0    0  0.48362172134E+01  0.31483106506E+02  0.14646242413E+01  0.59301951070E+02  0.50000012843E+02 0.  0.
         12    1    1    2    0    0 -0.48362172134E+01 -0.31483106506E+02 -0.14646242413E+01  0.31886048930E+02  0.00000000000E+00 0. -1.
         11    1    3    3    0    0 -0.82856200338E+01  0.21970349276E+02  0.80054484087E+01  0.24807961446E+02  0.51100000000E-03 0. -1.
        -11    1    3    3    0    0  0.46382316046E+01  0.17855879207E+02 -0.11349846247E+02  0.21660208327E+02  0.51100000000E-03 0.  1.
         12    1    3    3    0    0  0.84836056425E+01 -0.83431219761E+01  0.48090220798E+01  0.12833781297E+02  0.00000000000E+00 0. -1.
</event>
<event>
 7    1  0.1204848E-011  0.5930195E+02  0.7816164E-02  0.1266605E+00
        -11   -1    0    0    0    0  0.00000000000E+00  0.00000000000E+00  0.45593999997E+02  0.45594000000E+02  0.51100000000E-03 0.  1.
         11   -1    0    0    0    0 -0.00000000000E+00 -0.00000000000E+00 -0.45593999997E+02  0.45594000000E+02  0.51100000000E-03 0. -1.
    9900012    2    1    2    0    0 -0.18826889672E+02 -0.74693815731E+01  0.24626745170E+02  0.59301952684E+02  0.50000015786E+02 0.  0.
         12    1    1    2    0    0  0.18826889672E+02  0.74693815731E+01 -0.24626745170E+02  0.31886047316E+02  0.00000000000E+00 0. -1.
         11    1    3    3    0    0  0.81245062944E+01  0.79664779453E+00  0.79694279271E+01  0.11408507001E+02  0.51100000000E-03 0. -1.
        -11    1    3    3    0    0 -0.14276439154E+02  0.79921570984E+00  0.26037231071E+02  0.29705098262E+02  0.51100000000E-03 0.  1.
         12    1    3    3    0    0 -0.12674956812E+02 -0.90652450775E+01 -0.93799138277E+01  0.18188347421E+02  0.00000000000E+00 0. -1.
</event>
<event>
 7    1  0.1204848E-011  0.5930196E+02  0.7816164E-02  0.1266605E+00
        -11   -1    0    0    0    0  0.00000000000E+00  0.00000000000E+00  0.45593999997E+02  0.45594000000E+02  0.51100000000E-03 0. -1.
         11   -1    0    0    0    0 -0.00000000000E+00 -0.00000000000E+00 -0.45593999997E+02  0.45594000000E+02  0.51100000000E-03 0.  1.
    9900012    2    1    2    0    0  0.34797367171E+01  0.20330556420E+02 -0.24316242508E+02  0.59301956946E+02  0.50000023560E+02 0.  0.
         12    1    1    2    0    0 -0.34797367171E+01 -0.20330556420E+02  0.24316242508E+02  0.31886043054E+02  0.00000000000E+00 0. -1.
         11    1    3    3    0    0 -0.21914014839E+01  0.99021258643E+01 -0.17049734679E+02  0.19838038965E+02  0.51100000000E-03 0. -1.
        -11    1    3    3    0    0 -0.51753837062E+01  0.11411075009E+02 -0.19440986784E+02  0.23128968779E+02  0.51100000000E-03 0.  1.
         12    1    3    3    0    0  0.10846521907E+02 -0.98264445296E+00  0.12174478956E+02  0.16334949202E+02  0.00000000000E+00 0. -1.
</event>
<event>
 7    1  0.1204848E-011  0.5930192E+02  0.7816164E-02  0.1266605E+00
        -11   -1    0    0    0    0  0.00000000000E+00  0.00000000000E+00  0.45593999997E+02  0.45594000000E+02  0.51100000000E-03 0. -1.
         11   -1    0    0    0    0 -0.00000000000E+00 -0.00000000000E+00 -0.45593999997E+02  0.45594000000E+02  0.51100000000E-03 0.  1.
    9900012    2    1    2    0    0  0.21135021894E+02 -0.21395111485E+02 -0.10596326795E+02  0.59301920161E+02  0.49999956474E+02 0.  0.
         12    1    1    2    0    0 -0.21135021894E+02  0.21395111485E+02  0.10596326795E+02  0.31886079839E+02  0.00000000000E+00 0. -1.
         11    1    3    3    0    0  0.63796025450E+01 -0.90351705006E+01  0.12854241083E+02  0.16957745979E+02  0.51100000000E-03 0. -1.
        -11    1    3    3    0    0  0.16863268605E+01 -0.65697659602E+01  0.63508796066E+01  0.92918886719E+01  0.51100000000E-03 0.  1.
        -12    1    3    3    0    0  0.13069092489E+02 -0.57901750238E+01 -0.29801447485E+02  0.33052285511E+02  0.00000000000E+00 0.  1.
</event>
<event>
 7    1  0.1204848E-011  0.5930192E+02  0.7816164E-02  0.1266605E+00
        -11   -1    0    0    0    0  0.00000000000E+00  0.00000000000E+00  0.45593999997E+02  0.45594000000E+02  0.51100000000E-03 0. -1.
         11   -1    0    0    0    0 -0.00000000000E+00 -0.00000000000E+00 -0.45593999997E+02  0.45594000000E+02  0.51100000000E-03 0.  1.
    9900012    2    1    2    0    0  0.22212237885E+02  0.57875030789E+01  0.22132399124E+02  0.59301924752E+02  0.49999964845E+02 0.  0.
         12    1    1    2    0    0 -0.22212237885E+02 -0.57875030789E+01 -0.22132399124E+02  0.31886075248E+02  0.00000000000E+00 0. -1.
         11    1    3    3    0    0  0.44634422696E+01  0.21876262321E+02  0.17377157770E+02  0.28292380290E+02  0.51100000000E-03 0. -1.
        -11    1    3    3    0    0  0.58714396497E+01  0.15140920666E+01 -0.47904522037E+01  0.77275294191E+01  0.51100000000E-03 0.  1.
         12    1    3    3    0    0  0.11877355966E+02 -0.17602851309E+02  0.95456935576E+01  0.23282015042E+02  0.00000000000E+00 0. -1.
</event>
<event>
 7    1  0.1204848E-011  0.5930195E+02  0.7816164E-02  0.1266605E+00
        -11   -1    0    0    0    0  0.00000000000E+00  0.00000000000E+00  0.45593999997E+02  0.45594000000E+02  0.51100000000E-03 0.  1.
         11   -1    0    0    0    0 -0.00000000000E+00 -0.00000000000E+00 -0.45593999997E+02  0.45594000000E+02  0.51100000000E-03 0. -1.
    9900012    2    1    2    0    0  0.28220063778E+02  0.78614986286E+01  0.12591478129E+02  0.59301945340E+02  0.50000002393E+02 0.  0.
         12    1    1    2    0    0 -0.28220063778E+02 -0.78614986286E+01 -0.12591478129E+02  0.31886054660E+02  0.00000000000E+00 0. -1.
         11    1    3    3    0    0  0.10503725008E+02  0.15363022561E+02  0.90643058452E+01  0.20700539654E+02  0.51100000000E-03 0. -1.
        -11    1    3    3    0    0  0.22263265571E+02 -0.21362194753E+01 -0.91014927868E+01  0.24146502826E+02  0.51100000000E-03 0.  1.
         12    1    3    3    0    0 -0.45469268005E+01 -0.53653044570E+01  0.12628665070E+02  0.14454902860E+02  0.00000000000E+00 0. -1.
</event>
<event>
 7    1  0.1204848E-011  0.5930195E+02  0.7816164E-02  0.1266605E+00
        -11   -1    0    0    0    0  0.00000000000E+00  0.00000000000E+00  0.45593999997E+02  0.45594000000E+02  0.51100000000E-03 0. -1.
         11   -1    0    0    0    0 -0.00000000000E+00 -0.00000000000E+00 -0.45593999997E+02  0.45594000000E+02  0.51100000000E-03 0.  1.
    9900012    2    1    2    0    0 -0.14565210196E+02  0.25139908592E+02 -0.13136198299E+02  0.59301951988E+02  0.50000014518E+02 0.  0.
         12    1    1    2    0    0  0.14565210196E+02 -0.25139908592E+02  0.13136198299E+02  0.31886048012E+02  0.00000000000E+00 0. -1.
         11    1    3    3    0    0  0.41440845846E+01  0.16095274468E+02  0.46440679733E+00  0.16626694535E+02  0.51100000000E-03 0. -1.
        -11    1    3    3    0    0 -0.52991087634E+01  0.12008780245E+02  0.92200986317E+01  0.16040622672E+02  0.51100000000E-03 0.  1.
        -12    1    3    3    0    0 -0.13410186017E+02 -0.29641461217E+01 -0.22820703728E+02  0.26634634781E+02  0.00000000000E+00 0.  1.
</event>
<event>
 7    1  0.1204848E-011  0.5930194E+02  0.7816164E-02  0.1266605E+00
        -11   -1    0    0    0    0  0.00000000000E+00  0.00000000000E+00  0.45593999997E+02  0.45594000000E+02  0.51100000000E-03 0. -1.
         11   -1    0    0    0    0 -0.00000000000E+00 -0.00000000000E+00 -0.45593999997E+02  0.45594000000E+02  0.51100000000E-03 0.  1.
    9900012    2    1    2    0    0 -0.59367098772E+01  0.86510224507E+01 -0.30110395813E+02  0.59301942708E+02  0.49999997593E+02 0.  0.
         12    1    1    2    0    0  0.59367098772E+01 -0.86510224507E+01  0.30110395813E+02  0.31886057292E+02  0.00000000000E+00 0. -1.
         11    1    3    3    0    0 -0.44223128503E+00  0.81411437837E+01 -0.26685040512E+02  0.27902780829E+02  0.51100000000E-03 0. -1.
        -11    1    3    3    0    0 -0.41759857911E+01 -0.13213874193E+02 -0.90040749203E+01  0.16526303094E+02  0.51100000000E-03 0.  1.
         12    1    3    3    0    0 -0.13184928011E+01  0.13723752861E+02  0.55787196188E+01  0.14872858785E+02  0.00000000000E+00 0. -1.
</event>
<event>
 7    1  0.1204848E-011  0.5930195E+02  0.7816164E-02  0.1266605E+00
        -11   -1    0    0    0    0  0.00000000000E+00  0.00000000000E+00  0.45593999997E+02  0.45594000000E+02  0.51100000000E-03 0. -1.
         11   -1    0    0    0    0 -0.00000000000E+00 -0.00000000000E+00 -0.45593999997E+02  0.45594000000E+02  0.51100000000E-03 0.  1.
    9900012    2    1    2    0    0 -0.14457697527E+02 -0.15960421260E+01 -0.28375128814E+02  0.59301948136E+02  0.50000007493E+02 0.  0.
         12    1    1    2    0    0  0.14457697527E+02  0.15960421260E+01  0.28375128814E+02  0.31886051864E+02  0.00000000000E+00 0. -1.
         11    1    3    3    0    0 -0.60434894275E+01 -0.12207678296E+02 -0.24693255787E+02  0.28201206631E+02  0.51100000000E-03 0. -1.
        -11    1    3    3    0    0  0.82143647012E+01  0.57747905306E+01 -0.84665497903E+01  0.13134171414E+02  0.51100000000E-03 0.  1.
        -12    1    3    3    0    0 -0.16628572801E+02  0.48368456393E+01  0.47846767627E+01  0.17966570091E+02  0.00000000000E+00 0.  1.
</event>
<event>
 7    1  0.1204848E-011  0.5930195E+02  0.7816164E-02  0.1266605E+00
        -11   -1    0    0    0    0  0.00000000000E+00  0.00000000000E+00  0.45593999997E+02  0.45594000000E+02  0.51100000000E-03 0.  1.
         11   -1    0    0    0    0 -0.00000000000E+00 -0.00000000000E+00 -0.45593999997E+02  0.45594000000E+02  0.51100000000E-03 0. -1.
    9900012    2    1    2    0    0  0.24975519954E+02  0.13798774511E+02  0.14231570672E+02  0.59301946955E+02  0.50000005339E+02 0.  0.
         12    1    1    2    0    0 -0.24975519954E+02 -0.13798774511E+02 -0.14231570672E+02  0.31886053045E+02  0.00000000000E+00 0. -1.
         11    1    3    3    0    0 -0.17164271640E+01 -0.12687677472E+02  0.35936989937E+01  0.13298043260E+02  0.51100000000E-03 0. -1.
        -11    1    3    3    0    0  0.16202836158E+02  0.46526675967E+00  0.72059518983E+01  0.17739056224E+02  0.51100000000E-03 0.  1.
         12    1    3    3    0    0  0.10489110961E+02  0.26021185223E+02  0.34319197801E+01  0.28264847470E+02  0.00000000000E+00 0. -1.
</event>
<event>
 7    1  0.1204848E-011  0.5930189E+02  0.7816164E-02  0.1266605E+00
        -11   -1    0    0    0    0  0.00000000000E+00  0.00000000000E+00  0.45593999997E+02  0.45594000000E+02  0.51100000000E-03 0.  1.
         11   -1    0    0    0    0 -0.00000000000E+00 -0.00000000000E+00 -0.45593999997E+02  0.45594000000E+02  0.51100000000E-03 0. -1.
    9900012    2    1    2    0    0 -0.27233540441E+02 -0.16569807162E+02 -0.70716654769E+00  0.59301885171E+02  0.49999892659E+02 0.  0.
         12    1    1    2    0    0  0.27233540441E+02  0.16569807162E+02  0.70716654769E+00  0.31886114829E+02  0.00000000000E+00 0. -1.
         11    1    3    3    0    0 -0.15094027222E+02  0.13735892547E+01 -0.62154553666E+01  0.16381339716E+02  0.51100000000E-03 0. -1.
        -11    1    3    3    0    0 -0.20542827181E+02 -0.24325377090E+02  0.24451407392E+01  0.31932905171E+02  0.51100000000E-03 0.  1.
         12    1    3    3    0    0  0.84033139613E+01  0.63819806737E+01  0.30631480797E+01  0.10987640284E+02  0.00000000000E+00 0. -1.
</event>
<event>
 7    1  0.1204848E-011  0.5930183E+02  0.7816164E-02  0.1266605E+00
        -11   -1    0    0    0    0  0.00000000000E+00  0.00000000000E+00  0.45593999997E+02  0.45594000000E+02  0.51100000000E-03 0.  1.
         11   -1    0    0    0    0 -0.00000000000E+00 -0.00000000000E+00 -0.45593999997E+02  0.45594000000E+02  0.51100000000E-03 0. -1.
    9900012    2    1    2    0    0 -0.15050735612E+02  0.10314027341E+01  0.28091625157E+02  0.59301829989E+02  0.49999792020E+02 0.  0.
         12    1    1    2    0    0  0.15050735612E+02 -0.10314027341E+01 -0.28091625157E+02  0.31886170011E+02  0.00000000000E+00 0. -1.
         11    1    3    3    0    0  0.14584835615E+02 -0.37498188248E+01  0.92461402331E+01  0.17671153913E+02  0.51100000000E-03 0. -1.
        -11    1    3    3    0    0 -0.98605482414E+01 -0.87299324523E+01  0.68428765443E+01  0.14841397909E+02  0.51100000000E-03 0.  1.
        -12    1    3    3    0    0 -0.19775022985E+02  0.13511154011E+02  0.12002608379E+02  0.26789278167E+02  0.00000000000E+00 0.  1.
</event>
<event>
 7    1  0.1204848E-011  0.5930200E+02  0.7816164E-02  0.1266605E+00
        -11   -1    0    0    0    0  0.00000000000E+00  0.00000000000E+00  0.45593999997E+02  0.45594000000E+02  0.51100000000E-03 0.  1.
         11   -1    0    0    0    0 -0.00000000000E+00 -0.00000000000E+00 -0.45593999997E+02  0.45594000000E+02  0.51100000000E-03 0. -1.
    9900012    2    1    2    0    0  0.31110266816E+02  0.29839146370E+01  0.63217532423E+01  0.59301999750E+02  0.50000101624E+02 0.  0.
         12    1    1    2    0    0 -0.31110266816E+02 -0.29839146370E+01 -0.63217532423E+01  0.31886000250E+02  0.00000000000E+00 0. -1.
         11    1    3    3    0    0  0.31832294212E+01 -0.24450955433E+01 -0.14224947693E+02  0.14780412000E+02  0.51100000000E-03 0. -1.
        -11    1    3    3    0    0  0.62741272817E+01  0.32632016125E+01 -0.66384439694E+01  0.96995925948E+01  0.51100000000E-03 0.  1.
         12    1    3    3    0    0  0.21652910113E+02  0.21658085678E+01  0.27185144904E+02  0.34821995155E+02  0.00000000000E+00 0. -1.
</event>
<event>
 7    1  0.1204848E-011  0.5930194E+02  0.7816164E-02  0.1266605E+00
        -11   -1    0    0    0    0  0.00000000000E+00  0.00000000000E+00  0.45593999997E+02  0.45594000000E+02  0.51100000000E-03 0. -1.
         11   -1    0    0    0    0 -0.00000000000E+00 -0.00000000000E+00 -0.45593999997E+02  0.45594000000E+02  0.51100000000E-03 0.  1.
    9900012    2    1    2    0    0 -0.26722707041E+02 -0.98690491053E+01 -0.14325492234E+02  0.59301938318E+02  0.49999989587E+02 0.  0.
         12    1    1    2    0    0  0.26722707041E+02  0.98690491053E+01  0.14325492234E+02  0.31886061682E+02  0.00000000000E+00 0. -1.
         11    1    3    3    0    0  0.68485089989E+01  0.14394667196E+01 -0.83894499028E+01  0.10925063381E+02  0.51100000000E-03 0.  1.
        -11    1    3    3    0    0 -0.30098515925E+02  0.16477447971E+01 -0.13443236045E+02  0.33005398338E+02  0.51100000000E-03 0. -1.
         12    1    3    3    0    0 -0.34727001143E+01 -0.12956260622E+02  0.75071937138E+01  0.15371476599E+02  0.00000000000E+00 0. -1.
</event>
<event>
 7    1  0.1204848E-011  0.5930195E+02  0.7816164E-02  0.1266605E+00
        -11   -1    0    0    0    0  0.00000000000E+00  0.00000000000E+00  0.45593999997E+02  0.45594000000E+02  0.51100000000E-03 0. -1.
         11   -1    0    0    0    0 -0.00000000000E+00 -0.00000000000E+00 -0.45593999997E+02  0.45594000000E+02  0.51100000000E-03 0.  1.
    9900012    2    1    2    0    0  0.31369244541E+02  0.38406209219E+00 -0.57046769367E+01  0.59301947474E+02  0.50000006285E+02 0.  0.
         12    1    1    2    0    0 -0.31369244541E+02 -0.38406209219E+00  0.57046769367E+01  0.31886052526E+02  0.00000000000E+00 0. -1.
         11    1    3    3    0    0  0.17354239690E+02 -0.59591115525E+01  0.65291935304E+01  0.19475908557E+02  0.51100000000E-03 0. -1.
        -11    1    3    3    0    0  0.15740215209E+02  0.81685075838E+01  0.79874215354E+01  0.19449364874E+02  0.51100000000E-03 0.  1.
        -12    1    3    3    0    0 -0.17252103581E+01 -0.18253339391E+01 -0.20221292002E+02  0.20376674042E+02  0.00000000000E+00 0.  1.
</event>
<event>
 7    1  0.1204848E-011  0.5930195E+02  0.7816164E-02  0.1266605E+00
        -11   -1    0    0    0    0  0.00000000000E+00  0.00000000000E+00  0.45593999997E+02  0.45594000000E+02  0.51100000000E-03 0.  1.
         11   -1    0    0    0    0 -0.00000000000E+00 -0.00000000000E+00 -0.45593999997E+02  0.45594000000E+02  0.51100000000E-03 0. -1.
    9900012    2    1    2    0    0  0.58744236227E+00  0.62943475818E+01  0.31253099085E+02  0.59301951288E+02  0.50000013241E+02 0.  0.
         12    1    1    2    0    0 -0.58744236227E+00 -0.62943475818E+01 -0.31253099085E+02  0.31886048712E+02  0.00000000000E+00 0. -1.
         11    1    3    3    0    0  0.10311366729E+02 -0.18637184794E-01  0.48250700523E+01  0.11384460129E+02  0.51100000000E-03 0. -1.
        -11    1    3    3    0    0  0.12450520273E+02  0.97191755502E+01  0.42174455069E+01  0.16348231565E+02  0.51100000000E-03 0.  1.
        -12    1    3    3    0    0 -0.22174444640E+02 -0.34061907836E+01  0.22210583526E+02  0.31569259594E+02  0.00000000000E+00 0.  1.
</event>
<event>
 7    1  0.1204848E-011  0.5930196E+02  0.7816164E-02  0.1266605E+00
        -11   -1    0    0    0    0  0.00000000000E+00  0.00000000000E+00  0.45593999997E+02  0.45594000000E+02  0.51100000000E-03 0. -1.
         11   -1    0    0    0    0 -0.00000000000E+00 -0.00000000000E+00 -0.45593999997E+02  0.45594000000E+02  0.51100000000E-03 0.  1.
    9900012    2    1    2    0    0 -0.23270054099E+02  0.57176585197E+01 -0.21036464077E+02  0.59301955128E+02  0.50000020244E+02 0.  0.
         12    1    1    2    0    0  0.23270054099E+02 -0.57176585197E+01  0.21036464077E+02  0.31886044872E+02  0.00000000000E+00 0. -1.
         11    1    3    3    0    0  0.61731552605E+01  0.34016021983E+01 -0.11885596814E+02  0.13818326789E+02  0.51100000000E-03 0.  1.
        -11    1    3    3    0    0 -0.31752607433E+02  0.10280932317E+02 -0.13638197032E+02  0.36054487469E+02  0.51100000000E-03 0. -1.
         12    1    3    3    0    0  0.23093980735E+01 -0.79648759958E+01  0.44873297682E+01  0.94291408695E+01  0.00000000000E+00 0. -1.
</event>
<event>
 7    1  0.1204848E-011  0.5930196E+02  0.7816164E-02  0.1266605E+00
        -11   -1    0    0    0    0  0.00000000000E+00  0.00000000000E+00  0.45593999997E+02  0.45594000000E+02  0.51100000000E-03 0. -1.
         11   -1    0    0    0    0 -0.00000000000E+00 -0.00000000000E+00 -0.45593999997E+02  0.45594000000E+02  0.51100000000E-03 0.  1.
    9900012    2    1    2    0    0 -0.15700326463E+02  0.24816510315E+02 -0.12424181455E+02  0.59301957284E+02  0.50000024176E+02 0.  0.
         12    1    1    2    0    0  0.15700326463E+02 -0.24816510315E+02  0.12424181455E+02  0.31886042716E+02  0.00000000000E+00 0. -1.
         11    1    3    3    0    0  0.24073487482E+01 -0.11194566157E+00  0.12724172609E+02  0.12950383341E+02  0.51100000000E-03 0. -1.
        -11    1    3    3    0    0 -0.47910154998E+00  0.20606428379E+02 -0.15546907762E+02  0.25817838214E+02  0.51100000000E-03 0.  1.
        -12    1    3    3    0    0 -0.17628573661E+02  0.43220275975E+01 -0.96014463027E+01  0.20533735729E+02  0.00000000000E+00 0.  1.
</event>
<event>
 7    1  0.1204848E-011  0.5930189E+02  0.7816164E-02  0.1266605E+00
        -11   -1    0    0    0    0  0.00000000000E+00  0.00000000000E+00  0.45593999997E+02  0.45594000000E+02  0.51100000000E-03 0.  1.
         11   -1    0    0    0    0 -0.00000000000E+00 -0.00000000000E+00 -0.45593999997E+02  0.45594000000E+02  0.51100000000E-03 0. -1.
    9900012    2    1    2    0    0 -0.26811297287E+02 -0.77736112708E+01  0.15409387218E+02  0.59301891601E+02  0.49999904386E+02 0.  0.
         12    1    1    2    0    0  0.26811297287E+02  0.77736112708E+01 -0.15409387218E+02  0.31886108399E+02  0.00000000000E+00 0. -1.
         11    1    3    3    0    0  0.67112268230E+01 -0.14967571849E+02  0.62371658287E+01  0.17549102836E+02  0.51100000000E-03 0. -1.
        -11    1    3    3    0    0  0.16554737453E+01  0.46114444217E+01 -0.10864242874E+01  0.50185985065E+01  0.51100000000E-03 0.  1.
        -12    1    3    3    0    0 -0.35177997855E+02  0.25825161564E+01  0.10258645676E+02  0.36734190258E+02  0.00000000000E+00 0.  1.
</event>
<event>
 7    1  0.1204848E-011  0.5930194E+02  0.7816164E-02  0.1266605E+00
        -11   -1    0    0    0    0  0.00000000000E+00  0.00000000000E+00  0.45593999997E+02  0.45594000000E+02  0.51100000000E-03 0.  1.
         11   -1    0    0    0    0 -0.00000000000E+00 -0.00000000000E+00 -0.45593999997E+02  0.45594000000E+02  0.51100000000E-03 0. -1.
    9900012    2    1    2    0    0  0.26854322865E+02  0.68062078108E+01  0.15787387513E+02  0.59301941514E+02  0.49999995415E+02 0.  0.
         12    1    1    2    0    0 -0.26854322865E+02 -0.68062078108E+01 -0.15787387513E+02  0.31886058486E+02  0.00000000000E+00 0. -1.
         11    1    3    3    0    0  0.10127031253E+01 -0.75408124770E+01  0.30091388888E+01  0.81819519399E+01  0.51100000000E-03 0. -1.
        -11    1    3    3    0    0  0.20747685523E+02 -0.89018263193E+01 -0.26874216310E+01  0.22736121077E+02  0.51100000000E-03 0.  1.
         12    1    3    3    0    0  0.50939342173E+01  0.23248846607E+02  0.15465670255E+02  0.28383868496E+02  0.00000000000E+00 0. -1.
</event>
<event>
 7    1  0.1204848E-011  0.5930196E+02  0.7816164E-02  0.1266605E+00
        -11   -1    0    0    0    0  0.00000000000E+00  0.00000000000E+00  0.45593999997E+02  0.45594000000E+02  0.51100000000E-03 0.  1.
         11   -1    0    0    0    0 -0.00000000000E+00 -0.00000000000E+00 -0.45593999997E+02  0.45594000000E+02  0.51100000000E-03 0. -1.
    9900012    2    1    2    0    0 -0.30065021280E+02 -0.75113338529E+01  0.75095859324E+01  0.59301960395E+02  0.50000029850E+02 0.  0.
         12    1    1    2    0    0  0.30065021280E+02  0.75113338529E+01 -0.75095859324E+01  0.31886039605E+02  0.00000000000E+00 0. -1.
         11    1    3    3    0    0  0.64694447489E+00 -0.85127096867E+01  0.85046794984E+01  0.12050491152E+02  0.51100000000E-03 0. -1.
        -11    1    3    3    0    0 -0.13034322995E+02 -0.16994602921E+02 -0.41911550692E+01  0.21823745908E+02  0.51100000000E-03 0.  1.
        -12    1    3    3    0    0 -0.17677642759E+02  0.17995978755E+02  0.31960615032E+01  0.25427723335E+02  0.00000000000E+00 0.  1.
</event>
<event>
 7    1  0.1204848E-011  0.5930197E+02  0.7816164E-02  0.1266605E+00
        -11   -1    0    0    0    0  0.00000000000E+00  0.00000000000E+00  0.45593999997E+02  0.45594000000E+02  0.51100000000E-03 0. -1.
         11   -1    0    0    0    0 -0.00000000000E+00 -0.00000000000E+00 -0.45593999997E+02  0.45594000000E+02  0.51100000000E-03 0.  1.
    9900012    2    1    2    0    0  0.25205163359E+02  0.26929812640E+01 -0.19343387437E+02  0.59301967861E+02  0.50000043466E+02 0.  0.
         12    1    1    2    0    0 -0.25205163359E+02 -0.26929812640E+01  0.19343387437E+02  0.31886032139E+02  0.00000000000E+00 0. -1.
         11    1    3    3    0    0 -0.11635057191E+01  0.58194854161E+00  0.22534818118E+01  0.26020357801E+01  0.51100000000E-03 0. -1.
        -11    1    3    3    0    0  0.22757667472E+02 -0.13988535590E+02  0.32118416716E+01  0.26905510288E+02  0.51100000000E-03 0.  1.
        -12    1    3    3    0    0  0.36110016061E+01  0.16099568312E+02 -0.24808710920E+02  0.29794421793E+02  0.00000000000E+00 0.  1.
</event>
<event>
 7    1  0.1204848E-011  0.5930193E+02  0.7816164E-02  0.1266605E+00
        -11   -1    0    0    0    0  0.00000000000E+00  0.00000000000E+00  0.45593999997E+02  0.45594000000E+02  0.51100000000E-03 0. -1.
         11   -1    0    0    0    0 -0.00000000000E+00 -0.00000000000E+00 -0.45593999997E+02  0.45594000000E+02  0.51100000000E-03 0.  1.
    9900012    2    1    2    0    0  0.10087737067E+02 -0.30106895310E+02  0.29212332089E+01  0.59301934269E+02  0.49999982202E+02 0.  0.
         12    1    1    2    0    0 -0.10087737067E+02  0.30106895310E+02 -0.29212332089E+01  0.31886065731E+02  0.00000000000E+00 0. -1.
         11    1    3    3    0    0 -0.31464107265E+01  0.14385881726E+01  0.69627417251E+00  0.35290557341E+01  0.51100000000E-03 0. -1.
        -11    1    3    3    0    0 -0.11810947076E+02  0.37884367079E+01  0.10336417553E+01  0.12446651721E+02  0.51100000000E-03 0.  1.
         12    1    3    3    0    0  0.25045094869E+02 -0.35333920191E+02  0.11913172811E+01  0.43326226814E+02  0.00000000000E+00 0. -1.
</event>
<event>
 7    1  0.1204848E-011  0.5930195E+02  0.7816164E-02  0.1266605E+00
        -11   -1    0    0    0    0  0.00000000000E+00  0.00000000000E+00  0.45593999997E+02  0.45594000000E+02  0.51100000000E-03 0. -1.
         11   -1    0    0    0    0 -0.00000000000E+00 -0.00000000000E+00 -0.45593999997E+02  0.45594000000E+02  0.51100000000E-03 0.  1.
    9900012    2    1    2    0    0  0.31508745676E+02 -0.15920823698E+01  0.46243149727E+01  0.59301951808E+02  0.50000014189E+02 0.  0.
         12    1    1    2    0    0 -0.31508745676E+02  0.15920823698E+01 -0.46243149727E+01  0.31886048192E+02  0.00000000000E+00 0. -1.
         11    1    3    3    0    0  0.51672043936E+01 -0.83098226684E+01 -0.13687413654E+02  0.16825529615E+02  0.51100000000E-03 0.  1.
        -11    1    3    3    0    0  0.32392266082E+00 -0.68255143218E+01 -0.16086595501E+01  0.70199969698E+01  0.51100000000E-03 0. -1.
         12    1    3    3    0    0  0.26017618622E+02  0.13543254620E+02  0.19920388177E+02  0.35456425223E+02  0.00000000000E+00 0. -1.
</event>
<event>
 7    1  0.1204848E-011  0.5930195E+02  0.7816164E-02  0.1266605E+00
        -11   -1    0    0    0    0  0.00000000000E+00  0.00000000000E+00  0.45593999997E+02  0.45594000000E+02  0.51100000000E-03 0.  1.
         11   -1    0    0    0    0 -0.00000000000E+00 -0.00000000000E+00 -0.45593999997E+02  0.45594000000E+02  0.51100000000E-03 0. -1.
    9900012    2    1    2    0    0 -0.11020448602E+02 -0.13469509283E+02  0.26717820640E+02  0.59301954346E+02  0.50000018818E+02 0.  0.
         12    1    1    2    0    0  0.11020448602E+02  0.13469509283E+02 -0.26717820640E+02  0.31886045654E+02  0.00000000000E+00 0. -1.
         11    1    3    3    0    0  0.14060670137E+02 -0.19349316912E+02  0.16253354805E+02  0.28918334190E+02  0.51100000000E-03 0. -1.
        -11    1    3    3    0    0 -0.20126476819E+00 -0.18054313597E+01 -0.83327253942E+00  0.19986078374E+01  0.51100000000E-03 0.  1.
        -12    1    3    3    0    0 -0.24879853971E+02  0.76852389887E+01  0.11297738374E+02  0.28385012318E+02  0.00000000000E+00 0.  1.
</event>
<event>
 7    1  0.1204848E-011  0.5930190E+02  0.7816164E-02  0.1266605E+00
        -11   -1    0    0    0    0  0.00000000000E+00  0.00000000000E+00  0.45593999997E+02  0.45594000000E+02  0.51100000000E-03 0. -1.
         11   -1    0    0    0    0 -0.00000000000E+00 -0.00000000000E+00 -0.45593999997E+02  0.45594000000E+02  0.51100000000E-03 0.  1.
    9900012    2    1    2    0    0 -0.14886006207E+02  0.76611647906E+01 -0.27137366858E+02  0.59301901043E+02  0.49999921605E+02 0.  0.
         12    1    1    2    0    0  0.14886006207E+02 -0.76611647906E+01  0.27137366858E+02  0.31886098957E+02  0.00000000000E+00 0. -1.
         11    1    3    3    0    0 -0.11607800384E+01 -0.92311651040E+01 -0.90802101095E+00  0.93480651416E+01  0.51100000000E-03 0. -1.
        -11    1    3    3    0    0 -0.21281946959E+02  0.21861195133E+02 -0.27179302614E+02  0.40860098016E+02  0.51100000000E-03 0.  1.
         12    1    3    3    0    0  0.75567207903E+01 -0.49688652386E+01  0.94995676736E+00  0.90937378850E+01  0.00000000000E+00 0. -1.
</event>
<event>
 7    1  0.1204848E-011  0.5930203E+02  0.7816164E-02  0.1266604E+00
        -11   -1    0    0    0    0  0.00000000000E+00  0.00000000000E+00  0.45593999997E+02  0.45594000000E+02  0.51100000000E-03 0. -1.
         11   -1    0    0    0    0 -0.00000000000E+00 -0.00000000000E+00 -0.45593999997E+02  0.45594000000E+02  0.51100000000E-03 0.  1.
    9900012    2    1    2    0    0  0.29506911486E+02 -0.12056950166E+02  0.82894073471E+00  0.59302031056E+02  0.50000158719E+02 0.  0.
         12    1    1    2    0    0 -0.29506911486E+02  0.12056950166E+02 -0.82894073471E+00  0.31885968944E+02  0.00000000000E+00 0. -1.
         11    1    3    3    0    0  0.17356440034E+02 -0.72560190905E+01  0.10735019850E+02  0.21659558517E+02  0.51100000000E-03 0. -1.
        -11    1    3    3    0    0  0.51777215923E+01 -0.59746841342E+01  0.12141568826E+02  0.14488731663E+02  0.51100000000E-03 0.  1.
        -12    1    3    3    0    0  0.69727498599E+01  0.11737530590E+01 -0.22047647941E+02  0.23153740877E+02  0.00000000000E+00 0.  1.
</event>
<event>
 7    1  0.1204848E-011  0.5930193E+02  0.7816164E-02  0.1266605E+00
        -11   -1    0    0    0    0  0.00000000000E+00  0.00000000000E+00  0.45593999997E+02  0.45594000000E+02  0.51100000000E-03 0. -1.
         11   -1    0    0    0    0 -0.00000000000E+00 -0.00000000000E+00 -0.45593999997E+02  0.45594000000E+02  0.51100000000E-03 0.  1.
    9900012    2    1    2    0    0  0.10821616043E+02  0.13076815970E+02 -0.26992793061E+02  0.59301931460E+02  0.49999977080E+02 0.  0.
         12    1    1    2    0    0 -0.10821616043E+02 -0.13076815970E+02  0.26992793061E+02  0.31886068540E+02  0.00000000000E+00 0. -1.
         11    1    3    3    0    0  0.11413359420E+02 -0.11530947064E+02 -0.56077359702E+01  0.17166077491E+02  0.51100000000E-03 0. -1.
        -11    1    3    3    0    0  0.87434080828E+01 -0.11085665884E+01 -0.68063303262E+01  0.11135629194E+02  0.51100000000E-03 0.  1.
         12    1    3    3    0    0 -0.93351514602E+01  0.25716329622E+02 -0.14578726765E+02  0.31000224775E+02  0.00000000000E+00 0. -1.
</event>
<event>
 7    1  0.1204848E-011  0.5930194E+02  0.7816164E-02  0.1266605E+00
        -11   -1    0    0    0    0  0.00000000000E+00  0.00000000000E+00  0.45593999997E+02  0.45594000000E+02  0.51100000000E-03 0.  1.
         11   -1    0    0    0    0 -0.00000000000E+00 -0.00000000000E+00 -0.45593999997E+02  0.45594000000E+02  0.51100000000E-03 0. -1.
    9900012    2    1    2    0    0  0.24741520213E+02 -0.13239596312E+02  0.15142350369E+02  0.59301944934E+02  0.50000001653E+02 0.  0.
         12    1    1    2    0    0 -0.24741520213E+02  0.13239596312E+02 -0.15142350369E+02  0.31886055066E+02  0.00000000000E+00 0. -1.
         11    1    3    3    0    0 -0.24968861363E+01  0.35742674352E+01 -0.88964667011E+01  0.99074188416E+01  0.51100000000E-03 0. -1.
        -11    1    3    3    0    0  0.76684443770E+01 -0.14377076510E+02 -0.23371165259E+01  0.16461089941E+02  0.51100000000E-03 0.  1.
        -12    1    3    3    0    0  0.19569961973E+02 -0.24367872369E+01  0.26375933596E+02  0.32933436151E+02  0.00000000000E+00 0.  1.
</event>
<event>
 7    1  0.1204848E-011  0.5930195E+02  0.7816164E-02  0.1266605E+00
        -11   -1    0    0    0    0  0.00000000000E+00  0.00000000000E+00  0.45593999997E+02  0.45594000000E+02  0.51100000000E-03 0. -1.
         11   -1    0    0    0    0 -0.00000000000E+00 -0.00000000000E+00 -0.45593999997E+02  0.45594000000E+02  0.51100000000E-03 0.  1.
    9900012    2    1    2    0    0  0.17330187808E+02  0.10997011403E+02 -0.24401851524E+02  0.59301952471E+02  0.50000015398E+02 0.  0.
         12    1    1    2    0    0 -0.17330187808E+02 -0.10997011403E+02  0.24401851524E+02  0.31886047529E+02  0.00000000000E+00 0. -1.
         11    1    3    3    0    0  0.90174256908E+01 -0.22281502321E+00 -0.25156454446E+02  0.26724722883E+02  0.51100000000E-03 0.  1.
        -11    1    3    3    0    0  0.13253681324E+02  0.19047307721E+02  0.17320902270E+01  0.23269296011E+02  0.51100000000E-03 0. -1.
         12    1    3    3    0    0 -0.49409192075E+01 -0.78274812942E+01 -0.97748730446E+00  0.93079335760E+01  0.00000000000E+00 0. -1.
</event>
<event>
 7    1  0.1204848E-011  0.5930197E+02  0.7816164E-02  0.1266605E+00
        -11   -1    0    0    0    0  0.00000000000E+00  0.00000000000E+00  0.45593999997E+02  0.45594000000E+02  0.51100000000E-03 0. -1.
         11   -1    0    0    0    0 -0.00000000000E+00 -0.00000000000E+00 -0.45593999997E+02  0.45594000000E+02  0.51100000000E-03 0.  1.
    9900012    2    1    2    0    0  0.92931185057E+01  0.20284232510E+02 -0.22779529289E+02  0.59301967090E+02  0.50000042060E+02 0.  0.
         12    1    1    2    0    0 -0.92931185057E+01 -0.20284232510E+02  0.22779529289E+02  0.31886032910E+02  0.00000000000E+00 0. -1.
         11    1    3    3    0    0 -0.20528469407E+01  0.19029985374E+02  0.26865734097E+01  0.19328015957E+02  0.51100000000E-03 0. -1.
        -11    1    3    3    0    0 -0.95298462690E+01  0.25672313687E+01 -0.74110812353E+01  0.12342316320E+02  0.51100000000E-03 0.  1.
        -12    1    3    3    0    0  0.20875811715E+02 -0.13129842319E+01 -0.18055021464E+02  0.27631634813E+02  0.00000000000E+00 0.  1.
</event>
<event>
 7    1  0.1204848E-011  0.5930190E+02  0.7816164E-02  0.1266605E+00
        -11   -1    0    0    0    0  0.00000000000E+00  0.00000000000E+00  0.45593999997E+02  0.45594000000E+02  0.51100000000E-03 0. -1.
         11   -1    0    0    0    0 -0.00000000000E+00 -0.00000000000E+00 -0.45593999997E+02  0.45594000000E+02  0.51100000000E-03 0.  1.
    9900012    2    1    2    0    0 -0.54627429291E+01  0.22994223163E+02 -0.21404379601E+02  0.59301900751E+02  0.49999921074E+02 0.  0.
         12    1    1    2    0    0  0.54627429291E+01 -0.22994223163E+02  0.21404379601E+02  0.31886099249E+02  0.00000000000E+00 0. -1.
         11    1    3    3    0    0  0.12815526455E+02  0.62065597972E+01 -0.96510778374E+00  0.14272019344E+02  0.51100000000E-03 0. -1.
        -11    1    3    3    0    0 -0.87820289675E+00 -0.68556888106E+01 -0.13035785114E+02  0.14754775606E+02  0.51100000000E-03 0.  1.
        -12    1    3    3    0    0 -0.17400066488E+02  0.23643352177E+02 -0.74034867029E+01  0.30275105802E+02  0.00000000000E+00 0.  1.
</event>
<event>
 7    1  0.1204848E-011  0.5930194E+02  0.7816164E-02  0.1266605E+00
        -11   -1    0    0    0    0  0.00000000000E+00  0.00000000000E+00  0.45593999997E+02  0.45594000000E+02  0.51100000000E-03 0.  1.
         11   -1    0    0    0    0 -0.00000000000E+00 -0.00000000000E+00 -0.45593999997E+02  0.45594000000E+02  0.51100000000E-03 0. -1.
    9900012    2    1    2    0    0  0.17902935894E+02 -0.24643883586E+02 -0.94278851833E+01  0.59301935162E+02  0.49999983831E+02 0.  0.
         12    1    1    2    0    0 -0.17902935894E+02  0.24643883586E+02  0.94278851833E+01  0.31886064838E+02  0.00000000000E+00 0. -1.
         11    1    3    3    0    0  0.11672502342E+02 -0.19018179591E+01 -0.58659610898E+01  0.13201277296E+02  0.51100000000E-03 0. -1.
        -11    1    3    3    0    0  0.15182907920E+02 -0.28748776736E+02 -0.93962610451E+01  0.33842319345E+02  0.51100000000E-03 0.  1.
        -12    1    3    3    0    0 -0.89524743673E+01  0.60067111092E+01  0.58343369516E+01  0.12258338522E+02  0.00000000000E+00 0.  1.
</event>
<event>
 7    1  0.1204848E-011  0.5930193E+02  0.7816164E-02  0.1266605E+00
        -11   -1    0    0    0    0  0.00000000000E+00  0.00000000000E+00  0.45593999997E+02  0.45594000000E+02  0.51100000000E-03 0. -1.
         11   -1    0    0    0    0 -0.00000000000E+00 -0.00000000000E+00 -0.45593999997E+02  0.45594000000E+02  0.51100000000E-03 0.  1.
    9900012    2    1    2    0    0 -0.24998081541E+02 -0.19794321749E+02 -0.46737448563E-01  0.59301930336E+02  0.49999975029E+02 0.  0.
         12    1    1    2    0    0  0.24998081541E+02  0.19794321749E+02  0.46737448563E-01  0.31886069664E+02  0.00000000000E+00 0. -1.
         11    1    3    3    0    0 -0.28121372083E+01 -0.43732988656E+01 -0.77630322007E+01  0.93433681216E+01  0.51100000000E-03 0. -1.
        -11    1    3    3    0    0 -0.98395769244E+01 -0.16767072383E+02 -0.14672075723E+02  0.24356144946E+02  0.51100000000E-03 0.  1.
         12    1    3    3    0    0 -0.12346367408E+02  0.13460494989E+01  0.22388370475E+02  0.25602417268E+02  0.00000000000E+00 0. -1.
</event>
<event>
 7    1  0.1204848E-011  0.5930193E+02  0.7816164E-02  0.1266605E+00
        -11   -1    0    0    0    0  0.00000000000E+00  0.00000000000E+00  0.45593999997E+02  0.45594000000E+02  0.51100000000E-03 0. -1.
         11   -1    0    0    0    0 -0.00000000000E+00 -0.00000000000E+00 -0.45593999997E+02  0.45594000000E+02  0.51100000000E-03 0.  1.
    9900012    2    1    2    0    0  0.24318752228E+02  0.39515982836E+01 -0.20241159170E+02  0.59301931514E+02  0.49999977178E+02 0.  0.
         12    1    1    2    0    0 -0.24318752228E+02 -0.39515982836E+01  0.20241159170E+02  0.31886068486E+02  0.00000000000E+00 0. -1.
         11    1    3    3    0    0 -0.23677867169E+01  0.27308971244E+01  0.31931824202E+01  0.48229272512E+01  0.51100000000E-03 0. -1.
        -11    1    3    3    0    0  0.22115389356E+01  0.12010689116E+02  0.69073692009E+01  0.14030655974E+02  0.51100000000E-03 0.  1.
         12    1    3    3    0    0  0.24475000009E+02 -0.10789987957E+02 -0.30341710791E+02  0.40448348289E+02  0.00000000000E+00 0. -1.
</event>
<event>
 7    1  0.1204848E-011  0.5930188E+02  0.7816164E-02  0.1266605E+00
        -11   -1    0    0    0    0  0.00000000000E+00  0.00000000000E+00  0.45593999997E+02  0.45594000000E+02  0.51100000000E-03 0.  1.
         11   -1    0    0    0    0 -0.00000000000E+00 -0.00000000000E+00 -0.45593999997E+02  0.45594000000E+02  0.51100000000E-03 0. -1.
    9900012    2    1    2    0    0 -0.14401927048E+02 -0.45482677183E+01  0.28082417922E+02  0.59301883299E+02  0.49999889246E+02 0.  0.
         12    1    1    2    0    0  0.14401927048E+02  0.45482677183E+01 -0.28082417922E+02  0.31886116701E+02  0.00000000000E+00 0. -1.
         11    1    3    3    0    0  0.10063597802E+02 -0.12056331529E+02  0.16668134653E+02  0.22901044600E+02  0.51100000000E-03 0. -1.
        -11    1    3    3    0    0 -0.73972571022E+01 -0.47139246928E+00  0.15446441935E+02  0.17132839584E+02  0.51100000000E-03 0.  1.
        -12    1    3    3    0    0 -0.17068267747E+02  0.79794562803E+01 -0.40321586663E+01  0.19267999116E+02  0.00000000000E+00 0.  1.
</event>
<event>
 7    1  0.1204848E-011  0.5930194E+02  0.7816164E-02  0.1266605E+00
        -11   -1    0    0    0    0  0.00000000000E+00  0.00000000000E+00  0.45593999997E+02  0.45594000000E+02  0.51100000000E-03 0.  1.
         11   -1    0    0    0    0 -0.00000000000E+00 -0.00000000000E+00 -0.45593999997E+02  0.45594000000E+02  0.51100000000E-03 0. -1.
    9900012    2    1    2    0    0  0.27304926799E+02  0.58068707467E+01  0.15409145000E+02  0.59301944662E+02  0.50000001158E+02 0.  0.
         12    1    1    2    0    0 -0.27304926799E+02 -0.58068707467E+01 -0.15409145000E+02  0.31886055338E+02  0.00000000000E+00 0. -1.
         11    1    3    3    0    0  0.84435180045E+01 -0.84876573516E+00  0.41758255717E+01  0.94578495988E+01  0.51100000000E-03 0. -1.
        -11    1    3    3    0    0  0.31079677009E+02 -0.51359478762E+01  0.59255479894E+01  0.32053648822E+02  0.51100000000E-03 0.  1.
         12    1    3    3    0    0 -0.12218268215E+02  0.11791584358E+02  0.53077714389E+01  0.17790446242E+02  0.00000000000E+00 0. -1.
</event>
<event>
 7    1  0.1204848E-011  0.5930195E+02  0.7816164E-02  0.1266605E+00
        -11   -1    0    0    0    0  0.00000000000E+00  0.00000000000E+00  0.45593999997E+02  0.45594000000E+02  0.51100000000E-03 0. -1.
         11   -1    0    0    0    0 -0.00000000000E+00 -0.00000000000E+00 -0.45593999997E+02  0.45594000000E+02  0.51100000000E-03 0.  1.
    9900012    2    1    2    0    0 -0.14599538609E+02 -0.25517080553E+02 -0.12347156138E+02  0.59301949880E+02  0.50000010673E+02 0.  0.
         12    1    1    2    0    0  0.14599538609E+02  0.25517080553E+02  0.12347156138E+02  0.31886050120E+02  0.00000000000E+00 0. -1.
         11    1    3    3    0    0 -0.67924315113E+01  0.68385848799E+00 -0.78225615772E+01  0.10382545842E+02  0.51100000000E-03 0. -1.
        -11    1    3    3    0    0 -0.20031996497E+02 -0.19034842642E+02  0.92665661209E+01  0.29145760687E+02  0.51100000000E-03 0.  1.
        -12    1    3    3    0    0  0.12224889400E+02 -0.71660963996E+01 -0.13791160682E+02  0.19773643352E+02  0.00000000000E+00 0.  1.
</event>
<event>
 7    1  0.1204848E-011  0.5930195E+02  0.7816164E-02  0.1266605E+00
        -11   -1    0    0    0    0  0.00000000000E+00  0.00000000000E+00  0.45593999997E+02  0.45594000000E+02  0.51100000000E-03 0.  1.
         11   -1    0    0    0    0 -0.00000000000E+00 -0.00000000000E+00 -0.45593999997E+02  0.45594000000E+02  0.51100000000E-03 0. -1.
    9900012    2    1    2    0    0  0.24832965691E+02 -0.96334997662E+01  0.17528261282E+02  0.59301945896E+02  0.50000003407E+02 0.  0.
         12    1    1    2    0    0 -0.24832965691E+02  0.96334997662E+01 -0.17528261282E+02  0.31886054104E+02  0.00000000000E+00 0. -1.
         11    1    3    3    0    0 -0.38577654455E+01 -0.51895586999E+01 -0.12339165956E+02  0.13930861082E+02  0.51100000000E-03 0. -1.
        -11    1    3    3    0    0  0.64498020146E+01 -0.93471931213E+01  0.91742110058E+01  0.14599181933E+02  0.51100000000E-03 0.  1.
        -12    1    3    3    0    0  0.22240929122E+02  0.49032520550E+01  0.20693216231E+02  0.30771902881E+02  0.00000000000E+00 0.  1.
</event>
<event>
 7    1  0.1204848E-011  0.5930193E+02  0.7816164E-02  0.1266605E+00
        -11   -1    0    0    0    0  0.00000000000E+00  0.00000000000E+00  0.45593999997E+02  0.45594000000E+02  0.51100000000E-03 0. -1.
         11   -1    0    0    0    0 -0.00000000000E+00 -0.00000000000E+00 -0.45593999997E+02  0.45594000000E+02  0.51100000000E-03 0.  1.
    9900012    2    1    2    0    0  0.12114507750E+02  0.20911722868E+02 -0.20800476573E+02  0.59301932870E+02  0.49999979651E+02 0.  0.
         12    1    1    2    0    0 -0.12114507750E+02 -0.20911722868E+02  0.20800476573E+02  0.31886067130E+02  0.00000000000E+00 0. -1.
         11    1    3    3    0    0  0.50118318202E+01  0.63332844644E+01 -0.32634321806E+01  0.87108518619E+01  0.51100000000E-03 0. -1.
        -11    1    3    3    0    0  0.67406230398E+01  0.30351480896E+02 -0.15314599739E+02  0.34658121082E+02  0.51100000000E-03 0.  1.
         12    1    3    3    0    0  0.36205289056E+00 -0.15773042492E+02 -0.22224446534E+01  0.15932959926E+02  0.00000000000E+00 0. -1.
</event>
<event>
 7    1  0.1204848E-011  0.5930197E+02  0.7816164E-02  0.1266605E+00
        -11   -1    0    0    0    0  0.00000000000E+00  0.00000000000E+00  0.45593999997E+02  0.45594000000E+02  0.51100000000E-03 0.  1.
         11   -1    0    0    0    0 -0.00000000000E+00 -0.00000000000E+00 -0.45593999997E+02  0.45594000000E+02  0.51100000000E-03 0. -1.
    9900012    2    1    2    0    0  0.11652355559E+02 -0.16176949203E+01  0.29636544225E+02  0.59301967313E+02  0.50000042467E+02 0.  0.
         12    1    1    2    0    0 -0.11652355559E+02  0.16176949203E+01 -0.29636544225E+02  0.31886032687E+02  0.00000000000E+00 0. -1.
         11    1    3    3    0    0 -0.99169146424E+01  0.10246140373E+01  0.12442823251E+02  0.15944242869E+02  0.51100000000E-03 0. -1.
        -11    1    3    3    0    0 -0.71135318358E+01  0.59290635682E+01  0.74201746562E+01  0.11866554772E+02  0.51100000000E-03 0.  1.
         12    1    3    3    0    0  0.28682802037E+02 -0.85713725258E+01  0.97735463177E+01  0.31491169672E+02  0.00000000000E+00 0. -1.
</event>
<event>
 7    1  0.1204848E-011  0.5930195E+02  0.7816164E-02  0.1266605E+00
        -11   -1    0    0    0    0  0.00000000000E+00  0.00000000000E+00  0.45593999997E+02  0.45594000000E+02  0.51100000000E-03 0. -1.
         11   -1    0    0    0    0 -0.00000000000E+00 -0.00000000000E+00 -0.45593999997E+02  0.45594000000E+02  0.51100000000E-03 0.  1.
    9900012    2    1    2    0    0 -0.15897852446E+02  0.12953694543E+02 -0.24416799686E+02  0.59301952556E+02  0.50000015553E+02 0.  0.
         12    1    1    2    0    0  0.15897852446E+02 -0.12953694543E+02  0.24416799686E+02  0.31886047444E+02  0.00000000000E+00 0. -1.
         11    1    3    3    0    0 -0.86599501614E+01  0.76325994408E+01 -0.14243512601E+02  0.18333820183E+02  0.51100000000E-03 0. -1.
        -11    1    3    3    0    0 -0.17517854843E+02  0.10085647133E+02 -0.18105733640E+02  0.27136932533E+02  0.51100000000E-03 0.  1.
         12    1    3    3    0    0  0.10279952559E+02 -0.47645520317E+01  0.79324465548E+01  0.13831199840E+02  0.00000000000E+00 0. -1.
</event>
<event>
 7    1  0.1204848E-011  0.5930196E+02  0.7816164E-02  0.1266605E+00
        -11   -1    0    0    0    0  0.00000000000E+00  0.00000000000E+00  0.45593999997E+02  0.45594000000E+02  0.51100000000E-03 0. -1.
         11   -1    0    0    0    0 -0.00000000000E+00 -0.00000000000E+00 -0.45593999997E+02  0.45594000000E+02  0.51100000000E-03 0.  1.
    9900012    2    1    2    0    0 -0.19439789520E+02 -0.19491887098E+02  0.16089757401E+02  0.59301962735E+02  0.50000034118E+02 0.  0.
         12    1    1    2    0    0  0.19439789520E+02  0.19491887098E+02 -0.16089757401E+02  0.31886037265E+02  0.00000000000E+00 0. -1.
         11    1    3    3    0    0 -0.12657363273E+02 -0.11073185791E+02 -0.13405872503E+02  0.21506782800E+02  0.51100000000E-03 0.  1.
        -11    1    3    3    0    0 -0.39969061723E+01 -0.12888526768E+02  0.80510717029E+01  0.15713342643E+02  0.51100000000E-03 0. -1.
         12    1    3    3    0    0 -0.27855200745E+01  0.44698254607E+01  0.21444558201E+02  0.22081837292E+02  0.00000000000E+00 0. -1.
</event>
<event>
 7    1  0.1204848E-011  0.5930196E+02  0.7816164E-02  0.1266605E+00
        -11   -1    0    0    0    0  0.00000000000E+00  0.00000000000E+00  0.45593999997E+02  0.45594000000E+02  0.51100000000E-03 0.  1.
         11   -1    0    0    0    0 -0.00000000000E+00 -0.00000000000E+00 -0.45593999997E+02  0.45594000000E+02  0.51100000000E-03 0. -1.
    9900012    2    1    2    0    0  0.22902666983E+02  0.15312164656E+02  0.16053814260E+02  0.59301960835E+02  0.50000030652E+02 0.  0.
         12    1    1    2    0    0 -0.22902666983E+02 -0.15312164656E+02 -0.16053814260E+02  0.31886039165E+02  0.00000000000E+00 0. -1.
         11    1    3    3    0    0  0.79127490997E+01 -0.72525885399E+01  0.73789542171E+00  0.10759002219E+02  0.51100000000E-03 0. -1.
        -11    1    3    3    0    0 -0.47294343994E+00 -0.93144792162E+01 -0.12862194674E+01  0.94147522191E+01  0.51100000000E-03 0.  1.
        -12    1    3    3    0    0  0.15462861323E+02  0.31879232412E+02  0.16602138305E+02  0.39128206396E+02  0.00000000000E+00 0.  1.
</event>
<event>
 7    1  0.1204848E-011  0.5930194E+02  0.7816164E-02  0.1266605E+00
        -11   -1    0    0    0    0  0.00000000000E+00  0.00000000000E+00  0.45593999997E+02  0.45594000000E+02  0.51100000000E-03 0.  1.
         11   -1    0    0    0    0 -0.00000000000E+00 -0.00000000000E+00 -0.45593999997E+02  0.45594000000E+02  0.51100000000E-03 0. -1.
    9900012    2    1    2    0    0  0.27514292283E+02  0.55310830092E+01  0.15135778660E+02  0.59301937923E+02  0.49999988867E+02 0.  0.
         12    1    1    2    0    0 -0.27514292283E+02 -0.55310830092E+01 -0.15135778660E+02  0.31886062077E+02  0.00000000000E+00 0. -1.
         11    1    3    3    0    0  0.97175269331E+00  0.38761925186E+01  0.26949681931E+01  0.48199611577E+01  0.51100000000E-03 0. -1.
        -11    1    3    3    0    0  0.11587116369E+02  0.88950210772E+01  0.28087313519E+02  0.31658803621E+02  0.51100000000E-03 0.  1.
         12    1    3    3    0    0  0.14955423221E+02 -0.72401305866E+01 -0.15646503052E+02  0.22823173145E+02  0.00000000000E+00 0. -1.
</event>
<event>
 7    1  0.1204848E-011  0.5930195E+02  0.7816164E-02  0.1266605E+00
        -11   -1    0    0    0    0  0.00000000000E+00  0.00000000000E+00  0.45593999997E+02  0.45594000000E+02  0.51100000000E-03 0. -1.
         11   -1    0    0    0    0 -0.00000000000E+00 -0.00000000000E+00 -0.45593999997E+02  0.45594000000E+02  0.51100000000E-03 0.  1.
    9900012    2    1    2    0    0 -0.15753194658E+02  0.14477739127E+02 -0.23642174613E+02  0.59301945171E+02  0.50000002084E+02 0.  0.
         12    1    1    2    0    0  0.15753194658E+02 -0.14477739127E+02  0.23642174613E+02  0.31886054829E+02  0.00000000000E+00 0. -1.
         11    1    3    3    0    0 -0.15520288306E+02 -0.58082090513E+00 -0.10011325648E+02  0.18478185612E+02  0.51100000000E-03 0. -1.
        -11    1    3    3    0    0  0.96590412121E-01 -0.11697126041E+02 -0.34640724807E+01  0.12199667444E+02  0.51100000000E-03 0.  1.
         12    1    3    3    0    0 -0.32949676474E+00  0.26755686073E+02 -0.10166776484E+02  0.28624092116E+02  0.00000000000E+00 0. -1.
</event>
<event>
 7    1  0.1204848E-011  0.5930195E+02  0.7816164E-02  0.1266605E+00
        -11   -1    0    0    0    0  0.00000000000E+00  0.00000000000E+00  0.45593999997E+02  0.45594000000E+02  0.51100000000E-03 0. -1.
         11   -1    0    0    0    0 -0.00000000000E+00 -0.00000000000E+00 -0.45593999997E+02  0.45594000000E+02  0.51100000000E-03 0.  1.
    9900012    2    1    2    0    0  0.29265073427E+02  0.28986874472E+01 -0.12323677456E+02  0.59301953873E+02  0.50000017955E+02 0.  0.
         12    1    1    2    0    0 -0.29265073427E+02 -0.28986874472E+01  0.12323677456E+02  0.31886046127E+02  0.00000000000E+00 0. -1.
         11    1    3    3    0    0  0.87304557419E+01  0.83412456067E+01 -0.10132713801E+01  0.12117093500E+02  0.51100000000E-03 0. -1.
        -11    1    3    3    0    0  0.18934806364E+02  0.15668492748E+02 -0.72853928333E+01  0.25634069244E+02  0.51100000000E-03 0.  1.
         12    1    3    3    0    0  0.15998113212E+01 -0.21111050907E+02 -0.40250132429E+01  0.21550791129E+02  0.00000000000E+00 0. -1.
</event>
<event>
 7    1  0.1204848E-011  0.5930194E+02  0.7816164E-02  0.1266605E+00
        -11   -1    0    0    0    0  0.00000000000E+00  0.00000000000E+00  0.45593999997E+02  0.45594000000E+02  0.51100000000E-03 0. -1.
         11   -1    0    0    0    0 -0.00000000000E+00 -0.00000000000E+00 -0.45593999997E+02  0.45594000000E+02  0.51100000000E-03 0.  1.
    9900012    2    1    2    0    0  0.30333898815E+02 -0.97470389590E+01 -0.12532331726E+01  0.59301940676E+02  0.49999993888E+02 0.  0.
         12    1    1    2    0    0 -0.30333898815E+02  0.97470389590E+01  0.12532331726E+01  0.31886059324E+02  0.00000000000E+00 0. -1.
         11    1    3    3    0    0  0.34664617715E+02 -0.10991563854E+02 -0.39468518935E+01  0.36579062828E+02  0.51100000000E-03 0.  1.
        -11    1    3    3    0    0  0.55440760391E+01 -0.46160305852E+01  0.73801361368E+01  0.10320413129E+02  0.51100000000E-03 0. -1.
         12    1    3    3    0    0 -0.98747949387E+01  0.58605554801E+01 -0.46865174159E+01  0.12402464719E+02  0.00000000000E+00 0. -1.
</event>
<event>
 7    1  0.1204848E-011  0.5930195E+02  0.7816164E-02  0.1266605E+00
        -11   -1    0    0    0    0  0.00000000000E+00  0.00000000000E+00  0.45593999997E+02  0.45594000000E+02  0.51100000000E-03 0.  1.
         11   -1    0    0    0    0 -0.00000000000E+00 -0.00000000000E+00 -0.45593999997E+02  0.45594000000E+02  0.51100000000E-03 0. -1.
    9900012    2    1    2    0    0 -0.58955788364E+00  0.21452742782E+02  0.23582888419E+02  0.59301946974E+02  0.50000005374E+02 0.  0.
         12    1    1    2    0    0  0.58955788364E+00 -0.21452742782E+02 -0.23582888419E+02  0.31886053026E+02  0.00000000000E+00 0. -1.
         11    1    3    3    0    0  0.42078725061E+01 -0.80823285754E+01 -0.50992746854E+01  0.10441878605E+02  0.51100000000E-03 0. -1.
        -11    1    3    3    0    0 -0.11600622341E+01  0.75788397740E+01 -0.45115351058E+01  0.88959825752E+01  0.51100000000E-03 0.  1.
        -12    1    3    3    0    0 -0.36373681556E+01  0.21956231584E+02  0.33193698210E+02  0.39964085794E+02  0.00000000000E+00 0.  1.
</event>
<event>
 7    1  0.1204848E-011  0.5930198E+02  0.7816164E-02  0.1266605E+00
        -11   -1    0    0    0    0  0.00000000000E+00  0.00000000000E+00  0.45593999997E+02  0.45594000000E+02  0.51100000000E-03 0.  1.
         11   -1    0    0    0    0 -0.00000000000E+00 -0.00000000000E+00 -0.45593999997E+02  0.45594000000E+02  0.51100000000E-03 0. -1.
    9900012    2    1    2    0    0 -0.15704186969E+02 -0.25057363332E+02  0.11925837440E+02  0.59301975723E+02  0.50000057805E+02 0.  0.
         12    1    1    2    0    0  0.15704186969E+02  0.25057363332E+02 -0.11925837440E+02  0.31886024277E+02  0.00000000000E+00 0. -1.
         11    1    3    3    0    0 -0.10234530776E+02 -0.12083698009E+02  0.20650448848E+02  0.26023113105E+02  0.51100000000E-03 0. -1.
        -11    1    3    3    0    0  0.24013438879E+01 -0.15555097044E+02  0.56214023094E+01  0.16713098477E+02  0.51100000000E-03 0.  1.
        -12    1    3    3    0    0 -0.78710000812E+01  0.25814317205E+01 -0.14346013718E+02  0.16565764141E+02  0.00000000000E+00 0.  1.
</event>
<event>
 7    1  0.1204848E-011  0.5930196E+02  0.7816164E-02  0.1266605E+00
        -11   -1    0    0    0    0  0.00000000000E+00  0.00000000000E+00  0.45593999997E+02  0.45594000000E+02  0.51100000000E-03 0. -1.
         11   -1    0    0    0    0 -0.00000000000E+00 -0.00000000000E+00 -0.45593999997E+02  0.45594000000E+02  0.51100000000E-03 0.  1.
    9900012    2    1    2    0    0 -0.29364629915E+02  0.11416222343E+02  0.49100143285E+01  0.59301955037E+02  0.50000020079E+02 0.  0.
         12    1    1    2    0    0  0.29364629915E+02 -0.11416222343E+02 -0.49100143285E+01  0.31886044963E+02  0.00000000000E+00 0. -1.
         11    1    3    3    0    0  0.81453659151E+01 -0.68501184482E+01 -0.94044170678E+00  0.10684359574E+02  0.51100000000E-03 0. -1.
        -11    1    3    3    0    0 -0.13042344376E+02  0.19644754771E+02  0.78506134154E+00  0.23593123117E+02  0.51100000000E-03 0.  1.
        -12    1    3    3    0    0 -0.24467651454E+02 -0.13784139796E+01  0.50653946937E+01  0.25024472346E+02  0.00000000000E+00 0.  1.
</event>
<event>
 7    1  0.1204848E-011  0.5930195E+02  0.7816164E-02  0.1266605E+00
        -11   -1    0    0    0    0  0.00000000000E+00  0.00000000000E+00  0.45593999997E+02  0.45594000000E+02  0.51100000000E-03 0. -1.
         11   -1    0    0    0    0 -0.00000000000E+00 -0.00000000000E+00 -0.45593999997E+02  0.45594000000E+02  0.51100000000E-03 0.  1.
    9900012    2    1    2    0    0  0.10553605413E+01  0.31852814215E+02  0.10021679931E+01  0.59301954463E+02  0.50000019032E+02 0.  0.
         12    1    1    2    0    0 -0.10553605413E+01 -0.31852814215E+02 -0.10021679931E+01  0.31886045537E+02  0.00000000000E+00 0. -1.
         11    1    3    3    0    0 -0.14384822362E+01 -0.87555322101E+01 -0.33255138585E+00  0.88791421946E+01  0.51100000000E-03 0. -1.
        -11    1    3    3    0    0  0.14172775759E+02  0.30179508782E+02 -0.46420958102E+01  0.33663323912E+02  0.51100000000E-03 0.  1.
         12    1    3    3    0    0 -0.11678932981E+02  0.10428837644E+02  0.59768151891E+01  0.16759488357E+02  0.00000000000E+00 0. -1.
</event>
<event>
 7    1  0.1204848E-011  0.5930196E+02  0.7816164E-02  0.1266605E+00
        -11   -1    0    0    0    0  0.00000000000E+00  0.00000000000E+00  0.45593999997E+02  0.45594000000E+02  0.51100000000E-03 0.  1.
         11   -1    0    0    0    0 -0.00000000000E+00 -0.00000000000E+00 -0.45593999997E+02  0.45594000000E+02  0.51100000000E-03 0. -1.
    9900012    2    1    2    0    0 -0.29671425574E+01 -0.20542412904E+02  0.24205883379E+02  0.59301961472E+02  0.50000031814E+02 0.  0.
         12    1    1    2    0    0  0.29671425574E+01  0.20542412904E+02 -0.24205883379E+02  0.31886038528E+02  0.00000000000E+00 0. -1.
         11    1    3    3    0    0 -0.51243485165E+00 -0.13116383741E+01  0.18897945987E+01  0.23567580673E+01  0.51100000000E-03 0. -1.
        -11    1    3    3    0    0 -0.14447483929E+02 -0.31706770152E+02  0.12301609079E+02  0.36951030454E+02  0.51100000000E-03 0.  1.
         12    1    3    3    0    0  0.11992776223E+02  0.12475995623E+02  0.10014479701E+02  0.19994172951E+02  0.00000000000E+00 0. -1.
</event>
<event>
 7    1  0.1204848E-011  0.5930194E+02  0.7816164E-02  0.1266605E+00
        -11   -1    0    0    0    0  0.00000000000E+00  0.00000000000E+00  0.45593999997E+02  0.45594000000E+02  0.51100000000E-03 0.  1.
         11   -1    0    0    0    0 -0.00000000000E+00 -0.00000000000E+00 -0.45593999997E+02  0.45594000000E+02  0.51100000000E-03 0. -1.
    9900012    2    1    2    0    0  0.25349915837E+02 -0.18521504176E+02 -0.55728280169E+01  0.59301940946E+02  0.49999994380E+02 0.  0.
         12    1    1    2    0    0 -0.25349915837E+02  0.18521504176E+02  0.55728280169E+01  0.31886059054E+02  0.00000000000E+00 0. -1.
         11    1    3    3    0    0  0.11862927749E+02 -0.17193764195E+02 -0.80544413711E+01  0.22388135430E+02  0.51100000000E-03 0. -1.
        -11    1    3    3    0    0  0.60503761385E+01 -0.16387661484E+02  0.80286647667E+01  0.19225554830E+02  0.51100000000E-03 0.  1.
         12    1    3    3    0    0  0.74366119490E+01  0.15059921503E+02 -0.55470514126E+01  0.17688250686E+02  0.00000000000E+00 0. -1.
</event>
<event>
 7    1  0.1204848E-011  0.5930191E+02  0.7816164E-02  0.1266605E+00
        -11   -1    0    0    0    0  0.00000000000E+00  0.00000000000E+00  0.45593999997E+02  0.45594000000E+02  0.51100000000E-03 0.  1.
         11   -1    0    0    0    0 -0.00000000000E+00 -0.00000000000E+00 -0.45593999997E+02  0.45594000000E+02  0.51100000000E-03 0. -1.
    9900012    2    1    2    0    0 -0.28723645698E+02 -0.59048743342E+00  0.13832069358E+02  0.59301911492E+02  0.49999940663E+02 0.  0.
         12    1    1    2    0    0  0.28723645698E+02  0.59048743342E+00 -0.13832069358E+02  0.31886088508E+02  0.00000000000E+00 0. -1.
         11    1    3    3    0    0 -0.23591307654E+02  0.30022720292E+01  0.20972854245E+02  0.31708422377E+02  0.51100000000E-03 0. -1.
        -11    1    3    3    0    0 -0.63642838942E+01  0.55745755050E+01  0.68059514992E+01  0.10858221660E+02  0.51100000000E-03 0.  1.
         12    1    3    3    0    0  0.12319458500E+01 -0.91673349676E+01 -0.13946736386E+02  0.16735267455E+02  0.00000000000E+00 0. -1.
</event>
<event>
 7    1  0.1204848E-011  0.5930193E+02  0.7816164E-02  0.1266605E+00
        -11   -1    0    0    0    0  0.00000000000E+00  0.00000000000E+00  0.45593999997E+02  0.45594000000E+02  0.51100000000E-03 0. -1.
         11   -1    0    0    0    0 -0.00000000000E+00 -0.00000000000E+00 -0.45593999997E+02  0.45594000000E+02  0.51100000000E-03 0.  1.
    9900012    2    1    2    0    0  0.24601691064E+02  0.88280243476E+01 -0.18263196943E+02  0.59301928124E+02  0.49999970996E+02 0.  0.
         12    1    1    2    0    0 -0.24601691064E+02 -0.88280243476E+01  0.18263196943E+02  0.31886071876E+02  0.00000000000E+00 0. -1.
         11    1    3    3    0    0  0.80330659483E+01 -0.90696243761E+01  0.93979631049E+01  0.15333295329E+02  0.51100000000E-03 0. -1.
        -11    1    3    3    0    0  0.40572729815E+01 -0.32288269109E+01  0.19162154722E+01  0.55279896223E+01  0.51100000000E-03 0.  1.
        -12    1    3    3    0    0  0.12511352134E+02  0.21126475635E+02 -0.29577375520E+02  0.38440643174E+02  0.00000000000E+00 0.  1.
</event>
<event>
 7    1  0.1204848E-011  0.5930192E+02  0.7816164E-02  0.1266605E+00
        -11   -1    0    0    0    0  0.00000000000E+00  0.00000000000E+00  0.45593999997E+02  0.45594000000E+02  0.51100000000E-03 0.  1.
         11   -1    0    0    0    0 -0.00000000000E+00 -0.00000000000E+00 -0.45593999997E+02  0.45594000000E+02  0.51100000000E-03 0. -1.
    9900012    2    1    2    0    0  0.88699856871E+01  0.28665386228E+02 -0.10786154867E+02  0.59301919173E+02  0.49999954671E+02 0.  0.
         12    1    1    2    0    0 -0.88699856871E+01 -0.28665386228E+02  0.10786154867E+02  0.31886080827E+02  0.00000000000E+00 0. -1.
         11    1    3    3    0    0  0.27128316786E+01  0.74608658056E+00 -0.94450578996E+01  0.98552128283E+01  0.51100000000E-03 0. -1.
        -11    1    3    3    0    0  0.10520497560E+02  0.29958430119E+02  0.13006239215E+02  0.34312543812E+02  0.51100000000E-03 0.  1.
         12    1    3    3    0    0 -0.43633435512E+01 -0.20391304718E+01 -0.14347336182E+02  0.15134162532E+02  0.00000000000E+00 0. -1.
</event>
<event>
 7    1  0.1204848E-011  0.5930194E+02  0.7816164E-02  0.1266605E+00
        -11   -1    0    0    0    0  0.00000000000E+00  0.00000000000E+00  0.45593999997E+02  0.45594000000E+02  0.51100000000E-03 0. -1.
         11   -1    0    0    0    0 -0.00000000000E+00 -0.00000000000E+00 -0.45593999997E+02  0.45594000000E+02  0.51100000000E-03 0.  1.
    9900012    2    1    2    0    0  0.12064921399E+02  0.29207409730E+02  0.42527668667E+01  0.59301935057E+02  0.49999983640E+02 0.  0.
         12    1    1    2    0    0 -0.12064921399E+02 -0.29207409730E+02 -0.42527668667E+01  0.31886064943E+02  0.00000000000E+00 0. -1.
         11    1    3    3    0    0 -0.16134544448E+01  0.44759769588E+01  0.98410660975E+01  0.10930882269E+02  0.51100000000E-03 0. -1.
        -11    1    3    3    0    0 -0.70831258984E+01  0.24744915751E+02 -0.91291668960E+01  0.27309764124E+02  0.51100000000E-03 0.  1.
        -12    1    3    3    0    0  0.20761501742E+02 -0.13482979215E-01  0.35408676652E+01  0.21061288664E+02  0.00000000000E+00 0.  1.
</event>
<event>
 7    1  0.1204848E-011  0.5930192E+02  0.7816164E-02  0.1266605E+00
        -11   -1    0    0    0    0  0.00000000000E+00  0.00000000000E+00  0.45593999997E+02  0.45594000000E+02  0.51100000000E-03 0.  1.
         11   -1    0    0    0    0 -0.00000000000E+00 -0.00000000000E+00 -0.45593999997E+02  0.45594000000E+02  0.51100000000E-03 0. -1.
    9900012    2    1    2    0    0  0.29833968964E+02 -0.18169031141E+01 -0.11106527396E+02  0.59301924797E+02  0.49999964928E+02 0.  0.
         12    1    1    2    0    0 -0.29833968964E+02  0.18169031141E+01  0.11106527396E+02  0.31886075203E+02  0.00000000000E+00 0. -1.
         11    1    3    3    0    0  0.90768999844E+01  0.52795047794E+01 -0.16693093285E+02  0.19721121868E+02  0.51100000000E-03 0. -1.
        -11    1    3    3    0    0  0.81127819275E+01 -0.19716022879E+02  0.29544020486E+01  0.21523644684E+02  0.51100000000E-03 0.  1.
         12    1    3    3    0    0  0.12644287052E+02  0.12619614985E+02  0.26321638399E+01  0.18057158245E+02  0.00000000000E+00 0. -1.
</event>
<event>
 7    1  0.1204848E-011  0.5930191E+02  0.7816164E-02  0.1266605E+00
        -11   -1    0    0    0    0  0.00000000000E+00  0.00000000000E+00  0.45593999997E+02  0.45594000000E+02  0.51100000000E-03 0. -1.
         11   -1    0    0    0    0 -0.00000000000E+00 -0.00000000000E+00 -0.45593999997E+02  0.45594000000E+02  0.51100000000E-03 0.  1.
    9900012    2    1    2    0    0 -0.25013256240E+02 -0.19108635191E+02 -0.50911254361E+01  0.59301913931E+02  0.49999945110E+02 0.  0.
         12    1    1    2    0    0  0.25013256240E+02  0.19108635191E+02  0.50911254361E+01  0.31886086069E+02  0.00000000000E+00 0. -1.
         11    1    3    3    0    0  0.82732331103E+01 -0.22595185588E+01 -0.37373643360E+01  0.93551965589E+01  0.51100000000E-03 0. -1.
        -11    1    3    3    0    0 -0.19587214966E+02  0.58381901537E+01  0.78457871257E+01  0.21892917354E+02  0.51100000000E-03 0.  1.
        -12    1    3    3    0    0 -0.13699274384E+02 -0.22687306786E+02 -0.91995482258E+01  0.28053800017E+02  0.00000000000E+00 0.  1.
</event>
<event>
 7    1  0.1204848E-011  0.5930176E+02  0.7816164E-02  0.1266605E+00
        -11   -1    0    0    0    0  0.00000000000E+00  0.00000000000E+00  0.45593999997E+02  0.45594000000E+02  0.51100000000E-03 0. -1.
         11   -1    0    0    0    0 -0.00000000000E+00 -0.00000000000E+00 -0.45593999997E+02  0.45594000000E+02  0.51100000000E-03 0.  1.
    9900012    2    1    2    0    0 -0.67487054317E+01  0.22855271143E+02 -0.21185458274E+02  0.59301763372E+02  0.49999670525E+02 0.  0.
         12    1    1    2    0    0  0.67487054317E+01 -0.22855271143E+02  0.21185458274E+02  0.31886236628E+02  0.00000000000E+00 0. -1.
         11    1    3    3    0    0 -0.12110687762E+02 -0.92790035244E+01 -0.16616322189E+02  0.22558165436E+02  0.51100000000E-03 0. -1.
        -11    1    3    3    0    0 -0.21802372781E+01  0.30048212207E+00 -0.33469392835E+01  0.40057117873E+01  0.51100000000E-03 0.  1.
        -12    1    3    3    0    0  0.75422196082E+01  0.31833792545E+02 -0.12221968016E+01  0.32737886148E+02  0.00000000000E+00 0.  1.
</event>
<event>
 7    1  0.1204848E-011  0.5930195E+02  0.7816164E-02  0.1266605E+00
        -11   -1    0    0    0    0  0.00000000000E+00  0.00000000000E+00  0.45593999997E+02  0.45594000000E+02  0.51100000000E-03 0.  1.
         11   -1    0    0    0    0 -0.00000000000E+00 -0.00000000000E+00 -0.45593999997E+02  0.45594000000E+02  0.51100000000E-03 0. -1.
    9900012    2    1    2    0    0  0.46788774456E+01  0.28912993351E+02 -0.12604258317E+02  0.59301946522E+02  0.50000004549E+02 0.  0.
         12    1    1    2    0    0 -0.46788774456E+01 -0.28912993351E+02  0.12604258317E+02  0.31886053478E+02  0.00000000000E+00 0. -1.
         11    1    3    3    0    0  0.38552424815E+01  0.13478631424E+01 -0.41440326147E+01  0.58183018326E+01  0.51100000000E-03 0. -1.
        -11    1    3    3    0    0  0.22502976176E+02  0.13476896035E+02 -0.86770143365E+01  0.27627906935E+02  0.51100000000E-03 0.  1.
        -12    1    3    3    0    0 -0.21679341212E+02  0.14088234174E+02  0.21678863433E+00  0.25855737755E+02  0.00000000000E+00 0.  1.
</event>
<event>
 7    1  0.1204848E-011  0.5930196E+02  0.7816164E-02  0.1266605E+00
        -11   -1    0    0    0    0  0.00000000000E+00  0.00000000000E+00  0.45593999997E+02  0.45594000000E+02  0.51100000000E-03 0.  1.
         11   -1    0    0    0    0 -0.00000000000E+00 -0.00000000000E+00 -0.45593999997E+02  0.45594000000E+02  0.51100000000E-03 0. -1.
    9900012    2    1    2    0    0  0.18437502112E+02 -0.22503673379E+02  0.13052305511E+02  0.59301961067E+02  0.50000031076E+02 0.  0.
         12    1    1    2    0    0 -0.18437502112E+02  0.22503673379E+02 -0.13052305511E+02  0.31886038933E+02  0.00000000000E+00 0. -1.
         11    1    3    3    0    0  0.10535969620E+01  0.10011062564E+02 -0.12161752876E+01  0.10139552397E+02  0.51100000000E-03 0. -1.
        -11    1    3    3    0    0  0.74936728394E+01 -0.37278622023E+01  0.16645475245E+02  0.18631262319E+02  0.51100000000E-03 0.  1.
         12    1    3    3    0    0  0.98902323108E+01 -0.28786873741E+02 -0.23769944463E+01  0.30531146351E+02  0.00000000000E+00 0. -1.
</event>
<event>
 7    1  0.1204848E-011  0.5930194E+02  0.7816164E-02  0.1266605E+00
        -11   -1    0    0    0    0  0.00000000000E+00  0.00000000000E+00  0.45593999997E+02  0.45594000000E+02  0.51100000000E-03 0. -1.
         11   -1    0    0    0    0 -0.00000000000E+00 -0.00000000000E+00 -0.45593999997E+02  0.45594000000E+02  0.51100000000E-03 0.  1.
    9900012    2    1    2    0    0 -0.32684812859E+01 -0.11377780665E+01 -0.31697691018E+02  0.59301935258E+02  0.49999984007E+02 0.  0.
         12    1    1    2    0    0  0.32684812859E+01  0.11377780665E+01  0.31697691018E+02  0.31886064742E+02  0.00000000000E+00 0. -1.
         11    1    3    3    0    0  0.33208558595E+01 -0.16819301958E+02 -0.10311732315E+01  0.17174991135E+02  0.51100000000E-03 0. -1.
        -11    1    3    3    0    0  0.67116008306E+01 -0.17682441787E+01 -0.71799949811E+01  0.99862205751E+01  0.51100000000E-03 0.  1.
        -12    1    3    3    0    0 -0.13300937976E+02  0.17449768070E+02 -0.23486522805E+02  0.32140723548E+02  0.00000000000E+00 0.  1.
</event>
<event>
 7    1  0.1204848E-011  0.5930197E+02  0.7816164E-02  0.1266605E+00
        -11   -1    0    0    0    0  0.00000000000E+00  0.00000000000E+00  0.45593999997E+02  0.45594000000E+02  0.51100000000E-03 0.  1.
         11   -1    0    0    0    0 -0.00000000000E+00 -0.00000000000E+00 -0.45593999997E+02  0.45594000000E+02  0.51100000000E-03 0. -1.
    9900012    2    1    2    0    0  0.11661404151E+02 -0.25855883443E+02  0.14567220661E+02  0.59301968996E+02  0.50000045537E+02 0.  0.
         12    1    1    2    0    0 -0.11661404151E+02  0.25855883443E+02 -0.14567220661E+02  0.31886031004E+02  0.00000000000E+00 0. -1.
         11    1    3    3    0    0  0.92853258211E+01 -0.19509510782E+02  0.87563794181E+01  0.23313353841E+02  0.51100000000E-03 0.  1.
        -11    1    3    3    0    0  0.86785780723E+01  0.62280876213E+01 -0.10135552596E+02  0.14725359740E+02  0.51100000000E-03 0. -1.
         12    1    3    3    0    0 -0.63024997427E+01 -0.12574460282E+02  0.15946393839E+02  0.21263255416E+02  0.00000000000E+00 0. -1.
</event>
<event>
 7    1  0.1204848E-011  0.5930194E+02  0.7816164E-02  0.1266605E+00
        -11   -1    0    0    0    0  0.00000000000E+00  0.00000000000E+00  0.45593999997E+02  0.45594000000E+02  0.51100000000E-03 0.  1.
         11   -1    0    0    0    0 -0.00000000000E+00 -0.00000000000E+00 -0.45593999997E+02  0.45594000000E+02  0.51100000000E-03 0. -1.
    9900012    2    1    2    0    0  0.98835849464E+01 -0.17483635210E+02  0.24766070754E+02  0.59301937024E+02  0.49999987226E+02 0.  0.
         12    1    1    2    0    0 -0.98835849464E+01  0.17483635210E+02 -0.24766070754E+02  0.31886062976E+02  0.00000000000E+00 0. -1.
         11    1    3    3    0    0  0.23903466874E+02 -0.68402612620E+01  0.14534023653E+02  0.28799353231E+02  0.51100000000E-03 0.  1.
        -11    1    3    3    0    0 -0.60761192044E+01 -0.23571567716E+00 -0.67332753613E+01  0.90725841863E+01  0.51100000000E-03 0. -1.
         12    1    3    3    0    0 -0.79437627231E+01 -0.10407658271E+02  0.16965322462E+02  0.21429999606E+02  0.00000000000E+00 0. -1.
</event>
<event>
 7    1  0.1204848E-011  0.5930195E+02  0.7816164E-02  0.1266605E+00
        -11   -1    0    0    0    0  0.00000000000E+00  0.00000000000E+00  0.45593999997E+02  0.45594000000E+02  0.51100000000E-03 0.  1.
         11   -1    0    0    0    0 -0.00000000000E+00 -0.00000000000E+00 -0.45593999997E+02  0.45594000000E+02  0.51100000000E-03 0. -1.
    9900012    2    1    2    0    0  0.35606937122E+01 -0.29128412657E+02  0.12473062551E+02  0.59301948927E+02  0.50000008935E+02 0.  0.
         12    1    1    2    0    0 -0.35606937122E+01  0.29128412657E+02 -0.12473062551E+02  0.31886051073E+02  0.00000000000E+00 0. -1.
         11    1    3    3    0    0 -0.52710324464E+01 -0.26934739198E+02  0.17463792473E+02  0.32530724039E+02  0.51100000000E-03 0. -1.
        -11    1    3    3    0    0  0.11662119042E+02 -0.11406567623E+01  0.75054030815E+01  0.13915358208E+02  0.51100000000E-03 0.  1.
         12    1    3    3    0    0 -0.28303928831E+01 -0.10530166964E+01 -0.12496133004E+02  0.12855866679E+02  0.00000000000E+00 0. -1.
</event>
<event>
 7    1  0.1204848E-011  0.5930192E+02  0.7816164E-02  0.1266605E+00
        -11   -1    0    0    0    0  0.00000000000E+00  0.00000000000E+00  0.45593999997E+02  0.45594000000E+02  0.51100000000E-03 0. -1.
         11   -1    0    0    0    0 -0.00000000000E+00 -0.00000000000E+00 -0.45593999997E+02  0.45594000000E+02  0.51100000000E-03 0.  1.
    9900012    2    1    2    0    0  0.27002863174E+01  0.31188123082E+02  0.60606764648E+01  0.59301915781E+02  0.49999948485E+02 0.  0.
         12    1    1    2    0    0 -0.27002863174E+01 -0.31188123082E+02 -0.60606764648E+01  0.31886084219E+02  0.00000000000E+00 0. -1.
         11    1    3    3    0    0  0.14705538253E+02  0.18352514557E+02 -0.27597925502E+01  0.23678768993E+02  0.51100000000E-03 0. -1.
        -11    1    3    3    0    0  0.40535260566E+01  0.41271378296E+01  0.15207604654E+02  0.16270696965E+02  0.51100000000E-03 0.  1.
        -12    1    3    3    0    0 -0.16058777992E+02  0.87084706959E+01 -0.63871356391E+01  0.19352449823E+02  0.00000000000E+00 0.  1.
</event>
<event>
 7    1  0.1204848E-011  0.5930192E+02  0.7816164E-02  0.1266605E+00
        -11   -1    0    0    0    0  0.00000000000E+00  0.00000000000E+00  0.45593999997E+02  0.45594000000E+02  0.51100000000E-03 0. -1.
         11   -1    0    0    0    0 -0.00000000000E+00 -0.00000000000E+00 -0.45593999997E+02  0.45594000000E+02  0.51100000000E-03 0.  1.
    9900012    2    1    2    0    0 -0.22786238467E+02  0.18465908802E+02 -0.12510786213E+02  0.59301918036E+02  0.49999952597E+02 0.  0.
         12    1    1    2    0    0  0.22786238467E+02 -0.18465908802E+02  0.12510786213E+02  0.31886081964E+02  0.00000000000E+00 0. -1.
         11    1    3    3    0    0  0.15589978032E+02  0.53239644993E+01 -0.72655487293E+01  0.18005005182E+02  0.51100000000E-03 0. -1.
        -11    1    3    3    0    0 -0.14705302427E+02  0.35102743138E+01  0.40663986494E+00  0.15123931416E+02  0.51100000000E-03 0.  1.
        -12    1    3    3    0    0 -0.23670914071E+02  0.96316699889E+01 -0.56518773491E+01  0.26172981437E+02  0.00000000000E+00 0.  1.
</event>
<event>
 7    1  0.1204848E-011  0.5930218E+02  0.7816164E-02  0.1266604E+00
        -11   -1    0    0    0    0  0.00000000000E+00  0.00000000000E+00  0.45593999997E+02  0.45594000000E+02  0.51100000000E-03 0.  1.
         11   -1    0    0    0    0 -0.00000000000E+00 -0.00000000000E+00 -0.45593999997E+02  0.45594000000E+02  0.51100000000E-03 0. -1.
    9900012    2    1    2    0    0 -0.20292711750E+02 -0.52289698454E+01  0.24032669291E+02  0.59302180752E+02  0.50000431727E+02 0.  0.
         12    1    1    2    0    0  0.20292711750E+02  0.52289698454E+01 -0.24032669291E+02  0.31885819248E+02  0.00000000000E+00 0. -1.
         11    1    3    3    0    0 -0.31582873726E+02  0.52018682070E+01  0.13500156049E+02  0.34738905556E+02  0.51100000000E-03 0. -1.
        -11    1    3    3    0    0  0.24483491018E+01 -0.91807539569E+01 -0.14581109090E+01  0.96128426714E+01  0.51100000000E-03 0.  1.
        -12    1    3    3    0    0  0.88418128739E+01 -0.12500840956E+01  0.11990624152E+02  0.14950432525E+02  0.00000000000E+00 0.  1.
</event>
<event>
 7    1  0.1204848E-011  0.5930195E+02  0.7816164E-02  0.1266605E+00
        -11   -1    0    0    0    0  0.00000000000E+00  0.00000000000E+00  0.45593999997E+02  0.45594000000E+02  0.51100000000E-03 0.  1.
         11   -1    0    0    0    0 -0.00000000000E+00 -0.00000000000E+00 -0.45593999997E+02  0.45594000000E+02  0.51100000000E-03 0. -1.
    9900012    2    1    2    0    0 -0.12293772919E+02 -0.27796960534E+02  0.96390942107E+01  0.59301952821E+02  0.50000016037E+02 0.  0.
         12    1    1    2    0    0  0.12293772919E+02  0.27796960534E+02 -0.96390942107E+01  0.31886047179E+02  0.00000000000E+00 0. -1.
         11    1    3    3    0    0  0.12583240308E+02  0.23230045909E-01  0.34289464867E+01  0.13042091495E+02  0.51100000000E-03 0. -1.
        -11    1    3    3    0    0 -0.15095585991E+01 -0.18079068944E+02  0.99135201952E+01  0.20673881686E+02  0.51100000000E-03 0.  1.
        -12    1    3    3    0    0 -0.23367454628E+02 -0.97411216359E+01 -0.37033724712E+01  0.25585979640E+02  0.00000000000E+00 0.  1.
</event>
<event>
 7    1  0.1204848E-011  0.5930198E+02  0.7816164E-02  0.1266605E+00
        -11   -1    0    0    0    0  0.00000000000E+00  0.00000000000E+00  0.45593999997E+02  0.45594000000E+02  0.51100000000E-03 0.  1.
         11   -1    0    0    0    0 -0.00000000000E+00 -0.00000000000E+00 -0.45593999997E+02  0.45594000000E+02  0.51100000000E-03 0. -1.
    9900012    2    1    2    0    0 -0.61936602547E+01  0.68988793276E+01  0.30508394861E+02  0.59301982370E+02  0.50000069926E+02 0.  0.
         12    1    1    2    0    0  0.61936602547E+01 -0.68988793276E+01 -0.30508394861E+02  0.31886017630E+02  0.00000000000E+00 0. -1.
         11    1    3    3    0    0 -0.21271778943E+01 -0.11657294402E+02  0.95726455081E+01  0.15233283981E+02  0.51100000000E-03 0. -1.
        -11    1    3    3    0    0 -0.68145170977E+01 -0.21709258456E+01 -0.64383268248E+01  0.96230252450E+01  0.51100000000E-03 0.  1.
        -12    1    3    3    0    0  0.27480347374E+01  0.20727099575E+02  0.27374076178E+02  0.34445673143E+02  0.00000000000E+00 0.  1.
</event>
<event>
 7    1  0.1204848E-011  0.5930209E+02  0.7816164E-02  0.1266604E+00
        -11   -1    0    0    0    0  0.00000000000E+00  0.00000000000E+00  0.45593999997E+02  0.45594000000E+02  0.51100000000E-03 0.  1.
         11   -1    0    0    0    0 -0.00000000000E+00 -0.00000000000E+00 -0.45593999997E+02  0.45594000000E+02  0.51100000000E-03 0. -1.
    9900012    2    1    2    0    0  0.34459176121E+01 -0.27741968521E+02 -0.15336894263E+02  0.59302086320E+02  0.50000259506E+02 0.  0.
         12    1    1    2    0    0 -0.34459176121E+01  0.27741968521E+02  0.15336894263E+02  0.31885913680E+02  0.00000000000E+00 0. -1.
         11    1    3    3    0    0  0.32453085245E+01 -0.23610102188E+01  0.61985786832E+01  0.73843601365E+01  0.51100000000E-03 0. -1.
        -11    1    3    3    0    0  0.25136031247E+01 -0.17323634275E+02  0.93981763884E+01  0.19868372476E+02  0.51100000000E-03 0.  1.
         12    1    3    3    0    0 -0.23129940371E+01 -0.80573240267E+01 -0.30933649335E+02  0.32049353707E+02  0.00000000000E+00 0. -1.
</event>
<event>
 7    1  0.1204848E-011  0.5930194E+02  0.7816164E-02  0.1266605E+00
        -11   -1    0    0    0    0  0.00000000000E+00  0.00000000000E+00  0.45593999997E+02  0.45594000000E+02  0.51100000000E-03 0. -1.
         11   -1    0    0    0    0 -0.00000000000E+00 -0.00000000000E+00 -0.45593999997E+02  0.45594000000E+02  0.51100000000E-03 0.  1.
    9900012    2    1    2    0    0  0.28356472018E+02 -0.14534613736E+02  0.11731584523E+01  0.59301940310E+02  0.49999993220E+02 0.  0.
         12    1    1    2    0    0 -0.28356472018E+02  0.14534613736E+02 -0.11731584523E+01  0.31886059690E+02  0.00000000000E+00 0. -1.
         11    1    3    3    0    0 -0.89028192768E+00 -0.19507068097E+02  0.14798090187E+01  0.19583363926E+02  0.51100000000E-03 0. -1.
        -11    1    3    3    0    0  0.13032290669E+02 -0.78949013254E+01  0.82416423388E+01  0.17323242645E+02  0.51100000000E-03 0.  1.
        -12    1    3    3    0    0  0.16214463277E+02  0.12867355686E+02 -0.85482929052E+01  0.22395333739E+02  0.00000000000E+00 0.  1.
</event>
<event>
 7    1  0.1204848E-011  0.5930195E+02  0.7816164E-02  0.1266605E+00
        -11   -1    0    0    0    0  0.00000000000E+00  0.00000000000E+00  0.45593999997E+02  0.45594000000E+02  0.51100000000E-03 0. -1.
         11   -1    0    0    0    0 -0.00000000000E+00 -0.00000000000E+00 -0.45593999997E+02  0.45594000000E+02  0.51100000000E-03 0.  1.
    9900012    2    1    2    0    0 -0.28392139500E+02  0.41904766591E+01 -0.13894128136E+02  0.59301945420E+02  0.50000002540E+02 0.  0.
         12    1    1    2    0    0  0.28392139500E+02 -0.41904766591E+01  0.13894128136E+02  0.31886054580E+02  0.00000000000E+00 0. -1.
         11    1    3    3    0    0 -0.12583072217E+02 -0.57383036371E+01 -0.17583760051E+01  0.13941080356E+02  0.51100000000E-03 0. -1.
        -11    1    3    3    0    0 -0.53398192994E+01 -0.12917484322E+02  0.51092991236E+01  0.14882204445E+02  0.51100000000E-03 0.  1.
        -12    1    3    3    0    0 -0.10469247983E+02  0.22846264618E+02 -0.17245051255E+02  0.30478660619E+02  0.00000000000E+00 0.  1.
</event>
<event>
 7    1  0.1204848E-011  0.5930194E+02  0.7816164E-02  0.1266605E+00
        -11   -1    0    0    0    0  0.00000000000E+00  0.00000000000E+00  0.45593999997E+02  0.45594000000E+02  0.51100000000E-03 0. -1.
         11   -1    0    0    0    0 -0.00000000000E+00 -0.00000000000E+00 -0.45593999997E+02  0.45594000000E+02  0.51100000000E-03 0.  1.
    9900012    2    1    2    0    0  0.41889614397E+01  0.51024536842E+01 -0.31195167292E+02  0.59301938877E+02  0.49999990606E+02 0.  0.
         12    1    1    2    0    0 -0.41889614397E+01 -0.51024536842E+01  0.31195167292E+02  0.31886061123E+02  0.00000000000E+00 0. -1.
         11    1    3    3    0    0  0.14060379793E+02 -0.41763754500E+01 -0.56293184584E+01  0.15710684848E+02  0.51100000000E-03 0. -1.
        -11    1    3    3    0    0 -0.75556563052E+01 -0.11738588262E+02 -0.79151609175E+01  0.16047808860E+02  0.51100000000E-03 0.  1.
        -12    1    3    3    0    0 -0.23157620483E+01  0.21017417396E+02 -0.17650687917E+02  0.27543445169E+02  0.00000000000E+00 0.  1.
</event>
<event>
 7    1  0.1204848E-011  0.5930195E+02  0.7816164E-02  0.1266605E+00
        -11   -1    0    0    0    0  0.00000000000E+00  0.00000000000E+00  0.45593999997E+02  0.45594000000E+02  0.51100000000E-03 0.  1.
         11   -1    0    0    0    0 -0.00000000000E+00 -0.00000000000E+00 -0.45593999997E+02  0.45594000000E+02  0.51100000000E-03 0. -1.
    9900012    2    1    2    0    0 -0.29595999080E+02  0.39106629108E+01  0.11202855224E+02  0.59301946448E+02  0.50000004413E+02 0.  0.
         12    1    1    2    0    0  0.29595999080E+02 -0.39106629108E+01 -0.11202855224E+02  0.31886053552E+02  0.00000000000E+00 0. -1.
         11    1    3    3    0    0 -0.70688018815E+01 -0.20635328041E+02  0.83416539722E+01  0.23353113597E+02  0.51100000000E-03 0. -1.
        -11    1    3    3    0    0 -0.13424934713E+02  0.74084452464E+01  0.56569595451E+01  0.16343657013E+02  0.51100000000E-03 0.  1.
        -12    1    3    3    0    0 -0.91022624865E+01  0.17137545706E+02 -0.27957582933E+01  0.19605175838E+02  0.00000000000E+00 0.  1.
</event>
<event>
 7    1  0.1204848E-011  0.5930196E+02  0.7816164E-02  0.1266605E+00
        -11   -1    0    0    0    0  0.00000000000E+00  0.00000000000E+00  0.45593999997E+02  0.45594000000E+02  0.51100000000E-03 0. -1.
         11   -1    0    0    0    0 -0.00000000000E+00 -0.00000000000E+00 -0.45593999997E+02  0.45594000000E+02  0.51100000000E-03 0.  1.
    9900012    2    1    2    0    0 -0.84994815199E+01 -0.23291308038E+02  0.20049770786E+02  0.59301960347E+02  0.50000029762E+02 0.  0.
         12    1    1    2    0    0  0.84994815199E+01  0.23291308038E+02 -0.20049770786E+02  0.31886039653E+02  0.00000000000E+00 0. -1.
         11    1    3    3    0    0 -0.22873478009E+01 -0.12511330762E+02 -0.73298580301E+01  0.14679651780E+02  0.51100000000E-03 0. -1.
        -11    1    3    3    0    0 -0.18437677572E+02 -0.73378355143E+01  0.78807723822E+01  0.21351776458E+02  0.51100000000E-03 0.  1.
         12    1    3    3    0    0  0.12225543853E+02 -0.34421417617E+01  0.19498856433E+02  0.23270532109E+02  0.00000000000E+00 0. -1.
</event>
<event>
 7    1  0.1204848E-011  0.5930196E+02  0.7816164E-02  0.1266605E+00
        -11   -1    0    0    0    0  0.00000000000E+00  0.00000000000E+00  0.45593999997E+02  0.45594000000E+02  0.51100000000E-03 0.  1.
         11   -1    0    0    0    0 -0.00000000000E+00 -0.00000000000E+00 -0.45593999997E+02  0.45594000000E+02  0.51100000000E-03 0. -1.
    9900012    2    1    2    0    0 -0.27116378104E+02 -0.15424076821E+02 -0.65969278751E+01  0.59301959722E+02  0.50000028622E+02 0.  0.
         12    1    1    2    0    0  0.27116378104E+02  0.15424076821E+02  0.65969278751E+01  0.31886040278E+02  0.00000000000E+00 0. -1.
         11    1    3    3    0    0 -0.92948460700E+01 -0.20500249981E+01 -0.11612215957E+02  0.15014670348E+02  0.51100000000E-03 0. -1.
        -11    1    3    3    0    0 -0.10773306578E+02 -0.26140886828E+02  0.80378229276E+01  0.29394160924E+02  0.51100000000E-03 0.  1.
         12    1    3    3    0    0 -0.70482254563E+01  0.12766835005E+02 -0.30225348460E+01  0.14893128450E+02  0.00000000000E+00 0. -1.
</event>
<event>
 7    1  0.1204848E-011  0.5930193E+02  0.7816164E-02  0.1266605E+00
        -11   -1    0    0    0    0  0.00000000000E+00  0.00000000000E+00  0.45593999997E+02  0.45594000000E+02  0.51100000000E-03 0. -1.
         11   -1    0    0    0    0 -0.00000000000E+00 -0.00000000000E+00 -0.45593999997E+02  0.45594000000E+02  0.51100000000E-03 0.  1.
    9900012    2    1    2    0    0 -0.14784856013E+02  0.15838459987E+02 -0.23393865156E+02  0.59301926096E+02  0.49999967297E+02 0.  0.
         12    1    1    2    0    0  0.14784856013E+02 -0.15838459987E+02  0.23393865156E+02  0.31886073904E+02  0.00000000000E+00 0. -1.
         11    1    3    3    0    0  0.91122205662E+01  0.34842323285E+01 -0.20310328822E+01  0.99648147698E+01  0.51100000000E-03 0. -1.
        -11    1    3    3    0    0 -0.23098738459E+02  0.13160312703E+02  0.13280952092E+01  0.26617839619E+02  0.51100000000E-03 0.  1.
         12    1    3    3    0    0 -0.79833811973E+00 -0.80608504466E+00 -0.22690927483E+02  0.22719271707E+02  0.00000000000E+00 0. -1.
</event>
<event>
 7    1  0.1204848E-011  0.5930195E+02  0.7816164E-02  0.1266605E+00
        -11   -1    0    0    0    0  0.00000000000E+00  0.00000000000E+00  0.45593999997E+02  0.45594000000E+02  0.51100000000E-03 0.  1.
         11   -1    0    0    0    0 -0.00000000000E+00 -0.00000000000E+00 -0.45593999997E+02  0.45594000000E+02  0.51100000000E-03 0. -1.
    9900012    2    1    2    0    0 -0.55077671736E+01  0.15925430947E+02  0.27069641335E+02  0.59301947688E+02  0.50000006675E+02 0.  0.
         12    1    1    2    0    0  0.55077671736E+01 -0.15925430947E+02 -0.27069641335E+02  0.31886052312E+02  0.00000000000E+00 0. -1.
         11    1    3    3    0    0  0.11354831686E+02 -0.43837828423E+00  0.19060096860E+02  0.22190350847E+02  0.51100000000E-03 0. -1.
        -11    1    3    3    0    0 -0.10504612184E+02  0.17411203682E+02  0.16685819845E+02  0.26304248229E+02  0.51100000000E-03 0.  1.
         12    1    3    3    0    0 -0.63579866760E+01 -0.10473944505E+01 -0.86762753699E+01  0.10807348611E+02  0.00000000000E+00 0. -1.
</event>
<event>
 7    1  0.1204848E-011  0.5930194E+02  0.7816164E-02  0.1266605E+00
        -11   -1    0    0    0    0  0.00000000000E+00  0.00000000000E+00  0.45593999997E+02  0.45594000000E+02  0.51100000000E-03 0.  1.
         11   -1    0    0    0    0 -0.00000000000E+00 -0.00000000000E+00 -0.45593999997E+02  0.45594000000E+02  0.51100000000E-03 0. -1.
    9900012    2    1    2    0    0  0.25469034225E+02  0.93321390061E+01  0.16761869768E+02  0.59301940336E+02  0.49999993266E+02 0.  0.
         12    1    1    2    0    0 -0.25469034225E+02 -0.93321390061E+01 -0.16761869768E+02  0.31886059664E+02  0.00000000000E+00 0. -1.
         11    1    3    3    0    0  0.81046276057E+01  0.65212755473E+01 -0.24914717957E+01  0.10696703014E+02  0.51100000000E-03 0. -1.
        -11    1    3    3    0    0  0.18963330376E+02  0.14585039891E+02  0.25679538669E+02  0.35096580946E+02  0.51100000000E-03 0.  1.
        -12    1    3    3    0    0 -0.15989237563E+01 -0.11774176432E+02 -0.64261971055E+01  0.13508656376E+02  0.00000000000E+00 0.  1.
</event>
<event>
 7    1  0.1204848E-011  0.5930196E+02  0.7816164E-02  0.1266605E+00
        -11   -1    0    0    0    0  0.00000000000E+00  0.00000000000E+00  0.45593999997E+02  0.45594000000E+02  0.51100000000E-03 0. -1.
         11   -1    0    0    0    0 -0.00000000000E+00 -0.00000000000E+00 -0.45593999997E+02  0.45594000000E+02  0.51100000000E-03 0.  1.
    9900012    2    1    2    0    0  0.75350777672E+01  0.27372681839E+02  0.14514777130E+02  0.59301955041E+02  0.50000020085E+02 0.  0.
         12    1    1    2    0    0 -0.75350777672E+01 -0.27372681839E+02 -0.14514777130E+02  0.31886044959E+02  0.00000000000E+00 0. -1.
         11    1    3    3    0    0  0.78842481955E+01  0.10833572953E+02  0.11035659020E+02  0.17358382494E+02  0.51100000000E-03 0. -1.
        -11    1    3    3    0    0  0.17072145964E+02 -0.95090351176E+00  0.88375889730E+00  0.17121431463E+02  0.51100000000E-03 0.  1.
        -12    1    3    3    0    0 -0.17421316392E+02  0.17490012398E+02  0.25953592122E+01  0.24822141083E+02  0.00000000000E+00 0.  1.
</event>
<event>
 7    1  0.1204848E-011  0.5930198E+02  0.7816164E-02  0.1266605E+00
        -11   -1    0    0    0    0  0.00000000000E+00  0.00000000000E+00  0.45593999997E+02  0.45594000000E+02  0.51100000000E-03 0. -1.
         11   -1    0    0    0    0 -0.00000000000E+00 -0.00000000000E+00 -0.45593999997E+02  0.45594000000E+02  0.51100000000E-03 0.  1.
    9900012    2    1    2    0    0 -0.69074468615E+00 -0.21980409351E+02 -0.23089024352E+02  0.59301975335E+02  0.50000057096E+02 0.  0.
         12    1    1    2    0    0  0.69074468615E+00  0.21980409351E+02  0.23089024352E+02  0.31886024665E+02  0.00000000000E+00 0. -1.
         11    1    3    3    0    0 -0.20122963364E+01 -0.19731463576E+02 -0.19504288170E+02  0.27817211375E+02  0.51100000000E-03 0. -1.
        -11    1    3    3    0    0 -0.11623642326E+02  0.46778727921E+01 -0.94303294473E+01  0.15681921710E+02  0.51100000000E-03 0.  1.
         12    1    3    3    0    0  0.12945193976E+02 -0.69268185669E+01  0.58455932659E+01  0.15802842249E+02  0.00000000000E+00 0. -1.
</event>
<event>
 7    1  0.1204848E-011  0.5930194E+02  0.7816164E-02  0.1266605E+00
        -11   -1    0    0    0    0  0.00000000000E+00  0.00000000000E+00  0.45593999997E+02  0.45594000000E+02  0.51100000000E-03 0.  1.
         11   -1    0    0    0    0 -0.00000000000E+00 -0.00000000000E+00 -0.45593999997E+02  0.45594000000E+02  0.51100000000E-03 0. -1.
    9900012    2    1    2    0    0  0.12752682515E+02  0.28386711091E+02  0.69487121331E+01  0.59301939124E+02  0.49999991056E+02 0.  0.
         12    1    1    2    0    0 -0.12752682515E+02 -0.28386711091E+02 -0.69487121331E+01  0.31886060876E+02  0.00000000000E+00 0. -1.
         11    1    3    3    0    0 -0.11928042722E+02  0.27854166333E+01  0.52355166726E+01  0.13320937809E+02  0.51100000000E-03 0. -1.
        -11    1    3    3    0    0 -0.43785051592E+01 -0.13628471396E+01  0.42572932870E+01  0.62572522841E+01  0.51100000000E-03 0.  1.
        -12    1    3    3    0    0  0.29059230397E+02  0.26964141597E+02 -0.25440978265E+01  0.39723749031E+02  0.00000000000E+00 0.  1.
</event>
<event>
 7    1  0.1204848E-011  0.5930230E+02  0.7816164E-02  0.1266604E+00
        -11   -1    0    0    0    0  0.00000000000E+00  0.00000000000E+00  0.45593999997E+02  0.45594000000E+02  0.51100000000E-03 0.  1.
         11   -1    0    0    0    0 -0.00000000000E+00 -0.00000000000E+00 -0.45593999997E+02  0.45594000000E+02  0.51100000000E-03 0. -1.
    9900012    2    1    2    0    0 -0.14265926221E+02 -0.24231374757E+02 -0.15034012856E+02  0.59302302327E+02  0.50000653448E+02 0.  0.
         12    1    1    2    0    0  0.14265926221E+02  0.24231374757E+02  0.15034012856E+02  0.31885697673E+02  0.00000000000E+00 0. -1.
         11    1    3    3    0    0  0.44089141759E+01 -0.17897382515E+02 -0.11467435236E+02  0.21708452185E+02  0.51100000000E-03 0. -1.
        -11    1    3    3    0    0  0.17909529879E+01 -0.77104560800E+01  0.10184545664E+02  0.12898977332E+02  0.51100000000E-03 0.  1.
         12    1    3    3    0    0 -0.20465793384E+02  0.13764638384E+01 -0.13751123284E+02  0.24694872811E+02  0.00000000000E+00 0. -1.
</event>
<event>
 7    1  0.1204848E-011  0.5930194E+02  0.7816164E-02  0.1266605E+00
        -11   -1    0    0    0    0  0.00000000000E+00  0.00000000000E+00  0.45593999997E+02  0.45594000000E+02  0.51100000000E-03 0. -1.
         11   -1    0    0    0    0 -0.00000000000E+00 -0.00000000000E+00 -0.45593999997E+02  0.45594000000E+02  0.51100000000E-03 0.  1.
    9900012    2    1    2    0    0  0.14342321769E+02 -0.11487243821E+02 -0.26058816790E+02  0.59301938832E+02  0.49999990524E+02 0.  0.
         12    1    1    2    0    0 -0.14342321769E+02  0.11487243821E+02  0.26058816790E+02  0.31886061168E+02  0.00000000000E+00 0. -1.
         11    1    3    3    0    0  0.74530978398E+01 -0.17665892446E+02  0.90304191307E+01  0.21193888111E+02  0.51100000000E-03 0. -1.
        -11    1    3    3    0    0 -0.44360069522E+00 -0.15363947116E+01 -0.17651125601E+00  0.16088650569E+01  0.51100000000E-03 0.  1.
        -12    1    3    3    0    0  0.73328246245E+01  0.77150433365E+01 -0.34912724664E+02  0.36499185664E+02  0.00000000000E+00 0.  1.
</event>
<event>
 7    1  0.1204848E-011  0.5930194E+02  0.7816164E-02  0.1266605E+00
        -11   -1    0    0    0    0  0.00000000000E+00  0.00000000000E+00  0.45593999997E+02  0.45594000000E+02  0.51100000000E-03 0.  1.
         11   -1    0    0    0    0 -0.00000000000E+00 -0.00000000000E+00 -0.45593999997E+02  0.45594000000E+02  0.51100000000E-03 0. -1.
    9900012    2    1    2    0    0 -0.61011156285E+01  0.49884578086E+01  0.30896804911E+02  0.59301939144E+02  0.49999991094E+02 0.  0.
         12    1    1    2    0    0  0.61011156285E+01 -0.49884578086E+01 -0.30896804911E+02  0.31886060856E+02  0.00000000000E+00 0. -1.
         11    1    3    3    0    0  0.22084945205E+01  0.76476346615E+01  0.53369127540E+01  0.95836528510E+01  0.51100000000E-03 0. -1.
        -11    1    3    3    0    0 -0.16567864416E+02  0.14960116722E+02  0.18587697189E+02  0.29048265193E+02  0.51100000000E-03 0.  1.
        -12    1    3    3    0    0  0.82582542671E+01 -0.17619293575E+02  0.69721949673E+01  0.20670021100E+02  0.00000000000E+00 0.  1.
</event>
<event>
 7    1  0.1204848E-011  0.5930190E+02  0.7816164E-02  0.1266605E+00
        -11   -1    0    0    0    0  0.00000000000E+00  0.00000000000E+00  0.45593999997E+02  0.45594000000E+02  0.51100000000E-03 0. -1.
         11   -1    0    0    0    0 -0.00000000000E+00 -0.00000000000E+00 -0.45593999997E+02  0.45594000000E+02  0.51100000000E-03 0.  1.
    9900012    2    1    2    0    0 -0.27457746587E+02  0.12423047941E+02 -0.10414570023E+02  0.59301902143E+02  0.49999923612E+02 0.  0.
         12    1    1    2    0    0  0.27457746587E+02 -0.12423047941E+02  0.10414570023E+02  0.31886097857E+02  0.00000000000E+00 0. -1.
         11    1    3    3    0    0 -0.69370656199E+00  0.20885124139E+01  0.11065686081E+02  0.11282398752E+02  0.51100000000E-03 0.  1.
        -11    1    3    3    0    0  0.56416465076E+01 -0.41857086986E+01 -0.12009225500E+01  0.71267487579E+01  0.51100000000E-03 0. -1.
        -12    1    3    3    0    0 -0.32405686533E+02  0.14520244226E+02 -0.20279333554E+02  0.40892754633E+02  0.00000000000E+00 0.  1.
</event>
<event>
 7    1  0.1204848E-011  0.5930199E+02  0.7816164E-02  0.1266605E+00
        -11   -1    0    0    0    0  0.00000000000E+00  0.00000000000E+00  0.45593999997E+02  0.45594000000E+02  0.51100000000E-03 0.  1.
         11   -1    0    0    0    0 -0.00000000000E+00 -0.00000000000E+00 -0.45593999997E+02  0.45594000000E+02  0.51100000000E-03 0. -1.
    9900012    2    1    2    0    0  0.19897401965E+02 -0.44933959688E+01  0.24507557733E+02  0.59301990555E+02  0.50000084854E+02 0.  0.
         12    1    1    2    0    0 -0.19897401965E+02  0.44933959688E+01 -0.24507557733E+02  0.31886009445E+02  0.00000000000E+00 0. -1.
         11    1    3    3    0    0  0.13604779626E+02 -0.14061650009E+02  0.42248506598E+01  0.20016727829E+02  0.51100000000E-03 0. -1.
        -11    1    3    3    0    0  0.17268797540E+02 -0.23106416516E+01  0.11566522945E+02  0.20912553326E+02  0.51100000000E-03 0.  1.
         12    1    3    3    0    0 -0.10976175201E+02  0.11878895692E+02  0.87161841287E+01  0.18372709399E+02  0.00000000000E+00 0. -1.
</event>
<event>
 7    1  0.1204848E-011  0.5930200E+02  0.7816164E-02  0.1266605E+00
        -11   -1    0    0    0    0  0.00000000000E+00  0.00000000000E+00  0.45593999997E+02  0.45594000000E+02  0.51100000000E-03 0. -1.
         11   -1    0    0    0    0 -0.00000000000E+00 -0.00000000000E+00 -0.45593999997E+02  0.45594000000E+02  0.51100000000E-03 0.  1.
    9900012    2    1    2    0    0 -0.14750236030E+02  0.23537036752E+02 -0.15657434363E+02  0.59302002872E+02  0.50000107318E+02 0.  0.
         12    1    1    2    0    0  0.14750236030E+02 -0.23537036752E+02  0.15657434363E+02  0.31885997128E+02  0.00000000000E+00 0. -1.
         11    1    3    3    0    0 -0.14077080080E+02  0.67944192540E+01  0.77348065525E+01  0.17440055884E+02  0.51100000000E-03 0. -1.
        -11    1    3    3    0    0 -0.15378702359E+02  0.11030802991E+02 -0.13364833779E+02  0.23168985370E+02  0.51100000000E-03 0.  1.
         12    1    3    3    0    0  0.14705546409E+02  0.57118145066E+01 -0.10027407137E+02  0.18692961618E+02  0.00000000000E+00 0. -1.
</event>
<event>
 7    1  0.1204848E-011  0.5930194E+02  0.7816164E-02  0.1266605E+00
        -11   -1    0    0    0    0  0.00000000000E+00  0.00000000000E+00  0.45593999997E+02  0.45594000000E+02  0.51100000000E-03 0. -1.
         11   -1    0    0    0    0 -0.00000000000E+00 -0.00000000000E+00 -0.45593999997E+02  0.45594000000E+02  0.51100000000E-03 0.  1.
    9900012    2    1    2    0    0 -0.71389318444E+00 -0.20706769708E+02 -0.24237173640E+02  0.59301944407E+02  0.50000000691E+02 0.  0.
         12    1    1    2    0    0  0.71389318444E+00  0.20706769708E+02  0.24237173640E+02  0.31886055593E+02  0.00000000000E+00 0. -1.
         11    1    3    3    0    0  0.78233140365E+01 -0.76227371325E+01 -0.10802701874E+02  0.15362575694E+02  0.51100000000E-03 0. -1.
        -11    1    3    3    0    0 -0.46891185575E+01 -0.25567256039E+00 -0.25490406280E+02  0.25919375260E+02  0.51100000000E-03 0.  1.
         12    1    3    3    0    0 -0.38480886634E+01 -0.12828360015E+02  0.12055934514E+02  0.18019993453E+02  0.00000000000E+00 0. -1.
</event>
<event>
 7    1  0.1204848E-011  0.5930193E+02  0.7816164E-02  0.1266605E+00
        -11   -1    0    0    0    0  0.00000000000E+00  0.00000000000E+00  0.45593999997E+02  0.45594000000E+02  0.51100000000E-03 0.  1.
         11   -1    0    0    0    0 -0.00000000000E+00 -0.00000000000E+00 -0.45593999997E+02  0.45594000000E+02  0.51100000000E-03 0. -1.
    9900012    2    1    2    0    0 -0.29722531637E+02  0.11544524452E+02 -0.12807294857E+00  0.59301931970E+02  0.49999978009E+02 0.  0.
         12    1    1    2    0    0  0.29722531637E+02 -0.11544524452E+02  0.12807294857E+00  0.31886068030E+02  0.00000000000E+00 0. -1.
         11    1    3    3    0    0 -0.48309255213E+01  0.18622751169E+01  0.90469808544E+00  0.52558908751E+01  0.51100000000E-03 0. -1.
        -11    1    3    3    0    0 -0.14914363728E+02  0.28089816146E+02 -0.63778964440E+01  0.32436916929E+02  0.51100000000E-03 0.  1.
         12    1    3    3    0    0 -0.99772423878E+01 -0.18407566811E+02  0.53451254100E+01  0.21609124166E+02  0.00000000000E+00 0. -1.
</event>
<event>
 7    1  0.1204848E-011  0.5930194E+02  0.7816164E-02  0.1266605E+00
        -11   -1    0    0    0    0  0.00000000000E+00  0.00000000000E+00  0.45593999997E+02  0.45594000000E+02  0.51100000000E-03 0.  1.
         11   -1    0    0    0    0 -0.00000000000E+00 -0.00000000000E+00 -0.45593999997E+02  0.45594000000E+02  0.51100000000E-03 0. -1.
    9900012    2    1    2    0    0 -0.19070696183E+02  0.25153183380E+02  0.45107180634E+01  0.59301942475E+02  0.49999997168E+02 0.  0.
         12    1    1    2    0    0  0.19070696183E+02 -0.25153183380E+02 -0.45107180634E+01  0.31886057525E+02  0.00000000000E+00 0. -1.
         11    1    3    3    0    0 -0.96258229221E+01 -0.25445516420E+01 -0.76090645174E+01  0.12531124175E+02  0.51100000000E-03 0. -1.
        -11    1    3    3    0    0 -0.32436815853E+01 -0.81462284305E+01  0.17009035376E+01  0.89317176945E+01  0.51100000000E-03 0.  1.
        -12    1    3    3    0    0 -0.62011916760E+01  0.35843963452E+02  0.10418879043E+02  0.37839100606E+02  0.00000000000E+00 0.  1.
</event>
<event>
 7    1  0.1204848E-011  0.5930193E+02  0.7816164E-02  0.1266605E+00
        -11   -1    0    0    0    0  0.00000000000E+00  0.00000000000E+00  0.45593999997E+02  0.45594000000E+02  0.51100000000E-03 0.  1.
         11   -1    0    0    0    0 -0.00000000000E+00 -0.00000000000E+00 -0.45593999997E+02  0.45594000000E+02  0.51100000000E-03 0. -1.
    9900012    2    1    2    0    0  0.15445470047E+02 -0.12900114290E+02  0.24733494846E+02  0.59301933122E+02  0.49999980110E+02 0.  0.
         12    1    1    2    0    0 -0.15445470047E+02  0.12900114290E+02 -0.24733494846E+02  0.31886066878E+02  0.00000000000E+00 0. -1.
         11    1    3    3    0    0  0.18049601760E+02 -0.10305169106E+01 -0.10022419121E+01  0.18106755036E+02  0.51100000000E-03 0. -1.
        -11    1    3    3    0    0 -0.45621556649E+01  0.79136543034E+01  0.60849886962E+00  0.91547506727E+01  0.51100000000E-03 0.  1.
        -12    1    3    3    0    0  0.19580239520E+01 -0.19783251683E+02  0.25127237888E+02  0.32040427413E+02  0.00000000000E+00 0.  1.
</event>
<event>
 7    1  0.1204848E-011  0.5930191E+02  0.7816164E-02  0.1266605E+00
        -11   -1    0    0    0    0  0.00000000000E+00  0.00000000000E+00  0.45593999997E+02  0.45594000000E+02  0.51100000000E-03 0. -1.
         11   -1    0    0    0    0 -0.00000000000E+00 -0.00000000000E+00 -0.45593999997E+02  0.45594000000E+02  0.51100000000E-03 0.  1.
    9900012    2    1    2    0    0  0.10603792638E+02 -0.20660988899E+02  0.21849625600E+02  0.59301905548E+02  0.49999929821E+02 0.  0.
         12    1    1    2    0    0 -0.10603792638E+02  0.20660988899E+02 -0.21849625600E+02  0.31886094452E+02  0.00000000000E+00 0. -1.
         11    1    3    3    0    0  0.17448617427E+02 -0.13878302901E+02  0.21023559773E+02  0.30643948951E+02  0.51100000000E-03 0. -1.
        -11    1    3    3    0    0 -0.50336130329E+01  0.63178930628E+01  0.97815645669E+01  0.12685899202E+02  0.51100000000E-03 0.  1.
        -12    1    3    3    0    0 -0.18112117562E+01 -0.13100579060E+02 -0.89554987401E+01  0.15972057395E+02  0.00000000000E+00 0.  1.
</event>
<event>
 7    1  0.1204848E-011  0.5930194E+02  0.7816164E-02  0.1266605E+00
        -11   -1    0    0    0    0  0.00000000000E+00  0.00000000000E+00  0.45593999997E+02  0.45594000000E+02  0.51100000000E-03 0. -1.
         11   -1    0    0    0    0 -0.00000000000E+00 -0.00000000000E+00 -0.45593999997E+02  0.45594000000E+02  0.51100000000E-03 0.  1.
    9900012    2    1    2    0    0 -0.13960352172E+02  0.28519414860E+02 -0.29107255951E+01  0.59301940661E+02  0.49999993859E+02 0.  0.
         12    1    1    2    0    0  0.13960352172E+02 -0.28519414860E+02  0.29107255951E+01  0.31886059339E+02  0.00000000000E+00 0. -1.
         11    1    3    3    0    0 -0.76470336104E+01  0.20883856070E+02  0.14728608740E+01  0.22288604415E+02  0.51100000000E-03 0. -1.
        -11    1    3    3    0    0 -0.26234686026E+01  0.14533068444E+02 -0.16781299781E+02  0.22354075434E+02  0.51100000000E-03 0.  1.
         12    1    3    3    0    0 -0.36898499592E+01 -0.68975096540E+01  0.12397713312E+02  0.14659260811E+02  0.00000000000E+00 0. -1.
</event>
<event>
 7    1  0.1204848E-011  0.5930204E+02  0.7816164E-02  0.1266604E+00
        -11   -1    0    0    0    0  0.00000000000E+00  0.00000000000E+00  0.45593999997E+02  0.45594000000E+02  0.51100000000E-03 0.  1.
         11   -1    0    0    0    0 -0.00000000000E+00 -0.00000000000E+00 -0.45593999997E+02  0.45594000000E+02  0.51100000000E-03 0. -1.
    9900012    2    1    2    0    0  0.11684517609E+02 -0.25491408612E+02 -0.15178093794E+02  0.59302040770E+02  0.50000176435E+02 0.  0.
         12    1    1    2    0    0 -0.11684517609E+02  0.25491408612E+02  0.15178093794E+02  0.31885959230E+02  0.00000000000E+00 0. -1.
         11    1    3    3    0    0  0.22587515882E+02  0.24440815716E+01 -0.11938288059E+02  0.25664998159E+02  0.51100000000E-03 0. -1.
        -11    1    3    3    0    0  0.24838622760E+01 -0.22095620203E+01 -0.32319336299E+01  0.46364999058E+01  0.51100000000E-03 0.  1.
        -12    1    3    3    0    0 -0.13386860549E+02 -0.25725928163E+02 -0.78721050489E-02  0.29000542705E+02  0.00000000000E+00 0.  1.
</event>
<event>
 7    1  0.1204848E-011  0.5930190E+02  0.7816164E-02  0.1266605E+00
        -11   -1    0    0    0    0  0.00000000000E+00  0.00000000000E+00  0.45593999997E+02  0.45594000000E+02  0.51100000000E-03 0.  1.
         11   -1    0    0    0    0 -0.00000000000E+00 -0.00000000000E+00 -0.45593999997E+02  0.45594000000E+02  0.51100000000E-03 0. -1.
    9900012    2    1    2    0    0  0.46856547436E+01 -0.10302037793E+02  0.29809994342E+02  0.59301904194E+02  0.49999927353E+02 0.  0.
         12    1    1    2    0    0 -0.46856547436E+01  0.10302037793E+02 -0.29809994342E+02  0.31886095806E+02  0.00000000000E+00 0. -1.
         11    1    3    3    0    0  0.86645604405E+01  0.20735487201E+01  0.24252711410E+01  0.92334258155E+01  0.51100000000E-03 0. -1.
        -11    1    3    3    0    0  0.33904921956E+01  0.87197037201E+01  0.26054676912E+02  0.27683476291E+02  0.51100000000E-03 0.  1.
        -12    1    3    3    0    0 -0.73693978924E+01 -0.21095290233E+02  0.13300462892E+01  0.22385002088E+02  0.00000000000E+00 0.  1.
</event>
<event>
 7    1  0.1204848E-011  0.5930191E+02  0.7816164E-02  0.1266605E+00
        -11   -1    0    0    0    0  0.00000000000E+00  0.00000000000E+00  0.45593999997E+02  0.45594000000E+02  0.51100000000E-03 0.  1.
         11   -1    0    0    0    0 -0.00000000000E+00 -0.00000000000E+00 -0.45593999997E+02  0.45594000000E+02  0.51100000000E-03 0. -1.
    9900012    2    1    2    0    0  0.31452021345E+02 -0.41533593159E+01 -0.32004650319E+01  0.59301905590E+02  0.49999929899E+02 0.  0.
         12    1    1    2    0    0 -0.31452021345E+02  0.41533593159E+01  0.32004650319E+01  0.31886094410E+02  0.00000000000E+00 0. -1.
         11    1    3    3    0    0  0.58800182569E+01 -0.16354407929E+02  0.48471628029E+01  0.18042623449E+02  0.51100000000E-03 0. -1.
        -11    1    3    3    0    0 -0.26444241432E+01 -0.58454538282E+01 -0.39034769176E+01  0.75099561792E+01  0.51100000000E-03 0.  1.
         12    1    3    3    0    0  0.28216427232E+02  0.18046502441E+02 -0.41441509172E+01  0.33749325962E+02  0.00000000000E+00 0. -1.
</event>
<event>
 7    1  0.1204848E-011  0.5930194E+02  0.7816164E-02  0.1266605E+00
        -11   -1    0    0    0    0  0.00000000000E+00  0.00000000000E+00  0.45593999997E+02  0.45594000000E+02  0.51100000000E-03 0. -1.
         11   -1    0    0    0    0 -0.00000000000E+00 -0.00000000000E+00 -0.45593999997E+02  0.45594000000E+02  0.51100000000E-03 0.  1.
    9900012    2    1    2    0    0 -0.26840105361E+02  0.14107298120E+02 -0.98647629626E+01  0.59301942478E+02  0.49999997173E+02 0.  0.
         12    1    1    2    0    0  0.26840105361E+02 -0.14107298120E+02  0.98647629626E+01  0.31886057522E+02  0.00000000000E+00 0. -1.
         11    1    3    3    0    0  0.41327711462E+01  0.78419203924E+01  0.43779245773E+01  0.98864420624E+01  0.51100000000E-03 0. -1.
        -11    1    3    3    0    0  0.30281476480E+01 -0.33242989692E+01 -0.13338884320E+02  0.14076451150E+02  0.51100000000E-03 0.  1.
        -12    1    3    3    0    0 -0.34001024155E+02  0.95896766968E+01 -0.90380322030E+00  0.35339049266E+02  0.00000000000E+00 0.  1.
</event>
<event>
 7    1  0.1204848E-011  0.5930194E+02  0.7816164E-02  0.1266605E+00
        -11   -1    0    0    0    0  0.00000000000E+00  0.00000000000E+00  0.45593999997E+02  0.45594000000E+02  0.51100000000E-03 0.  1.
         11   -1    0    0    0    0 -0.00000000000E+00 -0.00000000000E+00 -0.45593999997E+02  0.45594000000E+02  0.51100000000E-03 0. -1.
    9900012    2    1    2    0    0 -0.21383697845E+02  0.22214786086E+02 -0.81216613157E+01  0.59301942907E+02  0.49999997957E+02 0.  0.
         12    1    1    2    0    0  0.21383697845E+02 -0.22214786086E+02  0.81216613157E+01  0.31886057093E+02  0.00000000000E+00 0. -1.
         11    1    3    3    0    0  0.77655373012E+01  0.15819121583E+02  0.47542595205E+01  0.18252428910E+02  0.51100000000E-03 0. -1.
        -11    1    3    3    0    0 -0.93925986860E+01  0.87968879284E+01 -0.16391299904E+02  0.20839406424E+02  0.51100000000E-03 0.  1.
        -12    1    3    3    0    0 -0.19756636460E+02 -0.24012234258E+01  0.35153790675E+01  0.20210107574E+02  0.00000000000E+00 0.  1.
</event>
<event>
 7    1  0.1204848E-011  0.5930194E+02  0.7816164E-02  0.1266605E+00
        -11   -1    0    0    0    0  0.00000000000E+00  0.00000000000E+00  0.45593999997E+02  0.45594000000E+02  0.51100000000E-03 0.  1.
         11   -1    0    0    0    0 -0.00000000000E+00 -0.00000000000E+00 -0.45593999997E+02  0.45594000000E+02  0.51100000000E-03 0. -1.
    9900012    2    1    2    0    0 -0.12318768228E+02 -0.28022802781E+02  0.89269873529E+01  0.59301943022E+02  0.49999998166E+02 0.  0.
         12    1    1    2    0    0  0.12318768228E+02  0.28022802781E+02 -0.89269873529E+01  0.31886056978E+02  0.00000000000E+00 0. -1.
         11    1    3    3    0    0  0.58311747377E+01  0.50519067769E+01 -0.19113652262E+01  0.79484387268E+01  0.51100000000E-03 0. -1.
        -11    1    3    3    0    0 -0.77258731907E+01 -0.35938778109E+02  0.10573626251E+01  0.36775030993E+02  0.51100000000E-03 0.  1.
         12    1    3    3    0    0 -0.10424069775E+02  0.28640685512E+01  0.97809899541E+01  0.14578473302E+02  0.00000000000E+00 0. -1.
</event>
<event>
 7    1  0.1204848E-011  0.5930192E+02  0.7816164E-02  0.1266605E+00
        -11   -1    0    0    0    0  0.00000000000E+00  0.00000000000E+00  0.45593999997E+02  0.45594000000E+02  0.51100000000E-03 0.  1.
         11   -1    0    0    0    0 -0.00000000000E+00 -0.00000000000E+00 -0.45593999997E+02  0.45594000000E+02  0.51100000000E-03 0. -1.
    9900012    2    1    2    0    0  0.13630623991E+02 -0.11884886819E+02  0.26261717424E+02  0.59301917658E+02  0.49999951908E+02 0.  0.
         12    1    1    2    0    0 -0.13630623991E+02  0.11884886819E+02 -0.26261717424E+02  0.31886082342E+02  0.00000000000E+00 0. -1.
         11    1    3    3    0    0 -0.11543990304E+02  0.51610252216E+01  0.22416370395E+01  0.12842306271E+02  0.51100000000E-03 0. -1.
        -11    1    3    3    0    0 -0.47245071674E+01 -0.55048914328E+00  0.65718906690E+01  0.81125676267E+01  0.51100000000E-03 0.  1.
        -12    1    3    3    0    0  0.29899121463E+02 -0.16495422897E+02  0.17448189715E+02  0.38347043760E+02  0.00000000000E+00 0.  1.
</event>
<event>
 7    1  0.1204848E-011  0.5930195E+02  0.7816164E-02  0.1266605E+00
        -11   -1    0    0    0    0  0.00000000000E+00  0.00000000000E+00  0.45593999997E+02  0.45594000000E+02  0.51100000000E-03 0. -1.
         11   -1    0    0    0    0 -0.00000000000E+00 -0.00000000000E+00 -0.45593999997E+02  0.45594000000E+02  0.51100000000E-03 0.  1.
    9900012    2    1    2    0    0 -0.27987568705E+02  0.14688956105E+02  0.42013010336E+01  0.59301947190E+02  0.50000005766E+02 0.  0.
         12    1    1    2    0    0  0.27987568705E+02 -0.14688956105E+02 -0.42013010336E+01  0.31886052810E+02  0.00000000000E+00 0. -1.
         11    1    3    3    0    0  0.88866983515E+00 -0.85273561498E+01 -0.30651726451E+01  0.91049887747E+01  0.51100000000E-03 0. -1.
        -11    1    3    3    0    0 -0.26712565963E+02  0.44261001027E+01  0.13534552438E+02  0.30271036527E+02  0.51100000000E-03 0.  1.
         12    1    3    3    0    0 -0.21636725766E+01  0.18790212152E+02 -0.62680787594E+01  0.19925921888E+02  0.00000000000E+00 0. -1.
</event>
<event>
 7    1  0.1204848E-011  0.5930195E+02  0.7816164E-02  0.1266605E+00
        -11   -1    0    0    0    0  0.00000000000E+00  0.00000000000E+00  0.45593999997E+02  0.45594000000E+02  0.51100000000E-03 0.  1.
         11   -1    0    0    0    0 -0.00000000000E+00 -0.00000000000E+00 -0.45593999997E+02  0.45594000000E+02  0.51100000000E-03 0. -1.
    9900012    2    1    2    0    0  0.10888837826E+02 -0.15303738569E+02  0.25767202962E+02  0.59301953649E+02  0.50000017548E+02 0.  0.
         12    1    1    2    0    0 -0.10888837826E+02  0.15303738569E+02 -0.25767202962E+02  0.31886046351E+02  0.00000000000E+00 0. -1.
         11    1    3    3    0    0  0.14096850463E+02  0.46345782666E+01  0.13291139340E+02  0.19921217179E+02  0.51100000000E-03 0. -1.
        -11    1    3    3    0    0 -0.14736406546E+02 -0.27924114402E+01 -0.45689440836E+00  0.15005598699E+02  0.51100000000E-03 0.  1.
         12    1    3    3    0    0  0.11528393909E+02 -0.17145905395E+02  0.12932958031E+02  0.24375137771E+02  0.00000000000E+00 0. -1.
</event>
<event>
 7    1  0.1204848E-011  0.5930193E+02  0.7816164E-02  0.1266605E+00
        -11   -1    0    0    0    0  0.00000000000E+00  0.00000000000E+00  0.45593999997E+02  0.45594000000E+02  0.51100000000E-03 0.  1.
         11   -1    0    0    0    0 -0.00000000000E+00 -0.00000000000E+00 -0.45593999997E+02  0.45594000000E+02  0.51100000000E-03 0. -1.
    9900012    2    1    2    0    0  0.56709681827E+01  0.27219210716E+02  0.15610124703E+02  0.59301932425E+02  0.49999978840E+02 0.  0.
         12    1    1    2    0    0 -0.56709681827E+01 -0.27219210716E+02 -0.15610124703E+02  0.31886067575E+02  0.00000000000E+00 0. -1.
         11    1    3    3    0    0 -0.13748586176E+01  0.24567631113E+02  0.28344320084E+02  0.37534773424E+02  0.51100000000E-03 0.  1.
        -11    1    3    3    0    0 -0.49800142504E+01 -0.50590575964E+00 -0.52551438678E+01  0.72576180600E+01  0.51100000000E-03 0. -1.
        -12    1    3    3    0    0  0.12025841051E+02  0.31574853621E+01 -0.74790515127E+01  0.14509540941E+02  0.00000000000E+00 0.  1.
</event>
<event>
 7    1  0.1204848E-011  0.5930194E+02  0.7816164E-02  0.1266605E+00
        -11   -1    0    0    0    0  0.00000000000E+00  0.00000000000E+00  0.45593999997E+02  0.45594000000E+02  0.51100000000E-03 0. -1.
         11   -1    0    0    0    0 -0.00000000000E+00 -0.00000000000E+00 -0.45593999997E+02  0.45594000000E+02  0.51100000000E-03 0.  1.
    9900012    2    1    2    0    0 -0.22819322036E+02  0.16218753213E+02 -0.15262741966E+02  0.59301941820E+02  0.49999995973E+02 0.  0.
         12    1    1    2    0    0  0.22819322036E+02 -0.16218753213E+02  0.15262741966E+02  0.31886058180E+02  0.00000000000E+00 0. -1.
         11    1    3    3    0    0 -0.20447173205E+02 -0.96419572140E+01 -0.73614208276E+01  0.23774876401E+02  0.51100000000E-03 0. -1.
        -11    1    3    3    0    0 -0.41760260709E+01 -0.32902585371E+01 -0.22777678798E+01  0.57838760154E+01  0.51100000000E-03 0.  1.
        -12    1    3    3    0    0  0.18038772409E+01  0.29150968964E+02 -0.56235532584E+01  0.29743189404E+02  0.00000000000E+00 0.  1.
</event>
<event>
 7    1  0.1204848E-011  0.5930202E+02  0.7816164E-02  0.1266605E+00
        -11   -1    0    0    0    0  0.00000000000E+00  0.00000000000E+00  0.45593999997E+02  0.45594000000E+02  0.51100000000E-03 0.  1.
         11   -1    0    0    0    0 -0.00000000000E+00 -0.00000000000E+00 -0.45593999997E+02  0.45594000000E+02  0.51100000000E-03 0. -1.
    9900012    2    1    2    0    0  0.21288559322E+02 -0.22410886203E+02 -0.78272246243E+01  0.59302015246E+02  0.50000129885E+02 0.  0.
         12    1    1    2    0    0 -0.21288559322E+02  0.22410886203E+02  0.78272246243E+01  0.31885984754E+02  0.00000000000E+00 0. -1.
         11    1    3    3    0    0 -0.31491173295E+01 -0.75162604631E+01  0.13169636009E+02  0.15487105094E+02  0.51100000000E-03 0. -1.
        -11    1    3    3    0    0  0.17398783832E+01 -0.12332292997E+01  0.57719644304E+01  0.61533409576E+01  0.51100000000E-03 0.  1.
        -12    1    3    3    0    0  0.22697798268E+02 -0.13661396441E+02 -0.26768825064E+02  0.37661569195E+02  0.00000000000E+00 0.  1.
</event>
<event>
 7    1  0.1204848E-011  0.5930196E+02  0.7816164E-02  0.1266605E+00
        -11   -1    0    0    0    0  0.00000000000E+00  0.00000000000E+00  0.45593999997E+02  0.45594000000E+02  0.51100000000E-03 0. -1.
         11   -1    0    0    0    0 -0.00000000000E+00 -0.00000000000E+00 -0.45593999997E+02  0.45594000000E+02  0.51100000000E-03 0.  1.
    9900012    2    1    2    0    0 -0.71075430816E+01 -0.89991938941E+01 -0.29752589287E+02  0.59301964990E+02  0.50000038230E+02 0.  0.
         12    1    1    2    0    0  0.71075430816E+01  0.89991938941E+01  0.29752589287E+02  0.31886035010E+02  0.00000000000E+00 0. -1.
         11    1    3    3    0    0 -0.28143077567E+00 -0.77569197336E+01 -0.27258843947E+02  0.28342434275E+02  0.51100000000E-03 0. -1.
        -11    1    3    3    0    0 -0.14087736774E+02  0.59805073029E+01 -0.99818664998E+01  0.18272067592E+02  0.51100000000E-03 0.  1.
         12    1    3    3    0    0  0.72616244679E+01 -0.72227814634E+01  0.74881211604E+01  0.12687463123E+02  0.00000000000E+00 0. -1.
</event>
<event>
 7    1  0.1204848E-011  0.5930195E+02  0.7816164E-02  0.1266605E+00
        -11   -1    0    0    0    0  0.00000000000E+00  0.00000000000E+00  0.45593999997E+02  0.45594000000E+02  0.51100000000E-03 0.  1.
         11   -1    0    0    0    0 -0.00000000000E+00 -0.00000000000E+00 -0.45593999997E+02  0.45594000000E+02  0.51100000000E-03 0. -1.
    9900012    2    1    2    0    0 -0.67981306669E+01  0.37702626176E+01  0.30923951917E+02  0.59301948772E+02  0.50000008652E+02 0.  0.
         12    1    1    2    0    0  0.67981306669E+01 -0.37702626176E+01 -0.30923951917E+02  0.31886051228E+02  0.00000000000E+00 0. -1.
         11    1    3    3    0    0 -0.26603010055E+01  0.23168188231E+01 -0.79825153909E+01  0.87272792511E+01  0.51100000000E-03 0. -1.
        -11    1    3    3    0    0 -0.12633536975E+02  0.64860766958E+01  0.46803888952E+01  0.14952641501E+02  0.51100000000E-03 0.  1.
        -12    1    3    3    0    0  0.84957073134E+01 -0.50326329013E+01  0.34226078413E+02  0.35622028019E+02  0.00000000000E+00 0.  1.
</event>
<event>
 7    1  0.1204848E-011  0.5930221E+02  0.7816164E-02  0.1266604E+00
        -11   -1    0    0    0    0  0.00000000000E+00  0.00000000000E+00  0.45593999997E+02  0.45594000000E+02  0.51100000000E-03 0.  1.
         11   -1    0    0    0    0 -0.00000000000E+00 -0.00000000000E+00 -0.45593999997E+02  0.45594000000E+02  0.51100000000E-03 0. -1.
    9900012    2    1    2    0    0 -0.20704171227E+02 -0.23760658526E+02 -0.48447889533E+01  0.59302210378E+02  0.50000485757E+02 0.  0.
         12    1    1    2    0    0  0.20704171227E+02  0.23760658526E+02  0.48447889533E+01  0.31885789622E+02  0.00000000000E+00 0. -1.
         11    1    3    3    0    0 -0.18283918729E+02 -0.12844031852E+01  0.72134195250E+01  0.19697329695E+02  0.51100000000E-03 0. -1.
        -11    1    3    3    0    0 -0.14190079596E+02 -0.17896963927E+02 -0.14056124069E+02  0.26818543973E+02  0.51100000000E-03 0.  1.
         12    1    3    3    0    0  0.11769827097E+02 -0.45792914136E+01  0.19979155906E+01  0.12786336710E+02  0.00000000000E+00 0. -1.
</event>
<event>
 7    1  0.1204848E-011  0.5930194E+02  0.7816164E-02  0.1266605E+00
        -11   -1    0    0    0    0  0.00000000000E+00  0.00000000000E+00  0.45593999997E+02  0.45594000000E+02  0.51100000000E-03 0.  1.
         11   -1    0    0    0    0 -0.00000000000E+00 -0.00000000000E+00 -0.45593999997E+02  0.45594000000E+02  0.51100000000E-03 0. -1.
    9900012    2    1    2    0    0  0.21301108569E+02 -0.20768021805E+02  0.11474877135E+02  0.59301940958E+02  0.49999994401E+02 0.  0.
         12    1    1    2    0    0 -0.21301108569E+02  0.20768021805E+02 -0.11474877135E+02  0.31886059042E+02  0.00000000000E+00 0. -1.
         11    1    3    3    0    0  0.17724654678E+02 -0.15218118915E+02 -0.54149363924E+01  0.23980743591E+02  0.51100000000E-03 0. -1.
        -11    1    3    3    0    0  0.14495263157E+02 -0.82055258404E+01  0.17380562596E+02  0.24073372525E+02  0.51100000000E-03 0.  1.
         12    1    3    3    0    0 -0.10918809266E+02  0.26556229498E+01 -0.49074906898E+00  0.11247824842E+02  0.00000000000E+00 0. -1.
</event>
<event>
 7    1  0.1204848E-011  0.5930194E+02  0.7816164E-02  0.1266605E+00
        -11   -1    0    0    0    0  0.00000000000E+00  0.00000000000E+00  0.45593999997E+02  0.45594000000E+02  0.51100000000E-03 0. -1.
         11   -1    0    0    0    0 -0.00000000000E+00 -0.00000000000E+00 -0.45593999997E+02  0.45594000000E+02  0.51100000000E-03 0.  1.
    9900012    2    1    2    0    0 -0.20573140402E+02 -0.21241586200E+02  0.11927345123E+02  0.59301942671E+02  0.49999997526E+02 0.  0.
         12    1    1    2    0    0  0.20573140402E+02  0.21241586200E+02 -0.11927345123E+02  0.31886057329E+02  0.00000000000E+00 0. -1.
         11    1    3    3    0    0  0.17939374281E+01 -0.14778612827E+02  0.19262015665E+02  0.24344421462E+02  0.51100000000E-03 0. -1.
        -11    1    3    3    0    0 -0.43765740580E+01  0.88052983415E+01  0.11107545448E+01  0.98955270344E+01  0.51100000000E-03 0.  1.
        -12    1    3    3    0    0 -0.17990503772E+02 -0.15268271714E+02 -0.84454250867E+01  0.25061994174E+02  0.00000000000E+00 0.  1.
</event>
<event>
 7    1  0.1204848E-011  0.5930195E+02  0.7816164E-02  0.1266605E+00
        -11   -1    0    0    0    0  0.00000000000E+00  0.00000000000E+00  0.45593999997E+02  0.45594000000E+02  0.51100000000E-03 0. -1.
         11   -1    0    0    0    0 -0.00000000000E+00 -0.00000000000E+00 -0.45593999997E+02  0.45594000000E+02  0.51100000000E-03 0.  1.
    9900012    2    1    2    0    0  0.28286642010E+02 -0.24997832445E+01 -0.14503010925E+02  0.59301947275E+02  0.50000005922E+02 0.  0.
         12    1    1    2    0    0 -0.28286642010E+02  0.24997832445E+01  0.14503010925E+02  0.31886052725E+02  0.00000000000E+00 0. -1.
         11    1    3    3    0    0 -0.16725904361E+01 -0.60221100402E+01 -0.72290609807E+01  0.95562906520E+01  0.51100000000E-03 0. -1.
        -11    1    3    3    0    0  0.21335624153E+02  0.40595208230E+01 -0.23105076669E+02  0.31710142469E+02  0.51100000000E-03 0.  1.
         12    1    3    3    0    0  0.86236082939E+01 -0.53719402730E+00  0.15831126725E+02  0.18035514154E+02  0.00000000000E+00 0. -1.
</event>
<event>
 7    1  0.1204848E-011  0.5930197E+02  0.7816164E-02  0.1266605E+00
        -11   -1    0    0    0    0  0.00000000000E+00  0.00000000000E+00  0.45593999997E+02  0.45594000000E+02  0.51100000000E-03 0.  1.
         11   -1    0    0    0    0 -0.00000000000E+00 -0.00000000000E+00 -0.45593999997E+02  0.45594000000E+02  0.51100000000E-03 0. -1.
    9900012    2    1    2    0    0  0.11044257254E+02  0.29850976007E+02 -0.19138356864E+01  0.59301966163E+02  0.50000040369E+02 0.  0.
         12    1    1    2    0    0 -0.11044257254E+02 -0.29850976007E+02  0.19138356864E+01  0.31886033837E+02  0.00000000000E+00 0. -1.
         11    1    3    3    0    0  0.70586144955E+01  0.72901187412E+01 -0.17773500276E+02  0.20466244946E+02  0.51100000000E-03 0. -1.
        -11    1    3    3    0    0  0.72281955716E+01 -0.36548878456E+01  0.77329567952E+01  0.11198376554E+02  0.51100000000E-03 0.  1.
        -12    1    3    3    0    0 -0.32425528135E+01  0.26215745111E+02  0.81267077943E+01  0.27637344663E+02  0.00000000000E+00 0.  1.
</event>
<event>
 7    1  0.1204848E-011  0.5930192E+02  0.7816164E-02  0.1266605E+00
        -11   -1    0    0    0    0  0.00000000000E+00  0.00000000000E+00  0.45593999997E+02  0.45594000000E+02  0.51100000000E-03 0. -1.
         11   -1    0    0    0    0 -0.00000000000E+00 -0.00000000000E+00 -0.45593999997E+02  0.45594000000E+02  0.51100000000E-03 0.  1.
    9900012    2    1    2    0    0  0.13347627432E+02  0.11270597831E+02 -0.26674637121E+02  0.59301924684E+02  0.49999964722E+02 0.  0.
         12    1    1    2    0    0 -0.13347627432E+02 -0.11270597831E+02  0.26674637121E+02  0.31886075316E+02  0.00000000000E+00 0. -1.
         11    1    3    3    0    0  0.23868926901E+02  0.58341862004E+01 -0.27098650690E+02  0.36580052891E+02  0.51100000000E-03 0.  1.
        -11    1    3    3    0    0  0.19277303716E+01 -0.41251262214E+01  0.46064522456E+01  0.64770528236E+01  0.51100000000E-03 0. -1.
        -12    1    3    3    0    0 -0.12449029841E+02  0.95615378522E+01 -0.41824386757E+01  0.16244818969E+02  0.00000000000E+00 0.  1.
</event>
<event>
 7    1  0.1204848E-011  0.5930194E+02  0.7816164E-02  0.1266605E+00
        -11   -1    0    0    0    0  0.00000000000E+00  0.00000000000E+00  0.45593999997E+02  0.45594000000E+02  0.51100000000E-03 0. -1.
         11   -1    0    0    0    0 -0.00000000000E+00 -0.00000000000E+00 -0.45593999997E+02  0.45594000000E+02  0.51100000000E-03 0.  1.
    9900012    2    1    2    0    0 -0.17609744346E+02  0.72493439224E+01 -0.25574694083E+02  0.59301936263E+02  0.49999985838E+02 0.  0.
         12    1    1    2    0    0  0.17609744346E+02 -0.72493439224E+01  0.25574694083E+02  0.31886063737E+02  0.00000000000E+00 0. -1.
         11    1    3    3    0    0 -0.16837841226E+02 -0.12618426385E+01  0.28535045942E+01  0.17124474670E+02  0.51100000000E-03 0.  1.
        -11    1    3    3    0    0  0.27020640548E+00 -0.10762180067E+02 -0.15774365884E+02  0.19097857225E+02  0.51100000000E-03 0. -1.
         12    1    3    3    0    0 -0.10421095255E+01  0.19273366627E+02 -0.12653832794E+02  0.23079604368E+02  0.00000000000E+00 0. -1.
</event>
<event>
 7    1  0.1204848E-011  0.5930192E+02  0.7816164E-02  0.1266605E+00
        -11   -1    0    0    0    0  0.00000000000E+00  0.00000000000E+00  0.45593999997E+02  0.45594000000E+02  0.51100000000E-03 0. -1.
         11   -1    0    0    0    0 -0.00000000000E+00 -0.00000000000E+00 -0.45593999997E+02  0.45594000000E+02  0.51100000000E-03 0.  1.
    9900012    2    1    2    0    0  0.60566258668E+01  0.19147705537E+02 -0.24767012720E+02  0.59301917405E+02  0.49999951446E+02 0.  0.
         12    1    1    2    0    0 -0.60566258668E+01 -0.19147705537E+02  0.24767012720E+02  0.31886082595E+02  0.00000000000E+00 0. -1.
         11    1    3    3    0    0 -0.12655147114E+02 -0.15424131740E+01 -0.14917989073E+02  0.19623409110E+02  0.51100000000E-03 0. -1.
        -11    1    3    3    0    0 -0.42195777352E+01 -0.13252831933E+01 -0.62926121031E+01  0.76914354413E+01  0.51100000000E-03 0.  1.
         12    1    3    3    0    0  0.22931350716E+02  0.22015401904E+02 -0.35564115437E+01  0.31987072853E+02  0.00000000000E+00 0. -1.
</event>
<event>
 7    1  0.1204848E-011  0.5930200E+02  0.7816164E-02  0.1266605E+00
        -11   -1    0    0    0    0  0.00000000000E+00  0.00000000000E+00  0.45593999997E+02  0.45594000000E+02  0.51100000000E-03 0. -1.
         11   -1    0    0    0    0 -0.00000000000E+00 -0.00000000000E+00 -0.45593999997E+02  0.45594000000E+02  0.51100000000E-03 0.  1.
    9900012    2    1    2    0    0 -0.25831835983E+02  0.72518664308E+01 -0.17229151051E+02  0.59302000519E+02  0.50000103027E+02 0.  0.
         12    1    1    2    0    0  0.25831835983E+02 -0.72518664308E+01  0.17229151051E+02  0.31885999481E+02  0.00000000000E+00 0. -1.
         11    1    3    3    0    0 -0.91205693518E+01 -0.42983977906E+01  0.12638482418E+02  0.16167629603E+02  0.51100000000E-03 0. -1.
        -11    1    3    3    0    0 -0.93726759645E+01 -0.64406805180E+01 -0.81349201448E+01  0.13982358395E+02  0.51100000000E-03 0.  1.
        -12    1    3    3    0    0 -0.73385906664E+01  0.17990944739E+02 -0.21732713324E+02  0.29152012521E+02  0.00000000000E+00 0.  1.
</event>
<event>
 7    1  0.1204848E-011  0.5930194E+02  0.7816164E-02  0.1266605E+00
        -11   -1    0    0    0    0  0.00000000000E+00  0.00000000000E+00  0.45593999997E+02  0.45594000000E+02  0.51100000000E-03 0. -1.
         11   -1    0    0    0    0 -0.00000000000E+00 -0.00000000000E+00 -0.45593999997E+02  0.45594000000E+02  0.51100000000E-03 0.  1.
    9900012    2    1    2    0    0 -0.14175994103E+02  0.12704323026E+02 -0.25580504453E+02  0.59301939716E+02  0.49999992136E+02 0.  0.
         12    1    1    2    0    0  0.14175994103E+02 -0.12704323026E+02  0.25580504453E+02  0.31886060284E+02  0.00000000000E+00 0. -1.
         11    1    3    3    0    0  0.75180032931E+01  0.15105086895E+01 -0.31216458234E+00  0.76745981656E+01  0.51100000000E-03 0. -1.
        -11    1    3    3    0    0 -0.10742998331E+02  0.23650087892E+02 -0.23355772548E+02  0.34931801871E+02  0.51100000000E-03 0.  1.
         12    1    3    3    0    0 -0.10950999065E+02 -0.12456273555E+02 -0.19125673234E+01  0.16695539679E+02  0.00000000000E+00 0. -1.
</event>
<event>
 7    1  0.1204848E-011  0.5930195E+02  0.7816164E-02  0.1266605E+00
        -11   -1    0    0    0    0  0.00000000000E+00  0.00000000000E+00  0.45593999997E+02  0.45594000000E+02  0.51100000000E-03 0. -1.
         11   -1    0    0    0    0 -0.00000000000E+00 -0.00000000000E+00 -0.45593999997E+02  0.45594000000E+02  0.51100000000E-03 0.  1.
    9900012    2    1    2    0    0  0.46679828673E+01  0.30721032471E+02 -0.71517933594E+01  0.59301952136E+02  0.50000014788E+02 0.  0.
         12    1    1    2    0    0 -0.46679828673E+01 -0.30721032471E+02  0.71517933594E+01  0.31886047864E+02  0.00000000000E+00 0. -1.
         11    1    3    3    0    0  0.10616646516E+02  0.65187577281E+01 -0.11486580897E+02  0.16945469203E+02  0.51100000000E-03 0. -1.
        -11    1    3    3    0    0  0.13478599144E+02  0.16224481196E+02  0.30919659044E+01  0.21318224090E+02  0.51100000000E-03 0.  1.
         12    1    3    3    0    0 -0.19427262793E+02  0.79777935473E+01  0.12428216328E+01  0.21038258842E+02  0.00000000000E+00 0. -1.
</event>
<event>
 7    1  0.1204848E-011  0.5930192E+02  0.7816164E-02  0.1266605E+00
        -11   -1    0    0    0    0  0.00000000000E+00  0.00000000000E+00  0.45593999997E+02  0.45594000000E+02  0.51100000000E-03 0.  1.
         11   -1    0    0    0    0 -0.00000000000E+00 -0.00000000000E+00 -0.45593999997E+02  0.45594000000E+02  0.51100000000E-03 0. -1.
    9900012    2    1    2    0    0  0.12293992136E+02 -0.68374352178E+00  0.29412791817E+02  0.59301920431E+02  0.49999956964E+02 0.  0.
         12    1    1    2    0    0 -0.12293992136E+02  0.68374352178E+00 -0.29412791817E+02  0.31886079569E+02  0.00000000000E+00 0. -1.
         11    1    3    3    0    0  0.37800974435E+01 -0.12892792845E+02  0.62975757361E+01  0.14838217697E+02  0.51100000000E-03 0. -1.
        -11    1    3    3    0    0  0.95505429449E-01 -0.12022168588E+02  0.10083605644E+02  0.15691423195E+02  0.51100000000E-03 0.  1.
        -12    1    3    3    0    0  0.84183892629E+01  0.24231217911E+02  0.13031610437E+02  0.28772279538E+02  0.00000000000E+00 0.  1.
</event>
<event>
 7    1  0.1204848E-011  0.5930194E+02  0.7816164E-02  0.1266605E+00
        -11   -1    0    0    0    0  0.00000000000E+00  0.00000000000E+00  0.45593999997E+02  0.45594000000E+02  0.51100000000E-03 0.  1.
         11   -1    0    0    0    0 -0.00000000000E+00 -0.00000000000E+00 -0.45593999997E+02  0.45594000000E+02  0.51100000000E-03 0. -1.
    9900012    2    1    2    0    0  0.18324192649E+02 -0.53601722945E+01  0.25538470045E+02  0.59301938225E+02  0.49999989417E+02 0.  0.
         12    1    1    2    0    0 -0.18324192649E+02  0.53601722945E+01 -0.25538470045E+02  0.31886061775E+02  0.00000000000E+00 0. -1.
         11    1    3    3    0    0 -0.58173859456E+00  0.16108288867E+02  0.13787746835E+02  0.21211255339E+02  0.51100000000E-03 0. -1.
        -11    1    3    3    0    0 -0.41694555555E+01 -0.91628922732E+01  0.37501528800E+01  0.10742746452E+02  0.51100000000E-03 0.  1.
        -12    1    3    3    0    0  0.23075386799E+02 -0.12305568888E+02  0.80005703306E+01  0.27347936434E+02  0.00000000000E+00 0.  1.
</event>
<event>
 7    1  0.1204848E-011  0.5930197E+02  0.7816164E-02  0.1266605E+00
        -11   -1    0    0    0    0  0.00000000000E+00  0.00000000000E+00  0.45593999997E+02  0.45594000000E+02  0.51100000000E-03 0.  1.
         11   -1    0    0    0    0 -0.00000000000E+00 -0.00000000000E+00 -0.45593999997E+02  0.45594000000E+02  0.51100000000E-03 0. -1.
    9900012    2    1    2    0    0 -0.44096837722E+01  0.31064207671E+02 -0.56823209442E+01  0.59301967313E+02  0.50000042467E+02 0.  0.
         12    1    1    2    0    0  0.44096837722E+01 -0.31064207671E+02  0.56823209442E+01  0.31886032687E+02  0.00000000000E+00 0. -1.
         11    1    3    3    0    0 -0.21593173384E+02  0.16371621607E+02 -0.18047148461E+01  0.27157910943E+02  0.51100000000E-03 0. -1.
        -11    1    3    3    0    0  0.41364797007E+01  0.17128347657E+02  0.17915052105E+01  0.17711585162E+02  0.51100000000E-03 0.  1.
         12    1    3    3    0    0  0.13047009911E+02 -0.24357615928E+01 -0.56691113087E+01  0.14432471209E+02  0.00000000000E+00 0. -1.
</event>
<event>
 7    1  0.1204848E-011  0.5930184E+02  0.7816164E-02  0.1266605E+00
        -11   -1    0    0    0    0  0.00000000000E+00  0.00000000000E+00  0.45593999997E+02  0.45594000000E+02  0.51100000000E-03 0.  1.
         11   -1    0    0    0    0 -0.00000000000E+00 -0.00000000000E+00 -0.45593999997E+02  0.45594000000E+02  0.51100000000E-03 0. -1.
    9900012    2    1    2    0    0  0.28390622756E+02 -0.14190747303E+02  0.30532973287E+01  0.59301836949E+02  0.49999804714E+02 0.  0.
         12    1    1    2    0    0 -0.28390622756E+02  0.14190747303E+02 -0.30532973287E+01  0.31886163051E+02  0.00000000000E+00 0. -1.
         11    1    3    3    0    0  0.11524928030E+02  0.39270405830E+00  0.10468257147E+02  0.15574421033E+02  0.51100000000E-03 0. -1.
        -11    1    3    3    0    0  0.19826384520E+02 -0.10987397924E+02  0.10669373585E+02  0.25052823578E+02  0.51100000000E-03 0.  1.
         12    1    3    3    0    0 -0.29606897932E+01 -0.35960534380E+01 -0.18084333403E+02  0.18674592338E+02  0.00000000000E+00 0. -1.
</event>
<event>
 7    1  0.1204848E-011  0.5930196E+02  0.7816164E-02  0.1266605E+00
        -11   -1    0    0    0    0  0.00000000000E+00  0.00000000000E+00  0.45593999997E+02  0.45594000000E+02  0.51100000000E-03 0. -1.
         11   -1    0    0    0    0 -0.00000000000E+00 -0.00000000000E+00 -0.45593999997E+02  0.45594000000E+02  0.51100000000E-03 0.  1.
    9900012    2    1    2    0    0  0.54441273069E+01 -0.28089291011E+02 -0.14073840994E+02  0.59301956157E+02  0.50000022121E+02 0.  0.
         12    1    1    2    0    0 -0.54441273069E+01  0.28089291011E+02  0.14073840994E+02  0.31886043843E+02  0.00000000000E+00 0. -1.
         11    1    3    3    0    0  0.44786974698E+01 -0.11375835533E+02  0.70701985161E+01  0.14122891787E+02  0.51100000000E-03 0. -1.
        -11    1    3    3    0    0 -0.16722037623E+02 -0.11212929774E+02 -0.53385981381E+01  0.20829233465E+02  0.51100000000E-03 0.  1.
         12    1    3    3    0    0  0.17687467460E+02 -0.55005257040E+01 -0.15805441372E+02  0.24349830906E+02  0.00000000000E+00 0. -1.
</event>
<event>
 7    1  0.1204848E-011  0.5930195E+02  0.7816164E-02  0.1266605E+00
        -11   -1    0    0    0    0  0.00000000000E+00  0.00000000000E+00  0.45593999997E+02  0.45594000000E+02  0.51100000000E-03 0. -1.
         11   -1    0    0    0    0 -0.00000000000E+00 -0.00000000000E+00 -0.45593999997E+02  0.45594000000E+02  0.51100000000E-03 0.  1.
    9900012    2    1    2    0    0  0.20370277339E+01 -0.25676304494E+02 -0.18796222802E+02  0.59301951545E+02  0.50000013709E+02 0.  0.
         12    1    1    2    0    0 -0.20370277339E+01  0.25676304494E+02  0.18796222802E+02  0.31886048455E+02  0.00000000000E+00 0. -1.
         11    1    3    3    0    0  0.49293672814E+01 -0.50191043085E+01  0.87144763877E+01  0.11199650389E+02  0.51100000000E-03 0. -1.
        -11    1    3    3    0    0  0.22512793351E+01 -0.23778999471E+02 -0.44841215935E+01  0.24302601121E+02  0.51100000000E-03 0.  1.
        -12    1    3    3    0    0 -0.51436188827E+01  0.31217992854E+01 -0.23026577596E+02  0.23799700035E+02  0.00000000000E+00 0.  1.
</event>
<event>
 7    1  0.1204848E-011  0.5930193E+02  0.7816164E-02  0.1266605E+00
        -11   -1    0    0    0    0  0.00000000000E+00  0.00000000000E+00  0.45593999997E+02  0.45594000000E+02  0.51100000000E-03 0. -1.
         11   -1    0    0    0    0 -0.00000000000E+00 -0.00000000000E+00 -0.45593999997E+02  0.45594000000E+02  0.51100000000E-03 0.  1.
    9900012    2    1    2    0    0  0.24997154895E+02  0.19261336209E+02  0.45677809061E+01  0.59301930192E+02  0.49999974767E+02 0.  0.
         12    1    1    2    0    0 -0.24997154895E+02 -0.19261336209E+02 -0.45677809061E+01  0.31886069808E+02  0.00000000000E+00 0. -1.
         11    1    3    3    0    0  0.27672997322E+01  0.92897523505E+01  0.12247286009E+02  0.15619009616E+02  0.51100000000E-03 0. -1.
        -11    1    3    3    0    0 -0.20843926041E+01  0.12543491426E+02 -0.13504491912E+02  0.18548724262E+02  0.51100000000E-03 0.  1.
         12    1    3    3    0    0  0.24314247767E+02 -0.25719075674E+01  0.58249868096E+01  0.25134196314E+02  0.00000000000E+00 0. -1.
</event>
<event>
 7    1  0.1204848E-011  0.5930191E+02  0.7816164E-02  0.1266605E+00
        -11   -1    0    0    0    0  0.00000000000E+00  0.00000000000E+00  0.45593999997E+02  0.45594000000E+02  0.51100000000E-03 0.  1.
         11   -1    0    0    0    0 -0.00000000000E+00 -0.00000000000E+00 -0.45593999997E+02  0.45594000000E+02  0.51100000000E-03 0. -1.
    9900012    2    1    2    0    0  0.13111699271E+02 -0.20285850498E+02  0.20815622953E+02  0.59301912954E+02  0.49999943328E+02 0.  0.
         12    1    1    2    0    0 -0.13111699271E+02  0.20285850498E+02 -0.20815622953E+02  0.31886087046E+02  0.00000000000E+00 0. -1.
         11    1    3    3    0    0  0.12716511654E+02 -0.24847604405E+01  0.66880811157E+01  0.14581293919E+02  0.51100000000E-03 0. -1.
        -11    1    3    3    0    0  0.35559211415E+01  0.11897441558E+02  0.58627388219E+01  0.13731911649E+02  0.51100000000E-03 0.  1.
        -12    1    3    3    0    0 -0.31607335241E+01 -0.29698531616E+02  0.82648030149E+01  0.30988707385E+02  0.00000000000E+00 0.  1.
</event>
<event>
 7    1  0.1204848E-011  0.5930195E+02  0.7816164E-02  0.1266605E+00
        -11   -1    0    0    0    0  0.00000000000E+00  0.00000000000E+00  0.45593999997E+02  0.45594000000E+02  0.51100000000E-03 0.  1.
         11   -1    0    0    0    0 -0.00000000000E+00 -0.00000000000E+00 -0.45593999997E+02  0.45594000000E+02  0.51100000000E-03 0. -1.
    9900012    2    1    2    0    0  0.21570732080E+02 -0.31378169076E+01  0.23271823181E+02  0.59301950831E+02  0.50000012408E+02 0.  0.
         12    1    1    2    0    0 -0.21570732080E+02  0.31378169076E+01 -0.23271823181E+02  0.31886049169E+02  0.00000000000E+00 0. -1.
         11    1    3    3    0    0  0.64884449453E+00 -0.11519333735E+02 -0.63806776302E+01  0.13184426273E+02  0.51100000000E-03 0. -1.
        -11    1    3    3    0    0  0.21092605054E+02  0.13365054278E+02  0.11868168574E+02  0.27647352303E+02  0.51100000000E-03 0.  1.
        -12    1    3    3    0    0 -0.17071746883E+00 -0.49835374507E+01  0.17784332238E+02  0.18470172255E+02  0.00000000000E+00 0.  1.
</event>
<event>
 7    1  0.1204848E-011  0.5930192E+02  0.7816164E-02  0.1266605E+00
        -11   -1    0    0    0    0  0.00000000000E+00  0.00000000000E+00  0.45593999997E+02  0.45594000000E+02  0.51100000000E-03 0.  1.
         11   -1    0    0    0    0 -0.00000000000E+00 -0.00000000000E+00 -0.45593999997E+02  0.45594000000E+02  0.51100000000E-03 0. -1.
    9900012    2    1    2    0    0 -0.13768501003E+02  0.13742941638E+02  0.25264240257E+02  0.59301923094E+02  0.49999961821E+02 0.  0.
         12    1    1    2    0    0  0.13768501003E+02 -0.13742941638E+02 -0.25264240257E+02  0.31886076906E+02  0.00000000000E+00 0. -1.
         11    1    3    3    0    0  0.25456775971E+01  0.46142463746E+01  0.32487498502E+01  0.61908093077E+01  0.51100000000E-03 0. -1.
        -11    1    3    3    0    0  0.72039949867E+01  0.20302763642E+02  0.14647754116E+02  0.26051035607E+02  0.51100000000E-03 0.  1.
         12    1    3    3    0    0 -0.23518173587E+02 -0.11174068379E+02  0.73677362904E+01  0.27060078179E+02  0.00000000000E+00 0. -1.
</event>
<event>
 7    1  0.1204848E-011  0.5930200E+02  0.7816164E-02  0.1266605E+00
        -11   -1    0    0    0    0  0.00000000000E+00  0.00000000000E+00  0.45593999997E+02  0.45594000000E+02  0.51100000000E-03 0.  1.
         11   -1    0    0    0    0 -0.00000000000E+00 -0.00000000000E+00 -0.45593999997E+02  0.45594000000E+02  0.51100000000E-03 0. -1.
    9900012    2    1    2    0    0 -0.18480840886E+02 -0.15494060562E+02  0.20859280107E+02  0.59302000578E+02  0.50000103134E+02 0.  0.
         12    1    1    2    0    0  0.18480840886E+02  0.15494060562E+02 -0.20859280107E+02  0.31885999422E+02  0.00000000000E+00 0. -1.
         11    1    3    3    0    0 -0.12935078589E+02 -0.42899103215E+01  0.10689698428E+02  0.17320197500E+02  0.51100000000E-03 0. -1.
        -11    1    3    3    0    0 -0.14884451451E+02 -0.21563209503E+02  0.32182584639E+01  0.26398410688E+02  0.51100000000E-03 0.  1.
         12    1    3    3    0    0  0.93386891546E+01  0.10359059263E+02  0.69513232155E+01  0.15583392390E+02  0.00000000000E+00 0. -1.
</event>
<event>
 7    1  0.1204848E-011  0.5930194E+02  0.7816164E-02  0.1266605E+00
        -11   -1    0    0    0    0  0.00000000000E+00  0.00000000000E+00  0.45593999997E+02  0.45594000000E+02  0.51100000000E-03 0.  1.
         11   -1    0    0    0    0 -0.00000000000E+00 -0.00000000000E+00 -0.45593999997E+02  0.45594000000E+02  0.51100000000E-03 0. -1.
    9900012    2    1    2    0    0  0.88407183286E+01  0.24473655583E+02  0.18428310395E+02  0.59301941257E+02  0.49999994947E+02 0.  0.
         12    1    1    2    0    0 -0.88407183286E+01 -0.24473655583E+02 -0.18428310395E+02  0.31886058743E+02  0.00000000000E+00 0. -1.
         11    1    3    3    0    0 -0.15161672714E+01  0.62562602153E+01  0.42376620852E+01  0.77069666722E+01  0.51100000000E-03 0.  1.
        -11    1    3    3    0    0  0.13600771586E+02  0.21730228720E+02  0.27414529359E+02  0.37533188622E+02  0.51100000000E-03 0. -1.
        -12    1    3    3    0    0 -0.32438859861E+01 -0.35128333518E+01 -0.13223881049E+02  0.14061785962E+02  0.00000000000E+00 0.  1.
</event>
<event>
 7    1  0.1204848E-011  0.5930198E+02  0.7816164E-02  0.1266605E+00
        -11   -1    0    0    0    0  0.00000000000E+00  0.00000000000E+00  0.45593999997E+02  0.45594000000E+02  0.51100000000E-03 0.  1.
         11   -1    0    0    0    0 -0.00000000000E+00 -0.00000000000E+00 -0.45593999997E+02  0.45594000000E+02  0.51100000000E-03 0. -1.
    9900012    2    1    2    0    0 -0.16141097423E+02 -0.18935362941E+01  0.27433520717E+02  0.59301975402E+02  0.50000057219E+02 0.  0.
         12    1    1    2    0    0  0.16141097423E+02  0.18935362941E+01 -0.27433520717E+02  0.31886024598E+02  0.00000000000E+00 0. -1.
         11    1    3    3    0    0 -0.55743792804E+01  0.17598460864E+02  0.84444900098E+01  0.20299973915E+02  0.51100000000E-03 0. -1.
        -11    1    3    3    0    0  0.39072818857E+01  0.21411990074E+01  0.10852052004E+02  0.11731096192E+02  0.51100000000E-03 0.  1.
         12    1    3    3    0    0 -0.14474000029E+02 -0.21633196166E+02  0.81369787034E+01  0.27270905295E+02  0.00000000000E+00 0. -1.
</event>
<event>
 7    1  0.1204848E-011  0.5930190E+02  0.7816164E-02  0.1266605E+00
        -11   -1    0    0    0    0  0.00000000000E+00  0.00000000000E+00  0.45593999997E+02  0.45594000000E+02  0.51100000000E-03 0.  1.
         11   -1    0    0    0    0 -0.00000000000E+00 -0.00000000000E+00 -0.45593999997E+02  0.45594000000E+02  0.51100000000E-03 0. -1.
    9900012    2    1    2    0    0  0.13628622497E+02 -0.12052036025E+02  0.26186491398E+02  0.59301901850E+02  0.49999923077E+02 0.  0.
         12    1    1    2    0    0 -0.13628622497E+02  0.12052036025E+02 -0.26186491398E+02  0.31886098150E+02  0.00000000000E+00 0. -1.
         11    1    3    3    0    0 -0.23660734582E+01  0.10314340337E+02 -0.74080609557E+00  0.10608143765E+02  0.51100000000E-03 0. -1.
        -11    1    3    3    0    0  0.34258413370E+01  0.66872552710E+01  0.10827226719E+02  0.13178945732E+02  0.51100000000E-03 0.  1.
        -12    1    3    3    0    0  0.12568854618E+02 -0.29053631633E+02  0.16100070775E+02  0.35514812353E+02  0.00000000000E+00 0.  1.
</event>
<event>
 7    1  0.1204848E-011  0.5930195E+02  0.7816164E-02  0.1266605E+00
        -11   -1    0    0    0    0  0.00000000000E+00  0.00000000000E+00  0.45593999997E+02  0.45594000000E+02  0.51100000000E-03 0.  1.
         11   -1    0    0    0    0 -0.00000000000E+00 -0.00000000000E+00 -0.45593999997E+02  0.45594000000E+02  0.51100000000E-03 0. -1.
    9900012    2    1    2    0    0 -0.27184619209E+02  0.10965384834E+02 -0.12548981447E+02  0.59301950990E+02  0.50000012698E+02 0.  0.
         12    1    1    2    0    0  0.27184619209E+02 -0.10965384834E+02  0.12548981447E+02  0.31886049010E+02  0.00000000000E+00 0. -1.
         11    1    3    3    0    0 -0.20512749599E+02 -0.17838541738E+01 -0.41932889795E+01  0.21012822385E+02  0.51100000000E-03 0. -1.
        -11    1    3    3    0    0 -0.12232871308E+02 -0.14982157271E+00  0.95580238475E+01  0.15524864156E+02  0.51100000000E-03 0.  1.
         12    1    3    3    0    0  0.55610016977E+01  0.12899060580E+02 -0.17913716315E+02  0.22764264450E+02  0.00000000000E+00 0. -1.
</event>
<event>
 7    1  0.1204848E-011  0.5930193E+02  0.7816164E-02  0.1266605E+00
        -11   -1    0    0    0    0  0.00000000000E+00  0.00000000000E+00  0.45593999997E+02  0.45594000000E+02  0.51100000000E-03 0.  1.
         11   -1    0    0    0    0 -0.00000000000E+00 -0.00000000000E+00 -0.45593999997E+02  0.45594000000E+02  0.51100000000E-03 0. -1.
    9900012    2    1    2    0    0 -0.14719770937E+02 -0.21342626971E+02 -0.18561843478E+02  0.59301930694E+02  0.49999975683E+02 0.  0.
         12    1    1    2    0    0  0.14719770937E+02  0.21342626971E+02  0.18561843478E+02  0.31886069306E+02  0.00000000000E+00 0. -1.
         11    1    3    3    0    0 -0.28946390279E+02 -0.78476648273E+01 -0.16855117692E+02  0.34403115355E+02  0.51100000000E-03 0. -1.
        -11    1    3    3    0    0 -0.29675424745E+01 -0.12257315497E+01  0.14827447544E+01  0.35365602551E+01  0.51100000000E-03 0.  1.
         12    1    3    3    0    0  0.17194161817E+02 -0.12269230594E+02 -0.31894705402E+01  0.21362255084E+02  0.00000000000E+00 0. -1.
</event>
<event>
 7    1  0.1204848E-011  0.5930196E+02  0.7816164E-02  0.1266605E+00
        -11   -1    0    0    0    0  0.00000000000E+00  0.00000000000E+00  0.45593999997E+02  0.45594000000E+02  0.51100000000E-03 0.  1.
         11   -1    0    0    0    0 -0.00000000000E+00 -0.00000000000E+00 -0.45593999997E+02  0.45594000000E+02  0.51100000000E-03 0. -1.
    9900012    2    1    2    0    0  0.29723673184E+02  0.10590916667E+02  0.45885736834E+01  0.59301964313E+02  0.50000036995E+02 0.  0.
         12    1    1    2    0    0 -0.29723673184E+02 -0.10590916667E+02 -0.45885736834E+01  0.31886035687E+02  0.00000000000E+00 0. -1.
         11    1    3    3    0    0 -0.10868442721E+02 -0.89204005450E+00  0.35169194185E+01  0.11458075977E+02  0.51100000000E-03 0. -1.
        -11    1    3    3    0    0 -0.12904061806E+01  0.53489792879E+01  0.15962382779E+00  0.55047440959E+01  0.51100000000E-03 0.  1.
        -12    1    3    3    0    0  0.41882522086E+02  0.61339774339E+01  0.91203043705E+00  0.42339144240E+02  0.00000000000E+00 0.  1.
</event>
<event>
 7    1  0.1204848E-011  0.5930191E+02  0.7816164E-02  0.1266605E+00
        -11   -1    0    0    0    0  0.00000000000E+00  0.00000000000E+00  0.45593999997E+02  0.45594000000E+02  0.51100000000E-03 0.  1.
         11   -1    0    0    0    0 -0.00000000000E+00 -0.00000000000E+00 -0.45593999997E+02  0.45594000000E+02  0.51100000000E-03 0. -1.
    9900012    2    1    2    0    0  0.29203092110E+02  0.87442383257E+01  0.93509671458E+01  0.59301907745E+02  0.49999933830E+02 0.  0.
         12    1    1    2    0    0 -0.29203092110E+02 -0.87442383257E+01 -0.93509671458E+01  0.31886092255E+02  0.00000000000E+00 0. -1.
         11    1    3    3    0    0  0.20294343530E+02 -0.81655304081E+01  0.23041728396E+02  0.31771961128E+02  0.51100000000E-03 0. -1.
        -11    1    3    3    0    0  0.37548652552E-01 -0.90685132244E+00  0.19930698833E+01  0.21900038911E+01  0.51100000000E-03 0.  1.
        -12    1    3    3    0    0  0.88711999275E+01  0.17816620056E+02 -0.15683831133E+02  0.25339942727E+02  0.00000000000E+00 0.  1.
</event>
<event>
 7    1  0.1204848E-011  0.5930193E+02  0.7816164E-02  0.1266605E+00
        -11   -1    0    0    0    0  0.00000000000E+00  0.00000000000E+00  0.45593999997E+02  0.45594000000E+02  0.51100000000E-03 0. -1.
         11   -1    0    0    0    0 -0.00000000000E+00 -0.00000000000E+00 -0.45593999997E+02  0.45594000000E+02  0.51100000000E-03 0.  1.
    9900012    2    1    2    0    0  0.30892041018E+02  0.32797797831E+01 -0.71865292896E+01  0.59301931617E+02  0.49999977366E+02 0.  0.
         12    1    1    2    0    0 -0.30892041018E+02 -0.32797797831E+01  0.71865292896E+01  0.31886068383E+02  0.00000000000E+00 0. -1.
         11    1    3    3    0    0 -0.80188975285E+01 -0.85520889792E+01  0.48632206796E+01  0.12692196781E+02  0.51100000000E-03 0. -1.
        -11    1    3    3    0    0  0.74001052786E+01 -0.53395844122E+01 -0.29129184194E+01  0.95790298992E+01  0.51100000000E-03 0.  1.
         12    1    3    3    0    0  0.31510833268E+02  0.17171453174E+02 -0.91368315497E+01  0.37030704937E+02  0.00000000000E+00 0. -1.
</event>
<event>
 7    1  0.1204848E-011  0.5930196E+02  0.7816164E-02  0.1266605E+00
        -11   -1    0    0    0    0  0.00000000000E+00  0.00000000000E+00  0.45593999997E+02  0.45594000000E+02  0.51100000000E-03 0. -1.
         11   -1    0    0    0    0 -0.00000000000E+00 -0.00000000000E+00 -0.45593999997E+02  0.45594000000E+02  0.51100000000E-03 0.  1.
    9900012    2    1    2    0    0  0.67913251471E+01  0.13697944175E+02 -0.27981488537E+02  0.59301961165E+02  0.50000031254E+02 0.  0.
         12    1    1    2    0    0 -0.67913251471E+01 -0.13697944175E+02  0.27981488537E+02  0.31886038835E+02  0.00000000000E+00 0. -1.
         11    1    3    3    0    0 -0.76034946877E+01  0.37594197568E+01  0.98161591477E+01  0.12973178063E+02  0.51100000000E-03 0. -1.
        -11    1    3    3    0    0  0.50346772613E+01  0.40448134418E+01  0.48867583530E+00  0.64766731613E+01  0.51100000000E-03 0.  1.
        -12    1    3    3    0    0  0.93601425734E+01  0.58937109768E+01 -0.38286323520E+02  0.39852109941E+02  0.00000000000E+00 0.  1.
</event>
<event>
 7    1  0.1204848E-011  0.5930195E+02  0.7816164E-02  0.1266605E+00
        -11   -1    0    0    0    0  0.00000000000E+00  0.00000000000E+00  0.45593999997E+02  0.45594000000E+02  0.51100000000E-03 0. -1.
         11   -1    0    0    0    0 -0.00000000000E+00 -0.00000000000E+00 -0.45593999997E+02  0.45594000000E+02  0.51100000000E-03 0.  1.
    9900012    2    1    2    0    0  0.24570941314E+01  0.18383876412E+02 -0.25936766418E+02  0.59301951707E+02  0.50000014005E+02 0.  0.
         12    1    1    2    0    0 -0.24570941314E+01 -0.18383876412E+02  0.25936766418E+02  0.31886048293E+02  0.00000000000E+00 0. -1.
         11    1    3    3    0    0 -0.11470405855E+02  0.19130786695E+01  0.72553630020E+00  0.11651458435E+02  0.51100000000E-03 0. -1.
        -11    1    3    3    0    0  0.10925686518E+01 -0.10007542473E+02 -0.69284903003E+01  0.12220826106E+02  0.51100000000E-03 0.  1.
         12    1    3    3    0    0  0.12834931335E+02  0.26478340216E+02 -0.19733812418E+02  0.35429667166E+02  0.00000000000E+00 0. -1.
</event>
<event>
 7    1  0.1204848E-011  0.5930194E+02  0.7816164E-02  0.1266605E+00
        -11   -1    0    0    0    0  0.00000000000E+00  0.00000000000E+00  0.45593999997E+02  0.45594000000E+02  0.51100000000E-03 0. -1.
         11   -1    0    0    0    0 -0.00000000000E+00 -0.00000000000E+00 -0.45593999997E+02  0.45594000000E+02  0.51100000000E-03 0.  1.
    9900012    2    1    2    0    0 -0.26186511817E+02 -0.88532879286E+01 -0.15893612270E+02  0.59301936912E+02  0.49999987022E+02 0.  0.
         12    1    1    2    0    0  0.26186511817E+02  0.88532879286E+01  0.15893612270E+02  0.31886063088E+02  0.00000000000E+00 0. -1.
         11    1    3    3    0    0  0.52335522865E+01  0.10050226182E+01 -0.61900084973E+01  0.81680074349E+01  0.51100000000E-03 0. -1.
        -11    1    3    3    0    0 -0.15775093433E+02 -0.83923497179E+01 -0.23978819578E+02  0.29904329039E+02  0.51100000000E-03 0.  1.
        -12    1    3    3    0    0 -0.15644970671E+02 -0.14659608289E+01  0.14275215806E+02  0.21229600438E+02  0.00000000000E+00 0.  1.
</event>
<event>
 7    1  0.1204848E-011  0.5930193E+02  0.7816164E-02  0.1266605E+00
        -11   -1    0    0    0    0  0.00000000000E+00  0.00000000000E+00  0.45593999997E+02  0.45594000000E+02  0.51100000000E-03 0. -1.
         11   -1    0    0    0    0 -0.00000000000E+00 -0.00000000000E+00 -0.45593999997E+02  0.45594000000E+02  0.51100000000E-03 0.  1.
    9900012    2    1    2    0    0 -0.25716775382E+02  0.18623711983E+02 -0.29199355574E+01  0.59301933956E+02  0.49999981632E+02 0.  0.
         12    1    1    2    0    0  0.25716775382E+02 -0.18623711983E+02  0.29199355574E+01  0.31886066044E+02  0.00000000000E+00 0. -1.
         11    1    3    3    0    0 -0.50025691627E+01 -0.34020717389E+01 -0.40841855826E+01  0.72993398660E+01  0.51100000000E-03 0. -1.
        -11    1    3    3    0    0 -0.96822822167E+01 -0.58162608553E+01  0.15193084237E+02  0.18931594971E+02  0.51100000000E-03 0.  1.
         12    1    3    3    0    0 -0.11031924003E+02  0.27842044577E+02 -0.14028834211E+02  0.33070999119E+02  0.00000000000E+00 0. -1.
</event>
<event>
 7    1  0.1204848E-011  0.5930195E+02  0.7816164E-02  0.1266605E+00
        -11   -1    0    0    0    0  0.00000000000E+00  0.00000000000E+00  0.45593999997E+02  0.45594000000E+02  0.51100000000E-03 0.  1.
         11   -1    0    0    0    0 -0.00000000000E+00 -0.00000000000E+00 -0.45593999997E+02  0.45594000000E+02  0.51100000000E-03 0. -1.
    9900012    2    1    2    0    0 -0.25374246798E+02 -0.16659264050E+01  0.19237790983E+02  0.59301947982E+02  0.50000007212E+02 0.  0.
         12    1    1    2    0    0  0.25374246798E+02  0.16659264050E+01 -0.19237790983E+02  0.31886052018E+02  0.00000000000E+00 0. -1.
         11    1    3    3    0    0  0.46960563720E+01  0.85890743641E+01  0.45734204285E+01  0.10804689656E+02  0.51100000000E-03 0. -1.
        -11    1    3    3    0    0  0.69793674428E+01  0.17240408799E+01  0.11497557146E+01  0.72805099631E+01  0.51100000000E-03 0.  1.
         12    1    3    3    0    0 -0.37049670613E+02 -0.11979041649E+02  0.13514614840E+02  0.41216748363E+02  0.00000000000E+00 0. -1.
</event>
<event>
 7    1  0.1204848E-011  0.5930194E+02  0.7816164E-02  0.1266605E+00
        -11   -1    0    0    0    0  0.00000000000E+00  0.00000000000E+00  0.45593999997E+02  0.45594000000E+02  0.51100000000E-03 0.  1.
         11   -1    0    0    0    0 -0.00000000000E+00 -0.00000000000E+00 -0.45593999997E+02  0.45594000000E+02  0.51100000000E-03 0. -1.
    9900012    2    1    2    0    0  0.53253205526E+01  0.27833151341E+02 -0.14617707489E+02  0.59301941529E+02  0.49999995443E+02 0.  0.
         12    1    1    2    0    0 -0.53253205526E+01 -0.27833151341E+02  0.14617707489E+02  0.31886058471E+02  0.00000000000E+00 0. -1.
         11    1    3    3    0    0 -0.68524394403E+00 -0.25354211363E+01 -0.59581584673E+01  0.65113418113E+01  0.51100000000E-03 0. -1.
        -11    1    3    3    0    0 -0.15849642730E+02  0.11290780155E+02  0.58910197220E+01  0.20332166751E+02  0.51100000000E-03 0.  1.
        -12    1    3    3    0    0  0.21860207227E+02  0.19077792322E+02 -0.14550568744E+02  0.32458432967E+02  0.00000000000E+00 0.  1.
</event>
<event>
 7    1  0.1204848E-011  0.5930197E+02  0.7816164E-02  0.1266605E+00
        -11   -1    0    0    0    0  0.00000000000E+00  0.00000000000E+00  0.45593999997E+02  0.45594000000E+02  0.51100000000E-03 0.  1.
         11   -1    0    0    0    0 -0.00000000000E+00 -0.00000000000E+00 -0.45593999997E+02  0.45594000000E+02  0.51100000000E-03 0. -1.
    9900012    2    1    2    0    0  0.21987645194E+02 -0.19907265434E+02  0.11703114987E+02  0.59301973929E+02  0.50000054532E+02 0.  0.
         12    1    1    2    0    0 -0.21987645194E+02  0.19907265434E+02 -0.11703114987E+02  0.31886026071E+02  0.00000000000E+00 0. -1.
         11    1    3    3    0    0  0.21426916008E+02  0.26067702661E+01 -0.45650876050E+01  0.22062366281E+02  0.51100000000E-03 0. -1.
        -11    1    3    3    0    0  0.78390042085E+01 -0.17663711900E+02  0.64621997869E+00  0.19335829581E+02  0.51100000000E-03 0.  1.
        -12    1    3    3    0    0 -0.72782750227E+01 -0.48503238001E+01  0.15621982613E+02  0.17903778066E+02  0.00000000000E+00 0.  1.
</event>
<event>
 7    1  0.1204848E-011  0.5930194E+02  0.7816164E-02  0.1266605E+00
        -11   -1    0    0    0    0  0.00000000000E+00  0.00000000000E+00  0.45593999997E+02  0.45594000000E+02  0.51100000000E-03 0.  1.
         11   -1    0    0    0    0 -0.00000000000E+00 -0.00000000000E+00 -0.45593999997E+02  0.45594000000E+02  0.51100000000E-03 0. -1.
    9900012    2    1    2    0    0  0.28366666910E+02 -0.93194790915E+00  0.14532197597E+02  0.59301935874E+02  0.49999985129E+02 0.  0.
         12    1    1    2    0    0 -0.28366666910E+02  0.93194790915E+00 -0.14532197597E+02  0.31886064126E+02  0.00000000000E+00 0. -1.
         11    1    3    3    0    0  0.47039019171E+01 -0.10356207048E+02 -0.19919682502E+01  0.11547538934E+02  0.51100000000E-03 0. -1.
        -11    1    3    3    0    0  0.58609614245E+01  0.89833361121E+01 -0.10747254565E+02  0.15184027050E+02  0.51100000000E-03 0.  1.
        -12    1    3    3    0    0  0.17801803568E+02  0.44092302694E+00  0.27271420412E+02  0.32570369889E+02  0.00000000000E+00 0.  1.
</event>
<event>
 7    1  0.1204848E-011  0.5930193E+02  0.7816164E-02  0.1266605E+00
        -11   -1    0    0    0    0  0.00000000000E+00  0.00000000000E+00  0.45593999997E+02  0.45594000000E+02  0.51100000000E-03 0.  1.
         11   -1    0    0    0    0 -0.00000000000E+00 -0.00000000000E+00 -0.45593999997E+02  0.45594000000E+02  0.51100000000E-03 0. -1.
    9900012    2    1    2    0    0 -0.12972039330E+02  0.10713789823E+02  0.27086202853E+02  0.59301929660E+02  0.49999973796E+02 0.  0.
         12    1    1    2    0    0  0.12972039330E+02 -0.10713789823E+02 -0.27086202853E+02  0.31886070340E+02  0.00000000000E+00 0. -1.
         11    1    3    3    0    0  0.21255635316E+01 -0.54597729270E+00  0.32512493048E+02  0.32586474434E+02  0.51100000000E-03 0. -1.
        -11    1    3    3    0    0 -0.38364188137E+01  0.94371749897E+01  0.49215455609E+01  0.11313708148E+02  0.51100000000E-03 0.  1.
         12    1    3    3    0    0 -0.11261184048E+02  0.18225921256E+01 -0.10347835756E+02  0.15401747078E+02  0.00000000000E+00 0. -1.
</event>
<event>
 7    1  0.1204848E-011  0.5930213E+02  0.7816164E-02  0.1266604E+00
        -11   -1    0    0    0    0  0.00000000000E+00  0.00000000000E+00  0.45593999997E+02  0.45594000000E+02  0.51100000000E-03 0.  1.
         11   -1    0    0    0    0 -0.00000000000E+00 -0.00000000000E+00 -0.45593999997E+02  0.45594000000E+02  0.51100000000E-03 0. -1.
    9900012    2    1    2    0    0  0.12382896227E+02  0.92264178925E+01  0.27897055923E+02  0.59302131104E+02  0.50000341180E+02 0.  0.
         12    1    1    2    0    0 -0.12382896227E+02 -0.92264178925E+01 -0.27897055923E+02  0.31885868896E+02  0.00000000000E+00 0. -1.
         11    1    3    3    0    0 -0.10260345676E+02 -0.68032360050E+01 -0.58809359265E+01  0.13643464412E+02  0.51100000000E-03 0. -1.
        -11    1    3    3    0    0  0.12898507002E+01 -0.14045869979E+01 -0.18528461894E+00  0.19159619293E+01  0.51100000000E-03 0.  1.
        -12    1    3    3    0    0  0.21353391202E+02  0.17434240895E+02  0.33963276469E+02  0.43742704762E+02  0.00000000000E+00 0.  1.
</event>
<event>
 7    1  0.1204848E-011  0.5930191E+02  0.7816164E-02  0.1266605E+00
        -11   -1    0    0    0    0  0.00000000000E+00  0.00000000000E+00  0.45593999997E+02  0.45594000000E+02  0.51100000000E-03 0.  1.
         11   -1    0    0    0    0 -0.00000000000E+00 -0.00000000000E+00 -0.45593999997E+02  0.45594000000E+02  0.51100000000E-03 0. -1.
    9900012    2    1    2    0    0  0.13632566702E+02  0.17765028707E+02  0.22699778243E+02  0.59301905034E+02  0.49999928886E+02 0.  0.
         12    1    1    2    0    0 -0.13632566702E+02 -0.17765028707E+02 -0.22699778243E+02  0.31886094966E+02  0.00000000000E+00 0. -1.
         11    1    3    3    0    0  0.14569419308E+02  0.17677494421E+02  0.17502852511E+01  0.22974448561E+02  0.51100000000E-03 0. -1.
        -11    1    3    3    0    0  0.14259296620E+02  0.18425333607E+01  0.98787503523E+01  0.17444545797E+02  0.51100000000E-03 0.  1.
         12    1    3    3    0    0 -0.15196149225E+02 -0.17549990740E+01  0.11070742640E+02  0.18882910677E+02  0.00000000000E+00 0. -1.
</event>
<event>
 7    1  0.1204848E-011  0.5930192E+02  0.7816164E-02  0.1266605E+00
        -11   -1    0    0    0    0  0.00000000000E+00  0.00000000000E+00  0.45593999997E+02  0.45594000000E+02  0.51100000000E-03 0. -1.
         11   -1    0    0    0    0 -0.00000000000E+00 -0.00000000000E+00 -0.45593999997E+02  0.45594000000E+02  0.51100000000E-03 0.  1.
    9900012    2    1    2    0    0  0.20583669410E+02 -0.23751555885E+02  0.53756948016E+01  0.59301922349E+02  0.49999960464E+02 0.  0.
         12    1    1    2    0    0 -0.20583669410E+02  0.23751555885E+02 -0.53756948016E+01  0.31886077651E+02  0.00000000000E+00 0. -1.
         11    1    3    3    0    0 -0.62008965671E+01 -0.10228202416E+02  0.16708453122E+02  0.20548470719E+02  0.51100000000E-03 0. -1.
        -11    1    3    3    0    0  0.77288859035E+01  0.57679356156E+01 -0.84811355046E+00  0.96811185010E+01  0.51100000000E-03 0.  1.
        -12    1    3    3    0    0  0.19055680074E+02 -0.19291289085E+02 -0.10484644770E+02  0.29072333129E+02  0.00000000000E+00 0.  1.
</event>
<event>
 7    1  0.1204848E-011  0.5930194E+02  0.7816164E-02  0.1266605E+00
        -11   -1    0    0    0    0  0.00000000000E+00  0.00000000000E+00  0.45593999997E+02  0.45594000000E+02  0.51100000000E-03 0.  1.
         11   -1    0    0    0    0 -0.00000000000E+00 -0.00000000000E+00 -0.45593999997E+02  0.45594000000E+02  0.51100000000E-03 0. -1.
    9900012    2    1    2    0    0  0.57600763289E+01  0.31045487912E+02 -0.44407029010E+01  0.59301942840E+02  0.49999997833E+02 0.  0.
         12    1    1    2    0    0 -0.57600763289E+01 -0.31045487912E+02  0.44407029010E+01  0.31886057160E+02  0.00000000000E+00 0. -1.
         11    1    3    3    0    0  0.92671160749E+01 -0.23014216520E+01  0.92609646750E+01  0.13301934030E+02  0.51100000000E-03 0. -1.
        -11    1    3    3    0    0  0.25098453509E+00  0.31528805646E+01  0.80159895857E+01  0.86174090300E+01  0.51100000000E-03 0.  1.
         12    1    3    3    0    0 -0.37580242811E+01  0.30194028999E+02 -0.21717657162E+02  0.37382599780E+02  0.00000000000E+00 0. -1.
</event>
<event>
 7    1  0.1204848E-011  0.5930202E+02  0.7816164E-02  0.1266604E+00
        -11   -1    0    0    0    0  0.00000000000E+00  0.00000000000E+00  0.45593999997E+02  0.45594000000E+02  0.51100000000E-03 0. -1.
         11   -1    0    0    0    0 -0.00000000000E+00 -0.00000000000E+00 -0.45593999997E+02  0.45594000000E+02  0.51100000000E-03 0.  1.
    9900012    2    1    2    0    0  0.14079979362E+02 -0.28595320498E+02  0.88167544903E+00  0.59302023069E+02  0.50000144153E+02 0.  0.
         12    1    1    2    0    0 -0.14079979362E+02  0.28595320498E+02 -0.88167544903E+00  0.31885976931E+02  0.00000000000E+00 0. -1.
         11    1    3    3    0    0  0.89964350710E+01 -0.21238444840E+02 -0.63936939593E+01  0.23935051826E+02  0.51100000000E-03 0. -1.
        -11    1    3    3    0    0  0.49291757983E+01  0.66377898905E+01 -0.10102293568E+02  0.13054246982E+02  0.51100000000E-03 0.  1.
         12    1    3    3    0    0  0.15436849245E+00 -0.13994665549E+02  0.17377662976E+02  0.22312724261E+02  0.00000000000E+00 0. -1.
</event>
<event>
 7    1  0.1204848E-011  0.5930217E+02  0.7816164E-02  0.1266604E+00
        -11   -1    0    0    0    0  0.00000000000E+00  0.00000000000E+00  0.45593999997E+02  0.45594000000E+02  0.51100000000E-03 0.  1.
         11   -1    0    0    0    0 -0.00000000000E+00 -0.00000000000E+00 -0.45593999997E+02  0.45594000000E+02  0.51100000000E-03 0. -1.
    9900012    2    1    2    0    0  0.13487012836E+02  0.26934414212E+02  0.10456763052E+02  0.59302171209E+02  0.50000414322E+02 0.  0.
         12    1    1    2    0    0 -0.13487012836E+02 -0.26934414212E+02 -0.10456763052E+02  0.31885828791E+02  0.00000000000E+00 0. -1.
         11    1    3    3    0    0 -0.98304214795E+01  0.10672535217E+01  0.38668863123E+01  0.10617392644E+02  0.51100000000E-03 0. -1.
        -11    1    3    3    0    0 -0.67606828664E+01  0.33467569387E+01  0.81141488895E+01  0.11079125746E+02  0.51100000000E-03 0.  1.
        -12    1    3    3    0    0  0.30078117182E+02  0.22520403751E+02 -0.15242721502E+01  0.37605652819E+02  0.00000000000E+00 0.  1.
</event>
<event>
 7    1  0.1204848E-011  0.5930197E+02  0.7816164E-02  0.1266605E+00
        -11   -1    0    0    0    0  0.00000000000E+00  0.00000000000E+00  0.45593999997E+02  0.45594000000E+02  0.51100000000E-03 0.  1.
         11   -1    0    0    0    0 -0.00000000000E+00 -0.00000000000E+00 -0.45593999997E+02  0.45594000000E+02  0.51100000000E-03 0. -1.
    9900012    2    1    2    0    0  0.11319297379E+02 -0.16157659348E+02  0.25050402891E+02  0.59301966478E+02  0.50000040944E+02 0.  0.
         12    1    1    2    0    0 -0.11319297379E+02  0.16157659348E+02 -0.25050402891E+02  0.31886033522E+02  0.00000000000E+00 0. -1.
         11    1    3    3    0    0  0.32909622529E+01  0.28732246495E+01  0.99309406485E+01  0.10849397903E+02  0.51100000000E-03 0.  1.
        -11    1    3    3    0    0  0.11657252955E+02 -0.16382742181E+02  0.28193135053E+02  0.34628581435E+02  0.51100000000E-03 0. -1.
         12    1    3    3    0    0 -0.36289178291E+01 -0.26481418172E+01 -0.13073672811E+02  0.13823987140E+02  0.00000000000E+00 0. -1.
</event>
<event>
 7    1  0.1204848E-011  0.5930182E+02  0.7816164E-02  0.1266605E+00
        -11   -1    0    0    0    0  0.00000000000E+00  0.00000000000E+00  0.45593999997E+02  0.45594000000E+02  0.51100000000E-03 0.  1.
         11   -1    0    0    0    0 -0.00000000000E+00 -0.00000000000E+00 -0.45593999997E+02  0.45594000000E+02  0.51100000000E-03 0. -1.
    9900012    2    1    2    0    0  0.74721682821E+01 -0.47440897059E+00  0.30994680713E+02  0.59301818115E+02  0.49999770365E+02 0.  0.
         12    1    1    2    0    0 -0.74721682821E+01  0.47440897059E+00 -0.30994680713E+02  0.31886181885E+02  0.00000000000E+00 0. -1.
         11    1    3    3    0    0  0.26613366172E+01  0.15495388269E+01  0.39391445964E+01  0.50000643574E+01  0.51100000000E-03 0. -1.
        -11    1    3    3    0    0  0.25173053755E+02  0.37648367258E+01  0.10978306545E+02  0.27719665326E+02  0.51100000000E-03 0.  1.
         12    1    3    3    0    0 -0.20362222090E+02 -0.57887845233E+01  0.16077229571E+02  0.26582088432E+02  0.00000000000E+00 0. -1.
</event>
<event>
 7    1  0.1204848E-011  0.5930194E+02  0.7816164E-02  0.1266605E+00
        -11   -1    0    0    0    0  0.00000000000E+00  0.00000000000E+00  0.45593999997E+02  0.45594000000E+02  0.51100000000E-03 0.  1.
         11   -1    0    0    0    0 -0.00000000000E+00 -0.00000000000E+00 -0.45593999997E+02  0.45594000000E+02  0.51100000000E-03 0. -1.
    9900012    2    1    2    0    0  0.29414441364E+02 -0.44433845686E+01  0.11479029048E+02  0.59301935096E+02  0.49999983711E+02 0.  0.
         12    1    1    2    0    0 -0.29414441364E+02  0.44433845686E+01 -0.11479029048E+02  0.31886064904E+02  0.00000000000E+00 0. -1.
         11    1    3    3    0    0  0.75733928740E+01 -0.47007514208E+01 -0.14033775092E+02  0.16625287581E+02  0.51100000000E-03 0. -1.
        -11    1    3    3    0    0 -0.52086732429E+01 -0.23368114420E+01  0.96484663424E+01  0.11210881664E+02  0.51100000000E-03 0.  1.
        -12    1    3    3    0    0  0.27049721733E+02  0.25941782942E+01  0.15864337798E+02  0.31465765851E+02  0.00000000000E+00 0.  1.
</event>
<event>
 7    1  0.1204848E-011  0.5930197E+02  0.7816164E-02  0.1266605E+00
        -11   -1    0    0    0    0  0.00000000000E+00  0.00000000000E+00  0.45593999997E+02  0.45594000000E+02  0.51100000000E-03 0.  1.
         11   -1    0    0    0    0 -0.00000000000E+00 -0.00000000000E+00 -0.45593999997E+02  0.45594000000E+02  0.51100000000E-03 0. -1.
    9900012    2    1    2    0    0 -0.20213100478E+02  0.11603663346E+01  0.24633378352E+02  0.59301965283E+02  0.50000038764E+02 0.  0.
         12    1    1    2    0    0  0.20213100478E+02 -0.11603663346E+01 -0.24633378352E+02  0.31886034717E+02  0.00000000000E+00 0. -1.
         11    1    3    3    0    0  0.21622870903E+01 -0.56001744406E+01  0.89822313910E+01  0.10803606817E+02  0.51100000000E-03 0. -1.
        -11    1    3    3    0    0 -0.14489633399E+00  0.11762750740E+02  0.21909824107E+02  0.24868126037E+02  0.51100000000E-03 0.  1.
         12    1    3    3    0    0 -0.22230491234E+02 -0.50022099649E+01 -0.62586771461E+01  0.23630232430E+02  0.00000000000E+00 0. -1.
</event>
<event>
 7    1  0.1204848E-011  0.5930197E+02  0.7816164E-02  0.1266605E+00
        -11   -1    0    0    0    0  0.00000000000E+00  0.00000000000E+00  0.45593999997E+02  0.45594000000E+02  0.51100000000E-03 0.  1.
         11   -1    0    0    0    0 -0.00000000000E+00 -0.00000000000E+00 -0.45593999997E+02  0.45594000000E+02  0.51100000000E-03 0. -1.
    9900012    2    1    2    0    0 -0.28998303530E+02 -0.11851705229E+02  0.59459620666E+01  0.59301968743E+02  0.50000045075E+02 0.  0.
         12    1    1    2    0    0  0.28998303530E+02  0.11851705229E+02 -0.59459620666E+01  0.31886031257E+02  0.00000000000E+00 0. -1.
         11    1    3    3    0    0 -0.15124986866E+02  0.97506414534E+01  0.81548049523E+01  0.19757051412E+02  0.51100000000E-03 0.  1.
        -11    1    3    3    0    0 -0.20872366487E+01  0.70568660117E+01  0.33100243488E+01  0.80692116211E+01  0.51100000000E-03 0. -1.
         12    1    3    3    0    0 -0.11786080015E+02 -0.28659212694E+02 -0.55188672345E+01  0.31475705709E+02  0.00000000000E+00 0. -1.
</event>
<event>
 7    1  0.1204848E-011  0.5930191E+02  0.7816164E-02  0.1266605E+00
        -11   -1    0    0    0    0  0.00000000000E+00  0.00000000000E+00  0.45593999997E+02  0.45594000000E+02  0.51100000000E-03 0. -1.
         11   -1    0    0    0    0 -0.00000000000E+00 -0.00000000000E+00 -0.45593999997E+02  0.45594000000E+02  0.51100000000E-03 0.  1.
    9900012    2    1    2    0    0  0.22069575679E+02 -0.13229370344E+02 -0.18831902640E+02  0.59301906364E+02  0.49999931310E+02 0.  0.
         12    1    1    2    0    0 -0.22069575679E+02  0.13229370344E+02  0.18831902640E+02  0.31886093636E+02  0.00000000000E+00 0. -1.
         11    1    3    3    0    0  0.86683634788E+01 -0.17880432371E+02  0.10011246528E+02  0.22250290885E+02  0.51100000000E-03 0.  1.
        -11    1    3    3    0    0 -0.30511321893E+01  0.57373828071E+01 -0.57536929533E+01  0.86793981343E+01  0.51100000000E-03 0. -1.
        -12    1    3    3    0    0  0.16452344390E+02 -0.10863207803E+01 -0.23089456214E+02  0.28372217344E+02  0.00000000000E+00 0.  1.
</event>
<event>
 7    1  0.1204848E-011  0.5930197E+02  0.7816164E-02  0.1266605E+00
        -11   -1    0    0    0    0  0.00000000000E+00  0.00000000000E+00  0.45593999997E+02  0.45594000000E+02  0.51100000000E-03 0.  1.
         11   -1    0    0    0    0 -0.00000000000E+00 -0.00000000000E+00 -0.45593999997E+02  0.45594000000E+02  0.51100000000E-03 0. -1.
    9900012    2    1    2    0    0  0.39040507315E+01  0.15864923201E+02  0.27382140459E+02  0.59301968318E+02  0.50000044299E+02 0.  0.
         12    1    1    2    0    0 -0.39040507315E+01 -0.15864923201E+02 -0.27382140459E+02  0.31886031682E+02  0.00000000000E+00 0. -1.
         11    1    3    3    0    0  0.72575844317E+01 -0.10315852612E+02 -0.19701691457E+00  0.12614601176E+02  0.51100000000E-03 0. -1.
        -11    1    3    3    0    0 -0.51368893540E+00 -0.38423896148E+01 -0.20714953656E+01  0.43953302021E+01  0.51100000000E-03 0.  1.
        -12    1    3    3    0    0 -0.28398447649E+01  0.30023165429E+02  0.29650652740E+02  0.42292036940E+02  0.00000000000E+00 0.  1.
</event>
<event>
 7    1  0.1204848E-011  0.5930192E+02  0.7816164E-02  0.1266605E+00
        -11   -1    0    0    0    0  0.00000000000E+00  0.00000000000E+00  0.45593999997E+02  0.45594000000E+02  0.51100000000E-03 0. -1.
         11   -1    0    0    0    0 -0.00000000000E+00 -0.00000000000E+00 -0.45593999997E+02  0.45594000000E+02  0.51100000000E-03 0.  1.
    9900012    2    1    2    0    0 -0.18624001546E+02 -0.21874510379E+02 -0.13833824569E+02  0.59301916200E+02  0.49999949248E+02 0.  0.
         12    1    1    2    0    0  0.18624001546E+02  0.21874510379E+02  0.13833824569E+02  0.31886083800E+02  0.00000000000E+00 0. -1.
         11    1    3    3    0    0 -0.12536969018E+02  0.48531820701E+00  0.84926193496E+01  0.15150435954E+02  0.51100000000E-03 0. -1.
        -11    1    3    3    0    0 -0.39800376118E+01  0.66287328864E+01 -0.98491587734E+01  0.12521450710E+02  0.51100000000E-03 0.  1.
         12    1    3    3    0    0 -0.21069949162E+01 -0.28988561473E+02 -0.12477285145E+02  0.31630029536E+02  0.00000000000E+00 0. -1.
</event>
<event>
 7    1  0.1204848E-011  0.5930194E+02  0.7816164E-02  0.1266605E+00
        -11   -1    0    0    0    0  0.00000000000E+00  0.00000000000E+00  0.45593999997E+02  0.45594000000E+02  0.51100000000E-03 0.  1.
         11   -1    0    0    0    0 -0.00000000000E+00 -0.00000000000E+00 -0.45593999997E+02  0.45594000000E+02  0.51100000000E-03 0. -1.
    9900012    2    1    2    0    0  0.42989317739E+01  0.10836929466E+02  0.29678289511E+02  0.59301941558E+02  0.49999995496E+02 0.  0.
         12    1    1    2    0    0 -0.42989317739E+01 -0.10836929466E+02 -0.29678289511E+02  0.31886058442E+02  0.00000000000E+00 0. -1.
         11    1    3    3    0    0  0.83944245663E+01 -0.46117913133E+01  0.70193171069E+01  0.11874586133E+02  0.51100000000E-03 0. -1.
        -11    1    3    3    0    0 -0.67169813418E+01 -0.11180697463E+02  0.14387964648E+02  0.19420076238E+02  0.51100000000E-03 0.  1.
        -12    1    3    3    0    0  0.26214885493E+01  0.26629418243E+02  0.82710077560E+01  0.28007279187E+02  0.00000000000E+00 0.  1.
</event>
<event>
 7    1  0.1204848E-011  0.5930179E+02  0.7816164E-02  0.1266605E+00
        -11   -1    0    0    0    0  0.00000000000E+00  0.00000000000E+00  0.45593999997E+02  0.45594000000E+02  0.51100000000E-03 0.  1.
         11   -1    0    0    0    0 -0.00000000000E+00 -0.00000000000E+00 -0.45593999997E+02  0.45594000000E+02  0.51100000000E-03 0. -1.
    9900012    2    1    2    0    0 -0.45330949702E+01 -0.30959477094E+02  0.61393891003E+01  0.59301791845E+02  0.49999722455E+02 0.  0.
         12    1    1    2    0    0  0.45330949702E+01  0.30959477094E+02 -0.61393891003E+01  0.31886208155E+02  0.00000000000E+00 0. -1.
         11    1    3    3    0    0  0.15846341375E+01 -0.16929790363E+02 -0.11182070417E+02  0.20351107246E+02  0.51100000000E-03 0. -1.
        -11    1    3    3    0    0 -0.15150925183E+02 -0.10300229494E+02 -0.82584503570E+00  0.18339227951E+02  0.51100000000E-03 0.  1.
         12    1    3    3    0    0  0.90331960755E+01 -0.37294572375E+01  0.18147304553E+02  0.20611456648E+02  0.00000000000E+00 0. -1.
</event>
<event>
 7    1  0.1204848E-011  0.5930193E+02  0.7816164E-02  0.1266605E+00
        -11   -1    0    0    0    0  0.00000000000E+00  0.00000000000E+00  0.45593999997E+02  0.45594000000E+02  0.51100000000E-03 0. -1.
         11   -1    0    0    0    0 -0.00000000000E+00 -0.00000000000E+00 -0.45593999997E+02  0.45594000000E+02  0.51100000000E-03 0.  1.
    9900012    2    1    2    0    0 -0.55985717081E+00  0.31881144266E+02  0.22370384480E-01  0.59301932506E+02  0.49999978988E+02 0.  0.
         12    1    1    2    0    0  0.55985717081E+00 -0.31881144266E+02 -0.22370384480E-01  0.31886067494E+02  0.00000000000E+00 0. -1.
         11    1    3    3    0    0  0.49758302376E+00  0.24034267514E+02 -0.12447318516E+01  0.24071621496E+02  0.51100000000E-03 0. -1.
        -11    1    3    3    0    0 -0.60882139754E+01  0.19059830672E+02 -0.60798420742E+01  0.20911909874E+02  0.51100000000E-03 0.  1.
         12    1    3    3    0    0  0.50307737808E+01 -0.11212953919E+02  0.73469443103E+01  0.14318401137E+02  0.00000000000E+00 0. -1.
</event>
<event>
 7    1  0.1204848E-011  0.5930195E+02  0.7816164E-02  0.1266605E+00
        -11   -1    0    0    0    0  0.00000000000E+00  0.00000000000E+00  0.45593999997E+02  0.45594000000E+02  0.51100000000E-03 0. -1.
         11   -1    0    0    0    0 -0.00000000000E+00 -0.00000000000E+00 -0.45593999997E+02  0.45594000000E+02  0.51100000000E-03 0.  1.
    9900012    2    1    2    0    0  0.85680010339E+01  0.16332658437E+01 -0.30669887040E+02  0.59301950227E+02  0.50000011306E+02 0.  0.
         12    1    1    2    0    0 -0.85680010339E+01 -0.16332658437E+01  0.30669887040E+02  0.31886049773E+02  0.00000000000E+00 0. -1.
         11    1    3    3    0    0 -0.12195069018E+02  0.23882524550E+01 -0.13477995260E+02  0.18332479773E+02  0.51100000000E-03 0. -1.
        -11    1    3    3    0    0  0.22695246094E+00 -0.11105031488E+02 -0.13814270095E+02  0.17725893215E+02  0.51100000000E-03 0.  1.
         12    1    3    3    0    0  0.20536117590E+02  0.10350044876E+02 -0.33776216859E+01  0.23243577239E+02  0.00000000000E+00 0. -1.
</event>
<event>
 7    1  0.1204848E-011  0.5930193E+02  0.7816164E-02  0.1266605E+00
        -11   -1    0    0    0    0  0.00000000000E+00  0.00000000000E+00  0.45593999997E+02  0.45594000000E+02  0.51100000000E-03 0.  1.
         11   -1    0    0    0    0 -0.00000000000E+00 -0.00000000000E+00 -0.45593999997E+02  0.45594000000E+02  0.51100000000E-03 0. -1.
    9900012    2    1    2    0    0  0.26493347087E+02  0.14314584199E+02 -0.10484117962E+02  0.59301929529E+02  0.49999973557E+02 0.  0.
         12    1    1    2    0    0 -0.26493347087E+02 -0.14314584199E+02  0.10484117962E+02  0.31886070471E+02  0.00000000000E+00 0. -1.
         11    1    3    3    0    0  0.99143834684E+01 -0.13447782226E+02  0.84804173847E+01  0.18736470469E+02  0.51100000000E-03 0. -1.
        -11    1    3    3    0    0  0.12168122927E+02  0.62749304605E+01 -0.95638637242E+01  0.16700462791E+02  0.51100000000E-03 0.  1.
        -12    1    3    3    0    0  0.44108406915E+01  0.21487435965E+02 -0.94006716224E+01  0.23864996268E+02  0.00000000000E+00 0.  1.
</event>
<event>
 7    1  0.1204848E-011  0.5930192E+02  0.7816164E-02  0.1266605E+00
        -11   -1    0    0    0    0  0.00000000000E+00  0.00000000000E+00  0.45593999997E+02  0.45594000000E+02  0.51100000000E-03 0.  1.
         11   -1    0    0    0    0 -0.00000000000E+00 -0.00000000000E+00 -0.45593999997E+02  0.45594000000E+02  0.51100000000E-03 0. -1.
    9900012    2    1    2    0    0 -0.17386895392E+02 -0.26717486885E+02  0.77048781897E+00  0.59301923284E+02  0.49999962169E+02 0.  0.
         12    1    1    2    0    0  0.17386895392E+02  0.26717486885E+02 -0.77048781897E+00  0.31886076716E+02  0.00000000000E+00 0. -1.
         11    1    3    3    0    0 -0.92820992823E+01 -0.47487148636E+01  0.47648992845E+00  0.10437178874E+02  0.51100000000E-03 0. -1.
        -11    1    3    3    0    0 -0.20075168716E+02 -0.30994546077E+01  0.12046776120E+02  0.23616600792E+02  0.51100000000E-03 0.  1.
         12    1    3    3    0    0  0.11970372607E+02 -0.18869317414E+02 -0.11752778230E+02  0.25248143618E+02  0.00000000000E+00 0. -1.
</event>
<event>
 7    1  0.1204848E-011  0.5930193E+02  0.7816164E-02  0.1266605E+00
        -11   -1    0    0    0    0  0.00000000000E+00  0.00000000000E+00  0.45593999997E+02  0.45594000000E+02  0.51100000000E-03 0. -1.
         11   -1    0    0    0    0 -0.00000000000E+00 -0.00000000000E+00 -0.45593999997E+02  0.45594000000E+02  0.51100000000E-03 0.  1.
    9900012    2    1    2    0    0 -0.10846135711E+02 -0.19109723267E+02 -0.23106304220E+02  0.59301929720E+02  0.49999973906E+02 0.  0.
         12    1    1    2    0    0  0.10846135711E+02  0.19109723267E+02  0.23106304220E+02  0.31886070280E+02  0.00000000000E+00 0. -1.
         11    1    3    3    0    0 -0.10149024377E+02 -0.25771225320E+01 -0.99863441710E+01  0.14469669191E+02  0.51100000000E-03 0. -1.
        -11    1    3    3    0    0 -0.14761965723E+02 -0.19171505639E+02  0.16682253818E+01  0.24253767474E+02  0.51100000000E-03 0.  1.
         12    1    3    3    0    0  0.14064854389E+02  0.26389049040E+01 -0.14788185431E+02  0.20578493055E+02  0.00000000000E+00 0. -1.
</event>
<event>
 7    1  0.1204848E-011  0.5930191E+02  0.7816164E-02  0.1266605E+00
        -11   -1    0    0    0    0  0.00000000000E+00  0.00000000000E+00  0.45593999997E+02  0.45594000000E+02  0.51100000000E-03 0.  1.
         11   -1    0    0    0    0 -0.00000000000E+00 -0.00000000000E+00 -0.45593999997E+02  0.45594000000E+02  0.51100000000E-03 0. -1.
    9900012    2    1    2    0    0 -0.24094855531E+02 -0.20837414288E+02  0.14010137486E+01  0.59301909979E+02  0.49999937904E+02 0.  0.
         12    1    1    2    0    0  0.24094855531E+02  0.20837414288E+02 -0.14010137486E+01  0.31886090021E+02  0.00000000000E+00 0. -1.
         11    1    3    3    0    0  0.94820790172E+01 -0.57643877645E+01 -0.27833168842E+01  0.11440491332E+02  0.51100000000E-03 0. -1.
        -11    1    3    3    0    0  0.56746502395E+01 -0.12015016002E+01 -0.10772765814E+01  0.58996429155E+01  0.51100000000E-03 0.  1.
        -12    1    3    3    0    0 -0.39251584788E+02 -0.13871524923E+02  0.52616072142E+01  0.41961775731E+02  0.00000000000E+00 0.  1.
</event>
<event>
 7    1  0.1204848E-011  0.5930206E+02  0.7816164E-02  0.1266604E+00
        -11   -1    0    0    0    0  0.00000000000E+00  0.00000000000E+00  0.45593999997E+02  0.45594000000E+02  0.51100000000E-03 0.  1.
         11   -1    0    0    0    0 -0.00000000000E+00 -0.00000000000E+00 -0.45593999997E+02  0.45594000000E+02  0.51100000000E-03 0. -1.
    9900012    2    1    2    0    0  0.19794207010E+02  0.13776948182E+02  0.20859002849E+02  0.59302063724E+02  0.50000218296E+02 0.  0.
         12    1    1    2    0    0 -0.19794207010E+02 -0.13776948182E+02 -0.20859002849E+02  0.31885936276E+02  0.00000000000E+00 0. -1.
         11    1    3    3    0    0  0.70956599839E+01  0.45921930446E+01 -0.54327605677E+01  0.10047463123E+02  0.51100000000E-03 0. -1.
        -11    1    3    3    0    0 -0.50837032872E+01  0.20024588358E+02  0.10904455916E+02  0.23360978942E+02  0.51100000000E-03 0.  1.
         12    1    3    3    0    0  0.17782250313E+02 -0.10839833221E+02  0.15387307501E+02  0.25893621659E+02  0.00000000000E+00 0. -1.
</event>
<event>
 7    1  0.1204848E-011  0.5930194E+02  0.7816164E-02  0.1266605E+00
        -11   -1    0    0    0    0  0.00000000000E+00  0.00000000000E+00  0.45593999997E+02  0.45594000000E+02  0.51100000000E-03 0.  1.
         11   -1    0    0    0    0 -0.00000000000E+00 -0.00000000000E+00 -0.45593999997E+02  0.45594000000E+02  0.51100000000E-03 0. -1.
    9900012    2    1    2    0    0  0.53032599546E+01 -0.13118007531E+02  0.28574706676E+02  0.59301944280E+02  0.50000000460E+02 0.  0.
         12    1    1    2    0    0 -0.53032599546E+01  0.13118007531E+02 -0.28574706676E+02  0.31886055720E+02  0.00000000000E+00 0. -1.
         11    1    3    3    0    0 -0.25648556724E+01 -0.14925120435E+02  0.48156842056E+01  0.15891145938E+02  0.51100000000E-03 0. -1.
        -11    1    3    3    0    0  0.21243065271E+01  0.56687185338E+01 -0.84901092719E+01  0.10427320065E+02  0.51100000000E-03 0.  1.
        -12    1    3    3    0    0  0.57438090999E+01 -0.38616056307E+01  0.32249131743E+02  0.32983478276E+02  0.00000000000E+00 0.  1.
</event>
<event>
 7    1  0.1204848E-011  0.5930193E+02  0.7816164E-02  0.1266605E+00
        -11   -1    0    0    0    0  0.00000000000E+00  0.00000000000E+00  0.45593999997E+02  0.45594000000E+02  0.51100000000E-03 0.  1.
         11   -1    0    0    0    0 -0.00000000000E+00 -0.00000000000E+00 -0.45593999997E+02  0.45594000000E+02  0.51100000000E-03 0. -1.
    9900012    2    1    2    0    0  0.26940079850E+02 -0.15345835402E+02  0.74470698427E+01  0.59301930695E+02  0.49999975683E+02 0.  0.
         12    1    1    2    0    0 -0.26940079850E+02  0.15345835402E+02 -0.74470698427E+01  0.31886069305E+02  0.00000000000E+00 0. -1.
         11    1    3    3    0    0  0.13959237832E+02 -0.13094190657E+02  0.50425138796E+01  0.19792551535E+02  0.51100000000E-03 0. -1.
        -11    1    3    3    0    0  0.25743874378E+02  0.14092232879E+01  0.41609768087E+01  0.26116023942E+02  0.51100000000E-03 0.  1.
         12    1    3    3    0    0 -0.12763032360E+02 -0.36608680335E+01 -0.17564208456E+01  0.13393355217E+02  0.00000000000E+00 0. -1.
</event>
<event>
 7    1  0.1204848E-011  0.5930196E+02  0.7816164E-02  0.1266605E+00
        -11   -1    0    0    0    0  0.00000000000E+00  0.00000000000E+00  0.45593999997E+02  0.45594000000E+02  0.51100000000E-03 0. -1.
         11   -1    0    0    0    0 -0.00000000000E+00 -0.00000000000E+00 -0.45593999997E+02  0.45594000000E+02  0.51100000000E-03 0.  1.
    9900012    2    1    2    0    0 -0.11651053852E+02 -0.20091094303E+02 -0.21847660805E+02  0.59301962165E+02  0.50000033078E+02 0.  0.
         12    1    1    2    0    0  0.11651053852E+02  0.20091094303E+02  0.21847660805E+02  0.31886037835E+02  0.00000000000E+00 0. -1.
         11    1    3    3    0    0  0.54504157380E+01 -0.31548701266E+01  0.80572034420E+01  0.10226375937E+02  0.51100000000E-03 0. -1.
        -11    1    3    3    0    0 -0.39362602279E+01  0.15191835021E+01 -0.25668857805E+02  0.26013310523E+02  0.51100000000E-03 0.  1.
        -12    1    3    3    0    0 -0.13165209362E+02 -0.18455407678E+02 -0.42360064422E+01  0.23062275705E+02  0.00000000000E+00 0.  1.
</event>
<event>
 7    1  0.1204848E-011  0.5930211E+02  0.7816164E-02  0.1266604E+00
        -11   -1    0    0    0    0  0.00000000000E+00  0.00000000000E+00  0.45593999997E+02  0.45594000000E+02  0.51100000000E-03 0.  1.
         11   -1    0    0    0    0 -0.00000000000E+00 -0.00000000000E+00 -0.45593999997E+02  0.45594000000E+02  0.51100000000E-03 0. -1.
    9900012    2    1    2    0    0 -0.90114227349E+01 -0.15203937792E+02  0.26539495012E+02  0.59302105633E+02  0.50000294729E+02 0.  0.
         12    1    1    2    0    0  0.90114227349E+01  0.15203937792E+02 -0.26539495012E+02  0.31885894367E+02  0.00000000000E+00 0. -1.
         11    1    3    3    0    0 -0.41750943652E+01  0.63438329681E+01  0.14456355798E+02  0.16329784227E+02  0.51100000000E-03 0. -1.
        -11    1    3    3    0    0 -0.50569398576E+01  0.31448511899E+01  0.16807109312E+02  0.17830918468E+02  0.51100000000E-03 0.  1.
         12    1    3    3    0    0  0.22061148793E+00 -0.24692621950E+02 -0.47239700988E+01  0.25141402938E+02  0.00000000000E+00 0. -1.
</event>
<event>
 7    1  0.1204848E-011  0.5930196E+02  0.7816164E-02  0.1266605E+00
        -11   -1    0    0    0    0  0.00000000000E+00  0.00000000000E+00  0.45593999997E+02  0.45594000000E+02  0.51100000000E-03 0. -1.
         11   -1    0    0    0    0 -0.00000000000E+00 -0.00000000000E+00 -0.45593999997E+02  0.45594000000E+02  0.51100000000E-03 0.  1.
    9900012    2    1    2    0    0  0.65065961788E+01  0.22369122429E+01 -0.31134863615E+02  0.59301963831E+02  0.50000036117E+02 0.  0.
         12    1    1    2    0    0 -0.65065961788E+01 -0.22369122429E+01  0.31134863615E+02  0.31886036169E+02  0.00000000000E+00 0. -1.
         11    1    3    3    0    0 -0.12414910635E+02  0.51576293126E+01 -0.99938099978E+01  0.16751339789E+02  0.51100000000E-03 0. -1.
        -11    1    3    3    0    0 -0.99324239588E+00  0.10947678236E+02 -0.10450089352E+01  0.11042202369E+02  0.51100000000E-03 0.  1.
         12    1    3    3    0    0  0.19914749210E+02 -0.13868395306E+02 -0.20096044682E+02  0.31508421673E+02  0.00000000000E+00 0. -1.
</event>
<event>
 7    1  0.1204848E-011  0.5930194E+02  0.7816164E-02  0.1266605E+00
        -11   -1    0    0    0    0  0.00000000000E+00  0.00000000000E+00  0.45593999997E+02  0.45594000000E+02  0.51100000000E-03 0.  1.
         11   -1    0    0    0    0 -0.00000000000E+00 -0.00000000000E+00 -0.45593999997E+02  0.45594000000E+02  0.51100000000E-03 0. -1.
    9900012    2    1    2    0    0 -0.82176058583E+00 -0.24501203303E+02  0.20389612690E+02  0.59301944123E+02  0.50000000174E+02 0.  0.
         12    1    1    2    0    0  0.82176058583E+00  0.24501203303E+02 -0.20389612690E+02  0.31886055877E+02  0.00000000000E+00 0. -1.
         11    1    3    3    0    0 -0.60058276187E+01 -0.57604935905E+01  0.27526964264E+01  0.87653060226E+01  0.51100000000E-03 0. -1.
        -11    1    3    3    0    0 -0.12958578962E+02 -0.82063467140E+01 -0.80892102833E+01  0.17340825193E+02  0.51100000000E-03 0.  1.
         12    1    3    3    0    0  0.18142645995E+02 -0.10534362998E+02  0.25726126547E+02  0.33195812907E+02  0.00000000000E+00 0. -1.
</event>
<event>
 7    1  0.1204848E-011  0.5930196E+02  0.7816164E-02  0.1266605E+00
        -11   -1    0    0    0    0  0.00000000000E+00  0.00000000000E+00  0.45593999997E+02  0.45594000000E+02  0.51100000000E-03 0.  1.
         11   -1    0    0    0    0 -0.00000000000E+00 -0.00000000000E+00 -0.45593999997E+02  0.45594000000E+02  0.51100000000E-03 0. -1.
    9900012    2    1    2    0    0  0.24028919330E+02  0.51699765892E+01  0.20312611475E+02  0.59301955920E+02  0.50000021689E+02 0.  0.
         12    1    1    2    0    0 -0.24028919330E+02 -0.51699765892E+01 -0.20312611475E+02  0.31886044080E+02  0.00000000000E+00 0. -1.
         11    1    3    3    0    0  0.10150459840E+02  0.10524538165E+02 -0.66482161943E+01  0.16062269994E+02  0.51100000000E-03 0. -1.
        -11    1    3    3    0    0  0.19665280614E+02  0.64073145011E+01  0.17105182089E+02  0.26839601251E+02  0.51100000000E-03 0.  1.
         12    1    3    3    0    0 -0.57868211235E+01 -0.11761876077E+02  0.98556455802E+01  0.16400084675E+02  0.00000000000E+00 0. -1.
</event>
<event>
 7    1  0.1204848E-011  0.5930200E+02  0.7816164E-02  0.1266605E+00
        -11   -1    0    0    0    0  0.00000000000E+00  0.00000000000E+00  0.45593999997E+02  0.45594000000E+02  0.51100000000E-03 0.  1.
         11   -1    0    0    0    0 -0.00000000000E+00 -0.00000000000E+00 -0.45593999997E+02  0.45594000000E+02  0.51100000000E-03 0. -1.
    9900012    2    1    2    0    0 -0.28722971822E+02  0.13185023752E+02  0.42264410805E+01  0.59302003610E+02  0.50000108663E+02 0.  0.
         12    1    1    2    0    0  0.28722971822E+02 -0.13185023752E+02 -0.42264410805E+01  0.31885996390E+02  0.00000000000E+00 0. -1.
         11    1    3    3    0    0  0.88585233006E+01 -0.40610366701E+01 -0.72975990774E+01  0.12174580340E+02  0.51100000000E-03 0. -1.
        -11    1    3    3    0    0  0.84860935499E+00  0.11872412553E+01  0.47003963759E+01  0.49217279473E+01  0.51100000000E-03 0.  1.
        -12    1    3    3    0    0 -0.38430104477E+02  0.16058819167E+02  0.68236437820E+01  0.42205695322E+02  0.00000000000E+00 0.  1.
</event>
<event>
 7    1  0.1204848E-011  0.5930195E+02  0.7816164E-02  0.1266605E+00
        -11   -1    0    0    0    0  0.00000000000E+00  0.00000000000E+00  0.45593999997E+02  0.45594000000E+02  0.51100000000E-03 0. -1.
         11   -1    0    0    0    0 -0.00000000000E+00 -0.00000000000E+00 -0.45593999997E+02  0.45594000000E+02  0.51100000000E-03 0.  1.
    9900012    2    1    2    0    0  0.27954117194E+02  0.14543276618E+02 -0.48765364187E+01  0.59301950224E+02  0.50000011301E+02 0.  0.
         12    1    1    2    0    0 -0.27954117194E+02 -0.14543276618E+02  0.48765364187E+01  0.31886049776E+02  0.00000000000E+00 0. -1.
         11    1    3    3    0    0 -0.33391005073E+01  0.18003023927E+02 -0.11310890139E+02  0.21521958524E+02  0.51100000000E-03 0. -1.
        -11    1    3    3    0    0 -0.26434224763E+01  0.98424418589E+00  0.15152353506E+01  0.32019302670E+01  0.51100000000E-03 0.  1.
        -12    1    3    3    0    0  0.33936640177E+02 -0.44439914953E+01  0.49191183694E+01  0.34578061433E+02  0.00000000000E+00 0.  1.
</event>
<event>
 7    1  0.1204848E-011  0.5930195E+02  0.7816164E-02  0.1266605E+00
        -11   -1    0    0    0    0  0.00000000000E+00  0.00000000000E+00  0.45593999997E+02  0.45594000000E+02  0.51100000000E-03 0.  1.
         11   -1    0    0    0    0 -0.00000000000E+00 -0.00000000000E+00 -0.45593999997E+02  0.45594000000E+02  0.51100000000E-03 0. -1.
    9900012    2    1    2    0    0 -0.73402221235E+01  0.29681208180E+02  0.90480556740E+01  0.59301948326E+02  0.50000007839E+02 0.  0.
         12    1    1    2    0    0  0.73402221235E+01 -0.29681208180E+02 -0.90480556740E+01  0.31886051674E+02  0.00000000000E+00 0. -1.
         11    1    3    3    0    0 -0.12866545275E+02  0.16096760170E+02  0.87447983849E+01  0.22385825299E+02  0.51100000000E-03 0. -1.
        -11    1    3    3    0    0 -0.42857206889E+01  0.22942940408E+02 -0.32684770179E+00  0.23342081014E+02  0.51100000000E-03 0.  1.
         12    1    3    3    0    0  0.98120438404E+01 -0.93584923970E+01  0.63010499083E+00  0.13574042013E+02  0.00000000000E+00 0. -1.
</event>
<event>
 7    1  0.1204848E-011  0.5930187E+02  0.7816164E-02  0.1266605E+00
        -11   -1    0    0    0    0  0.00000000000E+00  0.00000000000E+00  0.45593999997E+02  0.45594000000E+02  0.51100000000E-03 0.  1.
         11   -1    0    0    0    0 -0.00000000000E+00 -0.00000000000E+00 -0.45593999997E+02  0.45594000000E+02  0.51100000000E-03 0. -1.
    9900012    2    1    2    0    0 -0.98040439420E+00 -0.26318389522E+02  0.17975154197E+02  0.59301874676E+02  0.49999873518E+02 0.  0.
         12    1    1    2    0    0  0.98040439420E+00  0.26318389522E+02 -0.17975154197E+02  0.31886125324E+02  0.00000000000E+00 0. -1.
         11    1    3    3    0    0  0.15477129962E+02 -0.75737153428E+01 -0.51150821915E+01  0.17974058585E+02  0.51100000000E-03 0. -1.
        -11    1    3    3    0    0 -0.29576818484E+01 -0.15753825800E+02  0.22319820868E+02  0.27479179629E+02  0.51100000000E-03 0.  1.
         12    1    3    3    0    0 -0.13499852507E+02 -0.29908483791E+01  0.77041552060E+00  0.13848636461E+02  0.00000000000E+00 0. -1.
</event>
<event>
 7    1  0.1204848E-011  0.5930194E+02  0.7816164E-02  0.1266605E+00
        -11   -1    0    0    0    0  0.00000000000E+00  0.00000000000E+00  0.45593999997E+02  0.45594000000E+02  0.51100000000E-03 0. -1.
         11   -1    0    0    0    0 -0.00000000000E+00 -0.00000000000E+00 -0.45593999997E+02  0.45594000000E+02  0.51100000000E-03 0.  1.
    9900012    2    1    2    0    0  0.16521242105E+02  0.26552624384E+02 -0.62231360662E+01  0.59301941528E+02  0.49999995441E+02 0.  0.
         12    1    1    2    0    0 -0.16521242105E+02 -0.26552624384E+02  0.62231360662E+01  0.31886058472E+02  0.00000000000E+00 0. -1.
         11    1    3    3    0    0 -0.10045795174E+02  0.14446667686E+02 -0.72210207817E+00  0.17610952262E+02  0.51100000000E-03 0. -1.
        -11    1    3    3    0    0 -0.45902326265E+01 -0.41398929554E+01 -0.10931660592E+01  0.62772574857E+01  0.51100000000E-03 0.  1.
        -12    1    3    3    0    0  0.31157269905E+02  0.16245849653E+02 -0.44078679288E+01  0.35413731780E+02  0.00000000000E+00 0.  1.
</event>
<event>
 7    1  0.1204848E-011  0.5930195E+02  0.7816164E-02  0.1266605E+00
        -11   -1    0    0    0    0  0.00000000000E+00  0.00000000000E+00  0.45593999997E+02  0.45594000000E+02  0.51100000000E-03 0. -1.
         11   -1    0    0    0    0 -0.00000000000E+00 -0.00000000000E+00 -0.45593999997E+02  0.45594000000E+02  0.51100000000E-03 0.  1.
    9900012    2    1    2    0    0 -0.19835523367E+02 -0.11506508133E+02 -0.22155639418E+02  0.59301951724E+02  0.50000014036E+02 0.  0.
         12    1    1    2    0    0  0.19835523367E+02  0.11506508133E+02  0.22155639418E+02  0.31886048276E+02  0.00000000000E+00 0. -1.
         11    1    3    3    0    0  0.33309082620E+01 -0.33089431158E+01 -0.15919770129E+01  0.49576653239E+01  0.51100000000E-03 0. -1.
        -11    1    3    3    0    0  0.76473784032E+01 -0.16599471170E+02 -0.59448175689E+01  0.19218889035E+02  0.51100000000E-03 0.  1.
         12    1    3    3    0    0 -0.30813810032E+02  0.84019061523E+01 -0.14618844836E+02  0.35125397365E+02  0.00000000000E+00 0. -1.
</event>
<event>
 7    1  0.1204848E-011  0.5930194E+02  0.7816164E-02  0.1266605E+00
        -11   -1    0    0    0    0  0.00000000000E+00  0.00000000000E+00  0.45593999997E+02  0.45594000000E+02  0.51100000000E-03 0.  1.
         11   -1    0    0    0    0 -0.00000000000E+00 -0.00000000000E+00 -0.45593999997E+02  0.45594000000E+02  0.51100000000E-03 0. -1.
    9900012    2    1    2    0    0 -0.23435375077E+02  0.20954478435E+02 -0.53304412343E+01  0.59301943875E+02  0.49999999721E+02 0.  0.
         12    1    1    2    0    0  0.23435375077E+02 -0.20954478435E+02  0.53304412343E+01  0.31886056125E+02  0.00000000000E+00 0. -1.
         11    1    3    3    0    0 -0.83411779150E+01  0.21227235921E+02 -0.61678352666E+01  0.23626531400E+02  0.51100000000E-03 0. -1.
        -11    1    3    3    0    0 -0.22067078539E+02  0.72534429655E+01  0.62783249165E+01  0.24062122810E+02  0.51100000000E-03 0.  1.
         12    1    3    3    0    0  0.69728813777E+01 -0.75262004516E+01 -0.54409308841E+01  0.11613289664E+02  0.00000000000E+00 0. -1.
</event>
<event>
 7    1  0.1204848E-011  0.5930225E+02  0.7816164E-02  0.1266604E+00
        -11   -1    0    0    0    0  0.00000000000E+00  0.00000000000E+00  0.45593999997E+02  0.45594000000E+02  0.51100000000E-03 0.  1.
         11   -1    0    0    0    0 -0.00000000000E+00 -0.00000000000E+00 -0.45593999997E+02  0.45594000000E+02  0.51100000000E-03 0. -1.
    9900012    2    1    2    0    0  0.19384868740E+02 -0.23496004716E+02  0.94268603904E+01  0.59302249727E+02  0.50000557519E+02 0.  0.
         12    1    1    2    0    0 -0.19384868740E+02  0.23496004716E+02 -0.94268603904E+01  0.31885750273E+02  0.00000000000E+00 0. -1.
         11    1    3    3    0    0 -0.69583527760E+01  0.18576740203E+00 -0.97851084162E+01  0.12008394142E+02  0.51100000000E-03 0. -1.
        -11    1    3    3    0    0  0.15747027968E+02 -0.42117679886E+01 -0.22315271343E+01  0.16452586210E+02  0.51100000000E-03 0.  1.
        -12    1    3    3    0    0  0.10596193548E+02 -0.19470004129E+02  0.21443495941E+02  0.30841269375E+02  0.00000000000E+00 0.  1.
</event>
<event>
 7    1  0.1204848E-011  0.5930190E+02  0.7816164E-02  0.1266605E+00
        -11   -1    0    0    0    0  0.00000000000E+00  0.00000000000E+00  0.45593999997E+02  0.45594000000E+02  0.51100000000E-03 0.  1.
         11   -1    0    0    0    0 -0.00000000000E+00 -0.00000000000E+00 -0.45593999997E+02  0.45594000000E+02  0.51100000000E-03 0. -1.
    9900012    2    1    2    0    0  0.28396623580E+02  0.11378774170E+02  0.89932576828E+01  0.59301899328E+02  0.49999918478E+02 0.  0.
         12    1    1    2    0    0 -0.28396623580E+02 -0.11378774170E+02 -0.89932576828E+01  0.31886100672E+02  0.00000000000E+00 0. -1.
         11    1    3    3    0    0  0.38285868437E+00 -0.83213107005E+00 -0.63175641301E+01  0.63836227715E+01  0.51100000000E-03 0. -1.
        -11    1    3    3    0    0  0.31497424679E+02 -0.11086646591E+01 -0.10513520478E+01  0.31534461152E+02  0.51100000000E-03 0.  1.
        -12    1    3    3    0    0 -0.34836597839E+01  0.13319569899E+02  0.16362173861E+02  0.21383815404E+02  0.00000000000E+00 0.  1.
</event>
<event>
 7    1  0.1204848E-011  0.5930195E+02  0.7816164E-02  0.1266605E+00
        -11   -1    0    0    0    0  0.00000000000E+00  0.00000000000E+00  0.45593999997E+02  0.45594000000E+02  0.51100000000E-03 0.  1.
         11   -1    0    0    0    0 -0.00000000000E+00 -0.00000000000E+00 -0.45593999997E+02  0.45594000000E+02  0.51100000000E-03 0. -1.
    9900012    2    1    2    0    0 -0.17951814689E+01 -0.31667454337E+02  0.32664554291E+01  0.59301951769E+02  0.50000014119E+02 0.  0.
         12    1    1    2    0    0  0.17951814689E+01  0.31667454337E+02 -0.32664554291E+01  0.31886048231E+02  0.00000000000E+00 0. -1.
         11    1    3    3    0    0  0.78350082094E+01 -0.63101437480E+01 -0.13730131257E+02  0.17021215361E+02  0.51100000000E-03 0. -1.
        -11    1    3    3    0    0 -0.49392499686E+01 -0.80994696590E+01 -0.73998063575E+01  0.12031406127E+02  0.51100000000E-03 0.  1.
        -12    1    3    3    0    0 -0.46909397097E+01 -0.17257840930E+02  0.24396393044E+02  0.30249330281E+02  0.00000000000E+00 0.  1.
</event>
<event>
 7    1  0.1204848E-011  0.5930196E+02  0.7816164E-02  0.1266605E+00
        -11   -1    0    0    0    0  0.00000000000E+00  0.00000000000E+00  0.45593999997E+02  0.45594000000E+02  0.51100000000E-03 0.  1.
         11   -1    0    0    0    0 -0.00000000000E+00 -0.00000000000E+00 -0.45593999997E+02  0.45594000000E+02  0.51100000000E-03 0. -1.
    9900012    2    1    2    0    0 -0.90804046440E+01 -0.15584443005E+02  0.26294319606E+02  0.59301955156E+02  0.50000020295E+02 0.  0.
         12    1    1    2    0    0  0.90804046440E+01  0.15584443005E+02 -0.26294319606E+02  0.31886044844E+02  0.00000000000E+00 0. -1.
         11    1    3    3    0    0  0.44634082845E+01  0.26154626421E+01 -0.19365748624E+01  0.55238556104E+01  0.51100000000E-03 0. -1.
        -11    1    3    3    0    0 -0.14344400234E+02 -0.91501595978E+00 -0.58797318392E+01  0.15529659334E+02  0.51100000000E-03 0.  1.
        -12    1    3    3    0    0  0.80058730528E+00 -0.17284889687E+02  0.34110626307E+02  0.38248440211E+02  0.00000000000E+00 0.  1.
</event>
<event>
 7    1  0.1204848E-011  0.5930196E+02  0.7816164E-02  0.1266605E+00
        -11   -1    0    0    0    0  0.00000000000E+00  0.00000000000E+00  0.45593999997E+02  0.45594000000E+02  0.51100000000E-03 0.  1.
         11   -1    0    0    0    0 -0.00000000000E+00 -0.00000000000E+00 -0.45593999997E+02  0.45594000000E+02  0.51100000000E-03 0. -1.
    9900012    2    1    2    0    0  0.23825500106E+02 -0.20631392227E+02  0.48384626615E+01  0.59301960399E+02  0.50000029858E+02 0.  0.
         12    1    1    2    0    0 -0.23825500106E+02  0.20631392227E+02 -0.48384626615E+01  0.31886039601E+02  0.00000000000E+00 0. -1.
         11    1    3    3    0    0 -0.65819604787E-01 -0.16111594506E+02  0.78723379444E+01  0.17932136368E+02  0.51100000000E-03 0. -1.
        -11    1    3    3    0    0 -0.41871451401E+01  0.71729432632E+01  0.52755046731E+01  0.98394232198E+01  0.51100000000E-03 0.  1.
         12    1    3    3    0    0  0.28078464851E+02 -0.11692740984E+02 -0.83093799560E+01  0.31530400812E+02  0.00000000000E+00 0. -1.
</event>
<event>
 7    1  0.1204848E-011  0.5930193E+02  0.7816164E-02  0.1266605E+00
        -11   -1    0    0    0    0  0.00000000000E+00  0.00000000000E+00  0.45593999997E+02  0.45594000000E+02  0.51100000000E-03 0. -1.
         11   -1    0    0    0    0 -0.00000000000E+00 -0.00000000000E+00 -0.45593999997E+02  0.45594000000E+02  0.51100000000E-03 0.  1.
    9900012    2    1    2    0    0 -0.97923611531E+01 -0.14825846209E+02 -0.26476883683E+02  0.59301930592E+02  0.49999975496E+02 0.  0.
         12    1    1    2    0    0  0.97923611531E+01  0.14825846209E+02  0.26476883683E+02  0.31886069408E+02  0.00000000000E+00 0. -1.
         11    1    3    3    0    0 -0.56726007145E+01  0.41254906595E+01 -0.17408162709E+02  0.18768116613E+02  0.51100000000E-03 0. -1.
        -11    1    3    3    0    0 -0.53334112363E+01  0.36813369625E+01 -0.15644796687E+02  0.16933906250E+02  0.51100000000E-03 0.  1.
         12    1    3    3    0    0  0.12136507977E+01 -0.22632673831E+02  0.65760757134E+01  0.23599907728E+02  0.00000000000E+00 0. -1.
</event>
<event>
 7    1  0.1204848E-011  0.5930194E+02  0.7816164E-02  0.1266605E+00
        -11   -1    0    0    0    0  0.00000000000E+00  0.00000000000E+00  0.45593999997E+02  0.45594000000E+02  0.51100000000E-03 0.  1.
         11   -1    0    0    0    0 -0.00000000000E+00 -0.00000000000E+00 -0.45593999997E+02  0.45594000000E+02  0.51100000000E-03 0. -1.
    9900012    2    1    2    0    0 -0.18514719488E+02  0.75519083563E+01  0.24837363549E+02  0.59301940576E+02  0.49999993705E+02 0.  0.
         12    1    1    2    0    0  0.18514719488E+02 -0.75519083563E+01 -0.24837363549E+02  0.31886059424E+02  0.00000000000E+00 0. -1.
         11    1    3    3    0    0  0.72532511524E+01 -0.61480006628E+01  0.13182150519E+02  0.16253512143E+02  0.51100000000E-03 0. -1.
        -11    1    3    3    0    0 -0.60038664121E+01 -0.50705767501E+01 -0.65837098792E+01  0.10251945986E+02  0.51100000000E-03 0.  1.
        -12    1    3    3    0    0 -0.19764104229E+02  0.18770485769E+02  0.18238922909E+02  0.32796482446E+02  0.00000000000E+00 0.  1.
</event>
<event>
 7    1  0.1204848E-011  0.5930193E+02  0.7816164E-02  0.1266605E+00
        -11   -1    0    0    0    0  0.00000000000E+00  0.00000000000E+00  0.45593999997E+02  0.45594000000E+02  0.51100000000E-03 0. -1.
         11   -1    0    0    0    0 -0.00000000000E+00 -0.00000000000E+00 -0.45593999997E+02  0.45594000000E+02  0.51100000000E-03 0.  1.
    9900012    2    1    2    0    0 -0.25444998683E+02 -0.27248287967E+01 -0.19022315707E+02  0.59301934943E+02  0.49999983432E+02 0.  0.
         12    1    1    2    0    0  0.25444998683E+02  0.27248287967E+01  0.19022315707E+02  0.31886065057E+02  0.00000000000E+00 0. -1.
         11    1    3    3    0    0 -0.49662459297E+01  0.85627732496E+01  0.11487629631E+02  0.15164112871E+02  0.51100000000E-03 0. -1.
        -11    1    3    3    0    0 -0.15975901209E+02 -0.88380176225E-01 -0.64677753234E+01  0.17235699823E+02  0.51100000000E-03 0.  1.
        -12    1    3    3    0    0 -0.45028515440E+01 -0.11199221870E+02 -0.24042170015E+02  0.26902122250E+02  0.00000000000E+00 0.  1.
</event>
<event>
 7    1  0.1204848E-011  0.5930214E+02  0.7816164E-02  0.1266604E+00
        -11   -1    0    0    0    0  0.00000000000E+00  0.00000000000E+00  0.45593999997E+02  0.45594000000E+02  0.51100000000E-03 0.  1.
         11   -1    0    0    0    0 -0.00000000000E+00 -0.00000000000E+00 -0.45593999997E+02  0.45594000000E+02  0.51100000000E-03 0. -1.
    9900012    2    1    2    0    0  0.11395322036E+02  0.44500818019E+01  0.29445742185E+02  0.59302135966E+02  0.50000350048E+02 0.  0.
         12    1    1    2    0    0 -0.11395322036E+02 -0.44500818019E+01 -0.29445742185E+02  0.31885864034E+02  0.00000000000E+00 0. -1.
         11    1    3    3    0    0  0.32940022530E+00 -0.72490981577E+01 -0.59077781061E+01  0.93573378169E+01  0.51100000000E-03 0. -1.
        -11    1    3    3    0    0  0.20746465596E+01  0.98730911432E+01 -0.29871485282E+01  0.10521651185E+02  0.51100000000E-03 0.  1.
        -12    1    3    3    0    0  0.89912752515E+01  0.18260888164E+01  0.38340668820E+02  0.39423146964E+02  0.00000000000E+00 0.  1.
</event>
<event>
 7    1  0.1204848E-011  0.5930196E+02  0.7816164E-02  0.1266605E+00
        -11   -1    0    0    0    0  0.00000000000E+00  0.00000000000E+00  0.45593999997E+02  0.45594000000E+02  0.51100000000E-03 0.  1.
         11   -1    0    0    0    0 -0.00000000000E+00 -0.00000000000E+00 -0.45593999997E+02  0.45594000000E+02  0.51100000000E-03 0. -1.
    9900012    2    1    2    0    0 -0.26691657977E+02 -0.17373211921E+02  0.15640228123E+01  0.59301964414E+02  0.50000037180E+02 0.  0.
         12    1    1    2    0    0  0.26691657977E+02  0.17373211921E+02 -0.15640228123E+01  0.31886035586E+02  0.00000000000E+00 0. -1.
         11    1    3    3    0    0 -0.18333049104E+02 -0.14894061120E+02 -0.84936573877E+01  0.25101313954E+02  0.51100000000E-03 0. -1.
        -11    1    3    3    0    0 -0.18493613523E+01 -0.16179139536E+02  0.98495201995E+01  0.19031493424E+02  0.51100000000E-03 0.  1.
        -12    1    3    3    0    0 -0.65092475207E+01  0.13699988735E+02  0.20816000051E+00  0.15169157037E+02  0.00000000000E+00 0.  1.
</event>
<event>
 7    1  0.1204848E-011  0.5930201E+02  0.7816164E-02  0.1266605E+00
        -11   -1    0    0    0    0  0.00000000000E+00  0.00000000000E+00  0.45593999997E+02  0.45594000000E+02  0.51100000000E-03 0. -1.
         11   -1    0    0    0    0 -0.00000000000E+00 -0.00000000000E+00 -0.45593999997E+02  0.45594000000E+02  0.51100000000E-03 0.  1.
    9900012    2    1    2    0    0  0.49188555674E+01  0.28509692908E+02 -0.13405910940E+02  0.59302012828E+02  0.50000125475E+02 0.  0.
         12    1    1    2    0    0 -0.49188555674E+01 -0.28509692908E+02  0.13405910940E+02  0.31885987172E+02  0.00000000000E+00 0. -1.
         11    1    3    3    0    0  0.68239576866E+01 -0.49829243171E+01  0.40006028389E+01  0.93488371787E+01  0.51100000000E-03 0. -1.
        -11    1    3    3    0    0  0.66405255301E+01  0.16725896645E+02  0.68474056487E+01  0.19254588084E+02  0.51100000000E-03 0.  1.
        -12    1    3    3    0    0 -0.85456276492E+01  0.16766720579E+02 -0.24253919428E+02  0.30698587566E+02  0.00000000000E+00 0.  1.
</event>
<event>
 7    1  0.1204848E-011  0.5930191E+02  0.7816164E-02  0.1266605E+00
        -11   -1    0    0    0    0  0.00000000000E+00  0.00000000000E+00  0.45593999997E+02  0.45594000000E+02  0.51100000000E-03 0.  1.
         11   -1    0    0    0    0 -0.00000000000E+00 -0.00000000000E+00 -0.45593999997E+02  0.45594000000E+02  0.51100000000E-03 0. -1.
    9900012    2    1    2    0    0 -0.27955669476E+02 -0.53690864260E+01 -0.14365797295E+02  0.59301910920E+02  0.49999939620E+02 0.  0.
         12    1    1    2    0    0  0.27955669476E+02  0.53690864260E+01  0.14365797295E+02  0.31886089080E+02  0.00000000000E+00 0. -1.
         11    1    3    3    0    0 -0.12489246003E+02 -0.15381798514E+01 -0.13754516140E+02  0.18642263207E+02  0.51100000000E-03 0. -1.
        -11    1    3    3    0    0 -0.14856259628E+02 -0.10218935475E+02 -0.15924195923E+02  0.24056498258E+02  0.51100000000E-03 0.  1.
        -12    1    3    3    0    0 -0.61016384538E+00  0.63880289007E+01  0.15312914768E+02  0.16603149455E+02  0.00000000000E+00 0.  1.
</event>
<event>
 7    1  0.1204848E-011  0.5930199E+02  0.7816164E-02  0.1266605E+00
        -11   -1    0    0    0    0  0.00000000000E+00  0.00000000000E+00  0.45593999997E+02  0.45594000000E+02  0.51100000000E-03 0.  1.
         11   -1    0    0    0    0 -0.00000000000E+00 -0.00000000000E+00 -0.45593999997E+02  0.45594000000E+02  0.51100000000E-03 0. -1.
    9900012    2    1    2    0    0 -0.83872618888E+01 -0.79471479515E+01  0.29718917318E+02  0.59301994149E+02  0.50000091409E+02 0.  0.
         12    1    1    2    0    0  0.83872618888E+01  0.79471479515E+01 -0.29718917318E+02  0.31886005851E+02  0.00000000000E+00 0. -1.
         11    1    3    3    0    0  0.14593142830E+01  0.13502104433E+02  0.21673542325E+02  0.25576920446E+02  0.51100000000E-03 0. -1.
        -11    1    3    3    0    0 -0.13985903108E+02 -0.36982243711E+01  0.45539322673E+01  0.15166431637E+02  0.51100000000E-03 0.  1.
         12    1    3    3    0    0  0.41393269364E+01 -0.17751028014E+02  0.34914427255E+01  0.18558642066E+02  0.00000000000E+00 0. -1.
</event>
<event>
 7    1  0.1204848E-011  0.5930195E+02  0.7816164E-02  0.1266605E+00
        -11   -1    0    0    0    0  0.00000000000E+00  0.00000000000E+00  0.45593999997E+02  0.45594000000E+02  0.51100000000E-03 0.  1.
         11   -1    0    0    0    0 -0.00000000000E+00 -0.00000000000E+00 -0.45593999997E+02  0.45594000000E+02  0.51100000000E-03 0. -1.
    9900012    2    1    2    0    0 -0.79602733667E+00 -0.18929445936E+01  0.31819858647E+02  0.59301948143E+02  0.50000007505E+02 0.  0.
         12    1    1    2    0    0  0.79602733667E+00  0.18929445936E+01 -0.31819858647E+02  0.31886051857E+02  0.00000000000E+00 0. -1.
         11    1    3    3    0    0  0.14041047793E+02 -0.12702641066E+02  0.94722716063E+01  0.21171491275E+02  0.51100000000E-03 0. -1.
        -11    1    3    3    0    0  0.49541312158E+01 -0.38419178937E+01  0.46906870255E+01  0.78298336022E+01  0.51100000000E-03 0.  1.
        -12    1    3    3    0    0 -0.19791206345E+02  0.14651614366E+02  0.17656900015E+02  0.30300623265E+02  0.00000000000E+00 0.  1.
</event>
<event>
 7    1  0.1204848E-011  0.5930194E+02  0.7816164E-02  0.1266605E+00
        -11   -1    0    0    0    0  0.00000000000E+00  0.00000000000E+00  0.45593999997E+02  0.45594000000E+02  0.51100000000E-03 0.  1.
         11   -1    0    0    0    0 -0.00000000000E+00 -0.00000000000E+00 -0.45593999997E+02  0.45594000000E+02  0.51100000000E-03 0. -1.
    9900012    2    1    2    0    0  0.30604710815E+02 -0.79859578239E+01  0.40369674444E+01  0.59301937957E+02  0.49999988929E+02 0.  0.
         12    1    1    2    0    0 -0.30604710815E+02  0.79859578239E+01 -0.40369674444E+01  0.31886062043E+02  0.00000000000E+00 0. -1.
         11    1    3    3    0    0  0.13500184236E+02  0.14028634646E+02  0.12183198674E+01  0.19507482359E+02  0.51100000000E-03 0. -1.
        -11    1    3    3    0    0 -0.96932920993E+00 -0.90229606886E+01  0.12561766882E+02  0.15496819227E+02  0.51100000000E-03 0.  1.
        -12    1    3    3    0    0  0.18073855789E+02 -0.12991631781E+02 -0.97431193045E+01  0.24297636371E+02  0.00000000000E+00 0.  1.
</event>
<event>
 7    1  0.1204848E-011  0.5930194E+02  0.7816164E-02  0.1266605E+00
        -11   -1    0    0    0    0  0.00000000000E+00  0.00000000000E+00  0.45593999997E+02  0.45594000000E+02  0.51100000000E-03 0.  1.
         11   -1    0    0    0    0 -0.00000000000E+00 -0.00000000000E+00 -0.45593999997E+02  0.45594000000E+02  0.51100000000E-03 0. -1.
    9900012    2    1    2    0    0  0.96351886660E+01  0.11387294540E+02  0.28181794701E+02  0.59301938937E+02  0.49999990716E+02 0.  0.
         12    1    1    2    0    0 -0.96351886660E+01 -0.11387294540E+02 -0.28181794701E+02  0.31886061063E+02  0.00000000000E+00 0. -1.
         11    1    3    3    0    0  0.64400273305E+00  0.23885877967E+01 -0.12473925386E+02  0.12716874851E+02  0.51100000000E-03 0. -1.
        -11    1    3    3    0    0  0.11857672877E+02  0.80505870366E+00  0.13069654070E+02  0.17665457349E+02  0.51100000000E-03 0.  1.
        -12    1    3    3    0    0 -0.28664869436E+01  0.81936480397E+01  0.27586066016E+02  0.28919606737E+02  0.00000000000E+00 0.  1.
</event>
<event>
 7    1  0.1204848E-011  0.5930195E+02  0.7816164E-02  0.1266605E+00
        -11   -1    0    0    0    0  0.00000000000E+00  0.00000000000E+00  0.45593999997E+02  0.45594000000E+02  0.51100000000E-03 0.  1.
         11   -1    0    0    0    0 -0.00000000000E+00 -0.00000000000E+00 -0.45593999997E+02  0.45594000000E+02  0.51100000000E-03 0. -1.
    9900012    2    1    2    0    0  0.11636019454E+02  0.28396312730E+02  0.86586596645E+01  0.59301954265E+02  0.50000018671E+02 0.  0.
         12    1    1    2    0    0 -0.11636019454E+02 -0.28396312730E+02 -0.86586596645E+01  0.31886045735E+02  0.00000000000E+00 0. -1.
         11    1    3    3    0    0 -0.27592050038E+01  0.19700033732E+02  0.47359637687E+01  0.20448322532E+02  0.51100000000E-03 0.  1.
        -11    1    3    3    0    0 -0.49682048232E+01  0.16717874769E+02 -0.43631145079E+00  0.17445938321E+02  0.51100000000E-03 0. -1.
        -12    1    3    3    0    0  0.19363429281E+02 -0.80215957702E+01  0.43590073466E+01  0.21407693413E+02  0.00000000000E+00 0.  1.
</event>
<event>
 7    1  0.1204848E-011  0.5930195E+02  0.7816164E-02  0.1266605E+00
        -11   -1    0    0    0    0  0.00000000000E+00  0.00000000000E+00  0.45593999997E+02  0.45594000000E+02  0.51100000000E-03 0. -1.
         11   -1    0    0    0    0 -0.00000000000E+00 -0.00000000000E+00 -0.45593999997E+02  0.45594000000E+02  0.51100000000E-03 0.  1.
    9900012    2    1    2    0    0 -0.21533336533E+02 -0.10322614451E+01 -0.23494047236E+02  0.59301946600E+02  0.50000004691E+02 0.  0.
         12    1    1    2    0    0  0.21533336533E+02  0.10322614451E+01  0.23494047236E+02  0.31886053400E+02  0.00000000000E+00 0. -1.
         11    1    3    3    0    0 -0.21645394601E+01  0.10616744336E+02 -0.76268459508E+01  0.13250255499E+02  0.51100000000E-03 0. -1.
        -11    1    3    3    0    0 -0.19291556601E+02  0.64020286827E+01 -0.18890701364E+02  0.27749031075E+02  0.51100000000E-03 0.  1.
         12    1    3    3    0    0 -0.77240471755E-01 -0.18051034464E+02  0.30235000784E+01  0.18302660026E+02  0.00000000000E+00 0. -1.
</event>
<event>
 7    1  0.1204848E-011  0.5930192E+02  0.7816164E-02  0.1266605E+00
        -11   -1    0    0    0    0  0.00000000000E+00  0.00000000000E+00  0.45593999997E+02  0.45594000000E+02  0.51100000000E-03 0.  1.
         11   -1    0    0    0    0 -0.00000000000E+00 -0.00000000000E+00 -0.45593999997E+02  0.45594000000E+02  0.51100000000E-03 0. -1.
    9900012    2    1    2    0    0 -0.27714579997E+02 -0.15764413934E+02  0.32764212049E+00  0.59301920899E+02  0.49999957819E+02 0.  0.
         12    1    1    2    0    0  0.27714579997E+02  0.15764413934E+02 -0.32764212049E+00  0.31886079101E+02  0.00000000000E+00 0. -1.
         11    1    3    3    0    0  0.28379607511E+01  0.27316861358E+01  0.87453399758E+01  0.95915119727E+01  0.51100000000E-03 0. -1.
        -11    1    3    3    0    0 -0.30351552364E+02 -0.24014438037E+02  0.10869515051E+01  0.38718102084E+02  0.51100000000E-03 0.  1.
         12    1    3    3    0    0 -0.20098838345E+00  0.55183379675E+01 -0.95046493603E+01  0.10992306842E+02  0.00000000000E+00 0. -1.
</event>
<event>
 7    1  0.1204848E-011  0.5930195E+02  0.7816164E-02  0.1266605E+00
        -11   -1    0    0    0    0  0.00000000000E+00  0.00000000000E+00  0.45593999997E+02  0.45594000000E+02  0.51100000000E-03 0.  1.
         11   -1    0    0    0    0 -0.00000000000E+00 -0.00000000000E+00 -0.45593999997E+02  0.45594000000E+02  0.51100000000E-03 0. -1.
    9900012    2    1    2    0    0 -0.44005593039E+01 -0.83859341498E+01  0.30447194651E+02  0.59301945433E+02  0.50000002562E+02 0.  0.
         12    1    1    2    0    0  0.44005593039E+01  0.83859341498E+01 -0.30447194651E+02  0.31886054567E+02  0.00000000000E+00 0. -1.
         11    1    3    3    0    0  0.45227479724E+01  0.20114238319E+01  0.19818899331E+00  0.49538221801E+01  0.51100000000E-03 0. -1.
        -11    1    3    3    0    0 -0.14909220082E+02  0.59253830816E+01  0.33049993563E+02  0.36738223730E+02  0.51100000000E-03 0.  1.
         12    1    3    3    0    0  0.59859128053E+01 -0.16322741063E+02 -0.28009879050E+01  0.17609899522E+02  0.00000000000E+00 0. -1.
</event>
<event>
 7    1  0.1204848E-011  0.5930204E+02  0.7816164E-02  0.1266604E+00
        -11   -1    0    0    0    0  0.00000000000E+00  0.00000000000E+00  0.45593999997E+02  0.45594000000E+02  0.51100000000E-03 0.  1.
         11   -1    0    0    0    0 -0.00000000000E+00 -0.00000000000E+00 -0.45593999997E+02  0.45594000000E+02  0.51100000000E-03 0. -1.
    9900012    2    1    2    0    0 -0.10621527740E+02  0.25226522908E+02 -0.16356038962E+02  0.59302041961E+02  0.50000178607E+02 0.  0.
         12    1    1    2    0    0  0.10621527740E+02 -0.25226522908E+02  0.16356038962E+02  0.31885958039E+02  0.00000000000E+00 0. -1.
         11    1    3    3    0    0  0.37134195494E+01  0.74754648246E+01 -0.29722928649E+01  0.88603941351E+01  0.51100000000E-03 0. -1.
        -11    1    3    3    0    0  0.15327169274E+02  0.55803058267E+01 -0.70018661695E+01  0.17750720019E+02  0.51100000000E-03 0.  1.
         12    1    3    3    0    0 -0.29662116563E+02  0.12170752256E+02 -0.63818799273E+01  0.32690927807E+02  0.00000000000E+00 0. -1.
</event>
<event>
 7    1  0.1204848E-011  0.5930196E+02  0.7816164E-02  0.1266605E+00
        -11   -1    0    0    0    0  0.00000000000E+00  0.00000000000E+00  0.45593999997E+02  0.45594000000E+02  0.51100000000E-03 0. -1.
         11   -1    0    0    0    0 -0.00000000000E+00 -0.00000000000E+00 -0.45593999997E+02  0.45594000000E+02  0.51100000000E-03 0.  1.
    9900012    2    1    2    0    0  0.20128709576E+02 -0.20889172898E+02 -0.13236213127E+02  0.59301955537E+02  0.50000020991E+02 0.  0.
         12    1    1    2    0    0 -0.20128709576E+02  0.20889172898E+02  0.13236213127E+02  0.31886044463E+02  0.00000000000E+00 0. -1.
         11    1    3    3    0    0  0.20298173487E+02 -0.14536593055E+02 -0.13811955987E+02  0.28532411623E+02  0.51100000000E-03 0. -1.
        -11    1    3    3    0    0  0.22085028234E+01  0.11868152071E+02 -0.19267116489E+01  0.12224677351E+02  0.51100000000E-03 0.  1.
         12    1    3    3    0    0 -0.23779667347E+01 -0.18220731914E+02  0.25024545087E+01  0.18544866563E+02  0.00000000000E+00 0. -1.
</event>
<event>
 7    1  0.1204848E-011  0.5930194E+02  0.7816164E-02  0.1266605E+00
        -11   -1    0    0    0    0  0.00000000000E+00  0.00000000000E+00  0.45593999997E+02  0.45594000000E+02  0.51100000000E-03 0.  1.
         11   -1    0    0    0    0 -0.00000000000E+00 -0.00000000000E+00 -0.45593999997E+02  0.45594000000E+02  0.51100000000E-03 0. -1.
    9900012    2    1    2    0    0 -0.16511359121E+02  0.62865657816E+00  0.27270875480E+02  0.59301939745E+02  0.49999992190E+02 0.  0.
         12    1    1    2    0    0  0.16511359121E+02 -0.62865657816E+00 -0.27270875480E+02  0.31886060255E+02  0.00000000000E+00 0. -1.
         11    1    3    3    0    0  0.32125401881E+00  0.37422225858E+01 -0.97580555151E+01  0.10455959149E+02  0.51100000000E-03 0. -1.
        -11    1    3    3    0    0  0.51938288656E+01 -0.76205885769E+01  0.86864409862E+01  0.12668997033E+02  0.51100000000E-03 0.  1.
        -12    1    3    3    0    0 -0.22026442005E+02  0.45070225692E+01  0.28342490009E+02  0.36176983564E+02  0.00000000000E+00 0.  1.
</event>
<event>
 7    1  0.1204848E-011  0.5930196E+02  0.7816164E-02  0.1266605E+00
        -11   -1    0    0    0    0  0.00000000000E+00  0.00000000000E+00  0.45593999997E+02  0.45594000000E+02  0.51100000000E-03 0.  1.
         11   -1    0    0    0    0 -0.00000000000E+00 -0.00000000000E+00 -0.45593999997E+02  0.45594000000E+02  0.51100000000E-03 0. -1.
    9900012    2    1    2    0    0 -0.26523037703E+02  0.17524270796E+02  0.24794857642E+01  0.59301961588E+02  0.50000032026E+02 0.  0.
         12    1    1    2    0    0  0.26523037703E+02 -0.17524270796E+02 -0.24794857642E+01  0.31886038412E+02  0.00000000000E+00 0. -1.
         11    1    3    3    0    0 -0.20548676446E+02  0.17514709637E+02  0.93123463684E+01  0.28561039065E+02  0.51100000000E-03 0. -1.
        -11    1    3    3    0    0 -0.12247510971E+02 -0.22479168892E+01  0.77774198617E+01  0.14681379884E+02  0.51100000000E-03 0.  1.
         12    1    3    3    0    0  0.62731497143E+01  0.22574780486E+01 -0.14610280466E+02  0.16059542639E+02  0.00000000000E+00 0. -1.
</event>
<event>
 7    1  0.1204848E-011  0.5930196E+02  0.7816164E-02  0.1266605E+00
        -11   -1    0    0    0    0  0.00000000000E+00  0.00000000000E+00  0.45593999997E+02  0.45594000000E+02  0.51100000000E-03 0.  1.
         11   -1    0    0    0    0 -0.00000000000E+00 -0.00000000000E+00 -0.45593999997E+02  0.45594000000E+02  0.51100000000E-03 0. -1.
    9900012    2    1    2    0    0 -0.17757695632E+02  0.16366071580E+02  0.20821511051E+02  0.59301962686E+02  0.50000034029E+02 0.  0.
         12    1    1    2    0    0  0.17757695632E+02 -0.16366071580E+02 -0.20821511051E+02  0.31886037314E+02  0.00000000000E+00 0. -1.
         11    1    3    3    0    0 -0.27149921744E+02 -0.29053486528E+01  0.10630064959E+02  0.29301153267E+02  0.51100000000E-03 0. -1.
        -11    1    3    3    0    0  0.43605744515E+01 -0.28646879401E+01  0.26350400063E+00  0.52240292075E+01  0.51100000000E-03 0.  1.
        -12    1    3    3    0    0  0.50316516604E+01  0.22136108173E+02  0.99279420917E+01  0.24776780211E+02  0.00000000000E+00 0.  1.
</event>
<event>
 7    1  0.1204848E-011  0.5930195E+02  0.7816164E-02  0.1266605E+00
        -11   -1    0    0    0    0  0.00000000000E+00  0.00000000000E+00  0.45593999997E+02  0.45594000000E+02  0.51100000000E-03 0.  1.
         11   -1    0    0    0    0 -0.00000000000E+00 -0.00000000000E+00 -0.45593999997E+02  0.45594000000E+02  0.51100000000E-03 0. -1.
    9900012    2    1    2    0    0 -0.58147750517E+01  0.55552579316E+01  0.30855275045E+02  0.59301945090E+02  0.50000001937E+02 0.  0.
         12    1    1    2    0    0  0.58147750517E+01 -0.55552579316E+01 -0.30855275045E+02  0.31886054910E+02  0.00000000000E+00 0. -1.
         11    1    3    3    0    0 -0.20465270426E+02  0.78683018280E+01  0.61358023258E+01  0.22768081555E+02  0.51100000000E-03 0. -1.
        -11    1    3    3    0    0  0.33211479997E+01 -0.79803729507E+01 -0.12660652940E+00  0.86447906824E+01  0.51100000000E-03 0.  1.
        -12    1    3    3    0    0  0.11329347374E+02  0.56673290543E+01  0.24846079249E+02  0.27889072853E+02  0.00000000000E+00 0.  1.
</event>
<event>
 7    1  0.1204848E-011  0.5930192E+02  0.7816164E-02  0.1266605E+00
        -11   -1    0    0    0    0  0.00000000000E+00  0.00000000000E+00  0.45593999997E+02  0.45594000000E+02  0.51100000000E-03 0.  1.
         11   -1    0    0    0    0 -0.00000000000E+00 -0.00000000000E+00 -0.45593999997E+02  0.45594000000E+02  0.51100000000E-03 0. -1.
    9900012    2    1    2    0    0  0.23477826795E+01  0.31286796882E+02 -0.56873998127E+01  0.59301917467E+02  0.49999951560E+02 0.  0.
         12    1    1    2    0    0 -0.23477826795E+01 -0.31286796882E+02  0.56873998127E+01  0.31886082533E+02  0.00000000000E+00 0. -1.
         11    1    3    3    0    0 -0.15975366201E+02 -0.63364524102E+00 -0.71154119711E+01  0.17499797694E+02  0.51100000000E-03 0. -1.
        -11    1    3    3    0    0 -0.17415079843E+01  0.12237031247E+02 -0.43565741895E+01  0.13105629429E+02  0.51100000000E-03 0.  1.
        -12    1    3    3    0    0  0.20064656865E+02  0.19683410876E+02  0.57845863479E+01  0.28696490344E+02  0.00000000000E+00 0.  1.
</event>
<event>
 7    1  0.1204848E-011  0.5930194E+02  0.7816164E-02  0.1266605E+00
        -11   -1    0    0    0    0  0.00000000000E+00  0.00000000000E+00  0.45593999997E+02  0.45594000000E+02  0.51100000000E-03 0. -1.
         11   -1    0    0    0    0 -0.00000000000E+00 -0.00000000000E+00 -0.45593999997E+02  0.45594000000E+02  0.51100000000E-03 0.  1.
    9900012    2    1    2    0    0  0.10778860749E+02  0.27727307352E+02  0.11477512685E+02  0.59301941770E+02  0.49999995883E+02 0.  0.
         12    1    1    2    0    0 -0.10778860749E+02 -0.27727307352E+02 -0.11477512685E+02  0.31886058230E+02  0.00000000000E+00 0. -1.
         11    1    3    3    0    0 -0.20128899972E+00  0.13940598257E+02 -0.66405069058E+01  0.15442704725E+02  0.51100000000E-03 0. -1.
        -11    1    3    3    0    0  0.36293440280E+01  0.10371715000E+02 -0.98398424985E+01  0.14750156296E+02  0.51100000000E-03 0.  1.
         12    1    3    3    0    0  0.73508057205E+01  0.34149940954E+01  0.27957862089E+02  0.29109080748E+02  0.00000000000E+00 0. -1.
</event>
<event>
 7    1  0.1204848E-011  0.5930195E+02  0.7816164E-02  0.1266605E+00
        -11   -1    0    0    0    0  0.00000000000E+00  0.00000000000E+00  0.45593999997E+02  0.45594000000E+02  0.51100000000E-03 0.  1.
         11   -1    0    0    0    0 -0.00000000000E+00 -0.00000000000E+00 -0.45593999997E+02  0.45594000000E+02  0.51100000000E-03 0. -1.
    9900012    2    1    2    0    0  0.94157062175E+01 -0.45008000026E+01  0.30129840035E+02  0.59301953134E+02  0.50000016607E+02 0.  0.
         12    1    1    2    0    0 -0.94157062175E+01  0.45008000026E+01 -0.30129840035E+02  0.31886046866E+02  0.00000000000E+00 0. -1.
         11    1    3    3    0    0  0.66190833240E+01  0.70860655146E+01  0.30923400610E+02  0.32408043664E+02  0.51100000000E-03 0. -1.
        -11    1    3    3    0    0 -0.60740264642E+01 -0.71113680754E+01  0.89737664804E+01  0.12961243710E+02  0.51100000000E-03 0.  1.
        -12    1    3    3    0    0  0.88706493577E+01 -0.44754974418E+01 -0.97673270560E+01  0.13932665761E+02  0.00000000000E+00 0.  1.
</event>
<event>
 7    1  0.1204848E-011  0.5930193E+02  0.7816164E-02  0.1266605E+00
        -11   -1    0    0    0    0  0.00000000000E+00  0.00000000000E+00  0.45593999997E+02  0.45594000000E+02  0.51100000000E-03 0.  1.
         11   -1    0    0    0    0 -0.00000000000E+00 -0.00000000000E+00 -0.45593999997E+02  0.45594000000E+02  0.51100000000E-03 0. -1.
    9900012    2    1    2    0    0  0.14202797930E+02 -0.18869598558E+02  0.21422883237E+02  0.59301934941E+02  0.49999983428E+02 0.  0.
         12    1    1    2    0    0 -0.14202797930E+02  0.18869598558E+02 -0.21422883237E+02  0.31886065059E+02  0.00000000000E+00 0. -1.
         11    1    3    3    0    0  0.16102096436E+02 -0.21703840867E+02 -0.19163803199E+01  0.27092558606E+02  0.51100000000E-03 0. -1.
        -11    1    3    3    0    0  0.62523392383E+01 -0.29464291134E+01  0.99972333709E-01  0.69125382602E+01  0.51100000000E-03 0.  1.
        -12    1    3    3    0    0 -0.81516377450E+01  0.57806714222E+01  0.23239291223E+02  0.25296838075E+02  0.00000000000E+00 0.  1.
</event>
<event>
 7    1  0.1204848E-011  0.5930193E+02  0.7816164E-02  0.1266605E+00
        -11   -1    0    0    0    0  0.00000000000E+00  0.00000000000E+00  0.45593999997E+02  0.45594000000E+02  0.51100000000E-03 0. -1.
         11   -1    0    0    0    0 -0.00000000000E+00 -0.00000000000E+00 -0.45593999997E+02  0.45594000000E+02  0.51100000000E-03 0.  1.
    9900012    2    1    2    0    0  0.16841943720E+02 -0.41829477126E+01 -0.26750204132E+02  0.59301928732E+02  0.49999972103E+02 0.  0.
         12    1    1    2    0    0 -0.16841943720E+02  0.41829477126E+01  0.26750204132E+02  0.31886071268E+02  0.00000000000E+00 0. -1.
         11    1    3    3    0    0  0.18083638252E+02  0.95432481045E+01  0.21943331189E+01  0.20564694379E+02  0.51100000000E-03 0. -1.
        -11    1    3    3    0    0  0.40978357549E+01  0.30752442976E+01 -0.16180126261E+02  0.16971914195E+02  0.51100000000E-03 0.  1.
         12    1    3    3    0    0 -0.53395302871E+01 -0.16801440115E+02 -0.12764410990E+02  0.21765320157E+02  0.00000000000E+00 0. -1.
</event>
<event>
 7    1  0.1204848E-011  0.5930214E+02  0.7816164E-02  0.1266604E+00
        -11   -1    0    0    0    0  0.00000000000E+00  0.00000000000E+00  0.45593999997E+02  0.45594000000E+02  0.51100000000E-03 0.  1.
         11   -1    0    0    0    0 -0.00000000000E+00 -0.00000000000E+00 -0.45593999997E+02  0.45594000000E+02  0.51100000000E-03 0. -1.
    9900012    2    1    2    0    0 -0.14402554228E+02  0.13185577073E+02  0.25207442775E+02  0.59302138207E+02  0.50000354135E+02 0.  0.
         12    1    1    2    0    0  0.14402554228E+02 -0.13185577073E+02 -0.25207442775E+02  0.31885861793E+02  0.00000000000E+00 0. -1.
         11    1    3    3    0    0 -0.18202895600E+02  0.56504861218E+01  0.17525427423E+02  0.25892354244E+02  0.51100000000E-03 0. -1.
        -11    1    3    3    0    0 -0.89709872074E+00 -0.10969462373E+02  0.90786413041E+01  0.14267291931E+02  0.51100000000E-03 0.  1.
         12    1    3    3    0    0  0.46974400933E+01  0.18504553324E+02 -0.13966259520E+01  0.19142492032E+02  0.00000000000E+00 0. -1.
</event>
<event>
 7    1  0.1204848E-011  0.5930193E+02  0.7816164E-02  0.1266605E+00
        -11   -1    0    0    0    0  0.00000000000E+00  0.00000000000E+00  0.45593999997E+02  0.45594000000E+02  0.51100000000E-03 0. -1.
         11   -1    0    0    0    0 -0.00000000000E+00 -0.00000000000E+00 -0.45593999997E+02  0.45594000000E+02  0.51100000000E-03 0.  1.
    9900012    2    1    2    0    0  0.30000204390E+02  0.98106560658E+01  0.45232939172E+01  0.59301930569E+02  0.49999975454E+02 0.  0.
         12    1    1    2    0    0 -0.30000204390E+02 -0.98106560658E+01 -0.45232939172E+01  0.31886069431E+02  0.00000000000E+00 0. -1.
         11    1    3    3    0    0  0.33337059948E+01  0.70249670811E-01 -0.68352697367E+00  0.34037831983E+01  0.51100000000E-03 0. -1.
        -11    1    3    3    0    0  0.10585148168E+02 -0.57293291203E+01 -0.19305576906E+02  0.22750293929E+02  0.51100000000E-03 0.  1.
         12    1    3    3    0    0  0.16081350228E+02  0.15469735515E+02  0.24512397797E+02  0.33147853442E+02  0.00000000000E+00 0. -1.
</event>
<event>
 7    1  0.1204848E-011  0.5930194E+02  0.7816164E-02  0.1266605E+00
        -11   -1    0    0    0    0  0.00000000000E+00  0.00000000000E+00  0.45593999997E+02  0.45594000000E+02  0.51100000000E-03 0.  1.
         11   -1    0    0    0    0 -0.00000000000E+00 -0.00000000000E+00 -0.45593999997E+02  0.45594000000E+02  0.51100000000E-03 0. -1.
    9900012    2    1    2    0    0  0.14237967814E+02  0.28403516124E+02  0.26909783484E+01  0.59301940034E+02  0.49999992717E+02 0.  0.
         12    1    1    2    0    0 -0.14237967814E+02 -0.28403516124E+02 -0.26909783484E+01  0.31886059966E+02  0.00000000000E+00 0. -1.
         11    1    3    3    0    0  0.47048958626E+00  0.71906758031E+01 -0.68732703084E+01  0.99583645218E+01  0.51100000000E-03 0. -1.
        -11    1    3    3    0    0 -0.32800051669E+01  0.23618125755E+02 -0.76060741085E+01  0.25028516969E+02  0.51100000000E-03 0.  1.
         12    1    3    3    0    0  0.17047483394E+02 -0.24052854344E+01  0.17170322765E+02  0.24315058543E+02  0.00000000000E+00 0. -1.
</event>
<event>
 7    1  0.1204848E-011  0.5930195E+02  0.7816164E-02  0.1266605E+00
        -11   -1    0    0    0    0  0.00000000000E+00  0.00000000000E+00  0.45593999997E+02  0.45594000000E+02  0.51100000000E-03 0. -1.
         11   -1    0    0    0    0 -0.00000000000E+00 -0.00000000000E+00 -0.45593999997E+02  0.45594000000E+02  0.51100000000E-03 0.  1.
    9900012    2    1    2    0    0  0.22969984166E+02  0.22078004443E+02 -0.12891818349E+01  0.59301945954E+02  0.50000003514E+02 0.  0.
         12    1    1    2    0    0 -0.22969984166E+02 -0.22078004443E+02  0.12891818349E+01  0.31886054046E+02  0.00000000000E+00 0. -1.
         11    1    3    3    0    0  0.17395601060E+01 -0.78031403855E+01 -0.23457049677E+01  0.83317105864E+01  0.51100000000E-03 0. -1.
        -11    1    3    3    0    0 -0.32502348427E+00  0.68633106636E+00  0.12803667350E+02  0.12826168113E+02  0.51100000000E-03 0.  1.
        -12    1    3    3    0    0  0.21555447545E+02  0.29194813762E+02 -0.11747144217E+02  0.38144067255E+02  0.00000000000E+00 0.  1.
</event>
<event>
 7    1  0.1204848E-011  0.5930199E+02  0.7816164E-02  0.1266605E+00
        -11   -1    0    0    0    0  0.00000000000E+00  0.00000000000E+00  0.45593999997E+02  0.45594000000E+02  0.51100000000E-03 0.  1.
         11   -1    0    0    0    0 -0.00000000000E+00 -0.00000000000E+00 -0.45593999997E+02  0.45594000000E+02  0.51100000000E-03 0. -1.
    9900012    2    1    2    0    0  0.16639652996E+02  0.10613811979E+02  0.25043696666E+02  0.59301987404E+02  0.50000079109E+02 0.  0.
         12    1    1    2    0    0 -0.16639652996E+02 -0.10613811979E+02 -0.25043696666E+02  0.31886012596E+02  0.00000000000E+00 0. -1.
         11    1    3    3    0    0 -0.64628153789E+01 -0.51928883366E+00  0.14235821064E+02  0.15642769740E+02  0.51100000000E-03 0. -1.
        -11    1    3    3    0    0  0.10367991350E+02 -0.43564371321E+01  0.18934766334E+02  0.22022696599E+02  0.51100000000E-03 0.  1.
         12    1    3    3    0    0  0.12734477024E+02  0.15489537945E+02 -0.81268907317E+01  0.21636521065E+02  0.00000000000E+00 0. -1.
</event>
<event>
 7    1  0.1204848E-011  0.5930195E+02  0.7816164E-02  0.1266605E+00
        -11   -1    0    0    0    0  0.00000000000E+00  0.00000000000E+00  0.45593999997E+02  0.45594000000E+02  0.51100000000E-03 0.  1.
         11   -1    0    0    0    0 -0.00000000000E+00 -0.00000000000E+00 -0.45593999997E+02  0.45594000000E+02  0.51100000000E-03 0. -1.
    9900012    2    1    2    0    0 -0.89434418826E+01  0.92469392065E+01  0.29175836193E+02  0.59301945761E+02  0.50000003160E+02 0.  0.
         12    1    1    2    0    0  0.89434418826E+01 -0.92469392065E+01 -0.29175836193E+02  0.31886054239E+02  0.00000000000E+00 0. -1.
         11    1    3    3    0    0  0.33664401206E+00 -0.20704962369E+01 -0.51831407441E+01  0.55915321775E+01  0.51100000000E-03 0. -1.
        -11    1    3    3    0    0 -0.92240247758E+01 -0.10486089869E+01  0.39308983014E+02  0.40390325075E+02  0.51100000000E-03 0.  1.
         12    1    3    3    0    0 -0.56061118919E-01  0.12366044430E+02 -0.49500060764E+01  0.13320088508E+02  0.00000000000E+00 0. -1.
</event>
<event>
 7    1  0.1204848E-011  0.5930225E+02  0.7816164E-02  0.1266604E+00
        -11   -1    0    0    0    0  0.00000000000E+00  0.00000000000E+00  0.45593999997E+02  0.45594000000E+02  0.51100000000E-03 0.  1.
         11   -1    0    0    0    0 -0.00000000000E+00 -0.00000000000E+00 -0.45593999997E+02  0.45594000000E+02  0.51100000000E-03 0. -1.
    9900012    2    1    2    0    0  0.56061810914E+01 -0.19310459450E+01  0.31329580361E+02  0.59302253804E+02  0.50000564955E+02 0.  0.
         12    1    1    2    0    0 -0.56061810914E+01  0.19310459450E+01 -0.31329580361E+02  0.31885746196E+02  0.00000000000E+00 0. -1.
         11    1    3    3    0    0 -0.71247579045E+01 -0.12311877729E+02  0.63464609025E+01  0.15576330591E+02  0.51100000000E-03 0. -1.
        -11    1    3    3    0    0 -0.32438243636E+01 -0.92700224316E+01  0.11189315549E+02  0.14888132693E+02  0.51100000000E-03 0.  1.
        -12    1    3    3    0    0  0.15974763359E+02  0.19650854216E+02  0.13793803909E+02  0.28837790520E+02  0.00000000000E+00 0.  1.
</event>
<event>
 7    1  0.1204848E-011  0.5930195E+02  0.7816164E-02  0.1266605E+00
        -11   -1    0    0    0    0  0.00000000000E+00  0.00000000000E+00  0.45593999997E+02  0.45594000000E+02  0.51100000000E-03 0.  1.
         11   -1    0    0    0    0 -0.00000000000E+00 -0.00000000000E+00 -0.45593999997E+02  0.45594000000E+02  0.51100000000E-03 0. -1.
    9900012    2    1    2    0    0  0.17338108367E+02 -0.25648132209E+02 -0.76343795968E+01  0.59301946005E+02  0.50000003606E+02 0.  0.
         12    1    1    2    0    0 -0.17338108367E+02  0.25648132209E+02  0.76343795968E+01  0.31886053995E+02  0.00000000000E+00 0. -1.
         11    1    3    3    0    0  0.20297089267E+02 -0.18607454371E+02 -0.19414001034E+02  0.33691432550E+02  0.51100000000E-03 0. -1.
        -11    1    3    3    0    0  0.28238619292E+01 -0.11774798039E+02  0.54976251889E+00  0.12121151106E+02  0.51100000000E-03 0.  1.
         12    1    3    3    0    0 -0.57828428288E+01  0.47341202008E+01  0.11229858918E+02  0.13489362349E+02  0.00000000000E+00 0. -1.
</event>
<event>
 7    1  0.1204848E-011  0.5930190E+02  0.7816164E-02  0.1266605E+00
        -11   -1    0    0    0    0  0.00000000000E+00  0.00000000000E+00  0.45593999997E+02  0.45594000000E+02  0.51100000000E-03 0.  1.
         11   -1    0    0    0    0 -0.00000000000E+00 -0.00000000000E+00 -0.45593999997E+02  0.45594000000E+02  0.51100000000E-03 0. -1.
    9900012    2    1    2    0    0  0.12685070469E+02  0.40759004191E+01  0.28968935687E+02  0.59301902529E+02  0.49999924317E+02 0.  0.
         12    1    1    2    0    0 -0.12685070469E+02 -0.40759004191E+01 -0.28968935687E+02  0.31886097471E+02  0.00000000000E+00 0. -1.
         11    1    3    3    0    0  0.16796220017E+02 -0.27456765114E+01 -0.14212883177E+01  0.17078401773E+02  0.51100000000E-03 0. -1.
        -11    1    3    3    0    0  0.92029413848E+01  0.48423346011E+00  0.90905884136E+00  0.92603995818E+01  0.51100000000E-03 0.  1.
         12    1    3    3    0    0 -0.13314090933E+02  0.63373434704E+01  0.29481165164E+02  0.32963101175E+02  0.00000000000E+00 0. -1.
</event>
<event>
 7    1  0.1204848E-011  0.5930191E+02  0.7816164E-02  0.1266605E+00
        -11   -1    0    0    0    0  0.00000000000E+00  0.00000000000E+00  0.45593999997E+02  0.45594000000E+02  0.51100000000E-03 0. -1.
         11   -1    0    0    0    0 -0.00000000000E+00 -0.00000000000E+00 -0.45593999997E+02  0.45594000000E+02  0.51100000000E-03 0.  1.
    9900012    2    1    2    0    0 -0.29264816184E+02 -0.12651614569E+02  0.47975069648E+00  0.59301906194E+02  0.49999931001E+02 0.  0.
         12    1    1    2    0    0  0.29264816184E+02  0.12651614569E+02 -0.47975069648E+00  0.31886093806E+02  0.00000000000E+00 0. -1.
         11    1    3    3    0    0  0.34063299562E+01 -0.29571568638E+01  0.64375993961E+01  0.78606963262E+01  0.51100000000E-03 0. -1.
        -11    1    3    3    0    0 -0.59743735642E+00  0.11949333358E+02  0.14282053250E+01  0.12049202040E+02  0.51100000000E-03 0.  1.
        -12    1    3    3    0    0 -0.32073708783E+02 -0.21643791062E+02 -0.73860540246E+01  0.39392007828E+02  0.00000000000E+00 0.  1.
</event>
<event>
 7    1  0.1204848E-011  0.5930196E+02  0.7816164E-02  0.1266605E+00
        -11   -1    0    0    0    0  0.00000000000E+00  0.00000000000E+00  0.45593999997E+02  0.45594000000E+02  0.51100000000E-03 0.  1.
         11   -1    0    0    0    0 -0.00000000000E+00 -0.00000000000E+00 -0.45593999997E+02  0.45594000000E+02  0.51100000000E-03 0. -1.
    9900012    2    1    2    0    0  0.69744305341E+01 -0.29672205430E+02  0.93614744626E+01  0.59301958219E+02  0.50000025881E+02 0.  0.
         12    1    1    2    0    0 -0.69744305341E+01  0.29672205430E+02 -0.93614744626E+01  0.31886041781E+02  0.00000000000E+00 0. -1.
         11    1    3    3    0    0  0.82381821304E+01 -0.75223382191E+01  0.35978232996E+01  0.11721670097E+02  0.51100000000E-03 0.  1.
        -11    1    3    3    0    0  0.24763032409E+01 -0.19938298428E+02 -0.15814608426E+02  0.25568919842E+02  0.51100000000E-03 0. -1.
         12    1    3    3    0    0 -0.37400548372E+01 -0.22115687826E+01  0.21578259589E+02  0.22011368280E+02  0.00000000000E+00 0. -1.
</event>
<event>
 7    1  0.1204848E-011  0.5930196E+02  0.7816164E-02  0.1266605E+00
        -11   -1    0    0    0    0  0.00000000000E+00  0.00000000000E+00  0.45593999997E+02  0.45594000000E+02  0.51100000000E-03 0.  1.
         11   -1    0    0    0    0 -0.00000000000E+00 -0.00000000000E+00 -0.45593999997E+02  0.45594000000E+02  0.51100000000E-03 0. -1.
    9900012    2    1    2    0    0 -0.27501629554E+02  0.53098327843E+01  0.15237642648E+02  0.59301957508E+02  0.50000024585E+02 0.  0.
         12    1    1    2    0    0  0.27501629554E+02 -0.53098327843E+01 -0.15237642648E+02  0.31886042492E+02  0.00000000000E+00 0. -1.
         11    1    3    3    0    0  0.55466244883E-01  0.10465581935E+02  0.10420520593E+02  0.14768843267E+02  0.51100000000E-03 0. -1.
        -11    1    3    3    0    0  0.54757146280E+01  0.66281817606E+01  0.39224227917E+01  0.94499547596E+01  0.51100000000E-03 0.  1.
         12    1    3    3    0    0 -0.33032810427E+02 -0.11783930911E+02  0.89469926298E+00  0.35083159482E+02  0.00000000000E+00 0. -1.
</event>
<event>
 7    1  0.1204848E-011  0.5930196E+02  0.7816164E-02  0.1266605E+00
        -11   -1    0    0    0    0  0.00000000000E+00  0.00000000000E+00  0.45593999997E+02  0.45594000000E+02  0.51100000000E-03 0. -1.
         11   -1    0    0    0    0 -0.00000000000E+00 -0.00000000000E+00 -0.45593999997E+02  0.45594000000E+02  0.51100000000E-03 0.  1.
    9900012    2    1    2    0    0 -0.22538581793E+02  0.18221566389E+02 -0.13293085625E+02  0.59301964242E+02  0.50000036866E+02 0.  0.
         12    1    1    2    0    0  0.22538581793E+02 -0.18221566389E+02  0.13293085625E+02  0.31886035758E+02  0.00000000000E+00 0. -1.
         11    1    3    3    0    0  0.52525688629E+01  0.38462451669E+01  0.69336224137E+01  0.95109516653E+01  0.51100000000E-03 0. -1.
        -11    1    3    3    0    0  0.34245493497E+01  0.64206110878E+01  0.50391742098E+01  0.88512745956E+01  0.51100000000E-03 0.  1.
        -12    1    3    3    0    0 -0.31215700006E+02  0.79547101344E+01 -0.25265882248E+02  0.40939737981E+02  0.00000000000E+00 0.  1.
</event>
<event>
 7    1  0.1204848E-011  0.5930194E+02  0.7816164E-02  0.1266605E+00
        -11   -1    0    0    0    0  0.00000000000E+00  0.00000000000E+00  0.45593999997E+02  0.45594000000E+02  0.51100000000E-03 0.  1.
         11   -1    0    0    0    0 -0.00000000000E+00 -0.00000000000E+00 -0.45593999997E+02  0.45594000000E+02  0.51100000000E-03 0. -1.
    9900012    2    1    2    0    0 -0.11903119655E+00 -0.11124485823E+02  0.29882307381E+02  0.59301942739E+02  0.49999997649E+02 0.  0.
         12    1    1    2    0    0  0.11903119655E+00  0.11124485823E+02 -0.29882307381E+02  0.31886057261E+02  0.00000000000E+00 0. -1.
         11    1    3    3    0    0  0.91490331551E+01  0.43306551964E+01  0.15633661146E+02  0.18624466253E+02  0.51100000000E-03 0. -1.
        -11    1    3    3    0    0 -0.10338600526E+02  0.12899842093E+01  0.20318517945E+02  0.22834029251E+02  0.51100000000E-03 0.  1.
         12    1    3    3    0    0  0.10705361744E+01 -0.16745125229E+02 -0.60698717103E+01  0.17843447235E+02  0.00000000000E+00 0. -1.
</event>
<event>
 7    1  0.1204848E-011  0.5930194E+02  0.7816164E-02  0.1266605E+00
        -11   -1    0    0    0    0  0.00000000000E+00  0.00000000000E+00  0.45593999997E+02  0.45594000000E+02  0.51100000000E-03 0.  1.
         11   -1    0    0    0    0 -0.00000000000E+00 -0.00000000000E+00 -0.45593999997E+02  0.45594000000E+02  0.51100000000E-03 0. -1.
    9900012    2    1    2    0    0  0.10929482844E+02 -0.24619350987E+02  0.17063259572E+02  0.59301939324E+02  0.49999991421E+02 0.  0.
         12    1    1    2    0    0 -0.10929482844E+02  0.24619350987E+02 -0.17063259572E+02  0.31886060676E+02  0.00000000000E+00 0. -1.
         11    1    3    3    0    0  0.23027209799E+01 -0.77828601676E+00 -0.67543024150E+01  0.71783601477E+01  0.51100000000E-03 0. -1.
        -11    1    3    3    0    0  0.64389629050E+01  0.16573681621E+01 -0.85689676468E+01  0.10845935612E+02  0.51100000000E-03 0.  1.
        -12    1    3    3    0    0  0.21877989590E+01 -0.25498433132E+02  0.32386529633E+02  0.41277643564E+02  0.00000000000E+00 0.  1.
</event>
<event>
 7    1  0.1204848E-011  0.5930185E+02  0.7816164E-02  0.1266605E+00
        -11   -1    0    0    0    0  0.00000000000E+00  0.00000000000E+00  0.45593999997E+02  0.45594000000E+02  0.51100000000E-03 0. -1.
         11   -1    0    0    0    0 -0.00000000000E+00 -0.00000000000E+00 -0.45593999997E+02  0.45594000000E+02  0.51100000000E-03 0.  1.
    9900012    2    1    2    0    0  0.28189307843E+02  0.14181796893E+02  0.45788864719E+01  0.59301848757E+02  0.49999826248E+02 0.  0.
         12    1    1    2    0    0 -0.28189307843E+02 -0.14181796893E+02 -0.45788864719E+01  0.31886151243E+02  0.00000000000E+00 0. -1.
         11    1    3    3    0    0  0.20971765264E+02  0.87009651702E+01 -0.84238906079E+01  0.24217424851E+02  0.51100000000E-03 0. -1.
        -11    1    3    3    0    0  0.16093859575E+02  0.82630179583E+01  0.17123978694E+02  0.24910247457E+02  0.51100000000E-03 0.  1.
         12    1    3    3    0    0 -0.88763169958E+01 -0.27821862356E+01 -0.41212016143E+01  0.10174176449E+02  0.00000000000E+00 0. -1.
</event>
<event>
 7    1  0.1204848E-011  0.5930213E+02  0.7816164E-02  0.1266604E+00
        -11   -1    0    0    0    0  0.00000000000E+00  0.00000000000E+00  0.45593999997E+02  0.45594000000E+02  0.51100000000E-03 0.  1.
         11   -1    0    0    0    0 -0.00000000000E+00 -0.00000000000E+00 -0.45593999997E+02  0.45594000000E+02  0.51100000000E-03 0. -1.
    9900012    2    1    2    0    0 -0.44447093973E+01  0.30424236176E+02  0.84450803943E+01  0.59302125833E+02  0.50000331568E+02 0.  0.
         12    1    1    2    0    0  0.44447093973E+01 -0.30424236176E+02 -0.84450803943E+01  0.31885874167E+02  0.00000000000E+00 0. -1.
         11    1    3    3    0    0  0.43549994094E+01  0.62140098015E-01 -0.59103352057E+01  0.73417943142E+01  0.51100000000E-03 0. -1.
        -11    1    3    3    0    0 -0.50331336944E+01 -0.90365032911E+01  0.24427892173E+01  0.10628172276E+02  0.51100000000E-03 0.  1.
        -12    1    3    3    0    0 -0.37665751122E+01  0.39398599369E+02  0.11912626383E+02  0.41332159243E+02  0.00000000000E+00 0.  1.
</event>
<event>
 7    1  0.1204848E-011  0.5930193E+02  0.7816164E-02  0.1266605E+00
        -11   -1    0    0    0    0  0.00000000000E+00  0.00000000000E+00  0.45593999997E+02  0.45594000000E+02  0.51100000000E-03 0.  1.
         11   -1    0    0    0    0 -0.00000000000E+00 -0.00000000000E+00 -0.45593999997E+02  0.45594000000E+02  0.51100000000E-03 0. -1.
    9900012    2    1    2    0    0 -0.90057158907E+01  0.33524635804E+01  0.30403609921E+02  0.59301930518E+02  0.49999975362E+02 0.  0.
         12    1    1    2    0    0  0.90057158907E+01 -0.33524635804E+01 -0.30403609921E+02  0.31886069482E+02  0.00000000000E+00 0. -1.
         11    1    3    3    0    0 -0.51008364518E+01  0.21747272113E+01 -0.42125949494E+00  0.55610638169E+01  0.51100000000E-03 0. -1.
        -11    1    3    3    0    0 -0.22572236860E+02  0.80251485084E+01  0.19260800035E+02  0.30739019238E+02  0.51100000000E-03 0.  1.
        -12    1    3    3    0    0  0.18667357421E+02 -0.68474121393E+01  0.11564069381E+02  0.23001847464E+02  0.00000000000E+00 0.  1.
</event>
<event>
 7    1  0.1204848E-011  0.5930196E+02  0.7816164E-02  0.1266605E+00
        -11   -1    0    0    0    0  0.00000000000E+00  0.00000000000E+00  0.45593999997E+02  0.45594000000E+02  0.51100000000E-03 0.  1.
         11   -1    0    0    0    0 -0.00000000000E+00 -0.00000000000E+00 -0.45593999997E+02  0.45594000000E+02  0.51100000000E-03 0. -1.
    9900012    2    1    2    0    0 -0.15561063071E+02  0.19754056009E+02  0.19604848467E+02  0.59301960795E+02  0.50000030580E+02 0.  0.
         12    1    1    2    0    0  0.15561063071E+02 -0.19754056009E+02 -0.19604848467E+02  0.31886039205E+02  0.00000000000E+00 0. -1.
         11    1    3    3    0    0 -0.20286434753E+02 -0.53675369057E+01  0.20003343607E+02  0.28991095929E+02  0.51100000000E-03 0.  1.
        -11    1    3    3    0    0 -0.57794613500E+01  0.88464178653E+01 -0.24021535080E+01  0.10836587299E+02  0.51100000000E-03 0. -1.
        -12    1    3    3    0    0  0.10504833032E+02  0.16275175050E+02  0.20036583682E+01  0.19474277568E+02  0.00000000000E+00 0.  1.
</event>
<event>
 7    1  0.1204848E-011  0.5930196E+02  0.7816164E-02  0.1266605E+00
        -11   -1    0    0    0    0  0.00000000000E+00  0.00000000000E+00  0.45593999997E+02  0.45594000000E+02  0.51100000000E-03 0.  1.
         11   -1    0    0    0    0 -0.00000000000E+00 -0.00000000000E+00 -0.45593999997E+02  0.45594000000E+02  0.51100000000E-03 0. -1.
    9900012    2    1    2    0    0 -0.81938906396E+00  0.28712196383E+02  0.13844053098E+02  0.59301961900E+02  0.50000032595E+02 0.  0.
         12    1    1    2    0    0  0.81938906396E+00 -0.28712196383E+02 -0.13844053098E+02  0.31886038100E+02  0.00000000000E+00 0. -1.
         11    1    3    3    0    0  0.35167253315E+01  0.37864430417E+02  0.63938014249E+01  0.38561161092E+02  0.51100000000E-03 0. -1.
        -11    1    3    3    0    0 -0.27422122447E+00  0.25260051574E+01  0.79701938214E+01  0.83653983257E+01  0.51100000000E-03 0.  1.
         12    1    3    3    0    0 -0.40618931709E+01 -0.11678239192E+02 -0.51994214870E+00  0.12375402482E+02  0.00000000000E+00 0. -1.
</event>
<event>
 7    1  0.1204848E-011  0.5930195E+02  0.7816164E-02  0.1266605E+00
        -11   -1    0    0    0    0  0.00000000000E+00  0.00000000000E+00  0.45593999997E+02  0.45594000000E+02  0.51100000000E-03 0.  1.
         11   -1    0    0    0    0 -0.00000000000E+00 -0.00000000000E+00 -0.45593999997E+02  0.45594000000E+02  0.51100000000E-03 0. -1.
    9900012    2    1    2    0    0  0.24768737792E+02 -0.91344693226E+01 -0.17882717052E+02  0.59301945512E+02  0.50000002707E+02 0.  0.
         12    1    1    2    0    0 -0.24768737792E+02  0.91344693226E+01  0.17882717052E+02  0.31886054488E+02  0.00000000000E+00 0. -1.
         11    1    3    3    0    0  0.62219747670E+01  0.41173501370E+01 -0.24434043094E+02  0.25547759282E+02  0.51100000000E-03 0. -1.
        -11    1    3    3    0    0  0.12040348402E+02 -0.91333266232E+01 -0.81413506924E+01  0.17165932430E+02  0.51100000000E-03 0.  1.
         12    1    3    3    0    0  0.65064146238E+01 -0.41184928364E+01  0.14692676735E+02  0.16588253800E+02  0.00000000000E+00 0. -1.
</event>
<event>
 7    1  0.1204848E-011  0.5930193E+02  0.7816164E-02  0.1266605E+00
        -11   -1    0    0    0    0  0.00000000000E+00  0.00000000000E+00  0.45593999997E+02  0.45594000000E+02  0.51100000000E-03 0.  1.
         11   -1    0    0    0    0 -0.00000000000E+00 -0.00000000000E+00 -0.45593999997E+02  0.45594000000E+02  0.51100000000E-03 0. -1.
    9900012    2    1    2    0    0  0.93187075719E+01 -0.16036017319E+02  0.25937020204E+02  0.59301934402E+02  0.49999982446E+02 0.  0.
         12    1    1    2    0    0 -0.93187075719E+01  0.16036017319E+02 -0.25937020204E+02  0.31886065598E+02  0.00000000000E+00 0. -1.
         11    1    3    3    0    0 -0.34591865963E+01 -0.24424724989E+01 -0.37937408313E+00  0.42515372246E+01  0.51100000000E-03 0. -1.
        -11    1    3    3    0    0  0.10233062650E+01 -0.24642343205E+02  0.57328881725E+00  0.24670243101E+02  0.51100000000E-03 0.  1.
         12    1    3    3    0    0  0.11754587903E+02  0.11048798385E+02  0.25743105469E+02  0.30380154077E+02  0.00000000000E+00 0. -1.
</event>
<event>
 7    1  0.1204848E-011  0.5930194E+02  0.7816164E-02  0.1266605E+00
        -11   -1    0    0    0    0  0.00000000000E+00  0.00000000000E+00  0.45593999997E+02  0.45594000000E+02  0.51100000000E-03 0.  1.
         11   -1    0    0    0    0 -0.00000000000E+00 -0.00000000000E+00 -0.45593999997E+02  0.45594000000E+02  0.51100000000E-03 0. -1.
    9900012    2    1    2    0    0 -0.40904208254E+01 -0.29519143562E+02  0.11340609809E+02  0.59301940193E+02  0.49999993006E+02 0.  0.
         12    1    1    2    0    0  0.40904208254E+01  0.29519143562E+02 -0.11340609809E+02  0.31886059807E+02  0.00000000000E+00 0. -1.
         11    1    3    3    0    0  0.28745593387E+00 -0.14049572382E+02 -0.88313109436E+00  0.14080235645E+02  0.51100000000E-03 0. -1.
        -11    1    3    3    0    0 -0.19798457034E+02 -0.18409123958E+02  0.34943469313E+01  0.27259589259E+02  0.51100000000E-03 0.  1.
         12    1    3    3    0    0  0.15420580275E+02  0.29395527774E+01  0.87293939723E+01  0.17962115289E+02  0.00000000000E+00 0. -1.
</event>
<event>
 7    1  0.1204848E-011  0.5930197E+02  0.7816164E-02  0.1266605E+00
        -11   -1    0    0    0    0  0.00000000000E+00  0.00000000000E+00  0.45593999997E+02  0.45594000000E+02  0.51100000000E-03 0. -1.
         11   -1    0    0    0    0 -0.00000000000E+00 -0.00000000000E+00 -0.45593999997E+02  0.45594000000E+02  0.51100000000E-03 0.  1.
    9900012    2    1    2    0    0 -0.18172634513E+02  0.21008164908E+02 -0.15656675821E+02  0.59301966448E+02  0.50000040889E+02 0.  0.
         12    1    1    2    0    0  0.18172634513E+02 -0.21008164908E+02  0.15656675821E+02  0.31886033552E+02  0.00000000000E+00 0. -1.
         11    1    3    3    0    0  0.76906492505E+01  0.52673375729E+01 -0.80179484666E-01  0.93218753484E+01  0.51100000000E-03 0. -1.
        -11    1    3    3    0    0 -0.21993517444E+02  0.17036411126E+02 -0.26437129790E+02  0.38378065942E+02  0.51100000000E-03 0.  1.
         12    1    3    3    0    0 -0.38697663191E+01 -0.12955837909E+01  0.10860633454E+02  0.11602025157E+02  0.00000000000E+00 0. -1.
</event>
<event>
 7    1  0.1204848E-011  0.5930195E+02  0.7816164E-02  0.1266605E+00
        -11   -1    0    0    0    0  0.00000000000E+00  0.00000000000E+00  0.45593999997E+02  0.45594000000E+02  0.51100000000E-03 0.  1.
         11   -1    0    0    0    0 -0.00000000000E+00 -0.00000000000E+00 -0.45593999997E+02  0.45594000000E+02  0.51100000000E-03 0. -1.
    9900012    2    1    2    0    0 -0.12436765872E+02 -0.13615596321E+02  0.26012743606E+02  0.59301946019E+02  0.50000003632E+02 0.  0.
         12    1    1    2    0    0  0.12436765872E+02  0.13615596321E+02 -0.26012743606E+02  0.31886053981E+02  0.00000000000E+00 0. -1.
         11    1    3    3    0    0  0.68506870753E+01 -0.14979351879E+02  0.69217060131E+01  0.17866810306E+02  0.51100000000E-03 0. -1.
        -11    1    3    3    0    0 -0.10159405532E+02 -0.14790842736E+02  0.11921360769E+02  0.21543012614E+02  0.51100000000E-03 0.  1.
        -12    1    3    3    0    0 -0.91280474156E+01  0.16154598294E+02  0.71696768241E+01  0.19892123100E+02  0.00000000000E+00 0.  1.
</event>
<event>
 7    1  0.1204848E-011  0.5930193E+02  0.7816164E-02  0.1266605E+00
        -11   -1    0    0    0    0  0.00000000000E+00  0.00000000000E+00  0.45593999997E+02  0.45594000000E+02  0.51100000000E-03 0.  1.
         11   -1    0    0    0    0 -0.00000000000E+00 -0.00000000000E+00 -0.45593999997E+02  0.45594000000E+02  0.51100000000E-03 0. -1.
    9900012    2    1    2    0    0 -0.17570204726E+01 -0.12584141609E+02  0.29245061399E+02  0.59301931613E+02  0.49999977358E+02 0.  0.
         12    1    1    2    0    0  0.17570204726E+01  0.12584141609E+02 -0.29245061399E+02  0.31886068387E+02  0.00000000000E+00 0. -1.
         11    1    3    3    0    0 -0.88286515415E+01  0.40902100970E+01  0.11671035283E+02  0.15194998240E+02  0.51100000000E-03 0. -1.
        -11    1    3    3    0    0  0.89775969646E+01  0.86040975331E+01  0.13632904676E+02  0.18452203981E+02  0.51100000000E-03 0.  1.
         12    1    3    3    0    0 -0.19059658957E+01 -0.25278449239E+02  0.39411214402E+01  0.25654729391E+02  0.00000000000E+00 0. -1.
</event>
<event>
 7    1  0.1204848E-011  0.5930195E+02  0.7816164E-02  0.1266605E+00
        -11   -1    0    0    0    0  0.00000000000E+00  0.00000000000E+00  0.45593999997E+02  0.45594000000E+02  0.51100000000E-03 0.  1.
         11   -1    0    0    0    0 -0.00000000000E+00 -0.00000000000E+00 -0.45593999997E+02  0.45594000000E+02  0.51100000000E-03 0. -1.
    9900012    2    1    2    0    0  0.20590946102E+02  0.17980779028E+02 -0.16414167278E+02  0.59301947199E+02  0.50000005783E+02 0.  0.
         12    1    1    2    0    0 -0.20590946102E+02 -0.17980779028E+02  0.16414167278E+02  0.31886052801E+02  0.00000000000E+00 0. -1.
         11    1    3    3    0    0  0.91089056174E+01 -0.43694497992E+01 -0.27246233144E+02  0.29058931052E+02  0.51100000000E-03 0. -1.
        -11    1    3    3    0    0 -0.16337466695E+00 -0.60534355876E+00 -0.15553065741E+01  0.16769349739E+01  0.51100000000E-03 0.  1.
        -12    1    3    3    0    0  0.11645415152E+02  0.22955572386E+02  0.12387372440E+02  0.28566081173E+02  0.00000000000E+00 0.  1.
</event>
<event>
 7    1  0.1204848E-011  0.5930205E+02  0.7816164E-02  0.1266604E+00
        -11   -1    0    0    0    0  0.00000000000E+00  0.00000000000E+00  0.45593999997E+02  0.45594000000E+02  0.51100000000E-03 0.  1.
         11   -1    0    0    0    0 -0.00000000000E+00 -0.00000000000E+00 -0.45593999997E+02  0.45594000000E+02  0.51100000000E-03 0. -1.
    9900012    2    1    2    0    0  0.28912295014E+02 -0.12175519478E+02  0.57052335549E+01  0.59302050627E+02  0.50000194410E+02 0.  0.
         12    1    1    2    0    0 -0.28912295014E+02  0.12175519478E+02 -0.57052335549E+01  0.31885949373E+02  0.00000000000E+00 0. -1.
         11    1    3    3    0    0  0.11925659548E+02 -0.23099460763E+02  0.20941563051E+02  0.33381963790E+02  0.51100000000E-03 0.  1.
        -11    1    3    3    0    0  0.10028896567E+01  0.11282240239E+01 -0.34769257034E+01  0.37904735482E+01  0.51100000000E-03 0. -1.
        -12    1    3    3    0    0  0.15983745810E+02  0.97957172611E+01 -0.11759403792E+02  0.22129613289E+02  0.00000000000E+00 0.  1.
</event>
<event>
 7    1  0.1204848E-011  0.5930194E+02  0.7816164E-02  0.1266605E+00
        -11   -1    0    0    0    0  0.00000000000E+00  0.00000000000E+00  0.45593999997E+02  0.45594000000E+02  0.51100000000E-03 0. -1.
         11   -1    0    0    0    0 -0.00000000000E+00 -0.00000000000E+00 -0.45593999997E+02  0.45594000000E+02  0.51100000000E-03 0.  1.
    9900012    2    1    2    0    0 -0.25602493152E+02  0.56676107838E+01 -0.18141421047E+02  0.59301943091E+02  0.49999998292E+02 0.  0.
         12    1    1    2    0    0  0.25602493152E+02 -0.56676107838E+01  0.18141421047E+02  0.31886056909E+02  0.00000000000E+00 0. -1.
         11    1    3    3    0    0 -0.56067441355E+01 -0.43418770239E+00 -0.11037069497E+02  0.12387130503E+02  0.51100000000E-03 0.  1.
        -11    1    3    3    0    0 -0.23644526182E+02 -0.12242508274E+02 -0.90222970599E+01  0.28113065853E+02  0.51100000000E-03 0. -1.
         12    1    3    3    0    0  0.36487771651E+01  0.18344306760E+02  0.19179455093E+01  0.18801746735E+02  0.00000000000E+00 0. -1.
</event>
<event>
 7    1  0.1204848E-011  0.5930197E+02  0.7816164E-02  0.1266605E+00
        -11   -1    0    0    0    0  0.00000000000E+00  0.00000000000E+00  0.45593999997E+02  0.45594000000E+02  0.51100000000E-03 0.  1.
         11   -1    0    0    0    0 -0.00000000000E+00 -0.00000000000E+00 -0.45593999997E+02  0.45594000000E+02  0.51100000000E-03 0. -1.
    9900012    2    1    2    0    0  0.13088308865E+02  0.17074025647E+02  0.23534931280E+02  0.59301965892E+02  0.50000039875E+02 0.  0.
         12    1    1    2    0    0 -0.13088308865E+02 -0.17074025647E+02 -0.23534931280E+02  0.31886034108E+02  0.00000000000E+00 0. -1.
         11    1    3    3    0    0  0.28771710286E+01 -0.11063005070E+01  0.18637962047E+02  0.18891152518E+02  0.51100000000E-03 0. -1.
        -11    1    3    3    0    0  0.18368847855E+02  0.19818771786E+00 -0.39235910321E+01  0.18784259813E+02  0.51100000000E-03 0.  1.
         12    1    3    3    0    0 -0.81577100183E+01  0.17982138437E+02  0.88205602654E+01  0.21626553560E+02  0.00000000000E+00 0. -1.
</event>
<event>
 7    1  0.1204848E-011  0.5930193E+02  0.7816164E-02  0.1266605E+00
        -11   -1    0    0    0    0  0.00000000000E+00  0.00000000000E+00  0.45593999997E+02  0.45594000000E+02  0.51100000000E-03 0. -1.
         11   -1    0    0    0    0 -0.00000000000E+00 -0.00000000000E+00 -0.45593999997E+02  0.45594000000E+02  0.51100000000E-03 0.  1.
    9900012    2    1    2    0    0 -0.24740075387E+02  0.11670111448E+01 -0.20082029192E+02  0.59301934993E+02  0.49999983523E+02 0.  0.
         12    1    1    2    0    0  0.24740075387E+02 -0.11670111448E+01  0.20082029192E+02  0.31886065007E+02  0.00000000000E+00 0. -1.
         11    1    3    3    0    0 -0.72337472339E+00  0.53386431546E+01 -0.96080361958E+01  0.11015386581E+02  0.51100000000E-03 0. -1.
        -11    1    3    3    0    0  0.86897339196E+00  0.10319016209E+02 -0.15907584625E+02  0.18981266005E+02  0.51100000000E-03 0.  1.
         12    1    3    3    0    0 -0.24885674055E+02 -0.14490648219E+02  0.54335916286E+01  0.29305282408E+02  0.00000000000E+00 0. -1.
</event>
<event>
 7    1  0.1204848E-011  0.5930194E+02  0.7816164E-02  0.1266605E+00
        -11   -1    0    0    0    0  0.00000000000E+00  0.00000000000E+00  0.45593999997E+02  0.45594000000E+02  0.51100000000E-03 0.  1.
         11   -1    0    0    0    0 -0.00000000000E+00 -0.00000000000E+00 -0.45593999997E+02  0.45594000000E+02  0.51100000000E-03 0. -1.
    9900012    2    1    2    0    0 -0.26835007063E+02  0.17221438839E+02  0.15888619620E+00  0.59301940278E+02  0.49999993162E+02 0.  0.
         12    1    1    2    0    0  0.26835007063E+02 -0.17221438839E+02 -0.15888619620E+00  0.31886059722E+02  0.00000000000E+00 0. -1.
         11    1    3    3    0    0 -0.15524348749E+02 -0.28641334339E+01  0.42519964797E+01  0.16348949163E+02  0.51100000000E-03 0. -1.
        -11    1    3    3    0    0 -0.13866978427E+02  0.13789179501E+01  0.11810513004E+02  0.18266984510E+02  0.51100000000E-03 0.  1.
        -12    1    3    3    0    0  0.25563201133E+01  0.18706654323E+02 -0.15903623287E+02  0.24686006605E+02  0.00000000000E+00 0.  1.
</event>
<event>
 7    1  0.1204848E-011  0.5930168E+02  0.7816164E-02  0.1266606E+00
        -11   -1    0    0    0    0  0.00000000000E+00  0.00000000000E+00  0.45593999997E+02  0.45594000000E+02  0.51100000000E-03 0. -1.
         11   -1    0    0    0    0 -0.00000000000E+00 -0.00000000000E+00 -0.45593999997E+02  0.45594000000E+02  0.51100000000E-03 0.  1.
    9900012    2    1    2    0    0  0.31318267611E+02  0.55963387330E+01 -0.21411708076E+01  0.59301678391E+02  0.49999515539E+02 0.  0.
         12    1    1    2    0    0 -0.31318267611E+02 -0.55963387330E+01  0.21411708076E+01  0.31886321609E+02  0.00000000000E+00 0. -1.
         11    1    3    3    0    0  0.50056419727E+01 -0.82547970636E+01 -0.28850023183E+01  0.10075781099E+02  0.51100000000E-03 0. -1.
        -11    1    3    3    0    0 -0.32510866615E+00 -0.10162091349E+02 -0.72433229525E+01  0.12483570158E+02  0.51100000000E-03 0.  1.
         12    1    3    3    0    0  0.26637734304E+02  0.24013227145E+02  0.79871544632E+01  0.36742327134E+02  0.00000000000E+00 0. -1.
</event>
<event>
 7    1  0.1204848E-011  0.5930193E+02  0.7816164E-02  0.1266605E+00
        -11   -1    0    0    0    0  0.00000000000E+00  0.00000000000E+00  0.45593999997E+02  0.45594000000E+02  0.51100000000E-03 0.  1.
         11   -1    0    0    0    0 -0.00000000000E+00 -0.00000000000E+00 -0.45593999997E+02  0.45594000000E+02  0.51100000000E-03 0. -1.
    9900012    2    1    2    0    0  0.19263562932E+02 -0.17197785507E+02  0.18704887131E+02  0.59301929597E+02  0.49999973681E+02 0.  0.
         12    1    1    2    0    0 -0.19263562932E+02  0.17197785507E+02 -0.18704887131E+02  0.31886070403E+02  0.00000000000E+00 0. -1.
         11    1    3    3    0    0  0.46739451279E+01  0.74527556895E-01  0.16148003426E+01  0.49455937786E+01  0.51100000000E-03 0. -1.
        -11    1    3    3    0    0  0.28917252875E+02 -0.21093655142E+01  0.16765675836E+02  0.33492459199E+02  0.51100000000E-03 0.  1.
         12    1    3    3    0    0 -0.14327635071E+02 -0.15162947549E+02  0.32441095207E+00  0.20863876619E+02  0.00000000000E+00 0. -1.
</event>
<event>
 7    1  0.1204848E-011  0.5930195E+02  0.7816164E-02  0.1266605E+00
        -11   -1    0    0    0    0  0.00000000000E+00  0.00000000000E+00  0.45593999997E+02  0.45594000000E+02  0.51100000000E-03 0. -1.
         11   -1    0    0    0    0 -0.00000000000E+00 -0.00000000000E+00 -0.45593999997E+02  0.45594000000E+02  0.51100000000E-03 0.  1.
    9900012    2    1    2    0    0 -0.27601220810E+02 -0.12324338001E+02  0.10149052618E+02  0.59301953422E+02  0.50000017132E+02 0.  0.
         12    1    1    2    0    0  0.27601220810E+02  0.12324338001E+02 -0.10149052618E+02  0.31886046578E+02  0.00000000000E+00 0. -1.
         11    1    3    3    0    0  0.28271046791E+01 -0.11883643901E+02  0.14755022955E+02  0.19155266010E+02  0.51100000000E-03 0.  1.
        -11    1    3    3    0    0 -0.28654966916E+02 -0.13411037045E+01  0.60410310186E+01  0.29315520533E+02  0.51100000000E-03 0. -1.
        -12    1    3    3    0    0 -0.17733585732E+01  0.90040960466E+00 -0.10647001356E+02  0.10831166879E+02  0.00000000000E+00 0.  1.
</event>
<event>
 7    1  0.1204848E-011  0.5930194E+02  0.7816164E-02  0.1266605E+00
        -11   -1    0    0    0    0  0.00000000000E+00  0.00000000000E+00  0.45593999997E+02  0.45594000000E+02  0.51100000000E-03 0.  1.
         11   -1    0    0    0    0 -0.00000000000E+00 -0.00000000000E+00 -0.45593999997E+02  0.45594000000E+02  0.51100000000E-03 0. -1.
    9900012    2    1    2    0    0 -0.25424345355E+02  0.19197523658E+02  0.13336053043E+01  0.59301941065E+02  0.49999994596E+02 0.  0.
         12    1    1    2    0    0  0.25424345355E+02 -0.19197523658E+02 -0.13336053043E+01  0.31886058935E+02  0.00000000000E+00 0. -1.
         11    1    3    3    0    0 -0.13989790535E+02  0.11376771644E+02  0.42935545404E+01  0.18535905241E+02  0.51100000000E-03 0. -1.
        -11    1    3    3    0    0 -0.12030162092E+02  0.16550413334E+02 -0.15363571661E+02  0.25586721477E+02  0.51100000000E-03 0.  1.
        -12    1    3    3    0    0  0.59560727261E+00 -0.87296613196E+01  0.12403622425E+02  0.15179314347E+02  0.00000000000E+00 0.  1.
</event>
<event>
 7    1  0.1204848E-011  0.5930193E+02  0.7816164E-02  0.1266605E+00
        -11   -1    0    0    0    0  0.00000000000E+00  0.00000000000E+00  0.45593999997E+02  0.45594000000E+02  0.51100000000E-03 0. -1.
         11   -1    0    0    0    0 -0.00000000000E+00 -0.00000000000E+00 -0.45593999997E+02  0.45594000000E+02  0.51100000000E-03 0.  1.
    9900012    2    1    2    0    0 -0.92508691795E+01 -0.10035433070E+02 -0.28817238293E+02  0.59301925918E+02  0.49999966973E+02 0.  0.
         12    1    1    2    0    0  0.92508691795E+01  0.10035433070E+02  0.28817238293E+02  0.31886074082E+02  0.00000000000E+00 0. -1.
         11    1    3    3    0    0 -0.16198421678E+02  0.83044635920E+01 -0.22233025496E+02  0.28734307080E+02  0.51100000000E-03 0.  1.
        -11    1    3    3    0    0  0.27304361709E+01  0.22307773751E+01 -0.87733407303E+01  0.94553242785E+01  0.51100000000E-03 0. -1.
        -12    1    3    3    0    0  0.42171163279E+01 -0.20570674037E+02  0.21891279327E+01  0.21112294560E+02  0.00000000000E+00 0.  1.
</event>
<event>
 7    1  0.1204848E-011  0.5930195E+02  0.7816164E-02  0.1266605E+00
        -11   -1    0    0    0    0  0.00000000000E+00  0.00000000000E+00  0.45593999997E+02  0.45594000000E+02  0.51100000000E-03 0. -1.
         11   -1    0    0    0    0 -0.00000000000E+00 -0.00000000000E+00 -0.45593999997E+02  0.45594000000E+02  0.51100000000E-03 0.  1.
    9900012    2    1    2    0    0  0.14009327470E+02 -0.33843426835E+01 -0.28443019197E+02  0.59301947052E+02  0.50000005515E+02 0.  0.
         12    1    1    2    0    0 -0.14009327470E+02  0.33843426835E+01  0.28443019197E+02  0.31886052948E+02  0.00000000000E+00 0. -1.
         11    1    3    3    0    0 -0.41806134208E+01  0.12028195939E+02  0.12153561268E+01  0.12791876989E+02  0.51100000000E-03 0. -1.
        -11    1    3    3    0    0  0.15506319655E+02  0.18347051450E+01 -0.23061230010E+02  0.27850178133E+02  0.51100000000E-03 0.  1.
         12    1    3    3    0    0  0.26836212360E+01 -0.17247243768E+02 -0.65971453135E+01  0.18659891929E+02  0.00000000000E+00 0. -1.
</event>
<event>
 7    1  0.1204848E-011  0.5930194E+02  0.7816164E-02  0.1266605E+00
        -11   -1    0    0    0    0  0.00000000000E+00  0.00000000000E+00  0.45593999997E+02  0.45594000000E+02  0.51100000000E-03 0. -1.
         11   -1    0    0    0    0 -0.00000000000E+00 -0.00000000000E+00 -0.45593999997E+02  0.45594000000E+02  0.51100000000E-03 0.  1.
    9900012    2    1    2    0    0 -0.18343835502E+02  0.25476536807E+02 -0.55830858877E+01  0.59301936012E+02  0.49999985382E+02 0.  0.
         12    1    1    2    0    0  0.18343835502E+02 -0.25476536807E+02  0.55830858877E+01  0.31886063988E+02  0.00000000000E+00 0. -1.
         11    1    3    3    0    0 -0.63457380633E+01 -0.64180103371E+00  0.17527923133E+02  0.18652302533E+02  0.51100000000E-03 0. -1.
        -11    1    3    3    0    0 -0.25129432968E+01 -0.10853682887E+00  0.19281419492E+01  0.31692894935E+01  0.51100000000E-03 0.  1.
        -12    1    3    3    0    0 -0.94851541417E+01  0.26226874669E+02 -0.25039150970E+02  0.37480343986E+02  0.00000000000E+00 0.  1.
</event>
<event>
 7    1  0.1204848E-011  0.5930194E+02  0.7816164E-02  0.1266605E+00
        -11   -1    0    0    0    0  0.00000000000E+00  0.00000000000E+00  0.45593999997E+02  0.45594000000E+02  0.51100000000E-03 0.  1.
         11   -1    0    0    0    0 -0.00000000000E+00 -0.00000000000E+00 -0.45593999997E+02  0.45594000000E+02  0.51100000000E-03 0. -1.
    9900012    2    1    2    0    0 -0.14478804183E+02 -0.22138786757E+02  0.17803350315E+02  0.59301938279E+02  0.49999989515E+02 0.  0.
         12    1    1    2    0    0  0.14478804183E+02  0.22138786757E+02 -0.17803350315E+02  0.31886061721E+02  0.00000000000E+00 0. -1.
         11    1    3    3    0    0 -0.96350070571E+01 -0.27793722886E+02  0.58432975648E+01  0.29991140684E+02  0.51100000000E-03 0. -1.
        -11    1    3    3    0    0 -0.50776730684E+01 -0.25375120485E+01  0.18164892738E+02  0.19031160228E+02  0.51100000000E-03 0.  1.
         12    1    3    3    0    0  0.23387594234E+00  0.81924481772E+01 -0.62048399881E+01  0.10279637366E+02  0.00000000000E+00 0. -1.
</event>
<event>
 7    1  0.1204848E-011  0.5930191E+02  0.7816164E-02  0.1266605E+00
        -11   -1    0    0    0    0  0.00000000000E+00  0.00000000000E+00  0.45593999997E+02  0.45594000000E+02  0.51100000000E-03 0.  1.
         11   -1    0    0    0    0 -0.00000000000E+00 -0.00000000000E+00 -0.45593999997E+02  0.45594000000E+02  0.51100000000E-03 0. -1.
    9900012    2    1    2    0    0  0.15909483845E+02 -0.21666632229E+02  0.17151328337E+02  0.59301910681E+02  0.49999939183E+02 0.  0.
         12    1    1    2    0    0 -0.15909483845E+02  0.21666632229E+02 -0.17151328337E+02  0.31886089319E+02  0.00000000000E+00 0. -1.
         11    1    3    3    0    0  0.38472844836E+01  0.11989616513E+02  0.52784376785E+01  0.13653366128E+02  0.51100000000E-03 0. -1.
        -11    1    3    3    0    0  0.99935939066E+01 -0.51464127838E+01 -0.51655499933E+01  0.12370949467E+02  0.51100000000E-03 0.  1.
         12    1    3    3    0    0  0.20686054549E+01 -0.28509835958E+02  0.17038440651E+02  0.33277595086E+02  0.00000000000E+00 0. -1.
</event>
<event>
 7    1  0.1204848E-011  0.5930218E+02  0.7816164E-02  0.1266604E+00
        -11   -1    0    0    0    0  0.00000000000E+00  0.00000000000E+00  0.45593999997E+02  0.45594000000E+02  0.51100000000E-03 0. -1.
         11   -1    0    0    0    0 -0.00000000000E+00 -0.00000000000E+00 -0.45593999997E+02  0.45594000000E+02  0.51100000000E-03 0.  1.
    9900012    2    1    2    0    0  0.26605084010E+02  0.52986910276E+01 -0.16757057620E+02  0.59302178670E+02  0.50000427930E+02 0.  0.
         12    1    1    2    0    0 -0.26605084010E+02 -0.52986910276E+01  0.16757057620E+02  0.31885821330E+02  0.00000000000E+00 0. -1.
         11    1    3    3    0    0  0.74947117968E+01  0.20088855005E+02 -0.24955826130E+01  0.21586123625E+02  0.51100000000E-03 0. -1.
        -11    1    3    3    0    0  0.13045890049E+02 -0.97966949211E+01  0.48769658483E+01  0.17028073135E+02  0.51100000000E-03 0.  1.
        -12    1    3    3    0    0  0.60644821643E+01 -0.49934690561E+01 -0.19138440855E+02  0.20687981910E+02  0.00000000000E+00 0.  1.
</event>
<event>
 7    1  0.1204848E-011  0.5930194E+02  0.7816164E-02  0.1266605E+00
        -11   -1    0    0    0    0  0.00000000000E+00  0.00000000000E+00  0.45593999997E+02  0.45594000000E+02  0.51100000000E-03 0.  1.
         11   -1    0    0    0    0 -0.00000000000E+00 -0.00000000000E+00 -0.45593999997E+02  0.45594000000E+02  0.51100000000E-03 0. -1.
    9900012    2    1    2    0    0 -0.19035656212E+02 -0.22832293266E+02  0.11534782047E+02  0.59301936899E+02  0.49999986999E+02 0.  0.
         12    1    1    2    0    0  0.19035656212E+02  0.22832293266E+02 -0.11534782047E+02  0.31886063101E+02  0.00000000000E+00 0. -1.
         11    1    3    3    0    0 -0.69736646066E+01 -0.15732178098E+02  0.17149692377E+02  0.24294966035E+02  0.51100000000E-03 0. -1.
        -11    1    3    3    0    0 -0.92421778617E+01 -0.19405765899E+02 -0.84340873067E+00  0.21510763360E+02  0.51100000000E-03 0.  1.
         12    1    3    3    0    0 -0.28198137440E+01  0.12305650732E+02 -0.47715015995E+01  0.13496207505E+02  0.00000000000E+00 0. -1.
</event>
<event>
 7    1  0.1204848E-011  0.5930195E+02  0.7816164E-02  0.1266605E+00
        -11   -1    0    0    0    0  0.00000000000E+00  0.00000000000E+00  0.45593999997E+02  0.45594000000E+02  0.51100000000E-03 0.  1.
         11   -1    0    0    0    0 -0.00000000000E+00 -0.00000000000E+00 -0.45593999997E+02  0.45594000000E+02  0.51100000000E-03 0. -1.
    9900012    2    1    2    0    0 -0.26062732790E+02 -0.14685087348E+02 -0.11036397289E+02  0.59301954525E+02  0.50000019145E+02 0.  0.
         12    1    1    2    0    0  0.26062732790E+02  0.14685087348E+02  0.11036397289E+02  0.31886045475E+02  0.00000000000E+00 0. -1.
         11    1    3    3    0    0  0.36547038146E+01 -0.63774794108E+01  0.60931757968E+01  0.95475596442E+01  0.51100000000E-03 0.  1.
        -11    1    3    3    0    0 -0.16545798446E+02 -0.22119741204E+02 -0.10435188054E+02  0.29528622507E+02  0.51100000000E-03 0. -1.
         12    1    3    3    0    0 -0.13171638158E+02  0.13812133267E+02 -0.66943850318E+01  0.20225772374E+02  0.00000000000E+00 0. -1.
</event>
<event>
 7    1  0.1204848E-011  0.5930195E+02  0.7816164E-02  0.1266605E+00
        -11   -1    0    0    0    0  0.00000000000E+00  0.00000000000E+00  0.45593999997E+02  0.45594000000E+02  0.51100000000E-03 0.  1.
         11   -1    0    0    0    0 -0.00000000000E+00 -0.00000000000E+00 -0.45593999997E+02  0.45594000000E+02  0.51100000000E-03 0. -1.
    9900012    2    1    2    0    0 -0.18476946082E+02 -0.23016014619E+02  0.12065892438E+02  0.59301949354E+02  0.50000009714E+02 0.  0.
         12    1    1    2    0    0  0.18476946082E+02  0.23016014619E+02 -0.12065892438E+02  0.31886050646E+02  0.00000000000E+00 0. -1.
         11    1    3    3    0    0  0.20212311686E+01 -0.13776866228E+01 -0.12788356700E+02  0.13020194439E+02  0.51100000000E-03 0. -1.
        -11    1    3    3    0    0 -0.18874816395E+02 -0.18067801348E+02  0.57170518456E+01  0.26746753477E+02  0.51100000000E-03 0.  1.
        -12    1    3    3    0    0 -0.16233608559E+01 -0.35705266483E+01  0.19137197292E+02  0.19535001439E+02  0.00000000000E+00 0.  1.
</event>
<event>
 7    1  0.1204848E-011  0.5930194E+02  0.7816164E-02  0.1266605E+00
        -11   -1    0    0    0    0  0.00000000000E+00  0.00000000000E+00  0.45593999997E+02  0.45594000000E+02  0.51100000000E-03 0.  1.
         11   -1    0    0    0    0 -0.00000000000E+00 -0.00000000000E+00 -0.45593999997E+02  0.45594000000E+02  0.51100000000E-03 0. -1.
    9900012    2    1    2    0    0 -0.25253914979E+02 -0.21681727840E+01  0.19345783428E+02  0.59301944561E+02  0.50000000973E+02 0.  0.
         12    1    1    2    0    0  0.25253914979E+02  0.21681727840E+01 -0.19345783428E+02  0.31886055439E+02  0.00000000000E+00 0. -1.
         11    1    3    3    0    0 -0.11647961505E+01 -0.10664605701E+02  0.22531871236E+01  0.10962090006E+02  0.51100000000E-03 0. -1.
        -11    1    3    3    0    0  0.11909015686E+01  0.82123840006E+01  0.21163804429E+02  0.22732534299E+02  0.51100000000E-03 0.  1.
        -12    1    3    3    0    0 -0.25280020398E+02  0.28404891634E+00 -0.40712081246E+01  0.25607320256E+02  0.00000000000E+00 0.  1.
</event>
<event>
 7    1  0.1204848E-011  0.5930205E+02  0.7816164E-02  0.1266604E+00
        -11   -1    0    0    0    0  0.00000000000E+00  0.00000000000E+00  0.45593999997E+02  0.45594000000E+02  0.51100000000E-03 0. -1.
         11   -1    0    0    0    0 -0.00000000000E+00 -0.00000000000E+00 -0.45593999997E+02  0.45594000000E+02  0.51100000000E-03 0.  1.
    9900012    2    1    2    0    0 -0.20502108817E+02  0.19836619911E+02 -0.14243803195E+02  0.59302048785E+02  0.50000191052E+02 0.  0.
         12    1    1    2    0    0  0.20502108817E+02 -0.19836619911E+02  0.14243803195E+02  0.31885951215E+02  0.00000000000E+00 0. -1.
         11    1    3    3    0    0 -0.14613664550E+02  0.15835369081E+02 -0.59136430605E+01  0.22344781941E+02  0.51100000000E-03 0. -1.
        -11    1    3    3    0    0 -0.83484360401E+01  0.18920344103E+02 -0.67516349374E+01  0.21754548487E+02  0.51100000000E-03 0.  1.
         12    1    3    3    0    0  0.24599917731E+01 -0.14919093273E+02 -0.15785251972E+01  0.15202718356E+02  0.00000000000E+00 0. -1.
</event>
<event>
 7    1  0.1204848E-011  0.5930200E+02  0.7816164E-02  0.1266605E+00
        -11   -1    0    0    0    0  0.00000000000E+00  0.00000000000E+00  0.45593999997E+02  0.45594000000E+02  0.51100000000E-03 0. -1.
         11   -1    0    0    0    0 -0.00000000000E+00 -0.00000000000E+00 -0.45593999997E+02  0.45594000000E+02  0.51100000000E-03 0.  1.
    9900012    2    1    2    0    0 -0.99872709844E+01 -0.26912546751E+02 -0.13881141609E+02  0.59302002341E+02  0.50000106349E+02 0.  0.
         12    1    1    2    0    0  0.99872709844E+01  0.26912546751E+02  0.13881141609E+02  0.31885997659E+02  0.00000000000E+00 0. -1.
         11    1    3    3    0    0 -0.14817523341E+02 -0.53956684729E+01 -0.13974994228E+02  0.21070659700E+02  0.51100000000E-03 0. -1.
        -11    1    3    3    0    0 -0.97781659132E+01 -0.62503133053E+01 -0.95264978821E+01  0.15014429966E+02  0.51100000000E-03 0.  1.
         12    1    3    3    0    0  0.14608418270E+02 -0.15266564973E+02  0.96203505015E+01  0.23216912676E+02  0.00000000000E+00 0. -1.
</event>
<event>
 7    1  0.1204848E-011  0.5930194E+02  0.7816164E-02  0.1266605E+00
        -11   -1    0    0    0    0  0.00000000000E+00  0.00000000000E+00  0.45593999997E+02  0.45594000000E+02  0.51100000000E-03 0.  1.
         11   -1    0    0    0    0 -0.00000000000E+00 -0.00000000000E+00 -0.45593999997E+02  0.45594000000E+02  0.51100000000E-03 0. -1.
    9900012    2    1    2    0    0  0.11608605747E+02  0.16714491427E+02  0.24547640806E+02  0.59301943170E+02  0.49999998435E+02 0.  0.
         12    1    1    2    0    0 -0.11608605747E+02 -0.16714491427E+02 -0.24547640806E+02  0.31886056830E+02  0.00000000000E+00 0. -1.
         11    1    3    3    0    0  0.48121569247E+01 -0.56916799610E+01  0.12824839268E+02  0.14833360292E+02  0.51100000000E-03 0. -1.
        -11    1    3    3    0    0  0.55321194377E+01 -0.62625038682E+01  0.13323964484E+02  0.15727406971E+02  0.51100000000E-03 0.  1.
         12    1    3    3    0    0  0.12643293848E+01  0.28668675256E+02 -0.16011629463E+01  0.28741175907E+02  0.00000000000E+00 0. -1.
</event>
<event>
 7    1  0.1204848E-011  0.5930195E+02  0.7816164E-02  0.1266605E+00
        -11   -1    0    0    0    0  0.00000000000E+00  0.00000000000E+00  0.45593999997E+02  0.45594000000E+02  0.51100000000E-03 0.  1.
         11   -1    0    0    0    0 -0.00000000000E+00 -0.00000000000E+00 -0.45593999997E+02  0.45594000000E+02  0.51100000000E-03 0. -1.
    9900012    2    1    2    0    0 -0.28565731730E+02 -0.13689553445E+02 -0.36490543042E+01  0.59301945052E+02  0.50000001869E+02 0.  0.
         12    1    1    2    0    0  0.28565731730E+02  0.13689553445E+02  0.36490543042E+01  0.31886054948E+02  0.00000000000E+00 0. -1.
         11    1    3    3    0    0 -0.25896849083E+02  0.24619605057E+01  0.60571522340E+01  0.26709495229E+02  0.51100000000E-03 0. -1.
        -11    1    3    3    0    0  0.24623698358E+00  0.22352603631E+01 -0.13421771608E+02  0.13608856488E+02  0.51100000000E-03 0.  1.
        -12    1    3    3    0    0 -0.29151196311E+01 -0.18386774314E+02  0.37155650700E+01  0.18983593335E+02  0.00000000000E+00 0.  1.
</event>
<event>
 7    1  0.1204848E-011  0.5930167E+02  0.7816164E-02  0.1266606E+00
        -11   -1    0    0    0    0  0.00000000000E+00  0.00000000000E+00  0.45593999997E+02  0.45594000000E+02  0.51100000000E-03 0. -1.
         11   -1    0    0    0    0 -0.00000000000E+00 -0.00000000000E+00 -0.45593999997E+02  0.45594000000E+02  0.51100000000E-03 0.  1.
    9900012    2    1    2    0    0  0.18273095288E+02 -0.24692192531E+02  0.85514685150E+01  0.59301670685E+02  0.49999501487E+02 0.  0.
         12    1    1    2    0    0 -0.18273095288E+02  0.24692192531E+02 -0.85514685150E+01  0.31886329315E+02  0.00000000000E+00 0. -1.
         11    1    3    3    0    0  0.22400285662E+02 -0.54360926995E+01  0.18425455641E+02  0.29509681757E+02  0.51100000000E-03 0. -1.
        -11    1    3    3    0    0 -0.91251462072E+01 -0.69607742350E+01  0.23875589338E+01  0.11722675001E+02  0.51100000000E-03 0.  1.
        -12    1    3    3    0    0  0.49979558334E+01 -0.12295325597E+02 -0.12261546059E+02  0.18069313928E+02  0.00000000000E+00 0.  1.
</event>
<event>
 7    1  0.1204848E-011  0.5930194E+02  0.7816164E-02  0.1266605E+00
        -11   -1    0    0    0    0  0.00000000000E+00  0.00000000000E+00  0.45593999997E+02  0.45594000000E+02  0.51100000000E-03 0.  1.
         11   -1    0    0    0    0 -0.00000000000E+00 -0.00000000000E+00 -0.45593999997E+02  0.45594000000E+02  0.51100000000E-03 0. -1.
    9900012    2    1    2    0    0 -0.26998346683E+02  0.15833271795E+02 -0.60923984631E+01  0.59301944453E+02  0.50000000775E+02 0.  0.
         12    1    1    2    0    0  0.26998346683E+02 -0.15833271795E+02  0.60923984631E+01  0.31886055547E+02  0.00000000000E+00 0. -1.
         11    1    3    3    0    0 -0.17645375762E+02  0.95816402373E+01  0.32826413495E+01  0.20345585514E+02  0.51100000000E-03 0. -1.
        -11    1    3    3    0    0 -0.49973596711E+01  0.21416690510E+02 -0.45592980067E+01  0.22459640127E+02  0.51100000000E-03 0.  1.
         12    1    3    3    0    0 -0.43556112502E+01 -0.15165058953E+02 -0.48157418059E+01  0.16496718811E+02  0.00000000000E+00 0. -1.
</event>
<event>
 7    1  0.1204848E-011  0.5930191E+02  0.7816164E-02  0.1266605E+00
        -11   -1    0    0    0    0  0.00000000000E+00  0.00000000000E+00  0.45593999997E+02  0.45594000000E+02  0.51100000000E-03 0.  1.
         11   -1    0    0    0    0 -0.00000000000E+00 -0.00000000000E+00 -0.45593999997E+02  0.45594000000E+02  0.51100000000E-03 0. -1.
    9900012    2    1    2    0    0  0.29572634593E+02  0.11384841067E+02 -0.35450778106E+01  0.59301907427E+02  0.49999933250E+02 0.  0.
         12    1    1    2    0    0 -0.29572634593E+02 -0.11384841067E+02  0.35450778106E+01  0.31886092573E+02  0.00000000000E+00 0. -1.
         11    1    3    3    0    0  0.16775577855E+02  0.22604993575E+02  0.75892388022E+01  0.29154798795E+02  0.51100000000E-03 0. -1.
        -11    1    3    3    0    0  0.13498921380E+01  0.45485351558E+01  0.34007414334E+01  0.58375014694E+01  0.51100000000E-03 0.  1.
        -12    1    3    3    0    0  0.11447164600E+02 -0.15768687664E+02 -0.14535058046E+02  0.24309607163E+02  0.00000000000E+00 0.  1.
</event>
<event>
 7    1  0.1204848E-011  0.5930192E+02  0.7816164E-02  0.1266605E+00
        -11   -1    0    0    0    0  0.00000000000E+00  0.00000000000E+00  0.45593999997E+02  0.45594000000E+02  0.51100000000E-03 0.  1.
         11   -1    0    0    0    0 -0.00000000000E+00 -0.00000000000E+00 -0.45593999997E+02  0.45594000000E+02  0.51100000000E-03 0. -1.
    9900012    2    1    2    0    0  0.12438438316E+02  0.42662431200E+01  0.29048348308E+02  0.59301919690E+02  0.49999955614E+02 0.  0.
         12    1    1    2    0    0 -0.12438438316E+02 -0.42662431200E+01 -0.29048348308E+02  0.31886080310E+02  0.00000000000E+00 0. -1.
         11    1    3    3    0    0  0.96942492581E+01 -0.31499879395E+01  0.11047350739E+02  0.15031462049E+02  0.51100000000E-03 0. -1.
        -11    1    3    3    0    0  0.50781042195E+01 -0.10369026411E+02  0.22925777285E+02  0.25668952366E+02  0.51100000000E-03 0.  1.
        -12    1    3    3    0    0 -0.23339151616E+01  0.17785257470E+02 -0.49247797168E+01  0.18601505276E+02  0.00000000000E+00 0.  1.
</event>
<event>
 7    1  0.1204848E-011  0.5930194E+02  0.7816164E-02  0.1266605E+00
        -11   -1    0    0    0    0  0.00000000000E+00  0.00000000000E+00  0.45593999997E+02  0.45594000000E+02  0.51100000000E-03 0.  1.
         11   -1    0    0    0    0 -0.00000000000E+00 -0.00000000000E+00 -0.45593999997E+02  0.45594000000E+02  0.51100000000E-03 0. -1.
    9900012    2    1    2    0    0 -0.24453475890E+02 -0.15845291999E+02  0.12948939356E+02  0.59301940474E+02  0.49999993519E+02 0.  0.
         12    1    1    2    0    0  0.24453475890E+02  0.15845291999E+02 -0.12948939356E+02  0.31886059526E+02  0.00000000000E+00 0. -1.
         11    1    3    3    0    0  0.41443112371E+00 -0.72672004039E+01  0.70100340710E+01  0.10105668350E+02  0.51100000000E-03 0. -1.
        -11    1    3    3    0    0 -0.39785763011E+01 -0.48995217137E+01  0.21810090404E+02  0.22704942768E+02  0.51100000000E-03 0.  1.
         12    1    3    3    0    0 -0.20889330712E+02 -0.36785698813E+01 -0.15871185119E+02  0.26491329356E+02  0.00000000000E+00 0. -1.
</event>
<event>
 7    1  0.1204848E-011  0.5930196E+02  0.7816164E-02  0.1266605E+00
        -11   -1    0    0    0    0  0.00000000000E+00  0.00000000000E+00  0.45593999997E+02  0.45594000000E+02  0.51100000000E-03 0.  1.
         11   -1    0    0    0    0 -0.00000000000E+00 -0.00000000000E+00 -0.45593999997E+02  0.45594000000E+02  0.51100000000E-03 0. -1.
    9900012    2    1    2    0    0 -0.51283345472E+01 -0.84158281185E+01  0.30324803599E+02  0.59301957733E+02  0.50000024995E+02 0.  0.
         12    1    1    2    0    0  0.51283345472E+01  0.84158281185E+01 -0.30324803599E+02  0.31886042267E+02  0.00000000000E+00 0. -1.
         11    1    3    3    0    0 -0.12479566977E+02 -0.22241822348E+02  0.16248449805E+02  0.30239880533E+02  0.51100000000E-03 0. -1.
        -11    1    3    3    0    0 -0.44350295738E+01  0.87852051141E+00 -0.23138708242E+01  0.50789057937E+01  0.51100000000E-03 0.  1.
        -12    1    3    3    0    0  0.11786262003E+02  0.12947473719E+02  0.16390224618E+02  0.23983171407E+02  0.00000000000E+00 0.  1.
</event>
<event>
 7    1  0.1204848E-011  0.5930194E+02  0.7816164E-02  0.1266605E+00
        -11   -1    0    0    0    0  0.00000000000E+00  0.00000000000E+00  0.45593999997E+02  0.45594000000E+02  0.51100000000E-03 0.  1.
         11   -1    0    0    0    0 -0.00000000000E+00 -0.00000000000E+00 -0.45593999997E+02  0.45594000000E+02  0.51100000000E-03 0. -1.
    9900012    2    1    2    0    0  0.12057578580E+02 -0.81618424549E+01  0.28367588396E+02  0.59301938078E+02  0.49999989150E+02 0.  0.
         12    1    1    2    0    0 -0.12057578580E+02  0.81618424549E+01 -0.28367588396E+02  0.31886061922E+02  0.00000000000E+00 0. -1.
         11    1    3    3    0    0  0.23422505812E+02 -0.15156661775E+01  0.77789713882E+01  0.24726977547E+02  0.51100000000E-03 0. -1.
        -11    1    3    3    0    0  0.10155926759E+01  0.36955167286E+01  0.17795300087E+02  0.18203323263E+02  0.51100000000E-03 0.  1.
         12    1    3    3    0    0 -0.12380519908E+02 -0.10341693006E+02  0.27933169208E+01  0.16371637268E+02  0.00000000000E+00 0. -1.
</event>
<event>
 7    1  0.1204848E-011  0.5930200E+02  0.7816164E-02  0.1266605E+00
        -11   -1    0    0    0    0  0.00000000000E+00  0.00000000000E+00  0.45593999997E+02  0.45594000000E+02  0.51100000000E-03 0.  1.
         11   -1    0    0    0    0 -0.00000000000E+00 -0.00000000000E+00 -0.45593999997E+02  0.45594000000E+02  0.51100000000E-03 0. -1.
    9900012    2    1    2    0    0  0.28348413271E+02 -0.12344638296E+02  0.77906602297E+01  0.59301999679E+02  0.50000101495E+02 0.  0.
         12    1    1    2    0    0 -0.28348413271E+02  0.12344638296E+02 -0.77906602297E+01  0.31886000321E+02  0.00000000000E+00 0. -1.
         11    1    3    3    0    0  0.10135760200E+02  0.39509555936E+01  0.12004863954E+00  0.10879250750E+02  0.51100000000E-03 0. -1.
        -11    1    3    3    0    0 -0.25313184086E+00  0.59146615450E+01 -0.12065734884E+02  0.13439838373E+02  0.51100000000E-03 0.  1.
        -12    1    3    3    0    0  0.18465784912E+02 -0.22210255434E+02  0.19736346474E+02  0.34982910557E+02  0.00000000000E+00 0.  1.
</event>
<event>
 7    1  0.1204848E-011  0.5930194E+02  0.7816164E-02  0.1266605E+00
        -11   -1    0    0    0    0  0.00000000000E+00  0.00000000000E+00  0.45593999997E+02  0.45594000000E+02  0.51100000000E-03 0. -1.
         11   -1    0    0    0    0 -0.00000000000E+00 -0.00000000000E+00 -0.45593999997E+02  0.45594000000E+02  0.51100000000E-03 0.  1.
    9900012    2    1    2    0    0  0.14273154915E+02 -0.27109241800E+02 -0.88366911995E+01  0.59301936374E+02  0.49999986042E+02 0.  0.
         12    1    1    2    0    0 -0.14273154915E+02  0.27109241800E+02  0.88366911995E+01  0.31886063626E+02  0.00000000000E+00 0. -1.
         11    1    3    3    0    0  0.43867515137E+01  0.11457060703E+02  0.22498700095E+01  0.12472760084E+02  0.51100000000E-03 0. -1.
        -11    1    3    3    0    0  0.86819245753E+01 -0.63486070580E+01  0.36807471396E+01  0.11367872522E+02  0.51100000000E-03 0.  1.
        -12    1    3    3    0    0  0.12044788261E+01 -0.32217695445E+02 -0.14767308349E+02  0.35461303768E+02  0.00000000000E+00 0.  1.
</event>
<event>
 7    1  0.1204848E-011  0.5930196E+02  0.7816164E-02  0.1266605E+00
        -11   -1    0    0    0    0  0.00000000000E+00  0.00000000000E+00  0.45593999997E+02  0.45594000000E+02  0.51100000000E-03 0.  1.
         11   -1    0    0    0    0 -0.00000000000E+00 -0.00000000000E+00 -0.45593999997E+02  0.45594000000E+02  0.51100000000E-03 0. -1.
    9900012    2    1    2    0    0 -0.77747827799E+00 -0.20384760275E+02  0.24506662001E+02  0.59301962204E+02  0.50000033148E+02 0.  0.
         12    1    1    2    0    0  0.77747827799E+00  0.20384760275E+02 -0.24506662001E+02  0.31886037796E+02  0.00000000000E+00 0. -1.
         11    1    3    3    0    0 -0.13744367856E+02 -0.63146143560E+01  0.86952753184E+01  0.17446770915E+02  0.51100000000E-03 0. -1.
        -11    1    3    3    0    0  0.24202214947E+01 -0.20414307373E+02 -0.15029611618E+01  0.20612139872E+02  0.51100000000E-03 0.  1.
         12    1    3    3    0    0  0.10546668083E+02  0.63441614540E+01  0.17314347844E+02  0.21243051417E+02  0.00000000000E+00 0. -1.
</event>
<event>
 7    1  0.1204848E-011  0.5930195E+02  0.7816164E-02  0.1266605E+00
        -11   -1    0    0    0    0  0.00000000000E+00  0.00000000000E+00  0.45593999997E+02  0.45594000000E+02  0.51100000000E-03 0. -1.
         11   -1    0    0    0    0 -0.00000000000E+00 -0.00000000000E+00 -0.45593999997E+02  0.45594000000E+02  0.51100000000E-03 0.  1.
    9900012    2    1    2    0    0 -0.52550081813E+01 -0.94206447244E+01 -0.30005941869E+02  0.59301949673E+02  0.50000010296E+02 0.  0.
         12    1    1    2    0    0  0.52550081813E+01  0.94206447244E+01  0.30005941869E+02  0.31886050327E+02  0.00000000000E+00 0. -1.
         11    1    3    3    0    0 -0.10488997101E+02 -0.63209196517E+01 -0.63549543063E+01  0.13797047870E+02  0.51100000000E-03 0. -1.
        -11    1    3    3    0    0 -0.55439148010E+01  0.63327512818E+01 -0.29014843892E+02  0.30210923462E+02  0.51100000000E-03 0.  1.
         12    1    3    3    0    0  0.10777903720E+02 -0.94324763545E+01  0.53638563290E+01  0.15293978341E+02  0.00000000000E+00 0. -1.
</event>
<event>
 7    1  0.1204848E-011  0.5930193E+02  0.7816164E-02  0.1266605E+00
        -11   -1    0    0    0    0  0.00000000000E+00  0.00000000000E+00  0.45593999997E+02  0.45594000000E+02  0.51100000000E-03 0.  1.
         11   -1    0    0    0    0 -0.00000000000E+00 -0.00000000000E+00 -0.45593999997E+02  0.45594000000E+02  0.51100000000E-03 0. -1.
    9900012    2    1    2    0    0  0.12447870176E+02  0.16357663881E+02  0.24376190100E+02  0.59301932771E+02  0.49999979470E+02 0.  0.
         12    1    1    2    0    0 -0.12447870176E+02 -0.16357663881E+02 -0.24376190100E+02  0.31886067229E+02  0.00000000000E+00 0. -1.
         11    1    3    3    0    0  0.89470403819E+01 -0.73114166886E+01 -0.64420272490E+01  0.13228985635E+02  0.51100000000E-03 0. -1.
        -11    1    3    3    0    0 -0.10343538141E+01 -0.50354578381E+01  0.55272738135E+01  0.75482765929E+01  0.51100000000E-03 0.  1.
        -12    1    3    3    0    0  0.45351836080E+01  0.28704538408E+02  0.25290943535E+02  0.38524670543E+02  0.00000000000E+00 0.  1.
</event>
<event>
 7    1  0.1204848E-011  0.5930192E+02  0.7816164E-02  0.1266605E+00
        -11   -1    0    0    0    0  0.00000000000E+00  0.00000000000E+00  0.45593999997E+02  0.45594000000E+02  0.51100000000E-03 0. -1.
         11   -1    0    0    0    0 -0.00000000000E+00 -0.00000000000E+00 -0.45593999997E+02  0.45594000000E+02  0.51100000000E-03 0.  1.
    9900012    2    1    2    0    0 -0.31459976068E+02 -0.32102206329E+01 -0.40848892551E+01  0.59301922616E+02  0.49999960949E+02 0.  0.
         12    1    1    2    0    0  0.31459976068E+02  0.32102206329E+01  0.40848892551E+01  0.31886077384E+02  0.00000000000E+00 0. -1.
         11    1    3    3    0    0 -0.75224770229E+01 -0.85574528618E+01  0.41916936623E+00  0.11401463207E+02  0.51100000000E-03 0. -1.
        -11    1    3    3    0    0  0.97234799521E+01  0.89554765864E+01 -0.47473134233E+01  0.14045768340E+02  0.51100000000E-03 0.  1.
         12    1    3    3    0    0 -0.33660978998E+02 -0.36082443574E+01  0.24325480190E+00  0.33854691068E+02  0.00000000000E+00 0. -1.
</event>
<event>
 7    1  0.1204848E-011  0.5930189E+02  0.7816164E-02  0.1266605E+00
        -11   -1    0    0    0    0  0.00000000000E+00  0.00000000000E+00  0.45593999997E+02  0.45594000000E+02  0.51100000000E-03 0.  1.
         11   -1    0    0    0    0 -0.00000000000E+00 -0.00000000000E+00 -0.45593999997E+02  0.45594000000E+02  0.51100000000E-03 0. -1.
    9900012    2    1    2    0    0  0.24097753162E+02 -0.49178283893E+01 -0.20293772659E+02  0.59301890920E+02  0.49999903144E+02 0.  0.
         12    1    1    2    0    0 -0.24097753162E+02  0.49178283893E+01  0.20293772659E+02  0.31886109080E+02  0.00000000000E+00 0. -1.
         11    1    3    3    0    0 -0.49179699228E+01 -0.57561205541E+00  0.79465970079E+01  0.93630209690E+01  0.51100000000E-03 0. -1.
        -11    1    3    3    0    0  0.26596363254E-01  0.25064663701E+00  0.53363125244E+01  0.53422619481E+01  0.51100000000E-03 0.  1.
         12    1    3    3    0    0  0.28989126722E+02 -0.45928629709E+01 -0.33576682191E+02  0.44596608003E+02  0.00000000000E+00 0. -1.
</event>
<event>
 7    1  0.1204848E-011  0.5930193E+02  0.7816164E-02  0.1266605E+00
        -11   -1    0    0    0    0  0.00000000000E+00  0.00000000000E+00  0.45593999997E+02  0.45594000000E+02  0.51100000000E-03 0.  1.
         11   -1    0    0    0    0 -0.00000000000E+00 -0.00000000000E+00 -0.45593999997E+02  0.45594000000E+02  0.51100000000E-03 0. -1.
    9900012    2    1    2    0    0 -0.95413555359E+00  0.24132926715E+02  0.20818571002E+02  0.59301930549E+02  0.49999975418E+02 0.  0.
         12    1    1    2    0    0  0.95413555359E+00 -0.24132926715E+02 -0.20818571002E+02  0.31886069451E+02  0.00000000000E+00 0. -1.
         11    1    3    3    0    0  0.27603758217E+01  0.15857346931E+01 -0.51812018644E+01  0.60810428559E+01  0.51100000000E-03 0. -1.
        -11    1    3    3    0    0 -0.48635160645E+01  0.33677835641E+02  0.13946957209E+02  0.36774556661E+02  0.51100000000E-03 0.  1.
         12    1    3    3    0    0  0.11490046892E+01 -0.11130643619E+02  0.12052815657E+02  0.16446331032E+02  0.00000000000E+00 0. -1.
</event>
<event>
 7    1  0.1515371E-011  0.5930195E+02  0.7816164E-02  0.1266605E+00
        -11   -1    0    0    0    0  0.00000000000E+00  0.00000000000E+00  0.45593999997E+02  0.45594000000E+02  0.51100000000E-03 0. -1.
         11   -1    0    0    0    0 -0.00000000000E+00 -0.00000000000E+00 -0.45593999997E+02  0.45594000000E+02  0.51100000000E-03 0.  1.
    9900012    2    1    2    0    0 -0.16818177100E+02  0.12358935456E+01 -0.27061809356E+02  0.59301952277E+02  0.50000015044E+02 0.  0.
         12    1    1    2    0    0  0.16818177100E+02 -0.12358935456E+01  0.27061809356E+02  0.31886047723E+02  0.00000000000E+00 0. -1.
         11    1    3    3    0    0  0.84095558948E+01 -0.99730078512E+00  0.24750356848E+01  0.88227570014E+01  0.51100000000E-03 0. -1.
        -11    1    3    3    0    0 -0.69370581055E+01 -0.13314238052E+02 -0.42294007401E+01  0.15597420971E+02  0.51100000000E-03 0.  1.
        -12    1    3    3    0    0 -0.18290674889E+02  0.15547432383E+02 -0.25307444300E+02  0.34881774304E+02  0.00000000000E+00 0.  1.
</event>
<event>
 7    1  0.1204848E-011  0.5930183E+02  0.7816164E-02  0.1266605E+00
        -11   -1    0    0    0    0  0.00000000000E+00  0.00000000000E+00  0.45593999997E+02  0.45594000000E+02  0.51100000000E-03 0. -1.
         11   -1    0    0    0    0 -0.00000000000E+00 -0.00000000000E+00 -0.45593999997E+02  0.45594000000E+02  0.51100000000E-03 0.  1.
    9900012    2    1    2    0    0 -0.84571838927E+01  0.17253356526E+02 -0.25446529095E+02  0.59301825664E+02  0.49999784132E+02 0.  0.
         12    1    1    2    0    0  0.84571838927E+01 -0.17253356526E+02  0.25446529095E+02  0.31886174336E+02  0.00000000000E+00 0. -1.
         11    1    3    3    0    0 -0.64350607180E+01 -0.12351858525E+02  0.11056073701E-01  0.13927617814E+02  0.51100000000E-03 0. -1.
        -11    1    3    3    0    0 -0.85441888316E+00 -0.24277005424E+01 -0.89627047299E+01  0.93249041758E+01  0.51100000000E-03 0.  1.
        -12    1    3    3    0    0 -0.11677042915E+01  0.32032915593E+02 -0.16494880439E+02  0.36049303674E+02  0.00000000000E+00 0.  1.
</event>
<event>
 7    1  0.1204848E-011  0.5930195E+02  0.7816164E-02  0.1266605E+00
        -11   -1    0    0    0    0  0.00000000000E+00  0.00000000000E+00  0.45593999997E+02  0.45594000000E+02  0.51100000000E-03 0.  1.
         11   -1    0    0    0    0 -0.00000000000E+00 -0.00000000000E+00 -0.45593999997E+02  0.45594000000E+02  0.51100000000E-03 0. -1.
    9900012    2    1    2    0    0  0.92291804248E+01 -0.35399564368E+01  0.30315200061E+02  0.59301946346E+02  0.50000004229E+02 0.  0.
         12    1    1    2    0    0 -0.92291804248E+01  0.35399564368E+01 -0.30315200061E+02  0.31886053654E+02  0.00000000000E+00 0. -1.
         11    1    3    3    0    0  0.17281521607E+02 -0.91088257751E+01  0.10867200588E+02  0.22354367468E+02  0.51100000000E-03 0. -1.
        -11    1    3    3    0    0 -0.72892742711E+01 -0.11428095679E+02  0.12914521472E+02  0.18722172827E+02  0.51100000000E-03 0.  1.
         12    1    3    3    0    0 -0.76306691058E+00  0.16996965018E+02  0.65334780004E+01  0.18225406050E+02  0.00000000000E+00 0. -1.
</event>
<event>
 7    1  0.1204848E-011  0.5930193E+02  0.7816164E-02  0.1266605E+00
        -11   -1    0    0    0    0  0.00000000000E+00  0.00000000000E+00  0.45593999997E+02  0.45594000000E+02  0.51100000000E-03 0. -1.
         11   -1    0    0    0    0 -0.00000000000E+00 -0.00000000000E+00 -0.45593999997E+02  0.45594000000E+02  0.51100000000E-03 0.  1.
    9900012    2    1    2    0    0 -0.88651409318E+01  0.20964699500E+02 -0.22329626047E+02  0.59301928617E+02  0.49999971894E+02 0.  0.
         12    1    1    2    0    0  0.88651409318E+01 -0.20964699500E+02  0.22329626047E+02  0.31886071383E+02  0.00000000000E+00 0. -1.
         11    1    3    3    0    0  0.93252737201E+01 -0.26881068251E+01  0.50586162397E+01  0.10944233494E+02  0.51100000000E-03 0. -1.
        -11    1    3    3    0    0 -0.14345621623E+01 -0.57560127655E+01 -0.30637163170E+01  0.66765267532E+01  0.51100000000E-03 0.  1.
        -12    1    3    3    0    0 -0.16755852490E+02  0.29408819091E+02 -0.24324525969E+02  0.41681168369E+02  0.00000000000E+00 0.  1.
</event>
<event>
 7    1  0.1204848E-011  0.5930192E+02  0.7816164E-02  0.1266605E+00
        -11   -1    0    0    0    0  0.00000000000E+00  0.00000000000E+00  0.45593999997E+02  0.45594000000E+02  0.51100000000E-03 0.  1.
         11   -1    0    0    0    0 -0.00000000000E+00 -0.00000000000E+00 -0.45593999997E+02  0.45594000000E+02  0.51100000000E-03 0. -1.
    9900012    2    1    2    0    0 -0.27975399196E+02  0.83513967596E+01  0.12820030091E+02  0.59301922167E+02  0.49999960132E+02 0.  0.
         12    1    1    2    0    0  0.27975399196E+02 -0.83513967596E+01 -0.12820030091E+02  0.31886077833E+02  0.00000000000E+00 0. -1.
         11    1    3    3    0    0  0.97036969573E+01 -0.40622134269E+01  0.10260325376E+02  0.14694815060E+02  0.51100000000E-03 0. -1.
        -11    1    3    3    0    0 -0.19792040057E+02  0.15716777464E+02 -0.33210145692E+01  0.25490607712E+02  0.51100000000E-03 0.  1.
        -12    1    3    3    0    0 -0.17887056096E+02 -0.33031672777E+01  0.58807192842E+01  0.19116499396E+02  0.00000000000E+00 0.  1.
</event>
<event>
 7    1  0.1204848E-011  0.5930195E+02  0.7816164E-02  0.1266605E+00
        -11   -1    0    0    0    0  0.00000000000E+00  0.00000000000E+00  0.45593999997E+02  0.45594000000E+02  0.51100000000E-03 0.  1.
         11   -1    0    0    0    0 -0.00000000000E+00 -0.00000000000E+00 -0.45593999997E+02  0.45594000000E+02  0.51100000000E-03 0. -1.
    9900012    2    1    2    0    0  0.10176049008E+02  0.12565457128E+02 -0.27482310274E+02  0.59301951887E+02  0.50000014334E+02 0.  0.
         12    1    1    2    0    0 -0.10176049008E+02 -0.12565457128E+02  0.27482310274E+02  0.31886048113E+02  0.00000000000E+00 0. -1.
         11    1    3    3    0    0 -0.51379912566E+01  0.16498724608E+02 -0.29431561200E+02  0.34129513076E+02  0.51100000000E-03 0. -1.
        -11    1    3    3    0    0  0.71343146415E+01  0.51150392733E+01 -0.59821251222E+01  0.10622988911E+02  0.51100000000E-03 0.  1.
        -12    1    3    3    0    0  0.81797256233E+01 -0.90483067533E+01  0.79313760488E+01  0.14549449900E+02  0.00000000000E+00 0.  1.
</event>
<event>
 7    1  0.1204848E-011  0.5930194E+02  0.7816164E-02  0.1266605E+00
        -11   -1    0    0    0    0  0.00000000000E+00  0.00000000000E+00  0.45593999997E+02  0.45594000000E+02  0.51100000000E-03 0. -1.
         11   -1    0    0    0    0 -0.00000000000E+00 -0.00000000000E+00 -0.45593999997E+02  0.45594000000E+02  0.51100000000E-03 0.  1.
    9900012    2    1    2    0    0 -0.10510982115E+02  0.76478493945E+01 -0.29116158121E+02  0.59301937071E+02  0.49999987313E+02 0.  0.
         12    1    1    2    0    0  0.10510982115E+02 -0.76478493945E+01  0.29116158121E+02  0.31886062929E+02  0.00000000000E+00 0. -1.
         11    1    3    3    0    0 -0.57994108823E+01  0.15719330309E+02 -0.27661831634E+02  0.32340492290E+02  0.51100000000E-03 0. -1.
        -11    1    3    3    0    0 -0.14738755176E+02 -0.80181208071E+01 -0.21202752386E+01  0.16912029233E+02  0.51100000000E-03 0.  1.
         12    1    3    3    0    0  0.10027183943E+02 -0.53360107347E-01  0.66594875141E+00  0.10049415549E+02  0.00000000000E+00 0. -1.
</event>
<event>
 7    1  0.1204848E-011  0.5930193E+02  0.7816164E-02  0.1266605E+00
        -11   -1    0    0    0    0  0.00000000000E+00  0.00000000000E+00  0.45593999997E+02  0.45594000000E+02  0.51100000000E-03 0.  1.
         11   -1    0    0    0    0 -0.00000000000E+00 -0.00000000000E+00 -0.45593999997E+02  0.45594000000E+02  0.51100000000E-03 0. -1.
    9900012    2    1    2    0    0  0.31875667082E+02  0.18876949912E+00 -0.79222404071E+00  0.59301930867E+02  0.49999975997E+02 0.  0.
         12    1    1    2    0    0 -0.31875667082E+02 -0.18876949912E+00  0.79222404071E+00  0.31886069133E+02  0.00000000000E+00 0. -1.
         11    1    3    3    0    0  0.15395060899E+02 -0.14600039119E+02 -0.14407366925E+02  0.25646466898E+02  0.51100000000E-03 0. -1.
        -11    1    3    3    0    0  0.46644404686E+01 -0.66669918559E+00 -0.49003107726E+01  0.67981275818E+01  0.51100000000E-03 0.  1.
        -12    1    3    3    0    0  0.11816165714E+02  0.15455507804E+02  0.18515453657E+02  0.26857336387E+02  0.00000000000E+00 0.  1.
</event>
<event>
 7    1  0.1204848E-011  0.5930192E+02  0.7816164E-02  0.1266605E+00
        -11   -1    0    0    0    0  0.00000000000E+00  0.00000000000E+00  0.45593999997E+02  0.45594000000E+02  0.51100000000E-03 0.  1.
         11   -1    0    0    0    0 -0.00000000000E+00 -0.00000000000E+00 -0.45593999997E+02  0.45594000000E+02  0.51100000000E-03 0. -1.
    9900012    2    1    2    0    0  0.13336858633E+02 -0.89904085737E+01  0.27532210009E+02  0.59301924160E+02  0.49999963765E+02 0.  0.
         12    1    1    2    0    0 -0.13336858633E+02  0.89904085737E+01 -0.27532210009E+02  0.31886075840E+02  0.00000000000E+00 0. -1.
         11    1    3    3    0    0 -0.62505110394E+01 -0.12300044671E+01 -0.20845379969E+01  0.67027679479E+01  0.51100000000E-03 0. -1.
        -11    1    3    3    0    0  0.12668683651E+00  0.10562249628E+02 -0.24599666181E+01  0.10845672077E+02  0.51100000000E-03 0.  1.
        -12    1    3    3    0    0  0.19460682836E+02 -0.18322653735E+02  0.32076714624E+02  0.41753484135E+02  0.00000000000E+00 0.  1.
</event>
<event>
 7    1  0.1204848E-011  0.5930206E+02  0.7816164E-02  0.1266604E+00
        -11   -1    0    0    0    0  0.00000000000E+00  0.00000000000E+00  0.45593999997E+02  0.45594000000E+02  0.51100000000E-03 0. -1.
         11   -1    0    0    0    0 -0.00000000000E+00 -0.00000000000E+00 -0.45593999997E+02  0.45594000000E+02  0.51100000000E-03 0.  1.
    9900012    2    1    2    0    0  0.14276868038E+02  0.19743185956E+02 -0.20569171858E+02  0.59302059782E+02  0.50000211107E+02 0.  0.
         12    1    1    2    0    0 -0.14276868038E+02 -0.19743185956E+02  0.20569171858E+02  0.31885940218E+02  0.00000000000E+00 0. -1.
         11    1    3    3    0    0 -0.34109622192E+01 -0.25867822517E+01  0.73851255103E+01  0.85361692077E+01  0.51100000000E-03 0. -1.
        -11    1    3    3    0    0 -0.15327344032E+01  0.22786717546E+02 -0.12097060203E+02  0.25844199292E+02  0.51100000000E-03 0.  1.
         12    1    3    3    0    0  0.19220564661E+02 -0.45674933747E+00 -0.15857237165E+02  0.24921691282E+02  0.00000000000E+00 0. -1.
</event>
<event>
 7    1  0.1204848E-011  0.5930193E+02  0.7816164E-02  0.1266605E+00
        -11   -1    0    0    0    0  0.00000000000E+00  0.00000000000E+00  0.45593999997E+02  0.45594000000E+02  0.51100000000E-03 0. -1.
         11   -1    0    0    0    0 -0.00000000000E+00 -0.00000000000E+00 -0.45593999997E+02  0.45594000000E+02  0.51100000000E-03 0.  1.
    9900012    2    1    2    0    0 -0.21301151044E+02  0.22209056435E+02 -0.83510582553E+01  0.59301930981E+02  0.49999976205E+02 0.  0.
         12    1    1    2    0    0  0.21301151044E+02 -0.22209056435E+02  0.83510582553E+01  0.31886069019E+02  0.00000000000E+00 0. -1.
         11    1    3    3    0    0 -0.51487490818E+01  0.77097129567E+01 -0.11867578079E+02  0.15059505328E+02  0.51100000000E-03 0. -1.
        -11    1    3    3    0    0  0.78770771543E+01 -0.79524042516E+01  0.27094194607E+00  0.11196539094E+02  0.51100000000E-03 0.  1.
         12    1    3    3    0    0 -0.24029479116E+02  0.22451747730E+02  0.32455778779E+01  0.33045886559E+02  0.00000000000E+00 0. -1.
</event>
<event>
 7    1  0.1204848E-011  0.5930174E+02  0.7816164E-02  0.1266605E+00
        -11   -1    0    0    0    0  0.00000000000E+00  0.00000000000E+00  0.45593999997E+02  0.45594000000E+02  0.51100000000E-03 0.  1.
         11   -1    0    0    0    0 -0.00000000000E+00 -0.00000000000E+00 -0.45593999997E+02  0.45594000000E+02  0.51100000000E-03 0. -1.
    9900012    2    1    2    0    0  0.12921230971E+01  0.27848422806E+02  0.15476728295E+02  0.59301743500E+02  0.49999634285E+02 0.  0.
         12    1    1    2    0    0 -0.12921230971E+01 -0.27848422806E+02 -0.15476728295E+02  0.31886256500E+02  0.00000000000E+00 0. -1.
         11    1    3    3    0    0 -0.48693546208E+01 -0.26797300389E+01 -0.20514301614E+01  0.59245196829E+01  0.51100000000E-03 0. -1.
        -11    1    3    3    0    0 -0.11802662080E+02  0.20770695039E+02  0.21971091210E+02  0.32456947697E+02  0.51100000000E-03 0.  1.
        -12    1    3    3    0    0  0.17964139798E+02  0.97574578053E+01 -0.44429327540E+01  0.20920276120E+02  0.00000000000E+00 0.  1.
</event>
<event>
 7    1  0.1204848E-011  0.5930194E+02  0.7816164E-02  0.1266605E+00
        -11   -1    0    0    0    0  0.00000000000E+00  0.00000000000E+00  0.45593999997E+02  0.45594000000E+02  0.51100000000E-03 0.  1.
         11   -1    0    0    0    0 -0.00000000000E+00 -0.00000000000E+00 -0.45593999997E+02  0.45594000000E+02  0.51100000000E-03 0. -1.
    9900012    2    1    2    0    0  0.27233555532E+01 -0.61788816356E+01  0.31162887073E+02  0.59301940751E+02  0.49999994024E+02 0.  0.
         12    1    1    2    0    0 -0.27233555532E+01  0.61788816356E+01 -0.31162887073E+02  0.31886059249E+02  0.00000000000E+00 0. -1.
         11    1    3    3    0    0  0.10693712089E+02 -0.40107291074E+01 -0.85560840085E+01  0.14270529074E+02  0.51100000000E-03 0. -1.
        -11    1    3    3    0    0  0.20076199230E-02 -0.43652134294E+01 -0.96444672659E-01  0.43662792113E+01  0.51100000000E-03 0.  1.
        -12    1    3    3    0    0 -0.79723641557E+01  0.21970609011E+01  0.39815415754E+02  0.40665132466E+02  0.00000000000E+00 0.  1.
</event>
<event>
 7    1  0.1204848E-011  0.5930196E+02  0.7816164E-02  0.1266605E+00
        -11   -1    0    0    0    0  0.00000000000E+00  0.00000000000E+00  0.45593999997E+02  0.45594000000E+02  0.51100000000E-03 0. -1.
         11   -1    0    0    0    0 -0.00000000000E+00 -0.00000000000E+00 -0.45593999997E+02  0.45594000000E+02  0.51100000000E-03 0.  1.
    9900012    2    1    2    0    0  0.27232162711E+02  0.87412693574E+01  0.14096774796E+02  0.59301960178E+02  0.50000029454E+02 0.  0.
         12    1    1    2    0    0 -0.27232162711E+02 -0.87412693574E+01 -0.14096774796E+02  0.31886039822E+02  0.00000000000E+00 0. -1.
         11    1    3    3    0    0 -0.25798461095E+01 -0.54059596537E+01  0.74479026244E+01  0.95577852816E+01  0.51100000000E-03 0. -1.
        -11    1    3    3    0    0  0.11424618640E+02  0.21124273595E+02 -0.78992185796E+01  0.25281505105E+02  0.51100000000E-03 0.  1.
         12    1    3    3    0    0  0.18387390181E+02 -0.69770445835E+01  0.14548090751E+02  0.24462669791E+02  0.00000000000E+00 0. -1.
</event>
<event>
 7    1  0.1204848E-011  0.5930194E+02  0.7816164E-02  0.1266605E+00
        -11   -1    0    0    0    0  0.00000000000E+00  0.00000000000E+00  0.45593999997E+02  0.45594000000E+02  0.51100000000E-03 0.  1.
         11   -1    0    0    0    0 -0.00000000000E+00 -0.00000000000E+00 -0.45593999997E+02  0.45594000000E+02  0.51100000000E-03 0. -1.
    9900012    2    1    2    0    0 -0.24963083531E+02  0.19746864445E+02 -0.19044345517E+01  0.59301936183E+02  0.49999985693E+02 0.  0.
         12    1    1    2    0    0  0.24963083531E+02 -0.19746864445E+02  0.19044345517E+01  0.31886063817E+02  0.00000000000E+00 0. -1.
         11    1    3    3    0    0 -0.19229857484E+02  0.24876277765E+02  0.11242718733E+02  0.33391845398E+02  0.51100000000E-03 0. -1.
        -11    1    3    3    0    0 -0.88278811519E+01  0.38541214486E+01  0.69122614063E-01  0.96327833968E+01  0.51100000000E-03 0.  1.
         12    1    3    3    0    0  0.30946551047E+01 -0.89835347690E+01 -0.13216275899E+02  0.16277307388E+02  0.00000000000E+00 0. -1.
</event>
<event>
 7    1  0.1204848E-011  0.5930196E+02  0.7816164E-02  0.1266605E+00
        -11   -1    0    0    0    0  0.00000000000E+00  0.00000000000E+00  0.45593999997E+02  0.45594000000E+02  0.51100000000E-03 0.  1.
         11   -1    0    0    0    0 -0.00000000000E+00 -0.00000000000E+00 -0.45593999997E+02  0.45594000000E+02  0.51100000000E-03 0. -1.
    9900012    2    1    2    0    0 -0.17889906585E+02  0.51418345206E+01  0.25888845507E+02  0.59301960084E+02  0.50000029282E+02 0.  0.
         12    1    1    2    0    0  0.17889906585E+02 -0.51418345206E+01 -0.25888845507E+02  0.31886039916E+02  0.00000000000E+00 0. -1.
         11    1    3    3    0    0 -0.19472322990E+02  0.59341600611E+01 -0.91807996729E+01  0.22330980747E+02  0.51100000000E-03 0. -1.
        -11    1    3    3    0    0 -0.43053577241E+01  0.24298282560E+01  0.13242230563E+02  0.14134951045E+02  0.51100000000E-03 0.  1.
        -12    1    3    3    0    0  0.58877741287E+01 -0.32221537965E+01  0.21827414617E+02  0.22836028292E+02  0.00000000000E+00 0.  1.
</event>
<event>
 7    1  0.1204848E-011  0.5930193E+02  0.7816164E-02  0.1266605E+00
        -11   -1    0    0    0    0  0.00000000000E+00  0.00000000000E+00  0.45593999997E+02  0.45594000000E+02  0.51100000000E-03 0. -1.
         11   -1    0    0    0    0 -0.00000000000E+00 -0.00000000000E+00 -0.45593999997E+02  0.45594000000E+02  0.51100000000E-03 0.  1.
    9900012    2    1    2    0    0 -0.24744957250E+02 -0.81584979728E+01 -0.18380624125E+02  0.59301931856E+02  0.49999977801E+02 0.  0.
         12    1    1    2    0    0  0.24744957250E+02  0.81584979728E+01  0.18380624125E+02  0.31886068144E+02  0.00000000000E+00 0. -1.
         11    1    3    3    0    0  0.16975550345E+01 -0.20725463792E+02 -0.35849193068E-01  0.20794899084E+02  0.51100000000E-03 0. -1.
        -11    1    3    3    0    0 -0.49397219343E+01 -0.35788225156E+00  0.28063756941E+01  0.56925106316E+01  0.51100000000E-03 0.  1.
         12    1    3    3    0    0 -0.21502790350E+02  0.12924848071E+02 -0.21151150626E+02  0.32814522140E+02  0.00000000000E+00 0. -1.
</event>
<event>
 7    1  0.1204848E-011  0.5930194E+02  0.7816164E-02  0.1266605E+00
        -11   -1    0    0    0    0  0.00000000000E+00  0.00000000000E+00  0.45593999997E+02  0.45594000000E+02  0.51100000000E-03 0.  1.
         11   -1    0    0    0    0 -0.00000000000E+00 -0.00000000000E+00 -0.45593999997E+02  0.45594000000E+02  0.51100000000E-03 0. -1.
    9900012    2    1    2    0    0 -0.29996512140E+02  0.10364218202E+02 -0.30843607632E+01  0.59301936574E+02  0.49999986406E+02 0.  0.
         12    1    1    2    0    0  0.29996512140E+02 -0.10364218202E+02  0.30843607632E+01  0.31886063426E+02  0.00000000000E+00 0. -1.
         11    1    3    3    0    0 -0.54607472967E+00 -0.11930290416E+02 -0.81451336222E+01  0.14455906371E+02  0.51100000000E-03 0. -1.
        -11    1    3    3    0    0  0.89636668144E+00  0.67235560675E+01  0.81437257657E+01  0.10598582407E+02  0.51100000000E-03 0.  1.
        -12    1    3    3    0    0 -0.30346804092E+02  0.15570952551E+02 -0.30829529068E+01  0.34247447796E+02  0.00000000000E+00 0.  1.
</event>
<event>
 7    1  0.1204848E-011  0.5930207E+02  0.7816164E-02  0.1266604E+00
        -11   -1    0    0    0    0  0.00000000000E+00  0.00000000000E+00  0.45593999997E+02  0.45594000000E+02  0.51100000000E-03 0. -1.
         11   -1    0    0    0    0 -0.00000000000E+00 -0.00000000000E+00 -0.45593999997E+02  0.45594000000E+02  0.51100000000E-03 0.  1.
    9900012    2    1    2    0    0 -0.49090086365E+01  0.26110689929E+02 -0.17630819334E+02  0.59302073876E+02  0.50000236812E+02 0.  0.
         12    1    1    2    0    0  0.49090086365E+01 -0.26110689929E+02  0.17630819334E+02  0.31885926124E+02  0.00000000000E+00 0. -1.
         11    1    3    3    0    0 -0.97438930524E+01  0.23190567309E+01  0.85358985252E+01  0.13159902729E+02  0.51100000000E-03 0. -1.
        -11    1    3    3    0    0 -0.18924818713E+00  0.63563493625E+01  0.62985395170E+01  0.89504520781E+01  0.51100000000E-03 0.  1.
        -12    1    3    3    0    0  0.50241326030E+01  0.17435283836E+02 -0.32465257376E+02  0.37191719070E+02  0.00000000000E+00 0.  1.
</event>
<event>
 7    1  0.1204848E-011  0.5930194E+02  0.7816164E-02  0.1266605E+00
        -11   -1    0    0    0    0  0.00000000000E+00  0.00000000000E+00  0.45593999997E+02  0.45594000000E+02  0.51100000000E-03 0. -1.
         11   -1    0    0    0    0 -0.00000000000E+00 -0.00000000000E+00 -0.45593999997E+02  0.45594000000E+02  0.51100000000E-03 0.  1.
    9900012    2    1    2    0    0 -0.13112551298E+02 -0.15445031219E+02 -0.24621792561E+02  0.59301942549E+02  0.49999997303E+02 0.  0.
         12    1    1    2    0    0  0.13112551298E+02  0.15445031219E+02  0.24621792561E+02  0.31886057451E+02  0.00000000000E+00 0. -1.
         11    1    3    3    0    0 -0.21638707071E+02 -0.92402228416E+01 -0.76405542107E+01  0.24738500980E+02  0.51100000000E-03 0. -1.
        -11    1    3    3    0    0 -0.83727303627E+01  0.27709846564E+01 -0.11814856919E+02  0.14743534649E+02  0.51100000000E-03 0.  1.
         12    1    3    3    0    0  0.16898886135E+02 -0.89757930334E+01 -0.51663814314E+01  0.19819906919E+02  0.00000000000E+00 0. -1.
</event>
<event>
 7    1  0.1204848E-011  0.5930196E+02  0.7816164E-02  0.1266605E+00
        -11   -1    0    0    0    0  0.00000000000E+00  0.00000000000E+00  0.45593999997E+02  0.45594000000E+02  0.51100000000E-03 0. -1.
         11   -1    0    0    0    0 -0.00000000000E+00 -0.00000000000E+00 -0.45593999997E+02  0.45594000000E+02  0.51100000000E-03 0.  1.
    9900012    2    1    2    0    0 -0.25607519549E+02  0.12083492070E+02 -0.14661645934E+02  0.59301957606E+02  0.50000024763E+02 0.  0.
         12    1    1    2    0    0  0.25607519549E+02 -0.12083492070E+02  0.14661645934E+02  0.31886042394E+02  0.00000000000E+00 0. -1.
         11    1    3    3    0    0 -0.11571680041E+02 -0.85478588539E+01 -0.39320786590E+01  0.14914117902E+02  0.51100000000E-03 0. -1.
        -11    1    3    3    0    0 -0.19849834480E+02  0.23446043582E+02 -0.17231259236E+02  0.35222850306E+02  0.51100000000E-03 0.  1.
         12    1    3    3    0    0  0.58139949720E+01 -0.28146926582E+01  0.65016919613E+01  0.91649893974E+01  0.00000000000E+00 0. -1.
</event>
<event>
 7    1  0.1376506E-011  0.5930193E+02  0.7816164E-02  0.1266605E+00
        -11   -1    0    0    0    0  0.00000000000E+00  0.00000000000E+00  0.45593999997E+02  0.45594000000E+02  0.51100000000E-03 0. -1.
         11   -1    0    0    0    0 -0.00000000000E+00 -0.00000000000E+00 -0.45593999997E+02  0.45594000000E+02  0.51100000000E-03 0.  1.
    9900012    2    1    2    0    0  0.15927282861E+02 -0.20886684057E+02 -0.18077320153E+02  0.59301930720E+02  0.49999975729E+02 0.  0.
         12    1    1    2    0    0 -0.15927282861E+02  0.20886684057E+02  0.18077320153E+02  0.31886069280E+02  0.00000000000E+00 0. -1.
         11    1    3    3    0    0  0.49056890082E+01  0.82105535672E+01  0.97234919231E+01  0.13639108107E+02  0.51100000000E-03 0. -1.
        -11    1    3    3    0    0 -0.36410705551E+01 -0.84337878608E+01 -0.14182818983E+02  0.16897885283E+02  0.51100000000E-03 0.  1.
        -12    1    3    3    0    0  0.14662664408E+02 -0.20663449763E+02 -0.13617993093E+02  0.28764937329E+02  0.00000000000E+00 0.  1.
</event>
<event>
 7    1  0.1204848E-011  0.5930194E+02  0.7816164E-02  0.1266605E+00
        -11   -1    0    0    0    0  0.00000000000E+00  0.00000000000E+00  0.45593999997E+02  0.45594000000E+02  0.51100000000E-03 0. -1.
         11   -1    0    0    0    0 -0.00000000000E+00 -0.00000000000E+00 -0.45593999997E+02  0.45594000000E+02  0.51100000000E-03 0.  1.
    9900012    2    1    2    0    0 -0.10061665885E+02 -0.88378178569E+01 -0.28937464844E+02  0.59301936956E+02  0.49999987102E+02 0.  0.
         12    1    1    2    0    0  0.10061665885E+02  0.88378178569E+01  0.28937464844E+02  0.31886063044E+02  0.00000000000E+00 0. -1.
         11    1    3    3    0    0 -0.76208919987E+01 -0.17709072130E+02 -0.15908470726E+02  0.24995373005E+02  0.51100000000E-03 0.  1.
        -11    1    3    3    0    0 -0.13480441508E+02 -0.26420693100E+01 -0.41422849844E-01  0.13736977455E+02  0.51100000000E-03 0. -1.
         12    1    3    3    0    0  0.11039667622E+02  0.11513323583E+02 -0.12987571269E+02  0.20569586495E+02  0.00000000000E+00 0. -1.
</event>
<event>
 7    1  0.1204848E-011  0.5930194E+02  0.7816164E-02  0.1266605E+00
        -11   -1    0    0    0    0  0.00000000000E+00  0.00000000000E+00  0.45593999997E+02  0.45594000000E+02  0.51100000000E-03 0.  1.
         11   -1    0    0    0    0 -0.00000000000E+00 -0.00000000000E+00 -0.45593999997E+02  0.45594000000E+02  0.51100000000E-03 0. -1.
    9900012    2    1    2    0    0  0.29791556292E+02 -0.87629259676E+00  0.11332087409E+02  0.59301938468E+02  0.49999989860E+02 0.  0.
         12    1    1    2    0    0 -0.29791556292E+02  0.87629259676E+00 -0.11332087409E+02  0.31886061532E+02  0.00000000000E+00 0. -1.
         11    1    3    3    0    0  0.22649969047E+01  0.12918374267E+02  0.61258623484E+01  0.14475523979E+02  0.51100000000E-03 0. -1.
        -11    1    3    3    0    0 -0.69934234856E+01 -0.24881715181E+01  0.41114669441E+01  0.84854658238E+01  0.51100000000E-03 0.  1.
        -12    1    3    3    0    0  0.34519982873E+02 -0.11306495346E+02  0.10947581168E+01  0.36340948665E+02  0.00000000000E+00 0.  1.
</event>
<event>
 7    1  0.1204848E-011  0.5930193E+02  0.7816164E-02  0.1266605E+00
        -11   -1    0    0    0    0  0.00000000000E+00  0.00000000000E+00  0.45593999997E+02  0.45594000000E+02  0.51100000000E-03 0. -1.
         11   -1    0    0    0    0 -0.00000000000E+00 -0.00000000000E+00 -0.45593999997E+02  0.45594000000E+02  0.51100000000E-03 0.  1.
    9900012    2    1    2    0    0 -0.31179553517E+02 -0.40539346438E+01  0.53030929853E+01  0.59301925628E+02  0.49999966444E+02 0.  0.
         12    1    1    2    0    0  0.31179553517E+02  0.40539346438E+01 -0.53030929853E+01  0.31886074372E+02  0.00000000000E+00 0. -1.
         11    1    3    3    0    0 -0.14574271488E+02  0.61834471567E+00  0.19176639437E+02  0.24094298910E+02  0.51100000000E-03 0. -1.
        -11    1    3    3    0    0 -0.23254209598E+01 -0.13734351899E+02 -0.10239861735E+01  0.13967410378E+02  0.51100000000E-03 0.  1.
        -12    1    3    3    0    0 -0.14279861069E+02  0.90620725395E+01 -0.12849560278E+02  0.21240216341E+02  0.00000000000E+00 0.  1.
</event>
<event>
 7    1  0.1204848E-011  0.5930206E+02  0.7816164E-02  0.1266604E+00
        -11   -1    0    0    0    0  0.00000000000E+00  0.00000000000E+00  0.45593999997E+02  0.45594000000E+02  0.51100000000E-03 0.  1.
         11   -1    0    0    0    0 -0.00000000000E+00 -0.00000000000E+00 -0.45593999997E+02  0.45594000000E+02  0.51100000000E-03 0. -1.
    9900012    2    1    2    0    0 -0.24689190789E+02  0.20121384174E+02  0.15122605749E+01  0.59302059918E+02  0.50000211355E+02 0.  0.
         12    1    1    2    0    0  0.24689190789E+02 -0.20121384174E+02 -0.15122605749E+01  0.31885940082E+02  0.00000000000E+00 0. -1.
         11    1    3    3    0    0 -0.56733910617E+01  0.60157754971E+01  0.19673971280E+01  0.84998572159E+01  0.51100000000E-03 0. -1.
        -11    1    3    3    0    0 -0.16058547792E+02  0.14448462440E+02  0.20414185131E+02  0.29721607946E+02  0.51100000000E-03 0.  1.
         12    1    3    3    0    0 -0.29572519345E+01 -0.34285376297E+00 -0.20869321684E+02  0.21080594756E+02  0.00000000000E+00 0. -1.
</event>
<event>
 7    1  0.1204848E-011  0.5930193E+02  0.7816164E-02  0.1266605E+00
        -11   -1    0    0    0    0  0.00000000000E+00  0.00000000000E+00  0.45593999997E+02  0.45594000000E+02  0.51100000000E-03 0. -1.
         11   -1    0    0    0    0 -0.00000000000E+00 -0.00000000000E+00 -0.45593999997E+02  0.45594000000E+02  0.51100000000E-03 0.  1.
    9900012    2    1    2    0    0  0.71446661795E+01  0.27992641115E+02 -0.13493979233E+02  0.59301926442E+02  0.49999967927E+02 0.  0.
         12    1    1    2    0    0 -0.71446661795E+01 -0.27992641115E+02  0.13493979233E+02  0.31886073558E+02  0.00000000000E+00 0. -1.
         11    1    3    3    0    0 -0.54034816428E+01  0.12295438699E+01 -0.93486732206E+00  0.56199082878E+01  0.51100000000E-03 0.  1.
        -11    1    3    3    0    0 -0.13967810895E+01 -0.27690869306E-01  0.13632819774E+02  0.13704216119E+02  0.51100000000E-03 0. -1.
        -12    1    3    3    0    0  0.13944928912E+02  0.26790788114E+02 -0.26191931685E+02  0.39977802035E+02  0.00000000000E+00 0.  1.
</event>
<event>
 7    1  0.1204848E-011  0.5930194E+02  0.7816164E-02  0.1266605E+00
        -11   -1    0    0    0    0  0.00000000000E+00  0.00000000000E+00  0.45593999997E+02  0.45594000000E+02  0.51100000000E-03 0.  1.
         11   -1    0    0    0    0 -0.00000000000E+00 -0.00000000000E+00 -0.45593999997E+02  0.45594000000E+02  0.51100000000E-03 0. -1.
    9900012    2    1    2    0    0 -0.14855427758E+02  0.11011065461E+01  0.28192632667E+02  0.59301941821E+02  0.49999995976E+02 0.  0.
         12    1    1    2    0    0  0.14855427758E+02 -0.11011065461E+01 -0.28192632667E+02  0.31886058179E+02  0.00000000000E+00 0. -1.
         11    1    3    3    0    0 -0.76622779310E+01  0.83486811137E+01  0.21745002491E+01  0.11538606113E+02  0.51100000000E-03 0. -1.
        -11    1    3    3    0    0 -0.19868571857E+02 -0.48165271761E+00  0.26810238647E+02  0.33373358140E+02  0.51100000000E-03 0.  1.
        -12    1    3    3    0    0  0.12675422031E+02 -0.67659218500E+01 -0.79210622922E+00  0.14389977568E+02  0.00000000000E+00 0.  1.
</event>
<event>
 7    1  0.1204848E-011  0.5930193E+02  0.7816164E-02  0.1266605E+00
        -11   -1    0    0    0    0  0.00000000000E+00  0.00000000000E+00  0.45593999997E+02  0.45594000000E+02  0.51100000000E-03 0.  1.
         11   -1    0    0    0    0 -0.00000000000E+00 -0.00000000000E+00 -0.45593999997E+02  0.45594000000E+02  0.51100000000E-03 0. -1.
    9900012    2    1    2    0    0 -0.17994215869E+01  0.86790112871E+01  0.30629373586E+02  0.59301926532E+02  0.49999968091E+02 0.  0.
         12    1    1    2    0    0  0.17994215869E+01 -0.86790112871E+01 -0.30629373586E+02  0.31886073468E+02  0.00000000000E+00 0. -1.
         11    1    3    3    0    0  0.36609714619E+01 -0.36676132110E+01 -0.12216871943E+01  0.53241542589E+01  0.51100000000E-03 0. -1.
        -11    1    3    3    0    0 -0.76447682233E-01 -0.14204032795E+02  0.32267081940E+01  0.14566126387E+02  0.51100000000E-03 0.  1.
        -12    1    3    3    0    0 -0.53839453665E+01  0.26550657294E+02  0.28624352586E+02  0.39411645886E+02  0.00000000000E+00 0.  1.
</event>
<event>
 7    1  0.1204848E-011  0.5930195E+02  0.7816164E-02  0.1266605E+00
        -11   -1    0    0    0    0  0.00000000000E+00  0.00000000000E+00  0.45593999997E+02  0.45594000000E+02  0.51100000000E-03 0.  1.
         11   -1    0    0    0    0 -0.00000000000E+00 -0.00000000000E+00 -0.45593999997E+02  0.45594000000E+02  0.51100000000E-03 0. -1.
    9900012    2    1    2    0    0  0.26822700024E+02  0.13740887853E+02  0.10413991477E+02  0.59301945774E+02  0.50000003186E+02 0.  0.
         12    1    1    2    0    0 -0.26822700024E+02 -0.13740887853E+02 -0.10413991477E+02  0.31886054226E+02  0.00000000000E+00 0. -1.
         11    1    3    3    0    0  0.95235379054E+01  0.26543249201E+00  0.98163688807E+01  0.13679522174E+02  0.51100000000E-03 0.  1.
        -11    1    3    3    0    0  0.51437757764E+01  0.26959824585E+02 -0.26742904466E+00  0.27447442312E+02  0.51100000000E-03 0. -1.
         12    1    3    3    0    0  0.12155386342E+02 -0.13484369224E+02  0.86505164137E+00  0.18174981289E+02  0.00000000000E+00 0. -1.
</event>
<event>
 7    1  0.1204848E-011  0.5930193E+02  0.7816164E-02  0.1266605E+00
        -11   -1    0    0    0    0  0.00000000000E+00  0.00000000000E+00  0.45593999997E+02  0.45594000000E+02  0.51100000000E-03 0.  1.
         11   -1    0    0    0    0 -0.00000000000E+00 -0.00000000000E+00 -0.45593999997E+02  0.45594000000E+02  0.51100000000E-03 0. -1.
    9900012    2    1    2    0    0  0.64988475839E+01  0.25152687712E+02  0.18488615509E+02  0.59301927452E+02  0.49999969770E+02 0.  0.
         12    1    1    2    0    0 -0.64988475839E+01 -0.25152687712E+02 -0.18488615509E+02  0.31886072548E+02  0.00000000000E+00 0. -1.
         11    1    3    3    0    0  0.11203060201E+02  0.83161453346E+01  0.12224628282E+02  0.18550158166E+02  0.51100000000E-03 0. -1.
        -11    1    3    3    0    0 -0.37491094149E+00  0.27923653728E+02  0.16122765504E+01  0.27972672945E+02  0.51100000000E-03 0.  1.
         12    1    3    3    0    0 -0.43293016754E+01 -0.11087111350E+02  0.46517106768E+01  0.12779096342E+02  0.00000000000E+00 0. -1.
</event>
<event>
 7    1  0.1204848E-011  0.5930194E+02  0.7816164E-02  0.1266605E+00
        -11   -1    0    0    0    0  0.00000000000E+00  0.00000000000E+00  0.45593999997E+02  0.45594000000E+02  0.51100000000E-03 0.  1.
         11   -1    0    0    0    0 -0.00000000000E+00 -0.00000000000E+00 -0.45593999997E+02  0.45594000000E+02  0.51100000000E-03 0. -1.
    9900012    2    1    2    0    0  0.95543298118E+01 -0.30414305444E+02  0.63701052708E+00  0.59301937587E+02  0.49999988253E+02 0.  0.
         12    1    1    2    0    0 -0.95543298118E+01  0.30414305444E+02 -0.63701052708E+00  0.31886062413E+02  0.00000000000E+00 0. -1.
         11    1    3    3    0    0  0.22885192635E+02 -0.16483095393E+02  0.11602666002E+02  0.30496661035E+02  0.51100000000E-03 0. -1.
        -11    1    3    3    0    0 -0.83832782580E+01 -0.68743518504E+01  0.39831825240E+01  0.11549970173E+02  0.51100000000E-03 0.  1.
        -12    1    3    3    0    0 -0.49475845654E+01 -0.70568582011E+01 -0.14948837999E+02  0.17255306379E+02  0.00000000000E+00 0.  1.
</event>
<event>
 7    1  0.1204848E-011  0.5930194E+02  0.7816164E-02  0.1266605E+00
        -11   -1    0    0    0    0  0.00000000000E+00  0.00000000000E+00  0.45593999997E+02  0.45594000000E+02  0.51100000000E-03 0.  1.
         11   -1    0    0    0    0 -0.00000000000E+00 -0.00000000000E+00 -0.45593999997E+02  0.45594000000E+02  0.51100000000E-03 0. -1.
    9900012    2    1    2    0    0  0.43663037825E+01  0.44832720452E+01  0.31265901074E+02  0.59301938674E+02  0.49999990235E+02 0.  0.
         12    1    1    2    0    0 -0.43663037825E+01 -0.44832720452E+01 -0.31265901074E+02  0.31886061326E+02  0.00000000000E+00 0. -1.
         11    1    3    3    0    0  0.36505587369E+01  0.65638592690E+01 -0.46837922188E+01  0.88514822151E+01  0.51100000000E-03 0. -1.
        -11    1    3    3    0    0 -0.67026046763E+01  0.12807101408E+02  0.49660376041E+01  0.15284249594E+02  0.51100000000E-03 0.  1.
        -12    1    3    3    0    0  0.74183497219E+01 -0.14887688632E+02  0.30983655688E+02  0.35166206864E+02  0.00000000000E+00 0.  1.
</event>
<event>
 7    1  0.1204848E-011  0.5930199E+02  0.7816164E-02  0.1266605E+00
        -11   -1    0    0    0    0  0.00000000000E+00  0.00000000000E+00  0.45593999997E+02  0.45594000000E+02  0.51100000000E-03 0.  1.
         11   -1    0    0    0    0 -0.00000000000E+00 -0.00000000000E+00 -0.45593999997E+02  0.45594000000E+02  0.51100000000E-03 0. -1.
    9900012    2    1    2    0    0  0.26361603106E+02 -0.10622067872E+02  0.14455272407E+02  0.59301994534E+02  0.50000092112E+02 0.  0.
         12    1    1    2    0    0 -0.26361603106E+02  0.10622067872E+02 -0.14455272407E+02  0.31886005466E+02  0.00000000000E+00 0. -1.
         11    1    3    3    0    0 -0.11944648670E+02 -0.39613478136E+01  0.74264939210E+01  0.14612314004E+02  0.51100000000E-03 0. -1.
        -11    1    3    3    0    0  0.32197297396E+01 -0.23594551333E+01 -0.58375033151E+01  0.70717843107E+01  0.51100000000E-03 0.  1.
        -12    1    3    3    0    0  0.35086522036E+02 -0.43012649256E+01  0.12866281801E+02  0.37617896219E+02  0.00000000000E+00 0.  1.
</event>
<event>
 7    1  0.1204848E-011  0.5930191E+02  0.7816164E-02  0.1266605E+00
        -11   -1    0    0    0    0  0.00000000000E+00  0.00000000000E+00  0.45593999997E+02  0.45594000000E+02  0.51100000000E-03 0. -1.
         11   -1    0    0    0    0 -0.00000000000E+00 -0.00000000000E+00 -0.45593999997E+02  0.45594000000E+02  0.51100000000E-03 0.  1.
    9900012    2    1    2    0    0 -0.78578053838E+01 -0.27468825847E+02 -0.14157729581E+02  0.59301908898E+02  0.49999935932E+02 0.  0.
         12    1    1    2    0    0  0.78578053838E+01  0.27468825847E+02  0.14157729581E+02  0.31886091102E+02  0.00000000000E+00 0. -1.
         11    1    3    3    0    0  0.58963847161E+01  0.56522524731E+01  0.64302780606E+01  0.10395373343E+02  0.51100000000E-03 0. -1.
        -11    1    3    3    0    0 -0.26289536133E+01  0.29884668165E+01  0.24295320096E+01  0.46631488354E+01  0.51100000000E-03 0.  1.
        -12    1    3    3    0    0 -0.11125236487E+02 -0.36109545136E+02 -0.23017539652E+02  0.44243386720E+02  0.00000000000E+00 0.  1.
</event>
<event>
 7    1  0.1204848E-011  0.5930197E+02  0.7816164E-02  0.1266605E+00
        -11   -1    0    0    0    0  0.00000000000E+00  0.00000000000E+00  0.45593999997E+02  0.45594000000E+02  0.51100000000E-03 0. -1.
         11   -1    0    0    0    0 -0.00000000000E+00 -0.00000000000E+00 -0.45593999997E+02  0.45594000000E+02  0.51100000000E-03 0.  1.
    9900012    2    1    2    0    0  0.21670130055E+02  0.70331534278E+01 -0.22308281538E+02  0.59301965300E+02  0.50000038795E+02 0.  0.
         12    1    1    2    0    0 -0.21670130055E+02 -0.70331534278E+01  0.22308281538E+02  0.31886034700E+02  0.00000000000E+00 0. -1.
         11    1    3    3    0    0 -0.11952774904E+02  0.10290926513E+02 -0.83949266275E+01  0.17867478550E+02  0.51100000000E-03 0. -1.
        -11    1    3    3    0    0  0.38618591927E+01 -0.80948713708E+00 -0.10695381660E+02  0.11400018200E+02  0.51100000000E-03 0.  1.
        -12    1    3    3    0    0  0.29761045766E+02 -0.24482859480E+01 -0.32179732511E+01  0.30034468549E+02  0.00000000000E+00 0.  1.
</event>
<event>
 7    1  0.1204848E-011  0.5930192E+02  0.7816164E-02  0.1266605E+00
        -11   -1    0    0    0    0  0.00000000000E+00  0.00000000000E+00  0.45593999997E+02  0.45594000000E+02  0.51100000000E-03 0. -1.
         11   -1    0    0    0    0 -0.00000000000E+00 -0.00000000000E+00 -0.45593999997E+02  0.45594000000E+02  0.51100000000E-03 0.  1.
    9900012    2    1    2    0    0 -0.43586869360E+01  0.27231013867E+02 -0.16006113228E+02  0.59301922652E+02  0.49999961015E+02 0.  0.
         12    1    1    2    0    0  0.43586869360E+01 -0.27231013867E+02  0.16006113228E+02  0.31886077348E+02  0.00000000000E+00 0. -1.
         11    1    3    3    0    0 -0.15008502937E+02  0.27105001805E+00  0.86366205648E+01  0.17318194004E+02  0.51100000000E-03 0. -1.
        -11    1    3    3    0    0 -0.22298774244E+01  0.12376299073E+01  0.16285997927E+01  0.30259574784E+01  0.51100000000E-03 0.  1.
        -12    1    3    3    0    0  0.12879693426E+02  0.25722333941E+02 -0.26271333585E+02  0.38957771169E+02  0.00000000000E+00 0.  1.
</event>
<event>
 7    1  0.1204848E-011  0.5930195E+02  0.7816164E-02  0.1266605E+00
        -11   -1    0    0    0    0  0.00000000000E+00  0.00000000000E+00  0.45593999997E+02  0.45594000000E+02  0.51100000000E-03 0.  1.
         11   -1    0    0    0    0 -0.00000000000E+00 -0.00000000000E+00 -0.45593999997E+02  0.45594000000E+02  0.51100000000E-03 0. -1.
    9900012    2    1    2    0    0  0.21760236118E+01  0.16852583679E+02  0.26981027320E+02  0.59301945201E+02  0.50000002139E+02 0.  0.
         12    1    1    2    0    0 -0.21760236118E+01 -0.16852583679E+02 -0.26981027320E+02  0.31886054799E+02  0.00000000000E+00 0. -1.
         11    1    3    3    0    0 -0.17200781061E+02 -0.39598752415E+01 -0.98360520221E+00  0.17678092671E+02  0.51100000000E-03 0. -1.
        -11    1    3    3    0    0  0.63590408363E+01  0.91428738552E-01  0.57534153994E+01  0.85759867416E+01  0.51100000000E-03 0.  1.
        -12    1    3    3    0    0  0.13017763836E+02  0.20721030182E+02  0.22211217123E+02  0.33047865788E+02  0.00000000000E+00 0.  1.
</event>
<event>
 7    1  0.1204848E-011  0.5930198E+02  0.7816164E-02  0.1266605E+00
        -11   -1    0    0    0    0  0.00000000000E+00  0.00000000000E+00  0.45593999997E+02  0.45594000000E+02  0.51100000000E-03 0.  1.
         11   -1    0    0    0    0 -0.00000000000E+00 -0.00000000000E+00 -0.45593999997E+02  0.45594000000E+02  0.51100000000E-03 0. -1.
    9900012    2    1    2    0    0 -0.86497450483E+01  0.20235043341E+02  0.23074732753E+02  0.59301978611E+02  0.50000063071E+02 0.  0.
         12    1    1    2    0    0  0.86497450483E+01 -0.20235043341E+02 -0.23074732753E+02  0.31886021389E+02  0.00000000000E+00 0. -1.
         11    1    3    3    0    0 -0.20227161508E+00 -0.98107934689E+01 -0.33399894995E-01  0.98129352444E+01  0.51100000000E-03 0.  1.
        -11    1    3    3    0    0  0.40615904186E+01 -0.18358663206E+01 -0.38611365556E+01  0.58970583885E+01  0.51100000000E-03 0. -1.
         12    1    3    3    0    0 -0.12509063852E+02  0.31881703130E+02  0.26969269204E+02  0.43591984978E+02  0.00000000000E+00 0. -1.
</event>
<event>
 7    1  0.1204848E-011  0.5930193E+02  0.7816164E-02  0.1266605E+00
        -11   -1    0    0    0    0  0.00000000000E+00  0.00000000000E+00  0.45593999997E+02  0.45594000000E+02  0.51100000000E-03 0.  1.
         11   -1    0    0    0    0 -0.00000000000E+00 -0.00000000000E+00 -0.45593999997E+02  0.45594000000E+02  0.51100000000E-03 0. -1.
    9900012    2    1    2    0    0 -0.88040214888E+01 -0.25116514295E+02 -0.17560503554E+02  0.59301931415E+02  0.49999976998E+02 0.  0.
         12    1    1    2    0    0  0.88040214888E+01  0.25116514295E+02  0.17560503554E+02  0.31886068585E+02  0.00000000000E+00 0. -1.
         11    1    3    3    0    0  0.21123119477E+01 -0.13362295596E+02 -0.63369650050E+01  0.14938873154E+02  0.51100000000E-03 0.  1.
        -11    1    3    3    0    0  0.13993489703E+02  0.20738586555E+01 -0.61450196566E+01  0.15423356011E+02  0.51100000000E-03 0. -1.
        -12    1    3    3    0    0 -0.24909823140E+02 -0.13828077355E+02 -0.50785188925E+01  0.28939702250E+02  0.00000000000E+00 0.  1.
</event>
<event>
 7    1  0.1204848E-011  0.5930195E+02  0.7816164E-02  0.1266605E+00
        -11   -1    0    0    0    0  0.00000000000E+00  0.00000000000E+00  0.45593999997E+02  0.45594000000E+02  0.51100000000E-03 0.  1.
         11   -1    0    0    0    0 -0.00000000000E+00 -0.00000000000E+00 -0.45593999997E+02  0.45594000000E+02  0.51100000000E-03 0. -1.
    9900012    2    1    2    0    0  0.27634053904E+02  0.32529124280E+01  0.15572344563E+02  0.59301948353E+02  0.50000007888E+02 0.  0.
         12    1    1    2    0    0 -0.27634053904E+02 -0.32529124280E+01 -0.15572344563E+02  0.31886051647E+02  0.00000000000E+00 0. -1.
         11    1    3    3    0    0 -0.75858863720E+01 -0.31009549995E+01  0.10935829811E+02  0.13665795545E+02  0.51100000000E-03 0. -1.
        -11    1    3    3    0    0 -0.45931110731E+01  0.68565071346E+00 -0.16598171224E+01  0.49317116067E+01  0.51100000000E-03 0.  1.
        -12    1    3    3    0    0  0.39813051349E+02  0.56682167141E+01  0.62963318745E+01  0.40704441201E+02  0.00000000000E+00 0.  1.
</event>
<event>
 7    1  0.1204848E-011  0.5930194E+02  0.7816164E-02  0.1266605E+00
        -11   -1    0    0    0    0  0.00000000000E+00  0.00000000000E+00  0.45593999997E+02  0.45594000000E+02  0.51100000000E-03 0.  1.
         11   -1    0    0    0    0 -0.00000000000E+00 -0.00000000000E+00 -0.45593999997E+02  0.45594000000E+02  0.51100000000E-03 0. -1.
    9900012    2    1    2    0    0 -0.20199118900E+02 -0.17963784870E+02  0.16912099565E+02  0.59301935914E+02  0.49999985203E+02 0.  0.
         12    1    1    2    0    0  0.20199118900E+02  0.17963784870E+02 -0.16912099565E+02  0.31886064086E+02  0.00000000000E+00 0. -1.
         11    1    3    3    0    0  0.63459912285E+01  0.46314170109E+01  0.31848009588E+01  0.84772982494E+01  0.51100000000E-03 0. -1.
        -11    1    3    3    0    0  0.47677072646E+01 -0.16192286727E+02  0.62610243044E+01  0.18003377672E+02  0.51100000000E-03 0.  1.
        -12    1    3    3    0    0 -0.31312817393E+02 -0.64029151537E+01  0.74662743018E+01  0.32821259993E+02  0.00000000000E+00 0.  1.
</event>
<event>
 7    1  0.1204848E-011  0.5930195E+02  0.7816164E-02  0.1266605E+00
        -11   -1    0    0    0    0  0.00000000000E+00  0.00000000000E+00  0.45593999997E+02  0.45594000000E+02  0.51100000000E-03 0.  1.
         11   -1    0    0    0    0 -0.00000000000E+00 -0.00000000000E+00 -0.45593999997E+02  0.45594000000E+02  0.51100000000E-03 0. -1.
    9900012    2    1    2    0    0  0.29887154763E+02  0.23292699177E+01 -0.10865200769E+02  0.59301951234E+02  0.50000013143E+02 0.  0.
         12    1    1    2    0    0 -0.29887154763E+02 -0.23292699177E+01  0.10865200769E+02  0.31886048766E+02  0.00000000000E+00 0. -1.
         11    1    3    3    0    0  0.71691067805E+01  0.40004714087E+01 -0.88469644624E+01  0.12069326575E+02  0.51100000000E-03 0. -1.
        -11    1    3    3    0    0  0.28362049731E+02 -0.11641464307E+02 -0.11107253762E+02  0.32608291010E+02  0.51100000000E-03 0.  1.
         12    1    3    3    0    0 -0.56440017490E+01  0.99702628159E+01  0.90890174561E+01  0.14624333649E+02  0.00000000000E+00 0. -1.
</event>
<event>
 7    1  0.1204848E-011  0.5930193E+02  0.7816164E-02  0.1266605E+00
        -11   -1    0    0    0    0  0.00000000000E+00  0.00000000000E+00  0.45593999997E+02  0.45594000000E+02  0.51100000000E-03 0. -1.
         11   -1    0    0    0    0 -0.00000000000E+00 -0.00000000000E+00 -0.45593999997E+02  0.45594000000E+02  0.51100000000E-03 0.  1.
    9900012    2    1    2    0    0 -0.13436718004E+02 -0.27844416769E+02 -0.78015573968E+01  0.59301933549E+02  0.49999980889E+02 0.  0.
         12    1    1    2    0    0  0.13436718004E+02  0.27844416769E+02  0.78015573968E+01  0.31886066451E+02  0.00000000000E+00 0. -1.
         11    1    3    3    0    0 -0.37149532263E+01 -0.29866967538E+01 -0.91642661880E+01  0.10329811712E+02  0.51100000000E-03 0. -1.
        -11    1    3    3    0    0 -0.25246236780E+02 -0.16090435314E+02  0.60371500075E+01  0.30540493785E+02  0.51100000000E-03 0.  1.
         12    1    3    3    0    0  0.15524472002E+02 -0.87672847004E+01 -0.46744412164E+01  0.18431628052E+02  0.00000000000E+00 0. -1.
</event>
<event>
 7    1  0.1204848E-011  0.5930193E+02  0.7816164E-02  0.1266605E+00
        -11   -1    0    0    0    0  0.00000000000E+00  0.00000000000E+00  0.45593999997E+02  0.45594000000E+02  0.51100000000E-03 0. -1.
         11   -1    0    0    0    0 -0.00000000000E+00 -0.00000000000E+00 -0.45593999997E+02  0.45594000000E+02  0.51100000000E-03 0.  1.
    9900012    2    1    2    0    0 -0.30606505835E+01 -0.97794149284E+01 -0.30194652520E+02  0.59301928132E+02  0.49999971011E+02 0.  0.
         12    1    1    2    0    0  0.30606505835E+01  0.97794149284E+01  0.30194652520E+02  0.31886071868E+02  0.00000000000E+00 0. -1.
         11    1    3    3    0    0  0.84238368523E+01 -0.10736332037E+01 -0.42178860094E+01  0.94817866576E+01  0.51100000000E-03 0. -1.
        -11    1    3    3    0    0  0.60507946362E+01 -0.11634004379E+01  0.84485542628E+01  0.10456753115E+02  0.51100000000E-03 0.  1.
        -12    1    3    3    0    0 -0.17535282072E+02 -0.75423812867E+01 -0.34425320774E+02  0.39363388360E+02  0.00000000000E+00 0.  1.
</event>
<event>
 7    1  0.1204848E-011  0.5930194E+02  0.7816164E-02  0.1266605E+00
        -11   -1    0    0    0    0  0.00000000000E+00  0.00000000000E+00  0.45593999997E+02  0.45594000000E+02  0.51100000000E-03 0.  1.
         11   -1    0    0    0    0 -0.00000000000E+00 -0.00000000000E+00 -0.45593999997E+02  0.45594000000E+02  0.51100000000E-03 0. -1.
    9900012    2    1    2    0    0 -0.13306282099E+01 -0.26710274409E+02 -0.17364087920E+02  0.59301939100E+02  0.49999991014E+02 0.  0.
         12    1    1    2    0    0  0.13306282099E+01  0.26710274409E+02  0.17364087920E+02  0.31886060900E+02  0.00000000000E+00 0. -1.
         11    1    3    3    0    0  0.60277017685E+01 -0.31803476557E+01  0.81405890161E+01  0.10616825778E+02  0.51100000000E-03 0. -1.
        -11    1    3    3    0    0  0.44142237442E+01 -0.26681115380E+02 -0.97074544640E+01  0.28733290128E+02  0.51100000000E-03 0.  1.
         12    1    3    3    0    0 -0.11772553723E+02  0.31511886270E+01 -0.15797222472E+02  0.19951823193E+02  0.00000000000E+00 0. -1.
</event>
<event>
 7    1  0.1204848E-011  0.5930198E+02  0.7816164E-02  0.1266605E+00
        -11   -1    0    0    0    0  0.00000000000E+00  0.00000000000E+00  0.45593999997E+02  0.45594000000E+02  0.51100000000E-03 0.  1.
         11   -1    0    0    0    0 -0.00000000000E+00 -0.00000000000E+00 -0.45593999997E+02  0.45594000000E+02  0.51100000000E-03 0. -1.
    9900012    2    1    2    0    0  0.10987242144E+02 -0.15195752810E+02  0.25789302248E+02  0.59301976356E+02  0.50000058959E+02 0.  0.
         12    1    1    2    0    0 -0.10987242144E+02  0.15195752810E+02 -0.25789302248E+02  0.31886023644E+02  0.00000000000E+00 0. -1.
         11    1    3    3    0    0 -0.52928310751E+01 -0.12476273659E+02 -0.29105750103E+01  0.13861562406E+02  0.51100000000E-03 0. -1.
        -11    1    3    3    0    0  0.32800135455E+01  0.72170124200E+01  0.27958884675E+02  0.29061021828E+02  0.51100000000E-03 0.  1.
         12    1    3    3    0    0  0.13000059673E+02 -0.99364915719E+01  0.74099258279E+00  0.16379392122E+02  0.00000000000E+00 0. -1.
</event>
<event>
 7    1  0.1204848E-011  0.5930194E+02  0.7816164E-02  0.1266605E+00
        -11   -1    0    0    0    0  0.00000000000E+00  0.00000000000E+00  0.45593999997E+02  0.45594000000E+02  0.51100000000E-03 0.  1.
         11   -1    0    0    0    0 -0.00000000000E+00 -0.00000000000E+00 -0.45593999997E+02  0.45594000000E+02  0.51100000000E-03 0. -1.
    9900012    2    1    2    0    0 -0.71871928325E+01 -0.31058327097E+02  0.66718596555E+00  0.59301944114E+02  0.50000000158E+02 0.  0.
         12    1    1    2    0    0  0.71871928325E+01  0.31058327097E+02 -0.66718596555E+00  0.31886055886E+02  0.00000000000E+00 0. -1.
         11    1    3    3    0    0  0.51272480524E+01 -0.34585272822E+01 -0.13478118273E+02  0.14829354537E+02  0.51100000000E-03 0. -1.
        -11    1    3    3    0    0 -0.11455400935E+02  0.10674778251E+01  0.10473648240E+02  0.15558374826E+02  0.51100000000E-03 0.  1.
         12    1    3    3    0    0 -0.85903994946E+00 -0.28667277639E+02  0.36716559982E+01  0.28914214751E+02  0.00000000000E+00 0. -1.
</event>
<event>
 7    1  0.1204848E-011  0.5930193E+02  0.7816164E-02  0.1266605E+00
        -11   -1    0    0    0    0  0.00000000000E+00  0.00000000000E+00  0.45593999997E+02  0.45594000000E+02  0.51100000000E-03 0.  1.
         11   -1    0    0    0    0 -0.00000000000E+00 -0.00000000000E+00 -0.45593999997E+02  0.45594000000E+02  0.51100000000E-03 0. -1.
    9900012    2    1    2    0    0  0.16029440283E+02  0.14376328439E+02  0.23518069930E+02  0.59301931124E+02  0.49999976466E+02 0.  0.
         12    1    1    2    0    0 -0.16029440283E+02 -0.14376328439E+02 -0.23518069930E+02  0.31886068876E+02  0.00000000000E+00 0. -1.
         11    1    3    3    0    0  0.44480927574E+01  0.12968554954E+02  0.24930700859E+01  0.13935004323E+02  0.51100000000E-03 0. -1.
        -11    1    3    3    0    0  0.12452438050E+02  0.15907819695E+02  0.48305757910E+00  0.20207802595E+02  0.51100000000E-03 0.  1.
        -12    1    3    3    0    0 -0.87109052503E+00 -0.14500046210E+02  0.20541942265E+02  0.25159124206E+02  0.00000000000E+00 0.  1.
</event>
<event>
 7    1  0.1204848E-011  0.5930192E+02  0.7816164E-02  0.1266605E+00
        -11   -1    0    0    0    0  0.00000000000E+00  0.00000000000E+00  0.45593999997E+02  0.45594000000E+02  0.51100000000E-03 0. -1.
         11   -1    0    0    0    0 -0.00000000000E+00 -0.00000000000E+00 -0.45593999997E+02  0.45594000000E+02  0.51100000000E-03 0.  1.
    9900012    2    1    2    0    0  0.58953857643E+01 -0.31045324947E+02  0.42608107191E+01  0.59301917105E+02  0.49999950900E+02 0.  0.
         12    1    1    2    0    0 -0.58953857643E+01  0.31045324947E+02 -0.42608107191E+01  0.31886082895E+02  0.00000000000E+00 0. -1.
         11    1    3    3    0    0  0.15905407268E+01  0.67932757587E+01 -0.15189937211E+01  0.71404311861E+01  0.51100000000E-03 0. -1.
        -11    1    3    3    0    0 -0.11550215056E+02 -0.13163428987E+02 -0.85841476688E+01  0.19503100318E+02  0.51100000000E-03 0.  1.
        -12    1    3    3    0    0  0.15855060093E+02 -0.24675171719E+02  0.14363952109E+02  0.32658385602E+02  0.00000000000E+00 0.  1.
</event>
<event>
 7    1  0.1204848E-011  0.5930195E+02  0.7816164E-02  0.1266605E+00
        -11   -1    0    0    0    0  0.00000000000E+00  0.00000000000E+00  0.45593999997E+02  0.45594000000E+02  0.51100000000E-03 0.  1.
         11   -1    0    0    0    0 -0.00000000000E+00 -0.00000000000E+00 -0.45593999997E+02  0.45594000000E+02  0.51100000000E-03 0. -1.
    9900012    2    1    2    0    0  0.88105323627E+01 -0.98829169267E+01  0.29007289586E+02  0.59301946989E+02  0.50000005400E+02 0.  0.
         12    1    1    2    0    0 -0.88105323627E+01  0.98829169267E+01 -0.29007289586E+02  0.31886053011E+02  0.00000000000E+00 0. -1.
         11    1    3    3    0    0 -0.49681263355E+01  0.79680210485E+01  0.95501219204E+01  0.13393150028E+02  0.51100000000E-03 0. -1.
        -11    1    3    3    0    0  0.52591373504E+00 -0.26556046472E+01  0.24882199844E+02  0.25029036949E+02  0.51100000000E-03 0.  1.
         12    1    3    3    0    0  0.13252744963E+02 -0.15195333328E+02 -0.54250321779E+01  0.20879760012E+02  0.00000000000E+00 0. -1.
</event>
<event>
 7    1  0.1204848E-011  0.5930199E+02  0.7816164E-02  0.1266605E+00
        -11   -1    0    0    0    0  0.00000000000E+00  0.00000000000E+00  0.45593999997E+02  0.45594000000E+02  0.51100000000E-03 0.  1.
         11   -1    0    0    0    0 -0.00000000000E+00 -0.00000000000E+00 -0.45593999997E+02  0.45594000000E+02  0.51100000000E-03 0. -1.
    9900012    2    1    2    0    0  0.12508176234E+02  0.19466773799E+02  0.21938725922E+02  0.59301992882E+02  0.50000089098E+02 0.  0.
         12    1    1    2    0    0 -0.12508176234E+02 -0.19466773799E+02 -0.21938725922E+02  0.31886007118E+02  0.00000000000E+00 0. -1.
         11    1    3    3    0    0 -0.35467146874E+01 -0.76586714376E+01  0.16883899594E+02  0.18875923792E+02  0.51100000000E-03 0. -1.
        -11    1    3    3    0    0 -0.66716539473E+00  0.32144455302E+01  0.10273169733E+02  0.10784979664E+02  0.51100000000E-03 0.  1.
         12    1    3    3    0    0  0.16722056317E+02  0.23910999707E+02 -0.52183434046E+01  0.29641089425E+02  0.00000000000E+00 0. -1.
</event>
<event>
 7    1  0.1204848E-011  0.5930192E+02  0.7816164E-02  0.1266605E+00
        -11   -1    0    0    0    0  0.00000000000E+00  0.00000000000E+00  0.45593999997E+02  0.45594000000E+02  0.51100000000E-03 0. -1.
         11   -1    0    0    0    0 -0.00000000000E+00 -0.00000000000E+00 -0.45593999997E+02  0.45594000000E+02  0.51100000000E-03 0.  1.
    9900012    2    1    2    0    0  0.10680484733E+02  0.18078970475E+02 -0.23995831325E+02  0.59301923908E+02  0.49999963306E+02 0.  0.
         12    1    1    2    0    0 -0.10680484733E+02 -0.18078970475E+02  0.23995831325E+02  0.31886076092E+02  0.00000000000E+00 0. -1.
         11    1    3    3    0    0  0.78483372656E+01  0.93212555651E+01 -0.31032196015E+02  0.33338857103E+02  0.51100000000E-03 0. -1.
        -11    1    3    3    0    0 -0.10177152804E+01  0.46484839470E+01 -0.83322662503E+01  0.95953534862E+01  0.51100000000E-03 0.  1.
         12    1    3    3    0    0  0.38498627478E+01  0.41092309630E+01  0.15368630941E+02  0.16367713319E+02  0.00000000000E+00 0. -1.
</event>
<event>
 7    1  0.1220889E-011  0.5930195E+02  0.7816164E-02  0.1266605E+00
        -11   -1    0    0    0    0  0.00000000000E+00  0.00000000000E+00  0.45593999997E+02  0.45594000000E+02  0.51100000000E-03 0.  1.
         11   -1    0    0    0    0 -0.00000000000E+00 -0.00000000000E+00 -0.45593999997E+02  0.45594000000E+02  0.51100000000E-03 0. -1.
    9900012    2    1    2    0    0 -0.30517808786E+02 -0.31940011554E+01  0.86707673042E+01  0.59301945021E+02  0.50000001812E+02 0.  0.
         12    1    1    2    0    0  0.30517808786E+02  0.31940011554E+01 -0.86707673042E+01  0.31886054979E+02  0.00000000000E+00 0. -1.
         11    1    3    3    0    0  0.35887712605E+01 -0.48963356545E+01 -0.11648000237E+02  0.13135040608E+02  0.51100000000E-03 0. -1.
        -11    1    3    3    0    0 -0.11132193435E+01  0.50129338734E+01  0.10330167569E+02  0.11536079299E+02  0.51100000000E-03 0.  1.
        -12    1    3    3    0    0 -0.32993360703E+02 -0.33105993744E+01  0.99885999721E+01  0.34630825114E+02  0.00000000000E+00 0.  1.
</event>
<event>
 7    1  0.1204848E-011  0.5930196E+02  0.7816164E-02  0.1266605E+00
        -11   -1    0    0    0    0  0.00000000000E+00  0.00000000000E+00  0.45593999997E+02  0.45594000000E+02  0.51100000000E-03 0.  1.
         11   -1    0    0    0    0 -0.00000000000E+00 -0.00000000000E+00 -0.45593999997E+02  0.45594000000E+02  0.51100000000E-03 0. -1.
    9900012    2    1    2    0    0  0.12410696888E+02  0.12505852087E+02  0.26576268352E+02  0.59301956451E+02  0.50000022658E+02 0.  0.
         12    1    1    2    0    0 -0.12410696888E+02 -0.12505852087E+02 -0.26576268352E+02  0.31886043549E+02  0.00000000000E+00 0. -1.
         11    1    3    3    0    0 -0.11608240793E+02  0.19984968992E+02  0.23803318725E+02  0.33177525865E+02  0.51100000000E-03 0. -1.
        -11    1    3    3    0    0  0.97069117774E+01  0.25200938095E+00  0.10369632285E+01  0.97653949219E+01  0.51100000000E-03 0.  1.
        -12    1    3    3    0    0  0.14312025903E+02 -0.77311262861E+01  0.17359863985E+01  0.16359035665E+02  0.00000000000E+00 0.  1.
</event>
<event>
 7    1  0.1204848E-011  0.5930196E+02  0.7816164E-02  0.1266605E+00
        -11   -1    0    0    0    0  0.00000000000E+00  0.00000000000E+00  0.45593999997E+02  0.45594000000E+02  0.51100000000E-03 0.  1.
         11   -1    0    0    0    0 -0.00000000000E+00 -0.00000000000E+00 -0.45593999997E+02  0.45594000000E+02  0.51100000000E-03 0. -1.
    9900012    2    1    2    0    0  0.98894213134E+01 -0.25328643626E+02  0.16654690484E+02  0.59301959842E+02  0.50000028841E+02 0.  0.
         12    1    1    2    0    0 -0.98894213134E+01  0.25328643626E+02 -0.16654690484E+02  0.31886040158E+02  0.00000000000E+00 0. -1.
         11    1    3    3    0    0 -0.73590246560E+01  0.46072516193E+00  0.15016891133E+02  0.16729451011E+02  0.51100000000E-03 0. -1.
        -11    1    3    3    0    0  0.18040865476E+02 -0.47354982611E+01  0.83844785942E+01  0.20449871698E+02  0.51100000000E-03 0.  1.
        -12    1    3    3    0    0 -0.79241950705E+00 -0.21053870527E+02 -0.67466792440E+01  0.22122637132E+02  0.00000000000E+00 0.  1.
</event>
<event>
 7    1  0.1204848E-011  0.5930194E+02  0.7816164E-02  0.1266605E+00
        -11   -1    0    0    0    0  0.00000000000E+00  0.00000000000E+00  0.45593999997E+02  0.45594000000E+02  0.51100000000E-03 0. -1.
         11   -1    0    0    0    0 -0.00000000000E+00 -0.00000000000E+00 -0.45593999997E+02  0.45594000000E+02  0.51100000000E-03 0.  1.
    9900012    2    1    2    0    0 -0.29311063462E+02  0.89052037007E+01 -0.88475816019E+01  0.59301940437E+02  0.49999993452E+02 0.  0.
         12    1    1    2    0    0  0.29311063462E+02 -0.89052037007E+01  0.88475816019E+01  0.31886059563E+02  0.00000000000E+00 0. -1.
         11    1    3    3    0    0 -0.51245160364E+01  0.60746280840E+01 -0.20244195591E+02  0.21748315483E+02  0.51100000000E-03 0. -1.
        -11    1    3    3    0    0 -0.68418129509E+01  0.27261659838E+01 -0.84410948185E+01  0.11202431317E+02  0.51100000000E-03 0.  1.
        -12    1    3    3    0    0 -0.17344734475E+02  0.10440963297E+00  0.19837708807E+02  0.26351193637E+02  0.00000000000E+00 0.  1.
</event>
<event>
 7    1  0.1204848E-011  0.5930211E+02  0.7816164E-02  0.1266604E+00
        -11   -1    0    0    0    0  0.00000000000E+00  0.00000000000E+00  0.45593999997E+02  0.45594000000E+02  0.51100000000E-03 0. -1.
         11   -1    0    0    0    0 -0.00000000000E+00 -0.00000000000E+00 -0.45593999997E+02  0.45594000000E+02  0.51100000000E-03 0.  1.
    9900012    2    1    2    0    0  0.17716314115E+01  0.17629416933E+02 -0.26509900949E+02  0.59302111780E+02  0.50000305939E+02 0.  0.
         12    1    1    2    0    0 -0.17716314115E+01 -0.17629416933E+02  0.26509900949E+02  0.31885888220E+02  0.00000000000E+00 0. -1.
         11    1    3    3    0    0  0.39513540628E+01 -0.92612750533E+01 -0.28264689912E+01  0.10458171052E+02  0.51100000000E-03 0. -1.
        -11    1    3    3    0    0 -0.13339205304E+02  0.11073826897E+01 -0.24020035067E+01  0.13598908620E+02  0.51100000000E-03 0.  1.
         12    1    3    3    0    0  0.11159482652E+02  0.25783309297E+02 -0.21281428451E+02  0.35245032108E+02  0.00000000000E+00 0. -1.
</event>
<event>
 7    1  0.1204848E-011  0.5930194E+02  0.7816164E-02  0.1266605E+00
        -11   -1    0    0    0    0  0.00000000000E+00  0.00000000000E+00  0.45593999997E+02  0.45594000000E+02  0.51100000000E-03 0.  1.
         11   -1    0    0    0    0 -0.00000000000E+00 -0.00000000000E+00 -0.45593999997E+02  0.45594000000E+02  0.51100000000E-03 0. -1.
    9900012    2    1    2    0    0  0.10369412755E+02  0.25626325272E+02  0.15889849875E+02  0.59301943535E+02  0.49999999101E+02 0.  0.
         12    1    1    2    0    0 -0.10369412755E+02 -0.25626325272E+02 -0.15889849875E+02  0.31886056465E+02  0.00000000000E+00 0. -1.
         11    1    3    3    0    0  0.87497112954E+01 -0.65774151598E+01  0.35016830497E+01  0.11492676902E+02  0.51100000000E-03 0. -1.
        -11    1    3    3    0    0 -0.14324101234E+02  0.92057362502E+01 -0.42201826304E+00  0.17032426596E+02  0.51100000000E-03 0.  1.
        -12    1    3    3    0    0  0.15943802693E+02  0.22998004182E+02  0.12810185088E+02  0.30776840037E+02  0.00000000000E+00 0.  1.
</event>
<event>
 7    1  0.1204848E-011  0.5930195E+02  0.7816164E-02  0.1266605E+00
        -11   -1    0    0    0    0  0.00000000000E+00  0.00000000000E+00  0.45593999997E+02  0.45594000000E+02  0.51100000000E-03 0. -1.
         11   -1    0    0    0    0 -0.00000000000E+00 -0.00000000000E+00 -0.45593999997E+02  0.45594000000E+02  0.51100000000E-03 0.  1.
    9900012    2    1    2    0    0 -0.48009686454E+01 -0.39827491410E+01 -0.31269932666E+02  0.59301948511E+02  0.50000008176E+02 0.  0.
         12    1    1    2    0    0  0.48009686454E+01  0.39827491410E+01  0.31269932666E+02  0.31886051489E+02  0.00000000000E+00 0. -1.
         11    1    3    3    0    0  0.22043591899E+01  0.13884442722E+02  0.18229707466E+00  0.14059522809E+02  0.51100000000E-03 0. -1.
        -11    1    3    3    0    0  0.23111063201E+01  0.24672120940E+01  0.27622597330E+01  0.43655958394E+01  0.51100000000E-03 0.  1.
        -12    1    3    3    0    0 -0.93164341553E+01 -0.20334403957E+02 -0.34214489473E+02  0.40876829862E+02  0.00000000000E+00 0.  1.
</event>
<event>
 7    1  0.1204848E-011  0.5930196E+02  0.7816164E-02  0.1266605E+00
        -11   -1    0    0    0    0  0.00000000000E+00  0.00000000000E+00  0.45593999997E+02  0.45594000000E+02  0.51100000000E-03 0. -1.
         11   -1    0    0    0    0 -0.00000000000E+00 -0.00000000000E+00 -0.45593999997E+02  0.45594000000E+02  0.51100000000E-03 0.  1.
    9900012    2    1    2    0    0 -0.10060616040E+02 -0.30171203460E+01 -0.30106491897E+02  0.59301955017E+02  0.50000020042E+02 0.  0.
         12    1    1    2    0    0  0.10060616040E+02  0.30171203460E+01  0.30106491897E+02  0.31886044983E+02  0.00000000000E+00 0. -1.
         11    1    3    3    0    0  0.99373632007E+01  0.35668963716E+01 -0.14615122593E+02  0.18029857064E+02  0.51100000000E-03 0. -1.
        -11    1    3    3    0    0  0.64518155943E+01 -0.69018025394E+01  0.18709408942E+01  0.96312627856E+01  0.51100000000E-03 0.  1.
         12    1    3    3    0    0 -0.26449794835E+02  0.31778582179E+00 -0.17362310199E+02  0.31640835167E+02  0.00000000000E+00 0. -1.
</event>
<event>
 7    1  0.1204848E-011  0.5930196E+02  0.7816164E-02  0.1266605E+00
        -11   -1    0    0    0    0  0.00000000000E+00  0.00000000000E+00  0.45593999997E+02  0.45594000000E+02  0.51100000000E-03 0.  1.
         11   -1    0    0    0    0 -0.00000000000E+00 -0.00000000000E+00 -0.45593999997E+02  0.45594000000E+02  0.51100000000E-03 0. -1.
    9900012    2    1    2    0    0 -0.39549072353E+01 -0.11414551061E+02  0.29509087002E+02  0.59301961004E+02  0.50000030961E+02 0.  0.
         12    1    1    2    0    0  0.39549072353E+01  0.11414551061E+02 -0.29509087002E+02  0.31886038996E+02  0.00000000000E+00 0. -1.
         11    1    3    3    0    0 -0.41026071801E+01  0.50549018545E+01 -0.15673584215E+00  0.65121413389E+01  0.51100000000E-03 0. -1.
        -11    1    3    3    0    0  0.55357654872E+01 -0.13886245287E+02 -0.63789644615E+01  0.16253113412E+02  0.51100000000E-03 0.  1.
        -12    1    3    3    0    0 -0.53880655423E+01 -0.25832076281E+01  0.36044787306E+02  0.36536706253E+02  0.00000000000E+00 0.  1.
</event>
<event>
 7    1  0.1204848E-011  0.5930193E+02  0.7816164E-02  0.1266605E+00
        -11   -1    0    0    0    0  0.00000000000E+00  0.00000000000E+00  0.45593999997E+02  0.45594000000E+02  0.51100000000E-03 0.  1.
         11   -1    0    0    0    0 -0.00000000000E+00 -0.00000000000E+00 -0.45593999997E+02  0.45594000000E+02  0.51100000000E-03 0. -1.
    9900012    2    1    2    0    0  0.19286832013E+02  0.22897419816E+02  0.10974854549E+02  0.59301934772E+02  0.49999983120E+02 0.  0.
         12    1    1    2    0    0 -0.19286832013E+02 -0.22897419816E+02 -0.10974854549E+02  0.31886065228E+02  0.00000000000E+00 0. -1.
         11    1    3    3    0    0  0.23576573615E+02  0.84274868796E+01 -0.90515396828E+01  0.26623443230E+02  0.51100000000E-03 0. -1.
        -11    1    3    3    0    0 -0.77514538278E+01  0.56907841971E+01 -0.96395446585E+00  0.96643297592E+01  0.51100000000E-03 0.  1.
        -12    1    3    3    0    0  0.34617122262E+01  0.87791487396E+01  0.20990348698E+02  0.23014161783E+02  0.00000000000E+00 0.  1.
</event>
<event>
 7    1  0.1204848E-011  0.5930205E+02  0.7816164E-02  0.1266604E+00
        -11   -1    0    0    0    0  0.00000000000E+00  0.00000000000E+00  0.45593999997E+02  0.45594000000E+02  0.51100000000E-03 0. -1.
         11   -1    0    0    0    0 -0.00000000000E+00 -0.00000000000E+00 -0.45593999997E+02  0.45594000000E+02  0.51100000000E-03 0.  1.
    9900012    2    1    2    0    0  0.23361582390E+02 -0.18471874737E+02 -0.11390348247E+02  0.59302051351E+02  0.50000195731E+02 0.  0.
         12    1    1    2    0    0 -0.23361582390E+02  0.18471874737E+02  0.11390348247E+02  0.31885948649E+02  0.00000000000E+00 0. -1.
         11    1    3    3    0    0 -0.72033336594E+01 -0.20599275404E+02 -0.44049297884E-01  0.21822467862E+02  0.51100000000E-03 0. -1.
        -11    1    3    3    0    0  0.15412657547E+02 -0.16940109476E+01 -0.14844877328E+02  0.21466021264E+02  0.51100000000E-03 0.  1.
        -12    1    3    3    0    0  0.15152258503E+02  0.38214116145E+01  0.34985783792E+01  0.16013562225E+02  0.00000000000E+00 0.  1.
</event>
<event>
 7    1  0.1204848E-011  0.5930196E+02  0.7816164E-02  0.1266605E+00
        -11   -1    0    0    0    0  0.00000000000E+00  0.00000000000E+00  0.45593999997E+02  0.45594000000E+02  0.51100000000E-03 0.  1.
         11   -1    0    0    0    0 -0.00000000000E+00 -0.00000000000E+00 -0.45593999997E+02  0.45594000000E+02  0.51100000000E-03 0. -1.
    9900012    2    1    2    0    0  0.27331970596E+02 -0.95696810008E+01  0.13345563412E+02  0.59301961145E+02  0.50000031217E+02 0.  0.
         12    1    1    2    0    0 -0.27331970596E+02  0.95696810008E+01 -0.13345563412E+02  0.31886038855E+02  0.00000000000E+00 0. -1.
         11    1    3    3    0    0  0.57608380458E+01 -0.31311005237E+01 -0.13831633611E+02  0.15307028912E+02  0.51100000000E-03 0. -1.
        -11    1    3    3    0    0 -0.24443612302E+01  0.66346794010E+01  0.74999147791E+01  0.10307404840E+02  0.51100000000E-03 0.  1.
        -12    1    3    3    0    0  0.24015493780E+02 -0.13073259878E+02  0.19677282244E+02  0.33687527393E+02  0.00000000000E+00 0.  1.
</event>
<event>
 7    1  0.1204848E-011  0.5930193E+02  0.7816164E-02  0.1266605E+00
        -11   -1    0    0    0    0  0.00000000000E+00  0.00000000000E+00  0.45593999997E+02  0.45594000000E+02  0.51100000000E-03 0.  1.
         11   -1    0    0    0    0 -0.00000000000E+00 -0.00000000000E+00 -0.45593999997E+02  0.45594000000E+02  0.51100000000E-03 0. -1.
    9900012    2    1    2    0    0  0.23738571717E+02 -0.60365053663E+01  0.20414751863E+02  0.59301932858E+02  0.49999979628E+02 0.  0.
         12    1    1    2    0    0 -0.23738571717E+02  0.60365053663E+01 -0.20414751863E+02  0.31886067142E+02  0.00000000000E+00 0. -1.
         11    1    3    3    0    0  0.21678653217E+02  0.70130134350E+01  0.28127955882E+02  0.36198456668E+02  0.51100000000E-03 0. -1.
        -11    1    3    3    0    0  0.39438524821E+01  0.22170021930E+01  0.19619885238E+01  0.49313761115E+01  0.51100000000E-03 0.  1.
         12    1    3    3    0    0 -0.18839339823E+01 -0.15266520994E+02 -0.96751925430E+01  0.18172100079E+02  0.00000000000E+00 0. -1.
</event>
<event>
 7    1  0.1204848E-011  0.5930201E+02  0.7816164E-02  0.1266605E+00
        -11   -1    0    0    0    0  0.00000000000E+00  0.00000000000E+00  0.45593999997E+02  0.45594000000E+02  0.51100000000E-03 0.  1.
         11   -1    0    0    0    0 -0.00000000000E+00 -0.00000000000E+00 -0.45593999997E+02  0.45594000000E+02  0.51100000000E-03 0. -1.
    9900012    2    1    2    0    0  0.19590341710E+01  0.25329955104E+02  0.19268410444E+02  0.59302014340E+02  0.50000128233E+02 0.  0.
         12    1    1    2    0    0 -0.19590341710E+01 -0.25329955104E+02 -0.19268410444E+02  0.31885985660E+02  0.00000000000E+00 0. -1.
         11    1    3    3    0    0  0.44956076075E+00 -0.21195708912E+01  0.71610738570E+01  0.74816886254E+01  0.51100000000E-03 0.  1.
        -11    1    3    3    0    0  0.13772260150E+02 -0.14854578616E+01  0.14809470172E+02  0.20278119778E+02  0.51100000000E-03 0. -1.
         12    1    3    3    0    0 -0.12262786740E+02  0.28934983857E+02 -0.27021335849E+01  0.31542205937E+02  0.00000000000E+00 0. -1.
</event>
<event>
 7    1  0.1204848E-011  0.5930194E+02  0.7816164E-02  0.1266605E+00
        -11   -1    0    0    0    0  0.00000000000E+00  0.00000000000E+00  0.45593999997E+02  0.45594000000E+02  0.51100000000E-03 0. -1.
         11   -1    0    0    0    0 -0.00000000000E+00 -0.00000000000E+00 -0.45593999997E+02  0.45594000000E+02  0.51100000000E-03 0.  1.
    9900012    2    1    2    0    0 -0.32528809655E+01  0.31087070111E+02  0.63034618116E+01  0.59301940453E+02  0.49999993480E+02 0.  0.
         12    1    1    2    0    0  0.32528809655E+01 -0.31087070111E+02 -0.63034618116E+01  0.31886059547E+02  0.00000000000E+00 0. -1.
         11    1    3    3    0    0 -0.89722370403E+01  0.18397244196E+02 -0.60615645089E+01  0.21347182392E+02  0.51100000000E-03 0. -1.
        -11    1    3    3    0    0 -0.81398888960E+01  0.18541197855E+02  0.36708976010E+01  0.20579341549E+02  0.51100000000E-03 0.  1.
         12    1    3    3    0    0  0.13859244971E+02 -0.58513719410E+01  0.86941287195E+01  0.17375416511E+02  0.00000000000E+00 0. -1.
</event>
<event>
 7    1  0.1204848E-011  0.5930195E+02  0.7816164E-02  0.1266605E+00
        -11   -1    0    0    0    0  0.00000000000E+00  0.00000000000E+00  0.45593999997E+02  0.45594000000E+02  0.51100000000E-03 0.  1.
         11   -1    0    0    0    0 -0.00000000000E+00 -0.00000000000E+00 -0.45593999997E+02  0.45594000000E+02  0.51100000000E-03 0. -1.
    9900012    2    1    2    0    0 -0.31435861330E+01  0.24445288788E+01  0.31636410306E+02  0.59301947998E+02  0.50000007241E+02 0.  0.
         12    1    1    2    0    0  0.31435861330E+01 -0.24445288788E+01 -0.31636410306E+02  0.31886052002E+02  0.00000000000E+00 0. -1.
         11    1    3    3    0    0 -0.16661008815E+02 -0.74273062173E+01  0.12017891363E+02  0.21844537199E+02  0.51100000000E-03 0. -1.
        -11    1    3    3    0    0  0.34459290031E+01  0.24345968507E+01 -0.69251757082E+01  0.81092383964E+01  0.51100000000E-03 0.  1.
        -12    1    3    3    0    0  0.10071493679E+02  0.74372382454E+01  0.26543694652E+02  0.29348172403E+02  0.00000000000E+00 0.  1.
</event>
<event>
 7    1  0.1204848E-011  0.5930195E+02  0.7816164E-02  0.1266605E+00
        -11   -1    0    0    0    0  0.00000000000E+00  0.00000000000E+00  0.45593999997E+02  0.45594000000E+02  0.51100000000E-03 0. -1.
         11   -1    0    0    0    0 -0.00000000000E+00 -0.00000000000E+00 -0.45593999997E+02  0.45594000000E+02  0.51100000000E-03 0.  1.
    9900012    2    1    2    0    0 -0.27249387421E+01 -0.62524394634E+00 -0.31763252552E+02  0.59301946092E+02  0.50000003765E+02 0.  0.
         12    1    1    2    0    0  0.27249387421E+01  0.62524394634E+00  0.31763252552E+02  0.31886053908E+02  0.00000000000E+00 0. -1.
         11    1    3    3    0    0  0.55452125826E+01  0.86038054347E+01 -0.43663990950E+01  0.11128355308E+02  0.51100000000E-03 0. -1.
        -11    1    3    3    0    0 -0.37624951054E+01  0.66157976159E+01 -0.30478396906E+02  0.31414293335E+02  0.51100000000E-03 0.  1.
         12    1    3    3    0    0 -0.45076562193E+01 -0.15844846997E+02  0.30815434491E+01  0.16759297449E+02  0.00000000000E+00 0. -1.
</event>
<event>
 7    1  0.1204848E-011  0.5930194E+02  0.7816164E-02  0.1266605E+00
        -11   -1    0    0    0    0  0.00000000000E+00  0.00000000000E+00  0.45593999997E+02  0.45594000000E+02  0.51100000000E-03 0.  1.
         11   -1    0    0    0    0 -0.00000000000E+00 -0.00000000000E+00 -0.45593999997E+02  0.45594000000E+02  0.51100000000E-03 0. -1.
    9900012    2    1    2    0    0  0.59620590545E+01  0.34018477503E+01  0.31138433020E+02  0.59301941491E+02  0.49999995373E+02 0.  0.
         12    1    1    2    0    0 -0.59620590545E+01 -0.34018477503E+01 -0.31138433020E+02  0.31886058509E+02  0.00000000000E+00 0. -1.
         11    1    3    3    0    0 -0.64234099695E+01 -0.18125184941E+01  0.20623232412E+00  0.66774209812E+01  0.51100000000E-03 0. -1.
        -11    1    3    3    0    0 -0.11480169695E+02 -0.36048991096E+01  0.23027520848E+02  0.25981845787E+02  0.51100000000E-03 0.  1.
         12    1    3    3    0    0  0.23865638719E+02  0.88192653541E+01  0.79046798480E+01  0.26642674722E+02  0.00000000000E+00 0. -1.
</event>
<event>
 7    1  0.1204848E-011  0.5930195E+02  0.7816164E-02  0.1266605E+00
        -11   -1    0    0    0    0  0.00000000000E+00  0.00000000000E+00  0.45593999997E+02  0.45594000000E+02  0.51100000000E-03 0.  1.
         11   -1    0    0    0    0 -0.00000000000E+00 -0.00000000000E+00 -0.45593999997E+02  0.45594000000E+02  0.51100000000E-03 0. -1.
    9900012    2    1    2    0    0  0.18312433789E+02  0.22895054390E+02  0.12537605230E+02  0.59301948320E+02  0.50000007829E+02 0.  0.
         12    1    1    2    0    0 -0.18312433789E+02 -0.22895054390E+02 -0.12537605230E+02  0.31886051680E+02  0.00000000000E+00 0. -1.
         11    1    3    3    0    0  0.47099450631E+01 -0.24246814421E+01 -0.11881310668E+02  0.13008774194E+02  0.51100000000E-03 0. -1.
        -11    1    3    3    0    0 -0.34083488824E+01 -0.64460848881E+00 -0.32184551265E+01  0.47318934762E+01  0.51100000000E-03 0.  1.
        -12    1    3    3    0    0  0.17010837608E+02  0.25964344321E+02  0.27637371024E+02  0.41561280650E+02  0.00000000000E+00 0.  1.
</event>
<event>
 7    1  0.1204848E-011  0.5930194E+02  0.7816164E-02  0.1266605E+00
        -11   -1    0    0    0    0  0.00000000000E+00  0.00000000000E+00  0.45593999997E+02  0.45594000000E+02  0.51100000000E-03 0. -1.
         11   -1    0    0    0    0 -0.00000000000E+00 -0.00000000000E+00 -0.45593999997E+02  0.45594000000E+02  0.51100000000E-03 0.  1.
    9900012    2    1    2    0    0  0.20337580653E+02  0.23829248191E+02 -0.59389238139E+01  0.59301936081E+02  0.49999985507E+02 0.  0.
         12    1    1    2    0    0 -0.20337580653E+02 -0.23829248191E+02  0.59389238139E+01  0.31886063919E+02  0.00000000000E+00 0. -1.
         11    1    3    3    0    0  0.50656646190E+01 -0.55447523535E+01 -0.11868092863E+02  0.14044816309E+02  0.51100000000E-03 0.  1.
        -11    1    3    3    0    0  0.11424459033E+02  0.18213656907E+02  0.18244413532E+02  0.28197769194E+02  0.51100000000E-03 0. -1.
         12    1    3    3    0    0  0.38474570012E+01  0.11160343638E+02 -0.12315244482E+02  0.17059350578E+02  0.00000000000E+00 0. -1.
</event>
<event>
 7    1  0.1204848E-011  0.5930194E+02  0.7816164E-02  0.1266605E+00
        -11   -1    0    0    0    0  0.00000000000E+00  0.00000000000E+00  0.45593999997E+02  0.45594000000E+02  0.51100000000E-03 0.  1.
         11   -1    0    0    0    0 -0.00000000000E+00 -0.00000000000E+00 -0.45593999997E+02  0.45594000000E+02  0.51100000000E-03 0. -1.
    9900012    2    1    2    0    0 -0.96363528897E+01  0.26747119391E+02  0.14437900224E+02  0.59301942614E+02  0.49999997423E+02 0.  0.
         12    1    1    2    0    0  0.96363528897E+01 -0.26747119391E+02 -0.14437900224E+02  0.31886057386E+02  0.00000000000E+00 0. -1.
         11    1    3    3    0    0 -0.23268406310E+02  0.16820430143E+02  0.58629529739E+00  0.28717404911E+02  0.51100000000E-03 0. -1.
        -11    1    3    3    0    0  0.39547327940E+01  0.26997769698E+01  0.17359184848E+02  0.18007498605E+02  0.51100000000E-03 0.  1.
        -12    1    3    3    0    0  0.96773206260E+01  0.72269122779E+01 -0.35075799219E+01  0.12577039098E+02  0.00000000000E+00 0.  1.
</event>
<event>
 7    1  0.1204848E-011  0.5930196E+02  0.7816164E-02  0.1266605E+00
        -11   -1    0    0    0    0  0.00000000000E+00  0.00000000000E+00  0.45593999997E+02  0.45594000000E+02  0.51100000000E-03 0.  1.
         11   -1    0    0    0    0 -0.00000000000E+00 -0.00000000000E+00 -0.45593999997E+02  0.45594000000E+02  0.51100000000E-03 0. -1.
    9900012    2    1    2    0    0  0.21585896830E+02  0.18002447326E+02  0.15055921095E+02  0.59301955847E+02  0.50000021556E+02 0.  0.
         12    1    1    2    0    0 -0.21585896830E+02 -0.18002447326E+02 -0.15055921095E+02  0.31886044153E+02  0.00000000000E+00 0. -1.
         11    1    3    3    0    0  0.17795282309E+01  0.14063071641E+01  0.26239271169E+01  0.34683446110E+01  0.51100000000E-03 0. -1.
        -11    1    3    3    0    0  0.15821075302E+02 -0.19046108075E+01  0.27405286867E+02  0.31701478114E+02  0.51100000000E-03 0.  1.
         12    1    3    3    0    0  0.39852932964E+01  0.18500750970E+02 -0.14973292889E+02  0.24132133123E+02  0.00000000000E+00 0. -1.
</event>
<event>
 7    1  0.1204848E-011  0.5930194E+02  0.7816164E-02  0.1266605E+00
        -11   -1    0    0    0    0  0.00000000000E+00  0.00000000000E+00  0.45593999997E+02  0.45594000000E+02  0.51100000000E-03 0.  1.
         11   -1    0    0    0    0 -0.00000000000E+00 -0.00000000000E+00 -0.45593999997E+02  0.45594000000E+02  0.51100000000E-03 0. -1.
    9900012    2    1    2    0    0  0.46195813713E+01  0.52064066214E+01  0.31117090993E+02  0.59301944211E+02  0.50000000334E+02 0.  0.
         12    1    1    2    0    0 -0.46195813713E+01 -0.52064066214E+01 -0.31117090993E+02  0.31886055789E+02  0.00000000000E+00 0. -1.
         11    1    3    3    0    0  0.23436502543E+01 -0.48553928142E+01  0.19581572667E+02  0.20310232010E+02  0.51100000000E-03 0. -1.
        -11    1    3    3    0    0 -0.43644348945E+01  0.18898079384E+01  0.22964325086E+02  0.23451650111E+02  0.51100000000E-03 0.  1.
         12    1    3    3    0    0  0.66403660116E+01  0.81719914971E+01 -0.11428806761E+02  0.15540062090E+02  0.00000000000E+00 0. -1.
</event>
<event>
 7    1  0.1204848E-011  0.5930207E+02  0.7816164E-02  0.1266604E+00
        -11   -1    0    0    0    0  0.00000000000E+00  0.00000000000E+00  0.45593999997E+02  0.45594000000E+02  0.51100000000E-03 0.  1.
         11   -1    0    0    0    0 -0.00000000000E+00 -0.00000000000E+00 -0.45593999997E+02  0.45594000000E+02  0.51100000000E-03 0. -1.
    9900012    2    1    2    0    0  0.34418347162E+01  0.18559357074E+02  0.25698572604E+02  0.59302069010E+02  0.50000227937E+02 0.  0.
         12    1    1    2    0    0 -0.34418347162E+01 -0.18559357074E+02 -0.25698572604E+02  0.31885930990E+02  0.00000000000E+00 0. -1.
         11    1    3    3    0    0  0.24452714774E+01 -0.15142521379E+01 -0.37463115485E+01  0.47230459044E+01  0.51100000000E-03 0. -1.
        -11    1    3    3    0    0  0.25840778239E-01 -0.67515815543E+01  0.26764303402E+02  0.27602761783E+02  0.51100000000E-03 0.  1.
         12    1    3    3    0    0  0.97072246053E+00  0.26825190767E+02  0.26805807505E+01  0.26976261322E+02  0.00000000000E+00 0. -1.
</event>
<event>
 7    1  0.1204848E-011  0.5930195E+02  0.7816164E-02  0.1266605E+00
        -11   -1    0    0    0    0  0.00000000000E+00  0.00000000000E+00  0.45593999997E+02  0.45594000000E+02  0.51100000000E-03 0. -1.
         11   -1    0    0    0    0 -0.00000000000E+00 -0.00000000000E+00 -0.45593999997E+02  0.45594000000E+02  0.51100000000E-03 0.  1.
    9900012    2    1    2    0    0  0.27505594144E+02 -0.16064708574E+02  0.14448298776E+01  0.59301951262E+02  0.50000013193E+02 0.  0.
         12    1    1    2    0    0 -0.27505594144E+02  0.16064708574E+02 -0.14448298776E+01  0.31886048738E+02  0.00000000000E+00 0. -1.
         11    1    3    3    0    0  0.25622563747E+01  0.16063314345E+01 -0.44906365480E+01  0.54139888506E+01  0.51100000000E-03 0. -1.
        -11    1    3    3    0    0  0.23405093920E+02 -0.10785110644E+02 -0.16345130516E+02  0.30516885897E+02  0.51100000000E-03 0.  1.
         12    1    3    3    0    0  0.15382438494E+01 -0.68859293639E+01  0.22280596942E+02  0.23371076514E+02  0.00000000000E+00 0. -1.
</event>
<event>
 7    1  0.1204848E-011  0.5930194E+02  0.7816164E-02  0.1266605E+00
        -11   -1    0    0    0    0  0.00000000000E+00  0.00000000000E+00  0.45593999997E+02  0.45594000000E+02  0.51100000000E-03 0.  1.
         11   -1    0    0    0    0 -0.00000000000E+00 -0.00000000000E+00 -0.45593999997E+02  0.45594000000E+02  0.51100000000E-03 0. -1.
    9900012    2    1    2    0    0 -0.14612286282E+02  0.76012797307E+01  0.27302429089E+02  0.59301937244E+02  0.49999987628E+02 0.  0.
         12    1    1    2    0    0  0.14612286282E+02 -0.76012797307E+01 -0.27302429089E+02  0.31886062756E+02  0.00000000000E+00 0. -1.
         11    1    3    3    0    0 -0.51767445589E+01  0.55723348013E+01 -0.71444196756E-02  0.76058957836E+01  0.51100000000E-03 0. -1.
        -11    1    3    3    0    0 -0.23025342563E+02  0.10739930986E+02  0.82354796820E+01  0.26708344082E+02  0.51100000000E-03 0.  1.
         12    1    3    3    0    0  0.13589800840E+02 -0.87109860567E+01  0.19074093827E+02  0.24987697378E+02  0.00000000000E+00 0. -1.
</event>
<event>
 7    1  0.1317794E-011  0.5930195E+02  0.7816164E-02  0.1266605E+00
        -11   -1    0    0    0    0  0.00000000000E+00  0.00000000000E+00  0.45593999997E+02  0.45594000000E+02  0.51100000000E-03 0. -1.
         11   -1    0    0    0    0 -0.00000000000E+00 -0.00000000000E+00 -0.45593999997E+02  0.45594000000E+02  0.51100000000E-03 0.  1.
    9900012    2    1    2    0    0 -0.31395306386E+02 -0.50884459008E+01 -0.22720973024E+01  0.59301953351E+02  0.50000017003E+02 0.  0.
         12    1    1    2    0    0  0.31395306386E+02  0.50884459008E+01  0.22720973024E+01  0.31886046649E+02  0.00000000000E+00 0. -1.
         11    1    3    3    0    0  0.28391575411E+01 -0.92273118174E+01  0.10825060290E+02  0.14504689913E+02  0.51100000000E-03 0. -1.
        -11    1    3    3    0    0 -0.23538922492E+02 -0.42845886863E+01  0.25444457232E+01  0.24060606323E+02  0.51100000000E-03 0.  1.
        -12    1    3    3    0    0 -0.10695541435E+02  0.84234546030E+01 -0.15641603316E+02  0.20736657115E+02  0.00000000000E+00 0.  1.
</event>
<event>
 7    1  0.1204848E-011  0.5930194E+02  0.7816164E-02  0.1266605E+00
        -11   -1    0    0    0    0  0.00000000000E+00  0.00000000000E+00  0.45593999997E+02  0.45594000000E+02  0.51100000000E-03 0. -1.
         11   -1    0    0    0    0 -0.00000000000E+00 -0.00000000000E+00 -0.45593999997E+02  0.45594000000E+02  0.51100000000E-03 0.  1.
    9900012    2    1    2    0    0 -0.48236729413E+01 -0.28452438448E+02 -0.13561404719E+02  0.59301940785E+02  0.49999994087E+02 0.  0.
         12    1    1    2    0    0  0.48236729413E+01  0.28452438448E+02  0.13561404719E+02  0.31886059215E+02  0.00000000000E+00 0. -1.
         11    1    3    3    0    0 -0.41117727561E+00 -0.78362319700E+00 -0.24584043939E+01  0.26128307431E+01  0.51100000000E-03 0. -1.
        -11    1    3    3    0    0  0.12672688262E+02 -0.15801768732E+02 -0.24619575619E+02  0.31881286466E+02  0.51100000000E-03 0.  1.
         12    1    3    3    0    0 -0.17085183927E+02 -0.11867046519E+02  0.13516575293E+02  0.24807823576E+02  0.00000000000E+00 0. -1.
</event>
<event>
 7    1  0.1204848E-011  0.5930195E+02  0.7816164E-02  0.1266605E+00
        -11   -1    0    0    0    0  0.00000000000E+00  0.00000000000E+00  0.45593999997E+02  0.45594000000E+02  0.51100000000E-03 0.  1.
         11   -1    0    0    0    0 -0.00000000000E+00 -0.00000000000E+00 -0.45593999997E+02  0.45594000000E+02  0.51100000000E-03 0. -1.
    9900012    2    1    2    0    0  0.23282074303E+02  0.20862673313E+02  0.62780446556E+01  0.59301953423E+02  0.50000017134E+02 0.  0.
         12    1    1    2    0    0 -0.23282074303E+02 -0.20862673313E+02 -0.62780446556E+01  0.31886046577E+02  0.00000000000E+00 0. -1.
         11    1    3    3    0    0  0.32572716130E+01 -0.41139595124E+01 -0.84217573306E+01  0.99227253326E+01  0.51100000000E-03 0. -1.
        -11    1    3    3    0    0  0.17526755211E+02  0.22609286678E+02 -0.52927500697E+01  0.29092614112E+02  0.51100000000E-03 0.  1.
        -12    1    3    3    0    0  0.24980474797E+01  0.23673461472E+01  0.19992552056E+02  0.20286613978E+02  0.00000000000E+00 0.  1.
</event>
<event>
 7    1  0.1204848E-011  0.5930193E+02  0.7816164E-02  0.1266605E+00
        -11   -1    0    0    0    0  0.00000000000E+00  0.00000000000E+00  0.45593999997E+02  0.45594000000E+02  0.51100000000E-03 0.  1.
         11   -1    0    0    0    0 -0.00000000000E+00 -0.00000000000E+00 -0.45593999997E+02  0.45594000000E+02  0.51100000000E-03 0. -1.
    9900012    2    1    2    0    0  0.67498193731E+01 -0.25259210847E+02  0.18251948183E+02  0.59301930837E+02  0.49999975944E+02 0.  0.
         12    1    1    2    0    0 -0.67498193731E+01  0.25259210847E+02 -0.18251948183E+02  0.31886069163E+02  0.00000000000E+00 0. -1.
         11    1    3    3    0    0  0.67119040506E+01 -0.24086765456E+02  0.37952268635E+01  0.25290821919E+02  0.51100000000E-03 0. -1.
        -11    1    3    3    0    0 -0.18593315837E+01 -0.14136051677E+02  0.15260675728E+02  0.20884762265E+02  0.51100000000E-03 0.  1.
        -12    1    3    3    0    0  0.18972469062E+01  0.12963606286E+02 -0.80395440838E+00  0.13126346653E+02  0.00000000000E+00 0.  1.
</event>
<event>
 7    1  0.1204848E-011  0.5930193E+02  0.7816164E-02  0.1266605E+00
        -11   -1    0    0    0    0  0.00000000000E+00  0.00000000000E+00  0.45593999997E+02  0.45594000000E+02  0.51100000000E-03 0.  1.
         11   -1    0    0    0    0 -0.00000000000E+00 -0.00000000000E+00 -0.45593999997E+02  0.45594000000E+02  0.51100000000E-03 0. -1.
    9900012    2    1    2    0    0 -0.67604443320E+01  0.27200327462E+02  0.15203946785E+02  0.59301930637E+02  0.49999975578E+02 0.  0.
         12    1    1    2    0    0  0.67604443320E+01 -0.27200327462E+02 -0.15203946785E+02  0.31886069363E+02  0.00000000000E+00 0. -1.
         11    1    3    3    0    0 -0.14127210978E+02  0.32287170805E+01 -0.70195378437E+01  0.16102068681E+02  0.51100000000E-03 0. -1.
        -11    1    3    3    0    0 -0.72070547646E+00  0.67012519178E+01 -0.60761633958E+01  0.90744672308E+01  0.51100000000E-03 0.  1.
        -12    1    3    3    0    0  0.80874721229E+01  0.17270358463E+02  0.28299648025E+02  0.34125394725E+02  0.00000000000E+00 0.  1.
</event>
<event>
 7    1  0.1204848E-011  0.5930195E+02  0.7816164E-02  0.1266605E+00
        -11   -1    0    0    0    0  0.00000000000E+00  0.00000000000E+00  0.45593999997E+02  0.45594000000E+02  0.51100000000E-03 0. -1.
         11   -1    0    0    0    0 -0.00000000000E+00 -0.00000000000E+00 -0.45593999997E+02  0.45594000000E+02  0.51100000000E-03 0.  1.
    9900012    2    1    2    0    0 -0.15502584117E+02 -0.25361660514E+02 -0.11540206556E+02  0.59301948101E+02  0.50000007428E+02 0.  0.
         12    1    1    2    0    0  0.15502584117E+02  0.25361660514E+02  0.11540206556E+02  0.31886051899E+02  0.00000000000E+00 0. -1.
         11    1    3    3    0    0  0.20126826935E+01  0.78074781491E+01  0.88009278126E+01  0.11935825790E+02  0.51100000000E-03 0. -1.
        -11    1    3    3    0    0 -0.25796883054E+01  0.96955113692E+00 -0.74385676202E+01  0.79326609445E+01  0.51100000000E-03 0.  1.
        -12    1    3    3    0    0 -0.14935578505E+02 -0.34138689800E+02 -0.12902566749E+02  0.39433461366E+02  0.00000000000E+00 0.  1.
</event>
<event>
 7    1  0.1204848E-011  0.5930190E+02  0.7816164E-02  0.1266605E+00
        -11   -1    0    0    0    0  0.00000000000E+00  0.00000000000E+00  0.45593999997E+02  0.45594000000E+02  0.51100000000E-03 0.  1.
         11   -1    0    0    0    0 -0.00000000000E+00 -0.00000000000E+00 -0.45593999997E+02  0.45594000000E+02  0.51100000000E-03 0. -1.
    9900012    2    1    2    0    0 -0.10864025464E+02 -0.16297038723E+02  0.25161531339E+02  0.59301903034E+02  0.49999925236E+02 0.  0.
         12    1    1    2    0    0  0.10864025464E+02  0.16297038723E+02 -0.25161531339E+02  0.31886096966E+02  0.00000000000E+00 0. -1.
         11    1    3    3    0    0 -0.21809452339E+02  0.23361564523E+01  0.86433740359E+00  0.21951239548E+02  0.51100000000E-03 0. -1.
        -11    1    3    3    0    0  0.31142001246E+01  0.36106725515E+01  0.45838610328E+01  0.66141500526E+01  0.51100000000E-03 0.  1.
        -12    1    3    3    0    0  0.78312267502E+01 -0.22243867727E+02  0.19713332902E+02  0.30736513433E+02  0.00000000000E+00 0.  1.
</event>
<event>
 7    1  0.1204848E-011  0.5930196E+02  0.7816164E-02  0.1266605E+00
        -11   -1    0    0    0    0  0.00000000000E+00  0.00000000000E+00  0.45593999997E+02  0.45594000000E+02  0.51100000000E-03 0.  1.
         11   -1    0    0    0    0 -0.00000000000E+00 -0.00000000000E+00 -0.45593999997E+02  0.45594000000E+02  0.51100000000E-03 0. -1.
    9900012    2    1    2    0    0  0.23868732850E+02  0.18956377604E+02 -0.93626281438E+01  0.59301961276E+02  0.50000031457E+02 0.  0.
         12    1    1    2    0    0 -0.23868732850E+02 -0.18956377604E+02  0.93626281438E+01  0.31886038724E+02  0.00000000000E+00 0. -1.
         11    1    3    3    0    0  0.15316036268E+02 -0.94496912272E+01  0.38628947837E+01  0.18406509382E+02  0.51100000000E-03 0. -1.
        -11    1    3    3    0    0  0.45014427322E+01  0.63821755301E+01 -0.16508491370E+02  0.18262678849E+02  0.51100000000E-03 0.  1.
         12    1    3    3    0    0  0.40512538502E+01  0.22023893302E+02  0.32829684428E+01  0.22632773045E+02  0.00000000000E+00 0. -1.
</event>
<event>
 7    1  0.1204848E-011  0.5930192E+02  0.7816164E-02  0.1266605E+00
        -11   -1    0    0    0    0  0.00000000000E+00  0.00000000000E+00  0.45593999997E+02  0.45594000000E+02  0.51100000000E-03 0. -1.
         11   -1    0    0    0    0 -0.00000000000E+00 -0.00000000000E+00 -0.45593999997E+02  0.45594000000E+02  0.51100000000E-03 0.  1.
    9900012    2    1    2    0    0  0.26656165780E+02 -0.13090450448E+02 -0.11610824650E+02  0.59301916576E+02  0.49999949936E+02 0.  0.
         12    1    1    2    0    0 -0.26656165780E+02  0.13090450448E+02  0.11610824650E+02  0.31886083424E+02  0.00000000000E+00 0. -1.
         11    1    3    3    0    0  0.58051712299E+01  0.66470470111E+01 -0.29519835322E+01  0.93057753042E+01  0.51100000000E-03 0. -1.
        -11    1    3    3    0    0 -0.26149951985E+01  0.63003108861E+01  0.85583010047E+01  0.10944251162E+02  0.51100000000E-03 0.  1.
        -12    1    3    3    0    0  0.23465989749E+02 -0.26037808345E+02 -0.17217142123E+02  0.39051890110E+02  0.00000000000E+00 0.  1.
</event>
<event>
 7    1  0.1204848E-011  0.5930194E+02  0.7816164E-02  0.1266605E+00
        -11   -1    0    0    0    0  0.00000000000E+00  0.00000000000E+00  0.45593999997E+02  0.45594000000E+02  0.51100000000E-03 0. -1.
         11   -1    0    0    0    0 -0.00000000000E+00 -0.00000000000E+00 -0.45593999997E+02  0.45594000000E+02  0.51100000000E-03 0.  1.
    9900012    2    1    2    0    0  0.27118253189E+02  0.11183771417E+02  0.12499768753E+02  0.59301943204E+02  0.49999998498E+02 0.  0.
         12    1    1    2    0    0 -0.27118253189E+02 -0.11183771417E+02 -0.12499768753E+02  0.31886056796E+02  0.00000000000E+00 0. -1.
         11    1    3    3    0    0  0.16186152246E+02  0.25206949304E+02  0.15031484819E+02  0.33516076051E+02  0.51100000000E-03 0. -1.
        -11    1    3    3    0    0 -0.57819100922E+00 -0.16301538611E+01 -0.78636475167E+01  0.80516246175E+01  0.51100000000E-03 0.  1.
        -12    1    3    3    0    0  0.11510291952E+02 -0.12393024026E+02  0.53319314502E+01  0.17734242536E+02  0.00000000000E+00 0.  1.
</event>
<event>
 7    1  0.1204848E-011  0.5930194E+02  0.7816164E-02  0.1266605E+00
        -11   -1    0    0    0    0  0.00000000000E+00  0.00000000000E+00  0.45593999997E+02  0.45594000000E+02  0.51100000000E-03 0. -1.
         11   -1    0    0    0    0 -0.00000000000E+00 -0.00000000000E+00 -0.45593999997E+02  0.45594000000E+02  0.51100000000E-03 0.  1.
    9900012    2    1    2    0    0 -0.25045652133E+02  0.14990913606E+02 -0.12833874581E+02  0.59301944768E+02  0.50000001351E+02 0.  0.
         12    1    1    2    0    0  0.25045652133E+02 -0.14990913606E+02  0.12833874581E+02  0.31886055232E+02  0.00000000000E+00 0. -1.
         11    1    3    3    0    0 -0.12399912749E+02  0.69706590506E+00 -0.68628951602E+01  0.14189540771E+02  0.51100000000E-03 0. -1.
        -11    1    3    3    0    0 -0.17435084868E+02 -0.79501226953E+01 -0.10591266198E+02  0.21894327008E+02  0.51100000000E-03 0.  1.
         12    1    3    3    0    0  0.47893454840E+01  0.22243970396E+02  0.46202867773E+01  0.23218076989E+02  0.00000000000E+00 0. -1.
</event>
<event>
 7    1  0.1204848E-011  0.5930194E+02  0.7816164E-02  0.1266605E+00
        -11   -1    0    0    0    0  0.00000000000E+00  0.00000000000E+00  0.45593999997E+02  0.45594000000E+02  0.51100000000E-03 0. -1.
         11   -1    0    0    0    0 -0.00000000000E+00 -0.00000000000E+00 -0.45593999997E+02  0.45594000000E+02  0.51100000000E-03 0.  1.
    9900012    2    1    2    0    0  0.20093805577E+02  0.24489775276E+02 -0.36346724414E+01  0.59301937850E+02  0.49999988734E+02 0.  0.
         12    1    1    2    0    0 -0.20093805577E+02 -0.24489775276E+02  0.36346724414E+01  0.31886062150E+02  0.00000000000E+00 0. -1.
         11    1    3    3    0    0  0.14190730301E+02  0.14402823265E+02 -0.54901092827E+01  0.20951359017E+02  0.51100000000E-03 0. -1.
        -11    1    3    3    0    0  0.11152462793E+02  0.16765869158E+02 -0.10997688308E+02  0.22943865049E+02  0.51100000000E-03 0.  1.
         12    1    3    3    0    0 -0.52493875167E+01 -0.66789171467E+01  0.12853125149E+02  0.15406713785E+02  0.00000000000E+00 0. -1.
</event>
<event>
 7    1  0.1204848E-011  0.5930185E+02  0.7816164E-02  0.1266605E+00
        -11   -1    0    0    0    0  0.00000000000E+00  0.00000000000E+00  0.45593999997E+02  0.45594000000E+02  0.51100000000E-03 0.  1.
         11   -1    0    0    0    0 -0.00000000000E+00 -0.00000000000E+00 -0.45593999997E+02  0.45594000000E+02  0.51100000000E-03 0. -1.
    9900012    2    1    2    0    0  0.27068948775E+02  0.15813547963E+02  0.58249632376E+01  0.59301851225E+02  0.49999830751E+02 0.  0.
         12    1    1    2    0    0 -0.27068948775E+02 -0.15813547963E+02 -0.58249632376E+01  0.31886148775E+02  0.00000000000E+00 0. -1.
         11    1    3    3    0    0  0.94027029326E+01  0.77316291005E+01  0.34262489572E+01  0.12646267954E+02  0.51100000000E-03 0. -1.
        -11    1    3    3    0    0  0.16563810473E+02  0.24755733869E+02  0.29840904384E+01  0.29935112708E+02  0.51100000000E-03 0.  1.
         12    1    3    3    0    0  0.11024353689E+01 -0.16673815007E+02 -0.58537615803E+00  0.16720470564E+02  0.00000000000E+00 0. -1.
</event>
<event>
 7    1  0.1204848E-011  0.5930234E+02  0.7816164E-02  0.1266603E+00
        -11   -1    0    0    0    0  0.00000000000E+00  0.00000000000E+00  0.45593999997E+02  0.45594000000E+02  0.51100000000E-03 0. -1.
         11   -1    0    0    0    0 -0.00000000000E+00 -0.00000000000E+00 -0.45593999997E+02  0.45594000000E+02  0.51100000000E-03 0.  1.
    9900012    2    1    2    0    0 -0.17856015750E+02  0.26259633739E+02  0.28791570073E+01  0.59302341663E+02  0.50000725185E+02 0.  0.
         12    1    1    2    0    0  0.17856015750E+02 -0.26259633739E+02 -0.28791570073E+01  0.31885658337E+02  0.00000000000E+00 0. -1.
         11    1    3    3    0    0 -0.11297360547E+02  0.15428371181E+01  0.18035059351E+01  0.11543973996E+02  0.51100000000E-03 0. -1.
        -11    1    3    3    0    0 -0.70391454918E+01  0.20224719067E+02 -0.18111420615E+02  0.28046610981E+02  0.51100000000E-03 0.  1.
         12    1    3    3    0    0  0.48049028898E+00  0.44920775539E+01  0.19187071688E+02  0.19711756685E+02  0.00000000000E+00 0. -1.
</event>
<event>
 7    1  0.1204848E-011  0.5930195E+02  0.7816164E-02  0.1266605E+00
        -11   -1    0    0    0    0  0.00000000000E+00  0.00000000000E+00  0.45593999997E+02  0.45594000000E+02  0.51100000000E-03 0.  1.
         11   -1    0    0    0    0 -0.00000000000E+00 -0.00000000000E+00 -0.45593999997E+02  0.45594000000E+02  0.51100000000E-03 0. -1.
    9900012    2    1    2    0    0  0.12096486469E+01 -0.30883281849E+02  0.78409187700E+01  0.59301947332E+02  0.50000006026E+02 0.  0.
         12    1    1    2    0    0 -0.12096486469E+01  0.30883281849E+02 -0.78409187700E+01  0.31886052668E+02  0.00000000000E+00 0. -1.
         11    1    3    3    0    0 -0.10509699197E+02 -0.20272581520E+02 -0.13101380881E+02  0.26326365490E+02  0.51100000000E-03 0. -1.
        -11    1    3    3    0    0 -0.15726685559E+01 -0.11800069630E+02  0.77144745647E+01  0.14185487222E+02  0.51100000000E-03 0.  1.
        -12    1    3    3    0    0  0.13292016400E+02  0.11893693013E+01  0.13227825086E+02  0.18790094619E+02  0.00000000000E+00 0.  1.
</event>
<event>
 7    1  0.1204848E-011  0.5930194E+02  0.7816164E-02  0.1266605E+00
        -11   -1    0    0    0    0  0.00000000000E+00  0.00000000000E+00  0.45593999997E+02  0.45594000000E+02  0.51100000000E-03 0. -1.
         11   -1    0    0    0    0 -0.00000000000E+00 -0.00000000000E+00 -0.45593999997E+02  0.45594000000E+02  0.51100000000E-03 0.  1.
    9900012    2    1    2    0    0 -0.29821031664E+02  0.10997525154E+02 -0.25459041756E+01  0.59301935378E+02  0.49999984225E+02 0.  0.
         12    1    1    2    0    0  0.29821031664E+02 -0.10997525154E+02  0.25459041756E+01  0.31886064622E+02  0.00000000000E+00 0. -1.
         11    1    3    3    0    0 -0.25679771326E+02  0.16897695922E+01 -0.13617114932E+02  0.29115834111E+02  0.51100000000E-03 0. -1.
        -11    1    3    3    0    0 -0.50074756571E+01  0.92093618032E+00 -0.79154445147E+01  0.94115459958E+01  0.51100000000E-03 0.  1.
         12    1    3    3    0    0  0.86621531911E+00  0.83868193814E+01  0.18986655271E+02  0.20774555271E+02  0.00000000000E+00 0. -1.
</event>
<event>
 7    1  0.1204848E-011  0.5930194E+02  0.7816164E-02  0.1266605E+00
        -11   -1    0    0    0    0  0.00000000000E+00  0.00000000000E+00  0.45593999997E+02  0.45594000000E+02  0.51100000000E-03 0. -1.
         11   -1    0    0    0    0 -0.00000000000E+00 -0.00000000000E+00 -0.45593999997E+02  0.45594000000E+02  0.51100000000E-03 0.  1.
    9900012    2    1    2    0    0 -0.16623390185E+02  0.26919735565E+02  0.39638051111E+01  0.59301936977E+02  0.49999987141E+02 0.  0.
         12    1    1    2    0    0  0.16623390185E+02 -0.26919735565E+02 -0.39638051111E+01  0.31886063023E+02  0.00000000000E+00 0. -1.
         11    1    3    3    0    0  0.80532625884E+01  0.12998197359E+02  0.67346348114E+01  0.16708185994E+02  0.51100000000E-03 0. -1.
        -11    1    3    3    0    0 -0.61302278938E+01 -0.93970420572E+01 -0.58269655732E+01  0.12642690438E+02  0.51100000000E-03 0.  1.
        -12    1    3    3    0    0 -0.18546424879E+02  0.23318580263E+02  0.30561358729E+01  0.29951060545E+02  0.00000000000E+00 0.  1.
</event>
<event>
 7    1  0.1204848E-011  0.5930194E+02  0.7816164E-02  0.1266605E+00
        -11   -1    0    0    0    0  0.00000000000E+00  0.00000000000E+00  0.45593999997E+02  0.45594000000E+02  0.51100000000E-03 0. -1.
         11   -1    0    0    0    0 -0.00000000000E+00 -0.00000000000E+00 -0.45593999997E+02  0.45594000000E+02  0.51100000000E-03 0.  1.
    9900012    2    1    2    0    0 -0.24311943242E+01 -0.11142359856E+02 -0.29776799753E+02  0.59301942035E+02  0.49999996366E+02 0.  0.
         12    1    1    2    0    0  0.24311943242E+01  0.11142359856E+02  0.29776799753E+02  0.31886057965E+02  0.00000000000E+00 0. -1.
         11    1    3    3    0    0  0.67056370268E+01 -0.54999690888E+01  0.54887971731E+01  0.10263631062E+02  0.51100000000E-03 0. -1.
        -11    1    3    3    0    0  0.19513542704E+01  0.11201812218E+02 -0.44491955038E+01  0.12209984495E+02  0.51100000000E-03 0.  1.
        -12    1    3    3    0    0 -0.11088185621E+02 -0.16844202985E+02 -0.30816401422E+02  0.36828326479E+02  0.00000000000E+00 0.  1.
</event>
<event>
 7    1  0.1204848E-011  0.5930193E+02  0.7816164E-02  0.1266605E+00
        -11   -1    0    0    0    0  0.00000000000E+00  0.00000000000E+00  0.45593999997E+02  0.45594000000E+02  0.51100000000E-03 0. -1.
         11   -1    0    0    0    0 -0.00000000000E+00 -0.00000000000E+00 -0.45593999997E+02  0.45594000000E+02  0.51100000000E-03 0.  1.
    9900012    2    1    2    0    0 -0.25024968563E+02  0.11791495531E+02 -0.15856634422E+02  0.59301932923E+02  0.49999979749E+02 0.  0.
         12    1    1    2    0    0  0.25024968563E+02 -0.11791495531E+02  0.15856634422E+02  0.31886067077E+02  0.00000000000E+00 0. -1.
         11    1    3    3    0    0 -0.34535025704E+02 -0.23626874385E+01 -0.33259151186E+00  0.34617349836E+02  0.51100000000E-03 0. -1.
        -11    1    3    3    0    0  0.28402266898E+01  0.98079370711E+00  0.32599800237E+00  0.30224359222E+01  0.51100000000E-03 0.  1.
        -12    1    3    3    0    0  0.66698304510E+01  0.13173389262E+02 -0.15850040912E+02  0.21662147165E+02  0.00000000000E+00 0.  1.
</event>
<event>
 7    1  0.1204848E-011  0.5930197E+02  0.7816164E-02  0.1266605E+00
        -11   -1    0    0    0    0  0.00000000000E+00  0.00000000000E+00  0.45593999997E+02  0.45594000000E+02  0.51100000000E-03 0.  1.
         11   -1    0    0    0    0 -0.00000000000E+00 -0.00000000000E+00 -0.45593999997E+02  0.45594000000E+02  0.51100000000E-03 0. -1.
    9900012    2    1    2    0    0 -0.18278381294E+02 -0.46655446070E+01  0.25707049118E+02  0.59301970088E+02  0.50000047527E+02 0.  0.
         12    1    1    2    0    0  0.18278381294E+02  0.46655446070E+01 -0.25707049118E+02  0.31886029912E+02  0.00000000000E+00 0. -1.
         11    1    3    3    0    0 -0.46709736109E+01 -0.15098231217E+02 -0.10860674113E+01  0.15841531587E+02  0.51100000000E-03 0. -1.
        -11    1    3    3    0    0  0.37164403763E+01  0.56179728141E+01 -0.39767128235E+01  0.78222626363E+01  0.51100000000E-03 0.  1.
        -12    1    3    3    0    0 -0.17323848059E+02  0.48147137957E+01  0.30769829353E+02  0.35638175864E+02  0.00000000000E+00 0.  1.
</event>
<event>
 7    1  0.1204848E-011  0.5930194E+02  0.7816164E-02  0.1266605E+00
        -11   -1    0    0    0    0  0.00000000000E+00  0.00000000000E+00  0.45593999997E+02  0.45594000000E+02  0.51100000000E-03 0. -1.
         11   -1    0    0    0    0 -0.00000000000E+00 -0.00000000000E+00 -0.45593999997E+02  0.45594000000E+02  0.51100000000E-03 0.  1.
    9900012    2    1    2    0    0 -0.18577352911E+02  0.22485864502E+02 -0.12883651259E+02  0.59301943277E+02  0.49999998631E+02 0.  0.
         12    1    1    2    0    0  0.18577352911E+02 -0.22485864502E+02  0.12883651259E+02  0.31886056723E+02  0.00000000000E+00 0. -1.
         11    1    3    3    0    0  0.64613267288E+01 -0.47330802975E+01 -0.65618299279E+01  0.10354149142E+02  0.51100000000E-03 0. -1.
        -11    1    3    3    0    0 -0.11024268649E+02  0.25000260830E+02 -0.16102040505E+02  0.31714716608E+02  0.51100000000E-03 0.  1.
        -12    1    3    3    0    0 -0.14014410991E+02  0.22186839694E+01  0.97802191735E+01  0.17233077527E+02  0.00000000000E+00 0.  1.
</event>
<event>
 7    1  0.1204848E-011  0.5930199E+02  0.7816164E-02  0.1266605E+00
        -11   -1    0    0    0    0  0.00000000000E+00  0.00000000000E+00  0.45593999997E+02  0.45594000000E+02  0.51100000000E-03 0. -1.
         11   -1    0    0    0    0 -0.00000000000E+00 -0.00000000000E+00 -0.45593999997E+02  0.45594000000E+02  0.51100000000E-03 0.  1.
    9900012    2    1    2    0    0  0.34877717333E+01 -0.31580918301E+02 -0.26830203564E+01  0.59301991303E+02  0.50000086219E+02 0.  0.
         12    1    1    2    0    0 -0.34877717333E+01  0.31580918301E+02  0.26830203564E+01  0.31886008697E+02  0.00000000000E+00 0. -1.
         11    1    3    3    0    0 -0.12733027319E+01 -0.39820095718E+01 -0.42585348594E+01  0.59676477348E+01  0.51100000000E-03 0. -1.
        -11    1    3    3    0    0 -0.11540129471E+02 -0.32599181724E+02 -0.52314208352E+01  0.34974976790E+02  0.51100000000E-03 0.  1.
         12    1    3    3    0    0  0.16301203936E+02  0.50002729948E+01  0.68069353382E+01  0.18359366778E+02  0.00000000000E+00 0. -1.
</event>
<event>
 7    1  0.1204848E-011  0.5930194E+02  0.7816164E-02  0.1266605E+00
        -11   -1    0    0    0    0  0.00000000000E+00  0.00000000000E+00  0.45593999997E+02  0.45594000000E+02  0.51100000000E-03 0. -1.
         11   -1    0    0    0    0 -0.00000000000E+00 -0.00000000000E+00 -0.45593999997E+02  0.45594000000E+02  0.51100000000E-03 0.  1.
    9900012    2    1    2    0    0 -0.73651944265E+01 -0.25538951838E+02 -0.17613533490E+02  0.59301941731E+02  0.49999995811E+02 0.  0.
         12    1    1    2    0    0  0.73651944265E+01  0.25538951838E+02  0.17613533490E+02  0.31886058269E+02  0.00000000000E+00 0. -1.
         11    1    3    3    0    0 -0.17505070084E+02 -0.12654435556E+02 -0.27322317818E+01  0.21772168212E+02  0.51100000000E-03 0. -1.
        -11    1    3    3    0    0 -0.20763574862E+01 -0.22694331048E+01 -0.20247244422E+02  0.20479562836E+02  0.51100000000E-03 0.  1.
        -12    1    3    3    0    0  0.12216233144E+02 -0.10615083177E+02  0.53659427138E+01  0.17050210682E+02  0.00000000000E+00 0.  1.
</event>
<event>
 7    1  0.1204848E-011  0.5930194E+02  0.7816164E-02  0.1266605E+00
        -11   -1    0    0    0    0  0.00000000000E+00  0.00000000000E+00  0.45593999997E+02  0.45594000000E+02  0.51100000000E-03 0.  1.
         11   -1    0    0    0    0 -0.00000000000E+00 -0.00000000000E+00 -0.45593999997E+02  0.45594000000E+02  0.51100000000E-03 0. -1.
    9900012    2    1    2    0    0  0.24220263721E+02  0.19358605187E+02  0.74393780127E+01  0.59301935415E+02  0.49999984293E+02 0.  0.
         12    1    1    2    0    0 -0.24220263721E+02 -0.19358605187E+02 -0.74393780127E+01  0.31886064585E+02  0.00000000000E+00 0. -1.
         11    1    3    3    0    0  0.15209101779E+02 -0.35082721741E+01  0.73588149212E+01  0.17256213602E+02  0.51100000000E-03 0. -1.
        -11    1    3    3    0    0  0.16117246644E+02 -0.19449989843E+01  0.23338271867E+00  0.16235859330E+02  0.51100000000E-03 0.  1.
        -12    1    3    3    0    0 -0.71060847024E+01  0.24811876345E+02 -0.15281962716E+00  0.25809862483E+02  0.00000000000E+00 0.  1.
</event>
<event>
 7    1  0.1204848E-011  0.5930195E+02  0.7816164E-02  0.1266605E+00
        -11   -1    0    0    0    0  0.00000000000E+00  0.00000000000E+00  0.45593999997E+02  0.45594000000E+02  0.51100000000E-03 0. -1.
         11   -1    0    0    0    0 -0.00000000000E+00 -0.00000000000E+00 -0.45593999997E+02  0.45594000000E+02  0.51100000000E-03 0.  1.
    9900012    2    1    2    0    0 -0.19101722797E+02 -0.17731411425E+01 -0.25469598978E+02  0.59301947948E+02  0.50000007150E+02 0.  0.
         12    1    1    2    0    0  0.19101722797E+02  0.17731411425E+01  0.25469598978E+02  0.31886052052E+02  0.00000000000E+00 0. -1.
         11    1    3    3    0    0 -0.13187439001E+01  0.54715480425E+01 -0.37950970161E+01  0.67882019032E+01  0.51100000000E-03 0. -1.
        -11    1    3    3    0    0 -0.85246873493E+01 -0.14737160505E+02 -0.32326097750E+02  0.36535336185E+02  0.51100000000E-03 0.  1.
         12    1    3    3    0    0 -0.92582915473E+01  0.74924713201E+01  0.10651595787E+02  0.15978409861E+02  0.00000000000E+00 0. -1.
</event>
<event>
 7    1  0.1204848E-011  0.5930195E+02  0.7816164E-02  0.1266605E+00
        -11   -1    0    0    0    0  0.00000000000E+00  0.00000000000E+00  0.45593999997E+02  0.45594000000E+02  0.51100000000E-03 0. -1.
         11   -1    0    0    0    0 -0.00000000000E+00 -0.00000000000E+00 -0.45593999997E+02  0.45594000000E+02  0.51100000000E-03 0.  1.
    9900012    2    1    2    0    0 -0.13902299606E+02 -0.46304820802E+01 -0.28319685933E+02  0.59301954307E+02  0.50000018746E+02 0.  0.
         12    1    1    2    0    0  0.13902299606E+02  0.46304820802E+01  0.28319685933E+02  0.31886045693E+02  0.00000000000E+00 0. -1.
         11    1    3    3    0    0 -0.66682178628E-02 -0.51560123958E+01 -0.19916817229E+00  0.51598620633E+01  0.51100000000E-03 0. -1.
        -11    1    3    3    0    0  0.11585230861E+02 -0.12946193914E+02 -0.91365366508E+01  0.19629004386E+02  0.51100000000E-03 0.  1.
         12    1    3    3    0    0 -0.25480862249E+02  0.13471724229E+02 -0.18983981109E+02  0.34513087857E+02  0.00000000000E+00 0. -1.
</event>
<event>
 7    1  0.1204848E-011  0.5930194E+02  0.7816164E-02  0.1266605E+00
        -11   -1    0    0    0    0  0.00000000000E+00  0.00000000000E+00  0.45593999997E+02  0.45594000000E+02  0.51100000000E-03 0. -1.
         11   -1    0    0    0    0 -0.00000000000E+00 -0.00000000000E+00 -0.45593999997E+02  0.45594000000E+02  0.51100000000E-03 0.  1.
    9900012    2    1    2    0    0  0.86135457478E+01 -0.13093702056E+02 -0.27768368719E+02  0.59301944972E+02  0.50000001723E+02 0.  0.
         12    1    1    2    0    0 -0.86135457478E+01  0.13093702056E+02  0.27768368719E+02  0.31886055028E+02  0.00000000000E+00 0. -1.
         11    1    3    3    0    0 -0.70325490859E+00 -0.29120032288E+00 -0.15353756585E+02  0.15372612226E+02  0.51100000000E-03 0. -1.
        -11    1    3    3    0    0 -0.12987735239E+02 -0.12898581485E+02 -0.11476770275E+02  0.21604882022E+02  0.51100000000E-03 0.  1.
        -12    1    3    3    0    0  0.22304535896E+02  0.96079751848E-01 -0.93784185955E+00  0.22324450725E+02  0.00000000000E+00 0.  1.
</event>
<event>
 7    1  0.1204848E-011  0.5930190E+02  0.7816164E-02  0.1266605E+00
        -11   -1    0    0    0    0  0.00000000000E+00  0.00000000000E+00  0.45593999997E+02  0.45594000000E+02  0.51100000000E-03 0.  1.
         11   -1    0    0    0    0 -0.00000000000E+00 -0.00000000000E+00 -0.45593999997E+02  0.45594000000E+02  0.51100000000E-03 0. -1.
    9900012    2    1    2    0    0  0.92881464622E+01  0.19250611683E+02  0.23661522442E+02  0.59301900221E+02  0.49999920107E+02 0.  0.
         12    1    1    2    0    0 -0.92881464622E+01 -0.19250611683E+02 -0.23661522442E+02  0.31886099779E+02  0.00000000000E+00 0. -1.
         11    1    3    3    0    0 -0.79546008921E+00 -0.11777701919E+02  0.38115183599E+00  0.11810685680E+02  0.51100000000E-03 0. -1.
        -11    1    3    3    0    0 -0.45376646567E+01 -0.10923436438E+01 -0.84253857786E+00  0.47427298773E+01  0.51100000000E-03 0.  1.
        -12    1    3    3    0    0  0.14621271208E+02  0.32120657245E+02  0.24122909183E+02  0.42748484664E+02  0.00000000000E+00 0.  1.
</event>
<event>
 7    1  0.1204848E-011  0.5930194E+02  0.7816164E-02  0.1266605E+00
        -11   -1    0    0    0    0  0.00000000000E+00  0.00000000000E+00  0.45593999997E+02  0.45594000000E+02  0.51100000000E-03 0.  1.
         11   -1    0    0    0    0 -0.00000000000E+00 -0.00000000000E+00 -0.45593999997E+02  0.45594000000E+02  0.51100000000E-03 0. -1.
    9900012    2    1    2    0    0 -0.20993916398E+02  0.23245866004E+02 -0.59670579764E+01  0.59301943598E+02  0.49999999216E+02 0.  0.
         12    1    1    2    0    0  0.20993916398E+02 -0.23245866004E+02  0.59670579764E+01  0.31886056402E+02  0.00000000000E+00 0. -1.
         11    1    3    3    0    0 -0.30490362927E+01  0.28810150501E+02  0.26990508368E+01  0.29096499272E+02  0.51100000000E-03 0. -1.
        -11    1    3    3    0    0 -0.12276581696E+02  0.54451693611E+01 -0.11292940548E+02  0.17546932324E+02  0.51100000000E-03 0.  1.
        -12    1    3    3    0    0 -0.56682984090E+01 -0.11009453858E+02  0.26268317347E+01  0.12658512001E+02  0.00000000000E+00 0.  1.
</event>
<event>
 7    1  0.1204848E-011  0.5930193E+02  0.7816164E-02  0.1266605E+00
        -11   -1    0    0    0    0  0.00000000000E+00  0.00000000000E+00  0.45593999997E+02  0.45594000000E+02  0.51100000000E-03 0.  1.
         11   -1    0    0    0    0 -0.00000000000E+00 -0.00000000000E+00 -0.45593999997E+02  0.45594000000E+02  0.51100000000E-03 0. -1.
    9900012    2    1    2    0    0 -0.95927665620E+01  0.10175353770E+02  0.28655933441E+02  0.59301929122E+02  0.49999972816E+02 0.  0.
         12    1    1    2    0    0  0.95927665620E+01 -0.10175353770E+02 -0.28655933441E+02  0.31886070878E+02  0.00000000000E+00 0. -1.
         11    1    3    3    0    0  0.88435296694E+01  0.69945571510E+01  0.22841531273E+01  0.11504312345E+02  0.51100000000E-03 0. -1.
        -11    1    3    3    0    0  0.10184364990E+02  0.29519467704E+01  0.35201031837E+01  0.11172573861E+02  0.51100000000E-03 0.  1.
        -12    1    3    3    0    0 -0.28620661221E+02  0.22884984853E+00  0.22851677130E+02  0.36625042917E+02  0.00000000000E+00 0.  1.
</event>
<event>
 7    1  0.1204848E-011  0.5930196E+02  0.7816164E-02  0.1266605E+00
        -11   -1    0    0    0    0  0.00000000000E+00  0.00000000000E+00  0.45593999997E+02  0.45594000000E+02  0.51100000000E-03 0. -1.
         11   -1    0    0    0    0 -0.00000000000E+00 -0.00000000000E+00 -0.45593999997E+02  0.45594000000E+02  0.51100000000E-03 0.  1.
    9900012    2    1    2    0    0  0.30979042141E+02  0.18304389724E+01 -0.73258478850E+01  0.59301959072E+02  0.50000027437E+02 0.  0.
         12    1    1    2    0    0 -0.30979042141E+02 -0.18304389724E+01  0.73258478850E+01  0.31886040928E+02  0.00000000000E+00 0. -1.
         11    1    3    3    0    0  0.71161825246E+01 -0.55862981823E+01 -0.15346885541E+02  0.17814984625E+02  0.51100000000E-03 0. -1.
        -11    1    3    3    0    0  0.13676395765E+02  0.48207077235E+01 -0.12033880088E+02  0.18844025427E+02  0.51100000000E-03 0.  1.
         12    1    3    3    0    0  0.10186463852E+02  0.25960294312E+01  0.20054917744E+02  0.22642949020E+02  0.00000000000E+00 0. -1.
</event>
<event>
 7    1  0.1204848E-011  0.5930193E+02  0.7816164E-02  0.1266605E+00
        -11   -1    0    0    0    0  0.00000000000E+00  0.00000000000E+00  0.45593999997E+02  0.45594000000E+02  0.51100000000E-03 0.  1.
         11   -1    0    0    0    0 -0.00000000000E+00 -0.00000000000E+00 -0.45593999997E+02  0.45594000000E+02  0.51100000000E-03 0. -1.
    9900012    2    1    2    0    0  0.75761224452E+01 -0.19239386786E+02  0.24272815792E+02  0.59301933738E+02  0.49999981233E+02 0.  0.
         12    1    1    2    0    0 -0.75761224452E+01  0.19239386786E+02 -0.24272815792E+02  0.31886066262E+02  0.00000000000E+00 0. -1.
         11    1    3    3    0    0  0.16978671425E+02 -0.10173503314E+02  0.24158910435E+02  0.31231849237E+02  0.51100000000E-03 0. -1.
        -11    1    3    3    0    0  0.44635747124E+01  0.53277864487E+01  0.35277070306E+01  0.77944547475E+01  0.51100000000E-03 0.  1.
         12    1    3    3    0    0 -0.13866123693E+02 -0.14393669920E+02 -0.34138016736E+01  0.20275629753E+02  0.00000000000E+00 0. -1.
</event>
<event>
 7    1  0.1204848E-011  0.5930192E+02  0.7816164E-02  0.1266605E+00
        -11   -1    0    0    0    0  0.00000000000E+00  0.00000000000E+00  0.45593999997E+02  0.45594000000E+02  0.51100000000E-03 0.  1.
         11   -1    0    0    0    0 -0.00000000000E+00 -0.00000000000E+00 -0.45593999997E+02  0.45594000000E+02  0.51100000000E-03 0. -1.
    9900012    2    1    2    0    0  0.20187635594E+02  0.76330446704E+01 -0.23471640088E+02  0.59301923254E+02  0.49999962114E+02 0.  0.
         12    1    1    2    0    0 -0.20187635594E+02 -0.76330446704E+01  0.23471640088E+02  0.31886076746E+02  0.00000000000E+00 0. -1.
         11    1    3    3    0    0  0.89325120774E+00  0.37874524627E+01 -0.12784056790E+02  0.13363188323E+02  0.51100000000E-03 0. -1.
        -11    1    3    3    0    0 -0.44292032103E+01  0.16950422521E+02 -0.30744321472E+01  0.17787265051E+02  0.51100000000E-03 0.  1.
         12    1    3    3    0    0  0.23723587597E+02 -0.13104830313E+02 -0.76131511503E+01  0.28151469880E+02  0.00000000000E+00 0. -1.
</event>
<event>
 7    1  0.1204848E-011  0.5930195E+02  0.7816164E-02  0.1266605E+00
        -11   -1    0    0    0    0  0.00000000000E+00  0.00000000000E+00  0.45593999997E+02  0.45594000000E+02  0.51100000000E-03 0.  1.
         11   -1    0    0    0    0 -0.00000000000E+00 -0.00000000000E+00 -0.45593999997E+02  0.45594000000E+02  0.51100000000E-03 0. -1.
    9900012    2    1    2    0    0 -0.19520450314E+02  0.18250054956E+02  0.17395617066E+02  0.59301953216E+02  0.50000016758E+02 0.  0.
         12    1    1    2    0    0  0.19520450314E+02 -0.18250054956E+02 -0.17395617066E+02  0.31886046784E+02  0.00000000000E+00 0. -1.
         11    1    3    3    0    0  0.56962862870E+00 -0.17438993630E+01 -0.75324764586E+01  0.77526681616E+01  0.51100000000E-03 0. -1.
        -11    1    3    3    0    0 -0.66875859207E+01  0.20113601553E+02 -0.21806982002E+01  0.21308125628E+02  0.51100000000E-03 0.  1.
        -12    1    3    3    0    0 -0.13402493022E+02 -0.11964723414E+00  0.27108791725E+02  0.30241159427E+02  0.00000000000E+00 0.  1.
</event>
<event>
 7    1  0.1204848E-011  0.5930197E+02  0.7816164E-02  0.1266605E+00
        -11   -1    0    0    0    0  0.00000000000E+00  0.00000000000E+00  0.45593999997E+02  0.45594000000E+02  0.51100000000E-03 0.  1.
         11   -1    0    0    0    0 -0.00000000000E+00 -0.00000000000E+00 -0.45593999997E+02  0.45594000000E+02  0.51100000000E-03 0. -1.
    9900012    2    1    2    0    0 -0.26166159201E+02 -0.19337524839E+01  0.18119366672E+02  0.59301972737E+02  0.50000052359E+02 0.  0.
         12    1    1    2    0    0  0.26166159201E+02  0.19337524839E+01 -0.18119366672E+02  0.31886027263E+02  0.00000000000E+00 0. -1.
         11    1    3    3    0    0 -0.66373251429E+01  0.85770928360E+01 -0.19332608989E+01  0.11016265453E+02  0.51100000000E-03 0. -1.
        -11    1    3    3    0    0  0.94729656586E+01 -0.12983468647E+01  0.14476622296E+02  0.17349218320E+02  0.51100000000E-03 0.  1.
         12    1    3    3    0    0 -0.29001799717E+02 -0.92124984551E+01  0.55760052743E+01  0.30936488964E+02  0.00000000000E+00 0. -1.
</event>
<event>
 7    1  0.1204848E-011  0.5930193E+02  0.7816164E-02  0.1266605E+00
        -11   -1    0    0    0    0  0.00000000000E+00  0.00000000000E+00  0.45593999997E+02  0.45594000000E+02  0.51100000000E-03 0. -1.
         11   -1    0    0    0    0 -0.00000000000E+00 -0.00000000000E+00 -0.45593999997E+02  0.45594000000E+02  0.51100000000E-03 0.  1.
    9900012    2    1    2    0    0 -0.29121504776E+02 -0.80187417062E+01 -0.10215621499E+02  0.59301934367E+02  0.49999982381E+02 0.  0.
         12    1    1    2    0    0  0.29121504776E+02  0.80187417062E+01  0.10215621499E+02  0.31886065633E+02  0.00000000000E+00 0. -1.
         11    1    3    3    0    0  0.45739020738E+01 -0.35234709692E+01 -0.16429335734E+01  0.60028875418E+01  0.51100000000E-03 0. -1.
        -11    1    3    3    0    0 -0.38002822125E+00 -0.14890150666E+02  0.52053414096E+01  0.15778358209E+02  0.51100000000E-03 0.  1.
        -12    1    3    3    0    0 -0.33315378628E+02  0.10394879929E+02 -0.13778029335E+02  0.37520688616E+02  0.00000000000E+00 0.  1.
</event>
<event>
 7    1  0.1204848E-011  0.5930197E+02  0.7816164E-02  0.1266605E+00
        -11   -1    0    0    0    0  0.00000000000E+00  0.00000000000E+00  0.45593999997E+02  0.45594000000E+02  0.51100000000E-03 0. -1.
         11   -1    0    0    0    0 -0.00000000000E+00 -0.00000000000E+00 -0.45593999997E+02  0.45594000000E+02  0.51100000000E-03 0.  1.
    9900012    2    1    2    0    0 -0.12596410519E+02  0.21571187229E+02 -0.19817504445E+02  0.59301966084E+02  0.50000040226E+02 0.  0.
         12    1    1    2    0    0  0.12596410519E+02 -0.21571187229E+02  0.19817504445E+02  0.31886033916E+02  0.00000000000E+00 0. -1.
         11    1    3    3    0    0  0.28788307398E+01 -0.91320664209E+00  0.16658096576E+01  0.34491353809E+01  0.51100000000E-03 0. -1.
        -11    1    3    3    0    0  0.97815350283E+01 -0.68066215699E+01 -0.67914227051E+00  0.11936069671E+02  0.51100000000E-03 0.  1.
        -12    1    3    3    0    0 -0.25256776287E+02  0.29291015441E+02 -0.20804171832E+02  0.43916761033E+02  0.00000000000E+00 0.  1.
</event>
<event>
 7    1  0.1204848E-011  0.5930193E+02  0.7816164E-02  0.1266605E+00
        -11   -1    0    0    0    0  0.00000000000E+00  0.00000000000E+00  0.45593999997E+02  0.45594000000E+02  0.51100000000E-03 0.  1.
         11   -1    0    0    0    0 -0.00000000000E+00 -0.00000000000E+00 -0.45593999997E+02  0.45594000000E+02  0.51100000000E-03 0. -1.
    9900012    2    1    2    0    0 -0.14386897192E+02 -0.40603044189E+01  0.28164740983E+02  0.59301929100E+02  0.49999972775E+02 0.  0.
         12    1    1    2    0    0  0.14386897192E+02  0.40603044189E+01 -0.28164740983E+02  0.31886070900E+02  0.00000000000E+00 0. -1.
         11    1    3    3    0    0 -0.45942906736E+01  0.19532878571E+02  0.12048987681E+01  0.20102055452E+02  0.51100000000E-03 0. -1.
        -11    1    3    3    0    0  0.25305099752E+01 -0.10077900729E+01  0.23779173936E+01  0.36157451456E+01  0.51100000000E-03 0.  1.
        -12    1    3    3    0    0 -0.12323116494E+02 -0.22585392917E+02  0.24581924821E+02  0.35584128503E+02  0.00000000000E+00 0.  1.
</event>
<event>
 7    1  0.1204848E-011  0.5930193E+02  0.7816164E-02  0.1266605E+00
        -11   -1    0    0    0    0  0.00000000000E+00  0.00000000000E+00  0.45593999997E+02  0.45594000000E+02  0.51100000000E-03 0.  1.
         11   -1    0    0    0    0 -0.00000000000E+00 -0.00000000000E+00 -0.45593999997E+02  0.45594000000E+02  0.51100000000E-03 0. -1.
    9900012    2    1    2    0    0 -0.20121818763E+02 -0.23138519390E+01  0.24626814102E+02  0.59301929782E+02  0.49999974019E+02 0.  0.
         12    1    1    2    0    0  0.20121818763E+02  0.23138519390E+01 -0.24626814102E+02  0.31886070218E+02  0.00000000000E+00 0. -1.
         11    1    3    3    0    0  0.98968215056E+01 -0.42568191376E+01  0.40494076299E+01  0.11509356520E+02  0.51100000000E-03 0. -1.
        -11    1    3    3    0    0 -0.37828074193E-01  0.62694303328E+01  0.15965164394E+02  0.17152074570E+02  0.51100000000E-03 0.  1.
        -12    1    3    3    0    0 -0.29980812195E+02 -0.43264631341E+01  0.46122420781E+01  0.30640498692E+02  0.00000000000E+00 0.  1.
</event>
<event>
 7    1  0.1204848E-011  0.5930194E+02  0.7816164E-02  0.1266605E+00
        -11   -1    0    0    0    0  0.00000000000E+00  0.00000000000E+00  0.45593999997E+02  0.45594000000E+02  0.51100000000E-03 0.  1.
         11   -1    0    0    0    0 -0.00000000000E+00 -0.00000000000E+00 -0.45593999997E+02  0.45594000000E+02  0.51100000000E-03 0. -1.
    9900012    2    1    2    0    0 -0.22920756129E+02 -0.21779440772E+02 -0.41250214041E+01  0.59301938728E+02  0.49999990334E+02 0.  0.
         12    1    1    2    0    0  0.22920756129E+02  0.21779440772E+02  0.41250214041E+01  0.31886061272E+02  0.00000000000E+00 0. -1.
         11    1    3    3    0    0 -0.10603231115E+02  0.27639667474E+01 -0.13952497204E+02  0.17740918825E+02  0.51100000000E-03 0. -1.
        -11    1    3    3    0    0 -0.14514160378E+02  0.11638970526E+01  0.41853370334E+01  0.15150331817E+02  0.51100000000E-03 0.  1.
         12    1    3    3    0    0  0.21966353648E+01 -0.25707304572E+02  0.56421387661E+01  0.26410688085E+02  0.00000000000E+00 0. -1.
</event>
<event>
 7    1  0.1204848E-011  0.5930193E+02  0.7816164E-02  0.1266605E+00
        -11   -1    0    0    0    0  0.00000000000E+00  0.00000000000E+00  0.45593999997E+02  0.45594000000E+02  0.51100000000E-03 0.  1.
         11   -1    0    0    0    0 -0.00000000000E+00 -0.00000000000E+00 -0.45593999997E+02  0.45594000000E+02  0.51100000000E-03 0. -1.
    9900012    2    1    2    0    0  0.69269069611E+01  0.39515380521E+01  0.30872722146E+02  0.59301926774E+02  0.49999968534E+02 0.  0.
         12    1    1    2    0    0 -0.69269069611E+01 -0.39515380521E+01 -0.30872722146E+02  0.31886073226E+02  0.00000000000E+00 0. -1.
         11    1    3    3    0    0  0.37032489720E+01  0.14191688549E+02 -0.37198735480E+01  0.15131276757E+02  0.51100000000E-03 0. -1.
        -11    1    3    3    0    0  0.19679668516E+01  0.65814236389E+01  0.22202381924E+02  0.23240778688E+02  0.51100000000E-03 0.  1.
        -12    1    3    3    0    0  0.12556911376E+01 -0.16821574135E+02  0.12390213770E+02  0.20929871330E+02  0.00000000000E+00 0.  1.
</event>
<event>
 7    1  0.1204848E-011  0.5930217E+02  0.7816164E-02  0.1266604E+00
        -11   -1    0    0    0    0  0.00000000000E+00  0.00000000000E+00  0.45593999997E+02  0.45594000000E+02  0.51100000000E-03 0.  1.
         11   -1    0    0    0    0 -0.00000000000E+00 -0.00000000000E+00 -0.45593999997E+02  0.45594000000E+02  0.51100000000E-03 0. -1.
    9900012    2    1    2    0    0  0.24754688257E+02 -0.54595985276E+00  0.20090141356E+02  0.59302165487E+02  0.50000403887E+02 0.  0.
         12    1    1    2    0    0 -0.24754688257E+02  0.54595985276E+00 -0.20090141356E+02  0.31885834513E+02  0.00000000000E+00 0. -1.
         11    1    3    3    0    0  0.34588300918E+01  0.62012602661E+01  0.21569281437E+02  0.22707994989E+02  0.51100000000E-03 0. -1.
        -11    1    3    3    0    0  0.14923162406E+02  0.67397924939E+01  0.86931787173E+01  0.18539065121E+02  0.51100000000E-03 0.  1.
         12    1    3    3    0    0  0.63726957590E+01 -0.13487012613E+02 -0.10172318798E+02  0.18055105377E+02  0.00000000000E+00 0. -1.
</event>
<event>
 7    1  0.1204848E-011  0.5930194E+02  0.7816164E-02  0.1266605E+00
        -11   -1    0    0    0    0  0.00000000000E+00  0.00000000000E+00  0.45593999997E+02  0.45594000000E+02  0.51100000000E-03 0. -1.
         11   -1    0    0    0    0 -0.00000000000E+00 -0.00000000000E+00 -0.45593999997E+02  0.45594000000E+02  0.51100000000E-03 0.  1.
    9900012    2    1    2    0    0 -0.19427701205E+02 -0.19817511663E+02  0.15701951720E+02  0.59301943009E+02  0.49999998142E+02 0.  0.
         12    1    1    2    0    0  0.19427701205E+02  0.19817511663E+02 -0.15701951720E+02  0.31886056991E+02  0.00000000000E+00 0. -1.
         11    1    3    3    0    0  0.18512660635E+01 -0.12574480961E+02  0.14713392382E+02  0.19442959475E+02  0.51100000000E-03 0. -1.
        -11    1    3    3    0    0  0.85052578805E+01 -0.51353453745E+01 -0.63961600766E+00  0.99559174679E+01  0.51100000000E-03 0.  1.
        -12    1    3    3    0    0 -0.29784225149E+02 -0.21076853269E+01  0.16281753452E+01  0.29903066066E+02  0.00000000000E+00 0.  1.
</event>
<event>
 7    1  0.1204848E-011  0.5930194E+02  0.7816164E-02  0.1266605E+00
        -11   -1    0    0    0    0  0.00000000000E+00  0.00000000000E+00  0.45593999997E+02  0.45594000000E+02  0.51100000000E-03 0.  1.
         11   -1    0    0    0    0 -0.00000000000E+00 -0.00000000000E+00 -0.45593999997E+02  0.45594000000E+02  0.51100000000E-03 0. -1.
    9900012    2    1    2    0    0 -0.38678798781E+01  0.99722939407E+01  0.30038536188E+02  0.59301940389E+02  0.49999993363E+02 0.  0.
         12    1    1    2    0    0  0.38678798781E+01 -0.99722939407E+01 -0.30038536188E+02  0.31886059611E+02  0.00000000000E+00 0. -1.
         11    1    3    3    0    0  0.12436555744E+02  0.11488900069E+01 -0.14511977555E+01  0.12573537379E+02  0.51100000000E-03 0. -1.
        -11    1    3    3    0    0 -0.18643224623E+02 -0.58082138973E+01  0.20242540803E+02  0.28125888990E+02  0.51100000000E-03 0.  1.
         12    1    3    3    0    0  0.23387890011E+01  0.14631617831E+02  0.11247193140E+02  0.18602514021E+02  0.00000000000E+00 0. -1.
</event>
<event>
 7    1  0.1204848E-011  0.5930190E+02  0.7816164E-02  0.1266605E+00
        -11   -1    0    0    0    0  0.00000000000E+00  0.00000000000E+00  0.45593999997E+02  0.45594000000E+02  0.51100000000E-03 0. -1.
         11   -1    0    0    0    0 -0.00000000000E+00 -0.00000000000E+00 -0.45593999997E+02  0.45594000000E+02  0.51100000000E-03 0.  1.
    9900012    2    1    2    0    0  0.20965021433E+02  0.13151412222E+02 -0.20105514662E+02  0.59301898217E+02  0.49999916452E+02 0.  0.
         12    1    1    2    0    0 -0.20965021433E+02 -0.13151412222E+02  0.20105514662E+02  0.31886101783E+02  0.00000000000E+00 0. -1.
         11    1    3    3    0    0  0.18890899915E+01 -0.67536490506E+00  0.56102405044E+01  0.59581521908E+01  0.51100000000E-03 0. -1.
        -11    1    3    3    0    0  0.18631890730E+02  0.23184359232E+02 -0.44087699671E+01  0.30068241021E+02  0.51100000000E-03 0.  1.
        -12    1    3    3    0    0  0.44404071122E+00 -0.93575821054E+01 -0.21306985199E+02  0.23275505006E+02  0.00000000000E+00 0.  1.
</event>
<event>
 7    1  0.1204848E-011  0.5930193E+02  0.7816164E-02  0.1266605E+00
        -11   -1    0    0    0    0  0.00000000000E+00  0.00000000000E+00  0.45593999997E+02  0.45594000000E+02  0.51100000000E-03 0.  1.
         11   -1    0    0    0    0 -0.00000000000E+00 -0.00000000000E+00 -0.45593999997E+02  0.45594000000E+02  0.51100000000E-03 0. -1.
    9900012    2    1    2    0    0  0.58771742807E+00  0.31398128711E+02 -0.55257367282E+01  0.59301926790E+02  0.49999968563E+02 0.  0.
         12    1    1    2    0    0 -0.58771742807E+00 -0.31398128711E+02  0.55257367282E+01  0.31886073210E+02  0.00000000000E+00 0. -1.
         11    1    3    3    0    0 -0.77557069342E+01 -0.27035108922E+01 -0.12551548765E+02  0.15000044595E+02  0.51100000000E-03 0. -1.
        -11    1    3    3    0    0 -0.82661049747E+01  0.58038133737E+01 -0.19443922550E+01  0.10285591992E+02  0.51100000000E-03 0.  1.
        -12    1    3    3    0    0  0.16609529337E+02  0.28297826230E+02  0.89702042916E+01  0.34016290203E+02  0.00000000000E+00 0.  1.
</event>
<event>
 7    1  0.1204848E-011  0.5930195E+02  0.7816164E-02  0.1266605E+00
        -11   -1    0    0    0    0  0.00000000000E+00  0.00000000000E+00  0.45593999997E+02  0.45594000000E+02  0.51100000000E-03 0. -1.
         11   -1    0    0    0    0 -0.00000000000E+00 -0.00000000000E+00 -0.45593999997E+02  0.45594000000E+02  0.51100000000E-03 0.  1.
    9900012    2    1    2    0    0  0.20068827712E+02  0.12047363084E+02 -0.21652332156E+02  0.59301948334E+02  0.50000007854E+02 0.  0.
         12    1    1    2    0    0 -0.20068827712E+02 -0.12047363084E+02  0.21652332156E+02  0.31886051666E+02  0.00000000000E+00 0. -1.
         11    1    3    3    0    0  0.25537598560E+02  0.27830527103E+01 -0.76741831631E+01  0.26810583920E+02  0.51100000000E-03 0. -1.
        -11    1    3    3    0    0  0.10615772915E+02  0.31256440529E+01 -0.13671532884E+01  0.11150488497E+02  0.51100000000E-03 0.  1.
         12    1    3    3    0    0 -0.16084543764E+02  0.61386663209E+01 -0.12610995705E+02  0.21340875918E+02  0.00000000000E+00 0. -1.
</event>
<event>
 7    1  0.1204848E-011  0.5930197E+02  0.7816164E-02  0.1266605E+00
        -11   -1    0    0    0    0  0.00000000000E+00  0.00000000000E+00  0.45593999997E+02  0.45594000000E+02  0.51100000000E-03 0. -1.
         11   -1    0    0    0    0 -0.00000000000E+00 -0.00000000000E+00 -0.45593999997E+02  0.45594000000E+02  0.51100000000E-03 0.  1.
    9900012    2    1    2    0    0  0.22416455393E+02 -0.22674568232E+02 -0.29265450484E+00  0.59301966010E+02  0.50000040091E+02 0.  0.
         12    1    1    2    0    0 -0.22416455393E+02  0.22674568232E+02  0.29265450484E+00  0.31886033990E+02  0.00000000000E+00 0. -1.
         11    1    3    3    0    0 -0.60305410579E+01 -0.11076889361E+02  0.78892806366E+00  0.12636744483E+02  0.51100000000E-03 0. -1.
        -11    1    3    3    0    0  0.25565727964E+02 -0.21743301003E+02  0.58179478919E+01  0.34062091873E+02  0.51100000000E-03 0.  1.
         12    1    3    3    0    0  0.28812684878E+01  0.10145622131E+02 -0.68995304604E+01  0.12603129655E+02  0.00000000000E+00 0. -1.
</event>
<event>
 7    1  0.1204848E-011  0.5930195E+02  0.7816164E-02  0.1266605E+00
        -11   -1    0    0    0    0  0.00000000000E+00  0.00000000000E+00  0.45593999997E+02  0.45594000000E+02  0.51100000000E-03 0. -1.
         11   -1    0    0    0    0 -0.00000000000E+00 -0.00000000000E+00 -0.45593999997E+02  0.45594000000E+02  0.51100000000E-03 0.  1.
    9900012    2    1    2    0    0 -0.69462369778E+01 -0.28728041555E+02 -0.11965360531E+02  0.59301946115E+02  0.50000003806E+02 0.  0.
         12    1    1    2    0    0  0.69462369778E+01  0.28728041555E+02  0.11965360531E+02  0.31886053885E+02  0.00000000000E+00 0. -1.
         11    1    3    3    0    0 -0.14837861823E+02 -0.18730690107E+02  0.72373581222E+01  0.24967583948E+02  0.51100000000E-03 0. -1.
        -11    1    3    3    0    0 -0.64397244476E+01 -0.29867634783E+00  0.21994831429E+01  0.68115332253E+01  0.51100000000E-03 0.  1.
        -12    1    3    3    0    0  0.14331349293E+02 -0.96986751005E+01 -0.21402201796E+02  0.27522828942E+02  0.00000000000E+00 0.  1.
</event>
<event>
 7    1  0.1204848E-011  0.5930195E+02  0.7816164E-02  0.1266605E+00
        -11   -1    0    0    0    0  0.00000000000E+00  0.00000000000E+00  0.45593999997E+02  0.45594000000E+02  0.51100000000E-03 0. -1.
         11   -1    0    0    0    0 -0.00000000000E+00 -0.00000000000E+00 -0.45593999997E+02  0.45594000000E+02  0.51100000000E-03 0.  1.
    9900012    2    1    2    0    0  0.11562479896E+00 -0.61622548439E+01 -0.31284716341E+02  0.59301949282E+02  0.50000009583E+02 0.  0.
         12    1    1    2    0    0 -0.11562479896E+00  0.61622548439E+01  0.31284716341E+02  0.31886050718E+02  0.00000000000E+00 0. -1.
         11    1    3    3    0    0 -0.16663054556E+02 -0.10740638691E+01  0.38736441482E+01  0.17141065299E+02  0.51100000000E-03 0. -1.
        -11    1    3    3    0    0  0.52981972018E+01  0.30673295542E+01 -0.22182560787E+02  0.23011853631E+02  0.51100000000E-03 0.  1.
        -12    1    3    3    0    0  0.11480482153E+02 -0.81555205290E+01 -0.12975799702E+02  0.19149030353E+02  0.00000000000E+00 0.  1.
</event>
<event>
 7    1  0.1204848E-011  0.5930192E+02  0.7816164E-02  0.1266605E+00
        -11   -1    0    0    0    0  0.00000000000E+00  0.00000000000E+00  0.45593999997E+02  0.45594000000E+02  0.51100000000E-03 0.  1.
         11   -1    0    0    0    0 -0.00000000000E+00 -0.00000000000E+00 -0.45593999997E+02  0.45594000000E+02  0.51100000000E-03 0. -1.
    9900012    2    1    2    0    0 -0.24961850748E+02  0.25435175159E+01  0.19676351306E+02  0.59301917223E+02  0.49999951115E+02 0.  0.
         12    1    1    2    0    0  0.24961850748E+02 -0.25435175159E+01 -0.19676351306E+02  0.31886082777E+02  0.00000000000E+00 0. -1.
         11    1    3    3    0    0 -0.17633345434E+02  0.20000300324E+02  0.13594409510E+02  0.29929163945E+02  0.51100000000E-03 0. -1.
        -11    1    3    3    0    0 -0.57712473702E+01  0.39513967201E+01  0.32822706976E+01  0.77261978645E+01  0.51100000000E-03 0.  1.
         12    1    3    3    0    0 -0.15572579439E+01 -0.21408179528E+02  0.27996710990E+01  0.21646555414E+02  0.00000000000E+00 0. -1.
</event>
<event>
 7    1  0.1204848E-011  0.5930196E+02  0.7816164E-02  0.1266605E+00
        -11   -1    0    0    0    0  0.00000000000E+00  0.00000000000E+00  0.45593999997E+02  0.45594000000E+02  0.51100000000E-03 0.  1.
         11   -1    0    0    0    0 -0.00000000000E+00 -0.00000000000E+00 -0.45593999997E+02  0.45594000000E+02  0.51100000000E-03 0. -1.
    9900012    2    1    2    0    0 -0.88052473846E+01  0.21791528217E+02  0.21547998472E+02  0.59301963532E+02  0.50000035571E+02 0.  0.
         12    1    1    2    0    0  0.88052473846E+01 -0.21791528217E+02 -0.21547998472E+02  0.31886036468E+02  0.00000000000E+00 0. -1.
         11    1    3    3    0    0  0.79220238165E+01 -0.10565460530E+02  0.17171936155E+02  0.21662474677E+02  0.51100000000E-03 0. -1.
        -11    1    3    3    0    0  0.84235321521E+00  0.59521384465E+00  0.46689610653E+00  0.11321796215E+01  0.51100000000E-03 0.  1.
        -12    1    3    3    0    0 -0.17569624416E+02  0.31761774902E+02  0.39091662104E+01  0.36507309234E+02  0.00000000000E+00 0.  1.
</event>
<event>
 7    1  0.1204848E-011  0.5930190E+02  0.7816164E-02  0.1266605E+00
        -11   -1    0    0    0    0  0.00000000000E+00  0.00000000000E+00  0.45593999997E+02  0.45594000000E+02  0.51100000000E-03 0.  1.
         11   -1    0    0    0    0 -0.00000000000E+00 -0.00000000000E+00 -0.45593999997E+02  0.45594000000E+02  0.51100000000E-03 0. -1.
    9900012    2    1    2    0    0 -0.10653835654E+02 -0.45359531701E+01  0.29709331522E+02  0.59301898564E+02  0.49999917085E+02 0.  0.
         12    1    1    2    0    0  0.10653835654E+02  0.45359531701E+01 -0.29709331522E+02  0.31886101436E+02  0.00000000000E+00 0. -1.
         11    1    3    3    0    0  0.12488841353E+02 -0.93141782215E+01  0.13561261472E+02  0.20655093494E+02  0.51100000000E-03 0. -1.
        -11    1    3    3    0    0 -0.38051808077E+01 -0.67990669414E+01 -0.36903581695E+01  0.86212212554E+01  0.51100000000E-03 0.  1.
        -12    1    3    3    0    0 -0.19337496199E+02  0.11577291993E+02  0.19838428220E+02  0.30025583814E+02  0.00000000000E+00 0.  1.
</event>
<event>
 7    1  0.1204848E-011  0.5930164E+02  0.7816164E-02  0.1266606E+00
        -11   -1    0    0    0    0  0.00000000000E+00  0.00000000000E+00  0.45593999997E+02  0.45594000000E+02  0.51100000000E-03 0. -1.
         11   -1    0    0    0    0 -0.00000000000E+00 -0.00000000000E+00 -0.45593999997E+02  0.45594000000E+02  0.51100000000E-03 0.  1.
    9900012    2    1    2    0    0 -0.68116278944E+01  0.25943896265E+02 -0.17241119342E+02  0.59301635765E+02  0.49999437799E+02 0.  0.
         12    1    1    2    0    0  0.68116278944E+01 -0.25943896265E+02  0.17241119342E+02  0.31886364235E+02  0.00000000000E+00 0. -1.
         11    1    3    3    0    0  0.10687819864E+02  0.16855377450E+01  0.27509056592E+01  0.11164139606E+02  0.51100000000E-03 0. -1.
        -11    1    3    3    0    0 -0.40618288757E+01  0.25285912785E+02 -0.20419848539E+01  0.25691351494E+02  0.51100000000E-03 0.  1.
         12    1    3    3    0    0 -0.13437618883E+02 -0.10275542650E+01 -0.17950040147E+02  0.22446144664E+02  0.00000000000E+00 0. -1.
</event>
<event>
 7    1  0.1204848E-011  0.5930194E+02  0.7816164E-02  0.1266605E+00
        -11   -1    0    0    0    0  0.00000000000E+00  0.00000000000E+00  0.45593999997E+02  0.45594000000E+02  0.51100000000E-03 0.  1.
         11   -1    0    0    0    0 -0.00000000000E+00 -0.00000000000E+00 -0.45593999997E+02  0.45594000000E+02  0.51100000000E-03 0. -1.
    9900012    2    1    2    0    0  0.70900128046E+01 -0.36046662734E+01  0.30878127152E+02  0.59301942908E+02  0.49999997957E+02 0.  0.
         12    1    1    2    0    0 -0.70900128046E+01  0.36046662734E+01 -0.30878127152E+02  0.31886057092E+02  0.00000000000E+00 0. -1.
         11    1    3    3    0    0 -0.91156651361E+01 -0.13294846911E+01  0.12890930507E+02  0.15844209352E+02  0.51100000000E-03 0. -1.
        -11    1    3    3    0    0  0.23173348081E+02  0.75865239370E+01  0.19588360269E+02  0.31277200402E+02  0.51100000000E-03 0.  1.
         12    1    3    3    0    0 -0.69676701405E+01 -0.98617055193E+01 -0.16011636235E+01  0.12180533153E+02  0.00000000000E+00 0. -1.
</event>
<event>
 7    1  0.1204848E-011  0.5930188E+02  0.7816164E-02  0.1266605E+00
        -11   -1    0    0    0    0  0.00000000000E+00  0.00000000000E+00  0.45593999997E+02  0.45594000000E+02  0.51100000000E-03 0.  1.
         11   -1    0    0    0    0 -0.00000000000E+00 -0.00000000000E+00 -0.45593999997E+02  0.45594000000E+02  0.51100000000E-03 0. -1.
    9900012    2    1    2    0    0  0.14262776049E+02  0.58465121286E+00  0.28512383042E+02  0.59301881008E+02  0.49999885067E+02 0.  0.
         12    1    1    2    0    0 -0.14262776049E+02 -0.58465121286E+00 -0.28512383042E+02  0.31886118992E+02  0.00000000000E+00 0. -1.
         11    1    3    3    0    0  0.23727840398E+02  0.13414873356E+02  0.10481504308E+02  0.29203273274E+02  0.51100000000E-03 0. -1.
        -11    1    3    3    0    0 -0.22166648834E+01  0.20314703313E+01  0.12200773265E+02  0.12565800549E+02  0.51100000000E-03 0.  1.
        -12    1    3    3    0    0 -0.72483994660E+01 -0.14861692474E+02  0.58301054693E+01  0.17532807185E+02  0.00000000000E+00 0.  1.
</event>
<event>
 7    1  0.1204848E-011  0.5930194E+02  0.7816164E-02  0.1266605E+00
        -11   -1    0    0    0    0  0.00000000000E+00  0.00000000000E+00  0.45593999997E+02  0.45594000000E+02  0.51100000000E-03 0.  1.
         11   -1    0    0    0    0 -0.00000000000E+00 -0.00000000000E+00 -0.45593999997E+02  0.45594000000E+02  0.51100000000E-03 0. -1.
    9900012    2    1    2    0    0 -0.28227242358E+02  0.60067769965E+01 -0.13559581073E+02  0.59301940038E+02  0.49999992724E+02 0.  0.
         12    1    1    2    0    0  0.28227242358E+02 -0.60067769965E+01  0.13559581073E+02  0.31886059962E+02  0.00000000000E+00 0. -1.
         11    1    3    3    0    0 -0.26842129639E+02  0.20228657001E+02 -0.11584650624E+02  0.35551408101E+02  0.51100000000E-03 0. -1.
        -11    1    3    3    0    0 -0.16263430396E+01  0.15921545363E+01 -0.68356464260E+01  0.72045825744E+01  0.51100000000E-03 0.  1.
        -12    1    3    3    0    0  0.24123032119E+00 -0.15814034541E+02  0.48607159765E+01  0.16545949363E+02  0.00000000000E+00 0.  1.
</event>
<event>
 7    1  0.1204848E-011  0.5930196E+02  0.7816164E-02  0.1266605E+00
        -11   -1    0    0    0    0  0.00000000000E+00  0.00000000000E+00  0.45593999997E+02  0.45594000000E+02  0.51100000000E-03 0.  1.
         11   -1    0    0    0    0 -0.00000000000E+00 -0.00000000000E+00 -0.45593999997E+02  0.45594000000E+02  0.51100000000E-03 0. -1.
    9900012    2    1    2    0    0  0.25856834591E+02 -0.24992625755E+01  0.18490468346E+02  0.59301958725E+02  0.50000026805E+02 0.  0.
         12    1    1    2    0    0 -0.25856834591E+02  0.24992625755E+01 -0.18490468346E+02  0.31886041275E+02  0.00000000000E+00 0. -1.
         11    1    3    3    0    0  0.56772284720E+01  0.16089323610E+02  0.54413777284E+01  0.17908262038E+02  0.51100000000E-03 0. -1.
        -11    1    3    3    0    0  0.66021505648E+01  0.62033961357E+01  0.91213276071E+01  0.12855704309E+02  0.51100000000E-03 0.  1.
        -12    1    3    3    0    0  0.13577455554E+02 -0.24791982321E+02  0.39277630108E+01  0.28537992379E+02  0.00000000000E+00 0.  1.
</event>
<event>
 7    1  0.1204848E-011  0.5930192E+02  0.7816164E-02  0.1266605E+00
        -11   -1    0    0    0    0  0.00000000000E+00  0.00000000000E+00  0.45593999997E+02  0.45594000000E+02  0.51100000000E-03 0.  1.
         11   -1    0    0    0    0 -0.00000000000E+00 -0.00000000000E+00 -0.45593999997E+02  0.45594000000E+02  0.51100000000E-03 0. -1.
    9900012    2    1    2    0    0  0.27192932898E+02 -0.82558457196E+01  0.14460552890E+02  0.59301918741E+02  0.49999953883E+02 0.  0.
         12    1    1    2    0    0 -0.27192932898E+02  0.82558457196E+01 -0.14460552890E+02  0.31886081259E+02  0.00000000000E+00 0. -1.
         11    1    3    3    0    0  0.12105252662E+02  0.12038648964E+02 -0.52940702429E+00  0.17080587898E+02  0.51100000000E-03 0. -1.
        -11    1    3    3    0    0  0.10078902168E+02  0.73982885255E+00  0.17748092138E+02  0.20423672306E+02  0.51100000000E-03 0.  1.
         12    1    3    3    0    0  0.50087780686E+01 -0.21034323536E+02 -0.27581322241E+01  0.21797658537E+02  0.00000000000E+00 0. -1.
</event>
<event>
 7    1  0.1204848E-011  0.5930196E+02  0.7816164E-02  0.1266605E+00
        -11   -1    0    0    0    0  0.00000000000E+00  0.00000000000E+00  0.45593999997E+02  0.45594000000E+02  0.51100000000E-03 0.  1.
         11   -1    0    0    0    0 -0.00000000000E+00 -0.00000000000E+00 -0.45593999997E+02  0.45594000000E+02  0.51100000000E-03 0. -1.
    9900012    2    1    2    0    0 -0.19177835866E+02  0.18823015556E+02  0.17164626240E+02  0.59301957645E+02  0.50000024834E+02 0.  0.
         12    1    1    2    0    0  0.19177835866E+02 -0.18823015556E+02 -0.17164626240E+02  0.31886042355E+02  0.00000000000E+00 0. -1.
         11    1    3    3    0    0  0.60875178924E+00 -0.72008481104E+01  0.20900032333E+02  0.22114116397E+02  0.51100000000E-03 0. -1.
        -11    1    3    3    0    0  0.24372140482E+01 -0.33809605626E+00  0.27417990003E+00  0.24757819247E+01  0.51100000000E-03 0.  1.
        -12    1    3    3    0    0 -0.22223801704E+02  0.26361959723E+02 -0.40095859935E+01  0.34712059323E+02  0.00000000000E+00 0.  1.
</event>
<event>
 7    1  0.1204848E-011  0.5930192E+02  0.7816164E-02  0.1266605E+00
        -11   -1    0    0    0    0  0.00000000000E+00  0.00000000000E+00  0.45593999997E+02  0.45594000000E+02  0.51100000000E-03 0. -1.
         11   -1    0    0    0    0 -0.00000000000E+00 -0.00000000000E+00 -0.45593999997E+02  0.45594000000E+02  0.51100000000E-03 0.  1.
    9900012    2    1    2    0    0 -0.28657540561E+02 -0.86753655535E+01 -0.10963820272E+02  0.59301922263E+02  0.49999960306E+02 0.  0.
         12    1    1    2    0    0  0.28657540561E+02  0.86753655535E+01  0.10963820272E+02  0.31886077737E+02  0.00000000000E+00 0. -1.
         11    1    3    3    0    0 -0.15322769276E+02  0.97955584815E+01 -0.56448788310E+01  0.19042186889E+02  0.51100000000E-03 0. -1.
        -11    1    3    3    0    0  0.15911162473E+01  0.70191999269E+01  0.52269403259E+01  0.88950392892E+01  0.51100000000E-03 0.  1.
        -12    1    3    3    0    0 -0.14925887533E+02 -0.25490123962E+02 -0.10545881766E+02  0.31364696084E+02  0.00000000000E+00 0.  1.
</event>
<event>
 7    1  0.1204848E-011  0.5930193E+02  0.7816164E-02  0.1266605E+00
        -11   -1    0    0    0    0  0.00000000000E+00  0.00000000000E+00  0.45593999997E+02  0.45594000000E+02  0.51100000000E-03 0. -1.
         11   -1    0    0    0    0 -0.00000000000E+00 -0.00000000000E+00 -0.45593999997E+02  0.45594000000E+02  0.51100000000E-03 0.  1.
    9900012    2    1    2    0    0  0.31659790673E+02 -0.34443916040E+00  0.37763141176E+01  0.59301928870E+02  0.49999972355E+02 0.  0.
         12    1    1    2    0    0 -0.31659790673E+02  0.34443916040E+00 -0.37763141176E+01  0.31886071130E+02  0.00000000000E+00 0. -1.
         11    1    3    3    0    0  0.17084959923E+02 -0.19074220769E+02 -0.38384210380E+01  0.25893150250E+02  0.51100000000E-03 0. -1.
        -11    1    3    3    0    0  0.45031715113E+01 -0.44021075325E+01 -0.16867459734E+01  0.65193724106E+01  0.51100000000E-03 0.  1.
         12    1    3    3    0    0  0.10071659239E+02  0.23131889142E+02  0.93014811290E+01  0.26889406209E+02  0.00000000000E+00 0. -1.
</event>
<event>
 7    1  0.1204848E-011  0.5930194E+02  0.7816164E-02  0.1266605E+00
        -11   -1    0    0    0    0  0.00000000000E+00  0.00000000000E+00  0.45593999997E+02  0.45594000000E+02  0.51100000000E-03 0.  1.
         11   -1    0    0    0    0 -0.00000000000E+00 -0.00000000000E+00 -0.45593999997E+02  0.45594000000E+02  0.51100000000E-03 0. -1.
    9900012    2    1    2    0    0  0.17204196937E+02  0.43448338923E+01  0.26492616311E+02  0.59301942031E+02  0.49999996358E+02 0.  0.
         12    1    1    2    0    0 -0.17204196937E+02 -0.43448338923E+01 -0.26492616311E+02  0.31886057969E+02  0.00000000000E+00 0. -1.
         11    1    3    3    0    0 -0.32708085753E+01 -0.85373317942E+01 -0.75294304151E+01  0.11843839983E+02  0.51100000000E-03 0. -1.
        -11    1    3    3    0    0  0.77476317635E+01 -0.26653625975E+01  0.29370917872E+00  0.81985499365E+01  0.51100000000E-03 0.  1.
        -12    1    3    3    0    0  0.12727373749E+02  0.15547528284E+02  0.33728337548E+02  0.39259552112E+02  0.00000000000E+00 0.  1.
</event>
<event>
 7    1  0.1204848E-011  0.5930205E+02  0.7816164E-02  0.1266604E+00
        -11   -1    0    0    0    0  0.00000000000E+00  0.00000000000E+00  0.45593999997E+02  0.45594000000E+02  0.51100000000E-03 0.  1.
         11   -1    0    0    0    0 -0.00000000000E+00 -0.00000000000E+00 -0.45593999997E+02  0.45594000000E+02  0.51100000000E-03 0. -1.
    9900012    2    1    2    0    0  0.63632557404E+01 -0.12870126978E+02  0.28470728496E+02  0.59302053674E+02  0.50000199967E+02 0.  0.
         12    1    1    2    0    0 -0.63632557404E+01  0.12870126978E+02 -0.28470728496E+02  0.31885946326E+02  0.00000000000E+00 0. -1.
         11    1    3    3    0    0  0.13037429797E+02  0.13048792816E+02  0.12413947652E+02  0.22234020469E+02  0.51100000000E-03 0. -1.
        -11    1    3    3    0    0  0.16226404125E-01 -0.16960963192E+02  0.19037323279E+02  0.25496945182E+02  0.51100000000E-03 0.  1.
        -12    1    3    3    0    0 -0.66904004610E+01 -0.89579566016E+01 -0.29805424355E+01  0.11571088022E+02  0.00000000000E+00 0.  1.
</event>
<event>
 7    1  0.1204848E-011  0.5930199E+02  0.7816164E-02  0.1266605E+00
        -11   -1    0    0    0    0  0.00000000000E+00  0.00000000000E+00  0.45593999997E+02  0.45594000000E+02  0.51100000000E-03 0.  1.
         11   -1    0    0    0    0 -0.00000000000E+00 -0.00000000000E+00 -0.45593999997E+02  0.45594000000E+02  0.51100000000E-03 0. -1.
    9900012    2    1    2    0    0 -0.98980775792E+01  0.91818796448E+01  0.28886648500E+02  0.59301994996E+02  0.50000092953E+02 0.  0.
         12    1    1    2    0    0  0.98980775792E+01 -0.91818796448E+01 -0.28886648500E+02  0.31886005004E+02  0.00000000000E+00 0. -1.
         11    1    3    3    0    0 -0.16297928445E+02  0.35449108084E+01  0.44800550045E+01  0.17270198532E+02  0.51100000000E-03 0. -1.
        -11    1    3    3    0    0 -0.99031450783E+01  0.33781849639E+01  0.23293238374E+02  0.25535453203E+02  0.51100000000E-03 0.  1.
         12    1    3    3    0    0  0.16302995944E+02  0.22587838725E+01  0.11133551217E+01  0.16496343260E+02  0.00000000000E+00 0. -1.
</event>
<event>
 7    1  0.1204848E-011  0.5930197E+02  0.7816164E-02  0.1266605E+00
        -11   -1    0    0    0    0  0.00000000000E+00  0.00000000000E+00  0.45593999997E+02  0.45594000000E+02  0.51100000000E-03 0. -1.
         11   -1    0    0    0    0 -0.00000000000E+00 -0.00000000000E+00 -0.45593999997E+02  0.45594000000E+02  0.51100000000E-03 0.  1.
    9900012    2    1    2    0    0 -0.29135936068E+02 -0.13971830282E+01  0.12878827418E+02  0.59301967217E+02  0.50000042291E+02 0.  0.
         12    1    1    2    0    0  0.29135936068E+02  0.13971830282E+01 -0.12878827418E+02  0.31886032783E+02  0.00000000000E+00 0. -1.
         11    1    3    3    0    0 -0.24391201750E+01 -0.50248218217E+01  0.10578765732E+02  0.11962793413E+02  0.51100000000E-03 0. -1.
        -11    1    3    3    0    0 -0.26413769192E+02 -0.88174556944E+01 -0.10239890887E+02  0.29669683070E+02  0.51100000000E-03 0.  1.
         12    1    3    3    0    0 -0.28304670151E+00  0.12445094488E+02  0.12539952574E+02  0.17669490734E+02  0.00000000000E+00 0. -1.
</event>
<event>
 7    1  0.1204848E-011  0.5930179E+02  0.7816164E-02  0.1266605E+00
        -11   -1    0    0    0    0  0.00000000000E+00  0.00000000000E+00  0.45593999997E+02  0.45594000000E+02  0.51100000000E-03 0.  1.
         11   -1    0    0    0    0 -0.00000000000E+00 -0.00000000000E+00 -0.45593999997E+02  0.45594000000E+02  0.51100000000E-03 0. -1.
    9900012    2    1    2    0    0 -0.30503245509E+01 -0.31718811558E+02  0.11587308856E+01  0.59301793832E+02  0.49999726078E+02 0.  0.
         12    1    1    2    0    0  0.30503245509E+01  0.31718811558E+02 -0.11587308856E+01  0.31886206168E+02  0.00000000000E+00 0. -1.
         11    1    3    3    0    0 -0.10091448995E+02 -0.34567173611E+01 -0.65304834318E+01  0.12507335921E+02  0.51100000000E-03 0. -1.
        -11    1    3    3    0    0  0.28797258721E+00 -0.10537702506E+02  0.21085192705E+02  0.23573532912E+02  0.51100000000E-03 0.  1.
         12    1    3    3    0    0  0.67531518565E+01 -0.17724391692E+02 -0.13395978387E+02  0.23220924999E+02  0.00000000000E+00 0. -1.
</event>
<event>
 7    1  0.1204848E-011  0.5930193E+02  0.7816164E-02  0.1266605E+00
        -11   -1    0    0    0    0  0.00000000000E+00  0.00000000000E+00  0.45593999997E+02  0.45594000000E+02  0.51100000000E-03 0.  1.
         11   -1    0    0    0    0 -0.00000000000E+00 -0.00000000000E+00 -0.45593999997E+02  0.45594000000E+02  0.51100000000E-03 0. -1.
    9900012    2    1    2    0    0  0.22643869299E+02  0.15269253546E+02  0.16456815052E+02  0.59301926514E+02  0.49999968059E+02 0.  0.
         12    1    1    2    0    0 -0.22643869299E+02 -0.15269253546E+02 -0.16456815052E+02  0.31886073486E+02  0.00000000000E+00 0. -1.
         11    1    3    3    0    0 -0.65360368443E+01  0.80496117443E+01  0.43192917364E+01  0.11232644757E+02  0.51100000000E-03 0. -1.
        -11    1    3    3    0    0  0.42355801085E+01  0.12483054871E+02  0.17607723368E+02  0.21995424984E+02  0.51100000000E-03 0.  1.
         12    1    3    3    0    0  0.24944326034E+02 -0.52634130685E+01 -0.54702000520E+01  0.26073856774E+02  0.00000000000E+00 0. -1.
</event>
