<event>
 7    1  0.5764931E-013  0.5052886E+02  0.7816164E-02  0.1300439E+00
        -11   -1    0    0    0    0  0.00000000000E+00  0.00000000000E+00  0.45593999997E+02  0.45594000000E+02  0.51100000000E-03 0. -1.
         11   -1    0    0    0    0 -0.00000000000E+00 -0.00000000000E+00 -0.45593999997E+02  0.45594000000E+02  0.51100000000E-03 0.  1.
    9900012    2    1    2    0    0 -0.21953148808E+02  0.33906768909E+02 -0.46428534120E+01  0.50528858245E+02  0.29999995122E+02 0.  0.
         12    1    1    2    0    0  0.21953148808E+02 -0.33906768909E+02  0.46428534120E+01  0.40659141755E+02  0.00000000000E+00 0. -1.
         11    1    3    3    0    0 -0.10245090718E+02  0.72071561224E+01 -0.11600286517E+02  0.17072540254E+02  0.51100000000E-03 0. -1.
        -11    1    3    3    0    0 -0.11502556376E+02  0.28572837489E+02  0.69322078725E+01  0.31571685917E+02  0.51100000000E-03 0.  1.
        -12    1    3    3    0    0 -0.20550171439E+00 -0.18732247031E+01  0.25225232239E-01  0.18846320743E+01  0.00000000000E+00 0.  1.
</event>
<event>
 7    1  0.5764931E-013  0.5052886E+02  0.7816164E-02  0.1300439E+00
        -11   -1    0    0    0    0  0.00000000000E+00  0.00000000000E+00  0.45593999997E+02  0.45594000000E+02  0.51100000000E-03 0.  1.
         11   -1    0    0    0    0 -0.00000000000E+00 -0.00000000000E+00 -0.45593999997E+02  0.45594000000E+02  0.51100000000E-03 0. -1.
    9900012    2    1    2    0    0  0.39796282802E+02 -0.82863245779E+01  0.87085824148E+00  0.50528859651E+02  0.29999999396E+02 0.  0.
         12    1    1    2    0    0 -0.39796282802E+02  0.82863245779E+01 -0.87085824148E+00  0.40659140349E+02  0.00000000000E+00 0. -1.
         11    1    3    3    0    0  0.36166997988E+01 -0.89667567396E+01 -0.27496533522E+01  0.10052056391E+02  0.51100000000E-03 0. -1.
        -11    1    3    3    0    0  0.20766622966E+02  0.65840845387E+01  0.83133521203E+01  0.23317689044E+02  0.51100000000E-03 0.  1.
        -12    1    3    3    0    0  0.15412960037E+02 -0.59036523770E+01 -0.46928405267E+01  0.17159114216E+02  0.00000000000E+00 0.  1.
</event>
<event>
 7    1  0.5764931E-013  0.5052886E+02  0.7816164E-02  0.1300439E+00
        -11   -1    0    0    0    0  0.00000000000E+00  0.00000000000E+00  0.45593999997E+02  0.45594000000E+02  0.51100000000E-03 0.  1.
         11   -1    0    0    0    0 -0.00000000000E+00 -0.00000000000E+00 -0.45593999997E+02  0.45594000000E+02  0.51100000000E-03 0. -1.
    9900012    2    1    2    0    0  0.51008817789E+01  0.12531439316E+02  0.38342007368E+02  0.50528862094E+02  0.30000006822E+02 0.  0.
         12    1    1    2    0    0 -0.51008817789E+01 -0.12531439316E+02 -0.38342007368E+02  0.40659137906E+02  0.00000000000E+00 0. -1.
         11    1    3    3    0    0 -0.87764950214E+00 -0.15572905464E+01  0.90332262322E+01  0.92083982819E+01  0.51100000000E-03 0. -1.
        -11    1    3    3    0    0 -0.18332108791E+01  0.19482487910E+02  0.18413891748E+02  0.26870046648E+02  0.51100000000E-03 0.  1.
        -12    1    3    3    0    0  0.78117421601E+01 -0.53937580482E+01  0.10894889388E+02  0.14450417165E+02  0.00000000000E+00 0.  1.
</event>
<event>
 7    1  0.5764931E-013  0.5052899E+02  0.7816164E-02  0.1300438E+00
        -11   -1    0    0    0    0  0.00000000000E+00  0.00000000000E+00  0.45593999997E+02  0.45594000000E+02  0.51100000000E-03 0.  1.
         11   -1    0    0    0    0 -0.00000000000E+00 -0.00000000000E+00 -0.45593999997E+02  0.45594000000E+02  0.51100000000E-03 0. -1.
    9900012    2    1    2    0    0  0.20925284335E+02  0.85037381135E+01  0.33807898850E+02  0.50528989792E+02  0.30000394970E+02 0.  0.
         12    1    1    2    0    0 -0.20925284335E+02 -0.85037381135E+01 -0.33807898850E+02  0.40659010208E+02  0.00000000000E+00 0. -1.
         11    1    3    3    0    0  0.25369784350E+01  0.89508560302E+01  0.87022836338E+00  0.93440559137E+01  0.51100000000E-03 0. -1.
        -11    1    3    3    0    0  0.20547937551E+02  0.26636443833E+01  0.29635874459E+02  0.36160721705E+02  0.51100000000E-03 0.  1.
        -12    1    3    3    0    0 -0.21596316512E+01 -0.31107623000E+01  0.33017960274E+01  0.50242121733E+01  0.00000000000E+00 0.  1.
</event>
<event>
 7    1  0.5764931E-013  0.5052886E+02  0.7816164E-02  0.1300439E+00
        -11   -1    0    0    0    0  0.00000000000E+00  0.00000000000E+00  0.45593999997E+02  0.45594000000E+02  0.51100000000E-03 0. -1.
         11   -1    0    0    0    0 -0.00000000000E+00 -0.00000000000E+00 -0.45593999997E+02  0.45594000000E+02  0.51100000000E-03 0.  1.
    9900012    2    1    2    0    0  0.27091309663E+02 -0.10806784619E+02 -0.28327370734E+02  0.50528860981E+02  0.30000003438E+02 0.  0.
         12    1    1    2    0    0 -0.27091309663E+02  0.10806784619E+02  0.28327370734E+02  0.40659139019E+02  0.00000000000E+00 0. -1.
         11    1    3    3    0    0  0.82144341744E+01 -0.10381259380E+02 -0.23566058630E+02  0.27029735381E+02  0.51100000000E-03 0. -1.
        -11    1    3    3    0    0  0.20376893337E+02 -0.10669089038E+01 -0.61979341185E+01  0.21325347929E+02  0.51100000000E-03 0.  1.
         12    1    3    3    0    0 -0.15000178489E+01  0.64138366487E+00  0.14366220145E+01  0.21737776715E+01  0.00000000000E+00 0. -1.
</event>
<event>
 7    1  0.5764931E-013  0.5052887E+02  0.7816164E-02  0.1300439E+00
        -11   -1    0    0    0    0  0.00000000000E+00  0.00000000000E+00  0.45593999997E+02  0.45594000000E+02  0.51100000000E-03 0.  1.
         11   -1    0    0    0    0 -0.00000000000E+00 -0.00000000000E+00 -0.45593999997E+02  0.45594000000E+02  0.51100000000E-03 0. -1.
    9900012    2    1    2    0    0  0.13426852896E+01  0.17749058353E+02  0.36555884400E+02  0.50528873589E+02  0.30000041762E+02 0.  0.
         12    1    1    2    0    0 -0.13426852896E+01 -0.17749058353E+02 -0.36555884400E+02  0.40659126411E+02  0.00000000000E+00 0. -1.
         11    1    3    3    0    0  0.15860652385E+01 -0.73297791396E+01  0.71595899773E+01  0.10368268615E+02  0.51100000000E-03 0. -1.
        -11    1    3    3    0    0  0.27550245816E+01  0.45839488056E+01  0.11901394814E+02  0.13047832996E+02  0.51100000000E-03 0.  1.
         12    1    3    3    0    0 -0.29984045306E+01  0.20494888687E+02  0.17494899608E+02  0.27112771978E+02  0.00000000000E+00 0. -1.
</event>
<event>
 7    1  0.5764931E-013  0.5052886E+02  0.7816164E-02  0.1300439E+00
        -11   -1    0    0    0    0  0.00000000000E+00  0.00000000000E+00  0.45593999997E+02  0.45594000000E+02  0.51100000000E-03 0. -1.
         11   -1    0    0    0    0 -0.00000000000E+00 -0.00000000000E+00 -0.45593999997E+02  0.45594000000E+02  0.51100000000E-03 0.  1.
    9900012    2    1    2    0    0 -0.16123840881E+02 -0.33968373300E+02 -0.15470528629E+02  0.50528857295E+02  0.29999992234E+02 0.  0.
         12    1    1    2    0    0  0.16123840881E+02  0.33968373300E+02  0.15470528629E+02  0.40659142705E+02  0.00000000000E+00 0. -1.
         11    1    3    3    0    0 -0.12725556913E+02 -0.13657361048E+02 -0.39405520194E+01  0.19078554977E+02  0.51100000000E-03 0. -1.
        -11    1    3    3    0    0  0.83542142906E+01 -0.44521782548E+01 -0.46487033815E+01  0.10546337327E+02  0.51100000000E-03 0.  1.
        -12    1    3    3    0    0 -0.11752498259E+02 -0.15858833998E+02 -0.68812732281E+01  0.20903964991E+02  0.00000000000E+00 0.  1.
</event>
<event>
 7    1  0.5764931E-013  0.5052887E+02  0.7816164E-02  0.1300439E+00
        -11   -1    0    0    0    0  0.00000000000E+00  0.00000000000E+00  0.45593999997E+02  0.45594000000E+02  0.51100000000E-03 0. -1.
         11   -1    0    0    0    0 -0.00000000000E+00 -0.00000000000E+00 -0.45593999997E+02  0.45594000000E+02  0.51100000000E-03 0.  1.
    9900012    2    1    2    0    0 -0.26657382421E+02  0.12044749107E+02 -0.28239558213E+02  0.50528872284E+02  0.30000037794E+02 0.  0.
         12    1    1    2    0    0  0.26657382421E+02 -0.12044749107E+02  0.28239558213E+02  0.40659127716E+02  0.00000000000E+00 0. -1.
         11    1    3    3    0    0 -0.26431310039E+02  0.33321932521E+01 -0.98445861884E+01  0.28401294684E+02  0.51100000000E-03 0. -1.
        -11    1    3    3    0    0 -0.29456797494E+01  0.80548059395E+01 -0.94801890099E+01  0.12784010006E+02  0.51100000000E-03 0.  1.
         12    1    3    3    0    0  0.27196073673E+01  0.65774991525E+00 -0.89147830149E+01  0.93435675942E+01  0.00000000000E+00 0. -1.
</event>
<event>
 7    1  0.5764931E-013  0.5052887E+02  0.7816164E-02  0.1300439E+00
        -11   -1    0    0    0    0  0.00000000000E+00  0.00000000000E+00  0.45593999997E+02  0.45594000000E+02  0.51100000000E-03 0.  1.
         11   -1    0    0    0    0 -0.00000000000E+00 -0.00000000000E+00 -0.45593999997E+02  0.45594000000E+02  0.51100000000E-03 0. -1.
    9900012    2    1    2    0    0  0.25016762583E+02  0.11340803395E+02 -0.29978542176E+02  0.50528865445E+02  0.30000017007E+02 0.  0.
         12    1    1    2    0    0 -0.25016762583E+02 -0.11340803395E+02  0.29978542176E+02  0.40659134555E+02  0.00000000000E+00 0. -1.
         11    1    3    3    0    0  0.17151614150E+02  0.82738425607E+01 -0.20040966145E+02  0.27645517955E+02  0.51100000000E-03 0. -1.
        -11    1    3    3    0    0  0.99517192090E+00 -0.71250492986E+01 -0.74237061879E+01  0.10337703250E+02  0.51100000000E-03 0.  1.
        -12    1    3    3    0    0  0.68699765118E+01  0.10192010133E+02 -0.25138698424E+01  0.12545644240E+02  0.00000000000E+00 0.  1.
</event>
<event>
 7    1  0.5764931E-013  0.5052885E+02  0.7816164E-02  0.1300439E+00
        -11   -1    0    0    0    0  0.00000000000E+00  0.00000000000E+00  0.45593999997E+02  0.45594000000E+02  0.51100000000E-03 0.  1.
         11   -1    0    0    0    0 -0.00000000000E+00 -0.00000000000E+00 -0.45593999997E+02  0.45594000000E+02  0.51100000000E-03 0. -1.
    9900012    2    1    2    0    0 -0.13869736649E+02 -0.32000836928E+00  0.38219028743E+02  0.50528853942E+02  0.29999982042E+02 0.  0.
         12    1    1    2    0    0  0.13869736649E+02  0.32000836928E+00 -0.38219028743E+02  0.40659146058E+02  0.00000000000E+00 0. -1.
         11    1    3    3    0    0  0.34769743459E+01 -0.55004533867E+01  0.40145369620E+01  0.76459692219E+01  0.51100000000E-03 0. -1.
        -11    1    3    3    0    0 -0.16018166973E+02 -0.17037494873E+01  0.31477844298E+02  0.35360134578E+02  0.51100000000E-03 0.  1.
        -12    1    3    3    0    0 -0.13285440226E+01  0.68841945048E+01  0.27266474835E+01  0.75227501420E+01  0.00000000000E+00 0.  1.
</event>
<event>
 7    1  0.5764931E-013  0.5052887E+02  0.7816164E-02  0.1300439E+00
        -11   -1    0    0    0    0  0.00000000000E+00  0.00000000000E+00  0.45593999997E+02  0.45594000000E+02  0.51100000000E-03 0.  1.
         11   -1    0    0    0    0 -0.00000000000E+00 -0.00000000000E+00 -0.45593999997E+02  0.45594000000E+02  0.51100000000E-03 0. -1.
    9900012    2    1    2    0    0 -0.57647771746E+01 -0.23674829206E+02  0.32548963416E+02  0.50528865562E+02  0.30000017361E+02 0.  0.
         12    1    1    2    0    0  0.57647771746E+01  0.23674829206E+02 -0.32548963416E+02  0.40659134438E+02  0.00000000000E+00 0. -1.
         11    1    3    3    0    0 -0.17001312975E+02 -0.17048231107E+02  0.19718231581E+02  0.31120660078E+02  0.51100000000E-03 0. -1.
        -11    1    3    3    0    0  0.57243962758E+01 -0.19673086555E+01  0.19653634249E+01  0.63640922150E+01  0.51100000000E-03 0.  1.
         12    1    3    3    0    0  0.55121395250E+01 -0.46592894429E+01  0.10865368411E+02  0.13044113268E+02  0.00000000000E+00 0. -1.
</event>
<event>
 7    1  0.5764931E-013  0.5052885E+02  0.7816164E-02  0.1300439E+00
        -11   -1    0    0    0    0  0.00000000000E+00  0.00000000000E+00  0.45593999997E+02  0.45594000000E+02  0.51100000000E-03 0.  1.
         11   -1    0    0    0    0 -0.00000000000E+00 -0.00000000000E+00 -0.45593999997E+02  0.45594000000E+02  0.51100000000E-03 0. -1.
    9900012    2    1    2    0    0  0.30043380670E+02 -0.91094448739E+01  0.25837570364E+02  0.50528846660E+02  0.29999959908E+02 0.  0.
         12    1    1    2    0    0 -0.30043380670E+02  0.91094448739E+01 -0.25837570364E+02  0.40659153340E+02  0.00000000000E+00 0. -1.
         11    1    3    3    0    0  0.12597343751E+02  0.88274072432E+01  0.15924294943E+02  0.22140446199E+02  0.51100000000E-03 0. -1.
        -11    1    3    3    0    0  0.49370452434E+01 -0.89400778439E+01  0.28002808837E+00  0.10216546558E+02  0.51100000000E-03 0.  1.
         12    1    3    3    0    0  0.12508991676E+02 -0.89967742732E+01  0.96332473332E+01  0.18171853903E+02  0.00000000000E+00 0. -1.
</event>
<event>
 7    1  0.5764931E-013  0.5052881E+02  0.7816164E-02  0.1300439E+00
        -11   -1    0    0    0    0  0.00000000000E+00  0.00000000000E+00  0.45593999997E+02  0.45594000000E+02  0.51100000000E-03 0.  1.
         11   -1    0    0    0    0 -0.00000000000E+00 -0.00000000000E+00 -0.45593999997E+02  0.45594000000E+02  0.51100000000E-03 0. -1.
    9900012    2    1    2    0    0 -0.67142004392E+01 -0.24103456076E+02  0.32048593146E+02  0.50528814015E+02  0.29999860680E+02 0.  0.
         12    1    1    2    0    0  0.67142004392E+01  0.24103456076E+02 -0.32048593146E+02  0.40659185985E+02  0.00000000000E+00 0. -1.
         11    1    3    3    0    0 -0.24935877795E+01 -0.22931489760E+02  0.27241741925E+02  0.35695709910E+02  0.51100000000E-03 0. -1.
        -11    1    3    3    0    0 -0.66709339103E+01  0.41992298187E+01  0.13665917183E+01  0.80001539667E+01  0.51100000000E-03 0.  1.
        -12    1    3    3    0    0  0.24503212505E+01 -0.53711961350E+01  0.34402595026E+01  0.68329501386E+01  0.00000000000E+00 0.  1.
</event>
<event>
 7    1  0.5764931E-013  0.5052886E+02  0.7816164E-02  0.1300439E+00
        -11   -1    0    0    0    0  0.00000000000E+00  0.00000000000E+00  0.45593999997E+02  0.45594000000E+02  0.51100000000E-03 0.  1.
         11   -1    0    0    0    0 -0.00000000000E+00 -0.00000000000E+00 -0.45593999997E+02  0.45594000000E+02  0.51100000000E-03 0. -1.
    9900012    2    1    2    0    0  0.18513429790E+02  0.77030791837E+01  0.35370630722E+02  0.50528855528E+02  0.29999986863E+02 0.  0.
         12    1    1    2    0    0 -0.18513429790E+02 -0.77030791837E+01 -0.35370630722E+02  0.40659144472E+02  0.00000000000E+00 0. -1.
         11    1    3    3    0    0 -0.26578375271E+01  0.12778208348E+02  0.94002917914E+01  0.16084532785E+02  0.51100000000E-03 0. -1.
        -11    1    3    3    0    0  0.57206591072E+01  0.12255715335E+01  0.54444574145E+01  0.79918760628E+01  0.51100000000E-03 0.  1.
         12    1    3    3    0    0  0.15450608210E+02 -0.63007006975E+01  0.20525881516E+02  0.26452446680E+02  0.00000000000E+00 0. -1.
</event>
<event>
 7    1  0.5764931E-013  0.5052887E+02  0.7816164E-02  0.1300439E+00
        -11   -1    0    0    0    0  0.00000000000E+00  0.00000000000E+00  0.45593999997E+02  0.45594000000E+02  0.51100000000E-03 0. -1.
         11   -1    0    0    0    0 -0.00000000000E+00 -0.00000000000E+00 -0.45593999997E+02  0.45594000000E+02  0.51100000000E-03 0.  1.
    9900012    2    1    2    0    0  0.40573969260E+02  0.20671471360E+00  0.26220260484E+01  0.50528871467E+02  0.30000035311E+02 0.  0.
         12    1    1    2    0    0 -0.40573969260E+02 -0.20671471360E+00 -0.26220260484E+01  0.40659128533E+02  0.00000000000E+00 0. -1.
         11    1    3    3    0    0  0.10836073996E+01  0.75072187504E-01 -0.40006726222E+01  0.41455063045E+01  0.51100000000E-03 0. -1.
        -11    1    3    3    0    0  0.29874867425E+02 -0.10224065628E+02  0.65680087207E+01  0.32251790035E+02  0.51100000000E-03 0.  1.
        -12    1    3    3    0    0  0.96154944351E+01  0.10355708154E+02  0.54689949858E-01  0.14131575128E+02  0.00000000000E+00 0.  1.
</event>
<event>
 7    1  0.5764931E-013  0.5052885E+02  0.7816164E-02  0.1300439E+00
        -11   -1    0    0    0    0  0.00000000000E+00  0.00000000000E+00  0.45593999997E+02  0.45594000000E+02  0.51100000000E-03 0.  1.
         11   -1    0    0    0    0 -0.00000000000E+00 -0.00000000000E+00 -0.45593999997E+02  0.45594000000E+02  0.51100000000E-03 0. -1.
    9900012    2    1    2    0    0 -0.10400159603E+02 -0.35064213470E+02  0.17762438052E+02  0.50528848612E+02  0.29999965840E+02 0.  0.
         12    1    1    2    0    0  0.10400159603E+02  0.35064213470E+02 -0.17762438052E+02  0.40659151388E+02  0.00000000000E+00 0. -1.
         11    1    3    3    0    0  0.35448037754E+01  0.16942828388E+01  0.31688078556E+01  0.50475312412E+01  0.51100000000E-03 0. -1.
        -11    1    3    3    0    0 -0.41131402979E+01 -0.30285947036E+02  0.14205316685E+02  0.33703820753E+02  0.51100000000E-03 0.  1.
        -12    1    3    3    0    0 -0.98318230808E+01 -0.64725492730E+01  0.38831351053E+00  0.11777496617E+02  0.00000000000E+00 0.  1.
</event>
<event>
 7    1  0.5764931E-013  0.5052883E+02  0.7816164E-02  0.1300439E+00
        -11   -1    0    0    0    0  0.00000000000E+00  0.00000000000E+00  0.45593999997E+02  0.45594000000E+02  0.51100000000E-03 0.  1.
         11   -1    0    0    0    0 -0.00000000000E+00 -0.00000000000E+00 -0.45593999997E+02  0.45594000000E+02  0.51100000000E-03 0. -1.
    9900012    2    1    2    0    0  0.37431196668E+02  0.41686061994E+01  0.15319811191E+02  0.50528826661E+02  0.29999899119E+02 0.  0.
         12    1    1    2    0    0 -0.37431196668E+02 -0.41686061994E+01 -0.15319811191E+02  0.40659173339E+02  0.00000000000E+00 0. -1.
         11    1    3    3    0    0  0.19347880211E+02 -0.70691416101E+01  0.52307267555E+01  0.21252617119E+02  0.51100000000E-03 0.  1.
        -11    1    3    3    0    0  0.88522619545E+00  0.93413027792E+01  0.69850978794E+01  0.11697655991E+02  0.51100000000E-03 0. -1.
        -12    1    3    3    0    0  0.17198090262E+02  0.18964450304E+01  0.31039865562E+01  0.17578553551E+02  0.00000000000E+00 0.  1.
</event>
<event>
 7    1  0.5764931E-013  0.5052887E+02  0.7816164E-02  0.1300439E+00
        -11   -1    0    0    0    0  0.00000000000E+00  0.00000000000E+00  0.45593999997E+02  0.45594000000E+02  0.51100000000E-03 0. -1.
         11   -1    0    0    0    0 -0.00000000000E+00 -0.00000000000E+00 -0.45593999997E+02  0.45594000000E+02  0.51100000000E-03 0.  1.
    9900012    2    1    2    0    0 -0.30347829219E+02  0.18611098935E+02 -0.19641825065E+02  0.50528867769E+02  0.30000024071E+02 0.  0.
         12    1    1    2    0    0  0.30347829219E+02 -0.18611098935E+02  0.19641825065E+02  0.40659132231E+02  0.00000000000E+00 0. -1.
         11    1    3    3    0    0 -0.33382998700E+01  0.90596927856E+01  0.13150716498E+01  0.97443159378E+01  0.51100000000E-03 0. -1.
        -11    1    3    3    0    0 -0.15274736237E+02  0.35735842317E+01 -0.22602034884E+02  0.27512543548E+02  0.51100000000E-03 0.  1.
         12    1    3    3    0    0 -0.11734793112E+02  0.59778219173E+01  0.16451381689E+01  0.13272008283E+02  0.00000000000E+00 0. -1.
</event>
<event>
 7    1  0.5764931E-013  0.5052886E+02  0.7816164E-02  0.1300439E+00
        -11   -1    0    0    0    0  0.00000000000E+00  0.00000000000E+00  0.45593999997E+02  0.45594000000E+02  0.51100000000E-03 0.  1.
         11   -1    0    0    0    0 -0.00000000000E+00 -0.00000000000E+00 -0.45593999997E+02  0.45594000000E+02  0.51100000000E-03 0. -1.
    9900012    2    1    2    0    0  0.36133709131E+01  0.14955124371E+02  0.37635804034E+02  0.50528856630E+02  0.29999990213E+02 0.  0.
         12    1    1    2    0    0 -0.36133709131E+01 -0.14955124371E+02 -0.37635804034E+02  0.40659143370E+02  0.00000000000E+00 0. -1.
         11    1    3    3    0    0 -0.19450623991E+01  0.13737247819E+02  0.14542145156E+02  0.20098985829E+02  0.51100000000E-03 0.  1.
        -11    1    3    3    0    0  0.11770990874E+02 -0.30104149905E+01  0.12405192406E+02  0.17363974875E+02  0.51100000000E-03 0. -1.
         12    1    3    3    0    0 -0.62125575616E+01  0.42282915420E+01  0.10688466472E+02  0.13065895926E+02  0.00000000000E+00 0. -1.
</event>
<event>
 7    1  0.5764931E-013  0.5052887E+02  0.7816164E-02  0.1300439E+00
        -11   -1    0    0    0    0  0.00000000000E+00  0.00000000000E+00  0.45593999997E+02  0.45594000000E+02  0.51100000000E-03 0.  1.
         11   -1    0    0    0    0 -0.00000000000E+00 -0.00000000000E+00 -0.45593999997E+02  0.45594000000E+02  0.51100000000E-03 0. -1.
    9900012    2    1    2    0    0  0.28980858282E+01 -0.32173765750E+02  0.24690380632E+02  0.50528868188E+02  0.30000025344E+02 0.  0.
         12    1    1    2    0    0 -0.28980858282E+01  0.32173765750E+02 -0.24690380632E+02  0.40659131812E+02  0.00000000000E+00 0. -1.
         11    1    3    3    0    0  0.10957836320E+02 -0.23839390271E+02  0.10106424778E+02  0.28116374719E+02  0.51100000000E-03 0. -1.
        -11    1    3    3    0    0 -0.10138590352E+02 -0.10083017131E+02  0.12410110119E+02  0.18933279754E+02  0.51100000000E-03 0.  1.
        -12    1    3    3    0    0  0.20788398611E+01  0.17486416523E+01  0.21738457347E+01  0.34792137150E+01  0.00000000000E+00 0.  1.
</event>
<event>
 7    1  0.5764931E-013  0.5052886E+02  0.7816164E-02  0.1300439E+00
        -11   -1    0    0    0    0  0.00000000000E+00  0.00000000000E+00  0.45593999997E+02  0.45594000000E+02  0.51100000000E-03 0.  1.
         11   -1    0    0    0    0 -0.00000000000E+00 -0.00000000000E+00 -0.45593999997E+02  0.45594000000E+02  0.51100000000E-03 0. -1.
    9900012    2    1    2    0    0 -0.26121961302E+02 -0.30372342117E+02  0.69519615832E+01  0.50528858373E+02  0.29999995512E+02 0.  0.
         12    1    1    2    0    0  0.26121961302E+02  0.30372342117E+02 -0.69519615832E+01  0.40659141627E+02  0.00000000000E+00 0. -1.
         11    1    3    3    0    0 -0.79433988475E+01  0.46115809806E+01 -0.18221882977E+01  0.93640074138E+01  0.51100000000E-03 0. -1.
        -11    1    3    3    0    0 -0.11129264843E+02 -0.19160887025E+02  0.10083030330E+01  0.22181451773E+02  0.51100000000E-03 0.  1.
         12    1    3    3    0    0 -0.70492976121E+01 -0.15823036073E+02  0.77658468479E+01  0.18983399186E+02  0.00000000000E+00 0. -1.
</event>
<event>
 7    1  0.5764931E-013  0.5052886E+02  0.7816164E-02  0.1300439E+00
        -11   -1    0    0    0    0  0.00000000000E+00  0.00000000000E+00  0.45593999997E+02  0.45594000000E+02  0.51100000000E-03 0. -1.
         11   -1    0    0    0    0 -0.00000000000E+00 -0.00000000000E+00 -0.45593999997E+02  0.45594000000E+02  0.51100000000E-03 0.  1.
    9900012    2    1    2    0    0  0.34213829579E+02  0.19396665423E+02 -0.10312570919E+02  0.50528857326E+02  0.29999992328E+02 0.  0.
         12    1    1    2    0    0 -0.34213829579E+02 -0.19396665423E+02  0.10312570919E+02  0.40659142674E+02  0.00000000000E+00 0. -1.
         11    1    3    3    0    0 -0.18674575217E+01 -0.10411219222E+01  0.45753773329E+01  0.50502881553E+01  0.51100000000E-03 0. -1.
        -11    1    3    3    0    0  0.25083103417E+02  0.12429651970E+02 -0.15231640456E+02  0.31869439850E+02  0.51100000000E-03 0.  1.
         12    1    3    3    0    0  0.10998183684E+02  0.80081353754E+01  0.34369220393E+00  0.13609129321E+02  0.00000000000E+00 0. -1.
</event>
<event>
 7    1  0.5764931E-013  0.5052886E+02  0.7816164E-02  0.1300439E+00
        -11   -1    0    0    0    0  0.00000000000E+00  0.00000000000E+00  0.45593999997E+02  0.45594000000E+02  0.51100000000E-03 0.  1.
         11   -1    0    0    0    0 -0.00000000000E+00 -0.00000000000E+00 -0.45593999997E+02  0.45594000000E+02  0.51100000000E-03 0. -1.
    9900012    2    1    2    0    0  0.33167888040E+02 -0.11233255145E+02  0.20660857619E+02  0.50528857661E+02  0.29999993346E+02 0.  0.
         12    1    1    2    0    0 -0.33167888040E+02  0.11233255145E+02 -0.20660857619E+02  0.40659142339E+02  0.00000000000E+00 0. -1.
         11    1    3    3    0    0  0.43650739922E+01  0.37424026218E+01 -0.38264664522E+01  0.69066123471E+01  0.51100000000E-03 0. -1.
        -11    1    3    3    0    0  0.28907081445E+02 -0.12760497865E+02  0.26014828522E+02  0.40929463308E+02  0.51100000000E-03 0.  1.
         12    1    3    3    0    0 -0.10426739655E+00 -0.22151599022E+01 -0.15275044511E+01  0.26927820058E+01  0.00000000000E+00 0. -1.
</event>
<event>
 7    1  0.5764931E-013  0.5052886E+02  0.7816164E-02  0.1300439E+00
        -11   -1    0    0    0    0  0.00000000000E+00  0.00000000000E+00  0.45593999997E+02  0.45594000000E+02  0.51100000000E-03 0. -1.
         11   -1    0    0    0    0 -0.00000000000E+00 -0.00000000000E+00 -0.45593999997E+02  0.45594000000E+02  0.51100000000E-03 0.  1.
    9900012    2    1    2    0    0  0.59846659787E+00 -0.39221617359E+01 -0.40465094709E+02  0.50528863206E+02  0.30000010202E+02 0.  0.
         12    1    1    2    0    0 -0.59846659787E+00  0.39221617359E+01  0.40465094709E+02  0.40659136794E+02  0.00000000000E+00 0. -1.
         11    1    3    3    0    0 -0.34164124352E+01  0.92098085360E+00 -0.29104926902E+01  0.45815988062E+01  0.51100000000E-03 0. -1.
        -11    1    3    3    0    0  0.82465299381E+01 -0.55896775576E+01 -0.39849436875E+02  0.41075873341E+02  0.51100000000E-03 0.  1.
        -12    1    3    3    0    0 -0.42316509050E+01  0.74653496817E+00  0.22948348554E+01  0.48713910594E+01  0.00000000000E+00 0.  1.
</event>
<event>
 7    1  0.5764931E-013  0.5052885E+02  0.7816164E-02  0.1300439E+00
        -11   -1    0    0    0    0  0.00000000000E+00  0.00000000000E+00  0.45593999997E+02  0.45594000000E+02  0.51100000000E-03 0.  1.
         11   -1    0    0    0    0 -0.00000000000E+00 -0.00000000000E+00 -0.45593999997E+02  0.45594000000E+02  0.51100000000E-03 0. -1.
    9900012    2    1    2    0    0  0.33343931864E+02  0.22158586659E+02  0.70954514807E+01  0.50528853593E+02  0.29999980981E+02 0.  0.
         12    1    1    2    0    0 -0.33343931864E+02 -0.22158586659E+02 -0.70954514807E+01  0.40659146407E+02  0.00000000000E+00 0. -1.
         11    1    3    3    0    0 -0.16107582997E+01 -0.39380568442E+01  0.40952429623E+01  0.59054084693E+01  0.51100000000E-03 0. -1.
        -11    1    3    3    0    0  0.24664202960E+02  0.13446466583E+02  0.35002459488E+01  0.28308692890E+02  0.51100000000E-03 0.  1.
         12    1    3    3    0    0  0.10290487204E+02  0.12650176920E+02 -0.50003743045E+00  0.16314752233E+02  0.00000000000E+00 0. -1.
</event>
<event>
 7    1  0.5764931E-013  0.5052878E+02  0.7816164E-02  0.1300439E+00
        -11   -1    0    0    0    0  0.00000000000E+00  0.00000000000E+00  0.45593999997E+02  0.45594000000E+02  0.51100000000E-03 0. -1.
         11   -1    0    0    0    0 -0.00000000000E+00 -0.00000000000E+00 -0.45593999997E+02  0.45594000000E+02  0.51100000000E-03 0.  1.
    9900012    2    1    2    0    0 -0.22212583752E+02 -0.18701947870E+02 -0.28460679429E+02  0.50528782046E+02  0.29999763506E+02 0.  0.
         12    1    1    2    0    0  0.22212583752E+02  0.18701947870E+02  0.28460679429E+02  0.40659217954E+02  0.00000000000E+00 0. -1.
         11    1    3    3    0    0  0.27413032233E+01  0.27820417610E+01  0.42417317336E+00  0.39286668049E+01  0.51100000000E-03 0. -1.
        -11    1    3    3    0    0 -0.24652627814E+02 -0.16329113284E+02 -0.18171493805E+02  0.34707278576E+02  0.51100000000E-03 0.  1.
        -12    1    3    3    0    0 -0.30125916171E+00 -0.51548763470E+01 -0.10713358797E+02  0.11892836665E+02  0.00000000000E+00 0.  1.
</event>
<event>
 7    1  0.5764931E-013  0.5052886E+02  0.7816164E-02  0.1300439E+00
        -11   -1    0    0    0    0  0.00000000000E+00  0.00000000000E+00  0.45593999997E+02  0.45594000000E+02  0.51100000000E-03 0.  1.
         11   -1    0    0    0    0 -0.00000000000E+00 -0.00000000000E+00 -0.45593999997E+02  0.45594000000E+02  0.51100000000E-03 0. -1.
    9900012    2    1    2    0    0  0.19906206141E+02 -0.20763740786E+02  0.28736310024E+02  0.50528862181E+02  0.30000007085E+02 0.  0.
         12    1    1    2    0    0 -0.19906206141E+02  0.20763740786E+02 -0.28736310024E+02  0.40659137819E+02  0.00000000000E+00 0. -1.
         11    1    3    3    0    0  0.28469524815E+01  0.25944567806E+00  0.18695288048E+02  0.18912594902E+02  0.51100000000E-03 0. -1.
        -11    1    3    3    0    0  0.15858855593E+02 -0.98719363757E+01  0.74078401091E+01  0.20095634448E+02  0.51100000000E-03 0.  1.
        -12    1    3    3    0    0  0.12003980664E+01 -0.11151250089E+02  0.26331818675E+01  0.11520632830E+02  0.00000000000E+00 0.  1.
</event>
<event>
 7    1  0.5764931E-013  0.5052885E+02  0.7816164E-02  0.1300439E+00
        -11   -1    0    0    0    0  0.00000000000E+00  0.00000000000E+00  0.45593999997E+02  0.45594000000E+02  0.51100000000E-03 0.  1.
         11   -1    0    0    0    0 -0.00000000000E+00 -0.00000000000E+00 -0.45593999997E+02  0.45594000000E+02  0.51100000000E-03 0. -1.
    9900012    2    1    2    0    0  0.50521434447E+01  0.29691422071E+02  0.27314138681E+02  0.50528845190E+02  0.29999955440E+02 0.  0.
         12    1    1    2    0    0 -0.50521434447E+01 -0.29691422071E+02 -0.27314138681E+02  0.40659154810E+02  0.00000000000E+00 0. -1.
         11    1    3    3    0    0  0.23201694665E+01  0.26006202179E+02  0.11718779785E+02  0.28618796936E+02  0.51100000000E-03 0. -1.
        -11    1    3    3    0    0  0.88347669960E+01  0.23311041843E+01  0.91313648196E+01  0.12917777608E+02  0.51100000000E-03 0.  1.
         12    1    3    3    0    0 -0.61027930178E+01  0.13541157071E+01  0.64639940764E+01  0.89922706468E+01  0.00000000000E+00 0. -1.
</event>
<event>
 7    1  0.5764931E-013  0.5052885E+02  0.7816164E-02  0.1300439E+00
        -11   -1    0    0    0    0  0.00000000000E+00  0.00000000000E+00  0.45593999997E+02  0.45594000000E+02  0.51100000000E-03 0.  1.
         11   -1    0    0    0    0 -0.00000000000E+00 -0.00000000000E+00 -0.45593999997E+02  0.45594000000E+02  0.51100000000E-03 0. -1.
    9900012    2    1    2    0    0 -0.21856675170E+02  0.33699082690E+01  0.34118848430E+02  0.50528851590E+02  0.29999974893E+02 0.  0.
         12    1    1    2    0    0  0.21856675170E+02 -0.33699082690E+01 -0.34118848430E+02  0.40659148410E+02  0.00000000000E+00 0. -1.
         11    1    3    3    0    0 -0.47411715035E+01  0.10811733430E+02  0.27306325678E+01  0.12117286885E+02  0.51100000000E-03 0. -1.
        -11    1    3    3    0    0 -0.16895955730E+02 -0.27851803282E+01  0.21553302323E+02  0.27527720406E+02  0.51100000000E-03 0.  1.
         12    1    3    3    0    0 -0.21954793698E+00 -0.46566448324E+01  0.98349135393E+01  0.10883844299E+02  0.00000000000E+00 0. -1.
</event>
<event>
 7    1  0.5764931E-013  0.5052891E+02  0.7816164E-02  0.1300439E+00
        -11   -1    0    0    0    0  0.00000000000E+00  0.00000000000E+00  0.45593999997E+02  0.45594000000E+02  0.51100000000E-03 0. -1.
         11   -1    0    0    0    0 -0.00000000000E+00 -0.00000000000E+00 -0.45593999997E+02  0.45594000000E+02  0.51100000000E-03 0.  1.
    9900012    2    1    2    0    0 -0.13792513584E+02  0.34222500524E+02 -0.17080650047E+02  0.50528910252E+02  0.30000153203E+02 0.  0.
         12    1    1    2    0    0  0.13792513584E+02 -0.34222500524E+02  0.17080650047E+02  0.40659089748E+02  0.00000000000E+00 0. -1.
         11    1    3    3    0    0 -0.77211421834E+00  0.26194239013E+02  0.14658396574E+01  0.26246580806E+02  0.51100000000E-03 0. -1.
        -11    1    3    3    0    0 -0.82182901704E+01  0.62710007915E+01 -0.10398702206E+02  0.14662835745E+02  0.51100000000E-03 0.  1.
         12    1    3    3    0    0 -0.48021091948E+01  0.17572607196E+01 -0.81477874989E+01  0.96194937020E+01  0.00000000000E+00 0. -1.
</event>
<event>
 7    1  0.5764931E-013  0.5052886E+02  0.7816164E-02  0.1300439E+00
        -11   -1    0    0    0    0  0.00000000000E+00  0.00000000000E+00  0.45593999997E+02  0.45594000000E+02  0.51100000000E-03 0. -1.
         11   -1    0    0    0    0 -0.00000000000E+00 -0.00000000000E+00 -0.45593999997E+02  0.45594000000E+02  0.51100000000E-03 0.  1.
    9900012    2    1    2    0    0 -0.18847717374E+02  0.36003470494E+02  0.12959952933E+01  0.50528856605E+02  0.29999990136E+02 0.  0.
         12    1    1    2    0    0  0.18847717374E+02 -0.36003470494E+02 -0.12959952933E+01  0.40659143395E+02  0.00000000000E+00 0. -1.
         11    1    3    3    0    0 -0.15743877916E+02  0.30328514513E+02  0.61252987963E+01  0.34716102459E+02  0.51100000000E-03 0. -1.
        -11    1    3    3    0    0 -0.43711564759E+00  0.86843862241E+01 -0.70724396261E+01  0.11208435962E+02  0.51100000000E-03 0.  1.
         12    1    3    3    0    0 -0.26667238111E+01 -0.30094302427E+01  0.22431361231E+01  0.46043181838E+01  0.00000000000E+00 0. -1.
</event>
<event>
 7    1  0.5764931E-013  0.5052886E+02  0.7816164E-02  0.1300439E+00
        -11   -1    0    0    0    0  0.00000000000E+00  0.00000000000E+00  0.45593999997E+02  0.45594000000E+02  0.51100000000E-03 0.  1.
         11   -1    0    0    0    0 -0.00000000000E+00 -0.00000000000E+00 -0.45593999997E+02  0.45594000000E+02  0.51100000000E-03 0. -1.
    9900012    2    1    2    0    0  0.30496033611E+02  0.16261525840E+02  0.21417766338E+02  0.50528855843E+02  0.29999987820E+02 0.  0.
         12    1    1    2    0    0 -0.30496033611E+02 -0.16261525840E+02 -0.21417766338E+02  0.40659144157E+02  0.00000000000E+00 0. -1.
         11    1    3    3    0    0  0.53950527868E+01  0.28070128772E+00 -0.69792299521E+01  0.88258166064E+01  0.51100000000E-03 0. -1.
        -11    1    3    3    0    0  0.14864359820E+02  0.90273427325E+01  0.21075998462E+02  0.27324710815E+02  0.51100000000E-03 0.  1.
         12    1    3    3    0    0  0.10236621004E+02  0.69534818198E+01  0.73209978284E+01  0.14378328422E+02  0.00000000000E+00 0. -1.
</event>
<event>
 7    1  0.5764931E-013  0.5052886E+02  0.7816164E-02  0.1300439E+00
        -11   -1    0    0    0    0  0.00000000000E+00  0.00000000000E+00  0.45593999997E+02  0.45594000000E+02  0.51100000000E-03 0.  1.
         11   -1    0    0    0    0 -0.00000000000E+00 -0.00000000000E+00 -0.45593999997E+02  0.45594000000E+02  0.51100000000E-03 0. -1.
    9900012    2    1    2    0    0  0.10351111942E+00  0.23607108525E+02  0.33103765274E+02  0.50528861263E+02  0.30000004296E+02 0.  0.
         12    1    1    2    0    0 -0.10351111942E+00 -0.23607108525E+02 -0.33103765274E+02  0.40659138737E+02  0.00000000000E+00 0. -1.
         11    1    3    3    0    0 -0.17075529318E+01 -0.65883860059E+01  0.41273317126E+01  0.79597383440E+01  0.51100000000E-03 0. -1.
        -11    1    3    3    0    0 -0.28133013365E+01  0.15737561330E+02  0.14133248380E+02  0.21338561598E+02  0.51100000000E-03 0.  1.
         12    1    3    3    0    0  0.46243653877E+01  0.14457933201E+02  0.14843185181E+02  0.21230561321E+02  0.00000000000E+00 0. -1.
</event>
<event>
 7    1  0.5764931E-013  0.5052884E+02  0.7816164E-02  0.1300439E+00
        -11   -1    0    0    0    0  0.00000000000E+00  0.00000000000E+00  0.45593999997E+02  0.45594000000E+02  0.51100000000E-03 0.  1.
         11   -1    0    0    0    0 -0.00000000000E+00 -0.00000000000E+00 -0.45593999997E+02  0.45594000000E+02  0.51100000000E-03 0. -1.
    9900012    2    1    2    0    0 -0.38784369093E+02  0.11139469355E+02  0.49852127002E+01  0.50528838559E+02  0.29999935283E+02 0.  0.
         12    1    1    2    0    0  0.38784369093E+02 -0.11139469355E+02 -0.49852127002E+01  0.40659161441E+02  0.00000000000E+00 0. -1.
         11    1    3    3    0    0  0.30313558129E+00  0.56369916015E+01 -0.73792444702E+00  0.56931624118E+01  0.51100000000E-03 0. -1.
        -11    1    3    3    0    0 -0.12164034413E+02 -0.62607251660E+01  0.71178301074E+01  0.15421540730E+02  0.51100000000E-03 0.  1.
        -12    1    3    3    0    0 -0.26923470262E+02  0.11763202919E+02 -0.13946929602E+01  0.29414135416E+02  0.00000000000E+00 0.  1.
</event>
<event>
 7    1  0.5764931E-013  0.5052886E+02  0.7816164E-02  0.1300439E+00
        -11   -1    0    0    0    0  0.00000000000E+00  0.00000000000E+00  0.45593999997E+02  0.45594000000E+02  0.51100000000E-03 0.  1.
         11   -1    0    0    0    0 -0.00000000000E+00 -0.00000000000E+00 -0.45593999997E+02  0.45594000000E+02  0.51100000000E-03 0. -1.
    9900012    2    1    2    0    0  0.25094482703E+02 -0.58800499060E+01 -0.31446105076E+02  0.50528861132E+02  0.30000003897E+02 0.  0.
         12    1    1    2    0    0 -0.25094482703E+02  0.58800499060E+01  0.31446105076E+02  0.40659138868E+02  0.00000000000E+00 0. -1.
         11    1    3    3    0    0  0.69812444419E+01 -0.51526855641E+01 -0.89322882514E+01  0.12452859758E+02  0.51100000000E-03 0. -1.
        -11    1    3    3    0    0 -0.45515205219E+01  0.55118856732E+01 -0.43436436862E+01  0.83644762818E+01  0.51100000000E-03 0.  1.
        -12    1    3    3    0    0  0.22664758783E+02 -0.62392500151E+01 -0.18170173138E+02  0.29711525092E+02  0.00000000000E+00 0.  1.
</event>
<event>
 7    1  0.5764931E-013  0.5052886E+02  0.7816164E-02  0.1300439E+00
        -11   -1    0    0    0    0  0.00000000000E+00  0.00000000000E+00  0.45593999997E+02  0.45594000000E+02  0.51100000000E-03 0. -1.
         11   -1    0    0    0    0 -0.00000000000E+00 -0.00000000000E+00 -0.45593999997E+02  0.45594000000E+02  0.51100000000E-03 0.  1.
    9900012    2    1    2    0    0  0.15971889201E+02 -0.10177492845E+02 -0.35978922063E+02  0.50528862797E+02  0.30000008957E+02 0.  0.
         12    1    1    2    0    0 -0.15971889201E+02  0.10177492845E+02  0.35978922063E+02  0.40659137203E+02  0.00000000000E+00 0. -1.
         11    1    3    3    0    0  0.12605408654E+02 -0.18950585987E+02 -0.19327485762E+02  0.29859215374E+02  0.51100000000E-03 0. -1.
        -11    1    3    3    0    0  0.57255250914E+01  0.43619551662E+01 -0.10691859168E+02  0.12888915516E+02  0.51100000000E-03 0.  1.
         12    1    3    3    0    0 -0.23590445439E+01  0.44111379759E+01 -0.59595771328E+01  0.77807319068E+01  0.00000000000E+00 0. -1.
</event>
<event>
 7    1  0.5764931E-013  0.5052886E+02  0.7816164E-02  0.1300439E+00
        -11   -1    0    0    0    0  0.00000000000E+00  0.00000000000E+00  0.45593999997E+02  0.45594000000E+02  0.51100000000E-03 0.  1.
         11   -1    0    0    0    0 -0.00000000000E+00 -0.00000000000E+00 -0.45593999997E+02  0.45594000000E+02  0.51100000000E-03 0. -1.
    9900012    2    1    2    0    0  0.14827287149E+02 -0.40766967860E+01  0.37639045366E+02  0.50528860351E+02  0.30000001523E+02 0.  0.
         12    1    1    2    0    0 -0.14827287149E+02  0.40766967860E+01 -0.37639045366E+02  0.40659139649E+02  0.00000000000E+00 0. -1.
         11    1    3    3    0    0  0.16809355615E+02 -0.65546239783E+01  0.22892170578E+02  0.29147367046E+02  0.51100000000E-03 0. -1.
        -11    1    3    3    0    0  0.29225906021E+01  0.53713796351E+01  0.14436857743E+02  0.15678524062E+02  0.51100000000E-03 0.  1.
         12    1    3    3    0    0 -0.49046590681E+01 -0.28934524428E+01  0.31001704491E+00  0.57029692425E+01  0.00000000000E+00 0. -1.
</event>
<event>
 7    1  0.5764931E-013  0.5052886E+02  0.7816164E-02  0.1300439E+00
        -11   -1    0    0    0    0  0.00000000000E+00  0.00000000000E+00  0.45593999997E+02  0.45594000000E+02  0.51100000000E-03 0.  1.
         11   -1    0    0    0    0 -0.00000000000E+00 -0.00000000000E+00 -0.45593999997E+02  0.45594000000E+02  0.51100000000E-03 0. -1.
    9900012    2    1    2    0    0  0.28687318036E+02 -0.27638161618E+02 -0.81446574847E+01  0.50528860323E+02  0.30000001438E+02 0.  0.
         12    1    1    2    0    0 -0.28687318036E+02  0.27638161618E+02  0.81446574847E+01  0.40659139677E+02  0.00000000000E+00 0. -1.
         11    1    3    3    0    0  0.75566101773E+01 -0.15111013722E+02  0.10284819610E+02  0.19779348011E+02  0.51100000000E-03 0. -1.
        -11    1    3    3    0    0  0.52343734259E+01 -0.24445692606E+01 -0.47641882939E+01  0.74881288979E+01  0.51100000000E-03 0.  1.
         12    1    3    3    0    0  0.15896334433E+02 -0.10082578636E+02 -0.13665288801E+02  0.23261383414E+02  0.00000000000E+00 0. -1.
</event>
<event>
 7    1  0.5764931E-013  0.5052887E+02  0.7816164E-02  0.1300439E+00
        -11   -1    0    0    0    0  0.00000000000E+00  0.00000000000E+00  0.45593999997E+02  0.45594000000E+02  0.51100000000E-03 0.  1.
         11   -1    0    0    0    0 -0.00000000000E+00 -0.00000000000E+00 -0.45593999997E+02  0.45594000000E+02  0.51100000000E-03 0. -1.
    9900012    2    1    2    0    0  0.13894205936E+02 -0.35421012732E+02  0.14334155891E+02  0.50528866626E+02  0.30000020598E+02 0.  0.
         12    1    1    2    0    0 -0.13894205936E+02  0.35421012732E+02 -0.14334155891E+02  0.40659133374E+02  0.00000000000E+00 0. -1.
         11    1    3    3    0    0  0.98380350144E+01  0.12853688530E+01  0.65716774802E+01  0.11900674401E+02  0.51100000000E-03 0.  1.
        -11    1    3    3    0    0  0.54747216308E+01 -0.31555047365E+02  0.87373322442E+01  0.33196905973E+02  0.51100000000E-03 0. -1.
        -12    1    3    3    0    0 -0.14185507092E+01 -0.51513342201E+01 -0.97485383358E+00  0.54312862527E+01  0.00000000000E+00 0.  1.
</event>
<event>
 7    1  0.5764931E-013  0.5052886E+02  0.7816164E-02  0.1300439E+00
        -11   -1    0    0    0    0  0.00000000000E+00  0.00000000000E+00  0.45593999997E+02  0.45594000000E+02  0.51100000000E-03 0.  1.
         11   -1    0    0    0    0 -0.00000000000E+00 -0.00000000000E+00 -0.45593999997E+02  0.45594000000E+02  0.51100000000E-03 0. -1.
    9900012    2    1    2    0    0 -0.12940268114E+02 -0.28849551833E+02  0.25562047738E+02  0.50528862474E+02  0.30000007975E+02 0.  0.
         12    1    1    2    0    0  0.12940268114E+02  0.28849551833E+02 -0.25562047738E+02  0.40659137526E+02  0.00000000000E+00 0. -1.
         11    1    3    3    0    0 -0.13970761168E+02 -0.81947056679E+01  0.12159184669E+01  0.16242346708E+02  0.51100000000E-03 0. -1.
        -11    1    3    3    0    0 -0.41808411936E+01 -0.11752970810E+02  0.18835356855E+02  0.22591645005E+02  0.51100000000E-03 0.  1.
         12    1    3    3    0    0  0.52113342476E+01 -0.89018753556E+01  0.55107724163E+01  0.11694870761E+02  0.00000000000E+00 0. -1.
</event>
<event>
 7    1  0.5764931E-013  0.5052886E+02  0.7816164E-02  0.1300439E+00
        -11   -1    0    0    0    0  0.00000000000E+00  0.00000000000E+00  0.45593999997E+02  0.45594000000E+02  0.51100000000E-03 0.  1.
         11   -1    0    0    0    0 -0.00000000000E+00 -0.00000000000E+00 -0.45593999997E+02  0.45594000000E+02  0.51100000000E-03 0. -1.
    9900012    2    1    2    0    0 -0.37807927183E+02 -0.60316905749E+01  0.13687407675E+02  0.50528858618E+02  0.29999996256E+02 0.  0.
         12    1    1    2    0    0  0.37807927183E+02  0.60316905749E+01 -0.13687407675E+02  0.40659141382E+02  0.00000000000E+00 0. -1.
         11    1    3    3    0    0  0.63430224605E+00 -0.28247958934E+01 -0.21895754103E+01  0.36298831823E+01  0.51100000000E-03 0. -1.
        -11    1    3    3    0    0 -0.24660663037E+02  0.24244799779E+01  0.19552059242E+02  0.31564369556E+02  0.51100000000E-03 0.  1.
        -12    1    3    3    0    0 -0.13781566391E+02 -0.56313746594E+01 -0.36750761560E+01  0.15334605880E+02  0.00000000000E+00 0.  1.
</event>
<event>
 7    1  0.5764931E-013  0.5052886E+02  0.7816164E-02  0.1300439E+00
        -11   -1    0    0    0    0  0.00000000000E+00  0.00000000000E+00  0.45593999997E+02  0.45594000000E+02  0.51100000000E-03 0.  1.
         11   -1    0    0    0    0 -0.00000000000E+00 -0.00000000000E+00 -0.45593999997E+02  0.45594000000E+02  0.51100000000E-03 0. -1.
    9900012    2    1    2    0    0  0.38260692095E+02  0.12450056898E+02 -0.58550158383E+01  0.50528859738E+02  0.29999999661E+02 0.  0.
         12    1    1    2    0    0 -0.38260692095E+02 -0.12450056898E+02  0.58550158383E+01  0.40659140262E+02  0.00000000000E+00 0. -1.
         11    1    3    3    0    0  0.28150785020E+00  0.74991427472E+01 -0.45037508544E+01  0.87521517716E+01  0.51100000000E-03 0. -1.
        -11    1    3    3    0    0  0.29172235657E+02  0.68020657855E+01  0.55135225552E+01  0.30457944175E+02  0.51100000000E-03 0.  1.
         12    1    3    3    0    0  0.88069485881E+01 -0.18511516351E+01 -0.68647875391E+01  0.11318763791E+02  0.00000000000E+00 0. -1.
</event>
<event>
 7    1  0.5764931E-013  0.5052887E+02  0.7816164E-02  0.1300439E+00
        -11   -1    0    0    0    0  0.00000000000E+00  0.00000000000E+00  0.45593999997E+02  0.45594000000E+02  0.51100000000E-03 0.  1.
         11   -1    0    0    0    0 -0.00000000000E+00 -0.00000000000E+00 -0.45593999997E+02  0.45594000000E+02  0.51100000000E-03 0. -1.
    9900012    2    1    2    0    0 -0.11524640766E+02  0.18535897310E+02  0.34304049712E+02  0.50528872359E+02  0.30000038023E+02 0.  0.
         12    1    1    2    0    0  0.11524640766E+02 -0.18535897310E+02 -0.34304049712E+02  0.40659127641E+02  0.00000000000E+00 0. -1.
         11    1    3    3    0    0 -0.84625200497E+01  0.61912422968E+00 -0.11242151492E+01  0.85592885432E+01  0.51100000000E-03 0. -1.
        -11    1    3    3    0    0 -0.32806917920E+01  0.86632247107E+01  0.29637026058E+02  0.31051050141E+02  0.51100000000E-03 0.  1.
         12    1    3    3    0    0  0.21857107550E+00  0.92535483696E+01  0.57912388033E+01  0.10918533675E+02  0.00000000000E+00 0. -1.
</event>
<event>
 7    1  0.5764931E-013  0.5052886E+02  0.7816164E-02  0.1300439E+00
        -11   -1    0    0    0    0  0.00000000000E+00  0.00000000000E+00  0.45593999997E+02  0.45594000000E+02  0.51100000000E-03 0.  1.
         11   -1    0    0    0    0 -0.00000000000E+00 -0.00000000000E+00 -0.45593999997E+02  0.45594000000E+02  0.51100000000E-03 0. -1.
    9900012    2    1    2    0    0  0.95079238849E+00 -0.39654210731E+02  0.89333896120E+01  0.50528857303E+02  0.29999992259E+02 0.  0.
         12    1    1    2    0    0 -0.95079238849E+00  0.39654210731E+02 -0.89333896120E+01  0.40659142697E+02  0.00000000000E+00 0. -1.
         11    1    3    3    0    0  0.71272331490E+01 -0.30414567935E+00 -0.42474428418E+01  0.83024531260E+01  0.51100000000E-03 0. -1.
        -11    1    3    3    0    0 -0.26372954681E+01 -0.23943067416E+02  0.10105564228E+02  0.26121796135E+02  0.51100000000E-03 0.  1.
         12    1    3    3    0    0 -0.35391452924E+01 -0.15406997635E+02  0.30752682257E+01  0.16104608042E+02  0.00000000000E+00 0. -1.
</event>
<event>
 7    1  0.5764931E-013  0.5052885E+02  0.7816164E-02  0.1300439E+00
        -11   -1    0    0    0    0  0.00000000000E+00  0.00000000000E+00  0.45593999997E+02  0.45594000000E+02  0.51100000000E-03 0. -1.
         11   -1    0    0    0    0 -0.00000000000E+00 -0.00000000000E+00 -0.45593999997E+02  0.45594000000E+02  0.51100000000E-03 0.  1.
    9900012    2    1    2    0    0  0.11373431508E+02  0.39013065020E+02  0.13388161227E+01  0.50528848322E+02  0.29999964960E+02 0.  0.
         12    1    1    2    0    0 -0.11373431508E+02 -0.39013065020E+02 -0.13388161227E+01  0.40659151678E+02  0.00000000000E+00 0. -1.
         11    1    3    3    0    0  0.55775055999E+01  0.12891926009E+02 -0.10047393222E+02  0.17270218173E+02  0.51100000000E-03 0.  1.
        -11    1    3    3    0    0  0.64174711346E+01  0.13250736324E+02  0.13765077033E+02  0.20155478036E+02  0.51100000000E-03 0. -1.
         12    1    3    3    0    0 -0.62154522673E+00  0.12870402687E+02 -0.23788676883E+01  0.13103152113E+02  0.00000000000E+00 0. -1.
</event>
<event>
 7    1  0.5764931E-013  0.5052886E+02  0.7816164E-02  0.1300439E+00
        -11   -1    0    0    0    0  0.00000000000E+00  0.00000000000E+00  0.45593999997E+02  0.45594000000E+02  0.51100000000E-03 0. -1.
         11   -1    0    0    0    0 -0.00000000000E+00 -0.00000000000E+00 -0.45593999997E+02  0.45594000000E+02  0.51100000000E-03 0.  1.
    9900012    2    1    2    0    0 -0.48099997604E+01 -0.32028773877E+02 -0.24580227506E+02  0.50528855419E+02  0.29999986533E+02 0.  0.
         12    1    1    2    0    0  0.48099997604E+01  0.32028773877E+02  0.24580227506E+02  0.40659144581E+02  0.00000000000E+00 0. -1.
         11    1    3    3    0    0 -0.94749990524E+00  0.45515812637E+01 -0.72610955987E+01  0.86219578766E+01  0.51100000000E-03 0. -1.
        -11    1    3    3    0    0 -0.66971689850E+01 -0.20890224017E+02 -0.75118053665E+01  0.23187944110E+02  0.51100000000E-03 0.  1.
         12    1    3    3    0    0  0.28346691299E+01 -0.15690131124E+02 -0.98073265407E+01  0.18718953433E+02  0.00000000000E+00 0. -1.
</event>
<event>
 7    1  0.5764931E-013  0.5052885E+02  0.7816164E-02  0.1300439E+00
        -11   -1    0    0    0    0  0.00000000000E+00  0.00000000000E+00  0.45593999997E+02  0.45594000000E+02  0.51100000000E-03 0.  1.
         11   -1    0    0    0    0 -0.00000000000E+00 -0.00000000000E+00 -0.45593999997E+02  0.45594000000E+02  0.51100000000E-03 0. -1.
    9900012    2    1    2    0    0 -0.25851919841E+01  0.17506443137E+02  0.36606110676E+02  0.50528854563E+02  0.29999983928E+02 0.  0.
         12    1    1    2    0    0  0.25851919841E+01 -0.17506443137E+02 -0.36606110676E+02  0.40659145437E+02  0.00000000000E+00 0. -1.
         11    1    3    3    0    0 -0.70401071556E+01 -0.10494793093E+01  0.60966129592E+01  0.93719371220E+01  0.51100000000E-03 0. -1.
        -11    1    3    3    0    0  0.27288163198E+01  0.14146132421E+02  0.32853075668E+02  0.35873166602E+02  0.51100000000E-03 0.  1.
         12    1    3    3    0    0  0.17260988517E+01  0.44097900250E+01 -0.23435779510E+01  0.52837508384E+01  0.00000000000E+00 0. -1.
</event>
<event>
 7    1  0.5764931E-013  0.5052885E+02  0.7816164E-02  0.1300439E+00
        -11   -1    0    0    0    0  0.00000000000E+00  0.00000000000E+00  0.45593999997E+02  0.45594000000E+02  0.51100000000E-03 0. -1.
         11   -1    0    0    0    0 -0.00000000000E+00 -0.00000000000E+00 -0.45593999997E+02  0.45594000000E+02  0.51100000000E-03 0.  1.
    9900012    2    1    2    0    0 -0.12101665723E+02 -0.27350507893E+02 -0.27543886020E+02  0.50528852783E+02  0.29999978521E+02 0.  0.
         12    1    1    2    0    0  0.12101665723E+02  0.27350507893E+02  0.27543886020E+02  0.40659147217E+02  0.00000000000E+00 0. -1.
         11    1    3    3    0    0 -0.12544810430E+00  0.11099466614E+01  0.87905210298E+00  0.14214259316E+01  0.51100000000E-03 0. -1.
        -11    1    3    3    0    0 -0.12423577482E+02 -0.33021738493E+02 -0.23557658121E+02  0.42423386792E+02  0.51100000000E-03 0.  1.
        -12    1    3    3    0    0  0.44735986343E+00  0.45612839384E+01 -0.48652800025E+01  0.66840400595E+01  0.00000000000E+00 0.  1.
</event>
<event>
 7    1  0.5764931E-013  0.5052885E+02  0.7816164E-02  0.1300439E+00
        -11   -1    0    0    0    0  0.00000000000E+00  0.00000000000E+00  0.45593999997E+02  0.45594000000E+02  0.51100000000E-03 0.  1.
         11   -1    0    0    0    0 -0.00000000000E+00 -0.00000000000E+00 -0.45593999997E+02  0.45594000000E+02  0.51100000000E-03 0. -1.
    9900012    2    1    2    0    0  0.39896965576E+02  0.67198383977E+01  0.40301634613E+01  0.50528852102E+02  0.29999976451E+02 0.  0.
         12    1    1    2    0    0 -0.39896965576E+02 -0.67198383977E+01 -0.40301634613E+01  0.40659147898E+02  0.00000000000E+00 0. -1.
         11    1    3    3    0    0 -0.75920899273E+00 -0.15138911795E+01 -0.12190379291E+01  0.20867003933E+01  0.51100000000E-03 0. -1.
        -11    1    3    3    0    0  0.40914548362E+02  0.68521547541E+01  0.10676179790E+02  0.42836119194E+02  0.51100000000E-03 0.  1.
        -12    1    3    3    0    0 -0.25837379398E+00  0.13815748231E+01 -0.54269783994E+01  0.56060325148E+01  0.00000000000E+00 0.  1.
</event>
<event>
 7    1  0.5764931E-013  0.5052885E+02  0.7816164E-02  0.1300439E+00
        -11   -1    0    0    0    0  0.00000000000E+00  0.00000000000E+00  0.45593999997E+02  0.45594000000E+02  0.51100000000E-03 0.  1.
         11   -1    0    0    0    0 -0.00000000000E+00 -0.00000000000E+00 -0.45593999997E+02  0.45594000000E+02  0.51100000000E-03 0. -1.
    9900012    2    1    2    0    0  0.39104061413E+02 -0.94610734710E+01 -0.58759707430E+01  0.50528848971E+02  0.29999966932E+02 0.  0.
         12    1    1    2    0    0 -0.39104061413E+02  0.94610734710E+01  0.58759707430E+01  0.40659151029E+02  0.00000000000E+00 0. -1.
         11    1    3    3    0    0  0.21850039912E+01 -0.78638619158E+01 -0.21458893183E+01  0.84391591939E+01  0.51100000000E-03 0. -1.
        -11    1    3    3    0    0  0.23982505436E+02  0.85394021631E+01 -0.30657421218E+01  0.25641387078E+02  0.51100000000E-03 0.  1.
        -12    1    3    3    0    0  0.12936551986E+02 -0.10136613718E+02 -0.66433930300E+00  0.16448302699E+02  0.00000000000E+00 0.  1.
</event>
<event>
 7    1  0.5764931E-013  0.5052888E+02  0.7816164E-02  0.1300439E+00
        -11   -1    0    0    0    0  0.00000000000E+00  0.00000000000E+00  0.45593999997E+02  0.45594000000E+02  0.51100000000E-03 0.  1.
         11   -1    0    0    0    0 -0.00000000000E+00 -0.00000000000E+00 -0.45593999997E+02  0.45594000000E+02  0.51100000000E-03 0. -1.
    9900012    2    1    2    0    0  0.12098864022E+02  0.24505394394E+02  0.30104275809E+02  0.50528876952E+02  0.30000051982E+02 0.  0.
         12    1    1    2    0    0 -0.12098864022E+02 -0.24505394394E+02 -0.30104275809E+02  0.40659123048E+02  0.00000000000E+00 0. -1.
         11    1    3    3    0    0  0.10791384908E+02  0.60463759847E+01  0.19939144648E+02  0.23464486790E+02  0.51100000000E-03 0. -1.
        -11    1    3    3    0    0 -0.39564404491E+01  0.19032692998E+02  0.97645954496E+01  0.21754175423E+02  0.51100000000E-03 0.  1.
        -12    1    3    3    0    0  0.52639195638E+01 -0.57367458847E+00  0.40053571156E+00  0.53102147381E+01  0.00000000000E+00 0.  1.
</event>
<event>
 7    1  0.5764931E-013  0.5052885E+02  0.7816164E-02  0.1300439E+00
        -11   -1    0    0    0    0  0.00000000000E+00  0.00000000000E+00  0.45593999997E+02  0.45594000000E+02  0.51100000000E-03 0.  1.
         11   -1    0    0    0    0 -0.00000000000E+00 -0.00000000000E+00 -0.45593999997E+02  0.45594000000E+02  0.51100000000E-03 0. -1.
    9900012    2    1    2    0    0 -0.27124356036E+02 -0.12152870123E+02  0.27744249224E+02  0.50528852104E+02  0.29999976455E+02 0.  0.
         12    1    1    2    0    0  0.27124356036E+02  0.12152870123E+02 -0.27744249224E+02  0.40659147896E+02  0.00000000000E+00 0. -1.
         11    1    3    3    0    0 -0.74928271891E+01 -0.11789237401E+02 -0.12253047180E+01  0.14022480155E+02  0.51100000000E-03 0. -1.
        -11    1    3    3    0    0 -0.56671579190E+01  0.10642185123E+01  0.17352749195E+02  0.18285708758E+02  0.51100000000E-03 0.  1.
        -12    1    3    3    0    0 -0.13964370928E+02 -0.14278512347E+01  0.11616804747E+02  0.18220663191E+02  0.00000000000E+00 0.  1.
</event>
<event>
 7    1  0.5764931E-013  0.5052886E+02  0.7816164E-02  0.1300439E+00
        -11   -1    0    0    0    0  0.00000000000E+00  0.00000000000E+00  0.45593999997E+02  0.45594000000E+02  0.51100000000E-03 0. -1.
         11   -1    0    0    0    0 -0.00000000000E+00 -0.00000000000E+00 -0.45593999997E+02  0.45594000000E+02  0.51100000000E-03 0.  1.
    9900012    2    1    2    0    0 -0.39433767150E+02  0.94889605286E+01  0.28465645705E+01  0.50528864576E+02  0.30000014365E+02 0.  0.
         12    1    1    2    0    0  0.39433767150E+02 -0.94889605286E+01 -0.28465645705E+01  0.40659135424E+02  0.00000000000E+00 0. -1.
         11    1    3    3    0    0  0.23712714596E+01  0.49232374661E+00  0.38178988523E+01  0.45212457259E+01  0.51100000000E-03 0. -1.
        -11    1    3    3    0    0 -0.31600087058E+02  0.13444834670E+02 -0.37164671486E+01  0.34541876175E+02  0.51100000000E-03 0.  1.
        -12    1    3    3    0    0 -0.10204951552E+02 -0.44481978882E+01  0.27451328668E+01  0.11465742675E+02  0.00000000000E+00 0.  1.
</event>
<event>
 7    1  0.5764931E-013  0.5052884E+02  0.7816164E-02  0.1300439E+00
        -11   -1    0    0    0    0  0.00000000000E+00  0.00000000000E+00  0.45593999997E+02  0.45594000000E+02  0.51100000000E-03 0. -1.
         11   -1    0    0    0    0 -0.00000000000E+00 -0.00000000000E+00 -0.45593999997E+02  0.45594000000E+02  0.51100000000E-03 0.  1.
    9900012    2    1    2    0    0 -0.22407337347E+02 -0.15624072264E+02 -0.30115896254E+02  0.50528836109E+02  0.29999927837E+02 0.  0.
         12    1    1    2    0    0  0.22407337347E+02  0.15624072264E+02  0.30115896254E+02  0.40659163891E+02  0.00000000000E+00 0. -1.
         11    1    3    3    0    0 -0.64264230889E+00 -0.94104532892E+01 -0.11010861746E+02  0.14498575685E+02  0.51100000000E-03 0. -1.
        -11    1    3    3    0    0 -0.13385540675E+02  0.45338287790E+01 -0.21783953411E+01  0.14299430376E+02  0.51100000000E-03 0.  1.
        -12    1    3    3    0    0 -0.83791543632E+01 -0.10747447754E+02 -0.16926639167E+02  0.21730830048E+02  0.00000000000E+00 0.  1.
</event>
<event>
 7    1  0.5764931E-013  0.5052885E+02  0.7816164E-02  0.1300439E+00
        -11   -1    0    0    0    0  0.00000000000E+00  0.00000000000E+00  0.45593999997E+02  0.45594000000E+02  0.51100000000E-03 0. -1.
         11   -1    0    0    0    0 -0.00000000000E+00 -0.00000000000E+00 -0.45593999997E+02  0.45594000000E+02  0.51100000000E-03 0.  1.
    9900012    2    1    2    0    0  0.26354146858E+02  0.30958611667E+02 -0.43554474494E+00  0.50528851065E+02  0.29999973296E+02 0.  0.
         12    1    1    2    0    0 -0.26354146858E+02 -0.30958611667E+02  0.43554474494E+00  0.40659148935E+02  0.00000000000E+00 0. -1.
         11    1    3    3    0    0  0.23390802756E+02  0.28728194964E+02  0.20750140932E+00  0.37047022776E+02  0.51100000000E-03 0. -1.
        -11    1    3    3    0    0 -0.63464076590E+00 -0.33907580214E+01 -0.45794720557E+01  0.57333736518E+01  0.51100000000E-03 0.  1.
         12    1    3    3    0    0  0.35979848674E+01  0.56211747241E+01  0.39364259014E+01  0.77484546370E+01  0.00000000000E+00 0. -1.
</event>
<event>
 7    1  0.5764931E-013  0.5052888E+02  0.7816164E-02  0.1300439E+00
        -11   -1    0    0    0    0  0.00000000000E+00  0.00000000000E+00  0.45593999997E+02  0.45594000000E+02  0.51100000000E-03 0.  1.
         11   -1    0    0    0    0 -0.00000000000E+00 -0.00000000000E+00 -0.45593999997E+02  0.45594000000E+02  0.51100000000E-03 0. -1.
    9900012    2    1    2    0    0 -0.16888293869E+02  0.36976573012E+02 -0.82642487654E+00  0.50528875568E+02  0.30000047777E+02 0.  0.
         12    1    1    2    0    0  0.16888293869E+02 -0.36976573012E+02  0.82642487654E+00  0.40659124432E+02  0.00000000000E+00 0. -1.
         11    1    3    3    0    0 -0.56917889422E+01  0.25482321322E+01 -0.51074258904E+01  0.80607535534E+01  0.51100000000E-03 0. -1.
        -11    1    3    3    0    0  0.59098115761E+01  0.16241498576E+02  0.16242030715E+01  0.17359440795E+02  0.51100000000E-03 0.  1.
        -12    1    3    3    0    0 -0.17106316502E+02  0.18186842304E+02  0.26567979423E+01  0.25108681220E+02  0.00000000000E+00 0.  1.
</event>
<event>
 7    1  0.5764931E-013  0.5052886E+02  0.7816164E-02  0.1300439E+00
        -11   -1    0    0    0    0  0.00000000000E+00  0.00000000000E+00  0.45593999997E+02  0.45594000000E+02  0.51100000000E-03 0.  1.
         11   -1    0    0    0    0 -0.00000000000E+00 -0.00000000000E+00 -0.45593999997E+02  0.45594000000E+02  0.51100000000E-03 0. -1.
    9900012    2    1    2    0    0  0.49855441072E+01  0.29424076299E+01  0.40244905130E+02  0.50528858326E+02  0.29999995369E+02 0.  0.
         12    1    1    2    0    0 -0.49855441072E+01 -0.29424076299E+01 -0.40244905130E+02  0.40659141674E+02  0.00000000000E+00 0. -1.
         11    1    3    3    0    0 -0.45603512737E+01 -0.72616310448E+01  0.15420428753E+02  0.17644197697E+02  0.51100000000E-03 0. -1.
        -11    1    3    3    0    0  0.68095486387E+01  0.68434253642E+01  0.26526506530E+02  0.28228672876E+02  0.51100000000E-03 0.  1.
         12    1    3    3    0    0  0.27363467423E+01  0.33606133106E+01 -0.17020301537E+01  0.46559877535E+01  0.00000000000E+00 0. -1.
</event>
<event>
 7    1  0.5764931E-013  0.5052886E+02  0.7816164E-02  0.1300439E+00
        -11   -1    0    0    0    0  0.00000000000E+00  0.00000000000E+00  0.45593999997E+02  0.45594000000E+02  0.51100000000E-03 0.  1.
         11   -1    0    0    0    0 -0.00000000000E+00 -0.00000000000E+00 -0.45593999997E+02  0.45594000000E+02  0.51100000000E-03 0. -1.
    9900012    2    1    2    0    0  0.71225963134E+01 -0.37053524879E+02 -0.15148295170E+02  0.50528856739E+02  0.29999990544E+02 0.  0.
         12    1    1    2    0    0 -0.71225963134E+01  0.37053524879E+02  0.15148295170E+02  0.40659143261E+02  0.00000000000E+00 0. -1.
         11    1    3    3    0    0 -0.44472555026E+01 -0.11449002071E+02 -0.16002605810E+02  0.20172781735E+02  0.51100000000E-03 0. -1.
        -11    1    3    3    0    0  0.83220383416E+01 -0.57856147009E+01 -0.10136742572E+01  0.10186127595E+02  0.51100000000E-03 0.  1.
         12    1    3    3    0    0  0.32478134743E+01 -0.19818908107E+02  0.18679848981E+01  0.20169947409E+02  0.00000000000E+00 0. -1.
</event>
<event>
 7    1  0.5764931E-013  0.5052887E+02  0.7816164E-02  0.1300439E+00
        -11   -1    0    0    0    0  0.00000000000E+00  0.00000000000E+00  0.45593999997E+02  0.45594000000E+02  0.51100000000E-03 0. -1.
         11   -1    0    0    0    0 -0.00000000000E+00 -0.00000000000E+00 -0.45593999997E+02  0.45594000000E+02  0.51100000000E-03 0.  1.
    9900012    2    1    2    0    0 -0.58627482963E+00  0.34541429996E+02 -0.21440868838E+02  0.50528868666E+02  0.30000026796E+02 0.  0.
         12    1    1    2    0    0  0.58627482963E+00 -0.34541429996E+02  0.21440868838E+02  0.40659131334E+02  0.00000000000E+00 0. -1.
         11    1    3    3    0    0  0.29574619402E+01 -0.19755676367E+01 -0.10213309114E+02  0.10814857000E+02  0.51100000000E-03 0. -1.
        -11    1    3    3    0    0  0.36187892971E+01  0.14208091684E+02 -0.45027898189E+01  0.15337555923E+02  0.51100000000E-03 0.  1.
         12    1    3    3    0    0 -0.71625260670E+01  0.22308905949E+02 -0.67247699049E+01  0.24376455743E+02  0.00000000000E+00 0. -1.
</event>
<event>
 7    1  0.5764931E-013  0.5052885E+02  0.7816164E-02  0.1300439E+00
        -11   -1    0    0    0    0  0.00000000000E+00  0.00000000000E+00  0.45593999997E+02  0.45594000000E+02  0.51100000000E-03 0.  1.
         11   -1    0    0    0    0 -0.00000000000E+00 -0.00000000000E+00 -0.45593999997E+02  0.45594000000E+02  0.51100000000E-03 0. -1.
    9900012    2    1    2    0    0 -0.19943230558E+02 -0.34502329643E+02  0.80636808324E+01  0.50528854110E+02  0.29999982554E+02 0.  0.
         12    1    1    2    0    0  0.19943230558E+02  0.34502329643E+02 -0.80636808324E+01  0.40659145890E+02  0.00000000000E+00 0. -1.
         11    1    3    3    0    0 -0.17102825533E+01 -0.19809579932E+02 -0.22300109878E+01  0.20007935245E+02  0.51100000000E-03 0. -1.
        -11    1    3    3    0    0 -0.14981669066E+02 -0.18425970591E+02  0.90725979861E+01  0.25422014765E+02  0.51100000000E-03 0.  1.
         12    1    3    3    0    0 -0.32512789391E+01  0.37332208799E+01  0.12210938342E+01  0.50989041008E+01  0.00000000000E+00 0. -1.
</event>
<event>
 7    1  0.5764931E-013  0.5052886E+02  0.7816164E-02  0.1300439E+00
        -11   -1    0    0    0    0  0.00000000000E+00  0.00000000000E+00  0.45593999997E+02  0.45594000000E+02  0.51100000000E-03 0. -1.
         11   -1    0    0    0    0 -0.00000000000E+00 -0.00000000000E+00 -0.45593999997E+02  0.45594000000E+02  0.51100000000E-03 0.  1.
    9900012    2    1    2    0    0  0.45944576210E+01 -0.34095701847E+02 -0.21668863078E+02  0.50528861392E+02  0.30000004686E+02 0.  0.
         12    1    1    2    0    0 -0.45944576210E+01  0.34095701847E+02  0.21668863078E+02  0.40659138608E+02  0.00000000000E+00 0. -1.
         11    1    3    3    0    0 -0.91797557006E+01 -0.26151834262E+01 -0.20994777926E+01  0.97731727877E+01  0.51100000000E-03 0. -1.
        -11    1    3    3    0    0  0.28234436685E+01 -0.18636645281E+02 -0.96066182659E+01  0.21156169224E+02  0.51100000000E-03 0.  1.
         12    1    3    3    0    0  0.10950769653E+02 -0.12843873140E+02 -0.99627670196E+01  0.19599519380E+02  0.00000000000E+00 0. -1.
</event>
<event>
 7    1  0.5764931E-013  0.5052886E+02  0.7816164E-02  0.1300439E+00
        -11   -1    0    0    0    0  0.00000000000E+00  0.00000000000E+00  0.45593999997E+02  0.45594000000E+02  0.51100000000E-03 0.  1.
         11   -1    0    0    0    0 -0.00000000000E+00 -0.00000000000E+00 -0.45593999997E+02  0.45594000000E+02  0.51100000000E-03 0. -1.
    9900012    2    1    2    0    0  0.65556685533E+01  0.93515070706E+01  0.39022277925E+02  0.50528860201E+02  0.30000001068E+02 0.  0.
         12    1    1    2    0    0 -0.65556685533E+01 -0.93515070706E+01 -0.39022277925E+02  0.40659139799E+02  0.00000000000E+00 0. -1.
         11    1    3    3    0    0 -0.65520014739E+01 -0.13149484899E+01  0.14585954685E+02  0.16043936150E+02  0.51100000000E-03 0. -1.
        -11    1    3    3    0    0  0.14963826186E+02  0.10591131141E+02  0.26164346984E+02  0.31947788755E+02  0.51100000000E-03 0.  1.
        -12    1    3    3    0    0 -0.18561561591E+01  0.75324419222E-01 -0.17280237434E+01  0.25371352966E+01  0.00000000000E+00 0.  1.
</event>
<event>
 7    1  0.5764931E-013  0.5052887E+02  0.7816164E-02  0.1300439E+00
        -11   -1    0    0    0    0  0.00000000000E+00  0.00000000000E+00  0.45593999997E+02  0.45594000000E+02  0.51100000000E-03 0.  1.
         11   -1    0    0    0    0 -0.00000000000E+00 -0.00000000000E+00 -0.45593999997E+02  0.45594000000E+02  0.51100000000E-03 0. -1.
    9900012    2    1    2    0    0 -0.37284890592E+01  0.34090031276E+02  0.21843370110E+02  0.50528872110E+02  0.30000037264E+02 0.  0.
         12    1    1    2    0    0  0.37284890592E+01 -0.34090031276E+02 -0.21843370110E+02  0.40659127890E+02  0.00000000000E+00 0. -1.
         11    1    3    3    0    0 -0.37512193336E+01 -0.73128666751E+00  0.19705581280E+01  0.42999449154E+01  0.51100000000E-03 0. -1.
        -11    1    3    3    0    0 -0.26962574482E+01  0.34803691130E+02  0.23213356394E+02  0.41921672627E+02  0.51100000000E-03 0.  1.
        -12    1    3    3    0    0  0.27189877225E+01  0.17626812867E-01 -0.33405444116E+01  0.43072545671E+01  0.00000000000E+00 0.  1.
</event>
<event>
 7    1  0.5764931E-013  0.5052887E+02  0.7816164E-02  0.1300439E+00
        -11   -1    0    0    0    0  0.00000000000E+00  0.00000000000E+00  0.45593999997E+02  0.45594000000E+02  0.51100000000E-03 0.  1.
         11   -1    0    0    0    0 -0.00000000000E+00 -0.00000000000E+00 -0.45593999997E+02  0.45594000000E+02  0.51100000000E-03 0. -1.
    9900012    2    1    2    0    0 -0.67682082635E+01  0.65125694114E+01  0.39559355267E+02  0.50528870735E+02  0.30000033087E+02 0.  0.
         12    1    1    2    0    0  0.67682082635E+01 -0.65125694114E+01 -0.39559355267E+02  0.40659129265E+02  0.00000000000E+00 0. -1.
         11    1    3    3    0    0 -0.85204141402E+00  0.54757778627E+01  0.41169686702E+01  0.69035895783E+01  0.51100000000E-03 0. -1.
        -11    1    3    3    0    0 -0.21515186072E+01 -0.99780840310E+01  0.57111600872E+01  0.11696518416E+02  0.51100000000E-03 0.  1.
        -12    1    3    3    0    0 -0.37646482423E+01  0.11014875580E+02  0.29731226509E+02  0.31928762741E+02  0.00000000000E+00 0.  1.
</event>
<event>
 7    1  0.5764931E-013  0.5052886E+02  0.7816164E-02  0.1300439E+00
        -11   -1    0    0    0    0  0.00000000000E+00  0.00000000000E+00  0.45593999997E+02  0.45594000000E+02  0.51100000000E-03 0. -1.
         11   -1    0    0    0    0 -0.00000000000E+00 -0.00000000000E+00 -0.45593999997E+02  0.45594000000E+02  0.51100000000E-03 0.  1.
    9900012    2    1    2    0    0  0.83022067778E+01  0.26670849986E+02 -0.29544959508E+02  0.50528861929E+02  0.30000006318E+02 0.  0.
         12    1    1    2    0    0 -0.83022067778E+01 -0.26670849986E+02  0.29544959508E+02  0.40659138071E+02  0.00000000000E+00 0. -1.
         11    1    3    3    0    0  0.31297434650E+01 -0.20933590067E+01  0.26041122374E+01  0.45780833210E+01  0.51100000000E-03 0. -1.
        -11    1    3    3    0    0 -0.41206623312E+01  0.18103112552E+02 -0.16267262076E+02  0.24684536817E+02  0.51100000000E-03 0.  1.
        -12    1    3    3    0    0  0.92931256439E+01  0.10661096441E+02 -0.15881809669E+02  0.21266241791E+02  0.00000000000E+00 0.  1.
</event>
<event>
 7    1  0.5764931E-013  0.5052882E+02  0.7816164E-02  0.1300439E+00
        -11   -1    0    0    0    0  0.00000000000E+00  0.00000000000E+00  0.45593999997E+02  0.45594000000E+02  0.51100000000E-03 0. -1.
         11   -1    0    0    0    0 -0.00000000000E+00 -0.00000000000E+00 -0.45593999997E+02  0.45594000000E+02  0.51100000000E-03 0.  1.
    9900012    2    1    2    0    0 -0.27121062352E+02 -0.32700832710E+01 -0.30115170273E+02  0.50528819631E+02  0.29999877750E+02 0.  0.
         12    1    1    2    0    0  0.27121062352E+02  0.32700832710E+01  0.30115170273E+02  0.40659180369E+02  0.00000000000E+00 0. -1.
         11    1    3    3    0    0 -0.19774418475E+02 -0.28300571027E+01 -0.30137905995E+02  0.36157021825E+02  0.51100000000E-03 0. -1.
        -11    1    3    3    0    0 -0.47001247324E+01  0.58745340497E+01  0.12109836023E+00  0.75243596322E+01  0.51100000000E-03 0.  1.
         12    1    3    3    0    0 -0.26465191447E+01 -0.63145602180E+01 -0.98362637866E-01  0.68474381734E+01  0.00000000000E+00 0. -1.
</event>
<event>
 7    1  0.5764931E-013  0.5052886E+02  0.7816164E-02  0.1300439E+00
        -11   -1    0    0    0    0  0.00000000000E+00  0.00000000000E+00  0.45593999997E+02  0.45594000000E+02  0.51100000000E-03 0.  1.
         11   -1    0    0    0    0 -0.00000000000E+00 -0.00000000000E+00 -0.45593999997E+02  0.45594000000E+02  0.51100000000E-03 0. -1.
    9900012    2    1    2    0    0 -0.19159485329E+02  0.33675600455E+02  0.12330192808E+02  0.50528860821E+02  0.30000002953E+02 0.  0.
         12    1    1    2    0    0  0.19159485329E+02 -0.33675600455E+02 -0.12330192808E+02  0.40659139179E+02  0.00000000000E+00 0. -1.
         11    1    3    3    0    0 -0.14006590190E+01 -0.20505436536E+01 -0.15368961580E+01  0.29203809724E+01  0.51100000000E-03 0. -1.
        -11    1    3    3    0    0 -0.19880714548E+02  0.36748512214E+02  0.15689711636E+02  0.44630292542E+02  0.51100000000E-03 0.  1.
        -12    1    3    3    0    0  0.21218882383E+01 -0.10223681057E+01 -0.18226226699E+01  0.29781873071E+01  0.00000000000E+00 0.  1.
</event>
<event>
 7    1  0.5764931E-013  0.5052886E+02  0.7816164E-02  0.1300439E+00
        -11   -1    0    0    0    0  0.00000000000E+00  0.00000000000E+00  0.45593999997E+02  0.45594000000E+02  0.51100000000E-03 0.  1.
         11   -1    0    0    0    0 -0.00000000000E+00 -0.00000000000E+00 -0.45593999997E+02  0.45594000000E+02  0.51100000000E-03 0. -1.
    9900012    2    1    2    0    0 -0.29979835633E+02 -0.27298346952E+02 -0.30291114278E+01  0.50528858261E+02  0.29999995172E+02 0.  0.
         12    1    1    2    0    0  0.29979835633E+02  0.27298346952E+02  0.30291114278E+01  0.40659141739E+02  0.00000000000E+00 0. -1.
         11    1    3    3    0    0 -0.14258122215E+02 -0.27885676180E+01  0.50560483158E+01  0.15382905554E+02  0.51100000000E-03 0. -1.
        -11    1    3    3    0    0 -0.12194891490E+02 -0.24268439004E+02 -0.12154347496E+02  0.29755683045E+02  0.51100000000E-03 0.  1.
        -12    1    3    3    0    0 -0.35268219281E+01 -0.24134032956E+00  0.40691877528E+01  0.53902696625E+01  0.00000000000E+00 0.  1.
</event>
<event>
 7    1  0.5764931E-013  0.5052886E+02  0.7816164E-02  0.1300439E+00
        -11   -1    0    0    0    0  0.00000000000E+00  0.00000000000E+00  0.45593999997E+02  0.45594000000E+02  0.51100000000E-03 0.  1.
         11   -1    0    0    0    0 -0.00000000000E+00 -0.00000000000E+00 -0.45593999997E+02  0.45594000000E+02  0.51100000000E-03 0. -1.
    9900012    2    1    2    0    0 -0.18897717613E+02 -0.54090753296E+01  0.35591901490E+02  0.50528864759E+02  0.30000014921E+02 0.  0.
         12    1    1    2    0    0  0.18897717613E+02  0.54090753296E+01 -0.35591901490E+02  0.40659135241E+02  0.00000000000E+00 0. -1.
         11    1    3    3    0    0  0.40622806063E+01  0.48823082635E+01 -0.40165294890E+00  0.63639911264E+01  0.51100000000E-03 0. -1.
        -11    1    3    3    0    0 -0.98173399927E+01 -0.53929831968E+01  0.19737595295E+02  0.22694428844E+02  0.51100000000E-03 0.  1.
         12    1    3    3    0    0 -0.13142658227E+02 -0.48984003963E+01  0.16255959144E+02  0.21470444788E+02  0.00000000000E+00 0. -1.
</event>
<event>
 7    1  0.5764931E-013  0.5052889E+02  0.7816164E-02  0.1300439E+00
        -11   -1    0    0    0    0  0.00000000000E+00  0.00000000000E+00  0.45593999997E+02  0.45594000000E+02  0.51100000000E-03 0.  1.
         11   -1    0    0    0    0 -0.00000000000E+00 -0.00000000000E+00 -0.45593999997E+02  0.45594000000E+02  0.51100000000E-03 0. -1.
    9900012    2    1    2    0    0  0.62811661172E+00 -0.36426909944E+02  0.18051276048E+02  0.50528894433E+02  0.30000105117E+02 0.  0.
         12    1    1    2    0    0 -0.62811661172E+00  0.36426909944E+02 -0.18051276048E+02  0.40659105567E+02  0.00000000000E+00 0. -1.
         11    1    3    3    0    0  0.29907889751E+01 -0.28496831755E+01 -0.30054898312E+01  0.51086673684E+01  0.51100000000E-03 0. -1.
        -11    1    3    3    0    0 -0.98520792151E+01 -0.28166409204E+02  0.11101165790E+02  0.31837806998E+02  0.51100000000E-03 0.  1.
        -12    1    3    3    0    0  0.74894068517E+01 -0.54108175651E+01  0.99556000891E+01  0.13582420066E+02  0.00000000000E+00 0.  1.
</event>
<event>
 7    1  0.5764931E-013  0.5052887E+02  0.7816164E-02  0.1300439E+00
        -11   -1    0    0    0    0  0.00000000000E+00  0.00000000000E+00  0.45593999997E+02  0.45594000000E+02  0.51100000000E-03 0.  1.
         11   -1    0    0    0    0 -0.00000000000E+00 -0.00000000000E+00 -0.45593999997E+02  0.45594000000E+02  0.51100000000E-03 0. -1.
    9900012    2    1    2    0    0 -0.21533976713E+02 -0.21752794592E+02  0.26763197796E+02  0.50528868407E+02  0.30000026010E+02 0.  0.
         12    1    1    2    0    0  0.21533976713E+02  0.21752794592E+02 -0.26763197796E+02  0.40659131593E+02  0.00000000000E+00 0. -1.
         11    1    3    3    0    0  0.24645867780E+01 -0.49638372364E+00 -0.15471265324E+00  0.25188332723E+01  0.51100000000E-03 0. -1.
        -11    1    3    3    0    0 -0.17863743394E+02 -0.17940914860E+02  0.30925404544E+02  0.39967116490E+02  0.51100000000E-03 0.  1.
        -12    1    3    3    0    0 -0.61348200970E+01 -0.33154960087E+01 -0.40074940948E+01  0.80429186447E+01  0.00000000000E+00 0.  1.
</event>
<event>
 7    1  0.5764931E-013  0.5052886E+02  0.7816164E-02  0.1300439E+00
        -11   -1    0    0    0    0  0.00000000000E+00  0.00000000000E+00  0.45593999997E+02  0.45594000000E+02  0.51100000000E-03 0. -1.
         11   -1    0    0    0    0 -0.00000000000E+00 -0.00000000000E+00 -0.45593999997E+02  0.45594000000E+02  0.51100000000E-03 0.  1.
    9900012    2    1    2    0    0 -0.30567896415E+02  0.25873541010E+02  0.70234736190E+01  0.50528860839E+02  0.30000003006E+02 0.  0.
         12    1    1    2    0    0  0.30567896415E+02 -0.25873541010E+02 -0.70234736190E+01  0.40659139161E+02  0.00000000000E+00 0. -1.
         11    1    3    3    0    0 -0.21923766123E+02  0.30674048019E+01  0.45031399955E+01  0.22590678682E+02  0.51100000000E-03 0. -1.
        -11    1    3    3    0    0 -0.73989136502E+01  0.21923507176E+02 -0.19442490930E+01  0.23219909451E+02  0.51100000000E-03 0.  1.
         12    1    3    3    0    0 -0.12452166418E+01  0.88262903218E+00  0.44645827165E+01  0.47182727058E+01  0.00000000000E+00 0. -1.
</event>
<event>
 7    1  0.5764931E-013  0.5052885E+02  0.7816164E-02  0.1300439E+00
        -11   -1    0    0    0    0  0.00000000000E+00  0.00000000000E+00  0.45593999997E+02  0.45594000000E+02  0.51100000000E-03 0. -1.
         11   -1    0    0    0    0 -0.00000000000E+00 -0.00000000000E+00 -0.45593999997E+02  0.45594000000E+02  0.51100000000E-03 0.  1.
    9900012    2    1    2    0    0 -0.39097129610E+02 -0.60334291449E+01 -0.93903301895E+01  0.50528854509E+02  0.29999983766E+02 0.  0.
         12    1    1    2    0    0  0.39097129610E+02  0.60334291449E+01  0.93903301895E+01  0.40659145491E+02  0.00000000000E+00 0. -1.
         11    1    3    3    0    0 -0.13151885535E+02 -0.74510746630E+00  0.84904818874E+01  0.15672126889E+02  0.51100000000E-03 0. -1.
        -11    1    3    3    0    0 -0.13653533133E+01 -0.27166765585E+00 -0.76310569164E+01  0.77569983181E+01  0.51100000000E-03 0.  1.
        -12    1    3    3    0    0 -0.24579890761E+02 -0.50166540228E+01 -0.10249755161E+02  0.27099729302E+02  0.00000000000E+00 0.  1.
</event>
<event>
 7    1  0.5764931E-013  0.5052888E+02  0.7816164E-02  0.1300439E+00
        -11   -1    0    0    0    0  0.00000000000E+00  0.00000000000E+00  0.45593999997E+02  0.45594000000E+02  0.51100000000E-03 0.  1.
         11   -1    0    0    0    0 -0.00000000000E+00 -0.00000000000E+00 -0.45593999997E+02  0.45594000000E+02  0.51100000000E-03 0. -1.
    9900012    2    1    2    0    0  0.13550392476E+02  0.22235179790E+02  0.31227354162E+02  0.50528880426E+02  0.30000062543E+02 0.  0.
         12    1    1    2    0    0 -0.13550392476E+02 -0.22235179790E+02 -0.31227354162E+02  0.40659119574E+02  0.00000000000E+00 0. -1.
         11    1    3    3    0    0  0.18759785316E+02  0.64896784809E+01  0.13819575464E+02  0.24187313579E+02  0.51100000000E-03 0. -1.
        -11    1    3    3    0    0 -0.43158488249E+01  0.11350488907E+02  0.49720137707E+01  0.13121778489E+02  0.51100000000E-03 0.  1.
        -12    1    3    3    0    0 -0.89354401485E+00  0.43950124020E+01  0.12435764927E+02  0.13219788358E+02  0.00000000000E+00 0.  1.
</event>
<event>
 7    1  0.5764931E-013  0.5052885E+02  0.7816164E-02  0.1300439E+00
        -11   -1    0    0    0    0  0.00000000000E+00  0.00000000000E+00  0.45593999997E+02  0.45594000000E+02  0.51100000000E-03 0.  1.
         11   -1    0    0    0    0 -0.00000000000E+00 -0.00000000000E+00 -0.45593999997E+02  0.45594000000E+02  0.51100000000E-03 0. -1.
    9900012    2    1    2    0    0 -0.33579342405E+01  0.40010265698E+02 -0.64085189718E+01  0.50528853439E+02  0.29999980514E+02 0.  0.
         12    1    1    2    0    0  0.33579342405E+01 -0.40010265698E+02  0.64085189718E+01  0.40659146561E+02  0.00000000000E+00 0. -1.
         11    1    3    3    0    0 -0.10379164636E+02  0.14922072072E+02  0.87182219139E+01  0.20159431715E+02  0.51100000000E-03 0. -1.
        -11    1    3    3    0    0  0.61226787391E+01  0.17831998577E+02 -0.93151494866E+01  0.21029488306E+02  0.51100000000E-03 0.  1.
         12    1    3    3    0    0  0.89855165608E+00  0.72561950492E+01 -0.58115913991E+01  0.93399334184E+01  0.00000000000E+00 0. -1.
</event>
<event>
 7    1  0.5764931E-013  0.5052887E+02  0.7816164E-02  0.1300439E+00
        -11   -1    0    0    0    0  0.00000000000E+00  0.00000000000E+00  0.45593999997E+02  0.45594000000E+02  0.51100000000E-03 0.  1.
         11   -1    0    0    0    0 -0.00000000000E+00 -0.00000000000E+00 -0.45593999997E+02  0.45594000000E+02  0.51100000000E-03 0. -1.
    9900012    2    1    2    0    0 -0.25990872801E+02 -0.73249268631E+01  0.30397124237E+02  0.50528865917E+02  0.30000018442E+02 0.  0.
         12    1    1    2    0    0  0.25990872801E+02  0.73249268631E+01 -0.30397124237E+02  0.40659134083E+02  0.00000000000E+00 0. -1.
         11    1    3    3    0    0 -0.86633186045E+01 -0.71789731182E+00  0.26733556318E+02  0.28111412263E+02  0.51100000000E-03 0.  1.
        -11    1    3    3    0    0 -0.16149681025E+02 -0.81086777785E+00  0.32090871226E+01  0.16485385776E+02  0.51100000000E-03 0. -1.
         12    1    3    3    0    0 -0.11778731711E+01 -0.57961617734E+01  0.45448079659E+00  0.59320678777E+01  0.00000000000E+00 0. -1.
</event>
<event>
 7    1  0.5764931E-013  0.5052888E+02  0.7816164E-02  0.1300439E+00
        -11   -1    0    0    0    0  0.00000000000E+00  0.00000000000E+00  0.45593999997E+02  0.45594000000E+02  0.51100000000E-03 0. -1.
         11   -1    0    0    0    0 -0.00000000000E+00 -0.00000000000E+00 -0.45593999997E+02  0.45594000000E+02  0.51100000000E-03 0.  1.
    9900012    2    1    2    0    0  0.17890354573E+02 -0.63980568900E+01 -0.35946689935E+02  0.50528875120E+02  0.30000046414E+02 0.  0.
         12    1    1    2    0    0 -0.17890354573E+02  0.63980568900E+01  0.35946689935E+02  0.40659124880E+02  0.00000000000E+00 0. -1.
         11    1    3    3    0    0 -0.17168690020E+01 -0.14294910967E+01  0.14449154774E+00  0.22387411718E+01  0.51100000000E-03 0. -1.
        -11    1    3    3    0    0  0.20888165497E+02 -0.21028244080E+01 -0.38818533253E+02  0.44131800920E+02  0.51100000000E-03 0.  1.
        -12    1    3    3    0    0 -0.12809419225E+01 -0.28657413853E+01  0.27273517694E+01  0.41583330278E+01  0.00000000000E+00 0.  1.
</event>
<event>
 7    1  0.5764931E-013  0.5052884E+02  0.7816164E-02  0.1300439E+00
        -11   -1    0    0    0    0  0.00000000000E+00  0.00000000000E+00  0.45593999997E+02  0.45594000000E+02  0.51100000000E-03 0.  1.
         11   -1    0    0    0    0 -0.00000000000E+00 -0.00000000000E+00 -0.45593999997E+02  0.45594000000E+02  0.51100000000E-03 0. -1.
    9900012    2    1    2    0    0 -0.10288812145E+02 -0.25368298426E+02 -0.30062550211E+02  0.50528841799E+02  0.29999945132E+02 0.  0.
         12    1    1    2    0    0  0.10288812145E+02  0.25368298426E+02  0.30062550211E+02  0.40659158201E+02  0.00000000000E+00 0. -1.
         11    1    3    3    0    0  0.46197003370E+01 -0.32154792587E+01 -0.33639959340E+01  0.65572408048E+01  0.51100000000E-03 0. -1.
        -11    1    3    3    0    0 -0.14253878326E+02 -0.26645595896E+01 -0.64817120978E+01  0.15883498265E+02  0.51100000000E-03 0.  1.
        -12    1    3    3    0    0 -0.65463415645E+00 -0.19488259578E+02 -0.20216842180E+02  0.28088102730E+02  0.00000000000E+00 0.  1.
</event>
<event>
 7    1  0.5764931E-013  0.5052886E+02  0.7816164E-02  0.1300439E+00
        -11   -1    0    0    0    0  0.00000000000E+00  0.00000000000E+00  0.45593999997E+02  0.45594000000E+02  0.51100000000E-03 0.  1.
         11   -1    0    0    0    0 -0.00000000000E+00 -0.00000000000E+00 -0.45593999997E+02  0.45594000000E+02  0.51100000000E-03 0. -1.
    9900012    2    1    2    0    0 -0.30452971008E+02 -0.24463668176E+02  0.11283217526E+02  0.50528862016E+02  0.30000006584E+02 0.  0.
         12    1    1    2    0    0  0.30452971008E+02  0.24463668176E+02 -0.11283217526E+02  0.40659137984E+02  0.00000000000E+00 0. -1.
         11    1    3    3    0    0  0.18017036964E+01 -0.12536196274E+02 -0.33266018731E+01  0.13094603221E+02  0.51100000000E-03 0. -1.
        -11    1    3    3    0    0 -0.95300169820E+01 -0.24229997648E+01  0.42226209714E+01  0.10701526978E+02  0.51100000000E-03 0.  1.
         12    1    3    3    0    0 -0.22724657722E+02 -0.95044721372E+01  0.10387198428E+02  0.26732731817E+02  0.00000000000E+00 0. -1.
</event>
<event>
 7    1  0.5764931E-013  0.5052885E+02  0.7816164E-02  0.1300439E+00
        -11   -1    0    0    0    0  0.00000000000E+00  0.00000000000E+00  0.45593999997E+02  0.45594000000E+02  0.51100000000E-03 0.  1.
         11   -1    0    0    0    0 -0.00000000000E+00 -0.00000000000E+00 -0.45593999997E+02  0.45594000000E+02  0.51100000000E-03 0. -1.
    9900012    2    1    2    0    0  0.15254386591E+02 -0.29443485404E+02  0.23527663375E+02  0.50528854819E+02  0.29999984708E+02 0.  0.
         12    1    1    2    0    0 -0.15254386591E+02  0.29443485404E+02 -0.23527663375E+02  0.40659145181E+02  0.00000000000E+00 0. -1.
         11    1    3    3    0    0 -0.37021274046E+00 -0.16345331361E+01 -0.48624051380E+01  0.51431255121E+01  0.51100000000E-03 0. -1.
        -11    1    3    3    0    0  0.16907107609E+02 -0.24321318183E+02  0.18754959533E+02  0.35058883514E+02  0.51100000000E-03 0.  1.
         12    1    3    3    0    0 -0.12825082780E+01 -0.34876340846E+01  0.96351089792E+01  0.10326845793E+02  0.00000000000E+00 0. -1.
</event>
<event>
 7    1  0.5764931E-013  0.5052884E+02  0.7816164E-02  0.1300439E+00
        -11   -1    0    0    0    0  0.00000000000E+00  0.00000000000E+00  0.45593999997E+02  0.45594000000E+02  0.51100000000E-03 0.  1.
         11   -1    0    0    0    0 -0.00000000000E+00 -0.00000000000E+00 -0.45593999997E+02  0.45594000000E+02  0.51100000000E-03 0. -1.
    9900012    2    1    2    0    0  0.29774588239E+02  0.21766001659E+02  0.17113815103E+02  0.50528836206E+02  0.29999928132E+02 0.  0.
         12    1    1    2    0    0 -0.29774588239E+02 -0.21766001659E+02 -0.17113815103E+02  0.40659163794E+02  0.00000000000E+00 0. -1.
         11    1    3    3    0    0  0.13860794194E+02  0.12815147357E+02  0.14567803552E+00  0.18877786942E+02  0.51100000000E-03 0. -1.
        -11    1    3    3    0    0 -0.41336738032E+01 -0.73681684115E+00  0.11977909571E+01  0.43663327412E+01  0.51100000000E-03 0.  1.
        -12    1    3    3    0    0  0.20047467848E+02  0.96876711432E+01  0.15770346111E+02  0.27284716523E+02  0.00000000000E+00 0.  1.
</event>
<event>
 7    1  0.5764931E-013  0.5052886E+02  0.7816164E-02  0.1300439E+00
        -11   -1    0    0    0    0  0.00000000000E+00  0.00000000000E+00  0.45593999997E+02  0.45594000000E+02  0.51100000000E-03 0.  1.
         11   -1    0    0    0    0 -0.00000000000E+00 -0.00000000000E+00 -0.45593999997E+02  0.45594000000E+02  0.51100000000E-03 0. -1.
    9900012    2    1    2    0    0  0.57556699304E+01  0.16925724711E+02  0.36517905626E+02  0.50528864192E+02  0.30000013198E+02 0.  0.
         12    1    1    2    0    0 -0.57556699304E+01 -0.16925724711E+02 -0.36517905626E+02  0.40659135808E+02  0.00000000000E+00 0. -1.
         11    1    3    3    0    0 -0.32314398597E+01  0.86349611074E+01  0.12634371561E+02  0.15640719354E+02  0.51100000000E-03 0. -1.
        -11    1    3    3    0    0  0.67954905805E+01 -0.70806167651E+01  0.78346442477E+01  0.12557685963E+02  0.51100000000E-03 0.  1.
        -12    1    3    3    0    0  0.21916192097E+01  0.15371380369E+02  0.16048889817E+02  0.22330458875E+02  0.00000000000E+00 0.  1.
</event>
<event>
 7    1  0.5764931E-013  0.5052886E+02  0.7816164E-02  0.1300439E+00
        -11   -1    0    0    0    0  0.00000000000E+00  0.00000000000E+00  0.45593999997E+02  0.45594000000E+02  0.51100000000E-03 0.  1.
         11   -1    0    0    0    0 -0.00000000000E+00 -0.00000000000E+00 -0.45593999997E+02  0.45594000000E+02  0.51100000000E-03 0. -1.
    9900012    2    1    2    0    0  0.15237857614E+02 -0.37056938016E+02 -0.69106305882E+01  0.50528858655E+02  0.29999996369E+02 0.  0.
         12    1    1    2    0    0 -0.15237857614E+02  0.37056938016E+02  0.69106305882E+01  0.40659141345E+02  0.00000000000E+00 0. -1.
         11    1    3    3    0    0  0.39650409071E+01 -0.64117418577E+01  0.70413444655E+01  0.10315644196E+02  0.51100000000E-03 0. -1.
        -11    1    3    3    0    0  0.12017834247E+02 -0.11389270764E+02 -0.12764426806E+02  0.20906324892E+02  0.51100000000E-03 0.  1.
        -12    1    3    3    0    0 -0.74501754052E+00 -0.19255925394E+02 -0.11875482475E+01  0.19306889567E+02  0.00000000000E+00 0.  1.
</event>
<event>
 7    1  0.5764931E-013  0.5052886E+02  0.7816164E-02  0.1300439E+00
        -11   -1    0    0    0    0  0.00000000000E+00  0.00000000000E+00  0.45593999997E+02  0.45594000000E+02  0.51100000000E-03 0.  1.
         11   -1    0    0    0    0 -0.00000000000E+00 -0.00000000000E+00 -0.45593999997E+02  0.45594000000E+02  0.51100000000E-03 0. -1.
    9900012    2    1    2    0    0  0.20676671826E+02 -0.29301231870E+02  0.19159291106E+02  0.50528863480E+02  0.30000011033E+02 0.  0.
         12    1    1    2    0    0 -0.20676671826E+02  0.29301231870E+02 -0.19159291106E+02  0.40659136520E+02  0.00000000000E+00 0. -1.
         11    1    3    3    0    0  0.32974864683E+01 -0.91218493503E+01  0.13778481455E+02  0.16850166291E+02  0.51100000000E-03 0. -1.
        -11    1    3    3    0    0 -0.16585479045E+01 -0.28454843122E+01 -0.49425208217E+01  0.59393665030E+01  0.51100000000E-03 0.  1.
        -12    1    3    3    0    0  0.19037733262E+02 -0.17333898208E+02  0.10323330472E+02  0.27739330685E+02  0.00000000000E+00 0.  1.
</event>
<event>
 7    1  0.5764931E-013  0.5052886E+02  0.7816164E-02  0.1300439E+00
        -11   -1    0    0    0    0  0.00000000000E+00  0.00000000000E+00  0.45593999997E+02  0.45594000000E+02  0.51100000000E-03 0. -1.
         11   -1    0    0    0    0 -0.00000000000E+00 -0.00000000000E+00 -0.45593999997E+02  0.45594000000E+02  0.51100000000E-03 0.  1.
    9900012    2    1    2    0    0  0.38987553463E+02 -0.67428268809E+01 -0.93632810406E+01  0.50528855011E+02  0.29999985292E+02 0.  0.
         12    1    1    2    0    0 -0.38987553463E+02  0.67428268809E+01  0.93632810406E+01  0.40659144989E+02  0.00000000000E+00 0. -1.
         11    1    3    3    0    0  0.22030897647E+02  0.85735600875E+01 -0.12657164285E+02  0.26815484178E+02  0.51100000000E-03 0. -1.
        -11    1    3    3    0    0  0.53272668702E+01 -0.65888835246E+01 -0.10511050074E+01  0.85380314127E+01  0.51100000000E-03 0.  1.
         12    1    3    3    0    0  0.11629388946E+02 -0.87275034438E+01  0.43449882518E+01  0.15175339421E+02  0.00000000000E+00 0. -1.
</event>
<event>
 7    1  0.5764931E-013  0.5052886E+02  0.7816164E-02  0.1300439E+00
        -11   -1    0    0    0    0  0.00000000000E+00  0.00000000000E+00  0.45593999997E+02  0.45594000000E+02  0.51100000000E-03 0. -1.
         11   -1    0    0    0    0 -0.00000000000E+00 -0.00000000000E+00 -0.45593999997E+02  0.45594000000E+02  0.51100000000E-03 0.  1.
    9900012    2    1    2    0    0 -0.17495259393E+01  0.70640014267E+01 -0.40002556981E+02  0.50528861763E+02  0.30000005815E+02 0.  0.
         12    1    1    2    0    0  0.17495259393E+01 -0.70640014267E+01  0.40002556981E+02  0.40659138237E+02  0.00000000000E+00 0. -1.
         11    1    3    3    0    0 -0.35557944357E+01  0.89457725574E+01 -0.83586985676E+01  0.12749053405E+02  0.51100000000E-03 0. -1.
        -11    1    3    3    0    0 -0.19925624432E+01 -0.97849597384E+01 -0.87970901402E+01  0.13308062871E+02  0.51100000000E-03 0.  1.
        -12    1    3    3    0    0  0.37988309396E+01  0.79031886076E+01 -0.22846768273E+02  0.24471745487E+02  0.00000000000E+00 0.  1.
</event>
<event>
 7    1  0.5764931E-013  0.5052887E+02  0.7816164E-02  0.1300439E+00
        -11   -1    0    0    0    0  0.00000000000E+00  0.00000000000E+00  0.45593999997E+02  0.45594000000E+02  0.51100000000E-03 0.  1.
         11   -1    0    0    0    0 -0.00000000000E+00 -0.00000000000E+00 -0.45593999997E+02  0.45594000000E+02  0.51100000000E-03 0. -1.
    9900012    2    1    2    0    0 -0.15944606810E+02  0.88259167270E+01  0.36346078596E+02  0.50528871607E+02  0.30000035737E+02 0.  0.
         12    1    1    2    0    0  0.15944606810E+02 -0.88259167270E+01 -0.36346078596E+02  0.40659128393E+02  0.00000000000E+00 0. -1.
         11    1    3    3    0    0 -0.14726786319E+00 -0.34918654932E+01 -0.22030940246E+01  0.41313963728E+01  0.51100000000E-03 0. -1.
        -11    1    3    3    0    0 -0.11578850551E+02  0.14845906682E+02  0.36499806804E+02  0.41069533991E+02  0.51100000000E-03 0.  1.
        -12    1    3    3    0    0 -0.42184883956E+01 -0.25281244619E+01  0.20493658166E+01  0.53279412430E+01  0.00000000000E+00 0.  1.
</event>
<event>
 7    1  0.5764931E-013  0.5052886E+02  0.7816164E-02  0.1300439E+00
        -11   -1    0    0    0    0  0.00000000000E+00  0.00000000000E+00  0.45593999997E+02  0.45594000000E+02  0.51100000000E-03 0.  1.
         11   -1    0    0    0    0 -0.00000000000E+00 -0.00000000000E+00 -0.45593999997E+02  0.45594000000E+02  0.51100000000E-03 0. -1.
    9900012    2    1    2    0    0  0.31384809837E+02  0.67478369503E+01  0.24952481008E+02  0.50528857111E+02  0.29999991674E+02 0.  0.
         12    1    1    2    0    0 -0.31384809837E+02 -0.67478369503E+01 -0.24952481008E+02  0.40659142889E+02  0.00000000000E+00 0. -1.
         11    1    3    3    0    0 -0.21225298655E+01  0.26256925751E-01 -0.11209221478E+01  0.24004768648E+01  0.51100000000E-03 0. -1.
        -11    1    3    3    0    0  0.36546787780E+02  0.53223362334E+01  0.22564998871E+02  0.43280181773E+02  0.51100000000E-03 0.  1.
        -12    1    3    3    0    0 -0.30394480777E+01  0.13992437911E+01  0.35084042849E+01  0.48481984726E+01  0.00000000000E+00 0.  1.
</event>
<event>
 7    1  0.5764931E-013  0.5052886E+02  0.7816164E-02  0.1300439E+00
        -11   -1    0    0    0    0  0.00000000000E+00  0.00000000000E+00  0.45593999997E+02  0.45594000000E+02  0.51100000000E-03 0.  1.
         11   -1    0    0    0    0 -0.00000000000E+00 -0.00000000000E+00 -0.45593999997E+02  0.45594000000E+02  0.51100000000E-03 0. -1.
    9900012    2    1    2    0    0 -0.27468034636E+02  0.24215099247E+02  0.17672049520E+02  0.50528864587E+02  0.30000014397E+02 0.  0.
         12    1    1    2    0    0  0.27468034636E+02 -0.24215099247E+02 -0.17672049520E+02  0.40659135413E+02  0.00000000000E+00 0. -1.
         11    1    3    3    0    0 -0.14629459726E+02  0.13946340188E+02 -0.60823480868E+01  0.21107260719E+02  0.51100000000E-03 0. -1.
        -11    1    3    3    0    0 -0.46628166386E+01  0.11437048771E+01  0.93562566264E+01  0.10516152251E+02  0.51100000000E-03 0.  1.
         12    1    3    3    0    0 -0.81757582713E+01  0.91250541818E+01  0.14398140981E+02  0.18905451617E+02  0.00000000000E+00 0. -1.
</event>
<event>
 7    1  0.5764931E-013  0.5052886E+02  0.7816164E-02  0.1300439E+00
        -11   -1    0    0    0    0  0.00000000000E+00  0.00000000000E+00  0.45593999997E+02  0.45594000000E+02  0.51100000000E-03 0. -1.
         11   -1    0    0    0    0 -0.00000000000E+00 -0.00000000000E+00 -0.45593999997E+02  0.45594000000E+02  0.51100000000E-03 0.  1.
    9900012    2    1    2    0    0  0.33870867032E+02 -0.14877996065E+01 -0.22443629471E+02  0.50528859761E+02  0.29999999728E+02 0.  0.
         12    1    1    2    0    0 -0.33870867032E+02  0.14877996065E+01  0.22443629471E+02  0.40659140239E+02  0.00000000000E+00 0. -1.
         11    1    3    3    0    0  0.57456278801E+00 -0.39718594087E+01 -0.55188889668E+01  0.68237764653E+01  0.51100000000E-03 0. -1.
        -11    1    3    3    0    0  0.28033808979E+02  0.10979489849E+02 -0.10807903984E+02  0.31988348379E+02  0.51100000000E-03 0.  1.
        -12    1    3    3    0    0  0.52624952651E+01 -0.84954300467E+01 -0.61168365200E+01  0.11716734917E+02  0.00000000000E+00 0.  1.
</event>
<event>
 7    1  0.5764931E-013  0.5052885E+02  0.7816164E-02  0.1300439E+00
        -11   -1    0    0    0    0  0.00000000000E+00  0.00000000000E+00  0.45593999997E+02  0.45594000000E+02  0.51100000000E-03 0. -1.
         11   -1    0    0    0    0 -0.00000000000E+00 -0.00000000000E+00 -0.45593999997E+02  0.45594000000E+02  0.51100000000E-03 0.  1.
    9900012    2    1    2    0    0  0.33721363348E+02  0.86224219786E+01 -0.21016418024E+02  0.50528851788E+02  0.29999975494E+02 0.  0.
         12    1    1    2    0    0 -0.33721363348E+02 -0.86224219786E+01  0.21016418024E+02  0.40659148212E+02  0.00000000000E+00 0. -1.
         11    1    3    3    0    0  0.10116021885E+01  0.38602363512E-01  0.78046281368E+00  0.12782611607E+01  0.51100000000E-03 0. -1.
        -11    1    3    3    0    0  0.14907908069E+02  0.15851957084E+02 -0.23246593485E+01  0.21884567799E+02  0.51100000000E-03 0.  1.
        -12    1    3    3    0    0  0.17801853090E+02 -0.72681374693E+01 -0.19472221489E+02  0.27366022828E+02  0.00000000000E+00 0.  1.
</event>
<event>
 7    1  0.5764931E-013  0.5052886E+02  0.7816164E-02  0.1300439E+00
        -11   -1    0    0    0    0  0.00000000000E+00  0.00000000000E+00  0.45593999997E+02  0.45594000000E+02  0.51100000000E-03 0. -1.
         11   -1    0    0    0    0 -0.00000000000E+00 -0.00000000000E+00 -0.45593999997E+02  0.45594000000E+02  0.51100000000E-03 0.  1.
    9900012    2    1    2    0    0  0.24369844804E+02  0.17573386679E+02 -0.27394390236E+02  0.50528857466E+02  0.29999992755E+02 0.  0.
         12    1    1    2    0    0 -0.24369844804E+02 -0.17573386679E+02  0.27394390236E+02  0.40659142534E+02  0.00000000000E+00 0. -1.
         11    1    3    3    0    0  0.39020461511E+01 -0.17194787930E+01  0.18467056741E+01  0.46468154249E+01  0.51100000000E-03 0. -1.
        -11    1    3    3    0    0  0.36974662590E+01  0.14062118457E+02 -0.23055904934E+02  0.27257827955E+02  0.51100000000E-03 0.  1.
        -12    1    3    3    0    0  0.16770332394E+02  0.52307470153E+01 -0.61851909768E+01  0.18624214087E+02  0.00000000000E+00 0.  1.
</event>
<event>
 7    1  0.5764931E-013  0.5052886E+02  0.7816164E-02  0.1300439E+00
        -11   -1    0    0    0    0  0.00000000000E+00  0.00000000000E+00  0.45593999997E+02  0.45594000000E+02  0.51100000000E-03 0. -1.
         11   -1    0    0    0    0 -0.00000000000E+00 -0.00000000000E+00 -0.45593999997E+02  0.45594000000E+02  0.51100000000E-03 0.  1.
    9900012    2    1    2    0    0  0.78900413002E+01 -0.39336589049E+02 -0.65989131570E+01  0.50528860258E+02  0.30000001240E+02 0.  0.
         12    1    1    2    0    0 -0.78900413002E+01  0.39336589049E+02  0.65989131570E+01  0.40659139742E+02  0.00000000000E+00 0. -1.
         11    1    3    3    0    0  0.14138890330E+02 -0.15531819356E+02  0.46533113330E+01  0.21512762233E+02  0.51100000000E-03 0. -1.
        -11    1    3    3    0    0  0.25251535584E+01 -0.10389417772E+02 -0.51038251161E+01  0.11847591874E+02  0.51100000000E-03 0.  1.
         12    1    3    3    0    0 -0.87740025885E+01 -0.13415351921E+02 -0.61483993739E+01  0.17168506151E+02  0.00000000000E+00 0. -1.
</event>
<event>
 7    1  0.5764931E-013  0.5052886E+02  0.7816164E-02  0.1300439E+00
        -11   -1    0    0    0    0  0.00000000000E+00  0.00000000000E+00  0.45593999997E+02  0.45594000000E+02  0.51100000000E-03 0. -1.
         11   -1    0    0    0    0 -0.00000000000E+00 -0.00000000000E+00 -0.45593999997E+02  0.45594000000E+02  0.51100000000E-03 0.  1.
    9900012    2    1    2    0    0 -0.36389865149E+02  0.81231475135E+01  0.16215975754E+02  0.50528859813E+02  0.29999999886E+02 0.  0.
         12    1    1    2    0    0  0.36389865149E+02 -0.81231475135E+01 -0.16215975754E+02  0.40659140187E+02  0.00000000000E+00 0. -1.
         11    1    3    3    0    0 -0.23847536526E+02 -0.84625931517E+01  0.99277059724E+01  0.27182344037E+02  0.51100000000E-03 0. -1.
        -11    1    3    3    0    0 -0.72852462202E+01  0.53789795036E+01  0.61870051868E+01  0.10967555171E+02  0.51100000000E-03 0.  1.
         12    1    3    3    0    0 -0.52570824032E+01  0.11206761162E+02  0.10126459521E+00  0.12378960604E+02  0.00000000000E+00 0. -1.
</event>
<event>
 7    1  0.5764931E-013  0.5052885E+02  0.7816164E-02  0.1300439E+00
        -11   -1    0    0    0    0  0.00000000000E+00  0.00000000000E+00  0.45593999997E+02  0.45594000000E+02  0.51100000000E-03 0. -1.
         11   -1    0    0    0    0 -0.00000000000E+00 -0.00000000000E+00 -0.45593999997E+02  0.45594000000E+02  0.51100000000E-03 0.  1.
    9900012    2    1    2    0    0 -0.21332288391E+02 -0.31321398473E+02 -0.14733282963E+02  0.50528853954E+02  0.29999982079E+02 0.  0.
         12    1    1    2    0    0  0.21332288391E+02  0.31321398473E+02  0.14733282963E+02  0.40659146046E+02  0.00000000000E+00 0. -1.
         11    1    3    3    0    0  0.47602749495E+01 -0.13544265265E+02  0.64889887614E-01  0.14356585601E+02  0.51100000000E-03 0. -1.
        -11    1    3    3    0    0 -0.21514240047E+02 -0.15790240083E+02 -0.15895465253E+02  0.31062196036E+02  0.51100000000E-03 0.  1.
        -12    1    3    3    0    0 -0.45783232936E+01 -0.19868931248E+01  0.10972924025E+01  0.51100723172E+01  0.00000000000E+00 0.  1.
</event>
<event>
 7    1  0.5764931E-013  0.5052885E+02  0.7816164E-02  0.1300439E+00
        -11   -1    0    0    0    0  0.00000000000E+00  0.00000000000E+00  0.45593999997E+02  0.45594000000E+02  0.51100000000E-03 0.  1.
         11   -1    0    0    0    0 -0.00000000000E+00 -0.00000000000E+00 -0.45593999997E+02  0.45594000000E+02  0.51100000000E-03 0. -1.
    9900012    2    1    2    0    0  0.32426037764E+02  0.49820873395E+01  0.24018682049E+02  0.50528853345E+02  0.29999980226E+02 0.  0.
         12    1    1    2    0    0 -0.32426037764E+02 -0.49820873395E+01 -0.24018682049E+02  0.40659146655E+02  0.00000000000E+00 0. -1.
         11    1    3    3    0    0 -0.32239642341E+01 -0.26117264498E+01  0.51289886717E+01  0.65970891677E+01  0.51100000000E-03 0. -1.
        -11    1    3    3    0    0  0.26738429350E+02  0.72925483002E+01  0.20995571791E+02  0.34769798675E+02  0.51100000000E-03 0.  1.
        -12    1    3    3    0    0  0.89115726489E+01  0.30126548919E+00 -0.21058784130E+01  0.91619655021E+01  0.00000000000E+00 0.  1.
</event>
<event>
 7    1  0.5764931E-013  0.5052886E+02  0.7816164E-02  0.1300439E+00
        -11   -1    0    0    0    0  0.00000000000E+00  0.00000000000E+00  0.45593999997E+02  0.45594000000E+02  0.51100000000E-03 0.  1.
         11   -1    0    0    0    0 -0.00000000000E+00 -0.00000000000E+00 -0.45593999997E+02  0.45594000000E+02  0.51100000000E-03 0. -1.
    9900012    2    1    2    0    0 -0.10939733128E+01 -0.14449890971E+02  0.37989068285E+02  0.50528862825E+02  0.30000009041E+02 0.  0.
         12    1    1    2    0    0  0.10939733128E+01  0.14449890971E+02 -0.37989068285E+02  0.40659137175E+02  0.00000000000E+00 0. -1.
         11    1    3    3    0    0 -0.11713879412E+01  0.73247426618E+01  0.16823216838E+02  0.18385990042E+02  0.51100000000E-03 0. -1.
        -11    1    3    3    0    0 -0.10298490654E+01 -0.28811880768E+00  0.53094469379E+01  0.54160713246E+01  0.51100000000E-03 0.  1.
         12    1    3    3    0    0  0.11072636937E+01 -0.21486514826E+02  0.15856404509E+02  0.26726801458E+02  0.00000000000E+00 0. -1.
</event>
<event>
 7    1  0.5764931E-013  0.5052887E+02  0.7816164E-02  0.1300439E+00
        -11   -1    0    0    0    0  0.00000000000E+00  0.00000000000E+00  0.45593999997E+02  0.45594000000E+02  0.51100000000E-03 0.  1.
         11   -1    0    0    0    0 -0.00000000000E+00 -0.00000000000E+00 -0.45593999997E+02  0.45594000000E+02  0.51100000000E-03 0. -1.
    9900012    2    1    2    0    0  0.32516857606E+02  0.22830857679E+02  0.86354445933E+01  0.50528868255E+02  0.30000025547E+02 0.  0.
         12    1    1    2    0    0 -0.32516857606E+02 -0.22830857679E+02 -0.86354445933E+01  0.40659131745E+02  0.00000000000E+00 0. -1.
         11    1    3    3    0    0  0.15785685113E+02  0.46536808957E+01 -0.51648891556E+01  0.17248787801E+02  0.51100000000E-03 0. -1.
        -11    1    3    3    0    0 -0.17970027297E+01  0.97333040565E+01  0.38891727992E+01  0.10634476573E+02  0.51100000000E-03 0.  1.
        -12    1    3    3    0    0  0.18528175223E+02  0.84438727273E+01  0.99111609498E+01  0.22645603880E+02  0.00000000000E+00 0.  1.
</event>
<event>
 7    1  0.5764931E-013  0.5052885E+02  0.7816164E-02  0.1300439E+00
        -11   -1    0    0    0    0  0.00000000000E+00  0.00000000000E+00  0.45593999997E+02  0.45594000000E+02  0.51100000000E-03 0. -1.
         11   -1    0    0    0    0 -0.00000000000E+00 -0.00000000000E+00 -0.45593999997E+02  0.45594000000E+02  0.51100000000E-03 0.  1.
    9900012    2    1    2    0    0 -0.91600361934E+00 -0.14100890503E+02 -0.38124689100E+02  0.50528854724E+02  0.29999984419E+02 0.  0.
         12    1    1    2    0    0  0.91600361934E+00  0.14100890503E+02  0.38124689100E+02  0.40659145276E+02  0.00000000000E+00 0. -1.
         11    1    3    3    0    0  0.74724007147E+01 -0.15212657770E+02 -0.38362610108E+02  0.41939856740E+02  0.51100000000E-03 0. -1.
        -11    1    3    3    0    0 -0.30307449312E+01  0.10569936962E+01 -0.17975281454E+00  0.32148035473E+01  0.51100000000E-03 0.  1.
         12    1    3    3    0    0 -0.53576594028E+01  0.54773570363E-01  0.41767382238E+00  0.53741944366E+01  0.00000000000E+00 0. -1.
</event>
<event>
 7    1  0.5764931E-013  0.5052886E+02  0.7816164E-02  0.1300439E+00
        -11   -1    0    0    0    0  0.00000000000E+00  0.00000000000E+00  0.45593999997E+02  0.45594000000E+02  0.51100000000E-03 0.  1.
         11   -1    0    0    0    0 -0.00000000000E+00 -0.00000000000E+00 -0.45593999997E+02  0.45594000000E+02  0.51100000000E-03 0. -1.
    9900012    2    1    2    0    0  0.30522448773E+02  0.18961108394E+02  0.19026878540E+02  0.50528860590E+02  0.30000002248E+02 0.  0.
         12    1    1    2    0    0 -0.30522448773E+02 -0.18961108394E+02 -0.19026878540E+02  0.40659139410E+02  0.00000000000E+00 0. -1.
         11    1    3    3    0    0  0.98861288626E+00  0.89666923647E+00 -0.74931745130E+00  0.15306364893E+01  0.51100000000E-03 0. -1.
        -11    1    3    3    0    0  0.23509496287E+02  0.76352134357E+01 -0.12684334918E+01  0.24750794405E+02  0.51100000000E-03 0.  1.
        -12    1    3    3    0    0  0.60243395993E+01  0.10429225721E+02  0.21044629483E+02  0.24247429695E+02  0.00000000000E+00 0.  1.
</event>
<event>
 7    1  0.5764931E-013  0.5052886E+02  0.7816164E-02  0.1300439E+00
        -11   -1    0    0    0    0  0.00000000000E+00  0.00000000000E+00  0.45593999997E+02  0.45594000000E+02  0.51100000000E-03 0. -1.
         11   -1    0    0    0    0 -0.00000000000E+00 -0.00000000000E+00 -0.45593999997E+02  0.45594000000E+02  0.51100000000E-03 0.  1.
    9900012    2    1    2    0    0  0.28232960356E+02  0.25722054085E+02  0.13944237020E+02  0.50528857573E+02  0.29999993080E+02 0.  0.
         12    1    1    2    0    0 -0.28232960356E+02 -0.25722054085E+02 -0.13944237020E+02  0.40659142427E+02  0.00000000000E+00 0. -1.
         11    1    3    3    0    0  0.23921414126E+02  0.17289369553E+02  0.13843597332E+02  0.32600637121E+02  0.51100000000E-03 0. -1.
        -11    1    3    3    0    0  0.17313933805E+01  0.12742479211E+02 -0.50033837879E+00  0.12869298281E+02  0.51100000000E-03 0.  1.
         12    1    3    3    0    0  0.25801528497E+01 -0.43097946795E+01  0.60097806708E+00  0.50589221722E+01  0.00000000000E+00 0. -1.
</event>
<event>
 7    1  0.5764931E-013  0.5052886E+02  0.7816164E-02  0.1300439E+00
        -11   -1    0    0    0    0  0.00000000000E+00  0.00000000000E+00  0.45593999997E+02  0.45594000000E+02  0.51100000000E-03 0.  1.
         11   -1    0    0    0    0 -0.00000000000E+00 -0.00000000000E+00 -0.45593999997E+02  0.45594000000E+02  0.51100000000E-03 0. -1.
    9900012    2    1    2    0    0  0.28192520988E+02 -0.13236785587E+02  0.26136849440E+02  0.50528860425E+02  0.30000001748E+02 0.  0.
         12    1    1    2    0    0 -0.28192520988E+02  0.13236785587E+02 -0.26136849440E+02  0.40659139575E+02  0.00000000000E+00 0. -1.
         11    1    3    3    0    0  0.93234222172E+01 -0.42187714740E+01 -0.58039419133E+01  0.11764776946E+02  0.51100000000E-03 0. -1.
        -11    1    3    3    0    0  0.72846931512E+00  0.43659991090E-01  0.49560371861E+01  0.50094788740E+01  0.51100000000E-03 0.  1.
         12    1    3    3    0    0  0.18140629456E+02 -0.90616741044E+01  0.26984754167E+02  0.33754604605E+02  0.00000000000E+00 0. -1.
</event>
<event>
 7    1  0.5764931E-013  0.5052886E+02  0.7816164E-02  0.1300439E+00
        -11   -1    0    0    0    0  0.00000000000E+00  0.00000000000E+00  0.45593999997E+02  0.45594000000E+02  0.51100000000E-03 0.  1.
         11   -1    0    0    0    0 -0.00000000000E+00 -0.00000000000E+00 -0.45593999997E+02  0.45594000000E+02  0.51100000000E-03 0. -1.
    9900012    2    1    2    0    0 -0.29802989530E+02  0.18928658217E+02  0.20165648947E+02  0.50528859770E+02  0.29999999755E+02 0.  0.
         12    1    1    2    0    0  0.29802989530E+02 -0.18928658217E+02 -0.20165648947E+02  0.40659140230E+02  0.00000000000E+00 0. -1.
         11    1    3    3    0    0 -0.86099735080E-01  0.44390081044E+01  0.85881935778E+01  0.96679509363E+01  0.51100000000E-03 0.  1.
        -11    1    3    3    0    0 -0.32649597422E+02  0.15114599349E+02  0.94952655793E+01  0.37210313006E+02  0.51100000000E-03 0. -1.
         12    1    3    3    0    0  0.29327076269E+01 -0.62494923685E+00  0.20821897902E+01  0.36505958276E+01  0.00000000000E+00 0. -1.
</event>
<event>
 7    1  0.5764931E-013  0.5052890E+02  0.7816164E-02  0.1300439E+00
        -11   -1    0    0    0    0  0.00000000000E+00  0.00000000000E+00  0.45593999997E+02  0.45594000000E+02  0.51100000000E-03 0.  1.
         11   -1    0    0    0    0 -0.00000000000E+00 -0.00000000000E+00 -0.45593999997E+02  0.45594000000E+02  0.51100000000E-03 0. -1.
    9900012    2    1    2    0    0 -0.63998818349E+01  0.28400903923E+02  0.28382968328E+02  0.50528896194E+02  0.30000110472E+02 0.  0.
         12    1    1    2    0    0  0.63998818349E+01 -0.28400903923E+02 -0.28382968328E+02  0.40659103806E+02  0.00000000000E+00 0. -1.
         11    1    3    3    0    0  0.76528816211E+01  0.15397371694E+01  0.18987049783E+01  0.80338327411E+01  0.51100000000E-03 0. -1.
        -11    1    3    3    0    0 -0.13399687052E+02  0.21571407881E+02  0.27089254549E+02  0.37130916543E+02  0.51100000000E-03 0.  1.
         12    1    3    3    0    0 -0.65307640381E+00  0.52897588726E+01 -0.60499119903E+00  0.53641469099E+01  0.00000000000E+00 0. -1.
</event>
<event>
 7    1  0.5764931E-013  0.5052885E+02  0.7816164E-02  0.1300439E+00
        -11   -1    0    0    0    0  0.00000000000E+00  0.00000000000E+00  0.45593999997E+02  0.45594000000E+02  0.51100000000E-03 0.  1.
         11   -1    0    0    0    0 -0.00000000000E+00 -0.00000000000E+00 -0.45593999997E+02  0.45594000000E+02  0.51100000000E-03 0. -1.
    9900012    2    1    2    0    0 -0.20971531241E+02 -0.29291437543E+02 -0.18851335670E+02  0.50528852291E+02  0.29999977022E+02 0.  0.
         12    1    1    2    0    0  0.20971531241E+02  0.29291437543E+02  0.18851335670E+02  0.40659147709E+02  0.00000000000E+00 0. -1.
         11    1    3    3    0    0 -0.98319163677E+01 -0.93690808779E+01 -0.20200416558E+02  0.24341386266E+02  0.51100000000E-03 0. -1.
        -11    1    3    3    0    0 -0.11000835947E+02 -0.19656555715E+02 -0.21936469253E+01  0.22632071519E+02  0.51100000000E-03 0.  1.
         12    1    3    3    0    0 -0.13877892590E+00 -0.26580094999E+00  0.35427278136E+01  0.35553945064E+01  0.00000000000E+00 0. -1.
</event>
<event>
 7    1  0.5764931E-013  0.5052886E+02  0.7816164E-02  0.1300439E+00
        -11   -1    0    0    0    0  0.00000000000E+00  0.00000000000E+00  0.45593999997E+02  0.45594000000E+02  0.51100000000E-03 0.  1.
         11   -1    0    0    0    0 -0.00000000000E+00 -0.00000000000E+00 -0.45593999997E+02  0.45594000000E+02  0.51100000000E-03 0. -1.
    9900012    2    1    2    0    0  0.10278605055E+01 -0.30848519879E+02  0.26466544686E+02  0.50528860024E+02  0.30000000530E+02 0.  0.
         12    1    1    2    0    0 -0.10278605055E+01  0.30848519879E+02 -0.26466544686E+02  0.40659139976E+02  0.00000000000E+00 0. -1.
         11    1    3    3    0    0 -0.74059615730E+01 -0.15470274666E+02  0.25344229719E+02  0.30602412411E+02  0.51100000000E-03 0. -1.
        -11    1    3    3    0    0  0.75058868231E+01 -0.14871372868E+02  0.37664799924E+01  0.17078713059E+02  0.51100000000E-03 0.  1.
         12    1    3    3    0    0  0.92793525533E+00 -0.50687234543E+00 -0.26441650250E+01  0.28477345543E+01  0.00000000000E+00 0. -1.
</event>
<event>
 7    1  0.5764931E-013  0.5052879E+02  0.7816164E-02  0.1300439E+00
        -11   -1    0    0    0    0  0.00000000000E+00  0.00000000000E+00  0.45593999997E+02  0.45594000000E+02  0.51100000000E-03 0.  1.
         11   -1    0    0    0    0 -0.00000000000E+00 -0.00000000000E+00 -0.45593999997E+02  0.45594000000E+02  0.51100000000E-03 0. -1.
    9900012    2    1    2    0    0 -0.10937201346E+02  0.39054974743E+02  0.28736270124E+01  0.50528792462E+02  0.29999795165E+02 0.  0.
         12    1    1    2    0    0  0.10937201346E+02 -0.39054974743E+02 -0.28736270124E+01  0.40659207538E+02  0.00000000000E+00 0. -1.
         11    1    3    3    0    0 -0.31936090813E+01 -0.59640207053E+00 -0.60652513984E+01  0.68805602374E+01  0.51100000000E-03 0. -1.
        -11    1    3    3    0    0 -0.84950309501E+01  0.26489727720E+02  0.17716650017E+00  0.27819105193E+02  0.51100000000E-03 0.  1.
         12    1    3    3    0    0  0.75143868558E+00  0.13161649094E+02  0.87617119106E+01  0.15829127031E+02  0.00000000000E+00 0. -1.
</event>
<event>
 7    1  0.5764931E-013  0.5052890E+02  0.7816164E-02  0.1300439E+00
        -11   -1    0    0    0    0  0.00000000000E+00  0.00000000000E+00  0.45593999997E+02  0.45594000000E+02  0.51100000000E-03 0. -1.
         11   -1    0    0    0    0 -0.00000000000E+00 -0.00000000000E+00 -0.45593999997E+02  0.45594000000E+02  0.51100000000E-03 0.  1.
    9900012    2    1    2    0    0 -0.35205858118E+02  0.20324487072E+02 -0.79076420635E+00  0.50528898576E+02  0.30000117711E+02 0.  0.
         12    1    1    2    0    0  0.35205858118E+02 -0.20324487072E+02  0.79076420635E+00  0.40659101424E+02  0.00000000000E+00 0. -1.
         11    1    3    3    0    0 -0.13776148860E+02 -0.60370821717E+01 -0.40553850802E+01  0.15578022563E+02  0.51100000000E-03 0. -1.
        -11    1    3    3    0    0 -0.64802864936E+01  0.12436803709E+02  0.37448839928E+01  0.14515245637E+02  0.51100000000E-03 0.  1.
         12    1    3    3    0    0 -0.14949422765E+02  0.13924765534E+02 -0.48026311892E+00  0.20435630376E+02  0.00000000000E+00 0. -1.
</event>
<event>
 7    1  0.5764931E-013  0.5052886E+02  0.7816164E-02  0.1300439E+00
        -11   -1    0    0    0    0  0.00000000000E+00  0.00000000000E+00  0.45593999997E+02  0.45594000000E+02  0.51100000000E-03 0.  1.
         11   -1    0    0    0    0 -0.00000000000E+00 -0.00000000000E+00 -0.45593999997E+02  0.45594000000E+02  0.51100000000E-03 0. -1.
    9900012    2    1    2    0    0 -0.48895165952E+01  0.36226163542E+02 -0.17802350346E+02  0.50528856190E+02  0.29999988876E+02 0.  0.
         12    1    1    2    0    0  0.48895165952E+01 -0.36226163542E+02  0.17802350346E+02  0.40659143810E+02  0.00000000000E+00 0. -1.
         11    1    3    3    0    0 -0.41282664569E+01  0.22577359598E+02 -0.19397731412E+02  0.30050819199E+02  0.51100000000E-03 0. -1.
        -11    1    3    3    0    0  0.12749928575E+01  0.12746375206E+02  0.70246823224E+01  0.14609649197E+02  0.51100000000E-03 0.  1.
        -12    1    3    3    0    0 -0.20362429958E+01  0.90242873816E+00 -0.54293012570E+01  0.58683877943E+01  0.00000000000E+00 0.  1.
</event>
<event>
 7    1  0.5764931E-013  0.5052888E+02  0.7816164E-02  0.1300439E+00
        -11   -1    0    0    0    0  0.00000000000E+00  0.00000000000E+00  0.45593999997E+02  0.45594000000E+02  0.51100000000E-03 0. -1.
         11   -1    0    0    0    0 -0.00000000000E+00 -0.00000000000E+00 -0.45593999997E+02  0.45594000000E+02  0.51100000000E-03 0.  1.
    9900012    2    1    2    0    0  0.13695686125E+02  0.45882524956E+01 -0.38007101539E+02  0.50528884825E+02  0.30000075915E+02 0.  0.
         12    1    1    2    0    0 -0.13695686125E+02 -0.45882524956E+01  0.38007101539E+02  0.40659115175E+02  0.00000000000E+00 0. -1.
         11    1    3    3    0    0 -0.54594098410E+01 -0.50222647681E+01 -0.21154430291E+02  0.22417364261E+02  0.51100000000E-03 0. -1.
        -11    1    3    3    0    0  0.16368846414E+02  0.57012712696E+01 -0.15140569024E+02  0.23014787804E+02  0.51100000000E-03 0.  1.
        -12    1    3    3    0    0  0.27862495520E+01  0.39092459941E+01 -0.17121022236E+01  0.50967327606E+01  0.00000000000E+00 0.  1.
</event>
<event>
 7    1  0.5764931E-013  0.5052885E+02  0.7816164E-02  0.1300439E+00
        -11   -1    0    0    0    0  0.00000000000E+00  0.00000000000E+00  0.45593999997E+02  0.45594000000E+02  0.51100000000E-03 0. -1.
         11   -1    0    0    0    0 -0.00000000000E+00 -0.00000000000E+00 -0.45593999997E+02  0.45594000000E+02  0.51100000000E-03 0.  1.
    9900012    2    1    2    0    0 -0.87773952062E+01  0.38790347689E+02 -0.84517856731E+01  0.50528850703E+02  0.29999972198E+02 0.  0.
         12    1    1    2    0    0  0.87773952062E+01 -0.38790347689E+02  0.84517856731E+01  0.40659149297E+02  0.00000000000E+00 0. -1.
         11    1    3    3    0    0  0.89012293377E+01  0.12062625453E+02  0.31543769253E+01  0.15319559739E+02  0.51100000000E-03 0. -1.
        -11    1    3    3    0    0 -0.14257301423E+02  0.13720534930E+02 -0.72037043085E+01  0.21057470852E+02  0.51100000000E-03 0.  1.
         12    1    3    3    0    0 -0.34213231204E+01  0.13007187306E+02 -0.44024582899E+01  0.14151820112E+02  0.00000000000E+00 0. -1.
</event>
<event>
 7    1  0.5764931E-013  0.5052887E+02  0.7816164E-02  0.1300439E+00
        -11   -1    0    0    0    0  0.00000000000E+00  0.00000000000E+00  0.45593999997E+02  0.45594000000E+02  0.51100000000E-03 0.  1.
         11   -1    0    0    0    0 -0.00000000000E+00 -0.00000000000E+00 -0.45593999997E+02  0.45594000000E+02  0.51100000000E-03 0. -1.
    9900012    2    1    2    0    0  0.54916184233E+01  0.38381912108E+02  0.12240757922E+02  0.50528865670E+02  0.30000017691E+02 0.  0.
         12    1    1    2    0    0 -0.54916184233E+01 -0.38381912108E+02 -0.12240757922E+02  0.40659134330E+02  0.00000000000E+00 0. -1.
         11    1    3    3    0    0 -0.88490862364E+01  0.13664310867E+02  0.74077541654E+01  0.17885595901E+02  0.51100000000E-03 0. -1.
        -11    1    3    3    0    0  0.13204040676E+02  0.26816334679E+02  0.46381949936E+01  0.30248559450E+02  0.51100000000E-03 0.  1.
         12    1    3    3    0    0  0.11366639841E+01 -0.20987334381E+01  0.19480876338E+00  0.23947103189E+01  0.00000000000E+00 0. -1.
</event>
<event>
 7    1  0.5764931E-013  0.5052888E+02  0.7816164E-02  0.1300439E+00
        -11   -1    0    0    0    0  0.00000000000E+00  0.00000000000E+00  0.45593999997E+02  0.45594000000E+02  0.51100000000E-03 0. -1.
         11   -1    0    0    0    0 -0.00000000000E+00 -0.00000000000E+00 -0.45593999997E+02  0.45594000000E+02  0.51100000000E-03 0.  1.
    9900012    2    1    2    0    0  0.28349797029E+02 -0.56016031078E+01 -0.28602008261E+02  0.50528882627E+02  0.30000069233E+02 0.  0.
         12    1    1    2    0    0 -0.28349797029E+02  0.56016031078E+01  0.28602008261E+02  0.40659117373E+02  0.00000000000E+00 0. -1.
         11    1    3    3    0    0  0.84012650282E+01  0.10760780594E+02 -0.13146648706E+02  0.18952836873E+02  0.51100000000E-03 0. -1.
        -11    1    3    3    0    0  0.36999156653E+01 -0.78497273978E+01 -0.22237342628E+01  0.89583810191E+01  0.51100000000E-03 0.  1.
         12    1    3    3    0    0  0.16248616336E+02 -0.85126563044E+01 -0.13231625292E+02  0.22617664735E+02  0.00000000000E+00 0. -1.
</event>
<event>
 7    1  0.5764931E-013  0.5052885E+02  0.7816164E-02  0.1300439E+00
        -11   -1    0    0    0    0  0.00000000000E+00  0.00000000000E+00  0.45593999997E+02  0.45594000000E+02  0.51100000000E-03 0.  1.
         11   -1    0    0    0    0 -0.00000000000E+00 -0.00000000000E+00 -0.45593999997E+02  0.45594000000E+02  0.51100000000E-03 0. -1.
    9900012    2    1    2    0    0 -0.29860882164E+02 -0.19869652597E+02  0.19149182537E+02  0.50528848880E+02  0.29999966655E+02 0.  0.
         12    1    1    2    0    0  0.29860882164E+02  0.19869652597E+02 -0.19149182537E+02  0.40659151120E+02  0.00000000000E+00 0. -1.
         11    1    3    3    0    0 -0.73347318892E+01  0.34763008899E+01  0.10580653660E+02  0.13335411201E+02  0.51100000000E-03 0.  1.
        -11    1    3    3    0    0 -0.98983294488E+00 -0.10033693515E+02  0.60298369867E+01  0.11747923610E+02  0.51100000000E-03 0. -1.
         12    1    3    3    0    0 -0.21536317330E+02 -0.13312259973E+02  0.25386918911E+01  0.25445514069E+02  0.00000000000E+00 0. -1.
</event>
<event>
 7    1  0.5764931E-013  0.5052886E+02  0.7816164E-02  0.1300439E+00
        -11   -1    0    0    0    0  0.00000000000E+00  0.00000000000E+00  0.45593999997E+02  0.45594000000E+02  0.51100000000E-03 0.  1.
         11   -1    0    0    0    0 -0.00000000000E+00 -0.00000000000E+00 -0.45593999997E+02  0.45594000000E+02  0.51100000000E-03 0. -1.
    9900012    2    1    2    0    0  0.18962806780E+02 -0.20291048212E+02  0.29695974682E+02  0.50528860919E+02  0.30000003250E+02 0.  0.
         12    1    1    2    0    0 -0.18962806780E+02  0.20291048212E+02 -0.29695974682E+02  0.40659139081E+02  0.00000000000E+00 0. -1.
         11    1    3    3    0    0  0.10960457169E+02 -0.76102135167E+01 -0.12176738602E+01  0.13398869393E+02  0.51100000000E-03 0. -1.
        -11    1    3    3    0    0 -0.39895388205E+01 -0.38282929366E+01  0.10323329101E+02  0.11710822806E+02  0.51100000000E-03 0.  1.
        -12    1    3    3    0    0  0.11991888431E+02 -0.88525417584E+01  0.20590319441E+02  0.25419168720E+02  0.00000000000E+00 0.  1.
</event>
<event>
 7    1  0.5764931E-013  0.5052886E+02  0.7816164E-02  0.1300439E+00
        -11   -1    0    0    0    0  0.00000000000E+00  0.00000000000E+00  0.45593999997E+02  0.45594000000E+02  0.51100000000E-03 0.  1.
         11   -1    0    0    0    0 -0.00000000000E+00 -0.00000000000E+00 -0.45593999997E+02  0.45594000000E+02  0.51100000000E-03 0. -1.
    9900012    2    1    2    0    0  0.38873591669E+02 -0.44465833305E+01  0.11056095446E+02  0.50528862293E+02  0.30000007427E+02 0.  0.
         12    1    1    2    0    0 -0.38873591669E+02  0.44465833305E+01 -0.11056095446E+02  0.40659137707E+02  0.00000000000E+00 0. -1.
         11    1    3    3    0    0  0.84006603519E+01 -0.66820707866E+01 -0.21975573273E+01  0.10956752384E+02  0.51100000000E-03 0. -1.
        -11    1    3    3    0    0  0.26892802616E+02  0.81958005461E+01  0.46267417292E+01  0.28492116777E+02  0.51100000000E-03 0.  1.
        -12    1    3    3    0    0  0.35801287003E+01 -0.59603130901E+01  0.86269110439E+01  0.11079993132E+02  0.00000000000E+00 0.  1.
</event>
<event>
 7    1  0.5764931E-013  0.5052886E+02  0.7816164E-02  0.1300439E+00
        -11   -1    0    0    0    0  0.00000000000E+00  0.00000000000E+00  0.45593999997E+02  0.45594000000E+02  0.51100000000E-03 0.  1.
         11   -1    0    0    0    0 -0.00000000000E+00 -0.00000000000E+00 -0.45593999997E+02  0.45594000000E+02  0.51100000000E-03 0. -1.
    9900012    2    1    2    0    0  0.42230413865E+01 -0.17251337738E+02  0.36574889609E+02  0.50528864714E+02  0.30000014785E+02 0.  0.
         12    1    1    2    0    0 -0.42230413865E+01  0.17251337738E+02 -0.36574889609E+02  0.40659135286E+02  0.00000000000E+00 0. -1.
         11    1    3    3    0    0  0.51491006836E+01  0.78081929601E+01  0.77490956418E+01  0.12146176299E+02  0.51100000000E-03 0. -1.
        -11    1    3    3    0    0 -0.16588650502E+01 -0.20014523930E+02  0.24630758366E+02  0.31780611375E+02  0.51100000000E-03 0.  1.
         12    1    3    3    0    0  0.73280575304E+00 -0.50450067679E+01  0.41950356006E+01  0.66020770406E+01  0.00000000000E+00 0. -1.
</event>
<event>
 7    1  0.5764931E-013  0.5052886E+02  0.7816164E-02  0.1300439E+00
        -11   -1    0    0    0    0  0.00000000000E+00  0.00000000000E+00  0.45593999997E+02  0.45594000000E+02  0.51100000000E-03 0.  1.
         11   -1    0    0    0    0 -0.00000000000E+00 -0.00000000000E+00 -0.45593999997E+02  0.45594000000E+02  0.51100000000E-03 0. -1.
    9900012    2    1    2    0    0 -0.15542740557E+02  0.77171033993E+01  0.36770029211E+02  0.50528861826E+02  0.30000006005E+02 0.  0.
         12    1    1    2    0    0  0.15542740557E+02 -0.77171033993E+01 -0.36770029211E+02  0.40659138174E+02  0.00000000000E+00 0. -1.
         11    1    3    3    0    0 -0.13685435422E+02  0.65316830306E+01  0.72492924245E+01  0.16807922740E+02  0.51100000000E-03 0. -1.
        -11    1    3    3    0    0  0.38446312062E+01  0.69963464471E+01  0.12163158078E+02  0.14548967915E+02  0.51100000000E-03 0.  1.
         12    1    3    3    0    0 -0.57019363409E+01 -0.58109260784E+01  0.17357578709E+02  0.19171971170E+02  0.00000000000E+00 0. -1.
</event>
<event>
 7    1  0.5764931E-013  0.5052887E+02  0.7816164E-02  0.1300439E+00
        -11   -1    0    0    0    0  0.00000000000E+00  0.00000000000E+00  0.45593999997E+02  0.45594000000E+02  0.51100000000E-03 0. -1.
         11   -1    0    0    0    0 -0.00000000000E+00 -0.00000000000E+00 -0.45593999997E+02  0.45594000000E+02  0.51100000000E-03 0.  1.
    9900012    2    1    2    0    0 -0.25935477831E+02 -0.28999730857E+02  0.11812344021E+02  0.50528869766E+02  0.30000030140E+02 0.  0.
         12    1    1    2    0    0  0.25935477831E+02  0.28999730857E+02 -0.11812344021E+02  0.40659130234E+02  0.00000000000E+00 0. -1.
         11    1    3    3    0    0 -0.15816219584E+02 -0.67963093396E+00  0.11737505335E+02  0.19707453714E+02  0.51100000000E-03 0. -1.
        -11    1    3    3    0    0 -0.11038519482E+02 -0.25035915972E+02 -0.48313544154E+00  0.27365661349E+02  0.51100000000E-03 0.  1.
         12    1    3    3    0    0  0.91926123445E+00 -0.32841839508E+01  0.55797412741E+00  0.34557547029E+01  0.00000000000E+00 0. -1.
</event>
<event>
 7    1  0.5764931E-013  0.5052887E+02  0.7816164E-02  0.1300439E+00
        -11   -1    0    0    0    0  0.00000000000E+00  0.00000000000E+00  0.45593999997E+02  0.45594000000E+02  0.51100000000E-03 0.  1.
         11   -1    0    0    0    0 -0.00000000000E+00 -0.00000000000E+00 -0.45593999997E+02  0.45594000000E+02  0.51100000000E-03 0. -1.
    9900012    2    1    2    0    0 -0.34296080452E+02  0.20289642356E+02  0.80792401748E+01  0.50528870114E+02  0.30000031198E+02 0.  0.
         12    1    1    2    0    0  0.34296080452E+02 -0.20289642356E+02 -0.80792401748E+01  0.40659129886E+02  0.00000000000E+00 0. -1.
         11    1    3    3    0    0 -0.18952709837E+02  0.11594137804E+02 -0.17084731826E+01  0.22283359766E+02  0.51100000000E-03 0. -1.
        -11    1    3    3    0    0 -0.13210467974E+02  0.93865969448E+01  0.15304711967E+02  0.22290331423E+02  0.51100000000E-03 0.  1.
         12    1    3    3    0    0 -0.21329026404E+01 -0.69109239252E+00 -0.55169986096E+01  0.59551789248E+01  0.00000000000E+00 0. -1.
</event>
<event>
 7    1  0.5764931E-013  0.5052886E+02  0.7816164E-02  0.1300439E+00
        -11   -1    0    0    0    0  0.00000000000E+00  0.00000000000E+00  0.45593999997E+02  0.45594000000E+02  0.51100000000E-03 0. -1.
         11   -1    0    0    0    0 -0.00000000000E+00 -0.00000000000E+00 -0.45593999997E+02  0.45594000000E+02  0.51100000000E-03 0.  1.
    9900012    2    1    2    0    0 -0.16133311151E+02 -0.18071845493E+02 -0.32654106171E+02  0.50528856157E+02  0.29999988775E+02 0.  0.
         12    1    1    2    0    0  0.16133311151E+02  0.18071845493E+02  0.32654106171E+02  0.40659143843E+02  0.00000000000E+00 0. -1.
         11    1    3    3    0    0  0.12450816628E+01  0.93640243806E+00  0.21156452128E+01  0.26273623276E+01  0.51100000000E-03 0. -1.
        -11    1    3    3    0    0 -0.15984074512E+02 -0.16610401471E+02 -0.37494039255E+02  0.44013623516E+02  0.51100000000E-03 0.  1.
        -12    1    3    3    0    0 -0.13943183017E+01 -0.23978464598E+01  0.27242878712E+01  0.38878703137E+01  0.00000000000E+00 0.  1.
</event>
<event>
 7    1  0.5764931E-013  0.5052885E+02  0.7816164E-02  0.1300439E+00
        -11   -1    0    0    0    0  0.00000000000E+00  0.00000000000E+00  0.45593999997E+02  0.45594000000E+02  0.51100000000E-03 0.  1.
         11   -1    0    0    0    0 -0.00000000000E+00 -0.00000000000E+00 -0.45593999997E+02  0.45594000000E+02  0.51100000000E-03 0. -1.
    9900012    2    1    2    0    0 -0.28867919646E+00 -0.86032612222E+01  0.39737479036E+02  0.50528847531E+02  0.29999962557E+02 0.  0.
         12    1    1    2    0    0  0.28867919646E+00  0.86032612222E+01 -0.39737479036E+02  0.40659152469E+02  0.00000000000E+00 0. -1.
         11    1    3    3    0    0 -0.40084196184E+01 -0.48157863757E+01  0.21678612038E+02  0.22565935531E+02  0.51100000000E-03 0. -1.
        -11    1    3    3    0    0 -0.60462380369E+01 -0.10742568897E+01 -0.11464390195E+01  0.62470268889E+01  0.51100000000E-03 0.  1.
        -12    1    3    3    0    0  0.97659784588E+01 -0.27132179569E+01  0.19205306018E+02  0.21715885111E+02  0.00000000000E+00 0.  1.
</event>
<event>
 7    1  0.5764931E-013  0.5052888E+02  0.7816164E-02  0.1300439E+00
        -11   -1    0    0    0    0  0.00000000000E+00  0.00000000000E+00  0.45593999997E+02  0.45594000000E+02  0.51100000000E-03 0. -1.
         11   -1    0    0    0    0 -0.00000000000E+00 -0.00000000000E+00 -0.45593999997E+02  0.45594000000E+02  0.51100000000E-03 0.  1.
    9900012    2    1    2    0    0  0.70002074441E+01  0.22033051390E+02 -0.33447057335E+02  0.50528881685E+02  0.30000066370E+02 0.  0.
         12    1    1    2    0    0 -0.70002074441E+01 -0.22033051390E+02  0.33447057335E+02  0.40659118315E+02  0.00000000000E+00 0. -1.
         11    1    3    3    0    0 -0.52598523790E+01  0.60616068302E+01 -0.12285525306E+01  0.81190187827E+01  0.51100000000E-03 0. -1.
        -11    1    3    3    0    0  0.59952631784E+01  0.13003104298E+02 -0.32455155929E+02  0.35473385074E+02  0.51100000000E-03 0.  1.
        -12    1    3    3    0    0  0.62647966446E+01  0.29683402613E+01  0.23665112542E+00  0.69364778282E+01  0.00000000000E+00 0.  1.
</event>
<event>
 7    1  0.5764931E-013  0.5052886E+02  0.7816164E-02  0.1300439E+00
        -11   -1    0    0    0    0  0.00000000000E+00  0.00000000000E+00  0.45593999997E+02  0.45594000000E+02  0.51100000000E-03 0.  1.
         11   -1    0    0    0    0 -0.00000000000E+00 -0.00000000000E+00 -0.45593999997E+02  0.45594000000E+02  0.51100000000E-03 0. -1.
    9900012    2    1    2    0    0 -0.15108036571E+02 -0.37006311479E+02  0.74461969942E+01  0.50528859478E+02  0.29999998870E+02 0.  0.
         12    1    1    2    0    0  0.15108036571E+02  0.37006311479E+02 -0.74461969942E+01  0.40659140522E+02  0.00000000000E+00 0. -1.
         11    1    3    3    0    0 -0.15323240917E+01 -0.39918205777E+01 -0.80006637849E+01  0.90715638071E+01  0.51100000000E-03 0. -1.
        -11    1    3    3    0    0 -0.16441918079E+02 -0.25423159579E+02  0.13262635357E+02  0.33054064954E+02  0.51100000000E-03 0.  1.
        -12    1    3    3    0    0  0.28662056005E+01 -0.75913313223E+01  0.21842254217E+01  0.84032307170E+01  0.00000000000E+00 0.  1.
</event>
<event>
 7    1  0.5764931E-013  0.5052886E+02  0.7816164E-02  0.1300439E+00
        -11   -1    0    0    0    0  0.00000000000E+00  0.00000000000E+00  0.45593999997E+02  0.45594000000E+02  0.51100000000E-03 0.  1.
         11   -1    0    0    0    0 -0.00000000000E+00 -0.00000000000E+00 -0.45593999997E+02  0.45594000000E+02  0.51100000000E-03 0. -1.
    9900012    2    1    2    0    0 -0.10551408261E+01  0.18872622839E+02  0.35998281587E+02  0.50528862132E+02  0.30000006936E+02 0.  0.
         12    1    1    2    0    0  0.10551408261E+01 -0.18872622839E+02 -0.35998281587E+02  0.40659137868E+02  0.00000000000E+00 0. -1.
         11    1    3    3    0    0  0.67815200544E+00  0.19655749995E+01 -0.34146630914E+01  0.39979118937E+01  0.51100000000E-03 0. -1.
        -11    1    3    3    0    0 -0.89468019375E+01  0.64323622621E+01  0.24928231300E+02  0.27255041097E+02  0.51100000000E-03 0.  1.
        -12    1    3    3    0    0  0.72135091060E+01  0.10474685577E+02  0.14484713378E+02  0.19275909141E+02  0.00000000000E+00 0.  1.
</event>
<event>
 7    1  0.5764931E-013  0.5052885E+02  0.7816164E-02  0.1300439E+00
        -11   -1    0    0    0    0  0.00000000000E+00  0.00000000000E+00  0.45593999997E+02  0.45594000000E+02  0.51100000000E-03 0.  1.
         11   -1    0    0    0    0 -0.00000000000E+00 -0.00000000000E+00 -0.45593999997E+02  0.45594000000E+02  0.51100000000E-03 0. -1.
    9900012    2    1    2    0    0 -0.32020259854E+02  0.24319278686E+02 -0.60367041327E+01  0.50528853997E+02  0.29999982209E+02 0.  0.
         12    1    1    2    0    0  0.32020259854E+02 -0.24319278686E+02  0.60367041327E+01  0.40659146003E+02  0.00000000000E+00 0. -1.
         11    1    3    3    0    0 -0.30474546457E+02  0.96869367530E+01 -0.19345359178E+00  0.31977682060E+02  0.51100000000E-03 0.  1.
        -11    1    3    3    0    0 -0.21985372911E+01  0.11330012020E+02 -0.84413460095E+01  0.14298918187E+02  0.51100000000E-03 0. -1.
        -12    1    3    3    0    0  0.65282389420E+00  0.33023299126E+01  0.25980954685E+01  0.42522537497E+01  0.00000000000E+00 0.  1.
</event>
<event>
 7    1  0.5764931E-013  0.5052886E+02  0.7816164E-02  0.1300439E+00
        -11   -1    0    0    0    0  0.00000000000E+00  0.00000000000E+00  0.45593999997E+02  0.45594000000E+02  0.51100000000E-03 0.  1.
         11   -1    0    0    0    0 -0.00000000000E+00 -0.00000000000E+00 -0.45593999997E+02  0.45594000000E+02  0.51100000000E-03 0. -1.
    9900012    2    1    2    0    0 -0.89238323162E+00  0.37422825978E+02 -0.15871404683E+02  0.50528859102E+02  0.29999997725E+02 0.  0.
         12    1    1    2    0    0  0.89238323162E+00 -0.37422825978E+02  0.15871404683E+02  0.40659140898E+02  0.00000000000E+00 0. -1.
         11    1    3    3    0    0 -0.52956104430E+01  0.42238487930E+01  0.35847455279E+01  0.76638625608E+01  0.51100000000E-03 0. -1.
        -11    1    3    3    0    0  0.28862816536E+01  0.34726091672E+02 -0.15041685487E+02  0.37953713482E+02  0.51100000000E-03 0.  1.
        -12    1    3    3    0    0  0.15169455577E+01 -0.15271144869E+01 -0.44144647238E+01  0.49112830583E+01  0.00000000000E+00 0.  1.
</event>
<event>
 7    1  0.5764931E-013  0.5052886E+02  0.7816164E-02  0.1300439E+00
        -11   -1    0    0    0    0  0.00000000000E+00  0.00000000000E+00  0.45593999997E+02  0.45594000000E+02  0.51100000000E-03 0. -1.
         11   -1    0    0    0    0 -0.00000000000E+00 -0.00000000000E+00 -0.45593999997E+02  0.45594000000E+02  0.51100000000E-03 0.  1.
    9900012    2    1    2    0    0  0.34668324794E+02  0.19787471713E+02 -0.77284387033E+01  0.50528861474E+02  0.30000004938E+02 0.  0.
         12    1    1    2    0    0 -0.34668324794E+02 -0.19787471713E+02  0.77284387033E+01  0.40659138526E+02  0.00000000000E+00 0. -1.
         11    1    3    3    0    0  0.10194264237E+02 -0.54423636623E+01  0.24915311443E+01  0.11821593516E+02  0.51100000000E-03 0. -1.
        -11    1    3    3    0    0  0.13860942980E+02  0.61900138660E+01 -0.68346294912E+01  0.16647947997E+02  0.51100000000E-03 0.  1.
         12    1    3    3    0    0  0.10613117577E+02  0.19039821509E+02 -0.33853403564E+01  0.22059319961E+02  0.00000000000E+00 0. -1.
</event>
<event>
 7    1  0.5764931E-013  0.5052889E+02  0.7816164E-02  0.1300439E+00
        -11   -1    0    0    0    0  0.00000000000E+00  0.00000000000E+00  0.45593999997E+02  0.45594000000E+02  0.51100000000E-03 0. -1.
         11   -1    0    0    0    0 -0.00000000000E+00 -0.00000000000E+00 -0.45593999997E+02  0.45594000000E+02  0.51100000000E-03 0.  1.
    9900012    2    1    2    0    0  0.16990300199E+02  0.29763464677E+02  0.21877595732E+02  0.50528888777E+02  0.30000087926E+02 0.  0.
         12    1    1    2    0    0 -0.16990300199E+02 -0.29763464677E+02 -0.21877595732E+02  0.40659111223E+02  0.00000000000E+00 0. -1.
         11    1    3    3    0    0 -0.14003502067E+01 -0.42478320296E+01  0.75747926674E+00  0.45363898371E+01  0.51100000000E-03 0. -1.
        -11    1    3    3    0    0  0.90143501901E+01  0.24133113782E+02  0.19431977795E+02  0.32268676011E+02  0.51100000000E-03 0.  1.
        -12    1    3    3    0    0  0.93763002157E+01  0.98781829247E+01  0.16881386696E+01  0.13723822929E+02  0.00000000000E+00 0.  1.
</event>
<event>
 7    1  0.5764931E-013  0.5052887E+02  0.7816164E-02  0.1300439E+00
        -11   -1    0    0    0    0  0.00000000000E+00  0.00000000000E+00  0.45593999997E+02  0.45594000000E+02  0.51100000000E-03 0.  1.
         11   -1    0    0    0    0 -0.00000000000E+00 -0.00000000000E+00 -0.45593999997E+02  0.45594000000E+02  0.51100000000E-03 0. -1.
    9900012    2    1    2    0    0  0.11487064244E+02  0.21207488029E+02  0.32733076913E+02  0.50528874117E+02  0.30000043365E+02 0.  0.
         12    1    1    2    0    0 -0.11487064244E+02 -0.21207488029E+02 -0.32733076913E+02  0.40659125883E+02  0.00000000000E+00 0. -1.
         11    1    3    3    0    0  0.62362869544E+00  0.22392898022E+01 -0.20505614389E+01  0.30996990247E+01  0.51100000000E-03 0. -1.
        -11    1    3    3    0    0  0.12177162857E+02  0.23054915928E+02  0.22576582737E+02  0.34489339397E+02  0.51100000000E-03 0.  1.
        -12    1    3    3    0    0 -0.13137273094E+01 -0.40867177019E+01  0.12207055615E+02  0.12939835695E+02  0.00000000000E+00 0.  1.
</event>
<event>
 7    1  0.5764931E-013  0.5052886E+02  0.7816164E-02  0.1300439E+00
        -11   -1    0    0    0    0  0.00000000000E+00  0.00000000000E+00  0.45593999997E+02  0.45594000000E+02  0.51100000000E-03 0.  1.
         11   -1    0    0    0    0 -0.00000000000E+00 -0.00000000000E+00 -0.45593999997E+02  0.45594000000E+02  0.51100000000E-03 0. -1.
    9900012    2    1    2    0    0 -0.19574357777E+02  0.14483980794E+02  0.32561092322E+02  0.50528856929E+02  0.29999991122E+02 0.  0.
         12    1    1    2    0    0  0.19574357777E+02 -0.14483980794E+02 -0.32561092322E+02  0.40659143071E+02  0.00000000000E+00 0. -1.
         11    1    3    3    0    0 -0.99386408799E+01  0.25767449545E+01  0.28350205183E+02  0.30152119847E+02  0.51100000000E-03 0. -1.
        -11    1    3    3    0    0 -0.12371697120E+02  0.11397720957E+02  0.22480651529E+01  0.16971173496E+02  0.51100000000E-03 0.  1.
         12    1    3    3    0    0  0.27359802221E+01  0.50951488225E+00  0.19628219867E+01  0.34055635866E+01  0.00000000000E+00 0. -1.
</event>
<event>
 7    1  0.5764931E-013  0.5052888E+02  0.7816164E-02  0.1300439E+00
        -11   -1    0    0    0    0  0.00000000000E+00  0.00000000000E+00  0.45593999997E+02  0.45594000000E+02  0.51100000000E-03 0.  1.
         11   -1    0    0    0    0 -0.00000000000E+00 -0.00000000000E+00 -0.45593999997E+02  0.45594000000E+02  0.51100000000E-03 0. -1.
    9900012    2    1    2    0    0  0.13133119476E+02 -0.31285580464E+02  0.22403074042E+02  0.50528879268E+02  0.30000059023E+02 0.  0.
         12    1    1    2    0    0 -0.13133119476E+02  0.31285580464E+02 -0.22403074042E+02  0.40659120732E+02  0.00000000000E+00 0. -1.
         11    1    3    3    0    0  0.25714095169E+00  0.15765342584E+00  0.61415404476E+01  0.61489426248E+01  0.51100000000E-03 0.  1.
        -11    1    3    3    0    0  0.66105218985E+00 -0.11711269129E+02 -0.51442783174E+01  0.12808372819E+02  0.51100000000E-03 0. -1.
        -12    1    3    3    0    0  0.12214926335E+02 -0.19731964761E+02  0.21405811912E+02  0.31571563824E+02  0.00000000000E+00 0.  1.
</event>
<event>
 7    1  0.5764931E-013  0.5052884E+02  0.7816164E-02  0.1300439E+00
        -11   -1    0    0    0    0  0.00000000000E+00  0.00000000000E+00  0.45593999997E+02  0.45594000000E+02  0.51100000000E-03 0. -1.
         11   -1    0    0    0    0 -0.00000000000E+00 -0.00000000000E+00 -0.45593999997E+02  0.45594000000E+02  0.51100000000E-03 0.  1.
    9900012    2    1    2    0    0 -0.72271210654E+01  0.16461447148E+02 -0.36468569731E+02  0.50528842368E+02  0.29999946862E+02 0.  0.
         12    1    1    2    0    0  0.72271210654E+01 -0.16461447148E+02  0.36468569731E+02  0.40659157632E+02  0.00000000000E+00 0. -1.
         11    1    3    3    0    0  0.51047916913E+01 -0.22936593786E+00 -0.14891056488E+02  0.15743413561E+02  0.51100000000E-03 0. -1.
        -11    1    3    3    0    0 -0.53382845912E+01  0.17697012986E+02 -0.94754574984E+01  0.20771755970E+02  0.51100000000E-03 0.  1.
        -12    1    3    3    0    0 -0.69936281655E+01 -0.10061998999E+01 -0.12102055744E+02  0.14013672837E+02  0.00000000000E+00 0.  1.
</event>
<event>
 7    1  0.5764931E-013  0.5052887E+02  0.7816164E-02  0.1300439E+00
        -11   -1    0    0    0    0  0.00000000000E+00  0.00000000000E+00  0.45593999997E+02  0.45594000000E+02  0.51100000000E-03 0. -1.
         11   -1    0    0    0    0 -0.00000000000E+00 -0.00000000000E+00 -0.45593999997E+02  0.45594000000E+02  0.51100000000E-03 0.  1.
    9900012    2    1    2    0    0 -0.31092591822E+02  0.53329729068E+01 -0.25651019604E+02  0.50528872206E+02  0.30000037559E+02 0.  0.
         12    1    1    2    0    0  0.31092591822E+02 -0.53329729068E+01  0.25651019604E+02  0.40659127794E+02  0.00000000000E+00 0. -1.
         11    1    3    3    0    0 -0.28017098405E+01  0.47702387737E+01 -0.13055758609E+01  0.56841256652E+01  0.51100000000E-03 0. -1.
        -11    1    3    3    0    0 -0.31875644495E+02  0.11414402000E+00 -0.25741291526E+02  0.40971744294E+02  0.51100000000E-03 0.  1.
        -12    1    3    3    0    0  0.35847625139E+01  0.44859011316E+00  0.13958477832E+01  0.38730022469E+01  0.00000000000E+00 0.  1.
</event>
<event>
 7    1  0.5764931E-013  0.5052884E+02  0.7816164E-02  0.1300439E+00
        -11   -1    0    0    0    0  0.00000000000E+00  0.00000000000E+00  0.45593999997E+02  0.45594000000E+02  0.51100000000E-03 0.  1.
         11   -1    0    0    0    0 -0.00000000000E+00 -0.00000000000E+00 -0.45593999997E+02  0.45594000000E+02  0.51100000000E-03 0. -1.
    9900012    2    1    2    0    0 -0.48405281656E+01 -0.33601865368E+02  0.22375233174E+02  0.50528842006E+02  0.29999945762E+02 0.  0.
         12    1    1    2    0    0  0.48405281656E+01  0.33601865368E+02 -0.22375233174E+02  0.40659157994E+02  0.00000000000E+00 0. -1.
         11    1    3    3    0    0  0.64880491192E+01 -0.28728811395E+02  0.19644689519E+02  0.35402728880E+02  0.51100000000E-03 0. -1.
        -11    1    3    3    0    0 -0.54996324247E+01 -0.66868983098E+01  0.25223811933E+01  0.90179250916E+01  0.51100000000E-03 0.  1.
         12    1    3    3    0    0 -0.58289448601E+01  0.18138443368E+01  0.20816246189E+00  0.61081880350E+01  0.00000000000E+00 0. -1.
</event>
<event>
 7    1  0.5764931E-013  0.5052885E+02  0.7816164E-02  0.1300439E+00
        -11   -1    0    0    0    0  0.00000000000E+00  0.00000000000E+00  0.45593999997E+02  0.45594000000E+02  0.51100000000E-03 0.  1.
         11   -1    0    0    0    0 -0.00000000000E+00 -0.00000000000E+00 -0.45593999997E+02  0.45594000000E+02  0.51100000000E-03 0. -1.
    9900012    2    1    2    0    0  0.31788087534E+02 -0.21290878388E+02 -0.13761622628E+02  0.50528852580E+02  0.29999977901E+02 0.  0.
         12    1    1    2    0    0 -0.31788087534E+02  0.21290878388E+02  0.13761622628E+02  0.40659147420E+02  0.00000000000E+00 0. -1.
         11    1    3    3    0    0 -0.19187253444E+01 -0.44808328767E+01 -0.71791389877E+01  0.86775230960E+01  0.51100000000E-03 0. -1.
        -11    1    3    3    0    0  0.28002309868E+02 -0.19201837557E+02 -0.91332078078E+01  0.35160423897E+02  0.51100000000E-03 0.  1.
         12    1    3    3    0    0  0.57045030107E+01  0.23917920456E+01  0.25507241678E+01  0.66909055866E+01  0.00000000000E+00 0. -1.
</event>
<event>
 7    1  0.5764931E-013  0.5052886E+02  0.7816164E-02  0.1300439E+00
        -11   -1    0    0    0    0  0.00000000000E+00  0.00000000000E+00  0.45593999997E+02  0.45594000000E+02  0.51100000000E-03 0.  1.
         11   -1    0    0    0    0 -0.00000000000E+00 -0.00000000000E+00 -0.45593999997E+02  0.45594000000E+02  0.51100000000E-03 0. -1.
    9900012    2    1    2    0    0  0.23025207159E+02 -0.10010001228E+01  0.33496320703E+02  0.50528859987E+02  0.30000000416E+02 0.  0.
         12    1    1    2    0    0 -0.23025207159E+02  0.10010001228E+01 -0.33496320703E+02  0.40659140013E+02  0.00000000000E+00 0. -1.
         11    1    3    3    0    0 -0.58581657328E+01  0.24020858899E+00  0.90753165859E+00  0.59329099008E+01  0.51100000000E-03 0. -1.
        -11    1    3    3    0    0  0.23778771562E+02  0.16583032617E+01  0.29611777378E+02  0.38013646318E+02  0.51100000000E-03 0.  1.
         12    1    3    3    0    0  0.51046013301E+01 -0.28995119735E+01  0.29770116672E+01  0.65823037677E+01  0.00000000000E+00 0. -1.
</event>
<event>
 7    1  0.5764931E-013  0.5052886E+02  0.7816164E-02  0.1300439E+00
        -11   -1    0    0    0    0  0.00000000000E+00  0.00000000000E+00  0.45593999997E+02  0.45594000000E+02  0.51100000000E-03 0.  1.
         11   -1    0    0    0    0 -0.00000000000E+00 -0.00000000000E+00 -0.45593999997E+02  0.45594000000E+02  0.51100000000E-03 0. -1.
    9900012    2    1    2    0    0 -0.15795550337E+02 -0.36235361505E+02  0.95218204363E+01  0.50528857138E+02  0.29999991758E+02 0.  0.
         12    1    1    2    0    0  0.15795550337E+02  0.36235361505E+02 -0.95218204363E+01  0.40659142862E+02  0.00000000000E+00 0. -1.
         11    1    3    3    0    0 -0.18829835599E+02 -0.11908638172E+02  0.12882383575E+02  0.25735853952E+02  0.51100000000E-03 0. -1.
        -11    1    3    3    0    0  0.13106534567E+01 -0.53958620348E+01 -0.61898325831E+00  0.55871531318E+01  0.51100000000E-03 0.  1.
         12    1    3    3    0    0  0.17236318057E+01 -0.18930861298E+02 -0.27415798800E+01  0.19205850055E+02  0.00000000000E+00 0. -1.
</event>
<event>
 7    1  0.5764931E-013  0.5052887E+02  0.7816164E-02  0.1300439E+00
        -11   -1    0    0    0    0  0.00000000000E+00  0.00000000000E+00  0.45593999997E+02  0.45594000000E+02  0.51100000000E-03 0.  1.
         11   -1    0    0    0    0 -0.00000000000E+00 -0.00000000000E+00 -0.45593999997E+02  0.45594000000E+02  0.51100000000E-03 0. -1.
    9900012    2    1    2    0    0 -0.28612099739E+02 -0.19494776844E+02  0.21318208668E+02  0.50528873146E+02  0.30000040416E+02 0.  0.
         12    1    1    2    0    0  0.28612099739E+02  0.19494776844E+02 -0.21318208668E+02  0.40659126854E+02  0.00000000000E+00 0. -1.
         11    1    3    3    0    0 -0.19817590146E+02  0.31730216827E+01  0.74128299355E+01  0.21395209598E+02  0.51100000000E-03 0. -1.
        -11    1    3    3    0    0  0.92114426726E+00 -0.27271123559E+01  0.37776043263E+01  0.47493097678E+01  0.51100000000E-03 0.  1.
         12    1    3    3    0    0 -0.97156538595E+01 -0.19940686171E+02  0.10127774407E+02  0.24384353781E+02  0.00000000000E+00 0. -1.
</event>
<event>
 7    1  0.5764931E-013  0.5052887E+02  0.7816164E-02  0.1300439E+00
        -11   -1    0    0    0    0  0.00000000000E+00  0.00000000000E+00  0.45593999997E+02  0.45594000000E+02  0.51100000000E-03 0.  1.
         11   -1    0    0    0    0 -0.00000000000E+00 -0.00000000000E+00 -0.45593999997E+02  0.45594000000E+02  0.51100000000E-03 0. -1.
    9900012    2    1    2    0    0  0.40654092804E+02  0.48994586320E+00 -0.41147615115E+00  0.50528872841E+02  0.30000039489E+02 0.  0.
         12    1    1    2    0    0 -0.40654092804E+02 -0.48994586320E+00  0.41147615115E+00  0.40659127159E+02  0.00000000000E+00 0. -1.
         11    1    3    3    0    0  0.23983562228E+02 -0.88757292799E+01  0.93710494600E+01  0.27236122992E+02  0.51100000000E-03 0. -1.
        -11    1    3    3    0    0  0.11289012315E+02  0.34861605364E+01 -0.16920494996E+01  0.11935583190E+02  0.51100000000E-03 0.  1.
         12    1    3    3    0    0  0.53815182614E+01  0.58795146067E+01 -0.80904761115E+01  0.11357166659E+02  0.00000000000E+00 0. -1.
</event>
<event>
 7    1  0.5764931E-013  0.5052886E+02  0.7816164E-02  0.1300439E+00
        -11   -1    0    0    0    0  0.00000000000E+00  0.00000000000E+00  0.45593999997E+02  0.45594000000E+02  0.51100000000E-03 0. -1.
         11   -1    0    0    0    0 -0.00000000000E+00 -0.00000000000E+00 -0.45593999997E+02  0.45594000000E+02  0.51100000000E-03 0.  1.
    9900012    2    1    2    0    0  0.35780628334E+02 -0.28726063702E+01 -0.19096082607E+02  0.50528860778E+02  0.30000002821E+02 0.  0.
         12    1    1    2    0    0 -0.35780628334E+02  0.28726063702E+01  0.19096082607E+02  0.40659139222E+02  0.00000000000E+00 0. -1.
         11    1    3    3    0    0  0.13044428605E+02  0.77731204067E+01 -0.16491347907E+02  0.22417472527E+02  0.51100000000E-03 0. -1.
        -11    1    3    3    0    0  0.89207924750E+01 -0.92711118500E+01 -0.53929519263E+01  0.13950554973E+02  0.51100000000E-03 0.  1.
         12    1    3    3    0    0  0.13815407255E+02 -0.13746149269E+01  0.27882172262E+01  0.14160833277E+02  0.00000000000E+00 0. -1.
</event>
<event>
 7    1  0.5764931E-013  0.5052889E+02  0.7816164E-02  0.1300439E+00
        -11   -1    0    0    0    0  0.00000000000E+00  0.00000000000E+00  0.45593999997E+02  0.45594000000E+02  0.51100000000E-03 0.  1.
         11   -1    0    0    0    0 -0.00000000000E+00 -0.00000000000E+00 -0.45593999997E+02  0.45594000000E+02  0.51100000000E-03 0. -1.
    9900012    2    1    2    0    0  0.30456753989E+02 -0.12938697075E+02  0.23624977581E+02  0.50528888952E+02  0.30000088459E+02 0.  0.
         12    1    1    2    0    0 -0.30456753989E+02  0.12938697075E+02 -0.23624977581E+02  0.40659111048E+02  0.00000000000E+00 0. -1.
         11    1    3    3    0    0 -0.19754702456E+01 -0.24274909390E+01  0.11445259831E+01  0.33324367867E+01  0.51100000000E-03 0. -1.
        -11    1    3    3    0    0  0.13780131566E+02  0.52080735559E+01  0.16425079589E+02  0.22063528637E+02  0.51100000000E-03 0.  1.
        -12    1    3    3    0    0  0.18652092668E+02 -0.15719279692E+02  0.60553720086E+01  0.25132923529E+02  0.00000000000E+00 0.  1.
</event>
<event>
 7    1  0.5764931E-013  0.5052886E+02  0.7816164E-02  0.1300439E+00
        -11   -1    0    0    0    0  0.00000000000E+00  0.00000000000E+00  0.45593999997E+02  0.45594000000E+02  0.51100000000E-03 0.  1.
         11   -1    0    0    0    0 -0.00000000000E+00 -0.00000000000E+00 -0.45593999997E+02  0.45594000000E+02  0.51100000000E-03 0. -1.
    9900012    2    1    2    0    0  0.37241030449E+02  0.15962245787E+02  0.33878938925E+01  0.50528862472E+02  0.30000007969E+02 0.  0.
         12    1    1    2    0    0 -0.37241030449E+02 -0.15962245787E+02 -0.33878938925E+01  0.40659137528E+02  0.00000000000E+00 0. -1.
         11    1    3    3    0    0  0.21075597178E+02 -0.35708560185E+01 -0.12922977599E+01  0.21414991078E+02  0.51100000000E-03 0. -1.
        -11    1    3    3    0    0  0.15597130362E+02  0.86622772197E+01  0.25640650117E+01  0.18024426532E+02  0.51100000000E-03 0.  1.
         12    1    3    3    0    0  0.56830290933E+00  0.10870824586E+02  0.21161266407E+01  0.11089444862E+02  0.00000000000E+00 0. -1.
</event>
<event>
 7    1  0.5764931E-013  0.5052885E+02  0.7816164E-02  0.1300439E+00
        -11   -1    0    0    0    0  0.00000000000E+00  0.00000000000E+00  0.45593999997E+02  0.45594000000E+02  0.51100000000E-03 0. -1.
         11   -1    0    0    0    0 -0.00000000000E+00 -0.00000000000E+00 -0.45593999997E+02  0.45594000000E+02  0.51100000000E-03 0.  1.
    9900012    2    1    2    0    0 -0.87441804166E+01 -0.37736755448E+02 -0.12354875633E+02  0.50528851524E+02  0.29999974692E+02 0.  0.
         12    1    1    2    0    0  0.87441804166E+01  0.37736755448E+02  0.12354875633E+02  0.40659148476E+02  0.00000000000E+00 0. -1.
         11    1    3    3    0    0  0.26332831771E+01 -0.37646276301E+01 -0.66755779414E+01  0.81036993155E+01  0.51100000000E-03 0. -1.
        -11    1    3    3    0    0 -0.11204879181E+02 -0.25636179098E+02  0.54654142549E+01  0.28506731651E+02  0.51100000000E-03 0.  1.
        -12    1    3    3    0    0 -0.17258441312E+00 -0.83359487198E+01 -0.11144711947E+02  0.13918420557E+02  0.00000000000E+00 0.  1.
</event>
<event>
 7    1  0.5764931E-013  0.5052886E+02  0.7816164E-02  0.1300439E+00
        -11   -1    0    0    0    0  0.00000000000E+00  0.00000000000E+00  0.45593999997E+02  0.45594000000E+02  0.51100000000E-03 0. -1.
         11   -1    0    0    0    0 -0.00000000000E+00 -0.00000000000E+00 -0.45593999997E+02  0.45594000000E+02  0.51100000000E-03 0.  1.
    9900012    2    1    2    0    0 -0.11832117154E+02 -0.27805689014E+02 -0.27203128025E+02  0.50528861885E+02  0.30000006187E+02 0.  0.
         12    1    1    2    0    0  0.11832117154E+02  0.27805689014E+02  0.27203128025E+02  0.40659138115E+02  0.00000000000E+00 0. -1.
         11    1    3    3    0    0  0.14748926446E+01  0.57397285491E+00  0.38255151122E+00  0.16282196016E+01  0.51100000000E-03 0. -1.
        -11    1    3    3    0    0 -0.10796424118E+02 -0.20112543018E+02 -0.31913748744E+02  0.39237284813E+02  0.51100000000E-03 0.  1.
        -12    1    3    3    0    0 -0.25105856809E+01 -0.82671188500E+01  0.43280692069E+01  0.96633574704E+01  0.00000000000E+00 0.  1.
</event>
<event>
 7    1  0.5764931E-013  0.5052883E+02  0.7816164E-02  0.1300439E+00
        -11   -1    0    0    0    0  0.00000000000E+00  0.00000000000E+00  0.45593999997E+02  0.45594000000E+02  0.51100000000E-03 0.  1.
         11   -1    0    0    0    0 -0.00000000000E+00 -0.00000000000E+00 -0.45593999997E+02  0.45594000000E+02  0.51100000000E-03 0. -1.
    9900012    2    1    2    0    0 -0.99137050286E+00  0.41262627945E+01  0.40437097553E+02  0.50528834752E+02  0.29999923713E+02 0.  0.
         12    1    1    2    0    0  0.99137050286E+00 -0.41262627945E+01 -0.40437097553E+02  0.40659165248E+02  0.00000000000E+00 0. -1.
         11    1    3    3    0    0 -0.81891539928E+01  0.60909337341E+01  0.16183134036E+02  0.19132578089E+02  0.51100000000E-03 0. -1.
        -11    1    3    3    0    0  0.10980691274E+02  0.49525557486E+01  0.15055844696E+02  0.19281645393E+02  0.51100000000E-03 0.  1.
        -12    1    3    3    0    0 -0.37829077840E+01 -0.69172266882E+01  0.91981188212E+01  0.12114611269E+02  0.00000000000E+00 0.  1.
</event>
<event>
 7    1  0.5764931E-013  0.5052887E+02  0.7816164E-02  0.1300439E+00
        -11   -1    0    0    0    0  0.00000000000E+00  0.00000000000E+00  0.45593999997E+02  0.45594000000E+02  0.51100000000E-03 0.  1.
         11   -1    0    0    0    0 -0.00000000000E+00 -0.00000000000E+00 -0.45593999997E+02  0.45594000000E+02  0.51100000000E-03 0. -1.
    9900012    2    1    2    0    0 -0.27244500904E+02 -0.20713865910E+02  0.21950812857E+02  0.50528865042E+02  0.30000015782E+02 0.  0.
         12    1    1    2    0    0  0.27244500904E+02  0.20713865910E+02 -0.21950812857E+02  0.40659134958E+02  0.00000000000E+00 0. -1.
         11    1    3    3    0    0 -0.73539241550E-01  0.61054000696E+00 -0.54723923556E+01  0.55068362492E+01  0.51100000000E-03 0. -1.
        -11    1    3    3    0    0 -0.10848963317E+02 -0.84924276284E+01  0.55198745289E+01  0.14842181348E+02  0.51100000000E-03 0.  1.
         12    1    3    3    0    0 -0.16321998345E+02 -0.12831978288E+02  0.21903330684E+02  0.30179847445E+02  0.00000000000E+00 0. -1.
</event>
<event>
 7    1  0.5764931E-013  0.5052886E+02  0.7816164E-02  0.1300439E+00
        -11   -1    0    0    0    0  0.00000000000E+00  0.00000000000E+00  0.45593999997E+02  0.45594000000E+02  0.51100000000E-03 0.  1.
         11   -1    0    0    0    0 -0.00000000000E+00 -0.00000000000E+00 -0.45593999997E+02  0.45594000000E+02  0.51100000000E-03 0. -1.
    9900012    2    1    2    0    0  0.62156554694E+01  0.16566003614E+02  0.36607361865E+02  0.50528858452E+02  0.29999995751E+02 0.  0.
         12    1    1    2    0    0 -0.62156554694E+01 -0.16566003614E+02 -0.36607361865E+02  0.40659141548E+02  0.00000000000E+00 0. -1.
         11    1    3    3    0    0  0.82209492784E+00  0.27936869388E+01 -0.50174942505E+01  0.58013598058E+01  0.51100000000E-03 0. -1.
        -11    1    3    3    0    0  0.69026454091E+01  0.10167154697E+02  0.28586872701E+02  0.31116343606E+02  0.51100000000E-03 0.  1.
         12    1    3    3    0    0 -0.15090848675E+01  0.36051619781E+01  0.13037983414E+02  0.13611155041E+02  0.00000000000E+00 0. -1.
</event>
<event>
 7    1  0.5764931E-013  0.5052886E+02  0.7816164E-02  0.1300439E+00
        -11   -1    0    0    0    0  0.00000000000E+00  0.00000000000E+00  0.45593999997E+02  0.45594000000E+02  0.51100000000E-03 0.  1.
         11   -1    0    0    0    0 -0.00000000000E+00 -0.00000000000E+00 -0.45593999997E+02  0.45594000000E+02  0.51100000000E-03 0. -1.
    9900012    2    1    2    0    0  0.30364537946E+01 -0.40517237777E+02  0.15161746759E+01  0.50528863334E+02  0.30000010591E+02 0.  0.
         12    1    1    2    0    0 -0.30364537946E+01  0.40517237777E+02 -0.15161746759E+01  0.40659136666E+02  0.00000000000E+00 0. -1.
         11    1    3    3    0    0  0.96588579202E+01 -0.60709908584E+01  0.10033029337E+01  0.11452383305E+02  0.51100000000E-03 0. -1.
        -11    1    3    3    0    0 -0.11916116692E+02 -0.18089052577E+02 -0.17686213001E+01  0.21733285111E+02  0.51100000000E-03 0.  1.
        -12    1    3    3    0    0  0.52937125666E+01 -0.16357194342E+02  0.22814930422E+01  0.17343194919E+02  0.00000000000E+00 0.  1.
</event>
<event>
 7    1  0.5764931E-013  0.5052887E+02  0.7816164E-02  0.1300439E+00
        -11   -1    0    0    0    0  0.00000000000E+00  0.00000000000E+00  0.45593999997E+02  0.45594000000E+02  0.51100000000E-03 0. -1.
         11   -1    0    0    0    0 -0.00000000000E+00 -0.00000000000E+00 -0.45593999997E+02  0.45594000000E+02  0.51100000000E-03 0.  1.
    9900012    2    1    2    0    0  0.29732060654E+02 -0.16147250598E+02  0.22548516751E+02  0.50528871378E+02  0.30000035041E+02 0.  0.
         12    1    1    2    0    0 -0.29732060654E+02  0.16147250598E+02 -0.22548516751E+02  0.40659128622E+02  0.00000000000E+00 0. -1.
         11    1    3    3    0    0  0.53688784710E+01 -0.17014469333E+02  0.56327338233E+01  0.18709481909E+02  0.51100000000E-03 0. -1.
        -11    1    3    3    0    0  0.11673990885E+02 -0.23553030339E+01  0.21786252706E+01  0.12106854418E+02  0.51100000000E-03 0.  1.
         12    1    3    3    0    0  0.12689191297E+02  0.32225217684E+01  0.14737157658E+02  0.19712535052E+02  0.00000000000E+00 0. -1.
</event>
<event>
 7    1  0.5764931E-013  0.5052886E+02  0.7816164E-02  0.1300439E+00
        -11   -1    0    0    0    0  0.00000000000E+00  0.00000000000E+00  0.45593999997E+02  0.45594000000E+02  0.51100000000E-03 0.  1.
         11   -1    0    0    0    0 -0.00000000000E+00 -0.00000000000E+00 -0.45593999997E+02  0.45594000000E+02  0.51100000000E-03 0. -1.
    9900012    2    1    2    0    0  0.17542260550E+02  0.29168772045E+01  0.36564003985E+02  0.50528862463E+02  0.30000007942E+02 0.  0.
         12    1    1    2    0    0 -0.17542260550E+02 -0.29168772045E+01 -0.36564003985E+02  0.40659137537E+02  0.00000000000E+00 0. -1.
         11    1    3    3    0    0 -0.40518985098E+01  0.82733703859E+00  0.16592491266E+02  0.17100091660E+02  0.51100000000E-03 0.  1.
        -11    1    3    3    0    0  0.15339793922E+02  0.63305881345E+01  0.61903045516E+01  0.17711733241E+02  0.51100000000E-03 0. -1.
        -12    1    3    3    0    0  0.62543651378E+01 -0.42410479686E+01  0.13781208167E+02  0.15717037561E+02  0.00000000000E+00 0.  1.
</event>
<event>
 7    1  0.5764931E-013  0.5052887E+02  0.7816164E-02  0.1300439E+00
        -11   -1    0    0    0    0  0.00000000000E+00  0.00000000000E+00  0.45593999997E+02  0.45594000000E+02  0.51100000000E-03 0.  1.
         11   -1    0    0    0    0 -0.00000000000E+00 -0.00000000000E+00 -0.45593999997E+02  0.45594000000E+02  0.51100000000E-03 0. -1.
    9900012    2    1    2    0    0 -0.11121366530E+02 -0.96891045600E+01  0.37889325163E+02  0.50528874309E+02  0.30000043950E+02 0.  0.
         12    1    1    2    0    0  0.11121366530E+02  0.96891045600E+01 -0.37889325163E+02  0.40659125691E+02  0.00000000000E+00 0. -1.
         11    1    3    3    0    0 -0.52160404477E+01 -0.11964671855E+02  0.15316749537E+02  0.20123699143E+02  0.51100000000E-03 0. -1.
        -11    1    3    3    0    0 -0.10622860560E+02  0.29282854615E+01  0.23119738238E+02  0.25611370887E+02  0.51100000000E-03 0.  1.
         12    1    3    3    0    0  0.47175344771E+01 -0.65271816613E+00 -0.54716261239E+00  0.47938042796E+01  0.00000000000E+00 0. -1.
</event>
<event>
 7    1  0.5764931E-013  0.5052886E+02  0.7816164E-02  0.1300439E+00
        -11   -1    0    0    0    0  0.00000000000E+00  0.00000000000E+00  0.45593999997E+02  0.45594000000E+02  0.51100000000E-03 0. -1.
         11   -1    0    0    0    0 -0.00000000000E+00 -0.00000000000E+00 -0.45593999997E+02  0.45594000000E+02  0.51100000000E-03 0.  1.
    9900012    2    1    2    0    0  0.39124633165E+02  0.33009157780E+01 -0.10560886306E+02  0.50528864681E+02  0.30000014685E+02 0.  0.
         12    1    1    2    0    0 -0.39124633165E+02 -0.33009157780E+01  0.10560886306E+02  0.40659135319E+02  0.00000000000E+00 0. -1.
         11    1    3    3    0    0  0.58349259600E+00 -0.35537500151E+01 -0.79833482943E+01  0.87580507551E+01  0.51100000000E-03 0. -1.
        -11    1    3    3    0    0  0.35542667227E+02  0.10399174133E+02 -0.19276429100E+01  0.37082877771E+02  0.51100000000E-03 0.  1.
        -12    1    3    3    0    0  0.29984733417E+01 -0.35445083403E+01 -0.64989510212E+00  0.46879361556E+01  0.00000000000E+00 0.  1.
</event>
<event>
 7    1  0.5764931E-013  0.5052887E+02  0.7816164E-02  0.1300439E+00
        -11   -1    0    0    0    0  0.00000000000E+00  0.00000000000E+00  0.45593999997E+02  0.45594000000E+02  0.51100000000E-03 0.  1.
         11   -1    0    0    0    0 -0.00000000000E+00 -0.00000000000E+00 -0.45593999997E+02  0.45594000000E+02  0.51100000000E-03 0. -1.
    9900012    2    1    2    0    0  0.74151116315E+01  0.28691721874E+02  0.27838216224E+02  0.50528867359E+02  0.30000022824E+02 0.  0.
         12    1    1    2    0    0 -0.74151116315E+01 -0.28691721874E+02 -0.27838216224E+02  0.40659132641E+02  0.00000000000E+00 0. -1.
         11    1    3    3    0    0  0.25670493955E+01  0.16105044272E+02  0.52383549961E+01  0.17128997546E+02  0.51100000000E-03 0.  1.
        -11    1    3    3    0    0  0.82534832217E+01 -0.22559572013E+01  0.12421558360E+02  0.15083250331E+02  0.51100000000E-03 0. -1.
         12    1    3    3    0    0 -0.34054209857E+01  0.14842634802E+02  0.10178302868E+02  0.18316619482E+02  0.00000000000E+00 0. -1.
</event>
<event>
 7    1  0.5764931E-013  0.5052886E+02  0.7816164E-02  0.1300439E+00
        -11   -1    0    0    0    0  0.00000000000E+00  0.00000000000E+00  0.45593999997E+02  0.45594000000E+02  0.51100000000E-03 0.  1.
         11   -1    0    0    0    0 -0.00000000000E+00 -0.00000000000E+00 -0.45593999997E+02  0.45594000000E+02  0.51100000000E-03 0. -1.
    9900012    2    1    2    0    0 -0.60723747381E-01  0.28883108201E+02  0.28616919645E+02  0.50528859371E+02  0.29999998544E+02 0.  0.
         12    1    1    2    0    0  0.60723747381E-01 -0.28883108201E+02 -0.28616919645E+02  0.40659140629E+02  0.00000000000E+00 0. -1.
         11    1    3    3    0    0  0.24117086857E+01 -0.75630027713E+00 -0.16067992042E+01  0.29950180029E+01  0.51100000000E-03 0. -1.
        -11    1    3    3    0    0 -0.54830270377E+01  0.32243466652E+02  0.26841316020E+02  0.42310293939E+02  0.51100000000E-03 0.  1.
        -12    1    3    3    0    0  0.30105946046E+01 -0.26040581741E+01  0.33824028293E+01  0.52235474294E+01  0.00000000000E+00 0.  1.
</event>
<event>
 7    1  0.5764931E-013  0.5052887E+02  0.7816164E-02  0.1300439E+00
        -11   -1    0    0    0    0  0.00000000000E+00  0.00000000000E+00  0.45593999997E+02  0.45594000000E+02  0.51100000000E-03 0.  1.
         11   -1    0    0    0    0 -0.00000000000E+00 -0.00000000000E+00 -0.45593999997E+02  0.45594000000E+02  0.51100000000E-03 0. -1.
    9900012    2    1    2    0    0  0.18953843938E+02  0.35363232866E+02  0.65847206634E+01  0.50528868369E+02  0.30000025896E+02 0.  0.
         12    1    1    2    0    0 -0.18953843938E+02 -0.35363232866E+02 -0.65847206634E+01  0.40659131631E+02  0.00000000000E+00 0. -1.
         11    1    3    3    0    0  0.44948991769E+01 -0.23849224003E+01  0.12857428568E+01  0.52483433978E+01  0.51100000000E-03 0. -1.
        -11    1    3    3    0    0  0.10312037125E+02  0.32324196672E+02 -0.35380592007E+01  0.34113188994E+02  0.51100000000E-03 0.  1.
        -12    1    3    3    0    0  0.41469076364E+01  0.54239585939E+01  0.88370370072E+01  0.11167335978E+02  0.00000000000E+00 0.  1.
</event>
<event>
 7    1  0.5764931E-013  0.5052886E+02  0.7816164E-02  0.1300439E+00
        -11   -1    0    0    0    0  0.00000000000E+00  0.00000000000E+00  0.45593999997E+02  0.45594000000E+02  0.51100000000E-03 0. -1.
         11   -1    0    0    0    0 -0.00000000000E+00 -0.00000000000E+00 -0.45593999997E+02  0.45594000000E+02  0.51100000000E-03 0.  1.
    9900012    2    1    2    0    0  0.19517059230E+02  0.19589477004E+02 -0.29807758898E+02  0.50528859566E+02  0.29999999136E+02 0.  0.
         12    1    1    2    0    0 -0.19517059230E+02 -0.19589477004E+02  0.29807758898E+02  0.40659140434E+02  0.00000000000E+00 0. -1.
         11    1    3    3    0    0 -0.53698340106E+01  0.37900920940E+01 -0.18222319947E+01  0.68205897901E+01  0.51100000000E-03 0. -1.
        -11    1    3    3    0    0  0.22526842929E+02  0.61770827055E+01 -0.16840175286E+02  0.28795946017E+02  0.51100000000E-03 0.  1.
        -12    1    3    3    0    0  0.23600503119E+01  0.96223022049E+01 -0.11145351618E+02  0.14912323759E+02  0.00000000000E+00 0.  1.
</event>
<event>
 7    1  0.5764931E-013  0.5052886E+02  0.7816164E-02  0.1300439E+00
        -11   -1    0    0    0    0  0.00000000000E+00  0.00000000000E+00  0.45593999997E+02  0.45594000000E+02  0.51100000000E-03 0. -1.
         11   -1    0    0    0    0 -0.00000000000E+00 -0.00000000000E+00 -0.45593999997E+02  0.45594000000E+02  0.51100000000E-03 0.  1.
    9900012    2    1    2    0    0 -0.19952618777E+02  0.31850851233E+02 -0.15510704774E+02  0.50528859786E+02  0.29999999806E+02 0.  0.
         12    1    1    2    0    0  0.19952618777E+02 -0.31850851233E+02  0.15510704774E+02  0.40659140214E+02  0.00000000000E+00 0. -1.
         11    1    3    3    0    0 -0.11137083183E+02  0.59828817340E+00 -0.46009042937E+01  0.12064861837E+02  0.51100000000E-03 0. -1.
        -11    1    3    3    0    0 -0.37905039132E+01  0.12534988391E+02  0.43477206331E+01  0.13798424868E+02  0.51100000000E-03 0.  1.
        -12    1    3    3    0    0 -0.50250316806E+01  0.18717574669E+02 -0.15257521113E+02  0.24665573081E+02  0.00000000000E+00 0.  1.
</event>
<event>
 7    1  0.5764931E-013  0.5052888E+02  0.7816164E-02  0.1300439E+00
        -11   -1    0    0    0    0  0.00000000000E+00  0.00000000000E+00  0.45593999997E+02  0.45594000000E+02  0.51100000000E-03 0. -1.
         11   -1    0    0    0    0 -0.00000000000E+00 -0.00000000000E+00 -0.45593999997E+02  0.45594000000E+02  0.51100000000E-03 0.  1.
    9900012    2    1    2    0    0 -0.16747058697E+02  0.35442427148E+02 -0.10795105184E+02  0.50528881551E+02  0.30000065962E+02 0.  0.
         12    1    1    2    0    0  0.16747058697E+02 -0.35442427148E+02  0.10795105184E+02  0.40659118449E+02  0.00000000000E+00 0. -1.
         11    1    3    3    0    0 -0.26489214369E+01 -0.19390967889E+01  0.11264453125E+01  0.34707002807E+01  0.51100000000E-03 0. -1.
        -11    1    3    3    0    0 -0.98905480672E+00  0.30747866560E+02 -0.68651680999E+01  0.31520470502E+02  0.51100000000E-03 0.  1.
        -12    1    3    3    0    0 -0.13109082454E+02  0.66336573767E+01 -0.50563823964E+01  0.15537710768E+02  0.00000000000E+00 0.  1.
</event>
<event>
 7    1  0.5764931E-013  0.5052886E+02  0.7816164E-02  0.1300439E+00
        -11   -1    0    0    0    0  0.00000000000E+00  0.00000000000E+00  0.45593999997E+02  0.45594000000E+02  0.51100000000E-03 0. -1.
         11   -1    0    0    0    0 -0.00000000000E+00 -0.00000000000E+00 -0.45593999997E+02  0.45594000000E+02  0.51100000000E-03 0.  1.
    9900012    2    1    2    0    0 -0.12993991044E+02  0.14040536317E+02 -0.35877360950E+02  0.50528862133E+02  0.30000006940E+02 0.  0.
         12    1    1    2    0    0  0.12993991044E+02 -0.14040536317E+02  0.35877360950E+02  0.40659137867E+02  0.00000000000E+00 0. -1.
         11    1    3    3    0    0 -0.11258524227E+02  0.11273639745E+02 -0.68068065077E+01  0.17325759319E+02  0.51100000000E-03 0. -1.
        -11    1    3    3    0    0  0.67245953749E+01  0.10190918819E+01 -0.17408588316E+02  0.18690042232E+02  0.51100000000E-03 0.  1.
        -12    1    3    3    0    0 -0.84600621918E+01  0.17478046903E+01 -0.11661966127E+02  0.14513060582E+02  0.00000000000E+00 0.  1.
</event>
<event>
 7    1  0.5764931E-013  0.5052887E+02  0.7816164E-02  0.1300439E+00
        -11   -1    0    0    0    0  0.00000000000E+00  0.00000000000E+00  0.45593999997E+02  0.45594000000E+02  0.51100000000E-03 0.  1.
         11   -1    0    0    0    0 -0.00000000000E+00 -0.00000000000E+00 -0.45593999997E+02  0.45594000000E+02  0.51100000000E-03 0. -1.
    9900012    2    1    2    0    0 -0.22341578744E+02  0.29270798654E+01  0.33844514786E+02  0.50528866728E+02  0.30000020907E+02 0.  0.
         12    1    1    2    0    0  0.22341578744E+02 -0.29270798654E+01 -0.33844514786E+02  0.40659133272E+02  0.00000000000E+00 0. -1.
         11    1    3    3    0    0  0.48068354745E+00 -0.10309965238E+01  0.16388563008E+01  0.19949588318E+01  0.51100000000E-03 0. -1.
        -11    1    3    3    0    0 -0.15637680924E+02  0.12994549390E+02  0.82510015744E+01  0.21942525054E+02  0.51100000000E-03 0.  1.
        -12    1    3    3    0    0 -0.71845813671E+01 -0.90364730005E+01  0.23954656911E+02  0.26591382842E+02  0.00000000000E+00 0.  1.
</event>
<event>
 7    1  0.5764931E-013  0.5052889E+02  0.7816164E-02  0.1300439E+00
        -11   -1    0    0    0    0  0.00000000000E+00  0.00000000000E+00  0.45593999997E+02  0.45594000000E+02  0.51100000000E-03 0. -1.
         11   -1    0    0    0    0 -0.00000000000E+00 -0.00000000000E+00 -0.45593999997E+02  0.45594000000E+02  0.51100000000E-03 0.  1.
    9900012    2    1    2    0    0 -0.13100238200E+01 -0.39417063637E+02  0.98864545031E+01  0.50528892154E+02  0.30000098191E+02 0.  0.
         12    1    1    2    0    0  0.13100238200E+01  0.39417063637E+02 -0.98864545031E+01  0.40659107846E+02  0.00000000000E+00 0. -1.
         11    1    3    3    0    0 -0.79465236068E+01 -0.23036423901E+02 -0.45779007128E+01  0.24794782491E+02  0.51100000000E-03 0. -1.
        -11    1    3    3    0    0  0.68101048040E+01 -0.17716244928E+02  0.10817073229E+02  0.21846096569E+02  0.51100000000E-03 0.  1.
         12    1    3    3    0    0 -0.17360501730E+00  0.13356051916E+01  0.36472819869E+01  0.38880130943E+01  0.00000000000E+00 0. -1.
</event>
<event>
 7    1  0.5764931E-013  0.5052886E+02  0.7816164E-02  0.1300439E+00
        -11   -1    0    0    0    0  0.00000000000E+00  0.00000000000E+00  0.45593999997E+02  0.45594000000E+02  0.51100000000E-03 0.  1.
         11   -1    0    0    0    0 -0.00000000000E+00 -0.00000000000E+00 -0.45593999997E+02  0.45594000000E+02  0.51100000000E-03 0. -1.
    9900012    2    1    2    0    0 -0.20313454895E+02 -0.18519249695E+02  0.29959410169E+02  0.50528864290E+02  0.30000013495E+02 0.  0.
         12    1    1    2    0    0  0.20313454895E+02  0.18519249695E+02 -0.29959410169E+02  0.40659135710E+02  0.00000000000E+00 0. -1.
         11    1    3    3    0    0 -0.10077250995E+02 -0.10954507923E+02 -0.18630378497E+01  0.15000771372E+02  0.51100000000E-03 0. -1.
        -11    1    3    3    0    0 -0.44225333940E+01 -0.71806899858E+01  0.25822547128E+02  0.27164775919E+02  0.51100000000E-03 0.  1.
         12    1    3    3    0    0 -0.58136705057E+01 -0.38405178639E+00  0.59999008906E+01  0.83633169986E+01  0.00000000000E+00 0. -1.
</event>
<event>
 7    1  0.5764931E-013  0.5052886E+02  0.7816164E-02  0.1300439E+00
        -11   -1    0    0    0    0  0.00000000000E+00  0.00000000000E+00  0.45593999997E+02  0.45594000000E+02  0.51100000000E-03 0.  1.
         11   -1    0    0    0    0 -0.00000000000E+00 -0.00000000000E+00 -0.45593999997E+02  0.45594000000E+02  0.51100000000E-03 0. -1.
    9900012    2    1    2    0    0 -0.11048207284E+01 -0.32752577460E+01  0.40511941382E+02  0.50528864044E+02  0.30000012747E+02 0.  0.
         12    1    1    2    0    0  0.11048207284E+01  0.32752577460E+01 -0.40511941382E+02  0.40659135956E+02  0.00000000000E+00 0. -1.
         11    1    3    3    0    0 -0.27723379569E+01 -0.39621259480E+01 -0.98056601178E+00  0.49341473164E+01  0.51100000000E-03 0. -1.
        -11    1    3    3    0    0  0.86190828691E+01  0.53449574721E+01  0.27247408818E+02  0.29073672755E+02  0.51100000000E-03 0.  1.
        -12    1    3    3    0    0 -0.69515656406E+01 -0.46580892701E+01  0.14245098576E+02  0.16521043973E+02  0.00000000000E+00 0.  1.
</event>
<event>
 7    1  0.5764931E-013  0.5052888E+02  0.7816164E-02  0.1300439E+00
        -11   -1    0    0    0    0  0.00000000000E+00  0.00000000000E+00  0.45593999997E+02  0.45594000000E+02  0.51100000000E-03 0. -1.
         11   -1    0    0    0    0 -0.00000000000E+00 -0.00000000000E+00 -0.45593999997E+02  0.45594000000E+02  0.51100000000E-03 0.  1.
    9900012    2    1    2    0    0  0.27638264640E+02  0.29817305723E+02  0.46789822271E+00  0.50528876527E+02  0.30000050690E+02 0.  0.
         12    1    1    2    0    0 -0.27638264640E+02 -0.29817305723E+02 -0.46789822271E+00  0.40659123473E+02  0.00000000000E+00 0. -1.
         11    1    3    3    0    0  0.22009690327E+02  0.25841929431E+02  0.10549228316E+02  0.35545998415E+02  0.51100000000E-03 0. -1.
        -11    1    3    3    0    0 -0.10078603810E+01  0.38942859161E+01 -0.58925038145E+01  0.71346231021E+01  0.51100000000E-03 0.  1.
         12    1    3    3    0    0  0.66364346938E+01  0.81090375641E-01 -0.41888262786E+01  0.78482550090E+01  0.00000000000E+00 0. -1.
</event>
<event>
 7    1  0.5764931E-013  0.5052880E+02  0.7816164E-02  0.1300439E+00
        -11   -1    0    0    0    0  0.00000000000E+00  0.00000000000E+00  0.45593999997E+02  0.45594000000E+02  0.51100000000E-03 0. -1.
         11   -1    0    0    0    0 -0.00000000000E+00 -0.00000000000E+00 -0.45593999997E+02  0.45594000000E+02  0.51100000000E-03 0.  1.
    9900012    2    1    2    0    0  0.23661414675E+02  0.14341682133E+02 -0.29793018554E+02  0.50528802450E+02  0.29999825528E+02 0.  0.
         12    1    1    2    0    0 -0.23661414675E+02 -0.14341682133E+02  0.29793018554E+02  0.40659197550E+02  0.00000000000E+00 0. -1.
         11    1    3    3    0    0  0.22350797289E+02  0.51157527418E+01 -0.58140549205E+01  0.23654435112E+02  0.51100000000E-03 0. -1.
        -11    1    3    3    0    0 -0.80883045917E+00  0.97372029273E+01 -0.17560755388E+02  0.20095956250E+02  0.51100000000E-03 0.  1.
         12    1    3    3    0    0  0.21194478447E+01 -0.51127353648E+00 -0.64182082458E+01  0.67784110883E+01  0.00000000000E+00 0. -1.
</event>
<event>
 7    1  0.5764931E-013  0.5052885E+02  0.7816164E-02  0.1300439E+00
        -11   -1    0    0    0    0  0.00000000000E+00  0.00000000000E+00  0.45593999997E+02  0.45594000000E+02  0.51100000000E-03 0.  1.
         11   -1    0    0    0    0 -0.00000000000E+00 -0.00000000000E+00 -0.45593999997E+02  0.45594000000E+02  0.51100000000E-03 0. -1.
    9900012    2    1    2    0    0 -0.36886328823E+02  0.11148599188E+02  0.12972057555E+02  0.50528846110E+02  0.29999958234E+02 0.  0.
         12    1    1    2    0    0  0.36886328823E+02 -0.11148599188E+02 -0.12972057555E+02  0.40659153890E+02  0.00000000000E+00 0. -1.
         11    1    3    3    0    0 -0.24379391973E+02  0.11338359819E+02 -0.32308057905E+01  0.27080459055E+02  0.51100000000E-03 0. -1.
        -11    1    3    3    0    0 -0.14499420864E+02 -0.12837336112E+01  0.12968713476E+02  0.19495350904E+02  0.51100000000E-03 0.  1.
         12    1    3    3    0    0  0.19924840139E+01  0.10939729807E+01  0.32341498692E+01  0.39530361502E+01  0.00000000000E+00 0. -1.
</event>
<event>
 7    1  0.5764931E-013  0.5052885E+02  0.7816164E-02  0.1300439E+00
        -11   -1    0    0    0    0  0.00000000000E+00  0.00000000000E+00  0.45593999997E+02  0.45594000000E+02  0.51100000000E-03 0.  1.
         11   -1    0    0    0    0 -0.00000000000E+00 -0.00000000000E+00 -0.45593999997E+02  0.45594000000E+02  0.51100000000E-03 0. -1.
    9900012    2    1    2    0    0 -0.29591909631E+02 -0.15604440974E+02  0.23108146651E+02  0.50528854222E+02  0.29999982893E+02 0.  0.
         12    1    1    2    0    0  0.29591909631E+02  0.15604440974E+02 -0.23108146651E+02  0.40659145778E+02  0.00000000000E+00 0. -1.
         11    1    3    3    0    0  0.53032856795E+01 -0.28036478618E+01  0.15398994534E+01  0.61932681937E+01  0.51100000000E-03 0. -1.
        -11    1    3    3    0    0 -0.15966776198E+02 -0.11645644126E+02  0.11497491290E+02  0.22863754624E+02  0.51100000000E-03 0.  1.
         12    1    3    3    0    0 -0.18928419113E+02 -0.11551489861E+01  0.10070755908E+02  0.21471831404E+02  0.00000000000E+00 0. -1.
</event>
<event>
 7    1  0.5764931E-013  0.5052886E+02  0.7816164E-02  0.1300439E+00
        -11   -1    0    0    0    0  0.00000000000E+00  0.00000000000E+00  0.45593999997E+02  0.45594000000E+02  0.51100000000E-03 0. -1.
         11   -1    0    0    0    0 -0.00000000000E+00 -0.00000000000E+00 -0.45593999997E+02  0.45594000000E+02  0.51100000000E-03 0.  1.
    9900012    2    1    2    0    0 -0.32834814372E+02 -0.43542434123E+01 -0.23581378360E+02  0.50528857413E+02  0.29999992593E+02 0.  0.
         12    1    1    2    0    0  0.32834814372E+02  0.43542434123E+01  0.23581378360E+02  0.40659142587E+02  0.00000000000E+00 0. -1.
         11    1    3    3    0    0 -0.16890534340E+02 -0.14447708269E+02 -0.16328469700E+02  0.27579799628E+02  0.51100000000E-03 0. -1.
        -11    1    3    3    0    0 -0.16648456364E+02  0.70957830045E+01 -0.79898953747E+01  0.19782812340E+02  0.51100000000E-03 0.  1.
         12    1    3    3    0    0  0.70417633140E+00  0.29976818526E+01  0.73698671512E+00  0.31662454442E+01  0.00000000000E+00 0. -1.
</event>
<event>
 7    1  0.5764931E-013  0.5052886E+02  0.7816164E-02  0.1300439E+00
        -11   -1    0    0    0    0  0.00000000000E+00  0.00000000000E+00  0.45593999997E+02  0.45594000000E+02  0.51100000000E-03 0.  1.
         11   -1    0    0    0    0 -0.00000000000E+00 -0.00000000000E+00 -0.45593999997E+02  0.45594000000E+02  0.51100000000E-03 0. -1.
    9900012    2    1    2    0    0 -0.73294816263E+01  0.14681596740E+02  0.37200736459E+02  0.50528863550E+02  0.30000011246E+02 0.  0.
         12    1    1    2    0    0  0.73294816263E+01 -0.14681596740E+02 -0.37200736459E+02  0.40659136450E+02  0.00000000000E+00 0. -1.
         11    1    3    3    0    0 -0.87700064380E+01  0.73225833423E+01  0.51097633856E+01  0.12515707005E+02  0.51100000000E-03 0. -1.
        -11    1    3    3    0    0  0.79670361114E+01 -0.17162020932E+01  0.78340502174E+01  0.11304483938E+02  0.51100000000E-03 0.  1.
         12    1    3    3    0    0 -0.65265112997E+01  0.90752154911E+01  0.24256922856E+02  0.26708672607E+02  0.00000000000E+00 0. -1.
</event>
<event>
 7    1  0.5764931E-013  0.5052871E+02  0.7816164E-02  0.1300439E+00
        -11   -1    0    0    0    0  0.00000000000E+00  0.00000000000E+00  0.45593999997E+02  0.45594000000E+02  0.51100000000E-03 0.  1.
         11   -1    0    0    0    0 -0.00000000000E+00 -0.00000000000E+00 -0.45593999997E+02  0.45594000000E+02  0.51100000000E-03 0. -1.
    9900012    2    1    2    0    0  0.23869677955E+02 -0.24231627880E+02  0.22276542354E+02  0.50528712566E+02  0.29999552312E+02 0.  0.
         12    1    1    2    0    0 -0.23869677955E+02  0.24231627880E+02 -0.22276542354E+02  0.40659287434E+02  0.00000000000E+00 0. -1.
         11    1    3    3    0    0  0.10359415647E+02 -0.20394469321E+01 -0.19254448278E+01  0.10732389035E+02  0.51100000000E-03 0. -1.
        -11    1    3    3    0    0  0.39130637796E+01 -0.14903568260E+02  0.23001284808E+02  0.27685510978E+02  0.51100000000E-03 0.  1.
        -12    1    3    3    0    0  0.95971985284E+01 -0.72886126875E+01  0.12007023735E+01  0.12110812553E+02  0.00000000000E+00 0.  1.
</event>
<event>
 7    1  0.5764931E-013  0.5052886E+02  0.7816164E-02  0.1300439E+00
        -11   -1    0    0    0    0  0.00000000000E+00  0.00000000000E+00  0.45593999997E+02  0.45594000000E+02  0.51100000000E-03 0.  1.
         11   -1    0    0    0    0 -0.00000000000E+00 -0.00000000000E+00 -0.45593999997E+02  0.45594000000E+02  0.51100000000E-03 0. -1.
    9900012    2    1    2    0    0 -0.17731464368E+02  0.15230782388E+02  0.33268365266E+02  0.50528859721E+02  0.29999999607E+02 0.  0.
         12    1    1    2    0    0  0.17731464368E+02 -0.15230782388E+02 -0.33268365266E+02  0.40659140279E+02  0.00000000000E+00 0. -1.
         11    1    3    3    0    0 -0.71524547840E+01  0.99689577337E+01  0.62378351165E+01  0.13764022484E+02  0.51100000000E-03 0. -1.
        -11    1    3    3    0    0 -0.53290387015E+01 -0.59521439761E+00  0.28294713237E+02  0.28798328617E+02  0.51100000000E-03 0.  1.
        -12    1    3    3    0    0 -0.52499708824E+01  0.58570390515E+01 -0.12641830876E+01  0.79665086202E+01  0.00000000000E+00 0.  1.
</event>
<event>
 7    1  0.5764931E-013  0.5052881E+02  0.7816164E-02  0.1300439E+00
        -11   -1    0    0    0    0  0.00000000000E+00  0.00000000000E+00  0.45593999997E+02  0.45594000000E+02  0.51100000000E-03 0.  1.
         11   -1    0    0    0    0 -0.00000000000E+00 -0.00000000000E+00 -0.45593999997E+02  0.45594000000E+02  0.51100000000E-03 0. -1.
    9900012    2    1    2    0    0  0.83785785102E+01  0.17594171755E+02  0.35684928975E+02  0.50528811450E+02  0.29999852883E+02 0.  0.
         12    1    1    2    0    0 -0.83785785102E+01 -0.17594171755E+02 -0.35684928975E+02  0.40659188550E+02  0.00000000000E+00 0. -1.
         11    1    3    3    0    0  0.12092278218E+02  0.16586428717E+02  0.29126508258E+02  0.35632657684E+02  0.51100000000E-03 0. -1.
        -11    1    3    3    0    0 -0.80957982223E+00 -0.34211126302E+01  0.85448339694E+01  0.92397845723E+01  0.51100000000E-03 0.  1.
         12    1    3    3    0    0 -0.29041198857E+01  0.44288556684E+01 -0.19864132524E+01  0.56563691933E+01  0.00000000000E+00 0. -1.
</event>
<event>
 7    1  0.5764931E-013  0.5052886E+02  0.7816164E-02  0.1300439E+00
        -11   -1    0    0    0    0  0.00000000000E+00  0.00000000000E+00  0.45593999997E+02  0.45594000000E+02  0.51100000000E-03 0.  1.
         11   -1    0    0    0    0 -0.00000000000E+00 -0.00000000000E+00 -0.45593999997E+02  0.45594000000E+02  0.51100000000E-03 0. -1.
    9900012    2    1    2    0    0 -0.48663611440E+01 -0.19464433540E+02  0.35364101526E+02  0.50528864243E+02  0.30000013352E+02 0.  0.
         12    1    1    2    0    0  0.48663611440E+01  0.19464433540E+02 -0.35364101526E+02  0.40659135757E+02  0.00000000000E+00 0. -1.
         11    1    3    3    0    0  0.19724707950E+01  0.43528091644E+01  0.31522464110E+01  0.57248795931E+01  0.51100000000E-03 0. -1.
        -11    1    3    3    0    0 -0.30968922026E+01 -0.17430813415E+02  0.78929531763E+01  0.19383567982E+02  0.51100000000E-03 0.  1.
        -12    1    3    3    0    0 -0.37419397364E+01 -0.63864292889E+01  0.24318901938E+02  0.25420416667E+02  0.00000000000E+00 0.  1.
</event>
<event>
 7    1  0.5764931E-013  0.5052885E+02  0.7816164E-02  0.1300439E+00
        -11   -1    0    0    0    0  0.00000000000E+00  0.00000000000E+00  0.45593999997E+02  0.45594000000E+02  0.51100000000E-03 0. -1.
         11   -1    0    0    0    0 -0.00000000000E+00 -0.00000000000E+00 -0.45593999997E+02  0.45594000000E+02  0.51100000000E-03 0.  1.
    9900012    2    1    2    0    0  0.12987397548E+02  0.81847875308E+00 -0.38520431918E+02  0.50528854931E+02  0.29999985049E+02 0.  0.
         12    1    1    2    0    0 -0.12987397548E+02 -0.81847875308E+00  0.38520431918E+02  0.40659145069E+02  0.00000000000E+00 0. -1.
         11    1    3    3    0    0 -0.50953088557E+01 -0.14036154753E+01 -0.12569086302E+01  0.54325066317E+01  0.51100000000E-03 0. -1.
        -11    1    3    3    0    0  0.96601668977E+01 -0.42767111321E+01 -0.31000865791E+02  0.32751530691E+02  0.51100000000E-03 0.  1.
        -12    1    3    3    0    0  0.84225395064E+01  0.64988053604E+01 -0.62626574973E+01  0.12344817608E+02  0.00000000000E+00 0.  1.
</event>
<event>
 7    1  0.5764931E-013  0.5052887E+02  0.7816164E-02  0.1300439E+00
        -11   -1    0    0    0    0  0.00000000000E+00  0.00000000000E+00  0.45593999997E+02  0.45594000000E+02  0.51100000000E-03 0. -1.
         11   -1    0    0    0    0 -0.00000000000E+00 -0.00000000000E+00 -0.45593999997E+02  0.45594000000E+02  0.51100000000E-03 0.  1.
    9900012    2    1    2    0    0  0.15243310539E+02  0.36678705986E+02 -0.86878616069E+01  0.50528869066E+02  0.30000028014E+02 0.  0.
         12    1    1    2    0    0 -0.15243310539E+02 -0.36678705986E+02  0.86878616069E+01  0.40659130934E+02  0.00000000000E+00 0. -1.
         11    1    3    3    0    0  0.65972579199E+01  0.27256363827E+02  0.47625801140E+01  0.28444952992E+02  0.51100000000E-03 0. -1.
        -11    1    3    3    0    0  0.88599126978E+01  0.10845139216E+02 -0.73492835399E+01  0.15815405984E+02  0.51100000000E-03 0.  1.
         12    1    3    3    0    0 -0.21386007838E+00 -0.14227970574E+01 -0.61011581809E+01  0.62685100900E+01  0.00000000000E+00 0. -1.
</event>
<event>
 7    1  0.5764931E-013  0.5052883E+02  0.7816164E-02  0.1300439E+00
        -11   -1    0    0    0    0  0.00000000000E+00  0.00000000000E+00  0.45593999997E+02  0.45594000000E+02  0.51100000000E-03 0.  1.
         11   -1    0    0    0    0 -0.00000000000E+00 -0.00000000000E+00 -0.45593999997E+02  0.45594000000E+02  0.51100000000E-03 0. -1.
    9900012    2    1    2    0    0  0.22531964780E+02 -0.31695286012E+02 -0.11869588220E+02  0.50528834776E+02  0.29999923784E+02 0.  0.
         12    1    1    2    0    0 -0.22531964780E+02  0.31695286012E+02  0.11869588220E+02  0.40659165224E+02  0.00000000000E+00 0. -1.
         11    1    3    3    0    0  0.13926382954E+01 -0.21739577032E+02 -0.13112425057E+02  0.25426056361E+02  0.51100000000E-03 0. -1.
        -11    1    3    3    0    0  0.53773961740E+01 -0.72190567163E+01 -0.46754611795E+00  0.90138653817E+01  0.51100000000E-03 0.  1.
         12    1    3    3    0    0  0.15761930311E+02 -0.27366522641E+01  0.17103829551E+01  0.16088913033E+02  0.00000000000E+00 0. -1.
</event>
<event>
 7    1  0.5764931E-013  0.5052885E+02  0.7816164E-02  0.1300439E+00
        -11   -1    0    0    0    0  0.00000000000E+00  0.00000000000E+00  0.45593999997E+02  0.45594000000E+02  0.51100000000E-03 0.  1.
         11   -1    0    0    0    0 -0.00000000000E+00 -0.00000000000E+00 -0.45593999997E+02  0.45594000000E+02  0.51100000000E-03 0. -1.
    9900012    2    1    2    0    0 -0.34729227504E+02 -0.18917381081E+02  0.94434982676E+01  0.50528853311E+02  0.29999980123E+02 0.  0.
         12    1    1    2    0    0  0.34729227504E+02  0.18917381081E+02 -0.94434982676E+01  0.40659146689E+02  0.00000000000E+00 0. -1.
         11    1    3    3    0    0 -0.12918242708E+02 -0.12081506720E+02 -0.60512574581E+01  0.18693889814E+02  0.51100000000E-03 0. -1.
        -11    1    3    3    0    0 -0.88315187394E+01  0.47410773058E+01  0.82971665214E+01  0.13012167760E+02  0.51100000000E-03 0.  1.
        -12    1    3    3    0    0 -0.12979466057E+02 -0.11576951666E+02  0.71975892043E+01  0.18822795737E+02  0.00000000000E+00 0.  1.
</event>
<event>
 7    1  0.5764931E-013  0.5052889E+02  0.7816164E-02  0.1300439E+00
        -11   -1    0    0    0    0  0.00000000000E+00  0.00000000000E+00  0.45593999997E+02  0.45594000000E+02  0.51100000000E-03 0. -1.
         11   -1    0    0    0    0 -0.00000000000E+00 -0.00000000000E+00 -0.45593999997E+02  0.45594000000E+02  0.51100000000E-03 0.  1.
    9900012    2    1    2    0    0  0.25603150716E+02  0.31489487546E+02 -0.24604665828E+01  0.50528892185E+02  0.30000098285E+02 0.  0.
         12    1    1    2    0    0 -0.25603150716E+02 -0.31489487546E+02  0.24604665828E+01  0.40659107815E+02  0.00000000000E+00 0. -1.
         11    1    3    3    0    0 -0.31369706319E+01 -0.26183580002E+01  0.31067739818E-01  0.40862389588E+01  0.51100000000E-03 0. -1.
        -11    1    3    3    0    0  0.10406955255E+02  0.19614861541E+02  0.30814406824E+01  0.22417466135E+02  0.51100000000E-03 0.  1.
         12    1    3    3    0    0  0.18333166093E+02  0.14492984005E+02 -0.55729750050E+01  0.24025187091E+02  0.00000000000E+00 0. -1.
</event>
<event>
 7    1  0.5764931E-013  0.5052886E+02  0.7816164E-02  0.1300439E+00
        -11   -1    0    0    0    0  0.00000000000E+00  0.00000000000E+00  0.45593999997E+02  0.45594000000E+02  0.51100000000E-03 0.  1.
         11   -1    0    0    0    0 -0.00000000000E+00 -0.00000000000E+00 -0.45593999997E+02  0.45594000000E+02  0.51100000000E-03 0. -1.
    9900012    2    1    2    0    0  0.25433988103E+02 -0.12737335587E+02  0.29052334983E+02  0.50528860356E+02  0.30000001537E+02 0.  0.
         12    1    1    2    0    0 -0.25433988103E+02  0.12737335587E+02 -0.29052334983E+02  0.40659139644E+02  0.00000000000E+00 0. -1.
         11    1    3    3    0    0  0.30043251983E+02 -0.54242352198E+01  0.17340964441E+02  0.35110231634E+02  0.51100000000E-03 0. -1.
        -11    1    3    3    0    0 -0.29471619160E+01 -0.20487970706E+01  0.79951051590E+01  0.87638484446E+01  0.51100000000E-03 0.  1.
         12    1    3    3    0    0 -0.16621019641E+01 -0.52643032962E+01  0.37162653833E+01  0.66547802768E+01  0.00000000000E+00 0. -1.
</event>
<event>
 7    1  0.5764931E-013  0.5052885E+02  0.7816164E-02  0.1300439E+00
        -11   -1    0    0    0    0  0.00000000000E+00  0.00000000000E+00  0.45593999997E+02  0.45594000000E+02  0.51100000000E-03 0.  1.
         11   -1    0    0    0    0 -0.00000000000E+00 -0.00000000000E+00 -0.45593999997E+02  0.45594000000E+02  0.51100000000E-03 0. -1.
    9900012    2    1    2    0    0  0.25552093717E+02  0.23483361100E+02  0.21184631635E+02  0.50528851467E+02  0.29999974520E+02 0.  0.
         12    1    1    2    0    0 -0.25552093717E+02 -0.23483361100E+02 -0.21184631635E+02  0.40659148533E+02  0.00000000000E+00 0. -1.
         11    1    3    3    0    0 -0.20924762776E+01  0.51953104534E+01  0.25557374360E+01  0.61564195587E+01  0.51100000000E-03 0. -1.
        -11    1    3    3    0    0  0.16038317529E+02  0.21510210229E-01  0.34673720078E+00  0.16042079628E+02  0.51100000000E-03 0.  1.
        -12    1    3    3    0    0  0.11606252465E+02  0.18266540437E+02  0.18282156998E+02  0.28330352280E+02  0.00000000000E+00 0.  1.
</event>
<event>
 7    1  0.5764931E-013  0.5052886E+02  0.7816164E-02  0.1300439E+00
        -11   -1    0    0    0    0  0.00000000000E+00  0.00000000000E+00  0.45593999997E+02  0.45594000000E+02  0.51100000000E-03 0.  1.
         11   -1    0    0    0    0 -0.00000000000E+00 -0.00000000000E+00 -0.45593999997E+02  0.45594000000E+02  0.51100000000E-03 0. -1.
    9900012    2    1    2    0    0  0.39760674137E+02 -0.52202155395E+01  0.67084636797E+01  0.50528863965E+02  0.30000012510E+02 0.  0.
         12    1    1    2    0    0 -0.39760674137E+02  0.52202155395E+01 -0.67084636797E+01  0.40659136035E+02  0.00000000000E+00 0. -1.
         11    1    3    3    0    0  0.32607065330E+02  0.52700062719E+00  0.32231723005E+01  0.32770219392E+02  0.51100000000E-03 0. -1.
        -11    1    3    3    0    0 -0.23357272447E+01  0.16050167847E+01 -0.29896642098E+01  0.41194408588E+01  0.51100000000E-03 0.  1.
        -12    1    3    3    0    0  0.94893360524E+01 -0.73522329514E+01  0.64749555890E+01  0.13639203715E+02  0.00000000000E+00 0.  1.
</event>
<event>
 7    1  0.5764931E-013  0.5052886E+02  0.7816164E-02  0.1300439E+00
        -11   -1    0    0    0    0  0.00000000000E+00  0.00000000000E+00  0.45593999997E+02  0.45594000000E+02  0.51100000000E-03 0.  1.
         11   -1    0    0    0    0 -0.00000000000E+00 -0.00000000000E+00 -0.45593999997E+02  0.45594000000E+02  0.51100000000E-03 0. -1.
    9900012    2    1    2    0    0  0.26753756451E+02 -0.12420412124E+02  0.27984556307E+02  0.50528861873E+02  0.30000006148E+02 0.  0.
         12    1    1    2    0    0 -0.26753756451E+02  0.12420412124E+02 -0.27984556307E+02  0.40659138127E+02  0.00000000000E+00 0. -1.
         11    1    3    3    0    0  0.20819882647E+02 -0.86292221373E+00  0.10485897292E+02  0.23327369986E+02  0.51100000000E-03 0. -1.
        -11    1    3    3    0    0  0.57370675891E+00 -0.13794768188E+02  0.76946688557E+01  0.15806096857E+02  0.51100000000E-03 0.  1.
         12    1    3    3    0    0  0.53601670457E+01  0.22372782775E+01  0.98039901588E+01  0.11395395030E+02  0.00000000000E+00 0. -1.
</event>
<event>
 7    1  0.5764931E-013  0.5052887E+02  0.7816164E-02  0.1300439E+00
        -11   -1    0    0    0    0  0.00000000000E+00  0.00000000000E+00  0.45593999997E+02  0.45594000000E+02  0.51100000000E-03 0.  1.
         11   -1    0    0    0    0 -0.00000000000E+00 -0.00000000000E+00 -0.45593999997E+02  0.45594000000E+02  0.51100000000E-03 0. -1.
    9900012    2    1    2    0    0  0.16751380265E+02 -0.31172987313E+02 -0.20020022634E+02  0.50528865909E+02  0.30000018417E+02 0.  0.
         12    1    1    2    0    0 -0.16751380265E+02  0.31172987313E+02  0.20020022634E+02  0.40659134091E+02  0.00000000000E+00 0. -1.
         11    1    3    3    0    0  0.12415978362E+02 -0.10421064744E+01 -0.11214971177E+02  0.16763593987E+02  0.51100000000E-03 0. -1.
        -11    1    3    3    0    0  0.36918164340E+01 -0.20758450463E+02 -0.29019873335E+00  0.21086180066E+02  0.51100000000E-03 0.  1.
        -12    1    3    3    0    0  0.64358546856E+00 -0.93724303755E+01 -0.85148527238E+01  0.12679091857E+02  0.00000000000E+00 0.  1.
</event>
<event>
 7    1  0.5764931E-013  0.5052886E+02  0.7816164E-02  0.1300439E+00
        -11   -1    0    0    0    0  0.00000000000E+00  0.00000000000E+00  0.45593999997E+02  0.45594000000E+02  0.51100000000E-03 0. -1.
         11   -1    0    0    0    0 -0.00000000000E+00 -0.00000000000E+00 -0.45593999997E+02  0.45594000000E+02  0.51100000000E-03 0.  1.
    9900012    2    1    2    0    0  0.16286566581E+02  0.37253201068E+02 -0.33558753145E+00  0.50528857611E+02  0.29999993194E+02 0.  0.
         12    1    1    2    0    0 -0.16286566581E+02 -0.37253201068E+02  0.33558753145E+00  0.40659142389E+02  0.00000000000E+00 0. -1.
         11    1    3    3    0    0 -0.54053062600E+01  0.18336304979E+02 -0.14135706380E+00  0.19116940083E+02  0.51100000000E-03 0. -1.
        -11    1    3    3    0    0  0.81336933506E+01  0.13455348632E+02  0.39647394247E+01  0.16214886163E+02  0.51100000000E-03 0.  1.
         12    1    3    3    0    0  0.13558179491E+02  0.54615474572E+01 -0.41589698924E+01  0.15197031364E+02  0.00000000000E+00 0. -1.
</event>
<event>
 7    1  0.5764931E-013  0.5052887E+02  0.7816164E-02  0.1300439E+00
        -11   -1    0    0    0    0  0.00000000000E+00  0.00000000000E+00  0.45593999997E+02  0.45594000000E+02  0.51100000000E-03 0. -1.
         11   -1    0    0    0    0 -0.00000000000E+00 -0.00000000000E+00 -0.45593999997E+02  0.45594000000E+02  0.51100000000E-03 0.  1.
    9900012    2    1    2    0    0  0.36055484523E+02 -0.18178507328E+02 -0.47653429255E+01  0.50528873275E+02  0.30000040806E+02 0.  0.
         12    1    1    2    0    0 -0.36055484523E+02  0.18178507328E+02  0.47653429255E+01  0.40659126725E+02  0.00000000000E+00 0. -1.
         11    1    3    3    0    0  0.13136406502E+02 -0.23608690675E+01 -0.98456944223E+01  0.16585432688E+02  0.51100000000E-03 0. -1.
        -11    1    3    3    0    0  0.24782938811E+02 -0.14814093644E+02  0.83429955713E+01  0.30054234343E+02  0.51100000000E-03 0.  1.
         12    1    3    3    0    0 -0.18638607902E+01 -0.10035446167E+01 -0.32626440745E+01  0.38892062430E+01  0.00000000000E+00 0. -1.
</event>
<event>
 7    1  0.5764931E-013  0.5052881E+02  0.7816164E-02  0.1300439E+00
        -11   -1    0    0    0    0  0.00000000000E+00  0.00000000000E+00  0.45593999997E+02  0.45594000000E+02  0.51100000000E-03 0.  1.
         11   -1    0    0    0    0 -0.00000000000E+00 -0.00000000000E+00 -0.45593999997E+02  0.45594000000E+02  0.51100000000E-03 0. -1.
    9900012    2    1    2    0    0  0.30789130055E+02 -0.21648223392E+02  0.15380311731E+02  0.50528805536E+02  0.29999834905E+02 0.  0.
         12    1    1    2    0    0 -0.30789130055E+02  0.21648223392E+02 -0.15380311731E+02  0.40659194464E+02  0.00000000000E+00 0. -1.
         11    1    3    3    0    0  0.45436441154E+01 -0.15790389758E+01 -0.54111380258E+01  0.72400608374E+01  0.51100000000E-03 0. -1.
        -11    1    3    3    0    0  0.32328220940E+01 -0.92260064206E+01  0.13789796126E+02  0.16903514741E+02  0.51100000000E-03 0.  1.
        -12    1    3    3    0    0  0.23012663845E+02 -0.10843177995E+02  0.70016536310E+01  0.26385229957E+02  0.00000000000E+00 0.  1.
</event>
<event>
 7    1  0.5764931E-013  0.5052886E+02  0.7816164E-02  0.1300439E+00
        -11   -1    0    0    0    0  0.00000000000E+00  0.00000000000E+00  0.45593999997E+02  0.45594000000E+02  0.51100000000E-03 0. -1.
         11   -1    0    0    0    0 -0.00000000000E+00 -0.00000000000E+00 -0.45593999997E+02  0.45594000000E+02  0.51100000000E-03 0.  1.
    9900012    2    1    2    0    0  0.39843610170E+02 -0.79650130987E+01  0.14869408089E+01  0.50528859600E+02  0.29999999241E+02 0.  0.
         12    1    1    2    0    0 -0.39843610170E+02  0.79650130987E+01 -0.14869408089E+01  0.40659140400E+02  0.00000000000E+00 0. -1.
         11    1    3    3    0    0 -0.20866969507E+01  0.25319592318E+01 -0.37707548148E+01  0.49983711196E+01  0.51100000000E-03 0. -1.
        -11    1    3    3    0    0  0.31107433968E+02 -0.17630738005E+01  0.18530242934E+01  0.31212410618E+02  0.51100000000E-03 0.  1.
         12    1    3    3    0    0  0.10822873153E+02 -0.87338985299E+01  0.34046713302E+01  0.14318077863E+02  0.00000000000E+00 0. -1.
</event>
<event>
 7    1  0.5764931E-013  0.5052888E+02  0.7816164E-02  0.1300439E+00
        -11   -1    0    0    0    0  0.00000000000E+00  0.00000000000E+00  0.45593999997E+02  0.45594000000E+02  0.51100000000E-03 0. -1.
         11   -1    0    0    0    0 -0.00000000000E+00 -0.00000000000E+00 -0.45593999997E+02  0.45594000000E+02  0.51100000000E-03 0.  1.
    9900012    2    1    2    0    0  0.11154811293E+00 -0.40278511679E+02  0.55491850651E+01  0.50528875551E+02  0.30000047724E+02 0.  0.
         12    1    1    2    0    0 -0.11154811293E+00  0.40278511679E+02 -0.55491850651E+01  0.40659124449E+02  0.00000000000E+00 0. -1.
         11    1    3    3    0    0 -0.12582607975E+02 -0.13606513490E+02  0.80150367106E+01  0.20191583557E+02  0.51100000000E-03 0. -1.
        -11    1    3    3    0    0  0.68957399006E+01 -0.12746930784E+02 -0.43612754277E+01  0.15134602632E+02  0.51100000000E-03 0.  1.
         12    1    3    3    0    0  0.57984161878E+01 -0.13925067405E+02  0.18954237822E+01  0.15202689362E+02  0.00000000000E+00 0. -1.
</event>
<event>
 7    1  0.5764931E-013  0.5052888E+02  0.7816164E-02  0.1300439E+00
        -11   -1    0    0    0    0  0.00000000000E+00  0.00000000000E+00  0.45593999997E+02  0.45594000000E+02  0.51100000000E-03 0.  1.
         11   -1    0    0    0    0 -0.00000000000E+00 -0.00000000000E+00 -0.45593999997E+02  0.45594000000E+02  0.51100000000E-03 0. -1.
    9900012    2    1    2    0    0 -0.32799915757E+01 -0.53947893648E+01  0.40165932055E+02  0.50528878085E+02  0.30000055427E+02 0.  0.
         12    1    1    2    0    0  0.32799915757E+01  0.53947893648E+01 -0.40165932055E+02  0.40659121915E+02  0.00000000000E+00 0. -1.
         11    1    3    3    0    0 -0.60464028562E+01  0.10008101543E+02  0.18727509401E+02  0.22078059077E+02  0.51100000000E-03 0. -1.
        -11    1    3    3    0    0  0.55571391123E+01 -0.58867110630E+01  0.58991141228E+01  0.10016721517E+02  0.51100000000E-03 0.  1.
         12    1    3    3    0    0 -0.27907278318E+01 -0.95161798445E+01  0.15539308531E+02  0.18434097491E+02  0.00000000000E+00 0. -1.
</event>
<event>
 7    1  0.5764931E-013  0.5052886E+02  0.7816164E-02  0.1300439E+00
        -11   -1    0    0    0    0  0.00000000000E+00  0.00000000000E+00  0.45593999997E+02  0.45594000000E+02  0.51100000000E-03 0.  1.
         11   -1    0    0    0    0 -0.00000000000E+00 -0.00000000000E+00 -0.45593999997E+02  0.45594000000E+02  0.51100000000E-03 0. -1.
    9900012    2    1    2    0    0 -0.79382149733E+01 -0.36705118445E+02 -0.15584752073E+02  0.50528862353E+02  0.30000007607E+02 0.  0.
         12    1    1    2    0    0  0.79382149733E+01  0.36705118445E+02  0.15584752073E+02  0.40659137647E+02  0.00000000000E+00 0. -1.
         11    1    3    3    0    0 -0.53053966876E+01 -0.17980071334E+02 -0.17511646604E+02  0.25653225260E+02  0.51100000000E-03 0. -1.
        -11    1    3    3    0    0 -0.77548500529E+01 -0.15124511940E+02  0.52479051647E+01  0.17788453268E+02  0.51100000000E-03 0.  1.
         12    1    3    3    0    0  0.51220317672E+01 -0.36005351709E+01 -0.33210106338E+01  0.70871838251E+01  0.00000000000E+00 0. -1.
</event>
<event>
 7    1  0.5764931E-013  0.5052886E+02  0.7816164E-02  0.1300439E+00
        -11   -1    0    0    0    0  0.00000000000E+00  0.00000000000E+00  0.45593999997E+02  0.45594000000E+02  0.51100000000E-03 0.  1.
         11   -1    0    0    0    0 -0.00000000000E+00 -0.00000000000E+00 -0.45593999997E+02  0.45594000000E+02  0.51100000000E-03 0. -1.
    9900012    2    1    2    0    0 -0.27744312730E+02 -0.25320046848E+02  0.15566431629E+02  0.50528862590E+02  0.30000008330E+02 0.  0.
         12    1    1    2    0    0  0.27744312730E+02  0.25320046848E+02 -0.15566431629E+02  0.40659137410E+02  0.00000000000E+00 0. -1.
         11    1    3    3    0    0 -0.25131000547E+02 -0.25002179667E+02  0.20479923384E+02  0.40940242289E+02  0.51100000000E-03 0. -1.
        -11    1    3    3    0    0 -0.80312329545E+00  0.35771778023E+01 -0.10553181653E+01  0.38150890878E+01  0.51100000000E-03 0.  1.
         12    1    3    3    0    0 -0.18101888872E+01 -0.38950449830E+01 -0.38581735895E+01  0.57735312136E+01  0.00000000000E+00 0. -1.
</event>
<event>
 7    1  0.5764931E-013  0.5052886E+02  0.7816164E-02  0.1300439E+00
        -11   -1    0    0    0    0  0.00000000000E+00  0.00000000000E+00  0.45593999997E+02  0.45594000000E+02  0.51100000000E-03 0.  1.
         11   -1    0    0    0    0 -0.00000000000E+00 -0.00000000000E+00 -0.45593999997E+02  0.45594000000E+02  0.51100000000E-03 0. -1.
    9900012    2    1    2    0    0 -0.27027750290E+02 -0.26134251905E+02 -0.15481195432E+02  0.50528858096E+02  0.29999994668E+02 0.  0.
         12    1    1    2    0    0  0.27027750290E+02  0.26134251905E+02  0.15481195432E+02  0.40659141904E+02  0.00000000000E+00 0. -1.
         11    1    3    3    0    0 -0.13250902286E+01 -0.93528966555E+01 -0.10243736637E+02  0.13934370474E+02  0.51100000000E-03 0. -1.
        -11    1    3    3    0    0 -0.23181786684E+02 -0.96507010219E+01  0.31424714416E+01  0.25306252016E+02  0.51100000000E-03 0.  1.
        -12    1    3    3    0    0 -0.25208733769E+01 -0.71306542279E+01 -0.83799302367E+01  0.11288235605E+02  0.00000000000E+00 0.  1.
</event>
<event>
 7    1  0.5764931E-013  0.5052885E+02  0.7816164E-02  0.1300439E+00
        -11   -1    0    0    0    0  0.00000000000E+00  0.00000000000E+00  0.45593999997E+02  0.45594000000E+02  0.51100000000E-03 0.  1.
         11   -1    0    0    0    0 -0.00000000000E+00 -0.00000000000E+00 -0.45593999997E+02  0.45594000000E+02  0.51100000000E-03 0. -1.
    9900012    2    1    2    0    0 -0.16694219827E+02 -0.13578501077E+02  0.34497741171E+02  0.50528845889E+02  0.29999957564E+02 0.  0.
         12    1    1    2    0    0  0.16694219827E+02  0.13578501077E+02 -0.34497741171E+02  0.40659154111E+02  0.00000000000E+00 0. -1.
         11    1    3    3    0    0  0.75059467200E+01 -0.86131708058E+01  0.12352999875E+02  0.16826245976E+02  0.51100000000E-03 0. -1.
        -11    1    3    3    0    0 -0.11995541556E+02 -0.10604102354E+00  0.13045451270E+02  0.17722529758E+02  0.51100000000E-03 0.  1.
         12    1    3    3    0    0 -0.12204624991E+02 -0.48592892481E+01  0.90992900263E+01  0.15980070155E+02  0.00000000000E+00 0. -1.
</event>
<event>
 7    1  0.5764931E-013  0.5052886E+02  0.7816164E-02  0.1300439E+00
        -11   -1    0    0    0    0  0.00000000000E+00  0.00000000000E+00  0.45593999997E+02  0.45594000000E+02  0.51100000000E-03 0.  1.
         11   -1    0    0    0    0 -0.00000000000E+00 -0.00000000000E+00 -0.45593999997E+02  0.45594000000E+02  0.51100000000E-03 0. -1.
    9900012    2    1    2    0    0  0.36840162695E+02 -0.62270465483E+01  0.16037193241E+02  0.50528864949E+02  0.30000015498E+02 0.  0.
         12    1    1    2    0    0 -0.36840162695E+02  0.62270465483E+01 -0.16037193241E+02  0.40659135051E+02  0.00000000000E+00 0. -1.
         11    1    3    3    0    0  0.12888432080E+02  0.80823568310E+01  0.75406289050E+01  0.16979318537E+02  0.51100000000E-03 0. -1.
        -11    1    3    3    0    0  0.14694128150E+02 -0.14946685508E+02  0.11357101548E+02  0.23839139364E+02  0.51100000000E-03 0.  1.
        -12    1    3    3    0    0  0.92576024644E+01  0.63728212828E+00 -0.28605372127E+01  0.97104070484E+01  0.00000000000E+00 0.  1.
</event>
<event>
 7    1  0.5764931E-013  0.5052887E+02  0.7816164E-02  0.1300439E+00
        -11   -1    0    0    0    0  0.00000000000E+00  0.00000000000E+00  0.45593999997E+02  0.45594000000E+02  0.51100000000E-03 0. -1.
         11   -1    0    0    0    0 -0.00000000000E+00 -0.00000000000E+00 -0.45593999997E+02  0.45594000000E+02  0.51100000000E-03 0.  1.
    9900012    2    1    2    0    0  0.26085411754E+02  0.29607460021E+02 -0.98038173992E+01  0.50528865345E+02  0.30000016704E+02 0.  0.
         12    1    1    2    0    0 -0.26085411754E+02 -0.29607460021E+02  0.98038173992E+01  0.40659134655E+02  0.00000000000E+00 0. -1.
         11    1    3    3    0    0  0.38013899899E+01  0.13948699495E-03  0.26334492447E+01  0.46244590019E+01  0.51100000000E-03 0. -1.
        -11    1    3    3    0    0  0.84560960445E+01  0.26146897798E+02 -0.15171609837E+02  0.31390182702E+02  0.51100000000E-03 0.  1.
        -12    1    3    3    0    0  0.13827925719E+02  0.34604227365E+01  0.27343431935E+01  0.14514223642E+02  0.00000000000E+00 0.  1.
</event>
<event>
 7    1  0.5764931E-013  0.5052886E+02  0.7816164E-02  0.1300439E+00
        -11   -1    0    0    0    0  0.00000000000E+00  0.00000000000E+00  0.45593999997E+02  0.45594000000E+02  0.51100000000E-03 0.  1.
         11   -1    0    0    0    0 -0.00000000000E+00 -0.00000000000E+00 -0.45593999997E+02  0.45594000000E+02  0.51100000000E-03 0. -1.
    9900012    2    1    2    0    0  0.13720362487E+02 -0.13035770906E+02  0.35985915362E+02  0.50528858663E+02  0.29999996391E+02 0.  0.
         12    1    1    2    0    0 -0.13720362487E+02  0.13035770906E+02 -0.35985915362E+02  0.40659141337E+02  0.00000000000E+00 0. -1.
         11    1    3    3    0    0  0.43803486343E+01 -0.12293585437E+02  0.61276339406E+01  0.14417614054E+02  0.51100000000E-03 0.  1.
        -11    1    3    3    0    0  0.12348773359E+02 -0.50588075058E+00  0.30601521639E+02  0.33003049037E+02  0.51100000000E-03 0. -1.
         12    1    3    3    0    0 -0.30087595070E+01 -0.23630471832E+00 -0.74324021820E+00  0.31081955718E+01  0.00000000000E+00 0. -1.
</event>
<event>
 7    1  0.5764931E-013  0.5052886E+02  0.7816164E-02  0.1300439E+00
        -11   -1    0    0    0    0  0.00000000000E+00  0.00000000000E+00  0.45593999997E+02  0.45594000000E+02  0.51100000000E-03 0. -1.
         11   -1    0    0    0    0 -0.00000000000E+00 -0.00000000000E+00 -0.45593999997E+02  0.45594000000E+02  0.51100000000E-03 0.  1.
    9900012    2    1    2    0    0  0.19797675105E+02 -0.34863892211E+02  0.67621634184E+01  0.50528858669E+02  0.29999996412E+02 0.  0.
         12    1    1    2    0    0 -0.19797675105E+02  0.34863892211E+02 -0.67621634184E+01  0.40659141331E+02  0.00000000000E+00 0. -1.
         11    1    3    3    0    0 -0.41336830923E+01 -0.13650446645E+02  0.30413881619E+01  0.14583280554E+02  0.51100000000E-03 0. -1.
        -11    1    3    3    0    0  0.16174764664E+02 -0.21548350620E+02  0.64698028248E+01  0.27709434769E+02  0.51100000000E-03 0.  1.
         12    1    3    3    0    0  0.77565935338E+01  0.33490505454E+00 -0.27490275683E+01  0.82361433460E+01  0.00000000000E+00 0. -1.
</event>
<event>
 7    1  0.5764931E-013  0.5052886E+02  0.7816164E-02  0.1300439E+00
        -11   -1    0    0    0    0  0.00000000000E+00  0.00000000000E+00  0.45593999997E+02  0.45594000000E+02  0.51100000000E-03 0. -1.
         11   -1    0    0    0    0 -0.00000000000E+00 -0.00000000000E+00 -0.45593999997E+02  0.45594000000E+02  0.51100000000E-03 0.  1.
    9900012    2    1    2    0    0 -0.26788931545E+02 -0.24052214052E+02 -0.18894697051E+02  0.50528862887E+02  0.30000009232E+02 0.  0.
         12    1    1    2    0    0  0.26788931545E+02  0.24052214052E+02  0.18894697051E+02  0.40659137113E+02  0.00000000000E+00 0. -1.
         11    1    3    3    0    0 -0.54407153681E+00  0.42980029882E+01  0.27738242683E+01  0.51442146977E+01  0.51100000000E-03 0. -1.
        -11    1    3    3    0    0 -0.23788588324E+02 -0.28796331155E+02 -0.19869198680E+02  0.42307335994E+02  0.51100000000E-03 0.  1.
        -12    1    3    3    0    0 -0.24562716840E+01  0.44611411546E+00 -0.17993226388E+01  0.30773121954E+01  0.00000000000E+00 0.  1.
</event>
<event>
 7    1  0.5764931E-013  0.5052885E+02  0.7816164E-02  0.1300439E+00
        -11   -1    0    0    0    0  0.00000000000E+00  0.00000000000E+00  0.45593999997E+02  0.45594000000E+02  0.51100000000E-03 0.  1.
         11   -1    0    0    0    0 -0.00000000000E+00 -0.00000000000E+00 -0.45593999997E+02  0.45594000000E+02  0.51100000000E-03 0. -1.
    9900012    2    1    2    0    0 -0.24658893461E+02 -0.22582463336E+02  0.23133048217E+02  0.50528848547E+02  0.29999965644E+02 0.  0.
         12    1    1    2    0    0  0.24658893461E+02  0.22582463336E+02 -0.23133048217E+02  0.40659151453E+02  0.00000000000E+00 0. -1.
         11    1    3    3    0    0  0.47636539861E+01 -0.32876895738E+01  0.84574407962E+01  0.10248395343E+02  0.51100000000E-03 0. -1.
        -11    1    3    3    0    0 -0.27233759526E+02 -0.12257765619E+02  0.97502832428E+01  0.31416532264E+02  0.51100000000E-03 0.  1.
        -12    1    3    3    0    0 -0.21887879205E+01 -0.70370081428E+01  0.49253241783E+01  0.88639209396E+01  0.00000000000E+00 0.  1.
</event>
<event>
 7    1  0.5764931E-013  0.5052886E+02  0.7816164E-02  0.1300439E+00
        -11   -1    0    0    0    0  0.00000000000E+00  0.00000000000E+00  0.45593999997E+02  0.45594000000E+02  0.51100000000E-03 0.  1.
         11   -1    0    0    0    0 -0.00000000000E+00 -0.00000000000E+00 -0.45593999997E+02  0.45594000000E+02  0.51100000000E-03 0. -1.
    9900012    2    1    2    0    0 -0.31494434219E+02  0.24967785344E+02  0.61543368306E+01  0.50528861376E+02  0.30000004639E+02 0.  0.
         12    1    1    2    0    0  0.31494434219E+02 -0.24967785344E+02 -0.61543368306E+01  0.40659138624E+02  0.00000000000E+00 0. -1.
         11    1    3    3    0    0 -0.79614811256E+01 -0.45913001497E+00 -0.51595068094E+01  0.94982363027E+01  0.51100000000E-03 0. -1.
        -11    1    3    3    0    0 -0.10148622341E+02  0.60791582907E+01  0.12835144359E+02  0.17455418411E+02  0.51100000000E-03 0.  1.
        -12    1    3    3    0    0 -0.13384330753E+02  0.19347757069E+02 -0.15213007188E+01  0.23575206662E+02  0.00000000000E+00 0.  1.
</event>
<event>
 7    1  0.5764931E-013  0.5052886E+02  0.7816164E-02  0.1300439E+00
        -11   -1    0    0    0    0  0.00000000000E+00  0.00000000000E+00  0.45593999997E+02  0.45594000000E+02  0.51100000000E-03 0. -1.
         11   -1    0    0    0    0 -0.00000000000E+00 -0.00000000000E+00 -0.45593999997E+02  0.45594000000E+02  0.51100000000E-03 0.  1.
    9900012    2    1    2    0    0  0.21412377181E+02  0.65229373623E+01 -0.33942999095E+02  0.50528858397E+02  0.29999995582E+02 0.  0.
         12    1    1    2    0    0 -0.21412377181E+02 -0.65229373623E+01  0.33942999095E+02  0.40659141603E+02  0.00000000000E+00 0. -1.
         11    1    3    3    0    0 -0.52567762164E+00  0.30228068389E+01  0.47532592149E+01  0.56574880974E+01  0.51100000000E-03 0. -1.
        -11    1    3    3    0    0  0.10566694673E+02  0.31007633313E+01 -0.22826856125E+02  0.25344331326E+02  0.51100000000E-03 0.  1.
         12    1    3    3    0    0  0.11371360130E+02  0.39936719205E+00 -0.15869402185E+02  0.19527038973E+02  0.00000000000E+00 0. -1.
</event>
<event>
 7    1  0.5764931E-013  0.5052886E+02  0.7816164E-02  0.1300439E+00
        -11   -1    0    0    0    0  0.00000000000E+00  0.00000000000E+00  0.45593999997E+02  0.45594000000E+02  0.51100000000E-03 0. -1.
         11   -1    0    0    0    0 -0.00000000000E+00 -0.00000000000E+00 -0.45593999997E+02  0.45594000000E+02  0.51100000000E-03 0.  1.
    9900012    2    1    2    0    0 -0.13516481009E+02  0.74695519345E+01 -0.37612184834E+02  0.50528856957E+02  0.29999991207E+02 0.  0.
         12    1    1    2    0    0  0.13516481009E+02 -0.74695519345E+01  0.37612184834E+02  0.40659143043E+02  0.00000000000E+00 0. -1.
         11    1    3    3    0    0 -0.64990889245E+01  0.48170005714E+01 -0.95019282186E+00  0.81452144241E+01  0.51100000000E-03 0.  1.
        -11    1    3    3    0    0 -0.70081407427E+01 -0.76429598308E+01 -0.13388419417E+02  0.16934540040E+02  0.51100000000E-03 0. -1.
        -12    1    3    3    0    0 -0.92513421025E-02  0.10295511194E+02 -0.23273572596E+02  0.25449102493E+02  0.00000000000E+00 0.  1.
</event>
<event>
 7    1  0.5764931E-013  0.5052882E+02  0.7816164E-02  0.1300439E+00
        -11   -1    0    0    0    0  0.00000000000E+00  0.00000000000E+00  0.45593999997E+02  0.45594000000E+02  0.51100000000E-03 0. -1.
         11   -1    0    0    0    0 -0.00000000000E+00 -0.00000000000E+00 -0.45593999997E+02  0.45594000000E+02  0.51100000000E-03 0.  1.
    9900012    2    1    2    0    0 -0.24411802936E+02 -0.28983635908E+02 -0.14737082094E+02  0.50528820696E+02  0.29999880987E+02 0.  0.
         12    1    1    2    0    0  0.24411802936E+02  0.28983635908E+02  0.14737082094E+02  0.40659179304E+02  0.00000000000E+00 0. -1.
         11    1    3    3    0    0 -0.30104799495E+01 -0.21883979768E+02 -0.27860407086E+00  0.22091835155E+02  0.51100000000E-03 0. -1.
        -11    1    3    3    0    0 -0.18874180741E+02 -0.74994214386E+01 -0.15625496343E+02  0.25624834766E+02  0.51100000000E-03 0.  1.
         12    1    3    3    0    0 -0.25271422459E+01  0.39976529865E+00  0.11670183197E+01  0.28121507753E+01  0.00000000000E+00 0. -1.
</event>
<event>
 7    1  0.5764931E-013  0.5052885E+02  0.7816164E-02  0.1300439E+00
        -11   -1    0    0    0    0  0.00000000000E+00  0.00000000000E+00  0.45593999997E+02  0.45594000000E+02  0.51100000000E-03 0.  1.
         11   -1    0    0    0    0 -0.00000000000E+00 -0.00000000000E+00 -0.45593999997E+02  0.45594000000E+02  0.51100000000E-03 0. -1.
    9900012    2    1    2    0    0  0.93309190728E+01  0.26462440260E+02  0.29425155953E+02  0.50528848532E+02  0.29999965598E+02 0.  0.
         12    1    1    2    0    0 -0.93309190728E+01 -0.26462440260E+02 -0.29425155953E+02  0.40659151468E+02  0.00000000000E+00 0. -1.
         11    1    3    3    0    0  0.77540370017E+01  0.12551366506E+02  0.39938027065E+01  0.15284382595E+02  0.51100000000E-03 0. -1.
        -11    1    3    3    0    0  0.73645896263E+01 -0.11561487600E+01  0.12536050591E+02  0.14585143983E+02  0.51100000000E-03 0.  1.
        -12    1    3    3    0    0 -0.57877075553E+01  0.15067222514E+02  0.12895302655E+02  0.20659321954E+02  0.00000000000E+00 0.  1.
</event>
<event>
 7    1  0.5764931E-013  0.5052887E+02  0.7816164E-02  0.1300439E+00
        -11   -1    0    0    0    0  0.00000000000E+00  0.00000000000E+00  0.45593999997E+02  0.45594000000E+02  0.51100000000E-03 0. -1.
         11   -1    0    0    0    0 -0.00000000000E+00 -0.00000000000E+00 -0.45593999997E+02  0.45594000000E+02  0.51100000000E-03 0.  1.
    9900012    2    1    2    0    0  0.22043383528E+02  0.33714187159E+02 -0.55324126511E+01  0.50528871101E+02  0.30000034197E+02 0.  0.
         12    1    1    2    0    0 -0.22043383528E+02 -0.33714187159E+02  0.55324126511E+01  0.40659128899E+02  0.00000000000E+00 0. -1.
         11    1    3    3    0    0  0.69033038862E+01  0.46152404029E+01  0.10300073642E+02  0.13230554252E+02  0.51100000000E-03 0. -1.
        -11    1    3    3    0    0  0.58105467442E+01  0.13503840502E+02 -0.28755174151E+01  0.14979478043E+02  0.51100000000E-03 0.  1.
         12    1    3    3    0    0  0.93295328974E+01  0.15595106254E+02 -0.12956968878E+02  0.22318838806E+02  0.00000000000E+00 0. -1.
</event>
<event>
 7    1  0.5764931E-013  0.5052886E+02  0.7816164E-02  0.1300439E+00
        -11   -1    0    0    0    0  0.00000000000E+00  0.00000000000E+00  0.45593999997E+02  0.45594000000E+02  0.51100000000E-03 0.  1.
         11   -1    0    0    0    0 -0.00000000000E+00 -0.00000000000E+00 -0.45593999997E+02  0.45594000000E+02  0.51100000000E-03 0. -1.
    9900012    2    1    2    0    0  0.31472985890E+01 -0.11336095529E+01  0.40521295460E+02  0.50528856566E+02  0.29999990019E+02 0.  0.
         12    1    1    2    0    0 -0.31472985890E+01  0.11336095529E+01 -0.40521295460E+02  0.40659143434E+02  0.00000000000E+00 0. -1.
         11    1    3    3    0    0  0.57798134923E+01 -0.12481425102E+02  0.84313941383E+01  0.16133214930E+02  0.51100000000E-03 0. -1.
        -11    1    3    3    0    0 -0.21652446525E+00  0.90062948189E+01  0.23904790547E+02  0.25546022010E+02  0.51100000000E-03 0.  1.
         12    1    3    3    0    0 -0.24159904380E+01  0.23415207307E+01  0.81851107747E+01  0.88496196259E+01  0.00000000000E+00 0. -1.
</event>
<event>
 7    1  0.5764931E-013  0.5052885E+02  0.7816164E-02  0.1300439E+00
        -11   -1    0    0    0    0  0.00000000000E+00  0.00000000000E+00  0.45593999997E+02  0.45594000000E+02  0.51100000000E-03 0. -1.
         11   -1    0    0    0    0 -0.00000000000E+00 -0.00000000000E+00 -0.45593999997E+02  0.45594000000E+02  0.51100000000E-03 0.  1.
    9900012    2    1    2    0    0 -0.12515982423E+02  0.32436835991E+02 -0.21080047961E+02  0.50528848912E+02  0.29999966753E+02 0.  0.
         12    1    1    2    0    0  0.12515982423E+02 -0.32436835991E+02  0.21080047961E+02  0.40659151088E+02  0.00000000000E+00 0. -1.
         11    1    3    3    0    0 -0.57441965403E+01  0.17864654840E+01  0.32006375576E+00  0.60240927855E+01  0.51100000000E-03 0. -1.
        -11    1    3    3    0    0  0.53732281429E+00  0.30053370589E+02 -0.11496851280E+02  0.32181848754E+02  0.51100000000E-03 0.  1.
        -12    1    3    3    0    0 -0.73091086969E+01  0.59699991798E+00 -0.99032604367E+01  0.12322907373E+02  0.00000000000E+00 0.  1.
</event>
<event>
 7    1  0.5764931E-013  0.5052885E+02  0.7816164E-02  0.1300439E+00
        -11   -1    0    0    0    0  0.00000000000E+00  0.00000000000E+00  0.45593999997E+02  0.45594000000E+02  0.51100000000E-03 0.  1.
         11   -1    0    0    0    0 -0.00000000000E+00 -0.00000000000E+00 -0.45593999997E+02  0.45594000000E+02  0.51100000000E-03 0. -1.
    9900012    2    1    2    0    0  0.29573822902E+02 -0.27799218346E+02  0.23997695933E+01  0.50528850528E+02  0.29999971665E+02 0.  0.
         12    1    1    2    0    0 -0.29573822902E+02  0.27799218346E+02 -0.23997695933E+01  0.40659149472E+02  0.00000000000E+00 0. -1.
         11    1    3    3    0    0  0.43597112807E+01  0.50562851565E+01 -0.36832028856E+01  0.76248990677E+01  0.51100000000E-03 0. -1.
        -11    1    3    3    0    0  0.16939831431E+02 -0.18092923666E+02 -0.38088996678E+00  0.24788240218E+02  0.51100000000E-03 0.  1.
         12    1    3    3    0    0  0.82742801902E+01 -0.14762579837E+02  0.64638624457E+01  0.18115711242E+02  0.00000000000E+00 0. -1.
</event>
<event>
 7    1  0.5764931E-013  0.5052885E+02  0.7816164E-02  0.1300439E+00
        -11   -1    0    0    0    0  0.00000000000E+00  0.00000000000E+00  0.45593999997E+02  0.45594000000E+02  0.51100000000E-03 0. -1.
         11   -1    0    0    0    0 -0.00000000000E+00 -0.00000000000E+00 -0.45593999997E+02  0.45594000000E+02  0.51100000000E-03 0.  1.
    9900012    2    1    2    0    0 -0.37126180053E-02 -0.28915980658E+01 -0.40556192901E+02  0.50528854218E+02  0.29999982880E+02 0.  0.
         12    1    1    2    0    0  0.37126180053E-02  0.28915980658E+01  0.40556192901E+02  0.40659145782E+02  0.00000000000E+00 0. -1.
         11    1    3    3    0    0 -0.44405048641E-01  0.65728270314E+01 -0.51904692930E+01  0.83752611145E+01  0.51100000000E-03 0.  1.
        -11    1    3    3    0    0 -0.52801712646E+01  0.63328946908E+00 -0.28155028589E+02  0.28652868953E+02  0.51100000000E-03 0. -1.
        -12    1    3    3    0    0  0.53208636952E+01 -0.10097714566E+02 -0.72106950184E+01  0.13500724150E+02  0.00000000000E+00 0.  1.
</event>
<event>
 7    1  0.5764931E-013  0.5052889E+02  0.7816164E-02  0.1300439E+00
        -11   -1    0    0    0    0  0.00000000000E+00  0.00000000000E+00  0.45593999997E+02  0.45594000000E+02  0.51100000000E-03 0.  1.
         11   -1    0    0    0    0 -0.00000000000E+00 -0.00000000000E+00 -0.45593999997E+02  0.45594000000E+02  0.51100000000E-03 0. -1.
    9900012    2    1    2    0    0  0.23088155453E+01 -0.26516260320E+02  0.30736313017E+02  0.50528885051E+02  0.30000076602E+02 0.  0.
         12    1    1    2    0    0 -0.23088155453E+01  0.26516260320E+02 -0.30736313017E+02  0.40659114949E+02  0.00000000000E+00 0. -1.
         11    1    3    3    0    0 -0.90231682084E+01 -0.23973122149E+02  0.16723819333E+02  0.30591081763E+02  0.51100000000E-03 0. -1.
        -11    1    3    3    0    0  0.37286705202E+01 -0.32615808845E+01  0.10335849453E+02  0.11461704843E+02  0.51100000000E-03 0.  1.
         12    1    3    3    0    0  0.76033132335E+01  0.71844271439E+00  0.36766442300E+01  0.84760984453E+01  0.00000000000E+00 0. -1.
</event>
<event>
 7    1  0.5764931E-013  0.5052887E+02  0.7816164E-02  0.1300439E+00
        -11   -1    0    0    0    0  0.00000000000E+00  0.00000000000E+00  0.45593999997E+02  0.45594000000E+02  0.51100000000E-03 0.  1.
         11   -1    0    0    0    0 -0.00000000000E+00 -0.00000000000E+00 -0.45593999997E+02  0.45594000000E+02  0.51100000000E-03 0. -1.
    9900012    2    1    2    0    0 -0.18068607591E+02 -0.35645543221E+02  0.74890529024E+01  0.50528865170E+02  0.30000016169E+02 0.  0.
         12    1    1    2    0    0  0.18068607591E+02  0.35645543221E+02 -0.74890529024E+01  0.40659134830E+02  0.00000000000E+00 0. -1.
         11    1    3    3    0    0 -0.51183081984E+01  0.30252271462E+01 -0.67669715462E+00  0.59838948354E+01  0.51100000000E-03 0. -1.
        -11    1    3    3    0    0 -0.42448680671E+01 -0.33265322472E+02  0.58945798935E+01  0.34049179967E+02  0.51100000000E-03 0.  1.
        -12    1    3    3    0    0 -0.87054313257E+01 -0.54054478952E+01  0.22711701635E+01  0.10495790367E+02  0.00000000000E+00 0.  1.
</event>
<event>
 7    1  0.5764931E-013  0.5052886E+02  0.7816164E-02  0.1300439E+00
        -11   -1    0    0    0    0  0.00000000000E+00  0.00000000000E+00  0.45593999997E+02  0.45594000000E+02  0.51100000000E-03 0.  1.
         11   -1    0    0    0    0 -0.00000000000E+00 -0.00000000000E+00 -0.45593999997E+02  0.45594000000E+02  0.51100000000E-03 0. -1.
    9900012    2    1    2    0    0 -0.51563409532E+01 -0.21751331074E+02  0.33962589412E+02  0.50528859145E+02  0.29999997857E+02 0.  0.
         12    1    1    2    0    0  0.51563409532E+01  0.21751331074E+02 -0.33962589412E+02  0.40659140855E+02  0.00000000000E+00 0. -1.
         11    1    3    3    0    0 -0.28211000241E+01  0.40967009150E+01  0.43541490790E+01  0.66106110305E+01  0.51100000000E-03 0. -1.
        -11    1    3    3    0    0 -0.74278802013E+01 -0.24343501027E+02  0.28982021136E+02  0.38571193862E+02  0.51100000000E-03 0.  1.
        -12    1    3    3    0    0  0.50926392723E+01 -0.15045309620E+01  0.62641919692E+00  0.53470542529E+01  0.00000000000E+00 0.  1.
</event>
<event>
 7    1  0.5764931E-013  0.5052886E+02  0.7816164E-02  0.1300439E+00
        -11   -1    0    0    0    0  0.00000000000E+00  0.00000000000E+00  0.45593999997E+02  0.45594000000E+02  0.51100000000E-03 0. -1.
         11   -1    0    0    0    0 -0.00000000000E+00 -0.00000000000E+00 -0.45593999997E+02  0.45594000000E+02  0.51100000000E-03 0.  1.
    9900012    2    1    2    0    0 -0.33757539942E+02  0.12137548161E+02 -0.19138287820E+02  0.50528860327E+02  0.30000001449E+02 0.  0.
         12    1    1    2    0    0  0.33757539942E+02 -0.12137548161E+02  0.19138287820E+02  0.40659139673E+02  0.00000000000E+00 0. -1.
         11    1    3    3    0    0 -0.46953964237E+00  0.10682703238E+02 -0.91882774698E+01  0.14098406260E+02  0.51100000000E-03 0. -1.
        -11    1    3    3    0    0 -0.16241615887E+02  0.60562020966E+01 -0.59478430183E+01  0.18326060878E+02  0.51100000000E-03 0.  1.
         12    1    3    3    0    0 -0.17046384413E+02 -0.46013571738E+01 -0.40021673318E+01  0.18104393189E+02  0.00000000000E+00 0. -1.
</event>
<event>
 7    1  0.5764931E-013  0.5052886E+02  0.7816164E-02  0.1300439E+00
        -11   -1    0    0    0    0  0.00000000000E+00  0.00000000000E+00  0.45593999997E+02  0.45594000000E+02  0.51100000000E-03 0. -1.
         11   -1    0    0    0    0 -0.00000000000E+00 -0.00000000000E+00 -0.45593999997E+02  0.45594000000E+02  0.51100000000E-03 0.  1.
    9900012    2    1    2    0    0 -0.31659313992E+01 -0.33197642376E+02 -0.23260673473E+02  0.50528861896E+02  0.30000006219E+02 0.  0.
         12    1    1    2    0    0  0.31659313992E+01  0.33197642376E+02  0.23260673473E+02  0.40659138104E+02  0.00000000000E+00 0. -1.
         11    1    3    3    0    0 -0.72181204590E+01 -0.73649161385E+01 -0.12711165971E+02  0.16368170127E+02  0.51100000000E-03 0. -1.
        -11    1    3    3    0    0 -0.11791925897E+01 -0.22205660887E+02 -0.47316442683E+00  0.22241981823E+02  0.51100000000E-03 0.  1.
        -12    1    3    3    0    0  0.52313816495E+01 -0.36270653508E+01 -0.10076343075E+02  0.11918709946E+02  0.00000000000E+00 0.  1.
</event>
<event>
 7    1  0.5764931E-013  0.5052887E+02  0.7816164E-02  0.1300439E+00
        -11   -1    0    0    0    0  0.00000000000E+00  0.00000000000E+00  0.45593999997E+02  0.45594000000E+02  0.51100000000E-03 0. -1.
         11   -1    0    0    0    0 -0.00000000000E+00 -0.00000000000E+00 -0.45593999997E+02  0.45594000000E+02  0.51100000000E-03 0.  1.
    9900012    2    1    2    0    0  0.19627121251E+02 -0.17816783611E+00 -0.35607713176E+02  0.50528869783E+02  0.30000030194E+02 0.  0.
         12    1    1    2    0    0 -0.19627121251E+02  0.17816783611E+00  0.35607713176E+02  0.40659130217E+02  0.00000000000E+00 0. -1.
         11    1    3    3    0    0 -0.29788663220E+01 -0.98526593443E+01 -0.55527323705E+01  0.11695357103E+02  0.51100000000E-03 0. -1.
        -11    1    3    3    0    0  0.12863973120E+02  0.54440922395E+01 -0.16825073681E+02  0.21867854247E+02  0.51100000000E-03 0.  1.
         12    1    3    3    0    0  0.97420144524E+01  0.42303992687E+01 -0.13229907124E+02  0.16965658433E+02  0.00000000000E+00 0. -1.
</event>
<event>
 7    1  0.5764931E-013  0.5052884E+02  0.7816164E-02  0.1300439E+00
        -11   -1    0    0    0    0  0.00000000000E+00  0.00000000000E+00  0.45593999997E+02  0.45594000000E+02  0.51100000000E-03 0.  1.
         11   -1    0    0    0    0 -0.00000000000E+00 -0.00000000000E+00 -0.45593999997E+02  0.45594000000E+02  0.51100000000E-03 0. -1.
    9900012    2    1    2    0    0  0.30330751304E+02 -0.22679058873E+02  0.14794353836E+02  0.50528842465E+02  0.29999947157E+02 0.  0.
         12    1    1    2    0    0 -0.30330751304E+02  0.22679058873E+02 -0.14794353836E+02  0.40659157535E+02  0.00000000000E+00 0. -1.
         11    1    3    3    0    0  0.14435840079E+02 -0.10303083543E+02 -0.96952793220E+00  0.17761953551E+02  0.51100000000E-03 0. -1.
        -11    1    3    3    0    0  0.80566618356E+01 -0.25587708589E+01  0.18111372067E+02  0.19986968421E+02  0.51100000000E-03 0.  1.
        -12    1    3    3    0    0  0.78382493892E+01 -0.98172044710E+01 -0.23474902984E+01  0.12779920493E+02  0.00000000000E+00 0.  1.
</event>
<event>
 7    1  0.5764931E-013  0.5052886E+02  0.7816164E-02  0.1300439E+00
        -11   -1    0    0    0    0  0.00000000000E+00  0.00000000000E+00  0.45593999997E+02  0.45594000000E+02  0.51100000000E-03 0. -1.
         11   -1    0    0    0    0 -0.00000000000E+00 -0.00000000000E+00 -0.45593999997E+02  0.45594000000E+02  0.51100000000E-03 0.  1.
    9900012    2    1    2    0    0 -0.10147543621E+02  0.39285379517E+02 -0.26176135138E+01  0.50528860981E+02  0.30000003436E+02 0.  0.
         12    1    1    2    0    0  0.10147543621E+02 -0.39285379517E+02  0.26176135138E+01  0.40659139019E+02  0.00000000000E+00 0. -1.
         11    1    3    3    0    0 -0.24991616692E+01  0.77521386559E+01 -0.93572109475E+01  0.12405597921E+02  0.51100000000E-03 0. -1.
        -11    1    3    3    0    0 -0.13991778000E+02  0.21916874993E+02  0.45898856133E+01  0.26404285850E+02  0.51100000000E-03 0.  1.
         12    1    3    3    0    0  0.63433960485E+01  0.96163658677E+01  0.21497118204E+01  0.11718977210E+02  0.00000000000E+00 0. -1.
</event>
<event>
 7    1  0.5764931E-013  0.5052886E+02  0.7816164E-02  0.1300439E+00
        -11   -1    0    0    0    0  0.00000000000E+00  0.00000000000E+00  0.45593999997E+02  0.45594000000E+02  0.51100000000E-03 0.  1.
         11   -1    0    0    0    0 -0.00000000000E+00 -0.00000000000E+00 -0.45593999997E+02  0.45594000000E+02  0.51100000000E-03 0. -1.
    9900012    2    1    2    0    0  0.37291460934E+01 -0.88796663120E+01  0.39502036688E+02  0.50528857032E+02  0.29999991434E+02 0.  0.
         12    1    1    2    0    0 -0.37291460934E+01  0.88796663120E+01 -0.39502036688E+02  0.40659142968E+02  0.00000000000E+00 0. -1.
         11    1    3    3    0    0  0.55902953348E+01 -0.99421511499E+01  0.11040847784E+02  0.15874447753E+02  0.51100000000E-03 0. -1.
        -11    1    3    3    0    0  0.51639350004E+01  0.69142740845E+01  0.63104725531E+01  0.10690906178E+02  0.51100000000E-03 0.  1.
        -12    1    3    3    0    0 -0.70250842417E+01 -0.58517892466E+01  0.22150716351E+02  0.23963503100E+02  0.00000000000E+00 0.  1.
</event>
<event>
 7    1  0.5764931E-013  0.5052886E+02  0.7816164E-02  0.1300439E+00
        -11   -1    0    0    0    0  0.00000000000E+00  0.00000000000E+00  0.45593999997E+02  0.45594000000E+02  0.51100000000E-03 0.  1.
         11   -1    0    0    0    0 -0.00000000000E+00 -0.00000000000E+00 -0.45593999997E+02  0.45594000000E+02  0.51100000000E-03 0. -1.
    9900012    2    1    2    0    0  0.26530521505E+02 -0.27323521170E+02  0.14238051592E+02  0.50528862114E+02  0.30000006883E+02 0.  0.
         12    1    1    2    0    0 -0.26530521505E+02  0.27323521170E+02 -0.14238051592E+02  0.40659137886E+02  0.00000000000E+00 0. -1.
         11    1    3    3    0    0  0.25540314700E+02 -0.23845831885E+02  0.11506407910E+02  0.36787617435E+02  0.51100000000E-03 0. -1.
        -11    1    3    3    0    0  0.23683930287E+01  0.11321813264E+01  0.68954651017E+01  0.73782490690E+01  0.51100000000E-03 0.  1.
         12    1    3    3    0    0 -0.13781862242E+01 -0.46098706120E+01 -0.41638214198E+01  0.63629956108E+01  0.00000000000E+00 0. -1.
</event>
<event>
 7    1  0.5764931E-013  0.5052886E+02  0.7816164E-02  0.1300439E+00
        -11   -1    0    0    0    0  0.00000000000E+00  0.00000000000E+00  0.45593999997E+02  0.45594000000E+02  0.51100000000E-03 0.  1.
         11   -1    0    0    0    0 -0.00000000000E+00 -0.00000000000E+00 -0.45593999997E+02  0.45594000000E+02  0.51100000000E-03 0. -1.
    9900012    2    1    2    0    0  0.32509123059E+02  0.24248765938E+01  0.24299024899E+02  0.50528859335E+02  0.29999998436E+02 0.  0.
         12    1    1    2    0    0 -0.32509123059E+02 -0.24248765938E+01 -0.24299024899E+02  0.40659140665E+02  0.00000000000E+00 0. -1.
         11    1    3    3    0    0  0.86003302458E+01  0.86976515420E+01  0.59105992831E+01  0.13584918359E+02  0.51100000000E-03 0. -1.
        -11    1    3    3    0    0  0.15866614628E+02 -0.73142045154E+01  0.21977454907E+02  0.28075889513E+02  0.51100000000E-03 0.  1.
        -12    1    3    3    0    0  0.80421781849E+01  0.10414295672E+01 -0.35890292917E+01  0.88680514634E+01  0.00000000000E+00 0.  1.
</event>
<event>
 7    1  0.5764931E-013  0.5052886E+02  0.7816164E-02  0.1300439E+00
        -11   -1    0    0    0    0  0.00000000000E+00  0.00000000000E+00  0.45593999997E+02  0.45594000000E+02  0.51100000000E-03 0.  1.
         11   -1    0    0    0    0 -0.00000000000E+00 -0.00000000000E+00 -0.45593999997E+02  0.45594000000E+02  0.51100000000E-03 0. -1.
    9900012    2    1    2    0    0  0.15748218505E+02  0.13311628609E+02  0.35042263001E+02  0.50528855413E+02  0.29999986513E+02 0.  0.
         12    1    1    2    0    0 -0.15748218505E+02 -0.13311628609E+02 -0.35042263001E+02  0.40659144587E+02  0.00000000000E+00 0. -1.
         11    1    3    3    0    0 -0.35912145213E+01  0.72839085928E+01 -0.17482577204E+01  0.83071385834E+01  0.51100000000E-03 0. -1.
        -11    1    3    3    0    0  0.36394094752E+01  0.95371046377E+00  0.10797160789E+02  0.11433877135E+02  0.51100000000E-03 0.  1.
         12    1    3    3    0    0  0.15700023551E+02  0.50740095523E+01  0.25993359933E+02  0.30787839695E+02  0.00000000000E+00 0. -1.
</event>
<event>
 7    1  0.5764931E-013  0.5052885E+02  0.7816164E-02  0.1300439E+00
        -11   -1    0    0    0    0  0.00000000000E+00  0.00000000000E+00  0.45593999997E+02  0.45594000000E+02  0.51100000000E-03 0.  1.
         11   -1    0    0    0    0 -0.00000000000E+00 -0.00000000000E+00 -0.45593999997E+02  0.45594000000E+02  0.51100000000E-03 0. -1.
    9900012    2    1    2    0    0 -0.29142670882E+02  0.33181754225E+01  0.28157785097E+02  0.50528850773E+02  0.29999972411E+02 0.  0.
         12    1    1    2    0    0  0.29142670882E+02 -0.33181754225E+01 -0.28157785097E+02  0.40659149227E+02  0.00000000000E+00 0. -1.
         11    1    3    3    0    0 -0.80006411902E+01  0.12739395936E+02  0.10738031689E+02  0.18482634906E+02  0.51100000000E-03 0. -1.
        -11    1    3    3    0    0 -0.21930508498E+02 -0.62788184594E+01  0.17584034761E+02  0.28802240242E+02  0.51100000000E-03 0.  1.
         12    1    3    3    0    0  0.78847880666E+00 -0.31424020538E+01 -0.16428135191E+00  0.32439756255E+01  0.00000000000E+00 0. -1.
</event>
<event>
 7    1  0.5764931E-013  0.5052886E+02  0.7816164E-02  0.1300439E+00
        -11   -1    0    0    0    0  0.00000000000E+00  0.00000000000E+00  0.45593999997E+02  0.45594000000E+02  0.51100000000E-03 0. -1.
         11   -1    0    0    0    0 -0.00000000000E+00 -0.00000000000E+00 -0.45593999997E+02  0.45594000000E+02  0.51100000000E-03 0.  1.
    9900012    2    1    2    0    0 -0.12702848728E+02  0.34612844100E+01 -0.38468468981E+02  0.50528856363E+02  0.29999989400E+02 0.  0.
         12    1    1    2    0    0  0.12702848728E+02 -0.34612844100E+01  0.38468468981E+02  0.40659143637E+02  0.00000000000E+00 0. -1.
         11    1    3    3    0    0 -0.33436384066E+01 -0.64458027355E+01 -0.37585630171E+01  0.81764960047E+01  0.51100000000E-03 0. -1.
        -11    1    3    3    0    0  0.16196169155E+01  0.77943822727E+01 -0.28441753689E+02  0.29534876115E+02  0.51100000000E-03 0.  1.
        -12    1    3    3    0    0 -0.10978827237E+02  0.21127048728E+01 -0.62681522750E+01  0.12817484243E+02  0.00000000000E+00 0.  1.
</event>
<event>
 7    1  0.5764931E-013  0.5052887E+02  0.7816164E-02  0.1300439E+00
        -11   -1    0    0    0    0  0.00000000000E+00  0.00000000000E+00  0.45593999997E+02  0.45594000000E+02  0.51100000000E-03 0.  1.
         11   -1    0    0    0    0 -0.00000000000E+00 -0.00000000000E+00 -0.45593999997E+02  0.45594000000E+02  0.51100000000E-03 0. -1.
    9900012    2    1    2    0    0  0.29170431942E+02 -0.21834369384E+02  0.18041928594E+02  0.50528868511E+02  0.30000026325E+02 0.  0.
         12    1    1    2    0    0 -0.29170431942E+02  0.21834369384E+02 -0.18041928594E+02  0.40659131489E+02  0.00000000000E+00 0. -1.
         11    1    3    3    0    0  0.20765351197E+02 -0.80967604779E+01  0.55725907731E+01  0.22974140000E+02  0.51100000000E-03 0. -1.
        -11    1    3    3    0    0 -0.37195154531E+01  0.23668144496E+01  0.20285051529E+01  0.48529825120E+01  0.51100000000E-03 0.  1.
        -12    1    3    3    0    0  0.12124596198E+02 -0.16104423356E+02  0.10440832668E+02  0.22701745999E+02  0.00000000000E+00 0.  1.
</event>
<event>
 7    1  0.5764931E-013  0.5052888E+02  0.7816164E-02  0.1300439E+00
        -11   -1    0    0    0    0  0.00000000000E+00  0.00000000000E+00  0.45593999997E+02  0.45594000000E+02  0.51100000000E-03 0. -1.
         11   -1    0    0    0    0 -0.00000000000E+00 -0.00000000000E+00 -0.45593999997E+02  0.45594000000E+02  0.51100000000E-03 0.  1.
    9900012    2    1    2    0    0 -0.14261147148E+02 -0.28199462344E+02 -0.25584650755E+02  0.50528876193E+02  0.30000049677E+02 0.  0.
         12    1    1    2    0    0  0.14261147148E+02  0.28199462344E+02  0.25584650755E+02  0.40659123807E+02  0.00000000000E+00 0. -1.
         11    1    3    3    0    0 -0.14329966114E+02 -0.11439969318E+02 -0.22216362940E+02  0.28806034253E+02  0.51100000000E-03 0. -1.
        -11    1    3    3    0    0  0.43497646844E+01 -0.96129577879E+01  0.32965056537E+01  0.11054246244E+02  0.51100000000E-03 0.  1.
         12    1    3    3    0    0 -0.42809457180E+01 -0.71465352387E+01 -0.66647934687E+01  0.10668595697E+02  0.00000000000E+00 0. -1.
</event>
<event>
 7    1  0.5764931E-013  0.5052884E+02  0.7816164E-02  0.1300439E+00
        -11   -1    0    0    0    0  0.00000000000E+00  0.00000000000E+00  0.45593999997E+02  0.45594000000E+02  0.51100000000E-03 0.  1.
         11   -1    0    0    0    0 -0.00000000000E+00 -0.00000000000E+00 -0.45593999997E+02  0.45594000000E+02  0.51100000000E-03 0. -1.
    9900012    2    1    2    0    0  0.23776751599E+02  0.28896896069E+02  0.15899776289E+02  0.50528838609E+02  0.29999935435E+02 0.  0.
         12    1    1    2    0    0 -0.23776751599E+02 -0.28896896069E+02 -0.15899776289E+02  0.40659161391E+02  0.00000000000E+00 0. -1.
         11    1    3    3    0    0  0.93535621796E+01  0.14717693315E+02  0.25771529540E+01  0.17627856920E+02  0.51100000000E-03 0. -1.
        -11    1    3    3    0    0  0.42605246197E+01 -0.13471284466E+01 -0.50807280277E+01  0.67661379411E+01  0.51100000000E-03 0.  1.
        -12    1    3    3    0    0  0.10162664799E+02  0.15526331200E+02  0.18403351363E+02  0.26134843748E+02  0.00000000000E+00 0.  1.
</event>
<event>
 7    1  0.5764931E-013  0.5052884E+02  0.7816164E-02  0.1300439E+00
        -11   -1    0    0    0    0  0.00000000000E+00  0.00000000000E+00  0.45593999997E+02  0.45594000000E+02  0.51100000000E-03 0. -1.
         11   -1    0    0    0    0 -0.00000000000E+00 -0.00000000000E+00 -0.45593999997E+02  0.45594000000E+02  0.51100000000E-03 0.  1.
    9900012    2    1    2    0    0 -0.13322719190E+02 -0.24945003980E+02 -0.29213339790E+02  0.50528840001E+02  0.29999939666E+02 0.  0.
         12    1    1    2    0    0  0.13322719190E+02  0.24945003980E+02  0.29213339790E+02  0.40659159999E+02  0.00000000000E+00 0. -1.
         11    1    3    3    0    0 -0.73064494135E+01 -0.70678161837E+01  0.40609952329E+01  0.10946684940E+02  0.51100000000E-03 0. -1.
        -11    1    3    3    0    0 -0.56379780322E+01 -0.14044269052E+02 -0.16575678429E+02  0.22445075298E+02  0.51100000000E-03 0.  1.
         12    1    3    3    0    0 -0.37829174430E+00 -0.38329187438E+01 -0.16698656594E+02  0.17137079762E+02  0.00000000000E+00 0. -1.
</event>
<event>
 7    1  0.5764931E-013  0.5052886E+02  0.7816164E-02  0.1300439E+00
        -11   -1    0    0    0    0  0.00000000000E+00  0.00000000000E+00  0.45593999997E+02  0.45594000000E+02  0.51100000000E-03 0. -1.
         11   -1    0    0    0    0 -0.00000000000E+00 -0.00000000000E+00 -0.45593999997E+02  0.45594000000E+02  0.51100000000E-03 0.  1.
    9900012    2    1    2    0    0  0.17587886145E+02 -0.39206062628E+01  0.36448053763E+02  0.50528861843E+02  0.30000006059E+02 0.  0.
         12    1    1    2    0    0 -0.17587886145E+02  0.39206062628E+01 -0.36448053763E+02  0.40659138157E+02  0.00000000000E+00 0. -1.
         11    1    3    3    0    0  0.17338955432E+01  0.92271167243E+01  0.18510474611E+02  0.20755330578E+02  0.51100000000E-03 0. -1.
        -11    1    3    3    0    0  0.15520424269E+02 -0.11156192489E+02  0.99776804239E+01  0.21561500580E+02  0.51100000000E-03 0.  1.
        -12    1    3    3    0    0  0.33356633235E+00 -0.19915304981E+01  0.79598987282E+01  0.82120306859E+01  0.00000000000E+00 0.  1.
</event>
<event>
 7    1  0.5764931E-013  0.5052886E+02  0.7816164E-02  0.1300439E+00
        -11   -1    0    0    0    0  0.00000000000E+00  0.00000000000E+00  0.45593999997E+02  0.45594000000E+02  0.51100000000E-03 0.  1.
         11   -1    0    0    0    0 -0.00000000000E+00 -0.00000000000E+00 -0.45593999997E+02  0.45594000000E+02  0.51100000000E-03 0. -1.
    9900012    2    1    2    0    0  0.21489193474E+02  0.23214734407E+02  0.25543225147E+02  0.50528859814E+02  0.29999999890E+02 0.  0.
         12    1    1    2    0    0 -0.21489193474E+02 -0.23214734407E+02 -0.25543225147E+02  0.40659140186E+02  0.00000000000E+00 0. -1.
         11    1    3    3    0    0  0.19782459518E+02  0.13212920161E+02  0.40079885471E+01  0.24124488309E+02  0.51100000000E-03 0. -1.
        -11    1    3    3    0    0 -0.39250835878E+01  0.85919957119E+00  0.92668309096E+01  0.10100428726E+02  0.51100000000E-03 0.  1.
         12    1    3    3    0    0  0.56318175442E+01  0.91426146751E+01  0.12268405690E+02  0.16303942779E+02  0.00000000000E+00 0. -1.
</event>
<event>
 7    1  0.5764931E-013  0.5052886E+02  0.7816164E-02  0.1300439E+00
        -11   -1    0    0    0    0  0.00000000000E+00  0.00000000000E+00  0.45593999997E+02  0.45594000000E+02  0.51100000000E-03 0.  1.
         11   -1    0    0    0    0 -0.00000000000E+00 -0.00000000000E+00 -0.45593999997E+02  0.45594000000E+02  0.51100000000E-03 0. -1.
    9900012    2    1    2    0    0  0.11384427998E+02 -0.16866506018E+02  0.35200584256E+02  0.50528863781E+02  0.30000011950E+02 0.  0.
         12    1    1    2    0    0 -0.11384427998E+02  0.16866506018E+02 -0.35200584256E+02  0.40659136219E+02  0.00000000000E+00 0. -1.
         11    1    3    3    0    0  0.26432959961E-01 -0.41400806607E+01 -0.34473151802E+01  0.53874807463E+01  0.51100000000E-03 0. -1.
        -11    1    3    3    0    0 -0.12192072351E+01 -0.95288452598E+01  0.22207754144E+02  0.24196481203E+02  0.51100000000E-03 0.  1.
         12    1    3    3    0    0  0.12577202273E+02 -0.31975800974E+01  0.16440145292E+02  0.20944901832E+02  0.00000000000E+00 0. -1.
</event>
<event>
 7    1  0.5764931E-013  0.5052886E+02  0.7816164E-02  0.1300439E+00
        -11   -1    0    0    0    0  0.00000000000E+00  0.00000000000E+00  0.45593999997E+02  0.45594000000E+02  0.51100000000E-03 0.  1.
         11   -1    0    0    0    0 -0.00000000000E+00 -0.00000000000E+00 -0.45593999997E+02  0.45594000000E+02  0.51100000000E-03 0. -1.
    9900012    2    1    2    0    0  0.37385634656E+02 -0.14684783617E+02  0.63116602375E+01  0.50528860763E+02  0.30000002776E+02 0.  0.
         12    1    1    2    0    0 -0.37385634656E+02  0.14684783617E+02 -0.63116602375E+01  0.40659139237E+02  0.00000000000E+00 0. -1.
         11    1    3    3    0    0  0.58361927219E+01 -0.12256224973E+02 -0.15140000735E+01  0.13659004084E+02  0.51100000000E-03 0. -1.
        -11    1    3    3    0    0  0.21449709101E+02 -0.70667962873E-01  0.13202805978E+02  0.25187479041E+02  0.51100000000E-03 0.  1.
        -12    1    3    3    0    0  0.10099732833E+02 -0.23578906813E+01 -0.53771456671E+01  0.11682377639E+02  0.00000000000E+00 0.  1.
</event>
<event>
 7    1  0.5764931E-013  0.5052886E+02  0.7816164E-02  0.1300439E+00
        -11   -1    0    0    0    0  0.00000000000E+00  0.00000000000E+00  0.45593999997E+02  0.45594000000E+02  0.51100000000E-03 0. -1.
         11   -1    0    0    0    0 -0.00000000000E+00 -0.00000000000E+00 -0.45593999997E+02  0.45594000000E+02  0.51100000000E-03 0.  1.
    9900012    2    1    2    0    0  0.10611896611E+01 -0.27340846307E+02 -0.30075206479E+02  0.50528855333E+02  0.29999986271E+02 0.  0.
         12    1    1    2    0    0 -0.10611896611E+01  0.27340846307E+02  0.30075206479E+02  0.40659144667E+02  0.00000000000E+00 0. -1.
         11    1    3    3    0    0  0.62388598417E+01 -0.43163182148E+01 -0.16511795934E+02  0.18171223962E+02  0.51100000000E-03 0. -1.
        -11    1    3    3    0    0  0.36460192897E+01 -0.98881714482E+01  0.13350869822E+01  0.10623175079E+02  0.51100000000E-03 0.  1.
        -12    1    3    3    0    0 -0.88236894703E+01 -0.13136356644E+02 -0.14898497527E+02  0.21734456292E+02  0.00000000000E+00 0.  1.
</event>
<event>
 7    1  0.5764931E-013  0.5052884E+02  0.7816164E-02  0.1300439E+00
        -11   -1    0    0    0    0  0.00000000000E+00  0.00000000000E+00  0.45593999997E+02  0.45594000000E+02  0.51100000000E-03 0. -1.
         11   -1    0    0    0    0 -0.00000000000E+00 -0.00000000000E+00 -0.45593999997E+02  0.45594000000E+02  0.51100000000E-03 0.  1.
    9900012    2    1    2    0    0 -0.19998209597E+02 -0.16999552573E+02 -0.31052438838E+02  0.50528841959E+02  0.29999945619E+02 0.  0.
         12    1    1    2    0    0  0.19998209597E+02  0.16999552573E+02  0.31052438838E+02  0.40659158041E+02  0.00000000000E+00 0. -1.
         11    1    3    3    0    0 -0.19991172851E+01 -0.70146727166E+01  0.14491226412E+01  0.74365354791E+01  0.51100000000E-03 0. -1.
        -11    1    3    3    0    0 -0.22028983298E+02 -0.65706830612E+01 -0.27117735592E+02  0.35550268141E+02  0.51100000000E-03 0.  1.
        -12    1    3    3    0    0  0.40298909858E+01 -0.34141967952E+01 -0.53838258876E+01  0.75420383386E+01  0.00000000000E+00 0.  1.
</event>
<event>
 7    1  0.5764931E-013  0.5052883E+02  0.7816164E-02  0.1300439E+00
        -11   -1    0    0    0    0  0.00000000000E+00  0.00000000000E+00  0.45593999997E+02  0.45594000000E+02  0.51100000000E-03 0.  1.
         11   -1    0    0    0    0 -0.00000000000E+00 -0.00000000000E+00 -0.45593999997E+02  0.45594000000E+02  0.51100000000E-03 0. -1.
    9900012    2    1    2    0    0 -0.27294489784E+02 -0.29752605429E+02  0.47917801527E+01  0.50528833022E+02  0.29999918453E+02 0.  0.
         12    1    1    2    0    0  0.27294489784E+02  0.29752605429E+02 -0.47917801527E+01  0.40659166978E+02  0.00000000000E+00 0. -1.
         11    1    3    3    0    0  0.26494466482E+01  0.30383660591E+01  0.34166923438E+01  0.52844131826E+01  0.51100000000E-03 0. -1.
        -11    1    3    3    0    0 -0.14050379698E+02 -0.12399500802E+02 -0.31365059362E+01  0.18999959462E+02  0.51100000000E-03 0.  1.
         12    1    3    3    0    0 -0.15893556733E+02 -0.20391470686E+02  0.45115937451E+01  0.26244460377E+02  0.00000000000E+00 0. -1.
</event>
<event>
 7    1  0.5764931E-013  0.5052886E+02  0.7816164E-02  0.1300439E+00
        -11   -1    0    0    0    0  0.00000000000E+00  0.00000000000E+00  0.45593999997E+02  0.45594000000E+02  0.51100000000E-03 0.  1.
         11   -1    0    0    0    0 -0.00000000000E+00 -0.00000000000E+00 -0.45593999997E+02  0.45594000000E+02  0.51100000000E-03 0. -1.
    9900012    2    1    2    0    0  0.39747231876E+02  0.47093398479E+01  0.71516088123E+01  0.50528857950E+02  0.29999994225E+02 0.  0.
         12    1    1    2    0    0 -0.39747231876E+02 -0.47093398479E+01 -0.71516088123E+01  0.40659142050E+02  0.00000000000E+00 0. -1.
         11    1    3    3    0    0 -0.14013791281E+01  0.61212930911E+01  0.27266816014E+00  0.62855740195E+01  0.51100000000E-03 0. -1.
        -11    1    3    3    0    0  0.23432741668E+02  0.41523651649E+01  0.92316971244E+01  0.25525668465E+02  0.51100000000E-03 0.  1.
         12    1    3    3    0    0  0.17715869337E+02 -0.55643184081E+01 -0.23527564723E+01  0.18717615466E+02  0.00000000000E+00 0. -1.
</event>
<event>
 7    1  0.5764931E-013  0.5052886E+02  0.7816164E-02  0.1300439E+00
        -11   -1    0    0    0    0  0.00000000000E+00  0.00000000000E+00  0.45593999997E+02  0.45594000000E+02  0.51100000000E-03 0.  1.
         11   -1    0    0    0    0 -0.00000000000E+00 -0.00000000000E+00 -0.45593999997E+02  0.45594000000E+02  0.51100000000E-03 0. -1.
    9900012    2    1    2    0    0 -0.17815543745E+02 -0.21369394990E+02  0.29649973529E+02  0.50528861157E+02  0.30000003973E+02 0.  0.
         12    1    1    2    0    0  0.17815543745E+02  0.21369394990E+02 -0.29649973529E+02  0.40659138843E+02  0.00000000000E+00 0. -1.
         11    1    3    3    0    0 -0.61593705899E+01 -0.22927416506E+02  0.20101048483E+02  0.31107176409E+02  0.51100000000E-03 0. -1.
        -11    1    3    3    0    0 -0.10463599934E+02 -0.27218183673E+01  0.10280173059E+02  0.14919020651E+02  0.51100000000E-03 0.  1.
         12    1    3    3    0    0 -0.11925732208E+01  0.42798398834E+01 -0.73124801352E+00  0.45026640972E+01  0.00000000000E+00 0. -1.
</event>
<event>
 7    1  0.5764931E-013  0.5052887E+02  0.7816164E-02  0.1300439E+00
        -11   -1    0    0    0    0  0.00000000000E+00  0.00000000000E+00  0.45593999997E+02  0.45594000000E+02  0.51100000000E-03 0. -1.
         11   -1    0    0    0    0 -0.00000000000E+00 -0.00000000000E+00 -0.45593999997E+02  0.45594000000E+02  0.51100000000E-03 0.  1.
    9900012    2    1    2    0    0 -0.25242660742E+02  0.18033833419E+02 -0.26282202029E+02  0.50528865570E+02  0.30000017386E+02 0.  0.
         12    1    1    2    0    0  0.25242660742E+02 -0.18033833419E+02  0.26282202029E+02  0.40659134430E+02  0.00000000000E+00 0. -1.
         11    1    3    3    0    0 -0.15551961856E+01  0.62720876945E+01 -0.19796300983E+02  0.20824294756E+02  0.51100000000E-03 0. -1.
        -11    1    3    3    0    0 -0.17565981883E+02  0.52085132287E+01 -0.89692374256E+01  0.20399498764E+02  0.51100000000E-03 0.  1.
         12    1    3    3    0    0 -0.61214826731E+01  0.65532324958E+01  0.24833363800E+01  0.93050720490E+01  0.00000000000E+00 0. -1.
</event>
<event>
 7    1  0.5764931E-013  0.5052886E+02  0.7816164E-02  0.1300439E+00
        -11   -1    0    0    0    0  0.00000000000E+00  0.00000000000E+00  0.45593999997E+02  0.45594000000E+02  0.51100000000E-03 0.  1.
         11   -1    0    0    0    0 -0.00000000000E+00 -0.00000000000E+00 -0.45593999997E+02  0.45594000000E+02  0.51100000000E-03 0. -1.
    9900012    2    1    2    0    0  0.14160133635E+02 -0.94910651072E+01  0.36913089101E+02  0.50528857751E+02  0.29999993621E+02 0.  0.
         12    1    1    2    0    0 -0.14160133635E+02  0.94910651072E+01 -0.36913089101E+02  0.40659142249E+02  0.00000000000E+00 0. -1.
         11    1    3    3    0    0  0.15701108661E+02  0.71522494667E+00  0.24331802953E+02  0.28966756724E+02  0.51100000000E-03 0. -1.
        -11    1    3    3    0    0 -0.48995499923E+01 -0.61682073999E+01  0.14050665820E+02  0.16108183725E+02  0.51100000000E-03 0.  1.
         12    1    3    3    0    0  0.33585749655E+01 -0.40380826540E+01 -0.14693796721E+01  0.54539173023E+01  0.00000000000E+00 0. -1.
</event>
<event>
 7    1  0.5764931E-013  0.5052886E+02  0.7816164E-02  0.1300439E+00
        -11   -1    0    0    0    0  0.00000000000E+00  0.00000000000E+00  0.45593999997E+02  0.45594000000E+02  0.51100000000E-03 0. -1.
         11   -1    0    0    0    0 -0.00000000000E+00 -0.00000000000E+00 -0.45593999997E+02  0.45594000000E+02  0.51100000000E-03 0.  1.
    9900012    2    1    2    0    0  0.29237146292E+02 -0.28151173378E+02 -0.24221111354E+01  0.50528857016E+02  0.29999991386E+02 0.  0.
         12    1    1    2    0    0 -0.29237146292E+02  0.28151173378E+02  0.24221111354E+01  0.40659142984E+02  0.00000000000E+00 0. -1.
         11    1    3    3    0    0  0.13535502565E+02 -0.25421958326E+02  0.62646708100E+01  0.29474258183E+02  0.51100000000E-03 0. -1.
        -11    1    3    3    0    0  0.12490515339E+02 -0.42729396111E-01 -0.12924677451E+01  0.12557279657E+02  0.51100000000E-03 0.  1.
         12    1    3    3    0    0  0.32111283878E+01 -0.26864856556E+01 -0.73943142002E+01  0.84973191768E+01  0.00000000000E+00 0. -1.
</event>
<event>
 7    1  0.5764931E-013  0.5052886E+02  0.7816164E-02  0.1300439E+00
        -11   -1    0    0    0    0  0.00000000000E+00  0.00000000000E+00  0.45593999997E+02  0.45594000000E+02  0.51100000000E-03 0.  1.
         11   -1    0    0    0    0 -0.00000000000E+00 -0.00000000000E+00 -0.45593999997E+02  0.45594000000E+02  0.51100000000E-03 0. -1.
    9900012    2    1    2    0    0  0.54921393891E+01  0.29131456676E+02  0.27827335194E+02  0.50528856538E+02  0.29999989932E+02 0.  0.
         12    1    1    2    0    0 -0.54921393891E+01 -0.29131456676E+02 -0.27827335194E+02  0.40659143462E+02  0.00000000000E+00 0. -1.
         11    1    3    3    0    0 -0.94594437099E-01 -0.26251518107E+01  0.30262699507E+01  0.40073283135E+01  0.51100000000E-03 0. -1.
        -11    1    3    3    0    0 -0.21713235405E+01  0.23966899554E+02  0.60965125586E+01  0.24825277155E+02  0.51100000000E-03 0.  1.
        -12    1    3    3    0    0  0.77580573667E+01  0.77897089320E+01  0.18704552684E+02  0.21696251069E+02  0.00000000000E+00 0.  1.
</event>
<event>
 7    1  0.5764931E-013  0.5052888E+02  0.7816164E-02  0.1300439E+00
        -11   -1    0    0    0    0  0.00000000000E+00  0.00000000000E+00  0.45593999997E+02  0.45594000000E+02  0.51100000000E-03 0. -1.
         11   -1    0    0    0    0 -0.00000000000E+00 -0.00000000000E+00 -0.45593999997E+02  0.45594000000E+02  0.51100000000E-03 0.  1.
    9900012    2    1    2    0    0 -0.39173839524E+02  0.10860401994E+02 -0.79114741994E+00  0.50528881112E+02  0.30000064628E+02 0.  0.
         12    1    1    2    0    0  0.39173839524E+02 -0.10860401994E+02  0.79114741994E+00  0.40659118888E+02  0.00000000000E+00 0. -1.
         11    1    3    3    0    0 -0.27899249035E+01  0.48482463030E+01 -0.67915432313E+01  0.87985358388E+01  0.51100000000E-03 0. -1.
        -11    1    3    3    0    0 -0.36777115359E+02  0.50576088693E+01  0.15433659817E+01  0.37155317256E+02  0.51100000000E-03 0.  1.
        -12    1    3    3    0    0  0.39320073821E+00  0.95454682116E+00  0.44570298297E+01  0.45750280171E+01  0.00000000000E+00 0.  1.
</event>
<event>
 7    1  0.5764931E-013  0.5052889E+02  0.7816164E-02  0.1300439E+00
        -11   -1    0    0    0    0  0.00000000000E+00  0.00000000000E+00  0.45593999997E+02  0.45594000000E+02  0.51100000000E-03 0.  1.
         11   -1    0    0    0    0 -0.00000000000E+00 -0.00000000000E+00 -0.45593999997E+02  0.45594000000E+02  0.51100000000E-03 0. -1.
    9900012    2    1    2    0    0  0.84053692534E+01 -0.89821317591E+01  0.38753506508E+02  0.50528890444E+02  0.30000092993E+02 0.  0.
         12    1    1    2    0    0 -0.84053692534E+01  0.89821317591E+01 -0.38753506508E+02  0.40659109556E+02  0.00000000000E+00 0. -1.
         11    1    3    3    0    0 -0.55471919531E+01  0.51649777602E+01  0.89382504777E+01  0.11719242966E+02  0.51100000000E-03 0. -1.
        -11    1    3    3    0    0  0.88528263255E+01 -0.26521938108E+01  0.22350070129E+02  0.24185373699E+02  0.51100000000E-03 0.  1.
        -12    1    3    3    0    0  0.50997348809E+01 -0.11494915709E+02  0.74651859019E+01  0.14624273779E+02  0.00000000000E+00 0.  1.
</event>
<event>
 7    1  0.5764931E-013  0.5052886E+02  0.7816164E-02  0.1300439E+00
        -11   -1    0    0    0    0  0.00000000000E+00  0.00000000000E+00  0.45593999997E+02  0.45594000000E+02  0.51100000000E-03 0.  1.
         11   -1    0    0    0    0 -0.00000000000E+00 -0.00000000000E+00 -0.45593999997E+02  0.45594000000E+02  0.51100000000E-03 0. -1.
    9900012    2    1    2    0    0 -0.26127306521E+02  0.44904749100E+01  0.30827991477E+02  0.50528861181E+02  0.30000004046E+02 0.  0.
         12    1    1    2    0    0  0.26127306521E+02 -0.44904749100E+01 -0.30827991477E+02  0.40659138819E+02  0.00000000000E+00 0. -1.
         11    1    3    3    0    0 -0.73449790026E+01 -0.96148818094E+01  0.98095019621E+01  0.15576296022E+02  0.51100000000E-03 0. -1.
        -11    1    3    3    0    0 -0.20063128553E+02  0.10291155688E+02  0.13118548637E+02  0.26087033777E+02  0.51100000000E-03 0.  1.
        -12    1    3    3    0    0  0.12808010338E+01  0.38142010319E+01  0.78999408784E+01  0.88655313818E+01  0.00000000000E+00 0.  1.
</event>
<event>
 7    1  0.5764931E-013  0.5052876E+02  0.7816164E-02  0.1300439E+00
        -11   -1    0    0    0    0  0.00000000000E+00  0.00000000000E+00  0.45593999997E+02  0.45594000000E+02  0.51100000000E-03 0.  1.
         11   -1    0    0    0    0 -0.00000000000E+00 -0.00000000000E+00 -0.45593999997E+02  0.45594000000E+02  0.51100000000E-03 0. -1.
    9900012    2    1    2    0    0  0.14339556483E+02  0.61004412507E+01  0.37554431047E+02  0.50528762982E+02  0.29999705559E+02 0.  0.
         12    1    1    2    0    0 -0.14339556483E+02 -0.61004412507E+01 -0.37554431047E+02  0.40659237018E+02  0.00000000000E+00 0. -1.
         11    1    3    3    0    0 -0.67785666951E+01  0.23976909319E+01  0.13303562189E+02  0.15122256956E+02  0.51100000000E-03 0. -1.
        -11    1    3    3    0    0  0.15399198380E+02  0.58985066770E+01  0.85970278467E+01  0.18596681957E+02  0.51100000000E-03 0.  1.
        -12    1    3    3    0    0  0.57189247989E+01 -0.21957563582E+01  0.15653841011E+02  0.16809824070E+02  0.00000000000E+00 0.  1.
</event>
<event>
 7    1  0.5764931E-013  0.5052885E+02  0.7816164E-02  0.1300439E+00
        -11   -1    0    0    0    0  0.00000000000E+00  0.00000000000E+00  0.45593999997E+02  0.45594000000E+02  0.51100000000E-03 0.  1.
         11   -1    0    0    0    0 -0.00000000000E+00 -0.00000000000E+00 -0.45593999997E+02  0.45594000000E+02  0.51100000000E-03 0. -1.
    9900012    2    1    2    0    0  0.30957509116E+02  0.56407354850E+01  0.25748414980E+02  0.50528854147E+02  0.29999982665E+02 0.  0.
         12    1    1    2    0    0 -0.30957509116E+02 -0.56407354850E+01 -0.25748414980E+02  0.40659145853E+02  0.00000000000E+00 0. -1.
         11    1    3    3    0    0  0.72936174950E+01 -0.11593343934E+02  0.10298302406E+02  0.17136438149E+02  0.51100000000E-03 0. -1.
        -11    1    3    3    0    0  0.12705693684E+02  0.11929992912E+02  0.91380471305E+01  0.19679006288E+02  0.51100000000E-03 0.  1.
         12    1    3    3    0    0  0.10958197937E+02  0.53040865067E+01  0.63120654438E+01  0.13713409710E+02  0.00000000000E+00 0. -1.
</event>
<event>
 7    1  0.5764931E-013  0.5052883E+02  0.7816164E-02  0.1300439E+00
        -11   -1    0    0    0    0  0.00000000000E+00  0.00000000000E+00  0.45593999997E+02  0.45594000000E+02  0.51100000000E-03 0.  1.
         11   -1    0    0    0    0 -0.00000000000E+00 -0.00000000000E+00 -0.45593999997E+02  0.45594000000E+02  0.51100000000E-03 0. -1.
    9900012    2    1    2    0    0  0.18329784416E+02 -0.32667042547E+02 -0.15813024583E+02  0.50528826226E+02  0.29999897796E+02 0.  0.
         12    1    1    2    0    0 -0.18329784416E+02  0.32667042547E+02  0.15813024583E+02  0.40659173774E+02  0.00000000000E+00 0. -1.
         11    1    3    3    0    0  0.16266229261E+02 -0.76365188741E+01 -0.11858836552E+02  0.21529947503E+02  0.51100000000E-03 0. -1.
        -11    1    3    3    0    0 -0.60145334065E+01 -0.10400354803E+02 -0.18043330774E+01  0.12148975687E+02  0.51100000000E-03 0.  1.
         12    1    3    3    0    0  0.80780885620E+01 -0.14630168870E+02 -0.21498549539E+01  0.16849903036E+02  0.00000000000E+00 0. -1.
</event>
<event>
 7    1  0.5764931E-013  0.5052886E+02  0.7816164E-02  0.1300439E+00
        -11   -1    0    0    0    0  0.00000000000E+00  0.00000000000E+00  0.45593999997E+02  0.45594000000E+02  0.51100000000E-03 0.  1.
         11   -1    0    0    0    0 -0.00000000000E+00 -0.00000000000E+00 -0.45593999997E+02  0.45594000000E+02  0.51100000000E-03 0. -1.
    9900012    2    1    2    0    0 -0.56526076182E+01 -0.28687922141E+01  0.40161965888E+02  0.50528862704E+02  0.30000008676E+02 0.  0.
         12    1    1    2    0    0  0.56526076182E+01  0.28687922141E+01 -0.40161965888E+02  0.40659137296E+02  0.00000000000E+00 0. -1.
         11    1    3    3    0    0  0.20723290692E+01  0.30394313174E+01 -0.28293305642E+01  0.46408837743E+01  0.51100000000E-03 0. -1.
        -11    1    3    3    0    0 -0.90531798172E+01 -0.78320079476E+01  0.41307113292E+02  0.43006720662E+02  0.51100000000E-03 0.  1.
        -12    1    3    3    0    0  0.13282431298E+01  0.19237844161E+01  0.16841831601E+01  0.28812582682E+01  0.00000000000E+00 0.  1.
</event>
<event>
 7    1  0.5764931E-013  0.5052886E+02  0.7816164E-02  0.1300439E+00
        -11   -1    0    0    0    0  0.00000000000E+00  0.00000000000E+00  0.45593999997E+02  0.45594000000E+02  0.51100000000E-03 0.  1.
         11   -1    0    0    0    0 -0.00000000000E+00 -0.00000000000E+00 -0.45593999997E+02  0.45594000000E+02  0.51100000000E-03 0. -1.
    9900012    2    1    2    0    0  0.13962523160E+02  0.18203007384E+02  0.33568802547E+02  0.50528855453E+02  0.29999986636E+02 0.  0.
         12    1    1    2    0    0 -0.13962523160E+02 -0.18203007384E+02 -0.33568802547E+02  0.40659144547E+02  0.00000000000E+00 0. -1.
         11    1    3    3    0    0  0.11828071998E+02  0.11650787783E+02  0.26493096781E+02  0.31265449308E+02  0.51100000000E-03 0. -1.
        -11    1    3    3    0    0 -0.64037510580E+01  0.28325898105E+01  0.70692331924E+01  0.99501583322E+01  0.51100000000E-03 0.  1.
         12    1    3    3    0    0  0.85382022202E+01  0.37196297905E+01  0.64725741398E-02  0.93132478129E+01  0.00000000000E+00 0. -1.
</event>
<event>
 7    1  0.5764931E-013  0.5052885E+02  0.7816164E-02  0.1300439E+00
        -11   -1    0    0    0    0  0.00000000000E+00  0.00000000000E+00  0.45593999997E+02  0.45594000000E+02  0.51100000000E-03 0.  1.
         11   -1    0    0    0    0 -0.00000000000E+00 -0.00000000000E+00 -0.45593999997E+02  0.45594000000E+02  0.51100000000E-03 0. -1.
    9900012    2    1    2    0    0 -0.29344742042E+01  0.69545706165E+01  0.39952335121E+02  0.50528852530E+02  0.29999977752E+02 0.  0.
         12    1    1    2    0    0  0.29344742042E+01 -0.69545706165E+01 -0.39952335121E+02  0.40659147470E+02  0.00000000000E+00 0. -1.
         11    1    3    3    0    0  0.52926361137E+00  0.51038986422E+01 -0.14010455971E+01  0.53191005204E+01  0.51100000000E-03 0. -1.
        -11    1    3    3    0    0  0.44423574244E+01 -0.17584327666E+01  0.32331968705E+02  0.32683066348E+02  0.51100000000E-03 0.  1.
         12    1    3    3    0    0 -0.79060952399E+01  0.36091047409E+01  0.90214120134E+01  0.12526685663E+02  0.00000000000E+00 0. -1.
</event>
<event>
 7    1  0.5764931E-013  0.5052885E+02  0.7816164E-02  0.1300439E+00
        -11   -1    0    0    0    0  0.00000000000E+00  0.00000000000E+00  0.45593999997E+02  0.45594000000E+02  0.51100000000E-03 0. -1.
         11   -1    0    0    0    0 -0.00000000000E+00 -0.00000000000E+00 -0.45593999997E+02  0.45594000000E+02  0.51100000000E-03 0.  1.
    9900012    2    1    2    0    0  0.32309691963E+02  0.14009855440E+02 -0.20321758520E+02  0.50528854491E+02  0.29999983710E+02 0.  0.
         12    1    1    2    0    0 -0.32309691963E+02 -0.14009855440E+02  0.20321758520E+02  0.40659145509E+02  0.00000000000E+00 0. -1.
         11    1    3    3    0    0 -0.46401881503E+01 -0.11820504895E+01 -0.61553457238E+01  0.77985172097E+01  0.51100000000E-03 0. -1.
        -11    1    3    3    0    0  0.27942658685E+02  0.13329329368E+02 -0.12476851497E+02  0.33378661137E+02  0.51100000000E-03 0.  1.
         12    1    3    3    0    0  0.90072214288E+01  0.18625765620E+01 -0.16895612991E+01  0.93516761439E+01  0.00000000000E+00 0. -1.
</event>
<event>
 7    1  0.5764931E-013  0.5052886E+02  0.7816164E-02  0.1300439E+00
        -11   -1    0    0    0    0  0.00000000000E+00  0.00000000000E+00  0.45593999997E+02  0.45594000000E+02  0.51100000000E-03 0. -1.
         11   -1    0    0    0    0 -0.00000000000E+00 -0.00000000000E+00 -0.45593999997E+02  0.45594000000E+02  0.51100000000E-03 0.  1.
    9900012    2    1    2    0    0  0.13385098054E+02  0.19083873361E+02 -0.33313815809E+02  0.50528863313E+02  0.30000010526E+02 0.  0.
         12    1    1    2    0    0 -0.13385098054E+02 -0.19083873361E+02  0.33313815809E+02  0.40659136687E+02  0.00000000000E+00 0. -1.
         11    1    3    3    0    0  0.38261133832E+01  0.22973469714E+02 -0.13564350998E+02  0.26952014259E+02  0.51100000000E-03 0. -1.
        -11    1    3    3    0    0  0.56545801234E+01 -0.60587939358E+01 -0.11222585741E+02  0.13950974565E+02  0.51100000000E-03 0.  1.
         12    1    3    3    0    0  0.39044045474E+01  0.21691975825E+01 -0.85268790695E+01  0.96258744895E+01  0.00000000000E+00 0. -1.
</event>
<event>
 7    1  0.5764931E-013  0.5052891E+02  0.7816164E-02  0.1300439E+00
        -11   -1    0    0    0    0  0.00000000000E+00  0.00000000000E+00  0.45593999997E+02  0.45594000000E+02  0.51100000000E-03 0. -1.
         11   -1    0    0    0    0 -0.00000000000E+00 -0.00000000000E+00 -0.45593999997E+02  0.45594000000E+02  0.51100000000E-03 0.  1.
    9900012    2    1    2    0    0  0.35651856893E+02  0.11047687425E+02  0.16126242591E+02  0.50528905107E+02  0.30000137564E+02 0.  0.
         12    1    1    2    0    0 -0.35651856893E+02 -0.11047687425E+02 -0.16126242591E+02  0.40659094893E+02  0.00000000000E+00 0. -1.
         11    1    3    3    0    0  0.24335630751E+02  0.11606784235E+01  0.17805500669E+02  0.30176248156E+02  0.51100000000E-03 0. -1.
        -11    1    3    3    0    0  0.37585047101E+01  0.11718164510E+02 -0.24172476941E+01  0.12541324644E+02  0.51100000000E-03 0.  1.
        -12    1    3    3    0    0  0.75577214323E+01 -0.18311555086E+01  0.73798961596E+00  0.78113323075E+01  0.00000000000E+00 0.  1.
</event>
<event>
 7    1  0.5764931E-013  0.5052885E+02  0.7816164E-02  0.1300439E+00
        -11   -1    0    0    0    0  0.00000000000E+00  0.00000000000E+00  0.45593999997E+02  0.45594000000E+02  0.51100000000E-03 0.  1.
         11   -1    0    0    0    0 -0.00000000000E+00 -0.00000000000E+00 -0.45593999997E+02  0.45594000000E+02  0.51100000000E-03 0. -1.
    9900012    2    1    2    0    0  0.19853361879E+02  0.10664820423E+02 -0.33841869287E+02  0.50528849869E+02  0.29999969662E+02 0.  0.
         12    1    1    2    0    0 -0.19853361879E+02 -0.10664820423E+02  0.33841869287E+02  0.40659150131E+02  0.00000000000E+00 0. -1.
         11    1    3    3    0    0 -0.91604586656E+00  0.15907824709E+02 -0.12573820361E+02  0.20297758146E+02  0.51100000000E-03 0. -1.
        -11    1    3    3    0    0  0.18216782351E+02 -0.49737116171E+01 -0.18142115754E+02  0.26186357722E+02  0.51100000000E-03 0.  1.
         12    1    3    3    0    0  0.25526253944E+01 -0.26929266864E+00 -0.31259331721E+01  0.40447340013E+01  0.00000000000E+00 0. -1.
</event>
<event>
 7    1  0.5764931E-013  0.5052887E+02  0.7816164E-02  0.1300439E+00
        -11   -1    0    0    0    0  0.00000000000E+00  0.00000000000E+00  0.45593999997E+02  0.45594000000E+02  0.51100000000E-03 0.  1.
         11   -1    0    0    0    0 -0.00000000000E+00 -0.00000000000E+00 -0.45593999997E+02  0.45594000000E+02  0.51100000000E-03 0. -1.
    9900012    2    1    2    0    0  0.88726998083E+01 -0.34977725943E+02 -0.18734969682E+02  0.50528865687E+02  0.30000017743E+02 0.  0.
         12    1    1    2    0    0 -0.88726998083E+01  0.34977725943E+02  0.18734969682E+02  0.40659134313E+02  0.00000000000E+00 0. -1.
         11    1    3    3    0    0 -0.60652810721E+01 -0.22594087665E+02 -0.12064245676E+02  0.26321596758E+02  0.51100000000E-03 0. -1.
        -11    1    3    3    0    0  0.39057665382E+01  0.76679959027E+00  0.25452176505E+01  0.47245239985E+01  0.51100000000E-03 0.  1.
         12    1    3    3    0    0  0.11032214342E+02 -0.13150437869E+02 -0.92159416568E+01  0.19482744931E+02  0.00000000000E+00 0. -1.
</event>
<event>
 7    1  0.5764931E-013  0.5052886E+02  0.7816164E-02  0.1300439E+00
        -11   -1    0    0    0    0  0.00000000000E+00  0.00000000000E+00  0.45593999997E+02  0.45594000000E+02  0.51100000000E-03 0. -1.
         11   -1    0    0    0    0 -0.00000000000E+00 -0.00000000000E+00 -0.45593999997E+02  0.45594000000E+02  0.51100000000E-03 0.  1.
    9900012    2    1    2    0    0 -0.38474881335E+01  0.47894594361E+01 -0.40192336746E+02  0.50528855645E+02  0.29999987217E+02 0.  0.
         12    1    1    2    0    0  0.38474881335E+01 -0.47894594361E+01  0.40192336746E+02  0.40659144355E+02  0.00000000000E+00 0. -1.
         11    1    3    3    0    0 -0.56543151434E+01 -0.22939302713E+01  0.12440385232E+01  0.62274415243E+01  0.51100000000E-03 0. -1.
        -11    1    3    3    0    0  0.30323708878E+01 -0.36965129973E+01 -0.14220846144E+02  0.15003064582E+02  0.51100000000E-03 0.  1.
         12    1    3    3    0    0 -0.12255438780E+01  0.10779902705E+02 -0.27215529125E+02  0.29298349539E+02  0.00000000000E+00 0. -1.
</event>
<event>
 7    1  0.5764931E-013  0.5052887E+02  0.7816164E-02  0.1300439E+00
        -11   -1    0    0    0    0  0.00000000000E+00  0.00000000000E+00  0.45593999997E+02  0.45594000000E+02  0.51100000000E-03 0. -1.
         11   -1    0    0    0    0 -0.00000000000E+00 -0.00000000000E+00 -0.45593999997E+02  0.45594000000E+02  0.51100000000E-03 0.  1.
    9900012    2    1    2    0    0 -0.26415076151E+02  0.28654201892E+02 -0.11590739250E+02  0.50528871006E+02  0.30000033911E+02 0.  0.
         12    1    1    2    0    0  0.26415076151E+02 -0.28654201892E+02  0.11590739250E+02  0.40659128994E+02  0.00000000000E+00 0. -1.
         11    1    3    3    0    0 -0.29881533490E+00 -0.37535176810E+01  0.23366140848E+01  0.44314728057E+01  0.51100000000E-03 0. -1.
        -11    1    3    3    0    0 -0.21438989407E+02  0.23463099784E+02 -0.41640683962E+01  0.32054434703E+02  0.51100000000E-03 0.  1.
        -12    1    3    3    0    0 -0.46772714097E+01  0.89446197896E+01 -0.97632849383E+01  0.14042963498E+02  0.00000000000E+00 0.  1.
</event>
<event>
 7    1  0.5764931E-013  0.5052885E+02  0.7816164E-02  0.1300439E+00
        -11   -1    0    0    0    0  0.00000000000E+00  0.00000000000E+00  0.45593999997E+02  0.45594000000E+02  0.51100000000E-03 0. -1.
         11   -1    0    0    0    0 -0.00000000000E+00 -0.00000000000E+00 -0.45593999997E+02  0.45594000000E+02  0.51100000000E-03 0.  1.
    9900012    2    1    2    0    0 -0.17165205835E+02  0.14971945049E+02 -0.33680309144E+02  0.50528847846E+02  0.29999963511E+02 0.  0.
         12    1    1    2    0    0  0.17165205835E+02 -0.14971945049E+02  0.33680309144E+02  0.40659152154E+02  0.00000000000E+00 0. -1.
         11    1    3    3    0    0 -0.89019085454E+01  0.12075648507E+00 -0.10562266165E+02  0.13813762148E+02  0.51100000000E-03 0. -1.
        -11    1    3    3    0    0  0.29774217499E+01  0.45330063911E+01 -0.20535619655E+02  0.21239700142E+02  0.51100000000E-03 0.  1.
        -12    1    3    3    0    0 -0.11240719040E+02  0.10318182173E+02 -0.25824233230E+01  0.15475385556E+02  0.00000000000E+00 0.  1.
</event>
<event>
 7    1  0.5764931E-013  0.5052886E+02  0.7816164E-02  0.1300439E+00
        -11   -1    0    0    0    0  0.00000000000E+00  0.00000000000E+00  0.45593999997E+02  0.45594000000E+02  0.51100000000E-03 0.  1.
         11   -1    0    0    0    0 -0.00000000000E+00 -0.00000000000E+00 -0.45593999997E+02  0.45594000000E+02  0.51100000000E-03 0. -1.
    9900012    2    1    2    0    0  0.31430475027E+01 -0.37716703672E+02  0.14857231049E+02  0.50528858372E+02  0.29999995508E+02 0.  0.
         12    1    1    2    0    0 -0.31430475027E+01  0.37716703672E+02 -0.14857231049E+02  0.40659141628E+02  0.00000000000E+00 0. -1.
         11    1    3    3    0    0 -0.96088716324E+00 -0.30973239349E+02  0.13263226474E+01  0.31016511602E+02  0.51100000000E-03 0. -1.
        -11    1    3    3    0    0  0.35428197491E+01 -0.96933822049E+01  0.12761619541E+02  0.16412561163E+02  0.51100000000E-03 0.  1.
         12    1    3    3    0    0  0.56111491689E+00  0.29499178822E+01  0.76928885980E+00  0.30997856073E+01  0.00000000000E+00 0. -1.
</event>
<event>
 7    1  0.5764931E-013  0.5052886E+02  0.7816164E-02  0.1300439E+00
        -11   -1    0    0    0    0  0.00000000000E+00  0.00000000000E+00  0.45593999997E+02  0.45594000000E+02  0.51100000000E-03 0.  1.
         11   -1    0    0    0    0 -0.00000000000E+00 -0.00000000000E+00 -0.45593999997E+02  0.45594000000E+02  0.51100000000E-03 0. -1.
    9900012    2    1    2    0    0  0.40648624131E+02 -0.73866388770E+00 -0.55627838431E+00  0.50528859407E+02  0.29999998653E+02 0.  0.
         12    1    1    2    0    0 -0.40648624131E+02  0.73866388770E+00  0.55627838431E+00  0.40659140593E+02  0.00000000000E+00 0. -1.
         11    1    3    3    0    0  0.18691995966E+01 -0.68969331708E+01  0.58082673792E+01  0.92085593067E+01  0.51100000000E-03 0. -1.
        -11    1    3    3    0    0  0.15776028555E+02 -0.83923415289E-01  0.23327652376E+01  0.15947787119E+02  0.51100000000E-03 0.  1.
         12    1    3    3    0    0  0.23003395980E+02  0.62421926984E+01 -0.86973110011E+01  0.25372512981E+02  0.00000000000E+00 0. -1.
</event>
<event>
 7    1  0.5764931E-013  0.5052887E+02  0.7816164E-02  0.1300439E+00
        -11   -1    0    0    0    0  0.00000000000E+00  0.00000000000E+00  0.45593999997E+02  0.45594000000E+02  0.51100000000E-03 0.  1.
         11   -1    0    0    0    0 -0.00000000000E+00 -0.00000000000E+00 -0.45593999997E+02  0.45594000000E+02  0.51100000000E-03 0. -1.
    9900012    2    1    2    0    0  0.18358179629E+02 -0.35481933826E+02  0.75613932047E+01  0.50528867514E+02  0.30000023296E+02 0.  0.
         12    1    1    2    0    0 -0.18358179629E+02  0.35481933826E+02 -0.75613932047E+01  0.40659132486E+02  0.00000000000E+00 0. -1.
         11    1    3    3    0    0  0.51188596289E+01  0.86456303531E+00  0.37940210596E+01  0.64299913844E+01  0.51100000000E-03 0. -1.
        -11    1    3    3    0    0  0.38272357229E+01 -0.20646686408E+02 -0.78509409129E+01  0.22418087929E+02  0.51100000000E-03 0.  1.
        -12    1    3    3    0    0  0.94120842769E+01 -0.15699810453E+02  0.11618313058E+02  0.21680788201E+02  0.00000000000E+00 0.  1.
</event>
<event>
 7    1  0.5764931E-013  0.5052885E+02  0.7816164E-02  0.1300439E+00
        -11   -1    0    0    0    0  0.00000000000E+00  0.00000000000E+00  0.45593999997E+02  0.45594000000E+02  0.51100000000E-03 0. -1.
         11   -1    0    0    0    0 -0.00000000000E+00 -0.00000000000E+00 -0.45593999997E+02  0.45594000000E+02  0.51100000000E-03 0.  1.
    9900012    2    1    2    0    0 -0.16179638706E+02  0.81493526055E+01 -0.36400192916E+02  0.50528847268E+02  0.29999961757E+02 0.  0.
         12    1    1    2    0    0  0.16179638706E+02 -0.81493526055E+01  0.36400192916E+02  0.40659152732E+02  0.00000000000E+00 0. -1.
         11    1    3    3    0    0 -0.27699249486E+00  0.28171180492E+00  0.41761490053E+01  0.41947952464E+01  0.51100000000E-03 0. -1.
        -11    1    3    3    0    0 -0.14589400914E+01  0.77324494974E+01 -0.12766652652E+02  0.14996889731E+02  0.51100000000E-03 0.  1.
         12    1    3    3    0    0 -0.14443706120E+02  0.13519130317E+00 -0.27809689269E+02  0.31337162291E+02  0.00000000000E+00 0. -1.
</event>
<event>
 7    1  0.5764931E-013  0.5052886E+02  0.7816164E-02  0.1300439E+00
        -11   -1    0    0    0    0  0.00000000000E+00  0.00000000000E+00  0.45593999997E+02  0.45594000000E+02  0.51100000000E-03 0.  1.
         11   -1    0    0    0    0 -0.00000000000E+00 -0.00000000000E+00 -0.45593999997E+02  0.45594000000E+02  0.51100000000E-03 0. -1.
    9900012    2    1    2    0    0 -0.17119531609E+02  0.15750678099E+02  0.33346710285E+02  0.50528864373E+02  0.30000013748E+02 0.  0.
         12    1    1    2    0    0  0.17119531609E+02 -0.15750678099E+02 -0.33346710285E+02  0.40659135627E+02  0.00000000000E+00 0. -1.
         11    1    3    3    0    0  0.40595877153E+01  0.11506932506E+02  0.12194274948E+02  0.17250799689E+02  0.51100000000E-03 0. -1.
        -11    1    3    3    0    0 -0.12031271496E+02 -0.27247581523E+01  0.17100040319E+02  0.21085236066E+02  0.51100000000E-03 0.  1.
         12    1    3    3    0    0 -0.91478478284E+01  0.69685037454E+01  0.40523950182E+01  0.12192828619E+02  0.00000000000E+00 0. -1.
</event>
<event>
 7    1  0.5764931E-013  0.5052890E+02  0.7816164E-02  0.1300439E+00
        -11   -1    0    0    0    0  0.00000000000E+00  0.00000000000E+00  0.45593999997E+02  0.45594000000E+02  0.51100000000E-03 0.  1.
         11   -1    0    0    0    0 -0.00000000000E+00 -0.00000000000E+00 -0.45593999997E+02  0.45594000000E+02  0.51100000000E-03 0. -1.
    9900012    2    1    2    0    0  0.18700282136E+02  0.31405799483E+02  0.17808348524E+02  0.50528904213E+02  0.30000134845E+02 0.  0.
         12    1    1    2    0    0 -0.18700282136E+02 -0.31405799483E+02 -0.17808348524E+02  0.40659095787E+02  0.00000000000E+00 0. -1.
         11    1    3    3    0    0  0.18558315931E+02  0.12998783028E+02 -0.69718181974E+00  0.22668601923E+02  0.51100000000E-03 0. -1.
        -11    1    3    3    0    0  0.24606010625E+01  0.10462629886E+02  0.15884919725E+02  0.19179464452E+02  0.51100000000E-03 0.  1.
        -12    1    3    3    0    0 -0.23186348573E+01  0.79443865686E+01  0.26206106180E+01  0.86808378377E+01  0.00000000000E+00 0.  1.
</event>
<event>
 7    1  0.5764931E-013  0.5052886E+02  0.7816164E-02  0.1300439E+00
        -11   -1    0    0    0    0  0.00000000000E+00  0.00000000000E+00  0.45593999997E+02  0.45594000000E+02  0.51100000000E-03 0.  1.
         11   -1    0    0    0    0 -0.00000000000E+00 -0.00000000000E+00 -0.45593999997E+02  0.45594000000E+02  0.51100000000E-03 0. -1.
    9900012    2    1    2    0    0  0.25194481669E+02  0.31798148101E+02 -0.26983872298E+01  0.50528862984E+02  0.30000009526E+02 0.  0.
         12    1    1    2    0    0 -0.25194481669E+02 -0.31798148101E+02  0.26983872298E+01  0.40659137016E+02  0.00000000000E+00 0. -1.
         11    1    3    3    0    0  0.37309091703E+00 -0.38000460450E+01 -0.31310183670E+01  0.49378966223E+01  0.51100000000E-03 0. -1.
        -11    1    3    3    0    0  0.61238859457E+01  0.19416588736E+02 -0.31627502005E+01  0.20603613429E+02  0.51100000000E-03 0.  1.
        -12    1    3    3    0    0  0.18697504807E+02  0.16181605410E+02  0.35953813378E+01  0.24987352933E+02  0.00000000000E+00 0.  1.
</event>
<event>
 7    1  0.5764931E-013  0.5052886E+02  0.7816164E-02  0.1300439E+00
        -11   -1    0    0    0    0  0.00000000000E+00  0.00000000000E+00  0.45593999997E+02  0.45594000000E+02  0.51100000000E-03 0.  1.
         11   -1    0    0    0    0 -0.00000000000E+00 -0.00000000000E+00 -0.45593999997E+02  0.45594000000E+02  0.51100000000E-03 0. -1.
    9900012    2    1    2    0    0  0.14053062847E+02 -0.18753120871E+02  0.33226458884E+02  0.50528859726E+02  0.29999999624E+02 0.  0.
         12    1    1    2    0    0 -0.14053062847E+02  0.18753120871E+02 -0.33226458884E+02  0.40659140274E+02  0.00000000000E+00 0. -1.
         11    1    3    3    0    0  0.96132723167E+00 -0.10456480049E+01 -0.31096614588E+01  0.34187021581E+01  0.51100000000E-03 0. -1.
        -11    1    3    3    0    0  0.66641178232E+00 -0.32853423257E+00  0.20508630419E+02  0.20522084721E+02  0.51100000000E-03 0.  1.
        -12    1    3    3    0    0  0.12425323833E+02 -0.17378938634E+02  0.15827489925E+02  0.26588072847E+02  0.00000000000E+00 0.  1.
</event>
<event>
 7    1  0.5764931E-013  0.5052884E+02  0.7816164E-02  0.1300439E+00
        -11   -1    0    0    0    0  0.00000000000E+00  0.00000000000E+00  0.45593999997E+02  0.45594000000E+02  0.51100000000E-03 0.  1.
         11   -1    0    0    0    0 -0.00000000000E+00 -0.00000000000E+00 -0.45593999997E+02  0.45594000000E+02  0.51100000000E-03 0. -1.
    9900012    2    1    2    0    0 -0.28994384935E+02 -0.24391359217E+02  0.14749734556E+02  0.50528838281E+02  0.29999934438E+02 0.  0.
         12    1    1    2    0    0  0.28994384935E+02  0.24391359217E+02 -0.14749734556E+02  0.40659161719E+02  0.00000000000E+00 0. -1.
         11    1    3    3    0    0  0.24609185944E+01  0.24922579864E+01 -0.12120770572E+01  0.37062921165E+01  0.51100000000E-03 0. -1.
        -11    1    3    3    0    0 -0.33074159645E+02 -0.26275170547E+02  0.15743984369E+02  0.45079459487E+02  0.51100000000E-03 0.  1.
        -12    1    3    3    0    0  0.16188561158E+01 -0.60844665639E+00  0.21782724483E+00  0.17430866777E+01  0.00000000000E+00 0.  1.
</event>
<event>
 7    1  0.5764931E-013  0.5052886E+02  0.7816164E-02  0.1300439E+00
        -11   -1    0    0    0    0  0.00000000000E+00  0.00000000000E+00  0.45593999997E+02  0.45594000000E+02  0.51100000000E-03 0.  1.
         11   -1    0    0    0    0 -0.00000000000E+00 -0.00000000000E+00 -0.45593999997E+02  0.45594000000E+02  0.51100000000E-03 0. -1.
    9900012    2    1    2    0    0 -0.40033990627E+02  0.69321147650E+01  0.15461878609E+01  0.50528864280E+02  0.30000013464E+02 0.  0.
         12    1    1    2    0    0  0.40033990627E+02 -0.69321147650E+01 -0.15461878609E+01  0.40659135720E+02  0.00000000000E+00 0. -1.
         11    1    3    3    0    0 -0.66659324165E+01  0.13423705466E+02 -0.46790127108E+01  0.15701072690E+02  0.51100000000E-03 0. -1.
        -11    1    3    3    0    0 -0.11971053286E+02 -0.42693230657E+01  0.14494593364E+01  0.12791957194E+02  0.51100000000E-03 0.  1.
         12    1    3    3    0    0 -0.21397004924E+02 -0.22222676350E+01  0.47757412353E+01  0.22035834395E+02  0.00000000000E+00 0. -1.
</event>
<event>
 7    1  0.5764931E-013  0.5052889E+02  0.7816164E-02  0.1300439E+00
        -11   -1    0    0    0    0  0.00000000000E+00  0.00000000000E+00  0.45593999997E+02  0.45594000000E+02  0.51100000000E-03 0. -1.
         11   -1    0    0    0    0 -0.00000000000E+00 -0.00000000000E+00 -0.45593999997E+02  0.45594000000E+02  0.51100000000E-03 0.  1.
    9900012    2    1    2    0    0  0.26954484603E+02  0.18613927344E+02 -0.24086110202E+02  0.50528889876E+02  0.30000091267E+02 0.  0.
         12    1    1    2    0    0 -0.26954484603E+02 -0.18613927344E+02  0.24086110202E+02  0.40659110124E+02  0.00000000000E+00 0. -1.
         11    1    3    3    0    0  0.28828595200E+01 -0.54238539272E+01  0.26133753005E+01  0.66752379102E+01  0.51100000000E-03 0. -1.
        -11    1    3    3    0    0  0.77928936339E+01  0.50652119907E+01 -0.10699895300E+02  0.14172978635E+02  0.51100000000E-03 0.  1.
         12    1    3    3    0    0  0.16278731449E+02  0.18972569281E+02 -0.15999590203E+02  0.29680673331E+02  0.00000000000E+00 0. -1.
</event>
<event>
 7    1  0.5764931E-013  0.5052885E+02  0.7816164E-02  0.1300439E+00
        -11   -1    0    0    0    0  0.00000000000E+00  0.00000000000E+00  0.45593999997E+02  0.45594000000E+02  0.51100000000E-03 0. -1.
         11   -1    0    0    0    0 -0.00000000000E+00 -0.00000000000E+00 -0.45593999997E+02  0.45594000000E+02  0.51100000000E-03 0.  1.
    9900012    2    1    2    0    0  0.25031510582E+02 -0.28848911348E+02 -0.13940234686E+02  0.50528851570E+02  0.29999974832E+02 0.  0.
         12    1    1    2    0    0 -0.25031510582E+02  0.28848911348E+02  0.13940234686E+02  0.40659148430E+02  0.00000000000E+00 0. -1.
         11    1    3    3    0    0 -0.27517843691E+01 -0.40627308805E+01  0.19205451314E+01  0.52694016059E+01  0.51100000000E-03 0. -1.
        -11    1    3    3    0    0  0.25200662146E+02 -0.19444140342E+02 -0.20384755742E+02  0.37797965992E+02  0.51100000000E-03 0.  1.
         12    1    3    3    0    0  0.25826328052E+01 -0.53420401255E+01  0.45239759238E+01  0.74614839722E+01  0.00000000000E+00 0. -1.
</event>
<event>
 7    1  0.5764931E-013  0.5052886E+02  0.7816164E-02  0.1300439E+00
        -11   -1    0    0    0    0  0.00000000000E+00  0.00000000000E+00  0.45593999997E+02  0.45594000000E+02  0.51100000000E-03 0. -1.
         11   -1    0    0    0    0 -0.00000000000E+00 -0.00000000000E+00 -0.45593999997E+02  0.45594000000E+02  0.51100000000E-03 0.  1.
    9900012    2    1    2    0    0  0.37042567724E+02  0.66891331991E+01 -0.15371056323E+02  0.50528859588E+02  0.29999999205E+02 0.  0.
         12    1    1    2    0    0 -0.37042567724E+02 -0.66891331991E+01  0.15371056323E+02  0.40659140412E+02  0.00000000000E+00 0. -1.
         11    1    3    3    0    0  0.12374532457E+02 -0.91206929174E+01 -0.33031304540E+01  0.15723446311E+02  0.51100000000E-03 0. -1.
        -11    1    3    3    0    0  0.11370498325E+01  0.64880117785E+01 -0.56895953356E+01  0.87039459158E+01  0.51100000000E-03 0.  1.
         12    1    3    3    0    0  0.23530985434E+02  0.93218143380E+01 -0.63783305330E+01  0.26101467362E+02  0.00000000000E+00 0. -1.
</event>
<event>
 7    1  0.5764931E-013  0.5052886E+02  0.7816164E-02  0.1300439E+00
        -11   -1    0    0    0    0  0.00000000000E+00  0.00000000000E+00  0.45593999997E+02  0.45594000000E+02  0.51100000000E-03 0. -1.
         11   -1    0    0    0    0 -0.00000000000E+00 -0.00000000000E+00 -0.45593999997E+02  0.45594000000E+02  0.51100000000E-03 0.  1.
    9900012    2    1    2    0    0  0.67533966440E+01 -0.30704939704E+02 -0.25783010202E+02  0.50528864452E+02  0.30000013988E+02 0.  0.
         12    1    1    2    0    0 -0.67533966440E+01  0.30704939704E+02  0.25783010202E+02  0.40659135548E+02  0.00000000000E+00 0. -1.
         11    1    3    3    0    0  0.81581033214E+01 -0.68245853149E+01  0.44796187684E+01  0.11541083099E+02  0.51100000000E-03 0. -1.
        -11    1    3    3    0    0 -0.33118639747E+01 -0.14274583059E+02 -0.16115275599E+02  0.21781512169E+02  0.51100000000E-03 0.  1.
         12    1    3    3    0    0  0.19071572973E+01 -0.96057713294E+01 -0.14147353372E+02  0.17206269184E+02  0.00000000000E+00 0. -1.
</event>
<event>
 7    1  0.5764931E-013  0.5052885E+02  0.7816164E-02  0.1300439E+00
        -11   -1    0    0    0    0  0.00000000000E+00  0.00000000000E+00  0.45593999997E+02  0.45594000000E+02  0.51100000000E-03 0.  1.
         11   -1    0    0    0    0 -0.00000000000E+00 -0.00000000000E+00 -0.45593999997E+02  0.45594000000E+02  0.51100000000E-03 0. -1.
    9900012    2    1    2    0    0  0.23927916184E+02 -0.21036060072E+02  0.25260745700E+02  0.50528852572E+02  0.29999977877E+02 0.  0.
         12    1    1    2    0    0 -0.23927916184E+02  0.21036060072E+02 -0.25260745700E+02  0.40659147428E+02  0.00000000000E+00 0. -1.
         11    1    3    3    0    0 -0.28372860042E+01  0.27189945887E+00  0.24123288532E+01  0.37340931888E+01  0.51100000000E-03 0. -1.
        -11    1    3    3    0    0  0.27367870115E+02 -0.20135016320E+02  0.12254581659E+02  0.36119163455E+02  0.51100000000E-03 0.  1.
        -12    1    3    3    0    0 -0.60266792679E+00 -0.11729432114E+01  0.10593835188E+02  0.10675595927E+02  0.00000000000E+00 0.  1.
</event>
<event>
 7    1  0.5764931E-013  0.5052882E+02  0.7816164E-02  0.1300439E+00
        -11   -1    0    0    0    0  0.00000000000E+00  0.00000000000E+00  0.45593999997E+02  0.45594000000E+02  0.51100000000E-03 0.  1.
         11   -1    0    0    0    0 -0.00000000000E+00 -0.00000000000E+00 -0.45593999997E+02  0.45594000000E+02  0.51100000000E-03 0. -1.
    9900012    2    1    2    0    0  0.54541132317E+01  0.36721160060E+02  0.16582464818E+02  0.50528817928E+02  0.29999872575E+02 0.  0.
         12    1    1    2    0    0 -0.54541132317E+01 -0.36721160060E+02 -0.16582464818E+02  0.40659182072E+02  0.00000000000E+00 0. -1.
         11    1    3    3    0    0  0.24875021416E+01 -0.45517231520E+01  0.22040863361E+01  0.56359424584E+01  0.51100000000E-03 0. -1.
        -11    1    3    3    0    0  0.30747556681E+01  0.26415639830E+02  0.42996575436E+01  0.26939324514E+02  0.51100000000E-03 0.  1.
         12    1    3    3    0    0 -0.10814457793E+00  0.14857243382E+02  0.10078720938E+02  0.17953550956E+02  0.00000000000E+00 0. -1.
</event>
<event>
 7    1  0.5764931E-013  0.5052885E+02  0.7816164E-02  0.1300439E+00
        -11   -1    0    0    0    0  0.00000000000E+00  0.00000000000E+00  0.45593999997E+02  0.45594000000E+02  0.51100000000E-03 0.  1.
         11   -1    0    0    0    0 -0.00000000000E+00 -0.00000000000E+00 -0.45593999997E+02  0.45594000000E+02  0.51100000000E-03 0. -1.
    9900012    2    1    2    0    0 -0.24655426714E+02 -0.17139599506E+02  0.27413695498E+02  0.50528848035E+02  0.29999964086E+02 0.  0.
         12    1    1    2    0    0  0.24655426714E+02  0.17139599506E+02 -0.27413695498E+02  0.40659151965E+02  0.00000000000E+00 0. -1.
         11    1    3    3    0    0 -0.91797601647E+01 -0.11087676803E+02 -0.35733949985E+01  0.14831511239E+02  0.51100000000E-03 0. -1.
        -11    1    3    3    0    0 -0.67993973259E+01 -0.55794512411E+01  0.12669078773E+02  0.15422958126E+02  0.51100000000E-03 0.  1.
         12    1    3    3    0    0 -0.86762692232E+01 -0.47247146221E+00  0.18318011724E+02  0.20274378670E+02  0.00000000000E+00 0. -1.
</event>
<event>
 7    1  0.5764931E-013  0.5052885E+02  0.7816164E-02  0.1300439E+00
        -11   -1    0    0    0    0  0.00000000000E+00  0.00000000000E+00  0.45593999997E+02  0.45594000000E+02  0.51100000000E-03 0. -1.
         11   -1    0    0    0    0 -0.00000000000E+00 -0.00000000000E+00 -0.45593999997E+02  0.45594000000E+02  0.51100000000E-03 0.  1.
    9900012    2    1    2    0    0 -0.14799717835E+01 -0.29983442862E+02 -0.27422060015E+02  0.50528849274E+02  0.29999967852E+02 0.  0.
         12    1    1    2    0    0  0.14799717835E+01  0.29983442862E+02  0.27422060015E+02  0.40659150726E+02  0.00000000000E+00 0. -1.
         11    1    3    3    0    0 -0.12386245822E+01  0.11604885066E+01  0.14009417721E+01  0.22008095191E+01  0.51100000000E-03 0. -1.
        -11    1    3    3    0    0 -0.15828421763E+00 -0.28285645956E+02 -0.11116444364E+02  0.30392073911E+02  0.51100000000E-03 0.  1.
        -12    1    3    3    0    0 -0.83062983674E-01 -0.28582854119E+01 -0.17706557423E+02  0.17935965843E+02  0.00000000000E+00 0.  1.
</event>
<event>
 7    1  0.5764931E-013  0.5052886E+02  0.7816164E-02  0.1300439E+00
        -11   -1    0    0    0    0  0.00000000000E+00  0.00000000000E+00  0.45593999997E+02  0.45594000000E+02  0.51100000000E-03 0.  1.
         11   -1    0    0    0    0 -0.00000000000E+00 -0.00000000000E+00 -0.45593999997E+02  0.45594000000E+02  0.51100000000E-03 0. -1.
    9900012    2    1    2    0    0  0.20208708999E+01  0.36429711155E+01  0.40445157467E+02  0.50528856867E+02  0.29999990934E+02 0.  0.
         12    1    1    2    0    0 -0.20208708999E+01 -0.36429711155E+01 -0.40445157467E+02  0.40659143133E+02  0.00000000000E+00 0. -1.
         11    1    3    3    0    0 -0.56101209512E+01 -0.33211259377E+00 -0.20781003426E+01  0.59918492268E+01  0.51100000000E-03 0. -1.
        -11    1    3    3    0    0  0.90386039710E+01  0.36386775951E+00  0.24890824594E+02  0.26483615892E+02  0.51100000000E-03 0.  1.
         12    1    3    3    0    0 -0.14076121199E+01  0.36112159497E+01  0.17632433215E+02  0.18053391748E+02  0.00000000000E+00 0. -1.
</event>
<event>
 7    1  0.5764931E-013  0.5052886E+02  0.7816164E-02  0.1300439E+00
        -11   -1    0    0    0    0  0.00000000000E+00  0.00000000000E+00  0.45593999997E+02  0.45594000000E+02  0.51100000000E-03 0.  1.
         11   -1    0    0    0    0 -0.00000000000E+00 -0.00000000000E+00 -0.45593999997E+02  0.45594000000E+02  0.51100000000E-03 0. -1.
    9900012    2    1    2    0    0  0.38049377201E+02 -0.14015978833E+02  0.29938609389E+01  0.50528856239E+02  0.29999989024E+02 0.  0.
         12    1    1    2    0    0 -0.38049377201E+02  0.14015978833E+02 -0.29938609389E+01  0.40659143761E+02  0.00000000000E+00 0. -1.
         11    1    3    3    0    0  0.10215568334E+01 -0.74730365823E+00 -0.32652487196E+01  0.35019838068E+01  0.51100000000E-03 0. -1.
        -11    1    3    3    0    0  0.17990714592E+02  0.12362439436E+01  0.12920171342E+02  0.22183889163E+02  0.51100000000E-03 0.  1.
        -12    1    3    3    0    0  0.19037105776E+02 -0.14504919119E+02 -0.66610616837E+01  0.24842983269E+02  0.00000000000E+00 0.  1.
</event>
<event>
 7    1  0.5764931E-013  0.5052886E+02  0.7816164E-02  0.1300439E+00
        -11   -1    0    0    0    0  0.00000000000E+00  0.00000000000E+00  0.45593999997E+02  0.45594000000E+02  0.51100000000E-03 0. -1.
         11   -1    0    0    0    0 -0.00000000000E+00 -0.00000000000E+00 -0.45593999997E+02  0.45594000000E+02  0.51100000000E-03 0.  1.
    9900012    2    1    2    0    0 -0.31555667789E+02 -0.25537553866E+02 -0.22888240647E+01  0.50528861511E+02  0.30000005048E+02 0.  0.
         12    1    1    2    0    0  0.31555667789E+02  0.25537553866E+02  0.22888240647E+01  0.40659138489E+02  0.00000000000E+00 0. -1.
         11    1    3    3    0    0  0.15071420925E+01 -0.86203590080E+01 -0.72275558671E+01  0.11349873602E+02  0.51100000000E-03 0. -1.
        -11    1    3    3    0    0 -0.54760967891E+01 -0.49165193980E+01  0.53396316942E+01  0.90923850516E+01  0.51100000000E-03 0.  1.
         12    1    3    3    0    0 -0.27586713093E+02 -0.12000675460E+02 -0.40089989184E+00  0.30086602857E+02  0.00000000000E+00 0. -1.
</event>
<event>
 7    1  0.5764931E-013  0.5052887E+02  0.7816164E-02  0.1300439E+00
        -11   -1    0    0    0    0  0.00000000000E+00  0.00000000000E+00  0.45593999997E+02  0.45594000000E+02  0.51100000000E-03 0.  1.
         11   -1    0    0    0    0 -0.00000000000E+00 -0.00000000000E+00 -0.45593999997E+02  0.45594000000E+02  0.51100000000E-03 0. -1.
    9900012    2    1    2    0    0  0.39820135108E+01  0.20871753032E+02  0.34665235992E+02  0.50528867046E+02  0.30000021872E+02 0.  0.
         12    1    1    2    0    0 -0.39820135108E+01 -0.20871753032E+02 -0.34665235992E+02  0.40659132954E+02  0.00000000000E+00 0. -1.
         11    1    3    3    0    0  0.64166208684E+01  0.52238993489E+01 -0.28197882210E+01  0.87414731967E+01  0.51100000000E-03 0. -1.
        -11    1    3    3    0    0  0.17774916952E+01  0.10529697760E+02  0.29707177032E+02  0.31568186187E+02  0.51100000000E-03 0.  1.
         12    1    3    3    0    0 -0.42120990527E+01  0.51181559228E+01  0.77778471807E+01  0.10219207662E+02  0.00000000000E+00 0. -1.
</event>
<event>
 7    1  0.5764931E-013  0.5052872E+02  0.7816164E-02  0.1300439E+00
        -11   -1    0    0    0    0  0.00000000000E+00  0.00000000000E+00  0.45593999997E+02  0.45594000000E+02  0.51100000000E-03 0.  1.
         11   -1    0    0    0    0 -0.00000000000E+00 -0.00000000000E+00 -0.45593999997E+02  0.45594000000E+02  0.51100000000E-03 0. -1.
    9900012    2    1    2    0    0 -0.38850175449E+02  0.17356535913E+01  0.11867132345E+02  0.50528715010E+02  0.29999559742E+02 0.  0.
         12    1    1    2    0    0  0.38850175449E+02 -0.17356535913E+01 -0.11867132345E+02  0.40659284990E+02  0.00000000000E+00 0. -1.
         11    1    3    3    0    0 -0.50640246043E+01 -0.15468920759E+01 -0.31119111164E+01  0.61417596294E+01  0.51100000000E-03 0. -1.
        -11    1    3    3    0    0 -0.35604630014E+02  0.41539777101E+01  0.18493165434E+02  0.40335373772E+02  0.51100000000E-03 0.  1.
        -12    1    3    3    0    0  0.18184791701E+01 -0.87143204290E+00 -0.35141219727E+01  0.40515816092E+01  0.00000000000E+00 0.  1.
</event>
<event>
 7    1  0.5764931E-013  0.5052886E+02  0.7816164E-02  0.1300439E+00
        -11   -1    0    0    0    0  0.00000000000E+00  0.00000000000E+00  0.45593999997E+02  0.45594000000E+02  0.51100000000E-03 0. -1.
         11   -1    0    0    0    0 -0.00000000000E+00 -0.00000000000E+00 -0.45593999997E+02  0.45594000000E+02  0.51100000000E-03 0.  1.
    9900012    2    1    2    0    0  0.89281792305E+01  0.25988088011E+02 -0.29967854983E+02  0.50528862833E+02  0.30000009068E+02 0.  0.
         12    1    1    2    0    0 -0.89281792305E+01 -0.25988088011E+02  0.29967854983E+02  0.40659137167E+02  0.00000000000E+00 0. -1.
         11    1    3    3    0    0  0.69388284660E+01  0.50697469794E+01  0.36101793650E+01  0.93211088517E+01  0.51100000000E-03 0. -1.
        -11    1    3    3    0    0 -0.19778225820E+01  0.17349404230E+02 -0.19623762440E+02  0.26267958844E+02  0.51100000000E-03 0.  1.
         12    1    3    3    0    0  0.39671733465E+01  0.35689368024E+01 -0.13954271908E+02  0.14939795138E+02  0.00000000000E+00 0. -1.
</event>
<event>
 7    1  0.5764931E-013  0.5052888E+02  0.7816164E-02  0.1300439E+00
        -11   -1    0    0    0    0  0.00000000000E+00  0.00000000000E+00  0.45593999997E+02  0.45594000000E+02  0.51100000000E-03 0.  1.
         11   -1    0    0    0    0 -0.00000000000E+00 -0.00000000000E+00 -0.45593999997E+02  0.45594000000E+02  0.51100000000E-03 0. -1.
    9900012    2    1    2    0    0 -0.10388988674E+02  0.34501245884E+02  0.18838720281E+02  0.50528875131E+02  0.30000046450E+02 0.  0.
         12    1    1    2    0    0  0.10388988674E+02 -0.34501245884E+02 -0.18838720281E+02  0.40659124869E+02  0.00000000000E+00 0. -1.
         11    1    3    3    0    0  0.56085521235E+01  0.11321504428E+01  0.32436456731E+01  0.65771467264E+01  0.51100000000E-03 0. -1.
        -11    1    3    3    0    0 -0.11973683276E+02  0.24399582473E+02  0.19418758365E+02  0.33403546110E+02  0.51100000000E-03 0.  1.
        -12    1    3    3    0    0 -0.40238575223E+01  0.89695129682E+01 -0.38236837571E+01  0.10548182295E+02  0.00000000000E+00 0.  1.
</event>
<event>
 7    1  0.5764931E-013  0.5052889E+02  0.7816164E-02  0.1300439E+00
        -11   -1    0    0    0    0  0.00000000000E+00  0.00000000000E+00  0.45593999997E+02  0.45594000000E+02  0.51100000000E-03 0. -1.
         11   -1    0    0    0    0 -0.00000000000E+00 -0.00000000000E+00 -0.45593999997E+02  0.45594000000E+02  0.51100000000E-03 0.  1.
    9900012    2    1    2    0    0  0.21646409430E+02  0.30391631687E+02 -0.16153781442E+02  0.50528893115E+02  0.30000101113E+02 0.  0.
         12    1    1    2    0    0 -0.21646409430E+02 -0.30391631687E+02  0.16153781442E+02  0.40659106885E+02  0.00000000000E+00 0. -1.
         11    1    3    3    0    0  0.14930036890E+02  0.15210394930E+02  0.45928616040E+01  0.21802671704E+02  0.51100000000E-03 0. -1.
        -11    1    3    3    0    0  0.40481818076E+01  0.16290203523E+02 -0.16127471909E+02  0.23277754557E+02  0.51100000000E-03 0.  1.
        -12    1    3    3    0    0  0.26681907331E+01 -0.11089667663E+01 -0.46191711362E+01  0.54484668543E+01  0.00000000000E+00 0.  1.
</event>
<event>
 7    1  0.5764931E-013  0.5052885E+02  0.7816164E-02  0.1300439E+00
        -11   -1    0    0    0    0  0.00000000000E+00  0.00000000000E+00  0.45593999997E+02  0.45594000000E+02  0.51100000000E-03 0.  1.
         11   -1    0    0    0    0 -0.00000000000E+00 -0.00000000000E+00 -0.45593999997E+02  0.45594000000E+02  0.51100000000E-03 0. -1.
    9900012    2    1    2    0    0 -0.37411403754E+02  0.61668902187E+01  0.14680704609E+02  0.50528846620E+02  0.29999959786E+02 0.  0.
         12    1    1    2    0    0  0.37411403754E+02 -0.61668902187E+01 -0.14680704609E+02  0.40659153380E+02  0.00000000000E+00 0. -1.
         11    1    3    3    0    0 -0.18657182812E+02 -0.67406629171E+01  0.16080650657E+02  0.25536529382E+02  0.51100000000E-03 0. -1.
        -11    1    3    3    0    0 -0.10486097659E+02  0.91392063801E+01 -0.55840992801E+01  0.14988845933E+02  0.51100000000E-03 0.  1.
        -12    1    3    3    0    0 -0.82681232823E+01  0.37683467558E+01  0.41841532318E+01  0.10003471305E+02  0.00000000000E+00 0.  1.
</event>
<event>
 7    1  0.5764931E-013  0.5052886E+02  0.7816164E-02  0.1300439E+00
        -11   -1    0    0    0    0  0.00000000000E+00  0.00000000000E+00  0.45593999997E+02  0.45594000000E+02  0.51100000000E-03 0.  1.
         11   -1    0    0    0    0 -0.00000000000E+00 -0.00000000000E+00 -0.45593999997E+02  0.45594000000E+02  0.51100000000E-03 0. -1.
    9900012    2    1    2    0    0 -0.42750778855E+01  0.27980699546E+02  0.29188521821E+02  0.50528860264E+02  0.30000001257E+02 0.  0.
         12    1    1    2    0    0  0.42750778855E+01 -0.27980699546E+02 -0.29188521821E+02  0.40659139736E+02  0.00000000000E+00 0. -1.
         11    1    3    3    0    0  0.12137851464E+01 -0.11628454834E+01 -0.20491819478E+01  0.26504020292E+01  0.51100000000E-03 0. -1.
        -11    1    3    3    0    0 -0.51851334979E+01  0.16271537370E+02  0.30531942115E+02  0.34983539377E+02  0.51100000000E-03 0.  1.
        -12    1    3    3    0    0 -0.30372953404E+00  0.12872007660E+02  0.70576165341E+00  0.12894918857E+02  0.00000000000E+00 0.  1.
</event>
<event>
 7    1  0.5764931E-013  0.5052886E+02  0.7816164E-02  0.1300439E+00
        -11   -1    0    0    0    0  0.00000000000E+00  0.00000000000E+00  0.45593999997E+02  0.45594000000E+02  0.51100000000E-03 0.  1.
         11   -1    0    0    0    0 -0.00000000000E+00 -0.00000000000E+00 -0.45593999997E+02  0.45594000000E+02  0.51100000000E-03 0. -1.
    9900012    2    1    2    0    0  0.29045379558E+02  0.28132958215E+02 -0.42506883966E+01  0.50528858797E+02  0.29999996798E+02 0.  0.
         12    1    1    2    0    0 -0.29045379558E+02 -0.28132958215E+02  0.42506883966E+01  0.40659141203E+02  0.00000000000E+00 0. -1.
         11    1    3    3    0    0  0.81266180982E+01  0.23965982243E+01 -0.29672758422E+01  0.89772117580E+01  0.51100000000E-03 0. -1.
        -11    1    3    3    0    0  0.59053360311E+01  0.18368526447E+02 -0.11000170740E+02  0.22209896760E+02  0.51100000000E-03 0.  1.
        -12    1    3    3    0    0  0.15013425429E+02  0.73678335427E+01  0.97167581858E+01  0.19341750279E+02  0.00000000000E+00 0.  1.
</event>
<event>
 7    1  0.5764931E-013  0.5052885E+02  0.7816164E-02  0.1300439E+00
        -11   -1    0    0    0    0  0.00000000000E+00  0.00000000000E+00  0.45593999997E+02  0.45594000000E+02  0.51100000000E-03 0. -1.
         11   -1    0    0    0    0 -0.00000000000E+00 -0.00000000000E+00 -0.45593999997E+02  0.45594000000E+02  0.51100000000E-03 0.  1.
    9900012    2    1    2    0    0  0.20874922750E+02 -0.34885882145E+02 -0.61584801507E+00  0.50528850456E+02  0.29999971447E+02 0.  0.
         12    1    1    2    0    0 -0.20874922750E+02  0.34885882145E+02  0.61584801507E+00  0.40659149544E+02  0.00000000000E+00 0. -1.
         11    1    3    3    0    0 -0.16039031778E+01  0.39868243880E+01 -0.16513211723E+01  0.46037089373E+01  0.51100000000E-03 0. -1.
        -11    1    3    3    0    0  0.63896423105E+01 -0.19031608518E+02  0.30288469514E+01  0.20302796993E+02  0.51100000000E-03 0.  1.
         12    1    3    3    0    0  0.16089183617E+02 -0.19841098015E+02 -0.19933737942E+01  0.25622344526E+02  0.00000000000E+00 0. -1.
</event>
<event>
 7    1  0.5764931E-013  0.5052886E+02  0.7816164E-02  0.1300439E+00
        -11   -1    0    0    0    0  0.00000000000E+00  0.00000000000E+00  0.45593999997E+02  0.45594000000E+02  0.51100000000E-03 0. -1.
         11   -1    0    0    0    0 -0.00000000000E+00 -0.00000000000E+00 -0.45593999997E+02  0.45594000000E+02  0.51100000000E-03 0.  1.
    9900012    2    1    2    0    0 -0.30024920760E+02 -0.46409400266E+01 -0.27020950921E+02  0.50528856137E+02  0.29999988714E+02 0.  0.
         12    1    1    2    0    0  0.30024920760E+02  0.46409400266E+01  0.27020950921E+02  0.40659143863E+02  0.00000000000E+00 0. -1.
         11    1    3    3    0    0 -0.29681232800E+02 -0.23875597876E+01 -0.10596372243E+02  0.31606314674E+02  0.51100000000E-03 0. -1.
        -11    1    3    3    0    0 -0.22960421927E+01 -0.47673502955E+01 -0.13857282667E+02  0.14833196613E+02  0.51100000000E-03 0.  1.
         12    1    3    3    0    0  0.19523542329E+01  0.25139700565E+01 -0.25672960114E+01  0.40893448504E+01  0.00000000000E+00 0. -1.
</event>
<event>
 7    1  0.5764931E-013  0.5052886E+02  0.7816164E-02  0.1300439E+00
        -11   -1    0    0    0    0  0.00000000000E+00  0.00000000000E+00  0.45593999997E+02  0.45594000000E+02  0.51100000000E-03 0. -1.
         11   -1    0    0    0    0 -0.00000000000E+00 -0.00000000000E+00 -0.45593999997E+02  0.45594000000E+02  0.51100000000E-03 0.  1.
    9900012    2    1    2    0    0  0.70705596798E+01 -0.30774168852E+02 -0.25614911363E+02  0.50528856294E+02  0.29999989193E+02 0.  0.
         12    1    1    2    0    0 -0.70705596798E+01  0.30774168852E+02  0.25614911363E+02  0.40659143706E+02  0.00000000000E+00 0. -1.
         11    1    3    3    0    0  0.17629217472E+02 -0.13010277841E+02 -0.14015350183E+02  0.26009357531E+02  0.51100000000E-03 0. -1.
        -11    1    3    3    0    0 -0.24795787549E+01 -0.92715868800E+01 -0.72068087659E+01  0.12002030117E+02  0.51100000000E-03 0.  1.
         12    1    3    3    0    0 -0.80790790370E+01 -0.84923041314E+01 -0.43927524137E+01  0.12517468646E+02  0.00000000000E+00 0. -1.
</event>
<event>
 7    1  0.5764931E-013  0.5052887E+02  0.7816164E-02  0.1300439E+00
        -11   -1    0    0    0    0  0.00000000000E+00  0.00000000000E+00  0.45593999997E+02  0.45594000000E+02  0.51100000000E-03 0. -1.
         11   -1    0    0    0    0 -0.00000000000E+00 -0.00000000000E+00 -0.45593999997E+02  0.45594000000E+02  0.51100000000E-03 0.  1.
    9900012    2    1    2    0    0  0.16749064673E+02  0.32183258198E+02 -0.18354063263E+02  0.50528869244E+02  0.30000028553E+02 0.  0.
         12    1    1    2    0    0 -0.16749064673E+02 -0.32183258198E+02  0.18354063263E+02  0.40659130756E+02  0.00000000000E+00 0. -1.
         11    1    3    3    0    0 -0.32969080076E+01 -0.31273597180E+01 -0.16332560726E+01  0.48288204435E+01  0.51100000000E-03 0. -1.
        -11    1    3    3    0    0  0.13762903764E+02  0.32639353591E+02 -0.15887195444E+02  0.38822002810E+02  0.51100000000E-03 0.  1.
        -12    1    3    3    0    0  0.62830689162E+01  0.26712643249E+01 -0.83361174593E+00  0.68780459901E+01  0.00000000000E+00 0.  1.
</event>
<event>
 7    1  0.5764931E-013  0.5052882E+02  0.7816164E-02  0.1300439E+00
        -11   -1    0    0    0    0  0.00000000000E+00  0.00000000000E+00  0.45593999997E+02  0.45594000000E+02  0.51100000000E-03 0.  1.
         11   -1    0    0    0    0 -0.00000000000E+00 -0.00000000000E+00 -0.45593999997E+02  0.45594000000E+02  0.51100000000E-03 0. -1.
    9900012    2    1    2    0    0  0.19903961556E+02  0.34198750243E+02  0.93512767693E+01  0.50528824148E+02  0.29999891479E+02 0.  0.
         12    1    1    2    0    0 -0.19903961556E+02 -0.34198750243E+02 -0.93512767693E+01  0.40659175852E+02  0.00000000000E+00 0. -1.
         11    1    3    3    0    0 -0.26973395752E+01 -0.29774137225E+01  0.24912496163E+01  0.47272569393E+01  0.51100000000E-03 0. -1.
        -11    1    3    3    0    0  0.22473222611E+02  0.32849122121E+02  0.92430495519E+01  0.40860060253E+02  0.51100000000E-03 0.  1.
        -12    1    3    3    0    0  0.12807851988E+00  0.43270418448E+01 -0.23830223989E+01  0.49415069551E+01  0.00000000000E+00 0.  1.
</event>
<event>
 7    1  0.5764931E-013  0.5052884E+02  0.7816164E-02  0.1300439E+00
        -11   -1    0    0    0    0  0.00000000000E+00  0.00000000000E+00  0.45593999997E+02  0.45594000000E+02  0.51100000000E-03 0. -1.
         11   -1    0    0    0    0 -0.00000000000E+00 -0.00000000000E+00 -0.45593999997E+02  0.45594000000E+02  0.51100000000E-03 0.  1.
    9900012    2    1    2    0    0 -0.37123480860E+02 -0.12764245087E+02  0.10587180484E+02  0.50528841446E+02  0.29999944058E+02 0.  0.
         12    1    1    2    0    0  0.37123480860E+02  0.12764245087E+02 -0.10587180484E+02  0.40659158554E+02  0.00000000000E+00 0. -1.
         11    1    3    3    0    0 -0.23969929251E+01  0.80096738053E+01  0.28932660627E+00  0.83656535726E+01  0.51100000000E-03 0. -1.
        -11    1    3    3    0    0 -0.14259572350E+02 -0.80574796354E+01  0.71184807060E+01  0.17858643552E+02  0.51100000000E-03 0.  1.
         12    1    3    3    0    0 -0.20466915585E+02 -0.12716439256E+02  0.31793731713E+01  0.24304544321E+02  0.00000000000E+00 0. -1.
</event>
<event>
 7    1  0.5764931E-013  0.5052887E+02  0.7816164E-02  0.1300439E+00
        -11   -1    0    0    0    0  0.00000000000E+00  0.00000000000E+00  0.45593999997E+02  0.45594000000E+02  0.51100000000E-03 0.  1.
         11   -1    0    0    0    0 -0.00000000000E+00 -0.00000000000E+00 -0.45593999997E+02  0.45594000000E+02  0.51100000000E-03 0. -1.
    9900012    2    1    2    0    0  0.36991148742E+02 -0.14848697233E+01  0.16811161312E+02  0.50528867348E+02  0.30000022792E+02 0.  0.
         12    1    1    2    0    0 -0.36991148742E+02  0.14848697233E+01 -0.16811161312E+02  0.40659132652E+02  0.00000000000E+00 0. -1.
         11    1    3    3    0    0  0.86564365339E+01  0.65598062086E+01 -0.29092963216E+01  0.11244063158E+02  0.51100000000E-03 0. -1.
        -11    1    3    3    0    0  0.15172015955E+02  0.17503055690E+01  0.16648178549E+02  0.22592376745E+02  0.51100000000E-03 0.  1.
         12    1    3    3    0    0  0.13162696252E+02 -0.97949815009E+01  0.30722790850E+01  0.16692427445E+02  0.00000000000E+00 0. -1.
</event>
<event>
 7    1  0.5764931E-013  0.5052887E+02  0.7816164E-02  0.1300439E+00
        -11   -1    0    0    0    0  0.00000000000E+00  0.00000000000E+00  0.45593999997E+02  0.45594000000E+02  0.51100000000E-03 0.  1.
         11   -1    0    0    0    0 -0.00000000000E+00 -0.00000000000E+00 -0.45593999997E+02  0.45594000000E+02  0.51100000000E-03 0. -1.
    9900012    2    1    2    0    0 -0.13921314219E+02 -0.25031469949E+02  0.28858058659E+02  0.50528867853E+02  0.30000024327E+02 0.  0.
         12    1    1    2    0    0  0.13921314219E+02  0.25031469949E+02 -0.28858058659E+02  0.40659132147E+02  0.00000000000E+00 0. -1.
         11    1    3    3    0    0  0.44153043492E+00 -0.94444240524E+01 -0.18197817921E+01  0.96282761094E+01  0.51100000000E-03 0. -1.
        -11    1    3    3    0    0 -0.76174171404E+01 -0.18266840784E+02  0.22309652697E+02  0.29823197679E+02  0.51100000000E-03 0.  1.
         12    1    3    3    0    0 -0.67454275133E+01  0.26797948876E+01  0.83681877541E+01  0.11077394065E+02  0.00000000000E+00 0. -1.
</event>
<event>
 7    1  0.5764931E-013  0.5052887E+02  0.7816164E-02  0.1300439E+00
        -11   -1    0    0    0    0  0.00000000000E+00  0.00000000000E+00  0.45593999997E+02  0.45594000000E+02  0.51100000000E-03 0.  1.
         11   -1    0    0    0    0 -0.00000000000E+00 -0.00000000000E+00 -0.45593999997E+02  0.45594000000E+02  0.51100000000E-03 0. -1.
    9900012    2    1    2    0    0  0.34370469337E+02  0.21299956553E+02  0.42599903318E+01  0.50528870285E+02  0.30000031717E+02 0.  0.
         12    1    1    2    0    0 -0.34370469337E+02 -0.21299956553E+02 -0.42599903318E+01  0.40659129715E+02  0.00000000000E+00 0. -1.
         11    1    3    3    0    0  0.74041160144E+01  0.58268350904E+01 -0.17166262228E+01  0.95770427051E+01  0.51100000000E-03 0. -1.
        -11    1    3    3    0    0 -0.10262837012E+01 -0.53491900585E+01  0.21464952440E+01  0.58544457134E+01  0.51100000000E-03 0.  1.
        -12    1    3    3    0    0  0.27992637024E+02  0.20822311521E+02  0.38301213106E+01  0.35097381866E+02  0.00000000000E+00 0.  1.
</event>
<event>
 7    1  0.5764931E-013  0.5052888E+02  0.7816164E-02  0.1300439E+00
        -11   -1    0    0    0    0  0.00000000000E+00  0.00000000000E+00  0.45593999997E+02  0.45594000000E+02  0.51100000000E-03 0. -1.
         11   -1    0    0    0    0 -0.00000000000E+00 -0.00000000000E+00 -0.45593999997E+02  0.45594000000E+02  0.51100000000E-03 0.  1.
    9900012    2    1    2    0    0  0.39178089085E+02  0.33249420716E+01 -0.10353086791E+02  0.50528876667E+02  0.30000051117E+02 0.  0.
         12    1    1    2    0    0 -0.39178089085E+02 -0.33249420716E+01  0.10353086791E+02  0.40659123333E+02  0.00000000000E+00 0. -1.
         11    1    3    3    0    0  0.30604742620E+01 -0.48639074568E+01 -0.11984182596E+02  0.13290776171E+02  0.51100000000E-03 0. -1.
        -11    1    3    3    0    0  0.18146598031E+02  0.25947178563E+01 -0.15642991961E+00  0.18331831644E+02  0.51100000000E-03 0.  1.
         12    1    3    3    0    0  0.17971016792E+02  0.55941316720E+01  0.17875257249E+01  0.18906268852E+02  0.00000000000E+00 0. -1.
</event>
<event>
 7    1  0.5764931E-013  0.5052886E+02  0.7816164E-02  0.1300439E+00
        -11   -1    0    0    0    0  0.00000000000E+00  0.00000000000E+00  0.45593999997E+02  0.45594000000E+02  0.51100000000E-03 0.  1.
         11   -1    0    0    0    0 -0.00000000000E+00 -0.00000000000E+00 -0.45593999997E+02  0.45594000000E+02  0.51100000000E-03 0. -1.
    9900012    2    1    2    0    0 -0.15100570101E+02 -0.13789133415E+02  0.35142545261E+02  0.50528857053E+02  0.29999991499E+02 0.  0.
         12    1    1    2    0    0  0.15100570101E+02  0.13789133415E+02 -0.35142545261E+02  0.40659142947E+02  0.00000000000E+00 0. -1.
         11    1    3    3    0    0  0.64254376833E+01 -0.80841439055E+01  0.11497882383E+02  0.15454479340E+02  0.51100000000E-03 0. -1.
        -11    1    3    3    0    0 -0.10215823110E+02  0.28449818498E+01  0.15322163370E+02  0.18633991900E+02  0.51100000000E-03 0.  1.
        -12    1    3    3    0    0 -0.11310184675E+02 -0.85499713593E+01  0.83224995080E+01  0.16440385813E+02  0.00000000000E+00 0.  1.
</event>
<event>
 7    1  0.5764931E-013  0.5052888E+02  0.7816164E-02  0.1300439E+00
        -11   -1    0    0    0    0  0.00000000000E+00  0.00000000000E+00  0.45593999997E+02  0.45594000000E+02  0.51100000000E-03 0. -1.
         11   -1    0    0    0    0 -0.00000000000E+00 -0.00000000000E+00 -0.45593999997E+02  0.45594000000E+02  0.51100000000E-03 0.  1.
    9900012    2    1    2    0    0 -0.20849955231E+02 -0.34332615167E+02 -0.63019639731E+01  0.50528882360E+02  0.30000068422E+02 0.  0.
         12    1    1    2    0    0  0.20849955231E+02  0.34332615167E+02  0.63019639731E+01  0.40659117640E+02  0.00000000000E+00 0. -1.
         11    1    3    3    0    0 -0.98162765717E+01 -0.56781134255E+01  0.98130509792E+01  0.14996540521E+02  0.51100000000E-03 0. -1.
        -11    1    3    3    0    0 -0.43683534383E+01 -0.21292142612E+02 -0.10935237939E+02  0.24331405176E+02  0.51100000000E-03 0.  1.
         12    1    3    3    0    0 -0.66653252205E+01 -0.73623591294E+01 -0.51797770130E+01  0.11200936664E+02  0.00000000000E+00 0. -1.
</event>
<event>
 7    1  0.5764931E-013  0.5052885E+02  0.7816164E-02  0.1300439E+00
        -11   -1    0    0    0    0  0.00000000000E+00  0.00000000000E+00  0.45593999997E+02  0.45594000000E+02  0.51100000000E-03 0.  1.
         11   -1    0    0    0    0 -0.00000000000E+00 -0.00000000000E+00 -0.45593999997E+02  0.45594000000E+02  0.51100000000E-03 0. -1.
    9900012    2    1    2    0    0 -0.17873729324E+02  0.36512873057E+02 -0.71134142348E+00  0.50528854590E+02  0.29999984011E+02 0.  0.
         12    1    1    2    0    0  0.17873729324E+02 -0.36512873057E+02  0.71134142348E+00  0.40659145410E+02  0.00000000000E+00 0. -1.
         11    1    3    3    0    0  0.42682914569E+01  0.13792009518E+02  0.58954635295E+01  0.15594689128E+02  0.51100000000E-03 0. -1.
        -11    1    3    3    0    0 -0.17444351401E+02  0.17115955088E+02  0.89792698588E+00  0.24455420411E+02  0.51100000000E-03 0.  1.
         12    1    3    3    0    0 -0.46976693801E+01  0.56049084512E+01 -0.75047319389E+01  0.10478745050E+02  0.00000000000E+00 0. -1.
</event>
<event>
 7    1  0.5764931E-013  0.5052886E+02  0.7816164E-02  0.1300439E+00
        -11   -1    0    0    0    0  0.00000000000E+00  0.00000000000E+00  0.45593999997E+02  0.45594000000E+02  0.51100000000E-03 0. -1.
         11   -1    0    0    0    0 -0.00000000000E+00 -0.00000000000E+00 -0.45593999997E+02  0.45594000000E+02  0.51100000000E-03 0.  1.
    9900012    2    1    2    0    0 -0.22539359834E+02  0.12834486210E+02 -0.31311646702E+02  0.50528855921E+02  0.29999988058E+02 0.  0.
         12    1    1    2    0    0  0.22539359834E+02 -0.12834486210E+02  0.31311646702E+02  0.40659144079E+02  0.00000000000E+00 0. -1.
         11    1    3    3    0    0 -0.13357226446E+02  0.16300108678E+02 -0.12431273358E+02  0.24467235210E+02  0.51100000000E-03 0. -1.
        -11    1    3    3    0    0  0.41276865166E+01 -0.16347109771E+01 -0.36081248320E+01  0.57208951242E+01  0.51100000000E-03 0.  1.
        -12    1    3    3    0    0 -0.13309819905E+02 -0.18309114909E+01 -0.15272248512E+02  0.20340725587E+02  0.00000000000E+00 0.  1.
</event>
<event>
 7    1  0.5764931E-013  0.5052885E+02  0.7816164E-02  0.1300439E+00
        -11   -1    0    0    0    0  0.00000000000E+00  0.00000000000E+00  0.45593999997E+02  0.45594000000E+02  0.51100000000E-03 0. -1.
         11   -1    0    0    0    0 -0.00000000000E+00 -0.00000000000E+00 -0.45593999997E+02  0.45594000000E+02  0.51100000000E-03 0.  1.
    9900012    2    1    2    0    0  0.85951269919E+01  0.37168496314E+02 -0.14063893189E+02  0.50528850748E+02  0.29999972334E+02 0.  0.
         12    1    1    2    0    0 -0.85951269919E+01 -0.37168496314E+02  0.14063893189E+02  0.40659149252E+02  0.00000000000E+00 0. -1.
         11    1    3    3    0    0  0.12737039555E+02  0.11729879499E+02  0.11114823824E+01  0.17351012738E+02  0.51100000000E-03 0. -1.
        -11    1    3    3    0    0 -0.40513052799E+01  0.21940800521E+02 -0.56295514905E+01  0.23010946357E+02  0.51100000000E-03 0.  1.
        -12    1    3    3    0    0 -0.90607283511E-01  0.34978162940E+01 -0.95458240808E+01  0.10166891653E+02  0.00000000000E+00 0.  1.
</event>
<event>
 7    1  0.5764931E-013  0.5052887E+02  0.7816164E-02  0.1300439E+00
        -11   -1    0    0    0    0  0.00000000000E+00  0.00000000000E+00  0.45593999997E+02  0.45594000000E+02  0.51100000000E-03 0. -1.
         11   -1    0    0    0    0 -0.00000000000E+00 -0.00000000000E+00 -0.45593999997E+02  0.45594000000E+02  0.51100000000E-03 0.  1.
    9900012    2    1    2    0    0  0.19821877892E+02  0.26478030136E+02 -0.23646822479E+02  0.50528866507E+02  0.30000020235E+02 0.  0.
         12    1    1    2    0    0 -0.19821877892E+02 -0.26478030136E+02  0.23646822479E+02  0.40659133493E+02  0.00000000000E+00 0. -1.
         11    1    3    3    0    0 -0.28057664947E+01  0.21978670049E+01  0.25722337216E+01  0.43953761584E+01  0.51100000000E-03 0. -1.
        -11    1    3    3    0    0  0.22316710772E+02  0.25413140887E+02 -0.28062611667E+02  0.43947394499E+02  0.51100000000E-03 0.  1.
        -12    1    3    3    0    0  0.31093361528E+00 -0.11329777558E+01  0.18435554663E+01  0.21860958501E+01  0.00000000000E+00 0.  1.
</event>
<event>
 7    1  0.5764931E-013  0.5052887E+02  0.7816164E-02  0.1300439E+00
        -11   -1    0    0    0    0  0.00000000000E+00  0.00000000000E+00  0.45593999997E+02  0.45594000000E+02  0.51100000000E-03 0.  1.
         11   -1    0    0    0    0 -0.00000000000E+00 -0.00000000000E+00 -0.45593999997E+02  0.45594000000E+02  0.51100000000E-03 0. -1.
    9900012    2    1    2    0    0  0.18773253720E+02  0.24932050025E+02  0.26059988444E+02  0.50528866077E+02  0.30000018927E+02 0.  0.
         12    1    1    2    0    0 -0.18773253720E+02 -0.24932050025E+02 -0.26059988444E+02  0.40659133923E+02  0.00000000000E+00 0. -1.
         11    1    3    3    0    0  0.56460099165E+01 -0.21716861948E+01 -0.49274276976E+00  0.60693034694E+01  0.51100000000E-03 0. -1.
        -11    1    3    3    0    0 -0.27785107222E+00  0.12673544842E+02  0.20043852630E+02  0.23716069838E+02  0.51100000000E-03 0.  1.
         12    1    3    3    0    0  0.13405094876E+02  0.14430191378E+02  0.65088785839E+01  0.20743492769E+02  0.00000000000E+00 0. -1.
</event>
<event>
 7    1  0.5764931E-013  0.5052887E+02  0.7816164E-02  0.1300439E+00
        -11   -1    0    0    0    0  0.00000000000E+00  0.00000000000E+00  0.45593999997E+02  0.45594000000E+02  0.51100000000E-03 0.  1.
         11   -1    0    0    0    0 -0.00000000000E+00 -0.00000000000E+00 -0.45593999997E+02  0.45594000000E+02  0.51100000000E-03 0. -1.
    9900012    2    1    2    0    0  0.11633960622E+02  0.38682599985E+02  0.46338008166E+01  0.50528871980E+02  0.30000036870E+02 0.  0.
         12    1    1    2    0    0 -0.11633960622E+02 -0.38682599985E+02 -0.46338008166E+01  0.40659128020E+02  0.00000000000E+00 0. -1.
         11    1    3    3    0    0 -0.66890938639E+01  0.18381967261E+01 -0.34277431175E+00  0.69455337026E+01  0.51100000000E-03 0. -1.
        -11    1    3    3    0    0  0.90561803992E+01  0.11723740692E+02  0.76535286812E+01  0.16674441543E+02  0.51100000000E-03 0.  1.
         12    1    3    3    0    0  0.92668740864E+01  0.25120662567E+02 -0.26769535529E+01  0.26908896734E+02  0.00000000000E+00 0. -1.
</event>
<event>
 7    1  0.5764931E-013  0.5052886E+02  0.7816164E-02  0.1300439E+00
        -11   -1    0    0    0    0  0.00000000000E+00  0.00000000000E+00  0.45593999997E+02  0.45594000000E+02  0.51100000000E-03 0. -1.
         11   -1    0    0    0    0 -0.00000000000E+00 -0.00000000000E+00 -0.45593999997E+02  0.45594000000E+02  0.51100000000E-03 0.  1.
    9900012    2    1    2    0    0  0.14808110104E+02  0.29732397553E+02 -0.23449307301E+02  0.50528860782E+02  0.30000002832E+02 0.  0.
         12    1    1    2    0    0 -0.14808110104E+02 -0.29732397553E+02  0.23449307301E+02  0.40659139218E+02  0.00000000000E+00 0. -1.
         11    1    3    3    0    0  0.44563333924E+01  0.50440009032E+01  0.55224534023E+01  0.87062244548E+01  0.51100000000E-03 0. -1.
        -11    1    3    3    0    0  0.10147753341E+02  0.15917408502E+02 -0.11061946312E+02  0.21879384081E+02  0.51100000000E-03 0.  1.
         12    1    3    3    0    0  0.20402337035E+00  0.87709881476E+01 -0.17909814391E+02  0.19943252246E+02  0.00000000000E+00 0. -1.
</event>
<event>
 7    1  0.5764931E-013  0.5052887E+02  0.7816164E-02  0.1300439E+00
        -11   -1    0    0    0    0  0.00000000000E+00  0.00000000000E+00  0.45593999997E+02  0.45594000000E+02  0.51100000000E-03 0.  1.
         11   -1    0    0    0    0 -0.00000000000E+00 -0.00000000000E+00 -0.45593999997E+02  0.45594000000E+02  0.51100000000E-03 0. -1.
    9900012    2    1    2    0    0  0.20108871049E+02 -0.20635185523E+02  0.28687755229E+02  0.50528869703E+02  0.30000029949E+02 0.  0.
         12    1    1    2    0    0 -0.20108871049E+02  0.20635185523E+02 -0.28687755229E+02  0.40659130297E+02  0.00000000000E+00 0. -1.
         11    1    3    3    0    0  0.79328459296E+01 -0.59202983292E+00 -0.11399649324E+01  0.80361722340E+01  0.51100000000E-03 0. -1.
        -11    1    3    3    0    0  0.15922585407E+01 -0.19573575857E+02  0.20298509811E+02  0.28243400289E+02  0.51100000000E-03 0.  1.
        -12    1    3    3    0    0  0.10583766579E+02 -0.46957983273E+00  0.95292103510E+01  0.14249297180E+02  0.00000000000E+00 0.  1.
</event>
<event>
 7    1  0.5764931E-013  0.5052886E+02  0.7816164E-02  0.1300439E+00
        -11   -1    0    0    0    0  0.00000000000E+00  0.00000000000E+00  0.45593999997E+02  0.45594000000E+02  0.51100000000E-03 0. -1.
         11   -1    0    0    0    0 -0.00000000000E+00 -0.00000000000E+00 -0.45593999997E+02  0.45594000000E+02  0.51100000000E-03 0.  1.
    9900012    2    1    2    0    0 -0.37886666857E+02  0.14633466264E+02 -0.19046894044E+01  0.50528859550E+02  0.29999999087E+02 0.  0.
         12    1    1    2    0    0  0.37886666857E+02 -0.14633466264E+02  0.19046894044E+01  0.40659140450E+02  0.00000000000E+00 0. -1.
         11    1    3    3    0    0 -0.53564541542E+01 -0.67612603723E+01  0.18013430235E+01  0.88119850135E+01  0.51100000000E-03 0. -1.
        -11    1    3    3    0    0 -0.29385534502E+02  0.22801329237E+02 -0.58614014491E+01  0.37653237313E+02  0.51100000000E-03 0.  1.
        -12    1    3    3    0    0 -0.31446782005E+01 -0.14066026006E+01  0.21553690211E+01  0.40636372227E+01  0.00000000000E+00 0.  1.
</event>
<event>
 7    1  0.5764931E-013  0.5052886E+02  0.7816164E-02  0.1300439E+00
        -11   -1    0    0    0    0  0.00000000000E+00  0.00000000000E+00  0.45593999997E+02  0.45594000000E+02  0.51100000000E-03 0.  1.
         11   -1    0    0    0    0 -0.00000000000E+00 -0.00000000000E+00 -0.45593999997E+02  0.45594000000E+02  0.51100000000E-03 0. -1.
    9900012    2    1    2    0    0  0.21488362029E+02  0.74122157354E+01  0.33711648553E+02  0.50528857204E+02  0.29999991957E+02 0.  0.
         12    1    1    2    0    0 -0.21488362029E+02 -0.74122157354E+01 -0.33711648553E+02  0.40659142796E+02  0.00000000000E+00 0. -1.
         11    1    3    3    0    0  0.12802404226E+02  0.15528441739E+02  0.21369766203E+02  0.29354743478E+02  0.51100000000E-03 0. -1.
        -11    1    3    3    0    0  0.64159511113E+00 -0.90711730986E+01  0.68975121339E+01  0.11413741699E+02  0.51100000000E-03 0.  1.
        -12    1    3    3    0    0  0.80443626912E+01  0.95494709531E+00  0.54443702158E+01  0.97603720272E+01  0.00000000000E+00 0.  1.
</event>
<event>
 7    1  0.5764931E-013  0.5052886E+02  0.7816164E-02  0.1300439E+00
        -11   -1    0    0    0    0  0.00000000000E+00  0.00000000000E+00  0.45593999997E+02  0.45594000000E+02  0.51100000000E-03 0. -1.
         11   -1    0    0    0    0 -0.00000000000E+00 -0.00000000000E+00 -0.45593999997E+02  0.45594000000E+02  0.51100000000E-03 0.  1.
    9900012    2    1    2    0    0  0.23943370588E-01  0.25910958498E+02 -0.31333483500E+02  0.50528861644E+02  0.30000005455E+02 0.  0.
         12    1    1    2    0    0 -0.23943370588E-01 -0.25910958498E+02  0.31333483500E+02  0.40659138356E+02  0.00000000000E+00 0. -1.
         11    1    3    3    0    0  0.35826308033E+01 -0.42168120659E+01  0.11013820901E+01  0.56417896311E+01  0.51100000000E-03 0. -1.
        -11    1    3    3    0    0 -0.81955720134E+00  0.25990794690E+02 -0.28252572846E+02  0.38397929050E+02  0.51100000000E-03 0.  1.
         12    1    3    3    0    0 -0.27391302314E+01  0.41369758742E+01 -0.41822927434E+01  0.64891429634E+01  0.00000000000E+00 0. -1.
</event>
<event>
 7    1  0.5764931E-013  0.5052886E+02  0.7816164E-02  0.1300439E+00
        -11   -1    0    0    0    0  0.00000000000E+00  0.00000000000E+00  0.45593999997E+02  0.45594000000E+02  0.51100000000E-03 0.  1.
         11   -1    0    0    0    0 -0.00000000000E+00 -0.00000000000E+00 -0.45593999997E+02  0.45594000000E+02  0.51100000000E-03 0. -1.
    9900012    2    1    2    0    0  0.29018972579E+02  0.26956712035E+01  0.28351331954E+02  0.50528862819E+02  0.30000009023E+02 0.  0.
         12    1    1    2    0    0 -0.29018972579E+02 -0.26956712035E+01 -0.28351331954E+02  0.40659137181E+02  0.00000000000E+00 0. -1.
         11    1    3    3    0    0 -0.38653413733E+01  0.44795934631E+01  0.25880030615E+01  0.64579703959E+01  0.51100000000E-03 0. -1.
        -11    1    3    3    0    0  0.18665452003E+02 -0.79105568907E+01  0.14759777978E+02  0.25076424287E+02  0.51100000000E-03 0.  1.
         12    1    3    3    0    0  0.14218861949E+02  0.61266346311E+01  0.11003550915E+02  0.18994468136E+02  0.00000000000E+00 0. -1.
</event>
<event>
 7    1  0.5764931E-013  0.5052885E+02  0.7816164E-02  0.1300439E+00
        -11   -1    0    0    0    0  0.00000000000E+00  0.00000000000E+00  0.45593999997E+02  0.45594000000E+02  0.51100000000E-03 0.  1.
         11   -1    0    0    0    0 -0.00000000000E+00 -0.00000000000E+00 -0.45593999997E+02  0.45594000000E+02  0.51100000000E-03 0. -1.
    9900012    2    1    2    0    0  0.33837402392E+02 -0.18610108697E+02 -0.12722441567E+02  0.50528850159E+02  0.29999970543E+02 0.  0.
         12    1    1    2    0    0 -0.33837402392E+02  0.18610108697E+02  0.12722441567E+02  0.40659149841E+02  0.00000000000E+00 0. -1.
         11    1    3    3    0    0  0.96873375332E+01 -0.47923847892E+01 -0.11203168045E+02  0.15566709189E+02  0.51100000000E-03 0. -1.
        -11    1    3    3    0    0  0.25215632125E+02 -0.12560943086E+02  0.46716249581E+01  0.28555725778E+02  0.51100000000E-03 0.  1.
        -12    1    3    3    0    0 -0.10655672660E+01 -0.12567808213E+01 -0.61908984797E+01  0.64064151924E+01  0.00000000000E+00 0.  1.
</event>
<event>
 7    1  0.5764931E-013  0.5052884E+02  0.7816164E-02  0.1300439E+00
        -11   -1    0    0    0    0  0.00000000000E+00  0.00000000000E+00  0.45593999997E+02  0.45594000000E+02  0.51100000000E-03 0. -1.
         11   -1    0    0    0    0 -0.00000000000E+00 -0.00000000000E+00 -0.45593999997E+02  0.45594000000E+02  0.51100000000E-03 0.  1.
    9900012    2    1    2    0    0  0.29587450810E+02 -0.22096394365E+02  0.17014672187E+02  0.50528844094E+02  0.29999952108E+02 0.  0.
         12    1    1    2    0    0 -0.29587450810E+02  0.22096394365E+02 -0.17014672187E+02  0.40659155906E+02  0.00000000000E+00 0. -1.
         11    1    3    3    0    0 -0.13838189875E+00 -0.13039877323E+02 -0.70567341205E+00  0.13059690860E+02  0.51100000000E-03 0. -1.
        -11    1    3    3    0    0  0.23540003644E+02 -0.11667849665E+02  0.13499099142E+02  0.29538046064E+02  0.51100000000E-03 0.  1.
         12    1    3    3    0    0  0.61858290647E+01  0.26113326230E+01  0.42212464570E+01  0.79311071697E+01  0.00000000000E+00 0. -1.
</event>
<event>
 7    1  0.5764931E-013  0.5052887E+02  0.7816164E-02  0.1300439E+00
        -11   -1    0    0    0    0  0.00000000000E+00  0.00000000000E+00  0.45593999997E+02  0.45594000000E+02  0.51100000000E-03 0.  1.
         11   -1    0    0    0    0 -0.00000000000E+00 -0.00000000000E+00 -0.45593999997E+02  0.45594000000E+02  0.51100000000E-03 0. -1.
    9900012    2    1    2    0    0 -0.23220914324E+02  0.35304439770E+01  0.33188703840E+02  0.50528868685E+02  0.30000026855E+02 0.  0.
         12    1    1    2    0    0  0.23220914324E+02 -0.35304439770E+01 -0.33188703840E+02  0.40659131315E+02  0.00000000000E+00 0. -1.
         11    1    3    3    0    0 -0.15014121419E+01  0.77936397104E+01  0.24066453731E+02  0.25341453269E+02  0.51100000000E-03 0. -1.
        -11    1    3    3    0    0 -0.17125279435E+02 -0.65278835574E+01  0.66141505461E+01  0.19484235864E+02  0.51100000000E-03 0.  1.
         12    1    3    3    0    0 -0.45942227464E+01  0.22646878240E+01  0.25080995631E+01  0.57031795520E+01  0.00000000000E+00 0. -1.
</event>
<event>
 7    1  0.5764931E-013  0.5052886E+02  0.7816164E-02  0.1300439E+00
        -11   -1    0    0    0    0  0.00000000000E+00  0.00000000000E+00  0.45593999997E+02  0.45594000000E+02  0.51100000000E-03 0.  1.
         11   -1    0    0    0    0 -0.00000000000E+00 -0.00000000000E+00 -0.45593999997E+02  0.45594000000E+02  0.51100000000E-03 0. -1.
    9900012    2    1    2    0    0  0.16993067954E+02  0.83967365662E+01  0.35970767919E+02  0.50528859722E+02  0.29999999610E+02 0.  0.
         12    1    1    2    0    0 -0.16993067954E+02 -0.83967365662E+01 -0.35970767919E+02  0.40659140278E+02  0.00000000000E+00 0. -1.
         11    1    3    3    0    0  0.63656536591E+00 -0.81277470094E+01  0.12016198245E+02  0.14520830122E+02  0.51100000000E-03 0. -1.
        -11    1    3    3    0    0  0.11917218192E+02  0.11946573167E+02  0.77013973608E+01  0.18548644733E+02  0.51100000000E-03 0.  1.
        -12    1    3    3    0    0  0.44392843965E+01  0.45779104089E+01  0.16253172314E+02  0.17459384867E+02  0.00000000000E+00 0.  1.
</event>
<event>
 7    1  0.5764931E-013  0.5052886E+02  0.7816164E-02  0.1300439E+00
        -11   -1    0    0    0    0  0.00000000000E+00  0.00000000000E+00  0.45593999997E+02  0.45594000000E+02  0.51100000000E-03 0.  1.
         11   -1    0    0    0    0 -0.00000000000E+00 -0.00000000000E+00 -0.45593999997E+02  0.45594000000E+02  0.51100000000E-03 0. -1.
    9900012    2    1    2    0    0  0.11558213199E+02  0.22780597852E+02  0.31632546621E+02  0.50528856667E+02  0.29999990324E+02 0.  0.
         12    1    1    2    0    0 -0.11558213199E+02 -0.22780597852E+02 -0.31632546621E+02  0.40659143333E+02  0.00000000000E+00 0. -1.
         11    1    3    3    0    0 -0.33379458805E+01  0.16480499827E+02  0.64329979088E+01  0.18003672392E+02  0.51100000000E-03 0. -1.
        -11    1    3    3    0    0  0.10142454934E+02  0.99773039773E+01  0.20200933445E+02  0.24708170695E+02  0.51100000000E-03 0.  1.
         12    1    3    3    0    0  0.47537041457E+01 -0.36772059522E+01  0.49986152672E+01  0.78170135800E+01  0.00000000000E+00 0. -1.
</event>
<event>
 7    1  0.5764931E-013  0.5052888E+02  0.7816164E-02  0.1300439E+00
        -11   -1    0    0    0    0  0.00000000000E+00  0.00000000000E+00  0.45593999997E+02  0.45594000000E+02  0.51100000000E-03 0. -1.
         11   -1    0    0    0    0 -0.00000000000E+00 -0.00000000000E+00 -0.45593999997E+02  0.45594000000E+02  0.51100000000E-03 0.  1.
    9900012    2    1    2    0    0 -0.22231207522E+02 -0.33744210439E+02 -0.45017800127E+01  0.50528876186E+02  0.30000049656E+02 0.  0.
         12    1    1    2    0    0  0.22231207522E+02  0.33744210439E+02  0.45017800127E+01  0.40659123814E+02  0.00000000000E+00 0. -1.
         11    1    3    3    0    0 -0.17498398077E+02 -0.31851577975E+01 -0.42750198030E+01  0.18292483703E+02  0.51100000000E-03 0. -1.
        -11    1    3    3    0    0 -0.48242694332E+01 -0.14805983099E+02 -0.39157497609E+01  0.16056892836E+02  0.51100000000E-03 0.  1.
         12    1    3    3    0    0  0.91459988319E-01 -0.15753069543E+02  0.36889895512E+01  0.16179499648E+02  0.00000000000E+00 0. -1.
</event>
<event>
 7    1  0.5764931E-013  0.5052885E+02  0.7816164E-02  0.1300439E+00
        -11   -1    0    0    0    0  0.00000000000E+00  0.00000000000E+00  0.45593999997E+02  0.45594000000E+02  0.51100000000E-03 0.  1.
         11   -1    0    0    0    0 -0.00000000000E+00 -0.00000000000E+00 -0.45593999997E+02  0.45594000000E+02  0.51100000000E-03 0. -1.
    9900012    2    1    2    0    0  0.15473699329E+02 -0.36916592911E+02  0.71341378328E+01  0.50528854341E+02  0.29999983256E+02 0.  0.
         12    1    1    2    0    0 -0.15473699329E+02  0.36916592911E+02 -0.71341378328E+01  0.40659145659E+02  0.00000000000E+00 0. -1.
         11    1    3    3    0    0  0.14875937784E+02 -0.15939708071E+02  0.16170153891E+02  0.27144828153E+02  0.51100000000E-03 0. -1.
        -11    1    3    3    0    0  0.48773064307E+00 -0.18923538671E+02 -0.62777610196E+01  0.19943632585E+02  0.51100000000E-03 0.  1.
        -12    1    3    3    0    0  0.11003090137E+00 -0.20533461694E+01 -0.27582550382E+01  0.34403936035E+01  0.00000000000E+00 0.  1.
</event>
<event>
 7    1  0.5764931E-013  0.5052886E+02  0.7816164E-02  0.1300439E+00
        -11   -1    0    0    0    0  0.00000000000E+00  0.00000000000E+00  0.45593999997E+02  0.45594000000E+02  0.51100000000E-03 0. -1.
         11   -1    0    0    0    0 -0.00000000000E+00 -0.00000000000E+00 -0.45593999997E+02  0.45594000000E+02  0.51100000000E-03 0.  1.
    9900012    2    1    2    0    0  0.21987033245E+02 -0.30957969228E+02 -0.14537539290E+02  0.50528861566E+02  0.30000005215E+02 0.  0.
         12    1    1    2    0    0 -0.21987033245E+02  0.30957969228E+02  0.14537539290E+02  0.40659138434E+02  0.00000000000E+00 0. -1.
         11    1    3    3    0    0 -0.20550978800E+01 -0.19528241329E+01 -0.74071387953E+01  0.79311193904E+01  0.51100000000E-03 0. -1.
        -11    1    3    3    0    0  0.18899471270E+02 -0.15012563952E+02  0.33597262548E+01  0.24369137274E+02  0.51100000000E-03 0.  1.
        -12    1    3    3    0    0  0.51426598547E+01 -0.13992581143E+02 -0.10490126750E+02  0.18228604901E+02  0.00000000000E+00 0.  1.
</event>
<event>
 7    1  0.5764931E-013  0.5052887E+02  0.7816164E-02  0.1300439E+00
        -11   -1    0    0    0    0  0.00000000000E+00  0.00000000000E+00  0.45593999997E+02  0.45594000000E+02  0.51100000000E-03 0.  1.
         11   -1    0    0    0    0 -0.00000000000E+00 -0.00000000000E+00 -0.45593999997E+02  0.45594000000E+02  0.51100000000E-03 0. -1.
    9900012    2    1    2    0    0 -0.21560181376E+02  0.33603695862E+02  0.76886445610E+01  0.50528867548E+02  0.30000023400E+02 0.  0.
         12    1    1    2    0    0  0.21560181376E+02 -0.33603695862E+02 -0.76886445610E+01  0.40659132452E+02  0.00000000000E+00 0. -1.
         11    1    3    3    0    0 -0.99673120460E+01  0.19596832196E+01  0.56474375178E+01  0.11622444602E+02  0.51100000000E-03 0. -1.
        -11    1    3    3    0    0 -0.81882132598E+01  0.12474466284E+02 -0.80739288094E+01  0.16966068258E+02  0.51100000000E-03 0.  1.
        -12    1    3    3    0    0 -0.34046560705E+01  0.19169546358E+02  0.10115135853E+02  0.21940354689E+02  0.00000000000E+00 0.  1.
</event>
<event>
 7    1  0.5764931E-013  0.5052892E+02  0.7816164E-02  0.1300439E+00
        -11   -1    0    0    0    0  0.00000000000E+00  0.00000000000E+00  0.45593999997E+02  0.45594000000E+02  0.51100000000E-03 0. -1.
         11   -1    0    0    0    0 -0.00000000000E+00 -0.00000000000E+00 -0.45593999997E+02  0.45594000000E+02  0.51100000000E-03 0.  1.
    9900012    2    1    2    0    0 -0.25182210941E+02  0.96579543094E+01 -0.30425993677E+02  0.50528918350E+02  0.30000177818E+02 0.  0.
         12    1    1    2    0    0  0.25182210941E+02 -0.96579543094E+01  0.30425993677E+02  0.40659081650E+02  0.00000000000E+00 0. -1.
         11    1    3    3    0    0 -0.59416054512E+01  0.11128473340E+02 -0.91143822004E+01  0.15563340174E+02  0.51100000000E-03 0. -1.
        -11    1    3    3    0    0 -0.10953692798E+02 -0.10689907007E+02 -0.12405134937E+02  0.19701392611E+02  0.51100000000E-03 0.  1.
        -12    1    3    3    0    0 -0.82869126922E+01  0.92193879761E+01 -0.89064765397E+01  0.15264185565E+02  0.00000000000E+00 0.  1.
</event>
<event>
 7    1  0.5764931E-013  0.5052885E+02  0.7816164E-02  0.1300439E+00
        -11   -1    0    0    0    0  0.00000000000E+00  0.00000000000E+00  0.45593999997E+02  0.45594000000E+02  0.51100000000E-03 0.  1.
         11   -1    0    0    0    0 -0.00000000000E+00 -0.00000000000E+00 -0.45593999997E+02  0.45594000000E+02  0.51100000000E-03 0. -1.
    9900012    2    1    2    0    0 -0.12591989782E+02  0.31180792823E+02  0.22855328419E+02  0.50528854843E+02  0.29999984781E+02 0.  0.
         12    1    1    2    0    0  0.12591989782E+02 -0.31180792823E+02 -0.22855328419E+02  0.40659145157E+02  0.00000000000E+00 0. -1.
         11    1    3    3    0    0  0.79057561497E+01  0.44094356099E+01  0.76766076436E+01  0.11869052526E+02  0.51100000000E-03 0. -1.
        -11    1    3    3    0    0 -0.14105817437E+02  0.92107052554E+01  0.65344376973E+01  0.18069589180E+02  0.51100000000E-03 0.  1.
        -12    1    3    3    0    0 -0.63919284950E+01  0.17560651958E+02  0.86442830785E+01  0.20590213137E+02  0.00000000000E+00 0.  1.
</event>
<event>
 7    1  0.5764931E-013  0.5052883E+02  0.7816164E-02  0.1300439E+00
        -11   -1    0    0    0    0  0.00000000000E+00  0.00000000000E+00  0.45593999997E+02  0.45594000000E+02  0.51100000000E-03 0. -1.
         11   -1    0    0    0    0 -0.00000000000E+00 -0.00000000000E+00 -0.45593999997E+02  0.45594000000E+02  0.51100000000E-03 0.  1.
    9900012    2    1    2    0    0 -0.27186770205E+02 -0.77407767610E+01 -0.29225470178E+02  0.50528828757E+02  0.29999905490E+02 0.  0.
         12    1    1    2    0    0  0.27186770205E+02  0.77407767610E+01  0.29225470178E+02  0.40659171243E+02  0.00000000000E+00 0. -1.
         11    1    3    3    0    0 -0.19016682574E+01 -0.92430650991E+01 -0.64870514793E+01  0.11451306988E+02  0.51100000000E-03 0. -1.
        -11    1    3    3    0    0 -0.16413503733E+02  0.88775789537E+01 -0.19725998694E+02  0.27153812579E+02  0.51100000000E-03 0.  1.
        -12    1    3    3    0    0 -0.88715982149E+01 -0.73752906157E+01 -0.30124200048E+01  0.11923709190E+02  0.00000000000E+00 0.  1.
</event>
<event>
 7    1  0.5764931E-013  0.5052886E+02  0.7816164E-02  0.1300439E+00
        -11   -1    0    0    0    0  0.00000000000E+00  0.00000000000E+00  0.45593999997E+02  0.45594000000E+02  0.51100000000E-03 0.  1.
         11   -1    0    0    0    0 -0.00000000000E+00 -0.00000000000E+00 -0.45593999997E+02  0.45594000000E+02  0.51100000000E-03 0. -1.
    9900012    2    1    2    0    0 -0.21558490320E+02 -0.32688767471E+02 -0.10947227947E+02  0.50528858059E+02  0.29999994557E+02 0.  0.
         12    1    1    2    0    0  0.21558490320E+02  0.32688767471E+02  0.10947227947E+02  0.40659141941E+02  0.00000000000E+00 0. -1.
         11    1    3    3    0    0 -0.57037750786E+01 -0.13593576710E+02  0.34246367307E+01  0.15134282768E+02  0.51100000000E-03 0.  1.
        -11    1    3    3    0    0 -0.16540910092E+02 -0.38646793376E+01 -0.60950063751E+01  0.18046787970E+02  0.51100000000E-03 0. -1.
        -12    1    3    3    0    0  0.68619485038E+00 -0.15230511424E+02 -0.82768583022E+01  0.17347787322E+02  0.00000000000E+00 0.  1.
</event>
<event>
 7    1  0.5764931E-013  0.5052886E+02  0.7816164E-02  0.1300439E+00
        -11   -1    0    0    0    0  0.00000000000E+00  0.00000000000E+00  0.45593999997E+02  0.45594000000E+02  0.51100000000E-03 0.  1.
         11   -1    0    0    0    0 -0.00000000000E+00 -0.00000000000E+00 -0.45593999997E+02  0.45594000000E+02  0.51100000000E-03 0. -1.
    9900012    2    1    2    0    0 -0.38587132237E+02  0.86830446529E+01  0.94235760888E+01  0.50528858039E+02  0.29999994495E+02 0.  0.
         12    1    1    2    0    0  0.38587132237E+02 -0.86830446529E+01 -0.94235760888E+01  0.40659141961E+02  0.00000000000E+00 0. -1.
         11    1    3    3    0    0 -0.50629899314E+01 -0.66046659326E+01 -0.30768630203E+01  0.88725737773E+01  0.51100000000E-03 0. -1.
        -11    1    3    3    0    0 -0.15490939423E+02  0.59817882560E+01  0.13408275491E+02  0.21343215476E+02  0.51100000000E-03 0.  1.
         12    1    3    3    0    0 -0.18033202882E+02  0.93059223294E+01 -0.90783638173E+00  0.20313068786E+02  0.00000000000E+00 0. -1.
</event>
<event>
 7    1  0.5764931E-013  0.5052886E+02  0.7816164E-02  0.1300439E+00
        -11   -1    0    0    0    0  0.00000000000E+00  0.00000000000E+00  0.45593999997E+02  0.45594000000E+02  0.51100000000E-03 0.  1.
         11   -1    0    0    0    0 -0.00000000000E+00 -0.00000000000E+00 -0.45593999997E+02  0.45594000000E+02  0.51100000000E-03 0. -1.
    9900012    2    1    2    0    0 -0.18656355839E+02  0.38144129712E+01  0.35924314527E+02  0.50528859162E+02  0.29999997908E+02 0.  0.
         12    1    1    2    0    0  0.18656355839E+02 -0.38144129712E+01 -0.35924314527E+02  0.40659140838E+02  0.00000000000E+00 0. -1.
         11    1    3    3    0    0 -0.19667635576E+02  0.56955627341E+01  0.78474690058E+01  0.21928020751E+02  0.51100000000E-03 0. -1.
        -11    1    3    3    0    0 -0.14272901757E+01  0.91969688718E+00  0.10449161615E+02  0.10586216431E+02  0.51100000000E-03 0.  1.
         12    1    3    3    0    0  0.24385699128E+01 -0.28008466501E+01  0.17627683906E+02  0.18014621980E+02  0.00000000000E+00 0. -1.
</event>
<event>
 7    1  0.5764931E-013  0.5052886E+02  0.7816164E-02  0.1300439E+00
        -11   -1    0    0    0    0  0.00000000000E+00  0.00000000000E+00  0.45593999997E+02  0.45594000000E+02  0.51100000000E-03 0. -1.
         11   -1    0    0    0    0 -0.00000000000E+00 -0.00000000000E+00 -0.45593999997E+02  0.45594000000E+02  0.51100000000E-03 0.  1.
    9900012    2    1    2    0    0  0.36447097556E+02  0.16883118185E+02 -0.63035729458E+01  0.50528860415E+02  0.30000001718E+02 0.  0.
         12    1    1    2    0    0 -0.36447097556E+02 -0.16883118185E+02  0.63035729458E+01  0.40659139585E+02  0.00000000000E+00 0. -1.
         11    1    3    3    0    0  0.19603022997E+00  0.69650666668E+01  0.46381569208E+01  0.83703692515E+01  0.51100000000E-03 0. -1.
        -11    1    3    3    0    0  0.26414548085E+02  0.43666351403E+01 -0.14329296991E+02  0.30366504664E+02  0.51100000000E-03 0.  1.
        -12    1    3    3    0    0  0.98365192412E+01  0.55514163775E+01  0.33875671247E+01  0.11791986499E+02  0.00000000000E+00 0.  1.
</event>
<event>
 7    1  0.5764931E-013  0.5052886E+02  0.7816164E-02  0.1300439E+00
        -11   -1    0    0    0    0  0.00000000000E+00  0.00000000000E+00  0.45593999997E+02  0.45594000000E+02  0.51100000000E-03 0. -1.
         11   -1    0    0    0    0 -0.00000000000E+00 -0.00000000000E+00 -0.45593999997E+02  0.45594000000E+02  0.51100000000E-03 0.  1.
    9900012    2    1    2    0    0 -0.18156235417E+02 -0.15941971441E+01 -0.36345219474E+02  0.50528864155E+02  0.30000013087E+02 0.  0.
         12    1    1    2    0    0  0.18156235417E+02  0.15941971441E+01  0.36345219474E+02  0.40659135845E+02  0.00000000000E+00 0. -1.
         11    1    3    3    0    0 -0.58353291226E+01  0.99369203845E+01 -0.22765103089E+02  0.25515551564E+02  0.51100000000E-03 0.  1.
        -11    1    3    3    0    0 -0.10910279349E+02 -0.10794751671E+02 -0.47867405234E+01  0.16077118654E+02  0.51100000000E-03 0. -1.
        -12    1    3    3    0    0 -0.14106269446E+01 -0.73636585807E+00 -0.87933758610E+01  0.89361939373E+01  0.00000000000E+00 0.  1.
</event>
<event>
 7    1  0.5764931E-013  0.5052885E+02  0.7816164E-02  0.1300439E+00
        -11   -1    0    0    0    0  0.00000000000E+00  0.00000000000E+00  0.45593999997E+02  0.45594000000E+02  0.51100000000E-03 0. -1.
         11   -1    0    0    0    0 -0.00000000000E+00 -0.00000000000E+00 -0.45593999997E+02  0.45594000000E+02  0.51100000000E-03 0.  1.
    9900012    2    1    2    0    0 -0.14449120288E+02 -0.32055990925E+02 -0.20415742307E+02  0.50528853855E+02  0.29999981777E+02 0.  0.
         12    1    1    2    0    0  0.14449120288E+02  0.32055990925E+02  0.20415742307E+02  0.40659146145E+02  0.00000000000E+00 0. -1.
         11    1    3    3    0    0 -0.13438846024E+01  0.13006701687E+01  0.67298605267E+00  0.19876315555E+01  0.51100000000E-03 0. -1.
        -11    1    3    3    0    0 -0.11952768684E+02 -0.34223349662E+02 -0.10340340181E+02  0.37696537992E+02  0.51100000000E-03 0.  1.
        -12    1    3    3    0    0 -0.11524670013E+01  0.86668856755E+00 -0.10748388179E+02  0.10844684307E+02  0.00000000000E+00 0.  1.
</event>
<event>
 7    1  0.5764931E-013  0.5052884E+02  0.7816164E-02  0.1300439E+00
        -11   -1    0    0    0    0  0.00000000000E+00  0.00000000000E+00  0.45593999997E+02  0.45594000000E+02  0.51100000000E-03 0. -1.
         11   -1    0    0    0    0 -0.00000000000E+00 -0.00000000000E+00 -0.45593999997E+02  0.45594000000E+02  0.51100000000E-03 0.  1.
    9900012    2    1    2    0    0 -0.15417000339E+02  0.77438403100E+01 -0.36817333788E+02  0.50528843228E+02  0.29999949474E+02 0.  0.
         12    1    1    2    0    0  0.15417000339E+02 -0.77438403100E+01  0.36817333788E+02  0.40659156772E+02  0.00000000000E+00 0. -1.
         11    1    3    3    0    0  0.59061220809E+00  0.31023955546E+01  0.58008750274E+00  0.32109473259E+01  0.51100000000E-03 0. -1.
        -11    1    3    3    0    0 -0.18784865064E+02  0.64587624329E+01 -0.15568685916E+02  0.25238279439E+02  0.51100000000E-03 0.  1.
        -12    1    3    3    0    0  0.27772525168E+01 -0.18173176774E+01 -0.21828735375E+02  0.22079616463E+02  0.00000000000E+00 0.  1.
</event>
<event>
 7    1  0.5764931E-013  0.5052886E+02  0.7816164E-02  0.1300439E+00
        -11   -1    0    0    0    0  0.00000000000E+00  0.00000000000E+00  0.45593999997E+02  0.45594000000E+02  0.51100000000E-03 0.  1.
         11   -1    0    0    0    0 -0.00000000000E+00 -0.00000000000E+00 -0.45593999997E+02  0.45594000000E+02  0.51100000000E-03 0. -1.
    9900012    2    1    2    0    0  0.16517816357E+02 -0.22510799450E+02  0.29556579434E+02  0.50528859122E+02  0.29999997787E+02 0.  0.
         12    1    1    2    0    0 -0.16517816357E+02  0.22510799450E+02 -0.29556579434E+02  0.40659140878E+02  0.00000000000E+00 0. -1.
         11    1    3    3    0    0  0.10659411029E+01 -0.67462528494E+01 -0.42041471908E+01  0.80201628292E+01  0.51100000000E-03 0. -1.
        -11    1    3    3    0    0  0.36081349736E+01 -0.45241061180E+00  0.15416255504E+02  0.15839325977E+02  0.51100000000E-03 0.  1.
        -12    1    3    3    0    0  0.11843740280E+02 -0.15312135989E+02  0.18344471121E+02  0.26669370316E+02  0.00000000000E+00 0.  1.
</event>
<event>
 7    1  0.5764931E-013  0.5052886E+02  0.7816164E-02  0.1300439E+00
        -11   -1    0    0    0    0  0.00000000000E+00  0.00000000000E+00  0.45593999997E+02  0.45594000000E+02  0.51100000000E-03 0.  1.
         11   -1    0    0    0    0 -0.00000000000E+00 -0.00000000000E+00 -0.45593999997E+02  0.45594000000E+02  0.51100000000E-03 0. -1.
    9900012    2    1    2    0    0 -0.30991900296E+01 -0.29904922854E+02  0.27372545791E+02  0.50528860156E+02  0.30000000930E+02 0.  0.
         12    1    1    2    0    0  0.30991900296E+01  0.29904922854E+02 -0.27372545791E+02  0.40659139844E+02  0.00000000000E+00 0. -1.
         11    1    3    3    0    0 -0.24688755977E+01  0.26919051312E+01 -0.63005045953E-01  0.36531725731E+01  0.51100000000E-03 0. -1.
        -11    1    3    3    0    0 -0.28932377195E+01 -0.11534692762E+02  0.21996332952E+02  0.25005171969E+02  0.51100000000E-03 0.  1.
         12    1    3    3    0    0  0.22629232876E+01 -0.21062135224E+02  0.54392178852E+01  0.21870515614E+02  0.00000000000E+00 0. -1.
</event>
<event>
 7    1  0.5764931E-013  0.5052886E+02  0.7816164E-02  0.1300439E+00
        -11   -1    0    0    0    0  0.00000000000E+00  0.00000000000E+00  0.45593999997E+02  0.45594000000E+02  0.51100000000E-03 0. -1.
         11   -1    0    0    0    0 -0.00000000000E+00 -0.00000000000E+00 -0.45593999997E+02  0.45594000000E+02  0.51100000000E-03 0.  1.
    9900012    2    1    2    0    0 -0.26654384919E+02 -0.20118395171E+02 -0.23193948393E+02  0.50528864474E+02  0.30000014055E+02 0.  0.
         12    1    1    2    0    0  0.26654384919E+02  0.20118395171E+02  0.23193948393E+02  0.40659135526E+02  0.00000000000E+00 0. -1.
         11    1    3    3    0    0 -0.69602207214E+01  0.17412092611E+01  0.36127113829E+01  0.80329425479E+01  0.51100000000E-03 0. -1.
        -11    1    3    3    0    0 -0.18063372332E+02 -0.14450753818E+02 -0.26101672806E+02  0.34877027245E+02  0.51100000000E-03 0.  1.
         12    1    3    3    0    0 -0.16307918650E+01 -0.74088506147E+01 -0.70498697002E+00  0.76188946813E+01  0.00000000000E+00 0. -1.
</event>
<event>
 7    1  0.5764931E-013  0.5052886E+02  0.7816164E-02  0.1300439E+00
        -11   -1    0    0    0    0  0.00000000000E+00  0.00000000000E+00  0.45593999997E+02  0.45594000000E+02  0.51100000000E-03 0.  1.
         11   -1    0    0    0    0 -0.00000000000E+00 -0.00000000000E+00 -0.45593999997E+02  0.45594000000E+02  0.51100000000E-03 0. -1.
    9900012    2    1    2    0    0 -0.39193819213E+02 -0.89228436965E+01  0.61150125167E+01  0.50528856106E+02  0.29999988619E+02 0.  0.
         12    1    1    2    0    0  0.39193819213E+02  0.89228436965E+01 -0.61150125167E+01  0.40659143894E+02  0.00000000000E+00 0. -1.
         11    1    3    3    0    0 -0.18021227384E+02 -0.11638130814E+02  0.20672753834E+01  0.21551899059E+02  0.51100000000E-03 0. -1.
        -11    1    3    3    0    0 -0.20757228930E+02  0.87923385468E+01  0.39430395721E+01  0.22884827535E+02  0.51100000000E-03 0.  1.
         12    1    3    3    0    0 -0.41536289873E+00 -0.60770514288E+01  0.10469756117E+00  0.60921295115E+01  0.00000000000E+00 0. -1.
</event>
<event>
 7    1  0.5764931E-013  0.5052885E+02  0.7816164E-02  0.1300439E+00
        -11   -1    0    0    0    0  0.00000000000E+00  0.00000000000E+00  0.45593999997E+02  0.45594000000E+02  0.51100000000E-03 0. -1.
         11   -1    0    0    0    0 -0.00000000000E+00 -0.00000000000E+00 -0.45593999997E+02  0.45594000000E+02  0.51100000000E-03 0.  1.
    9900012    2    1    2    0    0  0.26440518490E+02  0.25332036235E+02  0.17673518420E+02  0.50528851814E+02  0.29999975575E+02 0.  0.
         12    1    1    2    0    0 -0.26440518490E+02 -0.25332036235E+02 -0.17673518420E+02  0.40659148186E+02  0.00000000000E+00 0. -1.
         11    1    3    3    0    0  0.50831900245E+01 -0.15554184355E+01  0.22598198507E+01  0.57762386857E+01  0.51100000000E-03 0. -1.
        -11    1    3    3    0    0  0.16590153338E+02  0.30340319444E+02  0.17172620839E+02  0.38609157961E+02  0.51100000000E-03 0.  1.
        -12    1    3    3    0    0  0.47671751282E+01 -0.34528647736E+01 -0.17589222693E+01  0.61434551677E+01  0.00000000000E+00 0.  1.
</event>
<event>
 7    1  0.5764931E-013  0.5052886E+02  0.7816164E-02  0.1300439E+00
        -11   -1    0    0    0    0  0.00000000000E+00  0.00000000000E+00  0.45593999997E+02  0.45594000000E+02  0.51100000000E-03 0.  1.
         11   -1    0    0    0    0 -0.00000000000E+00 -0.00000000000E+00 -0.45593999997E+02  0.45594000000E+02  0.51100000000E-03 0. -1.
    9900012    2    1    2    0    0 -0.65289324331E+01 -0.84123218645E+01  0.39239923968E+02  0.50528858950E+02  0.29999997265E+02 0.  0.
         12    1    1    2    0    0  0.65289324331E+01  0.84123218645E+01 -0.39239923968E+02  0.40659141050E+02  0.00000000000E+00 0. -1.
         11    1    3    3    0    0 -0.99379718083E+01 -0.74144759809E+01  0.14443319891E+02  0.19035420339E+02  0.51100000000E-03 0. -1.
        -11    1    3    3    0    0  0.10771860448E+02 -0.39621821631E+01  0.14503037496E+02  0.18495133465E+02  0.51100000000E-03 0.  1.
        -12    1    3    3    0    0 -0.73628210728E+01  0.29643362796E+01  0.10293566581E+02  0.12998305147E+02  0.00000000000E+00 0.  1.
</event>
<event>
 7    1  0.5764931E-013  0.5052885E+02  0.7816164E-02  0.1300439E+00
        -11   -1    0    0    0    0  0.00000000000E+00  0.00000000000E+00  0.45593999997E+02  0.45594000000E+02  0.51100000000E-03 0.  1.
         11   -1    0    0    0    0 -0.00000000000E+00 -0.00000000000E+00 -0.45593999997E+02  0.45594000000E+02  0.51100000000E-03 0. -1.
    9900012    2    1    2    0    0 -0.37391352094E+02 -0.76427633119E+01  0.14022878707E+02  0.50528853800E+02  0.29999981610E+02 0.  0.
         12    1    1    2    0    0  0.37391352094E+02  0.76427633119E+01 -0.14022878707E+02  0.40659146200E+02  0.00000000000E+00 0. -1.
         11    1    3    3    0    0 -0.12670206188E+01 -0.40974419544E+01 -0.38203584815E+01  0.57436496243E+01  0.51100000000E-03 0. -1.
        -11    1    3    3    0    0 -0.23017262763E+02 -0.95133038573E+01  0.17390247086E+02  0.30376274119E+02  0.51100000000E-03 0.  1.
         12    1    3    3    0    0 -0.13107068712E+02  0.59679824999E+01  0.45299010323E+00  0.14408930057E+02  0.00000000000E+00 0. -1.
</event>
<event>
 7    1  0.5764931E-013  0.5052887E+02  0.7816164E-02  0.1300439E+00
        -11   -1    0    0    0    0  0.00000000000E+00  0.00000000000E+00  0.45593999997E+02  0.45594000000E+02  0.51100000000E-03 0.  1.
         11   -1    0    0    0    0 -0.00000000000E+00 -0.00000000000E+00 -0.45593999997E+02  0.45594000000E+02  0.51100000000E-03 0. -1.
    9900012    2    1    2    0    0 -0.84429015624E+01  0.88656723781E+01  0.38772185959E+02  0.50528866493E+02  0.30000020192E+02 0.  0.
         12    1    1    2    0    0  0.84429015624E+01 -0.88656723781E+01 -0.38772185959E+02  0.40659133507E+02  0.00000000000E+00 0. -1.
         11    1    3    3    0    0  0.92632818002E+00  0.30147087089E+01  0.17589848676E+01  0.36111743965E+01  0.51100000000E-03 0. -1.
        -11    1    3    3    0    0 -0.16173676440E+02  0.11053525042E+02  0.30085508551E+02  0.35901337725E+02  0.51100000000E-03 0.  1.
        -12    1    3    3    0    0  0.68044466977E+01 -0.52025613729E+01  0.69276925406E+01  0.11016354371E+02  0.00000000000E+00 0.  1.
</event>
<event>
 7    1  0.5764931E-013  0.5052887E+02  0.7816164E-02  0.1300439E+00
        -11   -1    0    0    0    0  0.00000000000E+00  0.00000000000E+00  0.45593999997E+02  0.45594000000E+02  0.51100000000E-03 0.  1.
         11   -1    0    0    0    0 -0.00000000000E+00 -0.00000000000E+00 -0.45593999997E+02  0.45594000000E+02  0.51100000000E-03 0. -1.
    9900012    2    1    2    0    0  0.17199420068E+02  0.27820842196E+02  0.24152555540E+02  0.50528865107E+02  0.30000015979E+02 0.  0.
         12    1    1    2    0    0 -0.17199420068E+02 -0.27820842196E+02 -0.24152555540E+02  0.40659134893E+02  0.00000000000E+00 0. -1.
         11    1    3    3    0    0  0.12291697474E+02  0.73649816018E+01  0.21414129897E+02  0.25766135533E+02  0.51100000000E-03 0. -1.
        -11    1    3    3    0    0  0.81343876449E+01  0.12769388423E+02 -0.18405659751E+01  0.15251663070E+02  0.51100000000E-03 0.  1.
        -12    1    3    3    0    0 -0.32266650514E+01  0.76864721712E+01  0.45789916183E+01  0.95110665034E+01  0.00000000000E+00 0.  1.
</event>
<event>
 7    1  0.5764931E-013  0.5052885E+02  0.7816164E-02  0.1300439E+00
        -11   -1    0    0    0    0  0.00000000000E+00  0.00000000000E+00  0.45593999997E+02  0.45594000000E+02  0.51100000000E-03 0.  1.
         11   -1    0    0    0    0 -0.00000000000E+00 -0.00000000000E+00 -0.45593999997E+02  0.45594000000E+02  0.51100000000E-03 0. -1.
    9900012    2    1    2    0    0 -0.53513272143E+01 -0.28534801811E+02  0.28465673370E+02  0.50528853701E+02  0.29999981309E+02 0.  0.
         12    1    1    2    0    0  0.53513272143E+01  0.28534801811E+02 -0.28465673370E+02  0.40659146299E+02  0.00000000000E+00 0. -1.
         11    1    3    3    0    0 -0.15888398098E+01 -0.34028833333E+02  0.23079406250E+02  0.41147842022E+02  0.51100000000E-03 0. -1.
        -11    1    3    3    0    0 -0.12737571047E+01  0.13772398536E+01 -0.33546186751E+00  0.19057234064E+01  0.51100000000E-03 0.  1.
         12    1    3    3    0    0 -0.24887302999E+01  0.41167916682E+01  0.57217289880E+01  0.74752882725E+01  0.00000000000E+00 0. -1.
</event>
<event>
 7    1  0.5764931E-013  0.5052886E+02  0.7816164E-02  0.1300439E+00
        -11   -1    0    0    0    0  0.00000000000E+00  0.00000000000E+00  0.45593999997E+02  0.45594000000E+02  0.51100000000E-03 0. -1.
         11   -1    0    0    0    0 -0.00000000000E+00 -0.00000000000E+00 -0.45593999997E+02  0.45594000000E+02  0.51100000000E-03 0.  1.
    9900012    2    1    2    0    0  0.28850337876E+02  0.74761039756E-01 -0.28649918790E+02  0.50528862878E+02  0.30000009205E+02 0.  0.
         12    1    1    2    0    0 -0.28850337876E+02 -0.74761039756E-01  0.28649918790E+02  0.40659137122E+02  0.00000000000E+00 0. -1.
         11    1    3    3    0    0 -0.13902110115E+01  0.67301484522E+01 -0.25233198933E+01  0.73208420547E+01  0.51100000000E-03 0. -1.
        -11    1    3    3    0    0  0.15425113710E+02 -0.79732231256E+01 -0.21489587918E+02  0.27628043889E+02  0.51100000000E-03 0.  1.
        -12    1    3    3    0    0  0.14815435177E+02  0.13178357132E+01 -0.46370109793E+01  0.15579976935E+02  0.00000000000E+00 0.  1.
</event>
<event>
 7    1  0.5764931E-013  0.5052890E+02  0.7816164E-02  0.1300439E+00
        -11   -1    0    0    0    0  0.00000000000E+00  0.00000000000E+00  0.45593999997E+02  0.45594000000E+02  0.51100000000E-03 0. -1.
         11   -1    0    0    0    0 -0.00000000000E+00 -0.00000000000E+00 -0.45593999997E+02  0.45594000000E+02  0.51100000000E-03 0.  1.
    9900012    2    1    2    0    0 -0.29535891514E+02  0.22804397916E+02 -0.16147848590E+02  0.50528899346E+02  0.30000120053E+02 0.  0.
         12    1    1    2    0    0  0.29535891514E+02 -0.22804397916E+02  0.16147848590E+02  0.40659100654E+02  0.00000000000E+00 0. -1.
         11    1    3    3    0    0 -0.24728694948E+00  0.10904135982E+02  0.31337693998E+01  0.11348208813E+02  0.51100000000E-03 0. -1.
        -11    1    3    3    0    0 -0.24318587560E+02  0.13706703178E+02 -0.12513776560E+02  0.30591861940E+02  0.51100000000E-03 0.  1.
         12    1    3    3    0    0 -0.49700170053E+01 -0.18064412432E+01 -0.67678414298E+01  0.85888285940E+01  0.00000000000E+00 0. -1.
</event>
<event>
 7    1  0.5764931E-013  0.5052883E+02  0.7816164E-02  0.1300439E+00
        -11   -1    0    0    0    0  0.00000000000E+00  0.00000000000E+00  0.45593999997E+02  0.45594000000E+02  0.51100000000E-03 0. -1.
         11   -1    0    0    0    0 -0.00000000000E+00 -0.00000000000E+00 -0.45593999997E+02  0.45594000000E+02  0.51100000000E-03 0.  1.
    9900012    2    1    2    0    0  0.28923776266E+02  0.22098334341E+01 -0.28490352055E+02  0.50528826896E+02  0.29999899834E+02 0.  0.
         12    1    1    2    0    0 -0.28923776266E+02 -0.22098334341E+01  0.28490352055E+02  0.40659173104E+02  0.00000000000E+00 0. -1.
         11    1    3    3    0    0  0.66690116213E+01 -0.54672962370E+01  0.19542791033E+01  0.88422989784E+01  0.51100000000E-03 0. -1.
        -11    1    3    3    0    0  0.78418009564E+01  0.23362103341E+01 -0.23379163276E+02  0.24769678979E+02  0.51100000000E-03 0.  1.
        -12    1    3    3    0    0  0.14412963688E+02  0.53409193370E+01 -0.70654678818E+01  0.16916848939E+02  0.00000000000E+00 0.  1.
</event>
<event>
 7    1  0.5764931E-013  0.5052887E+02  0.7816164E-02  0.1300439E+00
        -11   -1    0    0    0    0  0.00000000000E+00  0.00000000000E+00  0.45593999997E+02  0.45594000000E+02  0.51100000000E-03 0.  1.
         11   -1    0    0    0    0 -0.00000000000E+00 -0.00000000000E+00 -0.45593999997E+02  0.45594000000E+02  0.51100000000E-03 0. -1.
    9900012    2    1    2    0    0 -0.89447623310E+01  0.24725308667E+02  0.31013148566E+02  0.50528867621E+02  0.30000023620E+02 0.  0.
         12    1    1    2    0    0  0.89447623310E+01 -0.24725308667E+02 -0.31013148566E+02  0.40659132379E+02  0.00000000000E+00 0. -1.
         11    1    3    3    0    0  0.37552167986E+01 -0.11164278658E+01 -0.20279126641E+01  0.44114050390E+01  0.51100000000E-03 0. -1.
        -11    1    3    3    0    0 -0.22134018378E+01  0.12775685699E+02  0.23493994345E+02  0.26834400745E+02  0.51100000000E-03 0.  1.
         12    1    3    3    0    0 -0.10486577292E+02  0.13066050834E+02  0.95470668852E+01  0.19283061837E+02  0.00000000000E+00 0. -1.
</event>
<event>
 7    1  0.5764931E-013  0.5052885E+02  0.7816164E-02  0.1300439E+00
        -11   -1    0    0    0    0  0.00000000000E+00  0.00000000000E+00  0.45593999997E+02  0.45594000000E+02  0.51100000000E-03 0. -1.
         11   -1    0    0    0    0 -0.00000000000E+00 -0.00000000000E+00 -0.45593999997E+02  0.45594000000E+02  0.51100000000E-03 0.  1.
    9900012    2    1    2    0    0  0.15622015327E+02 -0.41998602327E+01 -0.37302549084E+02  0.50528851496E+02  0.29999974609E+02 0.  0.
         12    1    1    2    0    0 -0.15622015327E+02  0.41998602327E+01  0.37302549084E+02  0.40659148504E+02  0.00000000000E+00 0. -1.
         11    1    3    3    0    0  0.37960863017E+01  0.39137503259E+00 -0.27405210713E+01  0.46982870953E+01  0.51100000000E-03 0. -1.
        -11    1    3    3    0    0 -0.30609728601E+01 -0.11353397830E+02 -0.22914369872E+02  0.25755340107E+02  0.51100000000E-03 0.  1.
        -12    1    3    3    0    0  0.14886901885E+02  0.67621625649E+01 -0.11647658141E+02  0.20075224294E+02  0.00000000000E+00 0.  1.
</event>
<event>
 7    1  0.5764931E-013  0.5052886E+02  0.7816164E-02  0.1300439E+00
        -11   -1    0    0    0    0  0.00000000000E+00  0.00000000000E+00  0.45593999997E+02  0.45594000000E+02  0.51100000000E-03 0.  1.
         11   -1    0    0    0    0 -0.00000000000E+00 -0.00000000000E+00 -0.45593999997E+02  0.45594000000E+02  0.51100000000E-03 0. -1.
    9900012    2    1    2    0    0  0.76891643694E+01 -0.37538024844E+02 -0.13599230832E+02  0.50528860349E+02  0.30000001518E+02 0.  0.
         12    1    1    2    0    0 -0.76891643694E+01  0.37538024844E+02  0.13599230832E+02  0.40659139651E+02  0.00000000000E+00 0. -1.
         11    1    3    3    0    0  0.36918811960E+00  0.10074151809E+01 -0.41985847152E+01  0.43335088654E+01  0.51100000000E-03 0. -1.
        -11    1    3    3    0    0 -0.13347017689E+01 -0.35946213368E+02 -0.56528979125E+01  0.36412455827E+02  0.51100000000E-03 0.  1.
        -12    1    3    3    0    0  0.86546780187E+01 -0.25992266572E+01 -0.37477482042E+01  0.97828956564E+01  0.00000000000E+00 0.  1.
</event>
<event>
 7    1  0.5764931E-013  0.5052890E+02  0.7816164E-02  0.1300439E+00
        -11   -1    0    0    0    0  0.00000000000E+00  0.00000000000E+00  0.45593999997E+02  0.45594000000E+02  0.51100000000E-03 0.  1.
         11   -1    0    0    0    0 -0.00000000000E+00 -0.00000000000E+00 -0.45593999997E+02  0.45594000000E+02  0.51100000000E-03 0. -1.
    9900012    2    1    2    0    0 -0.25524667674E+01 -0.38886830240E+02 -0.11595767158E+02  0.50528899312E+02  0.30000119950E+02 0.  0.
         12    1    1    2    0    0  0.25524667674E+01  0.38886830240E+02  0.11595767158E+02  0.40659100688E+02  0.00000000000E+00 0. -1.
         11    1    3    3    0    0 -0.44735030453E+01 -0.75981287207E+01 -0.14500518061E+02  0.16970822427E+02  0.51100000000E-03 0. -1.
        -11    1    3    3    0    0  0.66591051071E+01 -0.21002959431E+02  0.85800103702E+00  0.22050037454E+02  0.51100000000E-03 0.  1.
         12    1    3    3    0    0 -0.47380688291E+01 -0.10285742089E+02  0.20467498657E+01  0.11508039432E+02  0.00000000000E+00 0. -1.
</event>
<event>
 7    1  0.5764931E-013  0.5052883E+02  0.7816164E-02  0.1300439E+00
        -11   -1    0    0    0    0  0.00000000000E+00  0.00000000000E+00  0.45593999997E+02  0.45594000000E+02  0.51100000000E-03 0.  1.
         11   -1    0    0    0    0 -0.00000000000E+00 -0.00000000000E+00 -0.45593999997E+02  0.45594000000E+02  0.51100000000E-03 0. -1.
    9900012    2    1    2    0    0  0.24054103933E+01 -0.19091166854E+02  0.35817729256E+02  0.50528826619E+02  0.29999898990E+02 0.  0.
         12    1    1    2    0    0 -0.24054103933E+01  0.19091166854E+02 -0.35817729256E+02  0.40659173381E+02  0.00000000000E+00 0. -1.
         11    1    3    3    0    0  0.54459886527E+01  0.28707274325E+01  0.63359087343E+01  0.88342293466E+01  0.51100000000E-03 0. -1.
        -11    1    3    3    0    0  0.35003125002E+01 -0.20521248141E+02  0.27903477215E+02  0.34813472303E+02  0.51100000000E-03 0.  1.
        -12    1    3    3    0    0 -0.65408907596E+01 -0.14406461453E+01  0.15783433071E+01  0.68811249691E+01  0.00000000000E+00 0.  1.
</event>
<event>
 7    1  0.5764931E-013  0.5052886E+02  0.7816164E-02  0.1300439E+00
        -11   -1    0    0    0    0  0.00000000000E+00  0.00000000000E+00  0.45593999997E+02  0.45594000000E+02  0.51100000000E-03 0. -1.
         11   -1    0    0    0    0 -0.00000000000E+00 -0.00000000000E+00 -0.45593999997E+02  0.45594000000E+02  0.51100000000E-03 0.  1.
    9900012    2    1    2    0    0 -0.29908279488E+02  0.25216510150E+02  0.11080967534E+02  0.50528863173E+02  0.30000010100E+02 0.  0.
         12    1    1    2    0    0  0.29908279488E+02 -0.25216510150E+02 -0.11080967534E+02  0.40659136827E+02  0.00000000000E+00 0. -1.
         11    1    3    3    0    0  0.14811051967E+01 -0.23970644470E+00  0.31004267306E+01  0.34443835379E+01  0.51100000000E-03 0. -1.
        -11    1    3    3    0    0 -0.11541563980E+02  0.23805364539E+02  0.54065597945E+01  0.27002480794E+02  0.51100000000E-03 0.  1.
        -12    1    3    3    0    0 -0.19847820704E+02  0.16508520552E+01  0.25739810094E+01  0.20081998841E+02  0.00000000000E+00 0.  1.
</event>
<event>
 7    1  0.5764931E-013  0.5052885E+02  0.7816164E-02  0.1300439E+00
        -11   -1    0    0    0    0  0.00000000000E+00  0.00000000000E+00  0.45593999997E+02  0.45594000000E+02  0.51100000000E-03 0.  1.
         11   -1    0    0    0    0 -0.00000000000E+00 -0.00000000000E+00 -0.45593999997E+02  0.45594000000E+02  0.51100000000E-03 0. -1.
    9900012    2    1    2    0    0 -0.12113185483E+02 -0.29297145385E+02  0.25458085418E+02  0.50528854615E+02  0.29999984089E+02 0.  0.
         12    1    1    2    0    0  0.12113185483E+02  0.29297145385E+02 -0.25458085418E+02  0.40659145385E+02  0.00000000000E+00 0. -1.
         11    1    3    3    0    0 -0.58995480152E+01 -0.24855729799E+01  0.14053883749E+02  0.15443263532E+02  0.51100000000E-03 0. -1.
        -11    1    3    3    0    0 -0.22250994210E+01 -0.28685117041E+02  0.10035545592E+02  0.30471284559E+02  0.51100000000E-03 0.  1.
        -12    1    3    3    0    0 -0.39885380467E+01  0.18735446352E+01  0.13686560768E+01  0.46143065250E+01  0.00000000000E+00 0.  1.
</event>
<event>
 7    1  0.5764931E-013  0.5052886E+02  0.7816164E-02  0.1300439E+00
        -11   -1    0    0    0    0  0.00000000000E+00  0.00000000000E+00  0.45593999997E+02  0.45594000000E+02  0.51100000000E-03 0. -1.
         11   -1    0    0    0    0 -0.00000000000E+00 -0.00000000000E+00 -0.45593999997E+02  0.45594000000E+02  0.51100000000E-03 0.  1.
    9900012    2    1    2    0    0 -0.10975334601E+02 -0.39085175475E+02 -0.22487816965E+01  0.50528856740E+02  0.29999990547E+02 0.  0.
         12    1    1    2    0    0  0.10975334601E+02  0.39085175475E+02  0.22487816965E+01  0.40659143260E+02  0.00000000000E+00 0. -1.
         11    1    3    3    0    0  0.41728720437E+01 -0.35716217947E+01  0.83766505332E+01  0.10016866663E+02  0.51100000000E-03 0. -1.
        -11    1    3    3    0    0 -0.12135551783E+02 -0.28898239818E+02 -0.60460312030E+01  0.31920751483E+02  0.51100000000E-03 0.  1.
         12    1    3    3    0    0 -0.30126548624E+01 -0.66153138620E+01 -0.45794010266E+01  0.85912385937E+01  0.00000000000E+00 0. -1.
</event>
<event>
 7    1  0.5764931E-013  0.5052887E+02  0.7816164E-02  0.1300439E+00
        -11   -1    0    0    0    0  0.00000000000E+00  0.00000000000E+00  0.45593999997E+02  0.45594000000E+02  0.51100000000E-03 0.  1.
         11   -1    0    0    0    0 -0.00000000000E+00 -0.00000000000E+00 -0.45593999997E+02  0.45594000000E+02  0.51100000000E-03 0. -1.
    9900012    2    1    2    0    0  0.68235253383E+01  0.50910969379E+01  0.39757830477E+02  0.50528870025E+02  0.30000030929E+02 0.  0.
         12    1    1    2    0    0 -0.68235253383E+01 -0.50910969379E+01 -0.39757830477E+02  0.40659129975E+02  0.00000000000E+00 0. -1.
         11    1    3    3    0    0  0.83296790100E+01 -0.64861958820E+01  0.17092529243E+02  0.20090018556E+02  0.51100000000E-03 0. -1.
        -11    1    3    3    0    0  0.46476640856E+00  0.13458138339E+02  0.23911797240E+02  0.27442877817E+02  0.51100000000E-03 0.  1.
         12    1    3    3    0    0 -0.19709200803E+01 -0.18808455190E+01 -0.12464960062E+01  0.29959736518E+01  0.00000000000E+00 0. -1.
</event>
<event>
 7    1  0.5764931E-013  0.5052886E+02  0.7816164E-02  0.1300439E+00
        -11   -1    0    0    0    0  0.00000000000E+00  0.00000000000E+00  0.45593999997E+02  0.45594000000E+02  0.51100000000E-03 0.  1.
         11   -1    0    0    0    0 -0.00000000000E+00 -0.00000000000E+00 -0.45593999997E+02  0.45594000000E+02  0.51100000000E-03 0. -1.
    9900012    2    1    2    0    0  0.82408956708E+01  0.35816708425E+02  0.17390130442E+02  0.50528860798E+02  0.30000002883E+02 0.  0.
         12    1    1    2    0    0 -0.82408956708E+01 -0.35816708425E+02 -0.17390130442E+02  0.40659139202E+02  0.00000000000E+00 0. -1.
         11    1    3    3    0    0  0.83365845165E+01  0.57500604454E+01  0.16663245192E+01  0.10263453327E+02  0.51100000000E-03 0. -1.
        -11    1    3    3    0    0 -0.34729525348E+01  0.24926738448E+02  0.20514790897E+02  0.32469375337E+02  0.51100000000E-03 0.  1.
        -12    1    3    3    0    0  0.33772636891E+01  0.51399095309E+01 -0.47909849745E+01  0.77960321342E+01  0.00000000000E+00 0.  1.
</event>
<event>
 7    1  0.5764931E-013  0.5052887E+02  0.7816164E-02  0.1300439E+00
        -11   -1    0    0    0    0  0.00000000000E+00  0.00000000000E+00  0.45593999997E+02  0.45594000000E+02  0.51100000000E-03 0.  1.
         11   -1    0    0    0    0 -0.00000000000E+00 -0.00000000000E+00 -0.45593999997E+02  0.45594000000E+02  0.51100000000E-03 0. -1.
    9900012    2    1    2    0    0  0.24839967632E+02  0.31945580248E+02  0.39523587235E+01  0.50528865371E+02  0.30000016782E+02 0.  0.
         12    1    1    2    0    0 -0.24839967632E+02 -0.31945580248E+02 -0.39523587235E+01  0.40659134629E+02  0.00000000000E+00 0. -1.
         11    1    3    3    0    0  0.65003950484E+01  0.26868588674E+02 -0.26441120202E+01  0.27769903165E+02  0.51100000000E-03 0. -1.
        -11    1    3    3    0    0  0.19271700469E+02  0.55671110647E+01  0.47205368715E+01  0.20607635313E+02  0.51100000000E-03 0.  1.
         12    1    3    3    0    0 -0.93212788521E+00 -0.49011949165E+00  0.18759338722E+01  0.21513268937E+01  0.00000000000E+00 0. -1.
</event>
<event>
 7    1  0.5764931E-013  0.5052886E+02  0.7816164E-02  0.1300439E+00
        -11   -1    0    0    0    0  0.00000000000E+00  0.00000000000E+00  0.45593999997E+02  0.45594000000E+02  0.51100000000E-03 0. -1.
         11   -1    0    0    0    0 -0.00000000000E+00 -0.00000000000E+00 -0.45593999997E+02  0.45594000000E+02  0.51100000000E-03 0.  1.
    9900012    2    1    2    0    0  0.34219523519E+02 -0.42412291719E+00 -0.21954719731E+02  0.50528863405E+02  0.30000010807E+02 0.  0.
         12    1    1    2    0    0 -0.34219523519E+02  0.42412291719E+00  0.21954719731E+02  0.40659136595E+02  0.00000000000E+00 0. -1.
         11    1    3    3    0    0  0.30658383457E+02  0.69435616408E+01 -0.61941704255E+01  0.32039308232E+02  0.51100000000E-03 0.  1.
        -11    1    3    3    0    0  0.47650300583E+01 -0.68779738266E+01 -0.13727716908E+02  0.16076761091E+02  0.51100000000E-03 0. -1.
        -12    1    3    3    0    0 -0.12038899965E+01 -0.48971073137E+00 -0.20328323976E+01  0.24127940817E+01  0.00000000000E+00 0.  1.
</event>
<event>
 7    1  0.5764931E-013  0.5052885E+02  0.7816164E-02  0.1300439E+00
        -11   -1    0    0    0    0  0.00000000000E+00  0.00000000000E+00  0.45593999997E+02  0.45594000000E+02  0.51100000000E-03 0.  1.
         11   -1    0    0    0    0 -0.00000000000E+00 -0.00000000000E+00 -0.45593999997E+02  0.45594000000E+02  0.51100000000E-03 0. -1.
    9900012    2    1    2    0    0 -0.13245005450E+02  0.30100439309E+02  0.23910247872E+02  0.50528848887E+02  0.29999966676E+02 0.  0.
         12    1    1    2    0    0  0.13245005450E+02 -0.30100439309E+02 -0.23910247872E+02  0.40659151113E+02  0.00000000000E+00 0. -1.
         11    1    3    3    0    0  0.37484291412E+01  0.85914132101E+01  0.15539547083E+02  0.18147744372E+02  0.51100000000E-03 0.  1.
        -11    1    3    3    0    0 -0.19209298234E+02  0.16100981337E+02  0.47640334177E+01  0.25513423003E+02  0.51100000000E-03 0. -1.
         12    1    3    3    0    0  0.22158636424E+01  0.54080447618E+01  0.36066673706E+01  0.68676815119E+01  0.00000000000E+00 0. -1.
</event>
<event>
 7    1  0.5764931E-013  0.5052886E+02  0.7816164E-02  0.1300439E+00
        -11   -1    0    0    0    0  0.00000000000E+00  0.00000000000E+00  0.45593999997E+02  0.45594000000E+02  0.51100000000E-03 0. -1.
         11   -1    0    0    0    0 -0.00000000000E+00 -0.00000000000E+00 -0.45593999997E+02  0.45594000000E+02  0.51100000000E-03 0.  1.
    9900012    2    1    2    0    0  0.33717146498E+02 -0.16879757442E+02 -0.15211620371E+02  0.50528861131E+02  0.30000003893E+02 0.  0.
         12    1    1    2    0    0 -0.33717146498E+02  0.16879757442E+02  0.15211620371E+02  0.40659138869E+02  0.00000000000E+00 0. -1.
         11    1    3    3    0    0  0.25051665795E+02 -0.73782150004E+01 -0.16211329433E+02  0.30738106935E+02  0.51100000000E-03 0.  1.
        -11    1    3    3    0    0  0.28604174313E+01 -0.16994008060E+01  0.74240635831E+01  0.81355191185E+01  0.51100000000E-03 0. -1.
        -12    1    3    3    0    0  0.58050632723E+01 -0.78021416355E+01 -0.64243545209E+01  0.11655235077E+02  0.00000000000E+00 0.  1.
</event>
<event>
 7    1  0.5764931E-013  0.5052886E+02  0.7816164E-02  0.1300439E+00
        -11   -1    0    0    0    0  0.00000000000E+00  0.00000000000E+00  0.45593999997E+02  0.45594000000E+02  0.51100000000E-03 0.  1.
         11   -1    0    0    0    0 -0.00000000000E+00 -0.00000000000E+00 -0.45593999997E+02  0.45594000000E+02  0.51100000000E-03 0. -1.
    9900012    2    1    2    0    0  0.58376671491E+01  0.37281937048E+02  0.15137511850E+02  0.50528862616E+02  0.30000008407E+02 0.  0.
         12    1    1    2    0    0 -0.58376671491E+01 -0.37281937048E+02 -0.15137511850E+02  0.40659137384E+02  0.00000000000E+00 0. -1.
         11    1    3    3    0    0  0.53326427257E+01  0.65083465985E+01  0.80185415776E+01  0.11622936943E+02  0.51100000000E-03 0. -1.
        -11    1    3    3    0    0  0.80906340866E+00  0.33074531161E+02  0.18356744021E+01  0.33135311918E+02  0.51100000000E-03 0.  1.
        -12    1    3    3    0    0 -0.30403898520E+00 -0.23009407111E+01  0.52832958701E+01  0.57706137552E+01  0.00000000000E+00 0.  1.
</event>
<event>
 7    1  0.5764931E-013  0.5052886E+02  0.7816164E-02  0.1300439E+00
        -11   -1    0    0    0    0  0.00000000000E+00  0.00000000000E+00  0.45593999997E+02  0.45594000000E+02  0.51100000000E-03 0.  1.
         11   -1    0    0    0    0 -0.00000000000E+00 -0.00000000000E+00 -0.45593999997E+02  0.45594000000E+02  0.51100000000E-03 0. -1.
    9900012    2    1    2    0    0  0.11689510577E+02 -0.36520269210E+02  0.13520021041E+02  0.50528859703E+02  0.29999999554E+02 0.  0.
         12    1    1    2    0    0 -0.11689510577E+02  0.36520269210E+02 -0.13520021041E+02  0.40659140297E+02  0.00000000000E+00 0. -1.
         11    1    3    3    0    0 -0.82312153550E+01 -0.88169711854E+01 -0.32339710731E+01  0.12488012503E+02  0.51100000000E-03 0. -1.
        -11    1    3    3    0    0  0.15308032741E+02 -0.21746567970E+02  0.12448671447E+02  0.29363557447E+02  0.51100000000E-03 0.  1.
         12    1    3    3    0    0  0.46126931911E+01 -0.59567300548E+01  0.43053206671E+01  0.86772897536E+01  0.00000000000E+00 0. -1.
</event>
<event>
 7    1  0.5764931E-013  0.5052887E+02  0.7816164E-02  0.1300439E+00
        -11   -1    0    0    0    0  0.00000000000E+00  0.00000000000E+00  0.45593999997E+02  0.45594000000E+02  0.51100000000E-03 0.  1.
         11   -1    0    0    0    0 -0.00000000000E+00 -0.00000000000E+00 -0.45593999997E+02  0.45594000000E+02  0.51100000000E-03 0. -1.
    9900012    2    1    2    0    0 -0.26858160833E+02  0.10726843992E+02  0.28578650104E+02  0.50528865391E+02  0.30000016842E+02 0.  0.
         12    1    1    2    0    0  0.26858160833E+02 -0.10726843992E+02 -0.28578650104E+02  0.40659134609E+02  0.00000000000E+00 0. -1.
         11    1    3    3    0    0 -0.90050743896E+01  0.48333177257E+01  0.27707720467E+01  0.10589121918E+02  0.51100000000E-03 0. -1.
        -11    1    3    3    0    0  0.18211035823E+01  0.90692153936E+01  0.13986071272E+02  0.16768341481E+02  0.51100000000E-03 0.  1.
        -12    1    3    3    0    0 -0.19674190026E+02 -0.31756891271E+01  0.11821806785E+02  0.23171401992E+02  0.00000000000E+00 0.  1.
</event>
<event>
 7    1  0.5764931E-013  0.5052889E+02  0.7816164E-02  0.1300439E+00
        -11   -1    0    0    0    0  0.00000000000E+00  0.00000000000E+00  0.45593999997E+02  0.45594000000E+02  0.51100000000E-03 0.  1.
         11   -1    0    0    0    0 -0.00000000000E+00 -0.00000000000E+00 -0.45593999997E+02  0.45594000000E+02  0.51100000000E-03 0. -1.
    9900012    2    1    2    0    0 -0.56301891768E+01 -0.39698375509E+02 -0.67455931075E+01  0.50528891862E+02  0.30000097302E+02 0.  0.
         12    1    1    2    0    0  0.56301891768E+01  0.39698375509E+02  0.67455931075E+01  0.40659108138E+02  0.00000000000E+00 0. -1.
         11    1    3    3    0    0  0.50258005693E+01 -0.98834841643E+01 -0.53997420860E+01  0.12332848229E+02  0.51100000000E-03 0. -1.
        -11    1    3    3    0    0 -0.13831214306E+02 -0.22334968383E+02  0.63249134718E+01  0.27021432837E+02  0.51100000000E-03 0.  1.
        -12    1    3    3    0    0  0.31752245603E+01 -0.74799229617E+01 -0.76707644933E+01  0.11174610796E+02  0.00000000000E+00 0.  1.
</event>
<event>
 7    1  0.5764931E-013  0.5052885E+02  0.7816164E-02  0.1300439E+00
        -11   -1    0    0    0    0  0.00000000000E+00  0.00000000000E+00  0.45593999997E+02  0.45594000000E+02  0.51100000000E-03 0.  1.
         11   -1    0    0    0    0 -0.00000000000E+00 -0.00000000000E+00 -0.45593999997E+02  0.45594000000E+02  0.51100000000E-03 0. -1.
    9900012    2    1    2    0    0  0.30689048893E+02  0.13261678356E+02  0.23140369068E+02  0.50528849550E+02  0.29999968691E+02 0.  0.
         12    1    1    2    0    0 -0.30689048893E+02 -0.13261678356E+02 -0.23140369068E+02  0.40659150450E+02  0.00000000000E+00 0. -1.
         11    1    3    3    0    0  0.59565627218E+01  0.15930608243E+02  0.98157390748E+00  0.17036091279E+02  0.51100000000E-03 0. -1.
        -11    1    3    3    0    0  0.18862036654E+02 -0.17212767643E+01  0.14833321525E+02  0.24057569456E+02  0.51100000000E-03 0.  1.
         12    1    3    3    0    0  0.58704495176E+01 -0.94765312339E+00  0.73254736353E+01  0.94351888143E+01  0.00000000000E+00 0. -1.
</event>
<event>
 7    1  0.5764931E-013  0.5052886E+02  0.7816164E-02  0.1300439E+00
        -11   -1    0    0    0    0  0.00000000000E+00  0.00000000000E+00  0.45593999997E+02  0.45594000000E+02  0.51100000000E-03 0.  1.
         11   -1    0    0    0    0 -0.00000000000E+00 -0.00000000000E+00 -0.45593999997E+02  0.45594000000E+02  0.51100000000E-03 0. -1.
    9900012    2    1    2    0    0  0.19357628172E+02  0.32784001856E+02 -0.14270845617E+02  0.50528861042E+02  0.30000003623E+02 0.  0.
         12    1    1    2    0    0 -0.19357628172E+02 -0.32784001856E+02  0.14270845617E+02  0.40659138958E+02  0.00000000000E+00 0. -1.
         11    1    3    3    0    0  0.12376318405E+02  0.91100962596E+01 -0.13270112223E+02  0.20304260385E+02  0.51100000000E-03 0. -1.
        -11    1    3    3    0    0 -0.46964537862E+01  0.55541581587E+01  0.37009497129E+01  0.81610281249E+01  0.51100000000E-03 0.  1.
        -12    1    3    3    0    0  0.11677763554E+02  0.18119747438E+02 -0.47016831073E+01  0.22063572532E+02  0.00000000000E+00 0.  1.
</event>
<event>
 7    1  0.5764931E-013  0.5052888E+02  0.7816164E-02  0.1300439E+00
        -11   -1    0    0    0    0  0.00000000000E+00  0.00000000000E+00  0.45593999997E+02  0.45594000000E+02  0.51100000000E-03 0.  1.
         11   -1    0    0    0    0 -0.00000000000E+00 -0.00000000000E+00 -0.45593999997E+02  0.45594000000E+02  0.51100000000E-03 0. -1.
    9900012    2    1    2    0    0 -0.10189341575E+02  0.30520881109E+02  0.24855922705E+02  0.50528883446E+02  0.30000071723E+02 0.  0.
         12    1    1    2    0    0  0.10189341575E+02 -0.30520881109E+02 -0.24855922705E+02  0.40659116554E+02  0.00000000000E+00 0. -1.
         11    1    3    3    0    0  0.78940100729E+01  0.80354005897E+01  0.39042476987E+00  0.11271002148E+02  0.51100000000E-03 0. -1.
        -11    1    3    3    0    0 -0.15335311708E+02  0.14479127468E+02  0.12231338867E+02  0.24380782764E+02  0.51100000000E-03 0.  1.
         12    1    3    3    0    0 -0.27480399395E+01  0.80063530519E+01  0.12234159068E+02  0.14877098534E+02  0.00000000000E+00 0. -1.
</event>
<event>
 7    1  0.5764931E-013  0.5052886E+02  0.7816164E-02  0.1300439E+00
        -11   -1    0    0    0    0  0.00000000000E+00  0.00000000000E+00  0.45593999997E+02  0.45594000000E+02  0.51100000000E-03 0.  1.
         11   -1    0    0    0    0 -0.00000000000E+00 -0.00000000000E+00 -0.45593999997E+02  0.45594000000E+02  0.51100000000E-03 0. -1.
    9900012    2    1    2    0    0  0.27772706059E+02  0.17627511249E+02  0.23897979102E+02  0.50528858840E+02  0.29999996929E+02 0.  0.
         12    1    1    2    0    0 -0.27772706059E+02 -0.17627511249E+02 -0.23897979102E+02  0.40659141160E+02  0.00000000000E+00 0. -1.
         11    1    3    3    0    0 -0.81653201796E+00  0.62621234232E+01 -0.29581360147E+01  0.69736276963E+01  0.51100000000E-03 0. -1.
        -11    1    3    3    0    0  0.30350963026E+02  0.97193560382E+01  0.24694248447E+02  0.40316903961E+02  0.51100000000E-03 0.  1.
        -12    1    3    3    0    0 -0.17617249482E+01  0.16460317880E+01  0.21618666699E+01  0.32383271821E+01  0.00000000000E+00 0.  1.
</event>
<event>
 7    1  0.5764931E-013  0.5052887E+02  0.7816164E-02  0.1300439E+00
        -11   -1    0    0    0    0  0.00000000000E+00  0.00000000000E+00  0.45593999997E+02  0.45594000000E+02  0.51100000000E-03 0.  1.
         11   -1    0    0    0    0 -0.00000000000E+00 -0.00000000000E+00 -0.45593999997E+02  0.45594000000E+02  0.51100000000E-03 0. -1.
    9900012    2    1    2    0    0  0.37431572905E+02 -0.15835163663E+02  0.11355480314E+01  0.50528873992E+02  0.30000042986E+02 0.  0.
         12    1    1    2    0    0 -0.37431572905E+02  0.15835163663E+02 -0.11355480314E+01  0.40659126008E+02  0.00000000000E+00 0. -1.
         11    1    3    3    0    0  0.33660464436E+02 -0.18738737699E+02 -0.32267243969E+00  0.38526241373E+02  0.51100000000E-03 0. -1.
        -11    1    3    3    0    0  0.54466491398E+01  0.20142004414E+01  0.52079605516E+01  0.78003745832E+01  0.51100000000E-03 0.  1.
         12    1    3    3    0    0 -0.16755406703E+01  0.88937359371E+00 -0.37497400806E+01  0.42022580357E+01  0.00000000000E+00 0. -1.
</event>
<event>
 7    1  0.5764931E-013  0.5052886E+02  0.7816164E-02  0.1300439E+00
        -11   -1    0    0    0    0  0.00000000000E+00  0.00000000000E+00  0.45593999997E+02  0.45594000000E+02  0.51100000000E-03 0.  1.
         11   -1    0    0    0    0 -0.00000000000E+00 -0.00000000000E+00 -0.45593999997E+02  0.45594000000E+02  0.51100000000E-03 0. -1.
    9900012    2    1    2    0    0 -0.12144309522E+01 -0.38443364803E+02 -0.13183261665E+02  0.50528861690E+02  0.30000005594E+02 0.  0.
         12    1    1    2    0    0  0.12144309522E+01  0.38443364803E+02  0.13183261665E+02  0.40659138310E+02  0.00000000000E+00 0. -1.
         11    1    3    3    0    0  0.86215688161E+01 -0.15901830076E+02 -0.16260665162E+02  0.24323011335E+02  0.51100000000E-03 0. -1.
        -11    1    3    3    0    0 -0.88401479233E+01 -0.14208663620E+02 -0.12176078467E+01  0.16778465553E+02  0.51100000000E-03 0.  1.
         12    1    3    3    0    0 -0.99585184493E+00 -0.83328711072E+01  0.42950113433E+01  0.94273848031E+01  0.00000000000E+00 0. -1.
</event>
<event>
 7    1  0.5764931E-013  0.5052886E+02  0.7816164E-02  0.1300439E+00
        -11   -1    0    0    0    0  0.00000000000E+00  0.00000000000E+00  0.45593999997E+02  0.45594000000E+02  0.51100000000E-03 0.  1.
         11   -1    0    0    0    0 -0.00000000000E+00 -0.00000000000E+00 -0.45593999997E+02  0.45594000000E+02  0.51100000000E-03 0. -1.
    9900012    2    1    2    0    0  0.27253463434E+02 -0.16746297172E+02  0.25099324857E+02  0.50528857776E+02  0.29999993696E+02 0.  0.
         12    1    1    2    0    0 -0.27253463434E+02  0.16746297172E+02 -0.25099324857E+02  0.40659142224E+02  0.00000000000E+00 0. -1.
         11    1    3    3    0    0 -0.39244426917E+01  0.27338969342E+01  0.48219081838E+01  0.67916302668E+01  0.51100000000E-03 0. -1.
        -11    1    3    3    0    0  0.19168321826E+02 -0.15430090280E+02  0.18820976661E+02  0.30979693517E+02  0.51100000000E-03 0.  1.
        -12    1    3    3    0    0  0.12009584299E+02 -0.40501038260E+01  0.14564400120E+01  0.12757533992E+02  0.00000000000E+00 0.  1.
</event>
<event>
 7    1  0.5764931E-013  0.5052885E+02  0.7816164E-02  0.1300439E+00
        -11   -1    0    0    0    0  0.00000000000E+00  0.00000000000E+00  0.45593999997E+02  0.45594000000E+02  0.51100000000E-03 0. -1.
         11   -1    0    0    0    0 -0.00000000000E+00 -0.00000000000E+00 -0.45593999997E+02  0.45594000000E+02  0.51100000000E-03 0.  1.
    9900012    2    1    2    0    0  0.27802653236E+02 -0.29510417520E+02 -0.30518714077E+01  0.50528853572E+02  0.29999980918E+02 0.  0.
         12    1    1    2    0    0 -0.27802653236E+02  0.29510417520E+02  0.30518714077E+01  0.40659146428E+02  0.00000000000E+00 0. -1.
         11    1    3    3    0    0  0.17225718022E+02  0.10267914475E+01 -0.48035642661E+00  0.17262977861E+02  0.51100000000E-03 0. -1.
        -11    1    3    3    0    0 -0.21342580617E+00 -0.95605773912E+01 -0.11826676419E+01  0.96358130762E+01  0.51100000000E-03 0.  1.
         12    1    3    3    0    0  0.10790361020E+02 -0.20976631576E+02 -0.13888473392E+01  0.23630062635E+02  0.00000000000E+00 0. -1.
</event>
<event>
 7    1  0.5764931E-013  0.5052887E+02  0.7816164E-02  0.1300439E+00
        -11   -1    0    0    0    0  0.00000000000E+00  0.00000000000E+00  0.45593999997E+02  0.45594000000E+02  0.51100000000E-03 0.  1.
         11   -1    0    0    0    0 -0.00000000000E+00 -0.00000000000E+00 -0.45593999997E+02  0.45594000000E+02  0.51100000000E-03 0. -1.
    9900012    2    1    2    0    0 -0.17554182211E+02  0.26682890701E+01  0.36577254588E+02  0.50528872699E+02  0.30000039056E+02 0.  0.
         12    1    1    2    0    0  0.17554182211E+02 -0.26682890701E+01 -0.36577254588E+02  0.40659127301E+02  0.00000000000E+00 0. -1.
         11    1    3    3    0    0 -0.11463027344E+01  0.76516058471E+01  0.10748108852E+02  0.13243221895E+02  0.51100000000E-03 0. -1.
        -11    1    3    3    0    0 -0.68398292596E+01 -0.73217826945E+01  0.25536296519E+02  0.27431627846E+02  0.51100000000E-03 0.  1.
        -12    1    3    3    0    0 -0.95680502166E+01  0.23384659174E+01  0.29284921714E+00  0.98540229581E+01  0.00000000000E+00 0.  1.
</event>
<event>
 7    1  0.5764931E-013  0.5052886E+02  0.7816164E-02  0.1300439E+00
        -11   -1    0    0    0    0  0.00000000000E+00  0.00000000000E+00  0.45593999997E+02  0.45594000000E+02  0.51100000000E-03 0. -1.
         11   -1    0    0    0    0 -0.00000000000E+00 -0.00000000000E+00 -0.45593999997E+02  0.45594000000E+02  0.51100000000E-03 0.  1.
    9900012    2    1    2    0    0 -0.37882868964E+02  0.10550120175E+01 -0.14728912913E+02  0.50528859738E+02  0.29999999658E+02 0.  0.
         12    1    1    2    0    0  0.37882868964E+02 -0.10550120175E+01  0.14728912913E+02  0.40659140262E+02  0.00000000000E+00 0. -1.
         11    1    3    3    0    0 -0.14075510872E+02  0.67770862092E+01  0.68765001693E+01  0.17068542956E+02  0.51100000000E-03 0. -1.
        -11    1    3    3    0    0 -0.10299675755E+02  0.99876884319E+00 -0.72523925121E+01  0.12636378329E+02  0.51100000000E-03 0.  1.
         12    1    3    3    0    0 -0.13507682337E+02 -0.67208430349E+01 -0.14353020570E+02  0.20823938453E+02  0.00000000000E+00 0. -1.
</event>
<event>
 7    1  0.5764931E-013  0.5052881E+02  0.7816164E-02  0.1300439E+00
        -11   -1    0    0    0    0  0.00000000000E+00  0.00000000000E+00  0.45593999997E+02  0.45594000000E+02  0.51100000000E-03 0. -1.
         11   -1    0    0    0    0 -0.00000000000E+00 -0.00000000000E+00 -0.45593999997E+02  0.45594000000E+02  0.51100000000E-03 0.  1.
    9900012    2    1    2    0    0  0.16846575569E+02  0.29896565410E+02 -0.21807290958E+02  0.50528810748E+02  0.29999850749E+02 0.  0.
         12    1    1    2    0    0 -0.16846575569E+02 -0.29896565410E+02  0.21807290958E+02  0.40659189252E+02  0.00000000000E+00 0. -1.
         11    1    3    3    0    0  0.99476512142E+01 -0.24692576311E+01 -0.38963400580E+01  0.10965147698E+02  0.51100000000E-03 0. -1.
        -11    1    3    3    0    0  0.98963416278E+01  0.20139549762E+02 -0.13692404178E+02  0.26287277810E+02  0.51100000000E-03 0.  1.
         12    1    3    3    0    0 -0.29974172728E+01  0.12226273279E+02 -0.42185467220E+01  0.13276385240E+02  0.00000000000E+00 0. -1.
</event>
<event>
 7    1  0.5764931E-013  0.5052886E+02  0.7816164E-02  0.1300439E+00
        -11   -1    0    0    0    0  0.00000000000E+00  0.00000000000E+00  0.45593999997E+02  0.45594000000E+02  0.51100000000E-03 0. -1.
         11   -1    0    0    0    0 -0.00000000000E+00 -0.00000000000E+00 -0.45593999997E+02  0.45594000000E+02  0.51100000000E-03 0.  1.
    9900012    2    1    2    0    0 -0.35781820614E+02  0.18696200423E+02 -0.48248445156E+01  0.50528859314E+02  0.29999998371E+02 0.  0.
         12    1    1    2    0    0  0.35781820614E+02 -0.18696200423E+02  0.48248445156E+01  0.40659140686E+02  0.00000000000E+00 0. -1.
         11    1    3    3    0    0 -0.19065182695E+02  0.35973099502E+01  0.74008484561E+01  0.20765220639E+02  0.51100000000E-03 0. -1.
        -11    1    3    3    0    0 -0.90961135055E+01  0.16468234354E+02 -0.57570447430E+01  0.19674490796E+02  0.51100000000E-03 0.  1.
         12    1    3    3    0    0 -0.76205244139E+01 -0.13693438816E+01 -0.64686482287E+01  0.10089147879E+02  0.00000000000E+00 0. -1.
</event>
<event>
 7    1  0.5764931E-013  0.5052886E+02  0.7816164E-02  0.1300439E+00
        -11   -1    0    0    0    0  0.00000000000E+00  0.00000000000E+00  0.45593999997E+02  0.45594000000E+02  0.51100000000E-03 0.  1.
         11   -1    0    0    0    0 -0.00000000000E+00 -0.00000000000E+00 -0.45593999997E+02  0.45594000000E+02  0.51100000000E-03 0. -1.
    9900012    2    1    2    0    0 -0.35352586604E+02 -0.20189002295E+01  0.19982101838E+02  0.50528859187E+02  0.29999997986E+02 0.  0.
         12    1    1    2    0    0  0.35352586604E+02  0.20189002295E+01 -0.19982101838E+02  0.40659140813E+02  0.00000000000E+00 0. -1.
         11    1    3    3    0    0 -0.78121105160E+01  0.66539832948E+01 -0.51710866499E+01  0.11491070525E+02  0.51100000000E-03 0. -1.
        -11    1    3    3    0    0 -0.60503905506E+01  0.35199766572E+00  0.25679854426E+01  0.65822243707E+01  0.51100000000E-03 0.  1.
         12    1    3    3    0    0 -0.21490085538E+02 -0.90248811900E+01  0.22585203045E+02  0.32455564292E+02  0.00000000000E+00 0. -1.
</event>
<event>
 7    1  0.5764931E-013  0.5052886E+02  0.7816164E-02  0.1300439E+00
        -11   -1    0    0    0    0  0.00000000000E+00  0.00000000000E+00  0.45593999997E+02  0.45594000000E+02  0.51100000000E-03 0. -1.
         11   -1    0    0    0    0 -0.00000000000E+00 -0.00000000000E+00 -0.45593999997E+02  0.45594000000E+02  0.51100000000E-03 0.  1.
    9900012    2    1    2    0    0  0.24481820335E+02 -0.74233805664E+01 -0.31602208286E+02  0.50528859890E+02  0.30000000121E+02 0.  0.
         12    1    1    2    0    0 -0.24481820335E+02  0.74233805664E+01  0.31602208286E+02  0.40659140110E+02  0.00000000000E+00 0. -1.
         11    1    3    3    0    0  0.18719781506E+02  0.21847021726E+01 -0.43212675149E+01  0.19335886233E+02  0.51100000000E-03 0. -1.
        -11    1    3    3    0    0  0.45485401844E+01 -0.64463958989E+01 -0.26591136921E+02  0.27736867179E+02  0.51100000000E-03 0.  1.
         12    1    3    3    0    0  0.12134986451E+01 -0.31616868401E+01 -0.68980384961E+00  0.34561064780E+01  0.00000000000E+00 0. -1.
</event>
<event>
 7    1  0.5764931E-013  0.5052888E+02  0.7816164E-02  0.1300439E+00
        -11   -1    0    0    0    0  0.00000000000E+00  0.00000000000E+00  0.45593999997E+02  0.45594000000E+02  0.51100000000E-03 0.  1.
         11   -1    0    0    0    0 -0.00000000000E+00 -0.00000000000E+00 -0.45593999997E+02  0.45594000000E+02  0.51100000000E-03 0. -1.
    9900012    2    1    2    0    0 -0.39300111174E+00  0.12090119342E+02  0.38818023657E+02  0.50528875609E+02  0.30000047903E+02 0.  0.
         12    1    1    2    0    0  0.39300111174E+00 -0.12090119342E+02 -0.38818023657E+02  0.40659124391E+02  0.00000000000E+00 0. -1.
         11    1    3    3    0    0  0.86254367648E+01  0.93207994530E+00  0.54953745670E+00  0.86930388292E+01  0.51100000000E-03 0. -1.
        -11    1    3    3    0    0 -0.10480931314E+02  0.11105092026E+02  0.36316248393E+02  0.39395975527E+02  0.51100000000E-03 0.  1.
        -12    1    3    3    0    0  0.14624934378E+01  0.52947371184E-01  0.19522378071E+01  0.24398612533E+01  0.00000000000E+00 0.  1.
</event>
<event>
 7    1  0.5764931E-013  0.5052885E+02  0.7816164E-02  0.1300439E+00
        -11   -1    0    0    0    0  0.00000000000E+00  0.00000000000E+00  0.45593999997E+02  0.45594000000E+02  0.51100000000E-03 0.  1.
         11   -1    0    0    0    0 -0.00000000000E+00 -0.00000000000E+00 -0.45593999997E+02  0.45594000000E+02  0.51100000000E-03 0. -1.
    9900012    2    1    2    0    0 -0.11517346518E+02 -0.15965707391E+02  0.35575458370E+02  0.50528851933E+02  0.29999975936E+02 0.  0.
         12    1    1    2    0    0  0.11517346518E+02  0.15965707391E+02 -0.35575458370E+02  0.40659148067E+02  0.00000000000E+00 0. -1.
         11    1    3    3    0    0 -0.98118705381E+01  0.53067985091E+01  0.15791399613E+02  0.19333991204E+02  0.51100000000E-03 0. -1.
        -11    1    3    3    0    0  0.51212455972E+00 -0.19632663923E+02  0.20454507749E+02  0.28356492234E+02  0.51100000000E-03 0.  1.
        -12    1    3    3    0    0 -0.22176005394E+01 -0.16398419774E+01 -0.67044899254E+00  0.28383684952E+01  0.00000000000E+00 0.  1.
</event>
<event>
 7    1  0.5764931E-013  0.5052885E+02  0.7816164E-02  0.1300439E+00
        -11   -1    0    0    0    0  0.00000000000E+00  0.00000000000E+00  0.45593999997E+02  0.45594000000E+02  0.51100000000E-03 0.  1.
         11   -1    0    0    0    0 -0.00000000000E+00 -0.00000000000E+00 -0.45593999997E+02  0.45594000000E+02  0.51100000000E-03 0. -1.
    9900012    2    1    2    0    0 -0.26235674322E+02  0.32085809151E+01  0.30895967552E+02  0.50528850850E+02  0.29999972644E+02 0.  0.
         12    1    1    2    0    0  0.26235674322E+02 -0.32085809151E+01 -0.30895967552E+02  0.40659149150E+02  0.00000000000E+00 0. -1.
         11    1    3    3    0    0 -0.17520348723E+02 -0.12592500599E+01  0.47385631451E+01  0.18193468912E+02  0.51100000000E-03 0. -1.
        -11    1    3    3    0    0 -0.44451155425E+01  0.27756384077E+00  0.25970611049E+02  0.26349738753E+02  0.51100000000E-03 0.  1.
        -12    1    3    3    0    0 -0.42702100562E+01  0.41902671342E+01  0.18679335797E+00  0.59856431851E+01  0.00000000000E+00 0.  1.
</event>
<event>
 7    1  0.5764931E-013  0.5052886E+02  0.7816164E-02  0.1300439E+00
        -11   -1    0    0    0    0  0.00000000000E+00  0.00000000000E+00  0.45593999997E+02  0.45594000000E+02  0.51100000000E-03 0.  1.
         11   -1    0    0    0    0 -0.00000000000E+00 -0.00000000000E+00 -0.45593999997E+02  0.45594000000E+02  0.51100000000E-03 0. -1.
    9900012    2    1    2    0    0  0.51341765499E+01 -0.19509181283E+00  0.40333208275E+02  0.50528861797E+02  0.30000005917E+02 0.  0.
         12    1    1    2    0    0 -0.51341765499E+01  0.19509181283E+00 -0.40333208275E+02  0.40659138203E+02  0.00000000000E+00 0. -1.
         11    1    3    3    0    0 -0.78370827319E+01  0.22682497267E+01  0.48185876565E+01  0.94754213539E+01  0.51100000000E-03 0. -1.
        -11    1    3    3    0    0  0.97266640960E+01  0.33853649833E+01  0.31749431993E+02  0.33378063494E+02  0.51100000000E-03 0.  1.
        -12    1    3    3    0    0  0.32445951858E+01 -0.58487065229E+01  0.37651886261E+01  0.76753769484E+01  0.00000000000E+00 0.  1.
</event>
<event>
 7    1  0.5764931E-013  0.5052886E+02  0.7816164E-02  0.1300439E+00
        -11   -1    0    0    0    0  0.00000000000E+00  0.00000000000E+00  0.45593999997E+02  0.45594000000E+02  0.51100000000E-03 0.  1.
         11   -1    0    0    0    0 -0.00000000000E+00 -0.00000000000E+00 -0.45593999997E+02  0.45594000000E+02  0.51100000000E-03 0. -1.
    9900012    2    1    2    0    0  0.33745986942E+02  0.21071984685E+02 -0.83872411987E+01  0.50528856032E+02  0.29999988395E+02 0.  0.
         12    1    1    2    0    0 -0.33745986942E+02 -0.21071984685E+02  0.83872411987E+01  0.40659143968E+02  0.00000000000E+00 0. -1.
         11    1    3    3    0    0  0.21315004290E+02  0.19981318667E+02  0.58102719072E+01  0.29788282318E+02  0.51100000000E-03 0. -1.
        -11    1    3    3    0    0  0.28813665238E+01 -0.32372244647E+01 -0.61500737008E+01  0.75236495177E+01  0.51100000000E-03 0.  1.
         12    1    3    3    0    0  0.95496161286E+01  0.43278904834E+01 -0.80474394052E+01  0.13216924197E+02  0.00000000000E+00 0. -1.
</event>
<event>
 7    1  0.5764931E-013  0.5052886E+02  0.7816164E-02  0.1300439E+00
        -11   -1    0    0    0    0  0.00000000000E+00  0.00000000000E+00  0.45593999997E+02  0.45594000000E+02  0.51100000000E-03 0.  1.
         11   -1    0    0    0    0 -0.00000000000E+00 -0.00000000000E+00 -0.45593999997E+02  0.45594000000E+02  0.51100000000E-03 0. -1.
    9900012    2    1    2    0    0 -0.74870959154E+01  0.43941522409E+01  0.39721536033E+02  0.50528860757E+02  0.30000002757E+02 0.  0.
         12    1    1    2    0    0  0.74870959154E+01 -0.43941522409E+01 -0.39721536033E+02  0.40659139243E+02  0.00000000000E+00 0. -1.
         11    1    3    3    0    0 -0.11730745863E+02 -0.83006341815E+01  0.16273056741E+02  0.21709981627E+02  0.51100000000E-03 0. -1.
        -11    1    3    3    0    0  0.34889694083E+01  0.80548598691E+01  0.22320498327E+02  0.23984543374E+02  0.51100000000E-03 0.  1.
        -12    1    3    3    0    0  0.75468053907E+00  0.46399265534E+01  0.11279809650E+01  0.48343357552E+01  0.00000000000E+00 0.  1.
</event>
<event>
 7    1  0.5764931E-013  0.5052887E+02  0.7816164E-02  0.1300439E+00
        -11   -1    0    0    0    0  0.00000000000E+00  0.00000000000E+00  0.45593999997E+02  0.45594000000E+02  0.51100000000E-03 0. -1.
         11   -1    0    0    0    0 -0.00000000000E+00 -0.00000000000E+00 -0.45593999997E+02  0.45594000000E+02  0.51100000000E-03 0.  1.
    9900012    2    1    2    0    0 -0.32485516749E+02  0.24161024431E+02 -0.37550804124E+01  0.50528873978E+02  0.30000042944E+02 0.  0.
         12    1    1    2    0    0  0.32485516749E+02 -0.24161024431E+02  0.37550804124E+01  0.40659126022E+02  0.00000000000E+00 0. -1.
         11    1    3    3    0    0 -0.12531382746E+01 -0.27201995278E+01  0.59400926495E+01  0.66524087331E+01  0.51100000000E-03 0. -1.
        -11    1    3    3    0    0 -0.18501697255E+02  0.14234663186E+02  0.28033183525E+00  0.23345599661E+02  0.51100000000E-03 0.  1.
         12    1    3    3    0    0 -0.12730681219E+02  0.12646560772E+02 -0.99755048972E+01  0.20530865584E+02  0.00000000000E+00 0. -1.
</event>
<event>
 7    1  0.5764931E-013  0.5052886E+02  0.7816164E-02  0.1300439E+00
        -11   -1    0    0    0    0  0.00000000000E+00  0.00000000000E+00  0.45593999997E+02  0.45594000000E+02  0.51100000000E-03 0.  1.
         11   -1    0    0    0    0 -0.00000000000E+00 -0.00000000000E+00 -0.45593999997E+02  0.45594000000E+02  0.51100000000E-03 0. -1.
    9900012    2    1    2    0    0 -0.29441395498E+02 -0.27850365829E+02 -0.32751920643E+01  0.50528861683E+02  0.30000005571E+02 0.  0.
         12    1    1    2    0    0  0.29441395498E+02  0.27850365829E+02  0.32751920643E+01  0.40659138317E+02  0.00000000000E+00 0. -1.
         11    1    3    3    0    0 -0.10581803393E+02 -0.19140929311E+02 -0.80515852576E+01  0.23306174362E+02  0.51100000000E-03 0. -1.
        -11    1    3    3    0    0 -0.16981519044E+02  0.67350375260E+00  0.47775826037E+01  0.17653636796E+02  0.51100000000E-03 0.  1.
        -12    1    3    3    0    0 -0.18780730611E+01 -0.93829402698E+01 -0.11894103863E-02  0.95690505247E+01  0.00000000000E+00 0.  1.
</event>
<event>
 7    1  0.5764931E-013  0.5052887E+02  0.7816164E-02  0.1300439E+00
        -11   -1    0    0    0    0  0.00000000000E+00  0.00000000000E+00  0.45593999997E+02  0.45594000000E+02  0.51100000000E-03 0.  1.
         11   -1    0    0    0    0 -0.00000000000E+00 -0.00000000000E+00 -0.45593999997E+02  0.45594000000E+02  0.51100000000E-03 0. -1.
    9900012    2    1    2    0    0  0.15884736334E+02 -0.14436682054E+01  0.37399939570E+02  0.50528874257E+02  0.30000043793E+02 0.  0.
         12    1    1    2    0    0 -0.15884736334E+02  0.14436682054E+01 -0.37399939570E+02  0.40659125743E+02  0.00000000000E+00 0. -1.
         11    1    3    3    0    0  0.76654878100E+01 -0.27626572348E+00  0.90789869325E+00  0.77240084421E+01  0.51100000000E-03 0. -1.
        -11    1    3    3    0    0 -0.63402133753E+01  0.26625814252E+01  0.15650604309E+02  0.17094708567E+02  0.51100000000E-03 0.  1.
        -12    1    3    3    0    0  0.14559461899E+02 -0.38299839071E+01  0.20841436568E+02  0.25710157248E+02  0.00000000000E+00 0.  1.
</event>
<event>
 7    1  0.5764931E-013  0.5052883E+02  0.7816164E-02  0.1300439E+00
        -11   -1    0    0    0    0  0.00000000000E+00  0.00000000000E+00  0.45593999997E+02  0.45594000000E+02  0.51100000000E-03 0.  1.
         11   -1    0    0    0    0 -0.00000000000E+00 -0.00000000000E+00 -0.45593999997E+02  0.45594000000E+02  0.51100000000E-03 0. -1.
    9900012    2    1    2    0    0 -0.24798254719E+02 -0.32017736390E+02 -0.36165306564E+01  0.50528829145E+02  0.29999906668E+02 0.  0.
         12    1    1    2    0    0  0.24798254719E+02  0.32017736390E+02  0.36165306564E+01  0.40659170855E+02  0.00000000000E+00 0. -1.
         11    1    3    3    0    0  0.50752265002E+01 -0.14609247324E+01 -0.21585484034E+01  0.57053971442E+01  0.51100000000E-03 0. -1.
        -11    1    3    3    0    0 -0.16624895066E+02 -0.25659150886E+02  0.40073982315E+00  0.30576784541E+02  0.51100000000E-03 0.  1.
         12    1    3    3    0    0 -0.13248586153E+02 -0.48976607709E+01 -0.18587220762E+01  0.14246647460E+02  0.00000000000E+00 0. -1.
</event>
<event>
 7    1  0.5764931E-013  0.5052886E+02  0.7816164E-02  0.1300439E+00
        -11   -1    0    0    0    0  0.00000000000E+00  0.00000000000E+00  0.45593999997E+02  0.45594000000E+02  0.51100000000E-03 0. -1.
         11   -1    0    0    0    0 -0.00000000000E+00 -0.00000000000E+00 -0.45593999997E+02  0.45594000000E+02  0.51100000000E-03 0.  1.
    9900012    2    1    2    0    0 -0.19517793737E+02 -0.34523219345E+02 -0.89648559823E+01  0.50528860940E+02  0.30000003314E+02 0.  0.
         12    1    1    2    0    0  0.19517793737E+02  0.34523219345E+02  0.89648559823E+01  0.40659139060E+02  0.00000000000E+00 0. -1.
         11    1    3    3    0    0 -0.36201471515E+01  0.25031295786E+01  0.27332637927E+01  0.51809124976E+01  0.51100000000E-03 0. -1.
        -11    1    3    3    0    0 -0.37365040665E+01 -0.28179533886E+02 -0.49050278884E+01  0.28846263042E+02  0.51100000000E-03 0.  1.
        -12    1    3    3    0    0 -0.12161142519E+02 -0.88468150379E+01 -0.67930918866E+01  0.16501685400E+02  0.00000000000E+00 0.  1.
</event>
<event>
 7    1  0.5764931E-013  0.5052886E+02  0.7816164E-02  0.1300439E+00
        -11   -1    0    0    0    0  0.00000000000E+00  0.00000000000E+00  0.45593999997E+02  0.45594000000E+02  0.51100000000E-03 0. -1.
         11   -1    0    0    0    0 -0.00000000000E+00 -0.00000000000E+00 -0.45593999997E+02  0.45594000000E+02  0.51100000000E-03 0.  1.
    9900012    2    1    2    0    0  0.16650310901E+02  0.10550800827E+02 -0.35561401425E+02  0.50528861759E+02  0.30000005803E+02 0.  0.
         12    1    1    2    0    0 -0.16650310901E+02 -0.10550800827E+02  0.35561401425E+02  0.40659138241E+02  0.00000000000E+00 0. -1.
         11    1    3    3    0    0  0.98990720867E+00  0.68394300550E+00  0.52022320939E+00  0.13108496349E+01  0.51100000000E-03 0. -1.
        -11    1    3    3    0    0 -0.41360962754E+01  0.85202581323E+01 -0.18481212220E+01  0.96497483570E+01  0.51100000000E-03 0.  1.
        -12    1    3    3    0    0  0.19796499967E+02  0.13465996892E+01 -0.34233503412E+02  0.39568263767E+02  0.00000000000E+00 0.  1.
</event>
<event>
 7    1  0.5764931E-013  0.5052886E+02  0.7816164E-02  0.1300439E+00
        -11   -1    0    0    0    0  0.00000000000E+00  0.00000000000E+00  0.45593999997E+02  0.45594000000E+02  0.51100000000E-03 0. -1.
         11   -1    0    0    0    0 -0.00000000000E+00 -0.00000000000E+00 -0.45593999997E+02  0.45594000000E+02  0.51100000000E-03 0.  1.
    9900012    2    1    2    0    0 -0.32251049502E+02  0.13177410692E+02 -0.20961662392E+02  0.50528860354E+02  0.30000001533E+02 0.  0.
         12    1    1    2    0    0  0.32251049502E+02 -0.13177410692E+02  0.20961662392E+02  0.40659139646E+02  0.00000000000E+00 0. -1.
         11    1    3    3    0    0  0.35178354937E+01  0.18943449475E+01 -0.92919584172E+00  0.41020866049E+01  0.51100000000E-03 0. -1.
        -11    1    3    3    0    0 -0.26466035226E+02  0.42621308360E+01 -0.47780104666E+01  0.27229509069E+02  0.51100000000E-03 0.  1.
         12    1    3    3    0    0 -0.93028497696E+01  0.70209349089E+01 -0.15254456083E+02  0.19197264681E+02  0.00000000000E+00 0. -1.
</event>
<event>
 7    1  0.5764931E-013  0.5052885E+02  0.7816164E-02  0.1300439E+00
        -11   -1    0    0    0    0  0.00000000000E+00  0.00000000000E+00  0.45593999997E+02  0.45594000000E+02  0.51100000000E-03 0. -1.
         11   -1    0    0    0    0 -0.00000000000E+00 -0.00000000000E+00 -0.45593999997E+02  0.45594000000E+02  0.51100000000E-03 0.  1.
    9900012    2    1    2    0    0 -0.37405163560E+02  0.15375185901E+02 -0.41980526473E+01  0.50528852831E+02  0.29999978666E+02 0.  0.
         12    1    1    2    0    0  0.37405163560E+02 -0.15375185901E+02  0.41980526473E+01  0.40659147169E+02  0.00000000000E+00 0. -1.
         11    1    3    3    0    0  0.48931820219E+00 -0.24899781379E+01  0.65401675723E+01  0.70152131517E+01  0.51100000000E-03 0. -1.
        -11    1    3    3    0    0 -0.21416525011E+02  0.74848615902E+01 -0.61470337971E+01  0.23504823363E+02  0.51100000000E-03 0.  1.
         12    1    3    3    0    0 -0.16477956751E+02  0.10380302449E+02 -0.45911864225E+01  0.20008816316E+02  0.00000000000E+00 0. -1.
</event>
<event>
 7    1  0.5764931E-013  0.5052886E+02  0.7816164E-02  0.1300439E+00
        -11   -1    0    0    0    0  0.00000000000E+00  0.00000000000E+00  0.45593999997E+02  0.45594000000E+02  0.51100000000E-03 0. -1.
         11   -1    0    0    0    0 -0.00000000000E+00 -0.00000000000E+00 -0.45593999997E+02  0.45594000000E+02  0.51100000000E-03 0.  1.
    9900012    2    1    2    0    0 -0.35975935359E+02  0.13004602638E+02 -0.13776006938E+02  0.50528856110E+02  0.29999988631E+02 0.  0.
         12    1    1    2    0    0  0.35975935359E+02 -0.13004602638E+02  0.13776006938E+02  0.40659143890E+02  0.00000000000E+00 0. -1.
         11    1    3    3    0    0 -0.65919872233E+01  0.12546836434E+02 -0.10623836836E+02  0.17712800723E+02  0.51100000000E-03 0. -1.
        -11    1    3    3    0    0 -0.25954700205E+02 -0.28261149540E+01 -0.66225745593E+01  0.26934956516E+02  0.51100000000E-03 0.  1.
        -12    1    3    3    0    0 -0.34292479303E+01  0.32838811583E+01  0.34704044574E+01  0.58810988707E+01  0.00000000000E+00 0.  1.
</event>
<event>
 7    1  0.5764931E-013  0.5052886E+02  0.7816164E-02  0.1300439E+00
        -11   -1    0    0    0    0  0.00000000000E+00  0.00000000000E+00  0.45593999997E+02  0.45594000000E+02  0.51100000000E-03 0.  1.
         11   -1    0    0    0    0 -0.00000000000E+00 -0.00000000000E+00 -0.45593999997E+02  0.45594000000E+02  0.51100000000E-03 0. -1.
    9900012    2    1    2    0    0  0.81320730361E+01  0.63832192668E+01  0.39322888193E+02  0.50528860364E+02  0.30000001563E+02 0.  0.
         12    1    1    2    0    0 -0.81320730361E+01 -0.63832192668E+01 -0.39322888193E+02  0.40659139636E+02  0.00000000000E+00 0. -1.
         11    1    3    3    0    0 -0.85269531924E+01  0.99770794736E+01  0.15253839262E+02  0.20122888910E+02  0.51100000000E-03 0. -1.
        -11    1    3    3    0    0  0.14198097658E+02 -0.36369687378E+01  0.14852713540E+02  0.20866638888E+02  0.51100000000E-03 0.  1.
         12    1    3    3    0    0  0.24609285700E+01  0.43108531048E-01  0.92163353914E+01  0.95393325667E+01  0.00000000000E+00 0. -1.
</event>
<event>
 7    1  0.5764931E-013  0.5052883E+02  0.7816164E-02  0.1300439E+00
        -11   -1    0    0    0    0  0.00000000000E+00  0.00000000000E+00  0.45593999997E+02  0.45594000000E+02  0.51100000000E-03 0.  1.
         11   -1    0    0    0    0 -0.00000000000E+00 -0.00000000000E+00 -0.45593999997E+02  0.45594000000E+02  0.51100000000E-03 0. -1.
    9900012    2    1    2    0    0 -0.12520688909E+02  0.54053823901E+01  0.38303810927E+02  0.50528834476E+02  0.29999922874E+02 0.  0.
         12    1    1    2    0    0  0.12520688909E+02 -0.54053823901E+01 -0.38303810927E+02  0.40659165524E+02  0.00000000000E+00 0. -1.
         11    1    3    3    0    0 -0.10652077257E+01 -0.17208507911E+01 -0.25816464743E+01  0.32803801188E+01  0.51100000000E-03 0. -1.
        -11    1    3    3    0    0 -0.61648149933E+01  0.13413234031E+02  0.31412881913E+02  0.34708629207E+02  0.51100000000E-03 0.  1.
        -12    1    3    3    0    0 -0.52906661900E+01 -0.62870008501E+01  0.94725754885E+01  0.12539825151E+02  0.00000000000E+00 0.  1.
</event>
<event>
 7    1  0.5764931E-013  0.5052886E+02  0.7816164E-02  0.1300439E+00
        -11   -1    0    0    0    0  0.00000000000E+00  0.00000000000E+00  0.45593999997E+02  0.45594000000E+02  0.51100000000E-03 0.  1.
         11   -1    0    0    0    0 -0.00000000000E+00 -0.00000000000E+00 -0.45593999997E+02  0.45594000000E+02  0.51100000000E-03 0. -1.
    9900012    2    1    2    0    0  0.47750382862E+01  0.65552427895E+01  0.39842105268E+02  0.50528861410E+02  0.30000004743E+02 0.  0.
         12    1    1    2    0    0 -0.47750382862E+01 -0.65552427895E+01 -0.39842105268E+02  0.40659138590E+02  0.00000000000E+00 0. -1.
         11    1    3    3    0    0  0.39900146166E+01  0.14309554201E+02  0.34566487726E+02  0.37623471824E+02  0.51100000000E-03 0. -1.
        -11    1    3    3    0    0 -0.32497086449E+00 -0.61786611451E+01  0.76553468654E+01  0.98430582392E+01  0.51100000000E-03 0.  1.
         12    1    3    3    0    0  0.11099945341E+01 -0.15756502668E+01 -0.23797293236E+01  0.30623313476E+01  0.00000000000E+00 0. -1.
</event>
<event>
 7    1  0.5764931E-013  0.5052886E+02  0.7816164E-02  0.1300439E+00
        -11   -1    0    0    0    0  0.00000000000E+00  0.00000000000E+00  0.45593999997E+02  0.45594000000E+02  0.51100000000E-03 0.  1.
         11   -1    0    0    0    0 -0.00000000000E+00 -0.00000000000E+00 -0.45593999997E+02  0.45594000000E+02  0.51100000000E-03 0. -1.
    9900012    2    1    2    0    0  0.20504236129E+02 -0.20183743914E+02  0.28729045832E+02  0.50528864593E+02  0.30000014416E+02 0.  0.
         12    1    1    2    0    0 -0.20504236129E+02  0.20183743914E+02 -0.28729045832E+02  0.40659135407E+02  0.00000000000E+00 0. -1.
         11    1    3    3    0    0 -0.31635466712E+00  0.39893546754E+01 -0.28361465602E+01  0.49049728413E+01  0.51100000000E-03 0. -1.
        -11    1    3    3    0    0  0.18853675867E+02 -0.22357210603E+02  0.24788620682E+02  0.38337731744E+02  0.51100000000E-03 0.  1.
        -12    1    3    3    0    0  0.19669149296E+01 -0.18158879863E+01  0.67765717102E+01  0.72861600080E+01  0.00000000000E+00 0.  1.
</event>
<event>
 7    1  0.5764931E-013  0.5052888E+02  0.7816164E-02  0.1300439E+00
        -11   -1    0    0    0    0  0.00000000000E+00  0.00000000000E+00  0.45593999997E+02  0.45594000000E+02  0.51100000000E-03 0. -1.
         11   -1    0    0    0    0 -0.00000000000E+00 -0.00000000000E+00 -0.45593999997E+02  0.45594000000E+02  0.51100000000E-03 0.  1.
    9900012    2    1    2    0    0 -0.37487293997E+02 -0.45617592594E+01 -0.15068429518E+02  0.50528875232E+02  0.30000046754E+02 0.  0.
         12    1    1    2    0    0  0.37487293997E+02  0.45617592594E+01  0.15068429518E+02  0.40659124768E+02  0.00000000000E+00 0. -1.
         11    1    3    3    0    0 -0.12064547047E+02 -0.77714913172E+01 -0.15498523463E+02  0.21122348415E+02  0.51100000000E-03 0. -1.
        -11    1    3    3    0    0 -0.20096670902E+02 -0.18019285040E+01 -0.43878439717E+01  0.20648881390E+02  0.51100000000E-03 0.  1.
         12    1    3    3    0    0 -0.53260760480E+01  0.50116605618E+01  0.48179379168E+01  0.87576454270E+01  0.00000000000E+00 0. -1.
</event>
<event>
 7    1  0.5764931E-013  0.5052887E+02  0.7816164E-02  0.1300439E+00
        -11   -1    0    0    0    0  0.00000000000E+00  0.00000000000E+00  0.45593999997E+02  0.45594000000E+02  0.51100000000E-03 0.  1.
         11   -1    0    0    0    0 -0.00000000000E+00 -0.00000000000E+00 -0.45593999997E+02  0.45594000000E+02  0.51100000000E-03 0. -1.
    9900012    2    1    2    0    0  0.15386144601E+02 -0.20188945901E+02  0.31762207288E+02  0.50528870717E+02  0.30000033032E+02 0.  0.
         12    1    1    2    0    0 -0.15386144601E+02  0.20188945901E+02 -0.31762207288E+02  0.40659129283E+02  0.00000000000E+00 0. -1.
         11    1    3    3    0    0  0.85702944938E+01  0.59941228974E+01  0.56454798511E+01  0.11884902188E+02  0.51100000000E-03 0. -1.
        -11    1    3    3    0    0  0.65942124275E+01 -0.99889576550E+01  0.13989577500E+02  0.18411170291E+02  0.51100000000E-03 0.  1.
         12    1    3    3    0    0  0.22163767976E+00 -0.16194111143E+02  0.12127149936E+02  0.20232798238E+02  0.00000000000E+00 0. -1.
</event>
<event>
 7    1  0.5764931E-013  0.5052886E+02  0.7816164E-02  0.1300439E+00
        -11   -1    0    0    0    0  0.00000000000E+00  0.00000000000E+00  0.45593999997E+02  0.45594000000E+02  0.51100000000E-03 0.  1.
         11   -1    0    0    0    0 -0.00000000000E+00 -0.00000000000E+00 -0.45593999997E+02  0.45594000000E+02  0.51100000000E-03 0. -1.
    9900012    2    1    2    0    0  0.17477380949E+02 -0.23147138070E+02  0.28494155692E+02  0.50528858909E+02  0.29999997139E+02 0.  0.
         12    1    1    2    0    0 -0.17477380949E+02  0.23147138070E+02 -0.28494155692E+02  0.40659141091E+02  0.00000000000E+00 0. -1.
         11    1    3    3    0    0  0.17533415616E+01 -0.85248438831E+01 -0.10784979817E+00  0.87039532227E+01  0.51100000000E-03 0. -1.
        -11    1    3    3    0    0  0.12993058458E+02 -0.73198510656E+01  0.30366952844E+02  0.33831222458E+02  0.51100000000E-03 0.  1.
        -12    1    3    3    0    0  0.27309809301E+01 -0.73024431214E+01 -0.17649473542E+01  0.79936832277E+01  0.00000000000E+00 0.  1.
</event>
<event>
 7    1  0.5764931E-013  0.5052885E+02  0.7816164E-02  0.1300439E+00
        -11   -1    0    0    0    0  0.00000000000E+00  0.00000000000E+00  0.45593999997E+02  0.45594000000E+02  0.51100000000E-03 0.  1.
         11   -1    0    0    0    0 -0.00000000000E+00 -0.00000000000E+00 -0.45593999997E+02  0.45594000000E+02  0.51100000000E-03 0. -1.
    9900012    2    1    2    0    0 -0.24046741740E+02 -0.21314505232E+02  0.24912088883E+02  0.50528854730E+02  0.29999984436E+02 0.  0.
         12    1    1    2    0    0  0.24046741740E+02  0.21314505232E+02 -0.24912088883E+02  0.40659145270E+02  0.00000000000E+00 0. -1.
         11    1    3    3    0    0 -0.19611192867E+02 -0.19291514256E+02  0.19368494467E+02  0.33643721348E+02  0.51100000000E-03 0.  1.
        -11    1    3    3    0    0  0.36745016328E+01  0.27630797043E+01  0.58777829055E+01  0.74622318274E+01  0.51100000000E-03 0. -1.
        -12    1    3    3    0    0 -0.81100505056E+01 -0.47860706802E+01 -0.33418848896E+00  0.94229015545E+01  0.00000000000E+00 0.  1.
</event>
<event>
 7    1  0.5764931E-013  0.5052887E+02  0.7816164E-02  0.1300439E+00
        -11   -1    0    0    0    0  0.00000000000E+00  0.00000000000E+00  0.45593999997E+02  0.45594000000E+02  0.51100000000E-03 0.  1.
         11   -1    0    0    0    0 -0.00000000000E+00 -0.00000000000E+00 -0.45593999997E+02  0.45594000000E+02  0.51100000000E-03 0. -1.
    9900012    2    1    2    0    0  0.38557679417E+02  0.83742751404E+01  0.98153920982E+01  0.50528867592E+02  0.30000023532E+02 0.  0.
         12    1    1    2    0    0 -0.38557679417E+02 -0.83742751404E+01 -0.98153920982E+01  0.40659132408E+02  0.00000000000E+00 0. -1.
         11    1    3    3    0    0  0.21509025694E+02  0.14876993772E+02 -0.35595389498E+01  0.26393814574E+02  0.51100000000E-03 0. -1.
        -11    1    3    3    0    0  0.13036194081E+02 -0.22505812781E+01  0.12542470246E+02  0.18229674500E+02  0.51100000000E-03 0.  1.
         12    1    3    3    0    0  0.40124596421E+01 -0.42521373536E+01  0.83246080155E+00  0.59053785179E+01  0.00000000000E+00 0. -1.
</event>
<event>
 7    1  0.5764931E-013  0.5052885E+02  0.7816164E-02  0.1300439E+00
        -11   -1    0    0    0    0  0.00000000000E+00  0.00000000000E+00  0.45593999997E+02  0.45594000000E+02  0.51100000000E-03 0. -1.
         11   -1    0    0    0    0 -0.00000000000E+00 -0.00000000000E+00 -0.45593999997E+02  0.45594000000E+02  0.51100000000E-03 0.  1.
    9900012    2    1    2    0    0  0.61784880162E+01 -0.25534129783E+02 -0.31032252896E+02  0.50528853209E+02  0.29999979814E+02 0.  0.
         12    1    1    2    0    0 -0.61784880162E+01  0.25534129783E+02  0.31032252896E+02  0.40659146791E+02  0.00000000000E+00 0. -1.
         11    1    3    3    0    0  0.12816187262E+02 -0.13882461320E+02 -0.33782969284E+01  0.19193495738E+02  0.51100000000E-03 0. -1.
        -11    1    3    3    0    0 -0.27051580944E+01 -0.39221030388E+00 -0.64927951118E+01  0.70447212765E+01  0.51100000000E-03 0.  1.
         12    1    3    3    0    0 -0.39325411517E+01 -0.11259458160E+02 -0.21161160856E+02  0.24290636195E+02  0.00000000000E+00 0. -1.
</event>
<event>
 7    1  0.5764931E-013  0.5052886E+02  0.7816164E-02  0.1300439E+00
        -11   -1    0    0    0    0  0.00000000000E+00  0.00000000000E+00  0.45593999997E+02  0.45594000000E+02  0.51100000000E-03 0.  1.
         11   -1    0    0    0    0 -0.00000000000E+00 -0.00000000000E+00 -0.45593999997E+02  0.45594000000E+02  0.51100000000E-03 0. -1.
    9900012    2    1    2    0    0  0.11226468744E+02 -0.11179144669E+02  0.37445408443E+02  0.50528862166E+02  0.30000007038E+02 0.  0.
         12    1    1    2    0    0 -0.11226468744E+02  0.11179144669E+02 -0.37445408443E+02  0.40659137834E+02  0.00000000000E+00 0. -1.
         11    1    3    3    0    0 -0.41060657779E+01  0.77963844434E+01  0.82693269863E+01  0.12084086876E+02  0.51100000000E-03 0. -1.
        -11    1    3    3    0    0  0.41119684993E+01 -0.86191961139E+01  0.88315192617E+01  0.13007480898E+02  0.51100000000E-03 0.  1.
        -12    1    3    3    0    0  0.11220566023E+02 -0.10356332998E+02  0.20344562195E+02  0.25437294391E+02  0.00000000000E+00 0.  1.
</event>
<event>
 7    1  0.5764931E-013  0.5052887E+02  0.7816164E-02  0.1300439E+00
        -11   -1    0    0    0    0  0.00000000000E+00  0.00000000000E+00  0.45593999997E+02  0.45594000000E+02  0.51100000000E-03 0.  1.
         11   -1    0    0    0    0 -0.00000000000E+00 -0.00000000000E+00 -0.45593999997E+02  0.45594000000E+02  0.51100000000E-03 0. -1.
    9900012    2    1    2    0    0  0.34179330155E+01 -0.38299519389E+02  0.13214756067E+02  0.50528865362E+02  0.30000016755E+02 0.  0.
         12    1    1    2    0    0 -0.34179330155E+01  0.38299519389E+02 -0.13214756067E+02  0.40659134638E+02  0.00000000000E+00 0. -1.
         11    1    3    3    0    0 -0.79617190731E+01 -0.30124245573E+01  0.90436259542E+01  0.12419776285E+02  0.51100000000E-03 0. -1.
        -11    1    3    3    0    0  0.40658951396E+01 -0.23347039768E+02  0.82484291894E+00  0.23712784217E+02  0.51100000000E-03 0.  1.
        -12    1    3    3    0    0  0.73137569491E+01 -0.11940055064E+02  0.33462871942E+01  0.14396304860E+02  0.00000000000E+00 0.  1.
</event>
<event>
 7    1  0.5764931E-013  0.5052886E+02  0.7816164E-02  0.1300439E+00
        -11   -1    0    0    0    0  0.00000000000E+00  0.00000000000E+00  0.45593999997E+02  0.45594000000E+02  0.51100000000E-03 0.  1.
         11   -1    0    0    0    0 -0.00000000000E+00 -0.00000000000E+00 -0.45593999997E+02  0.45594000000E+02  0.51100000000E-03 0. -1.
    9900012    2    1    2    0    0 -0.33018907029E+02 -0.47200010574E+01  0.23251649787E+02  0.50528857742E+02  0.29999993591E+02 0.  0.
         12    1    1    2    0    0  0.33018907029E+02  0.47200010574E+01 -0.23251649787E+02  0.40659142258E+02  0.00000000000E+00 0. -1.
         11    1    3    3    0    0  0.24085740873E+01 -0.39163697679E+01  0.26792932546E+01  0.53214465983E+01  0.51100000000E-03 0. -1.
        -11    1    3    3    0    0 -0.27530806423E+02  0.49767229074E+01  0.21631130343E+02  0.35364090167E+02  0.51100000000E-03 0.  1.
        -12    1    3    3    0    0 -0.78966746932E+01 -0.57803541969E+01 -0.10587738105E+01  0.98433209759E+01  0.00000000000E+00 0.  1.
</event>
<event>
 7    1  0.5764931E-013  0.5052886E+02  0.7816164E-02  0.1300439E+00
        -11   -1    0    0    0    0  0.00000000000E+00  0.00000000000E+00  0.45593999997E+02  0.45594000000E+02  0.51100000000E-03 0.  1.
         11   -1    0    0    0    0 -0.00000000000E+00 -0.00000000000E+00 -0.45593999997E+02  0.45594000000E+02  0.51100000000E-03 0. -1.
    9900012    2    1    2    0    0  0.32520535525E+02  0.93686674839E+01  0.22534612546E+02  0.50528856823E+02  0.29999990800E+02 0.  0.
         12    1    1    2    0    0 -0.32520535525E+02 -0.93686674839E+01 -0.22534612546E+02  0.40659143177E+02  0.00000000000E+00 0. -1.
         11    1    3    3    0    0  0.22337383871E+02  0.67065550195E+01 -0.24065625713E+01  0.23446282053E+02  0.51100000000E-03 0. -1.
        -11    1    3    3    0    0  0.85668152306E+01  0.19365515855E+01  0.20709132408E+02  0.22494637597E+02  0.51100000000E-03 0.  1.
         12    1    3    3    0    0  0.16163364235E+01  0.72556087895E+00  0.42320427088E+01  0.45879371739E+01  0.00000000000E+00 0. -1.
</event>
<event>
 7    1  0.5764931E-013  0.5052886E+02  0.7816164E-02  0.1300439E+00
        -11   -1    0    0    0    0  0.00000000000E+00  0.00000000000E+00  0.45593999997E+02  0.45594000000E+02  0.51100000000E-03 0.  1.
         11   -1    0    0    0    0 -0.00000000000E+00 -0.00000000000E+00 -0.45593999997E+02  0.45594000000E+02  0.51100000000E-03 0. -1.
    9900012    2    1    2    0    0 -0.31871422609E+02 -0.18817262452E+02 -0.16831187516E+02  0.50528858119E+02  0.29999994740E+02 0.  0.
         12    1    1    2    0    0  0.31871422609E+02  0.18817262452E+02  0.16831187516E+02  0.40659141881E+02  0.00000000000E+00 0. -1.
         11    1    3    3    0    0  0.49606900562E+01  0.77750474754E+00 -0.50316070390E+01  0.71084477294E+01  0.51100000000E-03 0. -1.
        -11    1    3    3    0    0 -0.78007016069E+01 -0.34817218812E+01 -0.16476785328E+01  0.86998952653E+01  0.51100000000E-03 0.  1.
         12    1    3    3    0    0 -0.29031411058E+02 -0.16113045318E+02 -0.10151901944E+02  0.34720515125E+02  0.00000000000E+00 0. -1.
</event>
<event>
 7    1  0.5764931E-013  0.5052886E+02  0.7816164E-02  0.1300439E+00
        -11   -1    0    0    0    0  0.00000000000E+00  0.00000000000E+00  0.45593999997E+02  0.45594000000E+02  0.51100000000E-03 0.  1.
         11   -1    0    0    0    0 -0.00000000000E+00 -0.00000000000E+00 -0.45593999997E+02  0.45594000000E+02  0.51100000000E-03 0. -1.
    9900012    2    1    2    0    0 -0.17820291934E+02  0.12874709053E+02  0.34202993667E+02  0.50528859409E+02  0.29999998659E+02 0.  0.
         12    1    1    2    0    0  0.17820291934E+02 -0.12874709053E+02 -0.34202993667E+02  0.40659140591E+02  0.00000000000E+00 0. -1.
         11    1    3    3    0    0  0.56310162985E+01 -0.30491848649E+01  0.13831644187E+02  0.15242055441E+02  0.51100000000E-03 0. -1.
        -11    1    3    3    0    0 -0.15894546181E+02  0.13506421996E+02  0.15345867539E+02  0.25895089964E+02  0.51100000000E-03 0.  1.
         12    1    3    3    0    0 -0.75567620514E+01  0.24174719226E+01  0.50254819404E+01  0.93917140039E+01  0.00000000000E+00 0. -1.
</event>
<event>
 7    1  0.5764931E-013  0.5052886E+02  0.7816164E-02  0.1300439E+00
        -11   -1    0    0    0    0  0.00000000000E+00  0.00000000000E+00  0.45593999997E+02  0.45594000000E+02  0.51100000000E-03 0.  1.
         11   -1    0    0    0    0 -0.00000000000E+00 -0.00000000000E+00 -0.45593999997E+02  0.45594000000E+02  0.51100000000E-03 0. -1.
    9900012    2    1    2    0    0 -0.30420772960E+02  0.19269758877E+02  0.18879054795E+02  0.50528859027E+02  0.29999997500E+02 0.  0.
         12    1    1    2    0    0  0.30420772960E+02 -0.19269758877E+02 -0.18879054795E+02  0.40659140973E+02  0.00000000000E+00 0. -1.
         11    1    3    3    0    0 -0.18180720488E+02  0.23602527997E+02  0.17404981336E+02  0.34504366403E+02  0.51100000000E-03 0. -1.
        -11    1    3    3    0    0 -0.10141017574E+02 -0.37148653823E+01  0.49791267685E+01  0.11892525631E+02  0.51100000000E-03 0.  1.
         12    1    3    3    0    0 -0.20990348981E+01 -0.61790373759E+00 -0.35050533094E+01  0.41319669933E+01  0.00000000000E+00 0. -1.
</event>
<event>
 7    1  0.5764931E-013  0.5052886E+02  0.7816164E-02  0.1300439E+00
        -11   -1    0    0    0    0  0.00000000000E+00  0.00000000000E+00  0.45593999997E+02  0.45594000000E+02  0.51100000000E-03 0. -1.
         11   -1    0    0    0    0 -0.00000000000E+00 -0.00000000000E+00 -0.45593999997E+02  0.45594000000E+02  0.51100000000E-03 0.  1.
    9900012    2    1    2    0    0 -0.37326977977E+02 -0.15679394897E+02 -0.37441757274E+01  0.50528861284E+02  0.30000004359E+02 0.  0.
         12    1    1    2    0    0  0.37326977977E+02  0.15679394897E+02  0.37441757274E+01  0.40659138716E+02  0.00000000000E+00 0. -1.
         11    1    3    3    0    0 -0.16365765015E+02 -0.16260489951E+01 -0.14253655778E+01  0.16507997067E+02  0.51100000000E-03 0. -1.
        -11    1    3    3    0    0 -0.56630830851E+01 -0.82138252350E+01 -0.11518679791E+02  0.15238681682E+02  0.51100000000E-03 0.  1.
        -12    1    3    3    0    0 -0.15298129876E+02 -0.58395206672E+01  0.91998696417E+01  0.18782182535E+02  0.00000000000E+00 0.  1.
</event>
<event>
 7    1  0.5764931E-013  0.5052886E+02  0.7816164E-02  0.1300439E+00
        -11   -1    0    0    0    0  0.00000000000E+00  0.00000000000E+00  0.45593999997E+02  0.45594000000E+02  0.51100000000E-03 0.  1.
         11   -1    0    0    0    0 -0.00000000000E+00 -0.00000000000E+00 -0.45593999997E+02  0.45594000000E+02  0.51100000000E-03 0. -1.
    9900012    2    1    2    0    0  0.29467936565E+02 -0.18084883217E+02  0.21394929936E+02  0.50528864331E+02  0.30000013620E+02 0.  0.
         12    1    1    2    0    0 -0.29467936565E+02  0.18084883217E+02 -0.21394929936E+02  0.40659135669E+02  0.00000000000E+00 0. -1.
         11    1    3    3    0    0  0.70303469283E+01  0.47248637018E+01  0.13005257056E+02  0.15520529188E+02  0.51100000000E-03 0. -1.
        -11    1    3    3    0    0  0.13023590586E+02 -0.78286076763E+01 -0.50739885006E+00  0.15203896335E+02  0.51100000000E-03 0.  1.
         12    1    3    3    0    0  0.94139990510E+01 -0.14981139242E+02  0.88970717303E+01  0.19804438808E+02  0.00000000000E+00 0. -1.
</event>
<event>
 7    1  0.5764931E-013  0.5052885E+02  0.7816164E-02  0.1300439E+00
        -11   -1    0    0    0    0  0.00000000000E+00  0.00000000000E+00  0.45593999997E+02  0.45594000000E+02  0.51100000000E-03 0.  1.
         11   -1    0    0    0    0 -0.00000000000E+00 -0.00000000000E+00 -0.45593999997E+02  0.45594000000E+02  0.51100000000E-03 0. -1.
    9900012    2    1    2    0    0 -0.17948933428E+02 -0.31755481914E+02  0.17960835242E+02  0.50528850410E+02  0.29999971307E+02 0.  0.
         12    1    1    2    0    0  0.17948933428E+02  0.31755481914E+02 -0.17960835242E+02  0.40659149590E+02  0.00000000000E+00 0. -1.
         11    1    3    3    0    0  0.31820357653E+01 -0.55742436241E+01  0.47731525765E+01  0.79987829932E+01  0.51100000000E-03 0. -1.
        -11    1    3    3    0    0 -0.15816381447E+02 -0.20297798386E+02 -0.15670231888E+01  0.25780110615E+02  0.51100000000E-03 0.  1.
        -12    1    3    3    0    0 -0.53145877465E+01 -0.58834399033E+01  0.14754705854E+02  0.16749956802E+02  0.00000000000E+00 0.  1.
</event>
<event>
 7    1  0.5764931E-013  0.5052885E+02  0.7816164E-02  0.1300439E+00
        -11   -1    0    0    0    0  0.00000000000E+00  0.00000000000E+00  0.45593999997E+02  0.45594000000E+02  0.51100000000E-03 0.  1.
         11   -1    0    0    0    0 -0.00000000000E+00 -0.00000000000E+00 -0.45593999997E+02  0.45594000000E+02  0.51100000000E-03 0. -1.
    9900012    2    1    2    0    0  0.34507458633E+02  0.15930941413E+01  0.21444429090E+02  0.50528853560E+02  0.29999980880E+02 0.  0.
         12    1    1    2    0    0 -0.34507458633E+02 -0.15930941413E+01 -0.21444429090E+02  0.40659146440E+02  0.00000000000E+00 0. -1.
         11    1    3    3    0    0  0.93798087210E+01 -0.10195794672E+02  0.13188491565E+02  0.19127763870E+02  0.51100000000E-03 0. -1.
        -11    1    3    3    0    0  0.26473724151E+02  0.11177556688E+02  0.83336563833E+01  0.29920656292E+02  0.51100000000E-03 0.  1.
        -12    1    3    3    0    0 -0.13460742389E+01  0.61133212575E+00 -0.77718858757E-01  0.14804333979E+01  0.00000000000E+00 0.  1.
</event>
<event>
 7    1  0.5764931E-013  0.5052886E+02  0.7816164E-02  0.1300439E+00
        -11   -1    0    0    0    0  0.00000000000E+00  0.00000000000E+00  0.45593999997E+02  0.45594000000E+02  0.51100000000E-03 0.  1.
         11   -1    0    0    0    0 -0.00000000000E+00 -0.00000000000E+00 -0.45593999997E+02  0.45594000000E+02  0.51100000000E-03 0. -1.
    9900012    2    1    2    0    0 -0.11504015478E+02  0.34520008960E+02  0.18143654707E+02  0.50528860845E+02  0.30000003025E+02 0.  0.
         12    1    1    2    0    0  0.11504015478E+02 -0.34520008960E+02 -0.18143654707E+02  0.40659139155E+02  0.00000000000E+00 0. -1.
         11    1    3    3    0    0  0.14692722477E+01  0.12351936892E+02 -0.38271802695E+01  0.13014469448E+02  0.51100000000E-03 0. -1.
        -11    1    3    3    0    0  0.87835476453E+00  0.13523227923E+01  0.93842616081E+01  0.95217986860E+01  0.51100000000E-03 0.  1.
         12    1    3    3    0    0 -0.13851642491E+02  0.20815749275E+02  0.12586573368E+02  0.27992592711E+02  0.00000000000E+00 0. -1.
</event>
<event>
 7    1  0.5764931E-013  0.5052887E+02  0.7816164E-02  0.1300439E+00
        -11   -1    0    0    0    0  0.00000000000E+00  0.00000000000E+00  0.45593999997E+02  0.45594000000E+02  0.51100000000E-03 0. -1.
         11   -1    0    0    0    0 -0.00000000000E+00 -0.00000000000E+00 -0.45593999997E+02  0.45594000000E+02  0.51100000000E-03 0.  1.
    9900012    2    1    2    0    0 -0.17245777198E+02 -0.14260707582E+02 -0.33946731195E+02  0.50528866084E+02  0.30000018950E+02 0.  0.
         12    1    1    2    0    0  0.17245777198E+02  0.14260707582E+02  0.33946731195E+02  0.40659133916E+02  0.00000000000E+00 0. -1.
         11    1    3    3    0    0  0.19720194257E+01 -0.64134456336E+01 -0.16238346300E+02  0.17570003880E+02  0.51100000000E-03 0. -1.
        -11    1    3    3    0    0 -0.10248694779E+02 -0.11061449663E+02 -0.29085922879E+01  0.15357451699E+02  0.51100000000E-03 0.  1.
        -12    1    3    3    0    0 -0.89691018444E+01  0.32141877147E+01 -0.14799792607E+02  0.17601410505E+02  0.00000000000E+00 0.  1.
</event>
<event>
 7    1  0.5764931E-013  0.5052886E+02  0.7816164E-02  0.1300439E+00
        -11   -1    0    0    0    0  0.00000000000E+00  0.00000000000E+00  0.45593999997E+02  0.45594000000E+02  0.51100000000E-03 0. -1.
         11   -1    0    0    0    0 -0.00000000000E+00 -0.00000000000E+00 -0.45593999997E+02  0.45594000000E+02  0.51100000000E-03 0.  1.
    9900012    2    1    2    0    0  0.92490405898E+01  0.35942038781E+02  0.16606959256E+02  0.50528855896E+02  0.29999987981E+02 0.  0.
         12    1    1    2    0    0 -0.92490405898E+01 -0.35942038781E+02 -0.16606959256E+02  0.40659144104E+02  0.00000000000E+00 0. -1.
         11    1    3    3    0    0 -0.30838704228E+01  0.25033776310E+02  0.12790734445E+02  0.28280790318E+02  0.51100000000E-03 0. -1.
        -11    1    3    3    0    0  0.11529206236E+02  0.10289257481E+02  0.83759088643E+01  0.17576895787E+02  0.51100000000E-03 0.  1.
         12    1    3    3    0    0  0.80370477645E+00  0.61900499016E+00 -0.45596840534E+01  0.46711697906E+01  0.00000000000E+00 0. -1.
</event>
<event>
 7    1  0.7107555E-013  0.5052885E+02  0.7816164E-02  0.1300439E+00
        -11   -1    0    0    0    0  0.00000000000E+00  0.00000000000E+00  0.45593999997E+02  0.45594000000E+02  0.51100000000E-03 0. -1.
         11   -1    0    0    0    0 -0.00000000000E+00 -0.00000000000E+00 -0.45593999997E+02  0.45594000000E+02  0.51100000000E-03 0.  1.
    9900012    2    1    2    0    0 -0.33528050296E+02  0.11378010838E+02 -0.19989428574E+02  0.50528849222E+02  0.29999967695E+02 0.  0.
         12    1    1    2    0    0  0.33528050296E+02 -0.11378010838E+02  0.19989428574E+02  0.40659150778E+02  0.00000000000E+00 0. -1.
         11    1    3    3    0    0 -0.19289272989E+02  0.29296159244E+01 -0.64578561178E+00  0.19521161370E+02  0.51100000000E-03 0. -1.
        -11    1    3    3    0    0 -0.16684807116E+02  0.10541396675E+02 -0.19552870493E+02  0.27781623011E+02  0.51100000000E-03 0.  1.
         12    1    3    3    0    0  0.24460298091E+01 -0.20930017612E+01  0.20922753095E+00  0.32260648411E+01  0.00000000000E+00 0. -1.
</event>
<event>
 7    1  0.5764931E-013  0.5052887E+02  0.7816164E-02  0.1300439E+00
        -11   -1    0    0    0    0  0.00000000000E+00  0.00000000000E+00  0.45593999997E+02  0.45594000000E+02  0.51100000000E-03 0.  1.
         11   -1    0    0    0    0 -0.00000000000E+00 -0.00000000000E+00 -0.45593999997E+02  0.45594000000E+02  0.51100000000E-03 0. -1.
    9900012    2    1    2    0    0  0.25416665328E+02 -0.88540207055E+01  0.30475637452E+02  0.50528867727E+02  0.30000023944E+02 0.  0.
         12    1    1    2    0    0 -0.25416665328E+02  0.88540207055E+01 -0.30475637452E+02  0.40659132273E+02  0.00000000000E+00 0. -1.
         11    1    3    3    0    0  0.58346658223E+01  0.70868329488E+01  0.12315280130E+02  0.15360099331E+02  0.51100000000E-03 0. -1.
        -11    1    3    3    0    0  0.20473683362E+02 -0.15896880040E+02  0.11344220736E+02  0.28294413756E+02  0.51100000000E-03 0.  1.
        -12    1    3    3    0    0 -0.89168385628E+00 -0.43973614526E-01  0.68161365854E+01  0.68743546409E+01  0.00000000000E+00 0.  1.
</event>
<event>
 7    1  0.5764931E-013  0.5052886E+02  0.7816164E-02  0.1300439E+00
        -11   -1    0    0    0    0  0.00000000000E+00  0.00000000000E+00  0.45593999997E+02  0.45594000000E+02  0.51100000000E-03 0. -1.
         11   -1    0    0    0    0 -0.00000000000E+00 -0.00000000000E+00 -0.45593999997E+02  0.45594000000E+02  0.51100000000E-03 0.  1.
    9900012    2    1    2    0    0 -0.19937585338E+02 -0.44463917161E+01 -0.35155199023E+02  0.50528859248E+02  0.29999998170E+02 0.  0.
         12    1    1    2    0    0  0.19937585338E+02  0.44463917161E+01  0.35155199023E+02  0.40659140752E+02  0.00000000000E+00 0. -1.
         11    1    3    3    0    0 -0.18358901858E+02  0.10833148271E+00 -0.11313584261E+02  0.21565208143E+02  0.51100000000E-03 0. -1.
        -11    1    3    3    0    0 -0.40866384865E+00 -0.10125366810E+02 -0.11225670452E+02  0.15123020087E+02  0.51100000000E-03 0.  1.
        -12    1    3    3    0    0 -0.11700196309E+01  0.55706436110E+01 -0.12615944309E+02  0.13840631018E+02  0.00000000000E+00 0.  1.
</event>
<event>
 7    1  0.5764931E-013  0.5052887E+02  0.7816164E-02  0.1300439E+00
        -11   -1    0    0    0    0  0.00000000000E+00  0.00000000000E+00  0.45593999997E+02  0.45594000000E+02  0.51100000000E-03 0.  1.
         11   -1    0    0    0    0 -0.00000000000E+00 -0.00000000000E+00 -0.45593999997E+02  0.45594000000E+02  0.51100000000E-03 0. -1.
    9900012    2    1    2    0    0  0.19089047651E+02 -0.10190385091E+02  0.34422805286E+02  0.50528865574E+02  0.30000017398E+02 0.  0.
         12    1    1    2    0    0 -0.19089047651E+02  0.10190385091E+02 -0.34422805286E+02  0.40659134426E+02  0.00000000000E+00 0. -1.
         11    1    3    3    0    0 -0.74323959831E+01 -0.76888476350E+00  0.53015759650E+01  0.91617903164E+01  0.51100000000E-03 0. -1.
        -11    1    3    3    0    0  0.18275755363E+02 -0.30953585373E+01  0.22003814851E+02  0.28770685547E+02  0.51100000000E-03 0.  1.
         12    1    3    3    0    0  0.82456882706E+01 -0.63261417902E+01  0.71174144704E+01  0.12596389711E+02  0.00000000000E+00 0. -1.
</event>
<event>
 7    1  0.5764931E-013  0.5052887E+02  0.7816164E-02  0.1300439E+00
        -11   -1    0    0    0    0  0.00000000000E+00  0.00000000000E+00  0.45593999997E+02  0.45594000000E+02  0.51100000000E-03 0. -1.
         11   -1    0    0    0    0 -0.00000000000E+00 -0.00000000000E+00 -0.45593999997E+02  0.45594000000E+02  0.51100000000E-03 0.  1.
    9900012    2    1    2    0    0 -0.24313197889E+02 -0.12949086221E+01 -0.32563115793E+02  0.50528869536E+02  0.30000029442E+02 0.  0.
         12    1    1    2    0    0  0.24313197889E+02  0.12949086221E+01  0.32563115793E+02  0.40659130464E+02  0.00000000000E+00 0. -1.
         11    1    3    3    0    0 -0.96999108331E+01  0.78724383055E+01 -0.56580198934E+01  0.13714107496E+02  0.51100000000E-03 0. -1.
        -11    1    3    3    0    0 -0.15821290585E+02 -0.12545461139E+02 -0.26330745566E+02  0.33181470632E+02  0.51100000000E-03 0.  1.
        -12    1    3    3    0    0  0.12080035287E+01  0.33781142112E+01 -0.57435033342E+00  0.36332914079E+01  0.00000000000E+00 0.  1.
</event>
<event>
 7    1  0.5764931E-013  0.5052881E+02  0.7816164E-02  0.1300439E+00
        -11   -1    0    0    0    0  0.00000000000E+00  0.00000000000E+00  0.45593999997E+02  0.45594000000E+02  0.51100000000E-03 0. -1.
         11   -1    0    0    0    0 -0.00000000000E+00 -0.00000000000E+00 -0.45593999997E+02  0.45594000000E+02  0.51100000000E-03 0.  1.
    9900012    2    1    2    0    0  0.11670467487E+02 -0.11156694099E+01 -0.38932317083E+02  0.50528808628E+02  0.29999844305E+02 0.  0.
         12    1    1    2    0    0 -0.11670467487E+02  0.11156694099E+01  0.38932317083E+02  0.40659191372E+02  0.00000000000E+00 0. -1.
         11    1    3    3    0    0  0.96775763656E+00  0.88088448258E+01 -0.30405646603E+02  0.31670738034E+02  0.51100000000E-03 0. -1.
        -11    1    3    3    0    0  0.11663764438E+01  0.84612034415E+00 -0.32148705800E+01  0.35230309043E+01  0.51100000000E-03 0.  1.
         12    1    3    3    0    0  0.95363334064E+01 -0.10770634580E+02 -0.53117998995E+01  0.15335039689E+02  0.00000000000E+00 0. -1.
</event>
<event>
 7    1  0.5764931E-013  0.5052887E+02  0.7816164E-02  0.1300439E+00
        -11   -1    0    0    0    0  0.00000000000E+00  0.00000000000E+00  0.45593999997E+02  0.45594000000E+02  0.51100000000E-03 0. -1.
         11   -1    0    0    0    0 -0.00000000000E+00 -0.00000000000E+00 -0.45593999997E+02  0.45594000000E+02  0.51100000000E-03 0.  1.
    9900012    2    1    2    0    0 -0.20780878236E+02 -0.29397896712E+02 -0.18896664075E+02  0.50528866407E+02  0.30000019932E+02 0.  0.
         12    1    1    2    0    0  0.20780878236E+02  0.29397896712E+02  0.18896664075E+02  0.40659133593E+02  0.00000000000E+00 0. -1.
         11    1    3    3    0    0 -0.44979108032E+01 -0.14803816119E+02  0.24977219304E+01  0.15672357461E+02  0.51100000000E-03 0. -1.
        -11    1    3    3    0    0 -0.14128140427E+02 -0.22004448727E+01 -0.76195292718E+01  0.16201960873E+02  0.51100000000E-03 0.  1.
        -12    1    3    3    0    0 -0.21548270061E+01 -0.12393635720E+02 -0.13774856734E+02  0.18654548073E+02  0.00000000000E+00 0.  1.
</event>
<event>
 7    1  0.5764931E-013  0.5052888E+02  0.7816164E-02  0.1300439E+00
        -11   -1    0    0    0    0  0.00000000000E+00  0.00000000000E+00  0.45593999997E+02  0.45594000000E+02  0.51100000000E-03 0. -1.
         11   -1    0    0    0    0 -0.00000000000E+00 -0.00000000000E+00 -0.45593999997E+02  0.45594000000E+02  0.51100000000E-03 0.  1.
    9900012    2    1    2    0    0 -0.36210145416E+02  0.14204415426E+02 -0.11841626002E+02  0.50528878576E+02  0.30000056918E+02 0.  0.
         12    1    1    2    0    0  0.36210145416E+02 -0.14204415426E+02  0.11841626002E+02  0.40659121424E+02  0.00000000000E+00 0. -1.
         11    1    3    3    0    0 -0.65484445105E+01  0.16136632166E+02 -0.27071287663E+01  0.17623892010E+02  0.51100000000E-03 0. -1.
        -11    1    3    3    0    0 -0.16230808616E+02 -0.53134084388E+01 -0.84081966333E+01  0.19035998226E+02  0.51100000000E-03 0.  1.
         12    1    3    3    0    0 -0.13430892290E+02  0.33811916986E+01 -0.72630060216E+00  0.13868988340E+02  0.00000000000E+00 0. -1.
</event>
<event>
 7    1  0.5764931E-013  0.5052886E+02  0.7816164E-02  0.1300439E+00
        -11   -1    0    0    0    0  0.00000000000E+00  0.00000000000E+00  0.45593999997E+02  0.45594000000E+02  0.51100000000E-03 0.  1.
         11   -1    0    0    0    0 -0.00000000000E+00 -0.00000000000E+00 -0.45593999997E+02  0.45594000000E+02  0.51100000000E-03 0. -1.
    9900012    2    1    2    0    0 -0.13619565596E+00 -0.19592687594E+02  0.35626863011E+02  0.50528864195E+02  0.30000013208E+02 0.  0.
         12    1    1    2    0    0  0.13619565596E+00  0.19592687594E+02 -0.35626863011E+02  0.40659135805E+02  0.00000000000E+00 0. -1.
         11    1    3    3    0    0  0.43859251799E+01  0.64186682227E+01  0.60533417689E+01  0.98528467089E+01  0.51100000000E-03 0. -1.
        -11    1    3    3    0    0 -0.61893348732E+01 -0.19630778169E+02  0.26044819088E+02  0.33196504624E+02  0.51100000000E-03 0.  1.
         12    1    3    3    0    0  0.16672140373E+01 -0.63805776478E+01  0.35287021535E+01  0.74795128621E+01  0.00000000000E+00 0. -1.
</event>
<event>
 7    1  0.5764931E-013  0.5052886E+02  0.7816164E-02  0.1300439E+00
        -11   -1    0    0    0    0  0.00000000000E+00  0.00000000000E+00  0.45593999997E+02  0.45594000000E+02  0.51100000000E-03 0.  1.
         11   -1    0    0    0    0 -0.00000000000E+00 -0.00000000000E+00 -0.45593999997E+02  0.45594000000E+02  0.51100000000E-03 0. -1.
    9900012    2    1    2    0    0 -0.16994051708E+02 -0.13283999840E+02  0.34465973757E+02  0.50528858442E+02  0.29999995722E+02 0.  0.
         12    1    1    2    0    0  0.16994051708E+02  0.13283999840E+02 -0.34465973757E+02  0.40659141558E+02  0.00000000000E+00 0. -1.
         11    1    3    3    0    0 -0.40130971196E+01 -0.41452531909E+01 -0.50510944641E+00  0.57916498791E+01  0.51100000000E-03 0. -1.
        -11    1    3    3    0    0 -0.10499654793E+02 -0.11327287377E+02  0.37510896698E+02  0.40566212067E+02  0.51100000000E-03 0.  1.
        -12    1    3    3    0    0 -0.24812997946E+01  0.21885407278E+01 -0.25398134945E+01  0.41709964967E+01  0.00000000000E+00 0.  1.
</event>
<event>
 7    1  0.5764931E-013  0.5052886E+02  0.7816164E-02  0.1300439E+00
        -11   -1    0    0    0    0  0.00000000000E+00  0.00000000000E+00  0.45593999997E+02  0.45594000000E+02  0.51100000000E-03 0. -1.
         11   -1    0    0    0    0 -0.00000000000E+00 -0.00000000000E+00 -0.45593999997E+02  0.45594000000E+02  0.51100000000E-03 0.  1.
    9900012    2    1    2    0    0 -0.34083265755E+02 -0.21934959827E+02 -0.32178341549E+01  0.50528856825E+02  0.29999990804E+02 0.  0.
         12    1    1    2    0    0  0.34083265755E+02  0.21934959827E+02  0.32178341549E+01  0.40659143175E+02  0.00000000000E+00 0. -1.
         11    1    3    3    0    0 -0.11750143409E+02 -0.23094186904E+01  0.65183141848E+01  0.13634064137E+02  0.51100000000E-03 0. -1.
        -11    1    3    3    0    0 -0.16285609266E+02 -0.23333446951E+02 -0.84734140752E+01  0.29689553080E+02  0.51100000000E-03 0.  1.
        -12    1    3    3    0    0 -0.60475130800E+01  0.37079058139E+01 -0.12627342645E+01  0.72052396075E+01  0.00000000000E+00 0.  1.
</event>
<event>
 7    1  0.5764931E-013  0.5052886E+02  0.7816164E-02  0.1300439E+00
        -11   -1    0    0    0    0  0.00000000000E+00  0.00000000000E+00  0.45593999997E+02  0.45594000000E+02  0.51100000000E-03 0.  1.
         11   -1    0    0    0    0 -0.00000000000E+00 -0.00000000000E+00 -0.45593999997E+02  0.45594000000E+02  0.51100000000E-03 0. -1.
    9900012    2    1    2    0    0 -0.38764630336E+01 -0.31649339742E+02  0.25228126072E+02  0.50528855679E+02  0.29999987323E+02 0.  0.
         12    1    1    2    0    0  0.38764630336E+01  0.31649339742E+02 -0.25228126072E+02  0.40659144321E+02  0.00000000000E+00 0. -1.
         11    1    3    3    0    0 -0.67131491340E+00  0.30461459963E+00 -0.31055801930E+01  0.31918775609E+01  0.51100000000E-03 0. -1.
        -11    1    3    3    0    0  0.14585244029E+01 -0.28504925593E+02  0.29892579138E+02  0.41330670988E+02  0.51100000000E-03 0.  1.
         12    1    3    3    0    0 -0.46636725231E+01 -0.34490287484E+01 -0.15588728730E+01  0.60063071304E+01  0.00000000000E+00 0. -1.
</event>
<event>
 7    1  0.5764931E-013  0.5052886E+02  0.7816164E-02  0.1300439E+00
        -11   -1    0    0    0    0  0.00000000000E+00  0.00000000000E+00  0.45593999997E+02  0.45594000000E+02  0.51100000000E-03 0. -1.
         11   -1    0    0    0    0 -0.00000000000E+00 -0.00000000000E+00 -0.45593999997E+02  0.45594000000E+02  0.51100000000E-03 0.  1.
    9900012    2    1    2    0    0  0.93492798140E+01  0.39351037616E+02 -0.41535834188E+01  0.50528862654E+02  0.30000008523E+02 0.  0.
         12    1    1    2    0    0 -0.93492798140E+01 -0.39351037616E+02  0.41535834188E+01  0.40659137346E+02  0.00000000000E+00 0. -1.
         11    1    3    3    0    0 -0.16352425512E+01  0.96920709663E+01  0.95784944360E+01  0.13724351123E+02  0.51100000000E-03 0. -1.
        -11    1    3    3    0    0  0.79160758471E+01  0.29995458218E+02 -0.11981232123E+02  0.33255701676E+02  0.51100000000E-03 0.  1.
        -12    1    3    3    0    0  0.30684465181E+01 -0.33649156837E+00 -0.17508457323E+01  0.35488098552E+01  0.00000000000E+00 0.  1.
</event>
<event>
 7    1  0.5764931E-013  0.5052886E+02  0.7816164E-02  0.1300439E+00
        -11   -1    0    0    0    0  0.00000000000E+00  0.00000000000E+00  0.45593999997E+02  0.45594000000E+02  0.51100000000E-03 0.  1.
         11   -1    0    0    0    0 -0.00000000000E+00 -0.00000000000E+00 -0.45593999997E+02  0.45594000000E+02  0.51100000000E-03 0. -1.
    9900012    2    1    2    0    0  0.18273957006E+02 -0.20074382631E+01  0.36265665616E+02  0.50528858155E+02  0.29999994847E+02 0.  0.
         12    1    1    2    0    0 -0.18273957006E+02  0.20074382631E+01 -0.36265665616E+02  0.40659141845E+02  0.00000000000E+00 0. -1.
         11    1    3    3    0    0  0.50432908530E+01  0.31809627057E+01 -0.10670597607E+01  0.60573858352E+01  0.51100000000E-03 0. -1.
        -11    1    3    3    0    0  0.18597527803E+01 -0.94950349010E+01  0.26410676939E+02  0.28127179468E+02  0.51100000000E-03 0.  1.
        -12    1    3    3    0    0  0.11370913372E+02  0.43066339323E+01  0.10922048438E+02  0.16344292852E+02  0.00000000000E+00 0.  1.
</event>
<event>
 7    1  0.5764931E-013  0.5052887E+02  0.7816164E-02  0.1300439E+00
        -11   -1    0    0    0    0  0.00000000000E+00  0.00000000000E+00  0.45593999997E+02  0.45594000000E+02  0.51100000000E-03 0.  1.
         11   -1    0    0    0    0 -0.00000000000E+00 -0.00000000000E+00 -0.45593999997E+02  0.45594000000E+02  0.51100000000E-03 0. -1.
    9900012    2    1    2    0    0  0.15069172590E+02  0.24442389529E+02  0.28786361436E+02  0.50528868515E+02  0.30000026337E+02 0.  0.
         12    1    1    2    0    0 -0.15069172590E+02 -0.24442389529E+02 -0.28786361436E+02  0.40659131485E+02  0.00000000000E+00 0. -1.
         11    1    3    3    0    0  0.10307754903E+02  0.13947993898E+02  0.25078159840E+02  0.30491153572E+02  0.51100000000E-03 0. -1.
        -11    1    3    3    0    0  0.39182663626E+01 -0.32463742900E+01 -0.15218542761E+01  0.53111013941E+01  0.51100000000E-03 0.  1.
         12    1    3    3    0    0  0.84315132431E+00  0.13740769921E+02  0.52300558717E+01  0.14726613548E+02  0.00000000000E+00 0. -1.
</event>
<event>
 7    1  0.5764931E-013  0.5052884E+02  0.7816164E-02  0.1300439E+00
        -11   -1    0    0    0    0  0.00000000000E+00  0.00000000000E+00  0.45593999997E+02  0.45594000000E+02  0.51100000000E-03 0. -1.
         11   -1    0    0    0    0 -0.00000000000E+00 -0.00000000000E+00 -0.45593999997E+02  0.45594000000E+02  0.51100000000E-03 0.  1.
    9900012    2    1    2    0    0  0.26660969273E+02  0.21343711279E+02 -0.22063673747E+02  0.50528843677E+02  0.29999950839E+02 0.  0.
         12    1    1    2    0    0 -0.26660969273E+02 -0.21343711279E+02  0.22063673747E+02  0.40659156323E+02  0.00000000000E+00 0. -1.
         11    1    3    3    0    0  0.23006007757E+02  0.53060423925E+00 -0.13250126824E+02  0.26554167185E+02  0.51100000000E-03 0. -1.
        -11    1    3    3    0    0  0.56684920412E+01  0.17524463268E+02 -0.76794702188E+01  0.19955271934E+02  0.51100000000E-03 0.  1.
        -12    1    3    3    0    0 -0.20135305248E+01  0.32886437710E+01 -0.11340767039E+01  0.40194045576E+01  0.00000000000E+00 0.  1.
</event>
<event>
 7    1  0.5764931E-013  0.5052886E+02  0.7816164E-02  0.1300439E+00
        -11   -1    0    0    0    0  0.00000000000E+00  0.00000000000E+00  0.45593999997E+02  0.45594000000E+02  0.51100000000E-03 0.  1.
         11   -1    0    0    0    0 -0.00000000000E+00 -0.00000000000E+00 -0.45593999997E+02  0.45594000000E+02  0.51100000000E-03 0. -1.
    9900012    2    1    2    0    0 -0.14262566218E+02  0.12811270873E+02  0.35855491731E+02  0.50528859038E+02  0.29999997531E+02 0.  0.
         12    1    1    2    0    0  0.14262566218E+02 -0.12811270873E+02 -0.35855491731E+02  0.40659140962E+02  0.00000000000E+00 0. -1.
         11    1    3    3    0    0 -0.84740658288E+01  0.46545251804E+01  0.62896388724E+01  0.11534034582E+02  0.51100000000E-03 0. -1.
        -11    1    3    3    0    0  0.28406371097E+01  0.11778225216E+02  0.26514636591E+02  0.29151702562E+02  0.51100000000E-03 0.  1.
        -12    1    3    3    0    0 -0.86291374992E+01 -0.36214795228E+01  0.30512162676E+01  0.98431218943E+01  0.00000000000E+00 0.  1.
</event>
<event>
 7    1  0.5764931E-013  0.5052886E+02  0.7816164E-02  0.1300439E+00
        -11   -1    0    0    0    0  0.00000000000E+00  0.00000000000E+00  0.45593999997E+02  0.45594000000E+02  0.51100000000E-03 0.  1.
         11   -1    0    0    0    0 -0.00000000000E+00 -0.00000000000E+00 -0.45593999997E+02  0.45594000000E+02  0.51100000000E-03 0. -1.
    9900012    2    1    2    0    0  0.30729606948E+02 -0.25799484697E+02  0.65759847166E+01  0.50528859222E+02  0.29999998091E+02 0.  0.
         12    1    1    2    0    0 -0.30729606948E+02  0.25799484697E+02 -0.65759847166E+01  0.40659140778E+02  0.00000000000E+00 0. -1.
         11    1    3    3    0    0  0.64043559106E+01 -0.95355519363E+01 -0.69771714768E+01  0.13439622295E+02  0.51100000000E-03 0. -1.
        -11    1    3    3    0    0  0.31772430163E+01  0.28335014110E+01  0.64402703898E+01  0.77201480805E+01  0.51100000000E-03 0.  1.
        -12    1    3    3    0    0  0.21148008021E+02 -0.19097434172E+02  0.71128858036E+01  0.29369088846E+02  0.00000000000E+00 0.  1.
</event>
<event>
 7    1  0.5764931E-013  0.5052886E+02  0.7816164E-02  0.1300439E+00
        -11   -1    0    0    0    0  0.00000000000E+00  0.00000000000E+00  0.45593999997E+02  0.45594000000E+02  0.51100000000E-03 0. -1.
         11   -1    0    0    0    0 -0.00000000000E+00 -0.00000000000E+00 -0.45593999997E+02  0.45594000000E+02  0.51100000000E-03 0.  1.
    9900012    2    1    2    0    0  0.33952779635E+02  0.13083094715E+02 -0.18144063638E+02  0.50528860098E+02  0.30000000754E+02 0.  0.
         12    1    1    2    0    0 -0.33952779635E+02 -0.13083094715E+02  0.18144063638E+02  0.40659139902E+02  0.00000000000E+00 0. -1.
         11    1    3    3    0    0  0.15161501211E+02  0.34064612077E+01 -0.14358144124E+02  0.21157301337E+02  0.51100000000E-03 0. -1.
        -11    1    3    3    0    0  0.14389984120E+01 -0.93755100500E-01  0.67084534526E+01  0.68616947203E+01  0.51100000000E-03 0.  1.
        -12    1    3    3    0    0  0.17352280012E+02  0.97703886074E+01 -0.10494372966E+02  0.22509864040E+02  0.00000000000E+00 0.  1.
</event>
<event>
 7    1  0.5764931E-013  0.5052886E+02  0.7816164E-02  0.1300439E+00
        -11   -1    0    0    0    0  0.00000000000E+00  0.00000000000E+00  0.45593999997E+02  0.45594000000E+02  0.51100000000E-03 0.  1.
         11   -1    0    0    0    0 -0.00000000000E+00 -0.00000000000E+00 -0.45593999997E+02  0.45594000000E+02  0.51100000000E-03 0. -1.
    9900012    2    1    2    0    0 -0.20824268581E+02  0.13648593487E+02  0.32143913872E+02  0.50528862464E+02  0.30000007946E+02 0.  0.
         12    1    1    2    0    0  0.20824268581E+02 -0.13648593487E+02 -0.32143913872E+02  0.40659137536E+02  0.00000000000E+00 0. -1.
         11    1    3    3    0    0 -0.33536392686E+01 -0.76956500892E+00 -0.72474566874E+00  0.35163024887E+01  0.51100000000E-03 0. -1.
        -11    1    3    3    0    0 -0.17265868542E+02  0.10370533765E+02  0.36423741674E+02  0.41621474564E+02  0.51100000000E-03 0.  1.
        -12    1    3    3    0    0 -0.20476077130E+00  0.40476247309E+01 -0.35550821335E+01  0.53910854112E+01  0.00000000000E+00 0.  1.
</event>
<event>
 7    1  0.5764931E-013  0.5052887E+02  0.7816164E-02  0.1300439E+00
        -11   -1    0    0    0    0  0.00000000000E+00  0.00000000000E+00  0.45593999997E+02  0.45594000000E+02  0.51100000000E-03 0.  1.
         11   -1    0    0    0    0 -0.00000000000E+00 -0.00000000000E+00 -0.45593999997E+02  0.45594000000E+02  0.51100000000E-03 0. -1.
    9900012    2    1    2    0    0  0.31897109584E+02  0.17813163984E+02  0.17844614930E+02  0.50528871961E+02  0.30000036812E+02 0.  0.
         12    1    1    2    0    0 -0.31897109584E+02 -0.17813163984E+02 -0.17844614930E+02  0.40659128039E+02  0.00000000000E+00 0. -1.
         11    1    3    3    0    0 -0.12861365673E+01  0.15389406288E+01  0.41613374344E+01  0.46194388223E+01  0.51100000000E-03 0. -1.
        -11    1    3    3    0    0  0.29428092465E+02  0.46989626279E+01  0.34319000865E+01  0.29997846829E+02  0.51100000000E-03 0.  1.
        -12    1    3    3    0    0  0.37551536860E+01  0.11575260727E+02  0.10251377409E+02  0.15911586309E+02  0.00000000000E+00 0.  1.
</event>
<event>
 7    1  0.5764931E-013  0.5052883E+02  0.7816164E-02  0.1300439E+00
        -11   -1    0    0    0    0  0.00000000000E+00  0.00000000000E+00  0.45593999997E+02  0.45594000000E+02  0.51100000000E-03 0. -1.
         11   -1    0    0    0    0 -0.00000000000E+00 -0.00000000000E+00 -0.45593999997E+02  0.45594000000E+02  0.51100000000E-03 0.  1.
    9900012    2    1    2    0    0  0.96145852678E+01  0.34350827150E+02 -0.19512773264E+02  0.50528832569E+02  0.29999917076E+02 0.  0.
         12    1    1    2    0    0 -0.96145852678E+01 -0.34350827150E+02  0.19512773264E+02  0.40659167431E+02  0.00000000000E+00 0. -1.
         11    1    3    3    0    0  0.20012322700E+01  0.20835338102E+02 -0.18967130562E+02  0.28246562383E+02  0.51100000000E-03 0.  1.
        -11    1    3    3    0    0  0.72607533774E+01  0.12097484199E+02  0.61774486440E+01  0.15402225020E+02  0.51100000000E-03 0. -1.
         12    1    3    3    0    0  0.35259962048E+00  0.14180048486E+01 -0.67230913454E+01  0.68800451657E+01  0.00000000000E+00 0. -1.
</event>
<event>
 7    1  0.5764931E-013  0.5052885E+02  0.7816164E-02  0.1300439E+00
        -11   -1    0    0    0    0  0.00000000000E+00  0.00000000000E+00  0.45593999997E+02  0.45594000000E+02  0.51100000000E-03 0.  1.
         11   -1    0    0    0    0 -0.00000000000E+00 -0.00000000000E+00 -0.45593999997E+02  0.45594000000E+02  0.51100000000E-03 0. -1.
    9900012    2    1    2    0    0 -0.17037386259E+02  0.36531097586E+02 -0.53265981977E+01  0.50528852570E+02  0.29999977871E+02 0.  0.
         12    1    1    2    0    0  0.17037386259E+02 -0.36531097586E+02  0.53265981977E+01  0.40659147430E+02  0.00000000000E+00 0. -1.
         11    1    3    3    0    0 -0.94070065835E+01  0.10056693200E+02 -0.57281550585E+01  0.14914443054E+02  0.51100000000E-03 0.  1.
        -11    1    3    3    0    0  0.21014563532E+01 -0.31704772100E+01  0.21404608141E+01  0.43645867274E+01  0.51100000000E-03 0. -1.
        -12    1    3    3    0    0 -0.97318360289E+01  0.29644881596E+02 -0.17389039532E+01  0.31249822788E+02  0.00000000000E+00 0.  1.
</event>
<event>
 7    1  0.5764931E-013  0.5052887E+02  0.7816164E-02  0.1300439E+00
        -11   -1    0    0    0    0  0.00000000000E+00  0.00000000000E+00  0.45593999997E+02  0.45594000000E+02  0.51100000000E-03 0.  1.
         11   -1    0    0    0    0 -0.00000000000E+00 -0.00000000000E+00 -0.45593999997E+02  0.45594000000E+02  0.51100000000E-03 0. -1.
    9900012    2    1    2    0    0  0.38037231518E+02 -0.13861166424E+02 -0.37685430737E+01  0.50528870237E+02  0.30000031573E+02 0.  0.
         12    1    1    2    0    0 -0.38037231518E+02  0.13861166424E+02  0.37685430737E+01  0.40659129763E+02  0.00000000000E+00 0. -1.
         11    1    3    3    0    0  0.24641050003E+02 -0.19380142278E+02 -0.23726103644E+01  0.31438838086E+02  0.51100000000E-03 0. -1.
        -11    1    3    3    0    0  0.75346507206E+01  0.23013540036E+01  0.54037819903E+01  0.95534314145E+01  0.51100000000E-03 0.  1.
         12    1    3    3    0    0  0.58615307939E+01  0.32176218501E+01 -0.67997146996E+01  0.95366007369E+01  0.00000000000E+00 0. -1.
</event>
<event>
 7    1  0.5764931E-013  0.5052888E+02  0.7816164E-02  0.1300439E+00
        -11   -1    0    0    0    0  0.00000000000E+00  0.00000000000E+00  0.45593999997E+02  0.45594000000E+02  0.51100000000E-03 0.  1.
         11   -1    0    0    0    0 -0.00000000000E+00 -0.00000000000E+00 -0.45593999997E+02  0.45594000000E+02  0.51100000000E-03 0. -1.
    9900012    2    1    2    0    0 -0.24887070596E+02  0.78387439953E+01  0.31182552067E+02  0.50528883634E+02  0.30000072295E+02 0.  0.
         12    1    1    2    0    0  0.24887070596E+02 -0.78387439953E+01 -0.31182552067E+02  0.40659116366E+02  0.00000000000E+00 0. -1.
         11    1    3    3    0    0 -0.51449080881E+01 -0.21034953132E+01 -0.26548344160E+00  0.55646431590E+01  0.51100000000E-03 0. -1.
        -11    1    3    3    0    0 -0.47617648539E+01  0.14785715792E+02  0.20789230276E+02  0.25951568194E+02  0.51100000000E-03 0.  1.
        -12    1    3    3    0    0 -0.14980397654E+02 -0.48434764831E+01  0.10658805232E+02  0.19012672281E+02  0.00000000000E+00 0.  1.
</event>
<event>
 7    1  0.5764931E-013  0.5052887E+02  0.7816164E-02  0.1300439E+00
        -11   -1    0    0    0    0  0.00000000000E+00  0.00000000000E+00  0.45593999997E+02  0.45594000000E+02  0.51100000000E-03 0.  1.
         11   -1    0    0    0    0 -0.00000000000E+00 -0.00000000000E+00 -0.45593999997E+02  0.45594000000E+02  0.51100000000E-03 0. -1.
    9900012    2    1    2    0    0 -0.20155221067E+02  0.59226671706E+01  0.34811693926E+02  0.50528868718E+02  0.30000026954E+02 0.  0.
         12    1    1    2    0    0  0.20155221067E+02 -0.59226671706E+01 -0.34811693926E+02  0.40659131282E+02  0.00000000000E+00 0. -1.
         11    1    3    3    0    0 -0.89740341948E+01  0.12499370095E+02  0.29597528831E+01  0.15669322892E+02  0.51100000000E-03 0. -1.
        -11    1    3    3    0    0 -0.91447783361E+01 -0.44538860656E+01  0.17784791714E+02  0.20488115786E+02  0.51100000000E-03 0.  1.
        -12    1    3    3    0    0 -0.20364085361E+01 -0.21228168588E+01  0.14067149328E+02  0.14371430039E+02  0.00000000000E+00 0.  1.
</event>
<event>
 7    1  0.5764931E-013  0.5052886E+02  0.7816164E-02  0.1300439E+00
        -11   -1    0    0    0    0  0.00000000000E+00  0.00000000000E+00  0.45593999997E+02  0.45594000000E+02  0.51100000000E-03 0.  1.
         11   -1    0    0    0    0 -0.00000000000E+00 -0.00000000000E+00 -0.45593999997E+02  0.45594000000E+02  0.51100000000E-03 0. -1.
    9900012    2    1    2    0    0 -0.88332687985E+01 -0.33206539195E+02  0.21736257227E+02  0.50528858823E+02  0.29999996879E+02 0.  0.
         12    1    1    2    0    0  0.88332687985E+01  0.33206539195E+02 -0.21736257227E+02  0.40659141177E+02  0.00000000000E+00 0. -1.
         11    1    3    3    0    0  0.26961680590E+01  0.41807840121E+01  0.25075589317E+01  0.55710079173E+01  0.51100000000E-03 0. -1.
        -11    1    3    3    0    0 -0.71600680197E+01 -0.22519951834E+02  0.55169703050E+01  0.24266268074E+02  0.51100000000E-03 0.  1.
         12    1    3    3    0    0 -0.43693688377E+01 -0.14867371373E+02  0.13711727991E+02  0.20691582832E+02  0.00000000000E+00 0. -1.
</event>
<event>
 7    1  0.5764931E-013  0.5052885E+02  0.7816164E-02  0.1300439E+00
        -11   -1    0    0    0    0  0.00000000000E+00  0.00000000000E+00  0.45593999997E+02  0.45594000000E+02  0.51100000000E-03 0.  1.
         11   -1    0    0    0    0 -0.00000000000E+00 -0.00000000000E+00 -0.45593999997E+02  0.45594000000E+02  0.51100000000E-03 0. -1.
    9900012    2    1    2    0    0 -0.33257945308E+02 -0.17641464945E+02  0.15357548613E+02  0.50528849604E+02  0.29999968857E+02 0.  0.
         12    1    1    2    0    0  0.33257945308E+02  0.17641464945E+02 -0.15357548613E+02  0.40659150396E+02  0.00000000000E+00 0. -1.
         11    1    3    3    0    0 -0.96247146921E+01  0.42185402078E+01  0.65860952837E+00  0.10529244093E+02  0.51100000000E-03 0. -1.
        -11    1    3    3    0    0  0.15923729940E+01 -0.59523490702E+01  0.67426570840E+01  0.91339770100E+01  0.51100000000E-03 0.  1.
        -12    1    3    3    0    0 -0.25225603610E+02 -0.15907656083E+02  0.79562820002E+01  0.30865628502E+02  0.00000000000E+00 0.  1.
</event>
<event>
 7    1  0.5764931E-013  0.5052889E+02  0.7816164E-02  0.1300439E+00
        -11   -1    0    0    0    0  0.00000000000E+00  0.00000000000E+00  0.45593999997E+02  0.45594000000E+02  0.51100000000E-03 0. -1.
         11   -1    0    0    0    0 -0.00000000000E+00 -0.00000000000E+00 -0.45593999997E+02  0.45594000000E+02  0.51100000000E-03 0.  1.
    9900012    2    1    2    0    0  0.33909967988E+02 -0.65981752981E+00 -0.22424133945E+02  0.50528891902E+02  0.30000097426E+02 0.  0.
         12    1    1    2    0    0 -0.33909967988E+02  0.65981752981E+00  0.22424133945E+02  0.40659108098E+02  0.00000000000E+00 0. -1.
         11    1    3    3    0    0  0.14550867517E+02  0.95704608379E+01  0.26421384300E+00  0.17418130651E+02  0.51100000000E-03 0. -1.
        -11    1    3    3    0    0  0.15062036618E+02 -0.73129027484E+01 -0.10250449456E+02  0.19631994499E+02  0.51100000000E-03 0.  1.
         12    1    3    3    0    0  0.42970638525E+01 -0.29173756193E+01 -0.12437898331E+02  0.13478766752E+02  0.00000000000E+00 0. -1.
</event>
<event>
 7    1  0.5764931E-013  0.5052886E+02  0.7816164E-02  0.1300439E+00
        -11   -1    0    0    0    0  0.00000000000E+00  0.00000000000E+00  0.45593999997E+02  0.45594000000E+02  0.51100000000E-03 0.  1.
         11   -1    0    0    0    0 -0.00000000000E+00 -0.00000000000E+00 -0.45593999997E+02  0.45594000000E+02  0.51100000000E-03 0. -1.
    9900012    2    1    2    0    0 -0.59164049989E+01 -0.38613601032E+02 -0.11276147402E+02  0.50528861630E+02  0.30000005410E+02 0.  0.
         12    1    1    2    0    0  0.59164049989E+01  0.38613601032E+02  0.11276147402E+02  0.40659138370E+02  0.00000000000E+00 0. -1.
         11    1    3    3    0    0 -0.77231688208E+01 -0.11540975186E+02 -0.55498745171E+00  0.13897821995E+02  0.51100000000E-03 0. -1.
        -11    1    3    3    0    0  0.98808471306E+01 -0.12026906157E+02 -0.11783879353E+02  0.19522741216E+02  0.51100000000E-03 0.  1.
        -12    1    3    3    0    0 -0.80740833088E+01 -0.15045719690E+02  0.10627194027E+01  0.17108298419E+02  0.00000000000E+00 0.  1.
</event>
<event>
 7    1  0.5764931E-013  0.5052887E+02  0.7816164E-02  0.1300439E+00
        -11   -1    0    0    0    0  0.00000000000E+00  0.00000000000E+00  0.45593999997E+02  0.45594000000E+02  0.51100000000E-03 0. -1.
         11   -1    0    0    0    0 -0.00000000000E+00 -0.00000000000E+00 -0.45593999997E+02  0.45594000000E+02  0.51100000000E-03 0.  1.
    9900012    2    1    2    0    0 -0.35564229302E+02  0.19313433237E+02  0.39168670319E+01  0.50528868719E+02  0.30000026957E+02 0.  0.
         12    1    1    2    0    0  0.35564229302E+02 -0.19313433237E+02 -0.39168670319E+01  0.40659131281E+02  0.00000000000E+00 0. -1.
         11    1    3    3    0    0 -0.43573008555E+00 -0.51312741689E+01  0.40462743094E+00  0.51656131217E+01  0.51100000000E-03 0. -1.
        -11    1    3    3    0    0 -0.26180297378E+02  0.24896661040E+02  0.13861739980E+01  0.36154850025E+02  0.51100000000E-03 0.  1.
        -12    1    3    3    0    0 -0.89482018384E+01 -0.45195363421E+00  0.21260656030E+01  0.92084055719E+01  0.00000000000E+00 0.  1.
</event>
<event>
 7    1  0.5764931E-013  0.5052886E+02  0.7816164E-02  0.1300439E+00
        -11   -1    0    0    0    0  0.00000000000E+00  0.00000000000E+00  0.45593999997E+02  0.45594000000E+02  0.51100000000E-03 0. -1.
         11   -1    0    0    0    0 -0.00000000000E+00 -0.00000000000E+00 -0.45593999997E+02  0.45594000000E+02  0.51100000000E-03 0.  1.
    9900012    2    1    2    0    0 -0.85944621721E+00 -0.30351796111E+01 -0.40536584667E+02  0.50528860074E+02  0.30000000679E+02 0.  0.
         12    1    1    2    0    0  0.85944621721E+00  0.30351796111E+01  0.40536584667E+02  0.40659139926E+02  0.00000000000E+00 0. -1.
         11    1    3    3    0    0 -0.71372444355E+01 -0.13548499810E+02 -0.12874733270E+02  0.20006520494E+02  0.51100000000E-03 0. -1.
        -11    1    3    3    0    0  0.40644918316E+01  0.53689364245E+01 -0.10536448885E+02  0.12504492294E+02  0.51100000000E-03 0.  1.
         12    1    3    3    0    0  0.22133063867E+01  0.51443837744E+01 -0.17125402512E+02  0.18017847285E+02  0.00000000000E+00 0. -1.
</event>
<event>
 7    1  0.5764931E-013  0.5052886E+02  0.7816164E-02  0.1300439E+00
        -11   -1    0    0    0    0  0.00000000000E+00  0.00000000000E+00  0.45593999997E+02  0.45594000000E+02  0.51100000000E-03 0.  1.
         11   -1    0    0    0    0 -0.00000000000E+00 -0.00000000000E+00 -0.45593999997E+02  0.45594000000E+02  0.51100000000E-03 0. -1.
    9900012    2    1    2    0    0 -0.89192163431E+01 -0.13961080184E+02  0.37130868898E+02  0.50528860742E+02  0.30000002711E+02 0.  0.
         12    1    1    2    0    0  0.89192163431E+01  0.13961080184E+02 -0.37130868898E+02  0.40659139258E+02  0.00000000000E+00 0. -1.
         11    1    3    3    0    0  0.62389293815E+01 -0.12643239037E+02  0.61494524392E+01  0.15381531092E+02  0.51100000000E-03 0. -1.
        -11    1    3    3    0    0 -0.13890830216E+01 -0.50705553107E+00  0.95313228660E+01  0.96453498013E+01  0.51100000000E-03 0.  1.
         12    1    3    3    0    0 -0.13769062703E+02 -0.81078561518E+00  0.21450093593E+02  0.25501979848E+02  0.00000000000E+00 0. -1.
</event>
<event>
 7    1  0.5764931E-013  0.5052885E+02  0.7816164E-02  0.1300439E+00
        -11   -1    0    0    0    0  0.00000000000E+00  0.00000000000E+00  0.45593999997E+02  0.45594000000E+02  0.51100000000E-03 0.  1.
         11   -1    0    0    0    0 -0.00000000000E+00 -0.00000000000E+00 -0.45593999997E+02  0.45594000000E+02  0.51100000000E-03 0. -1.
    9900012    2    1    2    0    0 -0.15269748379E+01  0.21142086080E+02  0.34696494533E+02  0.50528853564E+02  0.29999980894E+02 0.  0.
         12    1    1    2    0    0  0.15269748379E+01 -0.21142086080E+02 -0.34696494533E+02  0.40659146436E+02  0.00000000000E+00 0. -1.
         11    1    3    3    0    0  0.64203270807E+01  0.46801145789E+01  0.14234390709E+02  0.16301593524E+02  0.51100000000E-03 0. -1.
        -11    1    3    3    0    0 -0.12475369258E+02  0.13359174916E+02  0.21926635794E+02  0.28546098683E+02  0.51100000000E-03 0.  1.
        -12    1    3    3    0    0  0.45280673391E+01  0.31027965853E+01 -0.14645319693E+01  0.56811613572E+01  0.00000000000E+00 0.  1.
</event>
<event>
 7    1  0.5764931E-013  0.5052886E+02  0.7816164E-02  0.1300439E+00
        -11   -1    0    0    0    0  0.00000000000E+00  0.00000000000E+00  0.45593999997E+02  0.45594000000E+02  0.51100000000E-03 0.  1.
         11   -1    0    0    0    0 -0.00000000000E+00 -0.00000000000E+00 -0.45593999997E+02  0.45594000000E+02  0.51100000000E-03 0. -1.
    9900012    2    1    2    0    0  0.19637776658E+02 -0.14726082157E+02  0.32413981319E+02  0.50528856468E+02  0.29999989721E+02 0.  0.
         12    1    1    2    0    0 -0.19637776658E+02  0.14726082157E+02 -0.32413981319E+02  0.40659143532E+02  0.00000000000E+00 0. -1.
         11    1    3    3    0    0 -0.33010018889E+01  0.35329520014E+01  0.76506676580E+01  0.90504739760E+01  0.51100000000E-03 0. -1.
        -11    1    3    3    0    0  0.22608444576E+02 -0.12610716049E+02  0.14278334512E+02  0.29564214215E+02  0.51100000000E-03 0.  1.
        -12    1    3    3    0    0  0.33033397102E+00 -0.56483181094E+01  0.10484979149E+02  0.11914168278E+02  0.00000000000E+00 0.  1.
</event>
<event>
 7    1  0.5764931E-013  0.5052886E+02  0.7816164E-02  0.1300439E+00
        -11   -1    0    0    0    0  0.00000000000E+00  0.00000000000E+00  0.45593999997E+02  0.45594000000E+02  0.51100000000E-03 0.  1.
         11   -1    0    0    0    0 -0.00000000000E+00 -0.00000000000E+00 -0.45593999997E+02  0.45594000000E+02  0.51100000000E-03 0. -1.
    9900012    2    1    2    0    0 -0.37193403367E+02  0.16389827384E+02  0.10909935406E+01  0.50528856347E+02  0.29999989353E+02 0.  0.
         12    1    1    2    0    0  0.37193403367E+02 -0.16389827384E+02 -0.10909935406E+01  0.40659143653E+02  0.00000000000E+00 0. -1.
         11    1    3    3    0    0 -0.87192133736E+01 -0.34049307235E+01  0.10089907829E+02  0.13763156445E+02  0.51100000000E-03 0. -1.
        -11    1    3    3    0    0 -0.12079438512E+02  0.13419436453E+02 -0.47200706273E+01  0.18662078568E+02  0.51100000000E-03 0.  1.
         12    1    3    3    0    0 -0.16394751482E+02  0.63753216541E+01 -0.42788436606E+01  0.18103621334E+02  0.00000000000E+00 0. -1.
</event>
<event>
 7    1  0.5764931E-013  0.5052887E+02  0.7816164E-02  0.1300439E+00
        -11   -1    0    0    0    0  0.00000000000E+00  0.00000000000E+00  0.45593999997E+02  0.45594000000E+02  0.51100000000E-03 0.  1.
         11   -1    0    0    0    0 -0.00000000000E+00 -0.00000000000E+00 -0.45593999997E+02  0.45594000000E+02  0.51100000000E-03 0. -1.
    9900012    2    1    2    0    0  0.32808065557E+02 -0.23909958997E+02  0.22604838442E+01  0.50528867053E+02  0.30000021893E+02 0.  0.
         12    1    1    2    0    0 -0.32808065557E+02  0.23909958997E+02 -0.22604838442E+01  0.40659132947E+02  0.00000000000E+00 0. -1.
         11    1    3    3    0    0  0.11573152407E+01 -0.60146119098E+01 -0.20442929533E+01  0.64570944652E+01  0.51100000000E-03 0. -1.
        -11    1    3    3    0    0  0.21278382376E+02  0.19288824327E+01  0.46362644625E+00  0.21370659646E+02  0.51100000000E-03 0.  1.
        -12    1    3    3    0    0  0.10372367941E+02 -0.19824229520E+02  0.38411503513E+01  0.22701112941E+02  0.00000000000E+00 0.  1.
</event>
<event>
 7    1  0.5764931E-013  0.5052885E+02  0.7816164E-02  0.1300439E+00
        -11   -1    0    0    0    0  0.00000000000E+00  0.00000000000E+00  0.45593999997E+02  0.45594000000E+02  0.51100000000E-03 0.  1.
         11   -1    0    0    0    0 -0.00000000000E+00 -0.00000000000E+00 -0.45593999997E+02  0.45594000000E+02  0.51100000000E-03 0. -1.
    9900012    2    1    2    0    0 -0.24386981800E+02  0.30550246286E+02  0.11185882609E+02  0.50528850978E+02  0.29999973034E+02 0.  0.
         12    1    1    2    0    0  0.24386981800E+02 -0.30550246286E+02 -0.11185882609E+02  0.40659149022E+02  0.00000000000E+00 0. -1.
         11    1    3    3    0    0 -0.13673181540E+02  0.94267968718E+01 -0.79893399912E+01  0.18429594310E+02  0.51100000000E-03 0. -1.
        -11    1    3    3    0    0 -0.12629498269E+02  0.18530265195E+02  0.15802479646E+02  0.27433434308E+02  0.51100000000E-03 0.  1.
        -12    1    3    3    0    0  0.19156980090E+01  0.25931842188E+01  0.33727429545E+01  0.46658223597E+01  0.00000000000E+00 0.  1.
</event>
<event>
 7    1  0.5764931E-013  0.5052885E+02  0.7816164E-02  0.1300439E+00
        -11   -1    0    0    0    0  0.00000000000E+00  0.00000000000E+00  0.45593999997E+02  0.45594000000E+02  0.51100000000E-03 0.  1.
         11   -1    0    0    0    0 -0.00000000000E+00 -0.00000000000E+00 -0.45593999997E+02  0.45594000000E+02  0.51100000000E-03 0. -1.
    9900012    2    1    2    0    0  0.17957425466E+02 -0.27422932597E+02  0.24055772312E+02  0.50528849208E+02  0.29999967653E+02 0.  0.
         12    1    1    2    0    0 -0.17957425466E+02  0.27422932597E+02 -0.24055772312E+02  0.40659150792E+02  0.00000000000E+00 0. -1.
         11    1    3    3    0    0 -0.15410592282E+01  0.45783329846E+01  0.78403329653E+01  0.92090617182E+01  0.51100000000E-03 0.  1.
        -11    1    3    3    0    0  0.19523565360E+02 -0.28813744247E+02  0.15141577795E+02  0.37956143644E+02  0.51100000000E-03 0. -1.
        -12    1    3    3    0    0 -0.25080665454E-01 -0.31875213337E+01  0.10738615522E+01  0.33636438465E+01  0.00000000000E+00 0.  1.
</event>
<event>
 7    1  0.5764931E-013  0.5052888E+02  0.7816164E-02  0.1300439E+00
        -11   -1    0    0    0    0  0.00000000000E+00  0.00000000000E+00  0.45593999997E+02  0.45594000000E+02  0.51100000000E-03 0.  1.
         11   -1    0    0    0    0 -0.00000000000E+00 -0.00000000000E+00 -0.45593999997E+02  0.45594000000E+02  0.51100000000E-03 0. -1.
    9900012    2    1    2    0    0  0.17176438203E+02 -0.72159111350E+01  0.36139520653E+02  0.50528876105E+02  0.30000049409E+02 0.  0.
         12    1    1    2    0    0 -0.17176438203E+02  0.72159111350E+01 -0.36139520653E+02  0.40659123895E+02  0.00000000000E+00 0. -1.
         11    1    3    3    0    0 -0.55500432260E+01  0.12448729180E+01  0.33269843601E+01  0.65895002532E+01  0.51100000000E-03 0. -1.
        -11    1    3    3    0    0  0.20433000437E+02 -0.98430291479E+01  0.18189546965E+02  0.29073223914E+02  0.51100000000E-03 0.  1.
         12    1    3    3    0    0  0.22934809919E+01  0.13822450949E+01  0.14622989328E+02  0.14866151938E+02  0.00000000000E+00 0. -1.
</event>
<event>
 7    1  0.5764931E-013  0.5052886E+02  0.7816164E-02  0.1300439E+00
        -11   -1    0    0    0    0  0.00000000000E+00  0.00000000000E+00  0.45593999997E+02  0.45594000000E+02  0.51100000000E-03 0. -1.
         11   -1    0    0    0    0 -0.00000000000E+00 -0.00000000000E+00 -0.45593999997E+02  0.45594000000E+02  0.51100000000E-03 0.  1.
    9900012    2    1    2    0    0  0.29160302859E+02  0.18645367868E+02 -0.21335250241E+02  0.50528857010E+02  0.29999991369E+02 0.  0.
         12    1    1    2    0    0 -0.29160302859E+02 -0.18645367868E+02  0.21335250241E+02  0.40659142990E+02  0.00000000000E+00 0. -1.
         11    1    3    3    0    0  0.23071711729E+02  0.11799140682E+02 -0.24784227853E+02  0.35857796272E+02  0.51100000000E-03 0. -1.
        -11    1    3    3    0    0  0.67403549967E+01 -0.61673943174E+00  0.16287194071E+01  0.69617153185E+01  0.51100000000E-03 0.  1.
         12    1    3    3    0    0 -0.65176386586E+00  0.74629666180E+01  0.18202582046E+01  0.77093454203E+01  0.00000000000E+00 0. -1.
</event>
<event>
 7    1  0.5764931E-013  0.5052886E+02  0.7816164E-02  0.1300439E+00
        -11   -1    0    0    0    0  0.00000000000E+00  0.00000000000E+00  0.45593999997E+02  0.45594000000E+02  0.51100000000E-03 0. -1.
         11   -1    0    0    0    0 -0.00000000000E+00 -0.00000000000E+00 -0.45593999997E+02  0.45594000000E+02  0.51100000000E-03 0.  1.
    9900012    2    1    2    0    0 -0.27267986154E+02 -0.28852351706E+02 -0.87843459067E+01  0.50528855877E+02  0.29999987923E+02 0.  0.
         12    1    1    2    0    0  0.27267986154E+02  0.28852351706E+02  0.87843459067E+01  0.40659144123E+02  0.00000000000E+00 0. -1.
         11    1    3    3    0    0  0.38569488147E+01 -0.68667231776E+01 -0.70029517718E+01  0.10538940893E+02  0.51100000000E-03 0. -1.
        -11    1    3    3    0    0 -0.23400452224E+02 -0.11648967844E+02  0.28171381685E+01  0.26290984839E+02  0.51100000000E-03 0.  1.
        -12    1    3    3    0    0 -0.77244827445E+01 -0.10336660684E+02 -0.45985323035E+01  0.13698930145E+02  0.00000000000E+00 0.  1.
</event>
<event>
 7    1  0.5764931E-013  0.5052886E+02  0.7816164E-02  0.1300439E+00
        -11   -1    0    0    0    0  0.00000000000E+00  0.00000000000E+00  0.45593999997E+02  0.45594000000E+02  0.51100000000E-03 0. -1.
         11   -1    0    0    0    0 -0.00000000000E+00 -0.00000000000E+00 -0.45593999997E+02  0.45594000000E+02  0.51100000000E-03 0.  1.
    9900012    2    1    2    0    0  0.80605260802E+01  0.25633285037E+02 -0.30514394974E+02  0.50528859784E+02  0.29999999800E+02 0.  0.
         12    1    1    2    0    0 -0.80605260802E+01 -0.25633285037E+02  0.30514394974E+02  0.40659140216E+02  0.00000000000E+00 0. -1.
         11    1    3    3    0    0  0.11558851103E+01  0.20660611740E+02 -0.71132865648E+01  0.21881402923E+02  0.51100000000E-03 0. -1.
        -11    1    3    3    0    0  0.19289474265E+01  0.63139724445E+01 -0.22458321432E+02  0.23408615679E+02  0.51100000000E-03 0.  1.
         12    1    3    3    0    0  0.49756935434E+01 -0.13412991475E+01 -0.94278697643E+00  0.52388411814E+01  0.00000000000E+00 0. -1.
</event>
<event>
 7    1  0.5764931E-013  0.5052886E+02  0.7816164E-02  0.1300439E+00
        -11   -1    0    0    0    0  0.00000000000E+00  0.00000000000E+00  0.45593999997E+02  0.45594000000E+02  0.51100000000E-03 0. -1.
         11   -1    0    0    0    0 -0.00000000000E+00 -0.00000000000E+00 -0.45593999997E+02  0.45594000000E+02  0.51100000000E-03 0.  1.
    9900012    2    1    2    0    0  0.12525274597E+02 -0.35853037065E+02  0.14520432227E+02  0.50528859298E+02  0.29999998323E+02 0.  0.
         12    1    1    2    0    0 -0.12525274597E+02  0.35853037065E+02 -0.14520432227E+02  0.40659140702E+02  0.00000000000E+00 0. -1.
         11    1    3    3    0    0 -0.29459551647E+01 -0.19564822437E+01 -0.80298023190E-01  0.35373609706E+01  0.51100000000E-03 0. -1.
        -11    1    3    3    0    0  0.17976438093E+02 -0.28584635348E+02  0.19802947863E+02  0.39145759015E+02  0.51100000000E-03 0.  1.
        -12    1    3    3    0    0 -0.25052083320E+01 -0.53119194732E+01 -0.52022176127E+01  0.78457393130E+01  0.00000000000E+00 0.  1.
</event>
<event>
 7    1  0.5764931E-013  0.5052885E+02  0.7816164E-02  0.1300439E+00
        -11   -1    0    0    0    0  0.00000000000E+00  0.00000000000E+00  0.45593999997E+02  0.45594000000E+02  0.51100000000E-03 0. -1.
         11   -1    0    0    0    0 -0.00000000000E+00 -0.00000000000E+00 -0.45593999997E+02  0.45594000000E+02  0.51100000000E-03 0.  1.
    9900012    2    1    2    0    0 -0.38137895810E+02 -0.13594730871E+02  0.37216384747E+01  0.50528851002E+02  0.29999973106E+02 0.  0.
         12    1    1    2    0    0  0.38137895810E+02  0.13594730871E+02 -0.37216384747E+01  0.40659148998E+02  0.00000000000E+00 0. -1.
         11    1    3    3    0    0 -0.14675787168E+02 -0.15199632404E+02 -0.67030606170E+01  0.22166158353E+02  0.51100000000E-03 0.  1.
        -11    1    3    3    0    0 -0.23109964468E+02 -0.12048562197E+01  0.75858344378E+01  0.24352967388E+02  0.51100000000E-03 0. -1.
        -12    1    3    3    0    0 -0.35214417363E+00  0.28097577525E+01  0.28388646539E+01  0.40097252611E+01  0.00000000000E+00 0.  1.
</event>
<event>
 7    1  0.5764931E-013  0.5052886E+02  0.7816164E-02  0.1300439E+00
        -11   -1    0    0    0    0  0.00000000000E+00  0.00000000000E+00  0.45593999997E+02  0.45594000000E+02  0.51100000000E-03 0. -1.
         11   -1    0    0    0    0 -0.00000000000E+00 -0.00000000000E+00 -0.45593999997E+02  0.45594000000E+02  0.51100000000E-03 0.  1.
    9900012    2    1    2    0    0  0.23251602873E+00  0.39288372519E+02 -0.10465918868E+02  0.50528859126E+02  0.29999997799E+02 0.  0.
         12    1    1    2    0    0 -0.23251602873E+00 -0.39288372519E+02  0.10465918868E+02  0.40659140874E+02  0.00000000000E+00 0. -1.
         11    1    3    3    0    0  0.26029992711E+01  0.10325511164E+01  0.15497856707E-01  0.28003584516E+01  0.51100000000E-03 0. -1.
        -11    1    3    3    0    0 -0.17864016931E+01  0.42282044885E+02 -0.10709247217E+02  0.43653757305E+02  0.51100000000E-03 0.  1.
        -12    1    3    3    0    0 -0.58408154927E+00 -0.40262234825E+01  0.22783049261E+00  0.40747433687E+01  0.00000000000E+00 0.  1.
</event>
<event>
 7    1  0.5764931E-013  0.5052886E+02  0.7816164E-02  0.1300439E+00
        -11   -1    0    0    0    0  0.00000000000E+00  0.00000000000E+00  0.45593999997E+02  0.45594000000E+02  0.51100000000E-03 0.  1.
         11   -1    0    0    0    0 -0.00000000000E+00 -0.00000000000E+00 -0.45593999997E+02  0.45594000000E+02  0.51100000000E-03 0. -1.
    9900012    2    1    2    0    0 -0.30716392934E+02 -0.25526379068E+02  0.76205568431E+01  0.50528859456E+02  0.29999998801E+02 0.  0.
         12    1    1    2    0    0  0.30716392934E+02  0.25526379068E+02 -0.76205568431E+01  0.40659140544E+02  0.00000000000E+00 0. -1.
         11    1    3    3    0    0 -0.15316926605E+01 -0.12547687427E+02  0.72463339153E+00  0.12661581101E+02  0.51100000000E-03 0. -1.
        -11    1    3    3    0    0 -0.30668404340E+02 -0.15342224907E+02  0.54434123468E+01  0.34721256142E+02  0.51100000000E-03 0.  1.
         12    1    3    3    0    0  0.14837040661E+01  0.23635332653E+01  0.14525111048E+01  0.31460222125E+01  0.00000000000E+00 0. -1.
</event>
<event>
 7    1  0.5764931E-013  0.5052889E+02  0.7816164E-02  0.1300439E+00
        -11   -1    0    0    0    0  0.00000000000E+00  0.00000000000E+00  0.45593999997E+02  0.45594000000E+02  0.51100000000E-03 0.  1.
         11   -1    0    0    0    0 -0.00000000000E+00 -0.00000000000E+00 -0.45593999997E+02  0.45594000000E+02  0.51100000000E-03 0. -1.
    9900012    2    1    2    0    0  0.30218192329E+02  0.17817716949E+02  0.20556095445E+02  0.50528889768E+02  0.30000090940E+02 0.  0.
         12    1    1    2    0    0 -0.30218192329E+02 -0.17817716949E+02 -0.20556095445E+02  0.40659110232E+02  0.00000000000E+00 0. -1.
         11    1    3    3    0    0  0.15118130800E+01  0.31223374234E+01 -0.16836913504E+01  0.38560843609E+01  0.51100000000E-03 0. -1.
        -11    1    3    3    0    0  0.11009393485E+02 -0.18861989059E+01  0.19225508871E+02  0.22234762936E+02  0.51100000000E-03 0.  1.
        -12    1    3    3    0    0  0.17696985764E+02  0.16581578432E+02  0.30142779239E+01  0.24438042471E+02  0.00000000000E+00 0.  1.
</event>
<event>
 7    1  0.5764931E-013  0.5052886E+02  0.7816164E-02  0.1300439E+00
        -11   -1    0    0    0    0  0.00000000000E+00  0.00000000000E+00  0.45593999997E+02  0.45594000000E+02  0.51100000000E-03 0. -1.
         11   -1    0    0    0    0 -0.00000000000E+00 -0.00000000000E+00 -0.45593999997E+02  0.45594000000E+02  0.51100000000E-03 0.  1.
    9900012    2    1    2    0    0 -0.12628873585E+02  0.38068499400E+02 -0.66683400578E+01  0.50528857686E+02  0.29999993422E+02 0.  0.
         12    1    1    2    0    0  0.12628873585E+02 -0.38068499400E+02  0.66683400578E+01  0.40659142314E+02  0.00000000000E+00 0. -1.
         11    1    3    3    0    0  0.10780217661E+01  0.90596443099E+01  0.38044865957E+01  0.98850090778E+01  0.51100000000E-03 0. -1.
        -11    1    3    3    0    0 -0.11954411365E+02  0.15480133219E+02 -0.16633786478E+02  0.25675383706E+02  0.51100000000E-03 0.  1.
        -12    1    3    3    0    0 -0.17524839865E+01  0.13528721871E+02  0.61609598249E+01  0.14968464902E+02  0.00000000000E+00 0.  1.
</event>
<event>
 7    1  0.5764931E-013  0.5052885E+02  0.7816164E-02  0.1300439E+00
        -11   -1    0    0    0    0  0.00000000000E+00  0.00000000000E+00  0.45593999997E+02  0.45594000000E+02  0.51100000000E-03 0. -1.
         11   -1    0    0    0    0 -0.00000000000E+00 -0.00000000000E+00 -0.45593999997E+02  0.45594000000E+02  0.51100000000E-03 0.  1.
    9900012    2    1    2    0    0  0.83411074526E+01  0.37714883718E+02  0.12695655279E+02  0.50528853546E+02  0.29999980838E+02 0.  0.
         12    1    1    2    0    0 -0.83411074526E+01 -0.37714883718E+02 -0.12695655279E+02  0.40659146454E+02  0.00000000000E+00 0. -1.
         11    1    3    3    0    0 -0.58418600315E+00  0.18624662007E+02 -0.58383946863E+01  0.19527062271E+02  0.51100000000E-03 0. -1.
        -11    1    3    3    0    0  0.41964396170E+01  0.16406604496E+01  0.10085357169E+02  0.11046098934E+02  0.51100000000E-03 0.  1.
        -12    1    3    3    0    0  0.47288538387E+01  0.17449561262E+02  0.84486927959E+01  0.19955692341E+02  0.00000000000E+00 0.  1.
</event>
<event>
 7    1  0.5764931E-013  0.5052886E+02  0.7816164E-02  0.1300439E+00
        -11   -1    0    0    0    0  0.00000000000E+00  0.00000000000E+00  0.45593999997E+02  0.45594000000E+02  0.51100000000E-03 0.  1.
         11   -1    0    0    0    0 -0.00000000000E+00 -0.00000000000E+00 -0.45593999997E+02  0.45594000000E+02  0.51100000000E-03 0. -1.
    9900012    2    1    2    0    0 -0.20136444353E+02  0.16233119634E+02  0.31371565362E+02  0.50528859853E+02  0.30000000008E+02 0.  0.
         12    1    1    2    0    0  0.20136444353E+02 -0.16233119634E+02 -0.31371565362E+02  0.40659140147E+02  0.00000000000E+00 0. -1.
         11    1    3    3    0    0 -0.75222673969E+01  0.18822851589E+02  0.12077677410E+02  0.23595646645E+02  0.51100000000E-03 0. -1.
        -11    1    3    3    0    0 -0.94157390324E+00 -0.35930992108E+01  0.13229487023E+02  0.13741042555E+02  0.51100000000E-03 0.  1.
         12    1    3    3    0    0 -0.11672603053E+02  0.10033672558E+01  0.60644009297E+01  0.13192170652E+02  0.00000000000E+00 0. -1.
</event>
<event>
 7    1  0.5764931E-013  0.5052886E+02  0.7816164E-02  0.1300439E+00
        -11   -1    0    0    0    0  0.00000000000E+00  0.00000000000E+00  0.45593999997E+02  0.45594000000E+02  0.51100000000E-03 0.  1.
         11   -1    0    0    0    0 -0.00000000000E+00 -0.00000000000E+00 -0.45593999997E+02  0.45594000000E+02  0.51100000000E-03 0. -1.
    9900012    2    1    2    0    0  0.14039290420E+02 -0.35388814754E+02  0.14272202186E+02  0.50528860309E+02  0.30000001394E+02 0.  0.
         12    1    1    2    0    0 -0.14039290420E+02  0.35388814754E+02 -0.14272202186E+02  0.40659139691E+02  0.00000000000E+00 0. -1.
         11    1    3    3    0    0  0.64018933850E+00  0.29012409595E+01 -0.26710847317E+00  0.29830167099E+01  0.51100000000E-03 0. -1.
        -11    1    3    3    0    0  0.15129341298E+02 -0.39719666281E+02  0.12017256187E+02  0.44169710257E+02  0.51100000000E-03 0.  1.
        -12    1    3    3    0    0 -0.17302402168E+01  0.14296105680E+01  0.25220544720E+01  0.33761333421E+01  0.00000000000E+00 0.  1.
</event>
<event>
 7    1  0.5764931E-013  0.5052886E+02  0.7816164E-02  0.1300439E+00
        -11   -1    0    0    0    0  0.00000000000E+00  0.00000000000E+00  0.45593999997E+02  0.45594000000E+02  0.51100000000E-03 0.  1.
         11   -1    0    0    0    0 -0.00000000000E+00 -0.00000000000E+00 -0.45593999997E+02  0.45594000000E+02  0.51100000000E-03 0. -1.
    9900012    2    1    2    0    0  0.21983253806E+02  0.33962538398E+02  0.40556396388E+01  0.50528859881E+02  0.30000000094E+02 0.  0.
         12    1    1    2    0    0 -0.21983253806E+02 -0.33962538398E+02 -0.40556396388E+01  0.40659140119E+02  0.00000000000E+00 0. -1.
         11    1    3    3    0    0  0.77018271701E+01  0.40792374441E+01  0.10107220948E+02  0.13345944531E+02  0.51100000000E-03 0. -1.
        -11    1    3    3    0    0  0.11263014523E+02  0.24046588739E+02  0.21884671001E+01  0.26643635537E+02  0.51100000000E-03 0.  1.
         12    1    3    3    0    0  0.30184121125E+01  0.58367122152E+01 -0.82400484094E+01  0.10539279812E+02  0.00000000000E+00 0. -1.
</event>
<event>
 7    1  0.5764931E-013  0.5052887E+02  0.7816164E-02  0.1300439E+00
        -11   -1    0    0    0    0  0.00000000000E+00  0.00000000000E+00  0.45593999997E+02  0.45594000000E+02  0.51100000000E-03 0.  1.
         11   -1    0    0    0    0 -0.00000000000E+00 -0.00000000000E+00 -0.45593999997E+02  0.45594000000E+02  0.51100000000E-03 0. -1.
    9900012    2    1    2    0    0 -0.26217556091E+02  0.20669836654E+02  0.23206949712E+02  0.50528869296E+02  0.30000028711E+02 0.  0.
         12    1    1    2    0    0  0.26217556091E+02 -0.20669836654E+02 -0.23206949712E+02  0.40659130704E+02  0.00000000000E+00 0. -1.
         11    1    3    3    0    0 -0.13253974584E+02  0.22423382070E+02  0.19083591401E+02  0.32290236400E+02  0.51100000000E-03 0. -1.
        -11    1    3    3    0    0 -0.89855025089E+01 -0.63274518456E+01  0.50707169891E+01  0.12103225737E+02  0.51100000000E-03 0.  1.
         12    1    3    3    0    0 -0.39780789984E+01  0.45739064295E+01 -0.94735867803E+00  0.61354071591E+01  0.00000000000E+00 0. -1.
</event>
<event>
 7    1  0.5764931E-013  0.5052883E+02  0.7816164E-02  0.1300439E+00
        -11   -1    0    0    0    0  0.00000000000E+00  0.00000000000E+00  0.45593999997E+02  0.45594000000E+02  0.51100000000E-03 0. -1.
         11   -1    0    0    0    0 -0.00000000000E+00 -0.00000000000E+00 -0.45593999997E+02  0.45594000000E+02  0.51100000000E-03 0.  1.
    9900012    2    1    2    0    0 -0.27083342610E+02  0.21716408146E+02  0.21167393633E+02  0.50528826584E+02  0.29999898884E+02 0.  0.
         12    1    1    2    0    0  0.27083342610E+02 -0.21716408146E+02 -0.21167393633E+02  0.40659173416E+02  0.00000000000E+00 0. -1.
         11    1    3    3    0    0  0.60139994978E+00 -0.14359366085E+01  0.46272020323E+01  0.48820686960E+01  0.51100000000E-03 0. -1.
        -11    1    3    3    0    0 -0.21610052032E+02  0.22795006140E+02  0.39430126936E+01  0.31656816061E+02  0.51100000000E-03 0.  1.
        -12    1    3    3    0    0 -0.60746905272E+01  0.35733861429E+00  0.12597178907E+02  0.13989941827E+02  0.00000000000E+00 0.  1.
</event>
<event>
 7    1  0.5764931E-013  0.5052887E+02  0.7816164E-02  0.1300439E+00
        -11   -1    0    0    0    0  0.00000000000E+00  0.00000000000E+00  0.45593999997E+02  0.45594000000E+02  0.51100000000E-03 0.  1.
         11   -1    0    0    0    0 -0.00000000000E+00 -0.00000000000E+00 -0.45593999997E+02  0.45594000000E+02  0.51100000000E-03 0. -1.
    9900012    2    1    2    0    0 -0.59436286003E+01  0.38432069374E+01  0.40038331533E+02  0.50528868769E+02  0.30000027111E+02 0.  0.
         12    1    1    2    0    0  0.59436286003E+01 -0.38432069374E+01 -0.40038331533E+02  0.40659131231E+02  0.00000000000E+00 0. -1.
         11    1    3    3    0    0 -0.91668564241E+01 -0.85574529808E+01  0.62325546713E+01  0.14003785067E+02  0.51100000000E-03 0. -1.
        -11    1    3    3    0    0  0.17738543842E+01  0.39872011305E+01  0.18414739061E+02  0.18924770730E+02  0.51100000000E-03 0.  1.
         12    1    3    3    0    0  0.14493734396E+01  0.84134587877E+01  0.15391037801E+02  0.17600312972E+02  0.00000000000E+00 0. -1.
</event>
<event>
 7    1  0.5764931E-013  0.5052886E+02  0.7816164E-02  0.1300439E+00
        -11   -1    0    0    0    0  0.00000000000E+00  0.00000000000E+00  0.45593999997E+02  0.45594000000E+02  0.51100000000E-03 0.  1.
         11   -1    0    0    0    0 -0.00000000000E+00 -0.00000000000E+00 -0.45593999997E+02  0.45594000000E+02  0.51100000000E-03 0. -1.
    9900012    2    1    2    0    0 -0.20550736939E+02  0.11228884929E+02  0.33237705588E+02  0.50528859352E+02  0.29999998487E+02 0.  0.
         12    1    1    2    0    0  0.20550736939E+02 -0.11228884929E+02 -0.33237705588E+02  0.40659140648E+02  0.00000000000E+00 0. -1.
         11    1    3    3    0    0 -0.14923521676E+02 -0.21181832978E+01  0.43648321394E+01  0.15692353538E+02  0.51100000000E-03 0. -1.
        -11    1    3    3    0    0  0.40510790135E-01  0.60078893336E+01  0.18800360911E+01  0.62953086766E+01  0.51100000000E-03 0.  1.
        -12    1    3    3    0    0 -0.56677260527E+01  0.73391788930E+01  0.26992837357E+02  0.28541197137E+02  0.00000000000E+00 0.  1.
</event>
<event>
 7    1  0.5764931E-013  0.5052885E+02  0.7816164E-02  0.1300439E+00
        -11   -1    0    0    0    0  0.00000000000E+00  0.00000000000E+00  0.45593999997E+02  0.45594000000E+02  0.51100000000E-03 0. -1.
         11   -1    0    0    0    0 -0.00000000000E+00 -0.00000000000E+00 -0.45593999997E+02  0.45594000000E+02  0.51100000000E-03 0.  1.
    9900012    2    1    2    0    0 -0.27265246227E+02 -0.21189278776E+02 -0.21465950069E+02  0.50528853437E+02  0.29999980507E+02 0.  0.
         12    1    1    2    0    0  0.27265246227E+02  0.21189278776E+02  0.21465950069E+02  0.40659146563E+02  0.00000000000E+00 0. -1.
         11    1    3    3    0    0 -0.28149485292E+01  0.19733065355E+01 -0.29417758342E+01  0.45245905036E+01  0.51100000000E-03 0. -1.
        -11    1    3    3    0    0 -0.19195800195E+02 -0.26388459813E+02 -0.76698520506E+01  0.33520981298E+02  0.51100000000E-03 0.  1.
        -12    1    3    3    0    0 -0.52544975021E+01  0.32258745017E+01 -0.10854322184E+02  0.12483281635E+02  0.00000000000E+00 0.  1.
</event>
<event>
 7    1  0.5764931E-013  0.5052886E+02  0.7816164E-02  0.1300439E+00
        -11   -1    0    0    0    0  0.00000000000E+00  0.00000000000E+00  0.45593999997E+02  0.45594000000E+02  0.51100000000E-03 0. -1.
         11   -1    0    0    0    0 -0.00000000000E+00 -0.00000000000E+00 -0.45593999997E+02  0.45594000000E+02  0.51100000000E-03 0.  1.
    9900012    2    1    2    0    0  0.89958659403E+01 -0.41970838838E+01 -0.39428725688E+02  0.50528861710E+02  0.30000005653E+02 0.  0.
         12    1    1    2    0    0 -0.89958659403E+01  0.41970838838E+01  0.39428725688E+02  0.40659138290E+02  0.00000000000E+00 0. -1.
         11    1    3    3    0    0  0.10305596497E+01 -0.67976259165E+01 -0.57317850062E+01  0.89511524906E+01  0.51100000000E-03 0. -1.
        -11    1    3    3    0    0  0.25468256623E+01  0.11960325313E+02 -0.11052335594E+02  0.16483016256E+02  0.51100000000E-03 0.  1.
        -12    1    3    3    0    0  0.54184806283E+01 -0.93597832801E+01 -0.22644605087E+02  0.25094692963E+02  0.00000000000E+00 0.  1.
</event>
<event>
 7    1  0.5764931E-013  0.5052885E+02  0.7816164E-02  0.1300439E+00
        -11   -1    0    0    0    0  0.00000000000E+00  0.00000000000E+00  0.45593999997E+02  0.45594000000E+02  0.51100000000E-03 0.  1.
         11   -1    0    0    0    0 -0.00000000000E+00 -0.00000000000E+00 -0.45593999997E+02  0.45594000000E+02  0.51100000000E-03 0. -1.
    9900012    2    1    2    0    0  0.23566930745E+02  0.30534389250E+02  0.12861459577E+02  0.50528852271E+02  0.29999976962E+02 0.  0.
         12    1    1    2    0    0 -0.23566930745E+02 -0.30534389250E+02 -0.12861459577E+02  0.40659147729E+02  0.00000000000E+00 0. -1.
         11    1    3    3    0    0  0.50560856342E+01  0.17851819629E+02  0.14517957894E+02  0.23558916946E+02  0.51100000000E-03 0.  1.
        -11    1    3    3    0    0  0.12985910144E+02  0.13719250901E+02 -0.60496289623E+01  0.19835567004E+02  0.51100000000E-03 0. -1.
         12    1    3    3    0    0  0.55249349665E+01 -0.10366812793E+01  0.43931306454E+01  0.71343683201E+01  0.00000000000E+00 0. -1.
</event>
<event>
 7    1  0.5764931E-013  0.5052886E+02  0.7816164E-02  0.1300439E+00
        -11   -1    0    0    0    0  0.00000000000E+00  0.00000000000E+00  0.45593999997E+02  0.45594000000E+02  0.51100000000E-03 0.  1.
         11   -1    0    0    0    0 -0.00000000000E+00 -0.00000000000E+00 -0.45593999997E+02  0.45594000000E+02  0.51100000000E-03 0. -1.
    9900012    2    1    2    0    0  0.28342889452E+02  0.27027293226E+02  0.10925753872E+02  0.50528855158E+02  0.29999985737E+02 0.  0.
         12    1    1    2    0    0 -0.28342889452E+02 -0.27027293226E+02 -0.10925753872E+02  0.40659144842E+02  0.00000000000E+00 0. -1.
         11    1    3    3    0    0 -0.13068525580E+01  0.53441676888E+01 -0.87849003239E+00  0.55713316983E+01  0.51100000000E-03 0. -1.
        -11    1    3    3    0    0  0.26803491751E+02  0.17329153000E+02  0.18177650344E+02  0.36730827461E+02  0.51100000000E-03 0.  1.
        -12    1    3    3    0    0  0.28462502599E+01  0.43539725378E+01 -0.63734064394E+01  0.82266959980E+01  0.00000000000E+00 0.  1.
</event>
<event>
 7    1  0.5764931E-013  0.5052886E+02  0.7816164E-02  0.1300439E+00
        -11   -1    0    0    0    0  0.00000000000E+00  0.00000000000E+00  0.45593999997E+02  0.45594000000E+02  0.51100000000E-03 0. -1.
         11   -1    0    0    0    0 -0.00000000000E+00 -0.00000000000E+00 -0.45593999997E+02  0.45594000000E+02  0.51100000000E-03 0.  1.
    9900012    2    1    2    0    0  0.16928269784E+02 -0.30253654221E+02 -0.21244188110E+02  0.50528862773E+02  0.30000008884E+02 0.  0.
         12    1    1    2    0    0 -0.16928269784E+02  0.30253654221E+02  0.21244188110E+02  0.40659137227E+02  0.00000000000E+00 0. -1.
         11    1    3    3    0    0  0.13528323525E+02 -0.10307861998E+02 -0.22719322182E+02  0.28380189518E+02  0.51100000000E-03 0. -1.
        -11    1    3    3    0    0  0.61913067506E+01 -0.16631886568E+02  0.15568722749E+01  0.17815043689E+02  0.51100000000E-03 0.  1.
         12    1    3    3    0    0 -0.27913604915E+01 -0.33139056551E+01 -0.81738202721E-01  0.43336295663E+01  0.00000000000E+00 0. -1.
</event>
<event>
 7    1  0.5764931E-013  0.5052886E+02  0.7816164E-02  0.1300439E+00
        -11   -1    0    0    0    0  0.00000000000E+00  0.00000000000E+00  0.45593999997E+02  0.45594000000E+02  0.51100000000E-03 0. -1.
         11   -1    0    0    0    0 -0.00000000000E+00 -0.00000000000E+00 -0.45593999997E+02  0.45594000000E+02  0.51100000000E-03 0.  1.
    9900012    2    1    2    0    0 -0.26803258906E+01  0.47117601463E+01 -0.40296168404E+02  0.50528855658E+02  0.29999987258E+02 0.  0.
         12    1    1    2    0    0  0.26803258906E+01 -0.47117601463E+01  0.40296168404E+02  0.40659144342E+02  0.00000000000E+00 0. -1.
         11    1    3    3    0    0  0.39969883163E+01  0.55085517773E+01  0.92800538242E+00  0.68688610799E+01  0.51100000000E-03 0. -1.
        -11    1    3    3    0    0 -0.77253673523E+01  0.29873402836E+01 -0.36903681520E+02  0.37821782252E+02  0.51100000000E-03 0.  1.
         12    1    3    3    0    0  0.10480531454E+01 -0.37841319146E+01 -0.43204922664E+01  0.58382123263E+01  0.00000000000E+00 0. -1.
</event>
<event>
 7    1  0.5764931E-013  0.5052887E+02  0.7816164E-02  0.1300439E+00
        -11   -1    0    0    0    0  0.00000000000E+00  0.00000000000E+00  0.45593999997E+02  0.45594000000E+02  0.51100000000E-03 0.  1.
         11   -1    0    0    0    0 -0.00000000000E+00 -0.00000000000E+00 -0.45593999997E+02  0.45594000000E+02  0.51100000000E-03 0. -1.
    9900012    2    1    2    0    0  0.39167484046E+02  0.10813310020E+02 -0.14648416063E+01  0.50528865220E+02  0.30000016324E+02 0.  0.
         12    1    1    2    0    0 -0.39167484046E+02 -0.10813310020E+02  0.14648416063E+01  0.40659134780E+02  0.00000000000E+00 0. -1.
         11    1    3    3    0    0  0.44242835910E+01 -0.84125496454E+01 -0.25062230040E+01  0.98298744059E+01  0.51100000000E-03 0. -1.
        -11    1    3    3    0    0  0.22594140223E+02  0.16972282165E+02 -0.37966473019E+00  0.28261239885E+02  0.51100000000E-03 0.  1.
         12    1    3    3    0    0  0.12149060232E+02  0.22535775005E+01  0.14210461278E+01  0.12437750929E+02  0.00000000000E+00 0. -1.
</event>
<event>
 7    1  0.5764931E-013  0.5052885E+02  0.7816164E-02  0.1300439E+00
        -11   -1    0    0    0    0  0.00000000000E+00  0.00000000000E+00  0.45593999997E+02  0.45594000000E+02  0.51100000000E-03 0.  1.
         11   -1    0    0    0    0 -0.00000000000E+00 -0.00000000000E+00 -0.45593999997E+02  0.45594000000E+02  0.51100000000E-03 0. -1.
    9900012    2    1    2    0    0 -0.12815913870E+02  0.71058865542E+01  0.37926573391E+02  0.50528852921E+02  0.29999978937E+02 0.  0.
         12    1    1    2    0    0  0.12815913870E+02 -0.71058865542E+01 -0.37926573391E+02  0.40659147079E+02  0.00000000000E+00 0. -1.
         11    1    3    3    0    0 -0.31486704182E+01  0.14880418713E+01 -0.49710129110E+01  0.60695439397E+01  0.51100000000E-03 0. -1.
        -11    1    3    3    0    0 -0.62173968000E+01  0.51908069044E+01  0.32588709417E+02  0.33580120324E+02  0.51100000000E-03 0.  1.
         12    1    3    3    0    0 -0.34498466519E+01  0.42703777842E+00  0.10308876885E+02  0.10879188656E+02  0.00000000000E+00 0. -1.
</event>
<event>
 7    1  0.5764931E-013  0.5052886E+02  0.7816164E-02  0.1300439E+00
        -11   -1    0    0    0    0  0.00000000000E+00  0.00000000000E+00  0.45593999997E+02  0.45594000000E+02  0.51100000000E-03 0.  1.
         11   -1    0    0    0    0 -0.00000000000E+00 -0.00000000000E+00 -0.45593999997E+02  0.45594000000E+02  0.51100000000E-03 0. -1.
    9900012    2    1    2    0    0 -0.10558290747E+02 -0.22224685983E+02  0.32368989070E+02  0.50528860512E+02  0.30000002011E+02 0.  0.
         12    1    1    2    0    0  0.10558290747E+02  0.22224685983E+02 -0.32368989070E+02  0.40659139488E+02  0.00000000000E+00 0. -1.
         11    1    3    3    0    0 -0.11768747275E+02 -0.42938458129E+01  0.41660172438E+01  0.13202129534E+02  0.51100000000E-03 0. -1.
        -11    1    3    3    0    0  0.54526079542E+01 -0.19308546481E+01  0.15244100504E+02  0.16304653741E+02  0.51100000000E-03 0.  1.
        -12    1    3    3    0    0 -0.42421514261E+01 -0.15999985522E+02  0.12958871322E+02  0.21022077237E+02  0.00000000000E+00 0.  1.
</event>
<event>
 7    1  0.5764931E-013  0.5052886E+02  0.7816164E-02  0.1300439E+00
        -11   -1    0    0    0    0  0.00000000000E+00  0.00000000000E+00  0.45593999997E+02  0.45594000000E+02  0.51100000000E-03 0.  1.
         11   -1    0    0    0    0 -0.00000000000E+00 -0.00000000000E+00 -0.45593999997E+02  0.45594000000E+02  0.51100000000E-03 0. -1.
    9900012    2    1    2    0    0  0.30548341278E+02 -0.14956991678E+02  0.22276732835E+02  0.50528861044E+02  0.30000003628E+02 0.  0.
         12    1    1    2    0    0 -0.30548341278E+02  0.14956991678E+02 -0.22276732835E+02  0.40659138956E+02  0.00000000000E+00 0. -1.
         11    1    3    3    0    0  0.11619578229E+02 -0.57502883221E+01 -0.41713023731E+01  0.13619110755E+02  0.51100000000E-03 0. -1.
        -11    1    3    3    0    0  0.15770726690E+02 -0.11230760920E+02  0.13955774556E+02  0.23866492304E+02  0.51100000000E-03 0.  1.
         12    1    3    3    0    0  0.31580363582E+01  0.20240575633E+01  0.12492260652E+02  0.13043257984E+02  0.00000000000E+00 0. -1.
</event>
<event>
 7    1  0.5764931E-013  0.5052886E+02  0.7816164E-02  0.1300439E+00
        -11   -1    0    0    0    0  0.00000000000E+00  0.00000000000E+00  0.45593999997E+02  0.45594000000E+02  0.51100000000E-03 0. -1.
         11   -1    0    0    0    0 -0.00000000000E+00 -0.00000000000E+00 -0.45593999997E+02  0.45594000000E+02  0.51100000000E-03 0.  1.
    9900012    2    1    2    0    0 -0.25246228867E+02  0.75824494039E+01 -0.30956420739E+02  0.50528860856E+02  0.30000003059E+02 0.  0.
         12    1    1    2    0    0  0.25246228867E+02 -0.75824494039E+01  0.30956420739E+02  0.40659139144E+02  0.00000000000E+00 0. -1.
         11    1    3    3    0    0 -0.19219547712E+01  0.94894139604E+01 -0.14275741363E+02  0.17249338514E+02  0.51100000000E-03 0. -1.
        -11    1    3    3    0    0 -0.24392595276E+02 -0.11963632508E+01 -0.18787782901E+02  0.30812510055E+02  0.51100000000E-03 0.  1.
        -12    1    3    3    0    0  0.10683211799E+01 -0.71060130566E+00  0.21071035251E+01  0.24670122870E+01  0.00000000000E+00 0.  1.
</event>
<event>
 7    1  0.5764931E-013  0.5052886E+02  0.7816164E-02  0.1300439E+00
        -11   -1    0    0    0    0  0.00000000000E+00  0.00000000000E+00  0.45593999997E+02  0.45594000000E+02  0.51100000000E-03 0.  1.
         11   -1    0    0    0    0 -0.00000000000E+00 -0.00000000000E+00 -0.45593999997E+02  0.45594000000E+02  0.51100000000E-03 0. -1.
    9900012    2    1    2    0    0  0.11567029900E+02  0.32317661132E+02  0.21793086905E+02  0.50528855412E+02  0.29999986511E+02 0.  0.
         12    1    1    2    0    0 -0.11567029900E+02 -0.32317661132E+02 -0.21793086905E+02  0.40659144588E+02  0.00000000000E+00 0. -1.
         11    1    3    3    0    0  0.12649300526E+02  0.21884160396E+01  0.87121543720E+01  0.15514367619E+02  0.51100000000E-03 0. -1.
        -11    1    3    3    0    0  0.29298757607E+01  0.18332978393E+02  0.12801793958E+02  0.22551456660E+02  0.51100000000E-03 0.  1.
         12    1    3    3    0    0 -0.40121463861E+01  0.11796266700E+02  0.27913857529E+00  0.12463031133E+02  0.00000000000E+00 0. -1.
</event>
<event>
 7    1  0.5764931E-013  0.5052875E+02  0.7816164E-02  0.1300439E+00
        -11   -1    0    0    0    0  0.00000000000E+00  0.00000000000E+00  0.45593999997E+02  0.45594000000E+02  0.51100000000E-03 0.  1.
         11   -1    0    0    0    0 -0.00000000000E+00 -0.00000000000E+00 -0.45593999997E+02  0.45594000000E+02  0.51100000000E-03 0. -1.
    9900012    2    1    2    0    0  0.21733161389E+02 -0.17886106053E+02  0.29341635297E+02  0.50528749446E+02  0.29999664413E+02 0.  0.
         12    1    1    2    0    0 -0.21733161389E+02  0.17886106053E+02 -0.29341635297E+02  0.40659250554E+02  0.00000000000E+00 0. -1.
         11    1    3    3    0    0 -0.49671416865E+01 -0.67871241235E+01  0.98826916419E+01  0.12977100784E+02  0.51100000000E-03 0. -1.
        -11    1    3    3    0    0  0.17502998745E+02  0.20937507989E+00  0.11500738667E+02  0.20944349910E+02  0.51100000000E-03 0.  1.
         12    1    3    3    0    0  0.91973043305E+01 -0.11308357009E+02  0.79582049882E+01  0.16607298752E+02  0.00000000000E+00 0. -1.
</event>
<event>
 7    1  0.5764931E-013  0.5052886E+02  0.7816164E-02  0.1300439E+00
        -11   -1    0    0    0    0  0.00000000000E+00  0.00000000000E+00  0.45593999997E+02  0.45594000000E+02  0.51100000000E-03 0.  1.
         11   -1    0    0    0    0 -0.00000000000E+00 -0.00000000000E+00 -0.45593999997E+02  0.45594000000E+02  0.51100000000E-03 0. -1.
    9900012    2    1    2    0    0 -0.25696385693E+02  0.29214463943E+02  0.11805788346E+02  0.50528858597E+02  0.29999996190E+02 0.  0.
         12    1    1    2    0    0  0.25696385693E+02 -0.29214463943E+02 -0.11805788346E+02  0.40659141403E+02  0.00000000000E+00 0. -1.
         11    1    3    3    0    0 -0.59852493291E+01  0.17659275494E+02  0.15070052273E+02  0.23974563526E+02  0.51100000000E-03 0. -1.
        -11    1    3    3    0    0 -0.99895188268E+01 -0.13970179932E+01 -0.22051588646E+01  0.10324963513E+02  0.51100000000E-03 0.  1.
        -12    1    3    3    0    0 -0.97216175373E+01  0.12952206443E+02 -0.10591050621E+01  0.16229331558E+02  0.00000000000E+00 0.  1.
</event>
<event>
 7    1  0.5764931E-013  0.5052886E+02  0.7816164E-02  0.1300439E+00
        -11   -1    0    0    0    0  0.00000000000E+00  0.00000000000E+00  0.45593999997E+02  0.45594000000E+02  0.51100000000E-03 0. -1.
         11   -1    0    0    0    0 -0.00000000000E+00 -0.00000000000E+00 -0.45593999997E+02  0.45594000000E+02  0.51100000000E-03 0.  1.
    9900012    2    1    2    0    0  0.21965924283E+01  0.19623712628E+02 -0.35542231893E+02  0.50528863713E+02  0.30000011743E+02 0.  0.
         12    1    1    2    0    0 -0.21965924283E+01 -0.19623712628E+02  0.35542231893E+02  0.40659136287E+02  0.00000000000E+00 0. -1.
         11    1    3    3    0    0  0.19150006372E+00  0.69827080702E+01  0.39748780207E+01  0.80370728384E+01  0.51100000000E-03 0. -1.
        -11    1    3    3    0    0  0.49314635141E+01  0.83296594991E+01 -0.19005267534E+02  0.21328449406E+02  0.51100000000E-03 0.  1.
         12    1    3    3    0    0 -0.29263711496E+01  0.43113450591E+01 -0.20511842380E+02  0.21163341469E+02  0.00000000000E+00 0. -1.
</event>
<event>
 7    1  0.5764931E-013  0.5052885E+02  0.7816164E-02  0.1300439E+00
        -11   -1    0    0    0    0  0.00000000000E+00  0.00000000000E+00  0.45593999997E+02  0.45594000000E+02  0.51100000000E-03 0.  1.
         11   -1    0    0    0    0 -0.00000000000E+00 -0.00000000000E+00 -0.45593999997E+02  0.45594000000E+02  0.51100000000E-03 0. -1.
    9900012    2    1    2    0    0 -0.32233574708E+02 -0.81333783671E+00  0.24768960337E+02  0.50528852774E+02  0.29999978493E+02 0.  0.
         12    1    1    2    0    0  0.32233574708E+02  0.81333783671E+00 -0.24768960337E+02  0.40659147226E+02  0.00000000000E+00 0. -1.
         11    1    3    3    0    0 -0.74208450335E+01 -0.39638828482E+01 -0.39069861873E+01  0.92760902095E+01  0.51100000000E-03 0. -1.
        -11    1    3    3    0    0 -0.26828082549E+02  0.34680091160E+01  0.24047822636E+02  0.36194901220E+02  0.51100000000E-03 0.  1.
         12    1    3    3    0    0  0.20153528740E+01 -0.31746410451E+00  0.46281238882E+01  0.50578613454E+01  0.00000000000E+00 0. -1.
</event>
<event>
 7    1  0.5764931E-013  0.5052886E+02  0.7816164E-02  0.1300439E+00
        -11   -1    0    0    0    0  0.00000000000E+00  0.00000000000E+00  0.45593999997E+02  0.45594000000E+02  0.51100000000E-03 0.  1.
         11   -1    0    0    0    0 -0.00000000000E+00 -0.00000000000E+00 -0.45593999997E+02  0.45594000000E+02  0.51100000000E-03 0. -1.
    9900012    2    1    2    0    0 -0.28563016014E+02 -0.28932779455E+02  0.46277547755E+00  0.50528858691E+02  0.29999996477E+02 0.  0.
         12    1    1    2    0    0  0.28563016014E+02  0.28932779455E+02 -0.46277547755E+00  0.40659141309E+02  0.00000000000E+00 0. -1.
         11    1    3    3    0    0  0.46765744845E+01 -0.28724865617E+01  0.95379226380E-01  0.54891370373E+01  0.51100000000E-03 0. -1.
        -11    1    3    3    0    0 -0.13684049586E+02 -0.25512036469E+01 -0.31107930315E+01  0.14263200435E+02  0.51100000000E-03 0.  1.
         12    1    3    3    0    0 -0.19555540913E+02 -0.23509089247E+02  0.34781892826E+01  0.30776521218E+02  0.00000000000E+00 0. -1.
</event>
<event>
 7    1  0.5764931E-013  0.5052886E+02  0.7816164E-02  0.1300439E+00
        -11   -1    0    0    0    0  0.00000000000E+00  0.00000000000E+00  0.45593999997E+02  0.45594000000E+02  0.51100000000E-03 0.  1.
         11   -1    0    0    0    0 -0.00000000000E+00 -0.00000000000E+00 -0.45593999997E+02  0.45594000000E+02  0.51100000000E-03 0. -1.
    9900012    2    1    2    0    0 -0.37350749054E+02 -0.47650151036E+01  0.15342159979E+02  0.50528859618E+02  0.29999999294E+02 0.  0.
         12    1    1    2    0    0  0.37350749054E+02  0.47650151036E+01 -0.15342159979E+02  0.40659140382E+02  0.00000000000E+00 0. -1.
         11    1    3    3    0    0 -0.24876814350E+02  0.11064411858E+02  0.67983771631E+01  0.28062341924E+02  0.51100000000E-03 0. -1.
        -11    1    3    3    0    0 -0.11630238791E+02 -0.12212842763E+02  0.57451098198E+01  0.17816348385E+02  0.51100000000E-03 0.  1.
         12    1    3    3    0    0 -0.84369591297E+00 -0.36165841986E+01  0.27986729962E+01  0.46501693086E+01  0.00000000000E+00 0. -1.
</event>
<event>
 7    1  0.5764931E-013  0.5052887E+02  0.7816164E-02  0.1300439E+00
        -11   -1    0    0    0    0  0.00000000000E+00  0.00000000000E+00  0.45593999997E+02  0.45594000000E+02  0.51100000000E-03 0.  1.
         11   -1    0    0    0    0 -0.00000000000E+00 -0.00000000000E+00 -0.45593999997E+02  0.45594000000E+02  0.51100000000E-03 0. -1.
    9900012    2    1    2    0    0  0.13653837022E+02  0.14120258049E+02  0.35599948035E+02  0.50528865075E+02  0.30000015882E+02 0.  0.
         12    1    1    2    0    0 -0.13653837022E+02 -0.14120258049E+02 -0.35599948035E+02  0.40659134925E+02  0.00000000000E+00 0. -1.
         11    1    3    3    0    0 -0.52712872392E+01  0.29162072669E+01  0.20534439777E+01  0.63645397644E+01  0.51100000000E-03 0. -1.
        -11    1    3    3    0    0  0.12951651224E+02  0.10642556679E+02  0.34241246471E+02  0.38124431042E+02  0.51100000000E-03 0.  1.
         12    1    3    3    0    0  0.59734730375E+01  0.56149410291E+00 -0.69474241453E+00  0.60398942690E+01  0.00000000000E+00 0. -1.
</event>
<event>
 7    1  0.5764931E-013  0.5052886E+02  0.7816164E-02  0.1300439E+00
        -11   -1    0    0    0    0  0.00000000000E+00  0.00000000000E+00  0.45593999997E+02  0.45594000000E+02  0.51100000000E-03 0.  1.
         11   -1    0    0    0    0 -0.00000000000E+00 -0.00000000000E+00 -0.45593999997E+02  0.45594000000E+02  0.51100000000E-03 0. -1.
    9900012    2    1    2    0    0  0.22970852266E+02 -0.29967959365E+02  0.15080675670E+02  0.50528863007E+02  0.30000009595E+02 0.  0.
         12    1    1    2    0    0 -0.22970852266E+02  0.29967959365E+02 -0.15080675670E+02  0.40659136993E+02  0.00000000000E+00 0. -1.
         11    1    3    3    0    0  0.17584741260E+01 -0.65499531927E+01  0.12343487608E+02  0.14083884573E+02  0.51100000000E-03 0. -1.
        -11    1    3    3    0    0  0.15554702320E+02 -0.23329992447E+02 -0.32255079879E+01  0.28224833283E+02  0.51100000000E-03 0.  1.
        -12    1    3    3    0    0  0.56576758202E+01 -0.88013725706E-01  0.59626960500E+01  0.82201451500E+01  0.00000000000E+00 0.  1.
</event>
<event>
 7    1  0.5764931E-013  0.5052886E+02  0.7816164E-02  0.1300439E+00
        -11   -1    0    0    0    0  0.00000000000E+00  0.00000000000E+00  0.45593999997E+02  0.45594000000E+02  0.51100000000E-03 0. -1.
         11   -1    0    0    0    0 -0.00000000000E+00 -0.00000000000E+00 -0.45593999997E+02  0.45594000000E+02  0.51100000000E-03 0.  1.
    9900012    2    1    2    0    0  0.17909603365E+02 -0.93516132975E+01 -0.35283973501E+02  0.50528863881E+02  0.30000012253E+02 0.  0.
         12    1    1    2    0    0 -0.17909603365E+02  0.93516132975E+01  0.35283973501E+02  0.40659136119E+02  0.00000000000E+00 0. -1.
         11    1    3    3    0    0 -0.54454052730E+01  0.33452013276E+01 -0.26905425039E+01  0.69341062680E+01  0.51100000000E-03 0. -1.
        -11    1    3    3    0    0  0.18945672759E+02 -0.91132352920E+01 -0.17124373930E+02  0.27115194201E+02  0.51100000000E-03 0.  1.
        -12    1    3    3    0    0  0.44093358783E+01 -0.35835793331E+01 -0.15469057066E+02  0.16479563412E+02  0.00000000000E+00 0.  1.
</event>
<event>
 7    1  0.5764931E-013  0.5052886E+02  0.7816164E-02  0.1300439E+00
        -11   -1    0    0    0    0  0.00000000000E+00  0.00000000000E+00  0.45593999997E+02  0.45594000000E+02  0.51100000000E-03 0.  1.
         11   -1    0    0    0    0 -0.00000000000E+00 -0.00000000000E+00 -0.45593999997E+02  0.45594000000E+02  0.51100000000E-03 0. -1.
    9900012    2    1    2    0    0  0.27698031189E+02 -0.13250118863E+02 -0.26653688198E+02  0.50528859869E+02  0.30000000058E+02 0.  0.
         12    1    1    2    0    0 -0.27698031189E+02  0.13250118863E+02  0.26653688198E+02  0.40659140131E+02  0.00000000000E+00 0. -1.
         11    1    3    3    0    0 -0.76662568435E+00  0.66189922473E+01 -0.65514649062E+01  0.93445420428E+01  0.51100000000E-03 0. -1.
        -11    1    3    3    0    0  0.26094382707E+02 -0.14190859322E+02 -0.15529286082E+02  0.33517995520E+02  0.51100000000E-03 0.  1.
         12    1    3    3    0    0  0.23702741658E+01 -0.56782517875E+01 -0.45729372103E+01  0.76663223069E+01  0.00000000000E+00 0. -1.
</event>
<event>
 7    1  0.5764931E-013  0.5052886E+02  0.7816164E-02  0.1300439E+00
        -11   -1    0    0    0    0  0.00000000000E+00  0.00000000000E+00  0.45593999997E+02  0.45594000000E+02  0.51100000000E-03 0.  1.
         11   -1    0    0    0    0 -0.00000000000E+00 -0.00000000000E+00 -0.45593999997E+02  0.45594000000E+02  0.51100000000E-03 0. -1.
    9900012    2    1    2    0    0  0.17064989069E+02  0.92497683046E+01  0.35726647800E+02  0.50528862913E+02  0.30000009311E+02 0.  0.
         12    1    1    2    0    0 -0.17064989069E+02 -0.92497683046E+01 -0.35726647800E+02  0.40659137087E+02  0.00000000000E+00 0. -1.
         11    1    3    3    0    0  0.14046994245E+02  0.97369407402E+01  0.71512862082E+01  0.18527464937E+02  0.51100000000E-03 0. -1.
        -11    1    3    3    0    0  0.41291871351E+01  0.31108666320E+01  0.27642575864E+02  0.28121871884E+02  0.51100000000E-03 0.  1.
        -12    1    3    3    0    0 -0.11111923109E+01 -0.35980390676E+01  0.93278572755E+00  0.38795260919E+01  0.00000000000E+00 0.  1.
</event>
<event>
 7    1  0.5764931E-013  0.5052887E+02  0.7816164E-02  0.1300439E+00
        -11   -1    0    0    0    0  0.00000000000E+00  0.00000000000E+00  0.45593999997E+02  0.45594000000E+02  0.51100000000E-03 0.  1.
         11   -1    0    0    0    0 -0.00000000000E+00 -0.00000000000E+00 -0.45593999997E+02  0.45594000000E+02  0.51100000000E-03 0. -1.
    9900012    2    1    2    0    0  0.20797591816E+01  0.32115696599E+02  0.24847960851E+02  0.50528874029E+02  0.30000043098E+02 0.  0.
         12    1    1    2    0    0 -0.20797591816E+01 -0.32115696599E+02 -0.24847960851E+02  0.40659125971E+02  0.00000000000E+00 0. -1.
         11    1    3    3    0    0 -0.67883600426E+01  0.18314729580E+01  0.15913990490E+02  0.17398023418E+02  0.51100000000E-03 0. -1.
        -11    1    3    3    0    0  0.54967371155E+01  0.15371697925E+02  0.68371333655E+01  0.17698858973E+02  0.51100000000E-03 0.  1.
         12    1    3    3    0    0  0.33713821088E+01  0.14912525715E+02  0.20968369961E+01  0.15431991638E+02  0.00000000000E+00 0. -1.
</event>
<event>
 7    1  0.5764931E-013  0.5052887E+02  0.7816164E-02  0.1300439E+00
        -11   -1    0    0    0    0  0.00000000000E+00  0.00000000000E+00  0.45593999997E+02  0.45594000000E+02  0.51100000000E-03 0.  1.
         11   -1    0    0    0    0 -0.00000000000E+00 -0.00000000000E+00 -0.45593999997E+02  0.45594000000E+02  0.51100000000E-03 0. -1.
    9900012    2    1    2    0    0  0.80746911613E+01 -0.33896592016E+02  0.20951969153E+02  0.50528873115E+02  0.30000040321E+02 0.  0.
         12    1    1    2    0    0 -0.80746911613E+01  0.33896592016E+02 -0.20951969153E+02  0.40659126885E+02  0.00000000000E+00 0. -1.
         11    1    3    3    0    0 -0.42337936425E+01 -0.19368767907E+02  0.15525809792E+01  0.19886796796E+02  0.51100000000E-03 0. -1.
        -11    1    3    3    0    0  0.12815546144E+02 -0.16919733648E+02  0.16763978923E+02  0.27047118133E+02  0.51100000000E-03 0.  1.
        -12    1    3    3    0    0 -0.50706134053E+00  0.23919095388E+01  0.26354092508E+01  0.35949581867E+01  0.00000000000E+00 0.  1.
</event>
<event>
 7    1  0.5764931E-013  0.5052886E+02  0.7816164E-02  0.1300439E+00
        -11   -1    0    0    0    0  0.00000000000E+00  0.00000000000E+00  0.45593999997E+02  0.45594000000E+02  0.51100000000E-03 0.  1.
         11   -1    0    0    0    0 -0.00000000000E+00 -0.00000000000E+00 -0.45593999997E+02  0.45594000000E+02  0.51100000000E-03 0. -1.
    9900012    2    1    2    0    0  0.24073004807E+02 -0.29453302828E+02  0.14358244330E+02  0.50528858492E+02  0.29999995872E+02 0.  0.
         12    1    1    2    0    0 -0.24073004807E+02  0.29453302828E+02 -0.14358244330E+02  0.40659141508E+02  0.00000000000E+00 0. -1.
         11    1    3    3    0    0 -0.17765563613E+01 -0.69446607088E+01  0.91226982501E+01  0.11602072595E+02  0.51100000000E-03 0. -1.
        -11    1    3    3    0    0  0.15578490071E+02 -0.19681266053E+02 -0.32460469379E+01  0.25309650478E+02  0.51100000000E-03 0.  1.
         12    1    3    3    0    0  0.10271071097E+02 -0.28273760669E+01  0.84815930183E+01  0.13617135420E+02  0.00000000000E+00 0. -1.
</event>
<event>
 7    1  0.5764931E-013  0.5052885E+02  0.7816164E-02  0.1300439E+00
        -11   -1    0    0    0    0  0.00000000000E+00  0.00000000000E+00  0.45593999997E+02  0.45594000000E+02  0.51100000000E-03 0.  1.
         11   -1    0    0    0    0 -0.00000000000E+00 -0.00000000000E+00 -0.45593999997E+02  0.45594000000E+02  0.51100000000E-03 0. -1.
    9900012    2    1    2    0    0 -0.27492349857E+02 -0.97799396407E+01  0.28314128363E+02  0.50528851152E+02  0.29999973563E+02 0.  0.
         12    1    1    2    0    0  0.27492349857E+02  0.97799396407E+01 -0.28314128363E+02  0.40659148848E+02  0.00000000000E+00 0. -1.
         11    1    3    3    0    0  0.44299462407E+01  0.35341327466E+01  0.63371953457E+01  0.85014447641E+01  0.51100000000E-03 0. -1.
        -11    1    3    3    0    0 -0.23875309773E+02 -0.95163254926E+01  0.20775277836E+02  0.33048495231E+02  0.51100000000E-03 0.  1.
         12    1    3    3    0    0 -0.80469863251E+01 -0.37977468947E+01  0.12016551818E+01  0.89789111572E+01  0.00000000000E+00 0. -1.
</event>
<event>
 7    1  0.5764931E-013  0.5052898E+02  0.7816164E-02  0.1300438E+00
        -11   -1    0    0    0    0  0.00000000000E+00  0.00000000000E+00  0.45593999997E+02  0.45594000000E+02  0.51100000000E-03 0. -1.
         11   -1    0    0    0    0 -0.00000000000E+00 -0.00000000000E+00 -0.45593999997E+02  0.45594000000E+02  0.51100000000E-03 0.  1.
    9900012    2    1    2    0    0 -0.45844705635E+01 -0.35759679189E+02  0.18798513893E+02  0.50528977008E+02  0.30000356113E+02 0.  0.
         12    1    1    2    0    0  0.45844705635E+01  0.35759679189E+02 -0.18798513893E+02  0.40659022992E+02  0.00000000000E+00 0. -1.
         11    1    3    3    0    0 -0.13998989052E+01 -0.41852459744E+01 -0.56648479990E+01  0.71809821002E+01  0.51100000000E-03 0. -1.
        -11    1    3    3    0    0  0.58857344011E+00 -0.28036899719E+02  0.13284255234E+02  0.31030398031E+02  0.51100000000E-03 0.  1.
        -12    1    3    3    0    0 -0.37731450984E+01 -0.35375334954E+01  0.11179106658E+02  0.12317596878E+02  0.00000000000E+00 0.  1.
</event>
<event>
 7    1  0.5764931E-013  0.5052885E+02  0.7816164E-02  0.1300439E+00
        -11   -1    0    0    0    0  0.00000000000E+00  0.00000000000E+00  0.45593999997E+02  0.45594000000E+02  0.51100000000E-03 0.  1.
         11   -1    0    0    0    0 -0.00000000000E+00 -0.00000000000E+00 -0.45593999997E+02  0.45594000000E+02  0.51100000000E-03 0. -1.
    9900012    2    1    2    0    0  0.43613732690E+01  0.17037114238E+02  0.36658986673E+02  0.50528854138E+02  0.29999982638E+02 0.  0.
         12    1    1    2    0    0 -0.43613732690E+01 -0.17037114238E+02 -0.36658986673E+02  0.40659145862E+02  0.00000000000E+00 0. -1.
         11    1    3    3    0    0  0.57909654199E+01  0.20645017624E+02  0.14595587511E+02  0.25938064852E+02  0.51100000000E-03 0. -1.
        -11    1    3    3    0    0 -0.37233036175E+01  0.14369244221E+00  0.18665286477E+02  0.19033563956E+02  0.51100000000E-03 0.  1.
         12    1    3    3    0    0  0.22937114666E+01 -0.37515958281E+01  0.33981126848E+01  0.55572253300E+01  0.00000000000E+00 0. -1.
</event>
<event>
 7    1  0.5764931E-013  0.5052886E+02  0.7816164E-02  0.1300439E+00
        -11   -1    0    0    0    0  0.00000000000E+00  0.00000000000E+00  0.45593999997E+02  0.45594000000E+02  0.51100000000E-03 0.  1.
         11   -1    0    0    0    0 -0.00000000000E+00 -0.00000000000E+00 -0.45593999997E+02  0.45594000000E+02  0.51100000000E-03 0. -1.
    9900012    2    1    2    0    0 -0.78311245804E+01  0.25128975764E+02  0.30989894459E+02  0.50528862113E+02  0.30000006879E+02 0.  0.
         12    1    1    2    0    0  0.78311245804E+01 -0.25128975764E+02 -0.30989894459E+02  0.40659137887E+02  0.00000000000E+00 0. -1.
         11    1    3    3    0    0  0.23214667230E+01 -0.31438703088E+01  0.15977637926E+02  0.16448648644E+02  0.51100000000E-03 0. -1.
        -11    1    3    3    0    0 -0.10845093904E+02  0.25058399876E+02  0.13252857276E+02  0.30350909251E+02  0.51100000000E-03 0.  1.
         12    1    3    3    0    0  0.69250260030E+00  0.32144461961E+01  0.17593992568E+01  0.37293042171E+01  0.00000000000E+00 0. -1.
</event>
<event>
 7    1  0.5764931E-013  0.5052886E+02  0.7816164E-02  0.1300439E+00
        -11   -1    0    0    0    0  0.00000000000E+00  0.00000000000E+00  0.45593999997E+02  0.45594000000E+02  0.51100000000E-03 0.  1.
         11   -1    0    0    0    0 -0.00000000000E+00 -0.00000000000E+00 -0.45593999997E+02  0.45594000000E+02  0.51100000000E-03 0. -1.
    9900012    2    1    2    0    0  0.62072978891E+00 -0.14152457093E+02  0.38111523440E+02  0.50528861223E+02  0.30000004172E+02 0.  0.
         12    1    1    2    0    0 -0.62072978891E+00  0.14152457093E+02 -0.38111523440E+02  0.40659138777E+02  0.00000000000E+00 0. -1.
         11    1    3    3    0    0  0.35222997619E+01  0.59402305755E+01  0.17615207152E+02  0.18920582923E+02  0.51100000000E-03 0. -1.
        -11    1    3    3    0    0 -0.18732173648E+00 -0.17369574063E+02  0.21494477109E+02  0.27636022489E+02  0.51100000000E-03 0.  1.
         12    1    3    3    0    0 -0.27142482365E+01 -0.27231136050E+01 -0.99816082128E+00  0.39722558100E+01  0.00000000000E+00 0. -1.
</event>
<event>
 7    1  0.5764931E-013  0.5052886E+02  0.7816164E-02  0.1300439E+00
        -11   -1    0    0    0    0  0.00000000000E+00  0.00000000000E+00  0.45593999997E+02  0.45594000000E+02  0.51100000000E-03 0.  1.
         11   -1    0    0    0    0 -0.00000000000E+00 -0.00000000000E+00 -0.45593999997E+02  0.45594000000E+02  0.51100000000E-03 0. -1.
    9900012    2    1    2    0    0 -0.21670258474E+01  0.14632130290E+02  0.37873087341E+02  0.50528856101E+02  0.29999988603E+02 0.  0.
         12    1    1    2    0    0  0.21670258474E+01 -0.14632130290E+02 -0.37873087341E+02  0.40659143899E+02  0.00000000000E+00 0. -1.
         11    1    3    3    0    0  0.21069620052E+01  0.94818587598E+00 -0.10666101891E+01  0.25447991872E+01  0.51100000000E-03 0. -1.
        -11    1    3    3    0    0 -0.12643351051E+02  0.14089086350E+02  0.31642550179E+02  0.36872858067E+02  0.51100000000E-03 0.  1.
        -12    1    3    3    0    0  0.83693631980E+01 -0.40514193529E+00  0.72971473517E+01  0.11111198846E+02  0.00000000000E+00 0.  1.
</event>
<event>
 7    1  0.5764931E-013  0.5052886E+02  0.7816164E-02  0.1300439E+00
        -11   -1    0    0    0    0  0.00000000000E+00  0.00000000000E+00  0.45593999997E+02  0.45594000000E+02  0.51100000000E-03 0. -1.
         11   -1    0    0    0    0 -0.00000000000E+00 -0.00000000000E+00 -0.45593999997E+02  0.45594000000E+02  0.51100000000E-03 0.  1.
    9900012    2    1    2    0    0  0.35113096649E+01  0.20876167027E+02 -0.34713431244E+02  0.50528856452E+02  0.29999989672E+02 0.  0.
         12    1    1    2    0    0 -0.35113096649E+01 -0.20876167027E+02  0.34713431244E+02  0.40659143548E+02  0.00000000000E+00 0. -1.
         11    1    3    3    0    0  0.12056637724E+02  0.46257220036E+01 -0.31840989614E+01  0.13300312166E+02  0.51100000000E-03 0. -1.
        -11    1    3    3    0    0 -0.47468762463E+01  0.63885526747E+01 -0.20318822524E+02  0.21822029887E+02  0.51100000000E-03 0.  1.
         12    1    3    3    0    0 -0.37984518128E+01  0.98618923491E+01 -0.11210509759E+02  0.15406514399E+02  0.00000000000E+00 0. -1.
</event>
<event>
 7    1  0.5764931E-013  0.5052887E+02  0.7816164E-02  0.1300439E+00
        -11   -1    0    0    0    0  0.00000000000E+00  0.00000000000E+00  0.45593999997E+02  0.45594000000E+02  0.51100000000E-03 0.  1.
         11   -1    0    0    0    0 -0.00000000000E+00 -0.00000000000E+00 -0.45593999997E+02  0.45594000000E+02  0.51100000000E-03 0. -1.
    9900012    2    1    2    0    0  0.20575340336E+02  0.19968111430E+02  0.28828713029E+02  0.50528870656E+02  0.30000032847E+02 0.  0.
         12    1    1    2    0    0 -0.20575340336E+02 -0.19968111430E+02 -0.28828713029E+02  0.40659129344E+02  0.00000000000E+00 0. -1.
         11    1    3    3    0    0 -0.22943756440E+01 -0.53568725433E+01  0.19727795243E+01  0.61524062246E+01  0.51100000000E-03 0. -1.
        -11    1    3    3    0    0  0.21725955147E+02  0.23790288817E+02  0.27498404066E+02  0.42357492790E+02  0.51100000000E-03 0.  1.
        -12    1    3    3    0    0  0.11437608330E+01  0.15346951569E+01 -0.64247056096E+00  0.20189716416E+01  0.00000000000E+00 0.  1.
</event>
<event>
 7    1  0.5764931E-013  0.5052886E+02  0.7816164E-02  0.1300439E+00
        -11   -1    0    0    0    0  0.00000000000E+00  0.00000000000E+00  0.45593999997E+02  0.45594000000E+02  0.51100000000E-03 0.  1.
         11   -1    0    0    0    0 -0.00000000000E+00 -0.00000000000E+00 -0.45593999997E+02  0.45594000000E+02  0.51100000000E-03 0. -1.
    9900012    2    1    2    0    0 -0.12252676975E+02  0.19930690655E+02  0.33253650481E+02  0.50528858428E+02  0.29999995679E+02 0.  0.
         12    1    1    2    0    0  0.12252676975E+02 -0.19930690655E+02 -0.33253650481E+02  0.40659141572E+02  0.00000000000E+00 0. -1.
         11    1    3    3    0    0 -0.12039072253E+02  0.93654687545E+01  0.59185321348E+01  0.16360937889E+02  0.51100000000E-03 0. -1.
        -11    1    3    3    0    0 -0.51419780488E+01  0.12923527465E+02  0.24079549534E+02  0.27807952215E+02  0.51100000000E-03 0.  1.
        -12    1    3    3    0    0  0.49283733277E+01 -0.23583055642E+01  0.32555688120E+01  0.63599683239E+01  0.00000000000E+00 0.  1.
</event>
<event>
 7    1  0.5764931E-013  0.5052886E+02  0.7816164E-02  0.1300439E+00
        -11   -1    0    0    0    0  0.00000000000E+00  0.00000000000E+00  0.45593999997E+02  0.45594000000E+02  0.51100000000E-03 0. -1.
         11   -1    0    0    0    0 -0.00000000000E+00 -0.00000000000E+00 -0.45593999997E+02  0.45594000000E+02  0.51100000000E-03 0.  1.
    9900012    2    1    2    0    0  0.26944653087E+02  0.14073408510E+02 -0.27001675988E+02  0.50528860028E+02  0.30000000541E+02 0.  0.
         12    1    1    2    0    0 -0.26944653087E+02 -0.14073408510E+02  0.27001675988E+02  0.40659139972E+02  0.00000000000E+00 0. -1.
         11    1    3    3    0    0  0.63821050345E+01  0.81750436661E+01  0.16065866485E+01  0.10494938043E+02  0.51100000000E-03 0. -1.
        -11    1    3    3    0    0  0.46469007508E+01 -0.63781432527E+01 -0.75146965594E+01  0.10897020812E+02  0.51100000000E-03 0.  1.
        -12    1    3    3    0    0  0.15915647302E+02  0.12276508096E+02 -0.21093566077E+02  0.29136901173E+02  0.00000000000E+00 0.  1.
</event>
<event>
 7    1  0.5764931E-013  0.5052886E+02  0.7816164E-02  0.1300439E+00
        -11   -1    0    0    0    0  0.00000000000E+00  0.00000000000E+00  0.45593999997E+02  0.45594000000E+02  0.51100000000E-03 0.  1.
         11   -1    0    0    0    0 -0.00000000000E+00 -0.00000000000E+00 -0.45593999997E+02  0.45594000000E+02  0.51100000000E-03 0. -1.
    9900012    2    1    2    0    0  0.89016444591E+01  0.38092912524E+02  0.11084062490E+02  0.50528859577E+02  0.29999999171E+02 0.  0.
         12    1    1    2    0    0 -0.89016444591E+01 -0.38092912524E+02 -0.11084062490E+02  0.40659140423E+02  0.00000000000E+00 0. -1.
         11    1    3    3    0    0  0.17723936744E+01  0.11452792105E+02 -0.85590797525E+01  0.14407139647E+02  0.51100000000E-03 0. -1.
        -11    1    3    3    0    0  0.95363370076E+01  0.11817745581E+02  0.11425031482E+02  0.19003478070E+02  0.51100000000E-03 0.  1.
        -12    1    3    3    0    0 -0.24070862230E+01  0.14822374838E+02  0.82181107600E+01  0.17118241860E+02  0.00000000000E+00 0.  1.
</event>
<event>
 7    1  0.5764931E-013  0.5052886E+02  0.7816164E-02  0.1300439E+00
        -11   -1    0    0    0    0  0.00000000000E+00  0.00000000000E+00  0.45593999997E+02  0.45594000000E+02  0.51100000000E-03 0.  1.
         11   -1    0    0    0    0 -0.00000000000E+00 -0.00000000000E+00 -0.45593999997E+02  0.45594000000E+02  0.51100000000E-03 0. -1.
    9900012    2    1    2    0    0 -0.52089826972E+01  0.43239914653E+01  0.40091588830E+02  0.50528857143E+02  0.29999991773E+02 0.  0.
         12    1    1    2    0    0  0.52089826972E+01 -0.43239914653E+01 -0.40091588830E+02  0.40659142857E+02  0.00000000000E+00 0. -1.
         11    1    3    3    0    0 -0.11960764491E+01 -0.53108426274E+01 -0.29224855331E+01  0.61787191421E+01  0.51100000000E-03 0. -1.
        -11    1    3    3    0    0 -0.40533125636E+01  0.76700904728E+01  0.31650262582E+02  0.32817659155E+02  0.51100000000E-03 0.  1.
         12    1    3    3    0    0  0.40406315518E-01  0.19647436200E+01  0.11363811781E+02  0.11532478847E+02  0.00000000000E+00 0. -1.
</event>
<event>
 7    1  0.5764931E-013  0.5052886E+02  0.7816164E-02  0.1300439E+00
        -11   -1    0    0    0    0  0.00000000000E+00  0.00000000000E+00  0.45593999997E+02  0.45594000000E+02  0.51100000000E-03 0.  1.
         11   -1    0    0    0    0 -0.00000000000E+00 -0.00000000000E+00 -0.45593999997E+02  0.45594000000E+02  0.51100000000E-03 0. -1.
    9900012    2    1    2    0    0 -0.12409082382E+02  0.22002890489E+02  0.31859897984E+02  0.50528860622E+02  0.30000002346E+02 0.  0.
         12    1    1    2    0    0  0.12409082382E+02 -0.22002890489E+02 -0.31859897984E+02  0.40659139378E+02  0.00000000000E+00 0. -1.
         11    1    3    3    0    0 -0.25853278317E+00 -0.22952136217E+01 -0.43545647959E+01  0.49292067914E+01  0.51100000000E-03 0. -1.
        -11    1    3    3    0    0 -0.77638470061E+01  0.16792347717E+02  0.20299973299E+02  0.27465417863E+02  0.51100000000E-03 0.  1.
         12    1    3    3    0    0 -0.43867025926E+01  0.75057563935E+01  0.15914489481E+02  0.18134235967E+02  0.00000000000E+00 0. -1.
</event>
<event>
 7    1  0.5764931E-013  0.5052884E+02  0.7816164E-02  0.1300439E+00
        -11   -1    0    0    0    0  0.00000000000E+00  0.00000000000E+00  0.45593999997E+02  0.45594000000E+02  0.51100000000E-03 0.  1.
         11   -1    0    0    0    0 -0.00000000000E+00 -0.00000000000E+00 -0.45593999997E+02  0.45594000000E+02  0.51100000000E-03 0. -1.
    9900012    2    1    2    0    0  0.12776497449E+02  0.32635497588E+02  0.20611953224E+02  0.50528841061E+02  0.29999942890E+02 0.  0.
         12    1    1    2    0    0 -0.12776497449E+02 -0.32635497588E+02 -0.20611953224E+02  0.40659158939E+02  0.00000000000E+00 0. -1.
         11    1    3    3    0    0  0.12234554370E+01 -0.37335699266E+01  0.12149007729E+01  0.41124654105E+01  0.51100000000E-03 0. -1.
        -11    1    3    3    0    0  0.14333118618E+02  0.15946052141E+02  0.11614525394E+02  0.24384668720E+02  0.51100000000E-03 0.  1.
        -12    1    3    3    0    0 -0.27800766057E+01  0.20423015373E+02  0.77825270571E+01  0.22031706930E+02  0.00000000000E+00 0.  1.
</event>
<event>
 7    1  0.5764931E-013  0.5052885E+02  0.7816164E-02  0.1300439E+00
        -11   -1    0    0    0    0  0.00000000000E+00  0.00000000000E+00  0.45593999997E+02  0.45594000000E+02  0.51100000000E-03 0.  1.
         11   -1    0    0    0    0 -0.00000000000E+00 -0.00000000000E+00 -0.45593999997E+02  0.45594000000E+02  0.51100000000E-03 0. -1.
    9900012    2    1    2    0    0  0.38790693526E+02 -0.98201799910E+01  0.72119559129E+01  0.50528854075E+02  0.29999982447E+02 0.  0.
         12    1    1    2    0    0 -0.38790693526E+02  0.98201799910E+01 -0.72119559129E+01  0.40659145925E+02  0.00000000000E+00 0. -1.
         11    1    3    3    0    0  0.24162907563E+01 -0.77616790556E+01 -0.38418426536E+01  0.89912111541E+01  0.51100000000E-03 0. -1.
        -11    1    3    3    0    0  0.33262899723E+02  0.37261406634E+01  0.91618578143E+01  0.34702222712E+02  0.51100000000E-03 0.  1.
        -12    1    3    3    0    0  0.31115030458E+01 -0.57846415987E+01  0.18919407522E+01  0.68354202094E+01  0.00000000000E+00 0.  1.
</event>
<event>
 7    1  0.5764931E-013  0.5052887E+02  0.7816164E-02  0.1300439E+00
        -11   -1    0    0    0    0  0.00000000000E+00  0.00000000000E+00  0.45593999997E+02  0.45594000000E+02  0.51100000000E-03 0.  1.
         11   -1    0    0    0    0 -0.00000000000E+00 -0.00000000000E+00 -0.45593999997E+02  0.45594000000E+02  0.51100000000E-03 0. -1.
    9900012    2    1    2    0    0 -0.30516189191E+02 -0.83343651624E+00  0.26855776100E+02  0.50528866597E+02  0.30000020508E+02 0.  0.
         12    1    1    2    0    0  0.30516189191E+02  0.83343651624E+00 -0.26855776100E+02  0.40659133403E+02  0.00000000000E+00 0. -1.
         11    1    3    3    0    0 -0.17310224402E+01 -0.57922516449E+01  0.18523139693E+02  0.19484694562E+02  0.51100000000E-03 0. -1.
        -11    1    3    3    0    0 -0.25540216578E+02  0.38580014386E+01  0.50903445775E+01  0.26326762925E+02  0.51100000000E-03 0.  1.
         12    1    3    3    0    0 -0.32449501733E+01  0.11008136901E+01  0.32422918291E+01  0.47174091101E+01  0.00000000000E+00 0. -1.
</event>
<event>
 7    1  0.5764931E-013  0.5052886E+02  0.7816164E-02  0.1300439E+00
        -11   -1    0    0    0    0  0.00000000000E+00  0.00000000000E+00  0.45593999997E+02  0.45594000000E+02  0.51100000000E-03 0.  1.
         11   -1    0    0    0    0 -0.00000000000E+00 -0.00000000000E+00 -0.45593999997E+02  0.45594000000E+02  0.51100000000E-03 0. -1.
    9900012    2    1    2    0    0  0.31989627436E+02  0.25096403752E+02 -0.50869311958E-02  0.50528858707E+02  0.29999996527E+02 0.  0.
         12    1    1    2    0    0 -0.31989627436E+02 -0.25096403752E+02  0.50869311958E-02  0.40659141293E+02  0.00000000000E+00 0. -1.
         11    1    3    3    0    0  0.78331149968E+01  0.85273401339E+00  0.97203625847E+01  0.12512805237E+02  0.51100000000E-03 0. -1.
        -11    1    3    3    0    0  0.18935153941E+02  0.10866934167E+02 -0.90714322439E+01  0.23641514253E+02  0.51100000000E-03 0.  1.
        -12    1    3    3    0    0  0.52213584984E+01  0.13376735572E+02 -0.65401727203E+00  0.14374539218E+02  0.00000000000E+00 0.  1.
</event>
<event>
 7    1  0.5764931E-013  0.5052886E+02  0.7816164E-02  0.1300439E+00
        -11   -1    0    0    0    0  0.00000000000E+00  0.00000000000E+00  0.45593999997E+02  0.45594000000E+02  0.51100000000E-03 0.  1.
         11   -1    0    0    0    0 -0.00000000000E+00 -0.00000000000E+00 -0.45593999997E+02  0.45594000000E+02  0.51100000000E-03 0. -1.
    9900012    2    1    2    0    0 -0.21663687898E+02 -0.12092917214E+02  0.32211978257E+02  0.50528861257E+02  0.30000004277E+02 0.  0.
         12    1    1    2    0    0  0.21663687898E+02  0.12092917214E+02 -0.32211978257E+02  0.40659138743E+02  0.00000000000E+00 0. -1.
         11    1    3    3    0    0 -0.24140835557E+02 -0.88155099025E+01  0.13909157966E+02  0.29222556901E+02  0.51100000000E-03 0. -1.
        -11    1    3    3    0    0  0.14915956982E+01 -0.62841170226E+01  0.16371196766E+02  0.17599178057E+02  0.51100000000E-03 0.  1.
        -12    1    3    3    0    0  0.98555196096E+00  0.30067097109E+01  0.19316235248E+01  0.37071262988E+01  0.00000000000E+00 0.  1.
</event>
<event>
 7    1  0.5764931E-013  0.5052885E+02  0.7816164E-02  0.1300439E+00
        -11   -1    0    0    0    0  0.00000000000E+00  0.00000000000E+00  0.45593999997E+02  0.45594000000E+02  0.51100000000E-03 0.  1.
         11   -1    0    0    0    0 -0.00000000000E+00 -0.00000000000E+00 -0.45593999997E+02  0.45594000000E+02  0.51100000000E-03 0. -1.
    9900012    2    1    2    0    0  0.30125943609E+01  0.43931628690E+01  0.40308695068E+02  0.50528849703E+02  0.29999969158E+02 0.  0.
         12    1    1    2    0    0 -0.30125943609E+01 -0.43931628690E+01 -0.40308695068E+02  0.40659150297E+02  0.00000000000E+00 0. -1.
         11    1    3    3    0    0  0.55913244906E+01 -0.29117638931E+01  0.15583302032E+02  0.16810133283E+02  0.51100000000E-03 0. -1.
        -11    1    3    3    0    0  0.26722806713E+01  0.10629644721E+02  0.33542137041E+01  0.11462163003E+02  0.51100000000E-03 0.  1.
        -12    1    3    3    0    0 -0.52510108010E+01 -0.33247179587E+01  0.21371179332E+02  0.22256553417E+02  0.00000000000E+00 0.  1.
</event>
<event>
 7    1  0.5764931E-013  0.5052886E+02  0.7816164E-02  0.1300439E+00
        -11   -1    0    0    0    0  0.00000000000E+00  0.00000000000E+00  0.45593999997E+02  0.45594000000E+02  0.51100000000E-03 0.  1.
         11   -1    0    0    0    0 -0.00000000000E+00 -0.00000000000E+00 -0.45593999997E+02  0.45594000000E+02  0.51100000000E-03 0. -1.
    9900012    2    1    2    0    0  0.14631141166E+02  0.33857505354E+02  0.17110372146E+02  0.50528858401E+02  0.29999995595E+02 0.  0.
         12    1    1    2    0    0 -0.14631141166E+02 -0.33857505354E+02 -0.17110372146E+02  0.40659141599E+02  0.00000000000E+00 0. -1.
         11    1    3    3    0    0  0.46552464150E+01 -0.84828645280E+00  0.91234501084E+01  0.10277560568E+02  0.51100000000E-03 0.  1.
        -11    1    3    3    0    0 -0.34334642443E+01  0.16331945728E+02  0.39352345591E+01  0.17146638134E+02  0.51100000000E-03 0. -1.
         12    1    3    3    0    0  0.13409358995E+02  0.18373846078E+02  0.40516874787E+01  0.23104659699E+02  0.00000000000E+00 0. -1.
</event>
<event>
 7    1  0.5764931E-013  0.5052885E+02  0.7816164E-02  0.1300439E+00
        -11   -1    0    0    0    0  0.00000000000E+00  0.00000000000E+00  0.45593999997E+02  0.45594000000E+02  0.51100000000E-03 0.  1.
         11   -1    0    0    0    0 -0.00000000000E+00 -0.00000000000E+00 -0.45593999997E+02  0.45594000000E+02  0.51100000000E-03 0. -1.
    9900012    2    1    2    0    0  0.18098485470E+02  0.36402954280E+02 -0.66020013895E+00  0.50528854401E+02  0.29999983438E+02 0.  0.
         12    1    1    2    0    0 -0.18098485470E+02 -0.36402954280E+02  0.66020013895E+00  0.40659145599E+02  0.00000000000E+00 0. -1.
         11    1    3    3    0    0 -0.25284832656E+01 -0.12589199142E+01  0.55174955457E+01  0.61984566090E+01  0.51100000000E-03 0. -1.
        -11    1    3    3    0    0  0.15295372448E+02  0.20988161936E+02 -0.66881038680E+01  0.26817570610E+02  0.51100000000E-03 0.  1.
        -12    1    3    3    0    0  0.53315962878E+01  0.16673712257E+02  0.51040818333E+00  0.17512827183E+02  0.00000000000E+00 0.  1.
</event>
<event>
 7    1  0.5764931E-013  0.5052888E+02  0.7816164E-02  0.1300439E+00
        -11   -1    0    0    0    0  0.00000000000E+00  0.00000000000E+00  0.45593999997E+02  0.45594000000E+02  0.51100000000E-03 0. -1.
         11   -1    0    0    0    0 -0.00000000000E+00 -0.00000000000E+00 -0.45593999997E+02  0.45594000000E+02  0.51100000000E-03 0.  1.
    9900012    2    1    2    0    0  0.97089122255E+01 -0.27097200715E+02 -0.28716597952E+02  0.50528877271E+02  0.30000052953E+02 0.  0.
         12    1    1    2    0    0 -0.97089122255E+01  0.27097200715E+02  0.28716597952E+02  0.40659122729E+02  0.00000000000E+00 0. -1.
         11    1    3    3    0    0 -0.30276411875E+01  0.28215340434E-01  0.11763347287E+00  0.30300569567E+01  0.51100000000E-03 0.  1.
        -11    1    3    3    0    0  0.15927298797E+02 -0.15585857654E+02 -0.83991844709E+01  0.23814787545E+02  0.51100000000E-03 0. -1.
        -12    1    3    3    0    0 -0.31907453845E+01 -0.11539558401E+02 -0.20435046954E+02  0.23684032769E+02  0.00000000000E+00 0.  1.
</event>
<event>
 7    1  0.5764931E-013  0.5052886E+02  0.7816164E-02  0.1300439E+00
        -11   -1    0    0    0    0  0.00000000000E+00  0.00000000000E+00  0.45593999997E+02  0.45594000000E+02  0.51100000000E-03 0. -1.
         11   -1    0    0    0    0 -0.00000000000E+00 -0.00000000000E+00 -0.45593999997E+02  0.45594000000E+02  0.51100000000E-03 0.  1.
    9900012    2    1    2    0    0 -0.40556851836E+02  0.15663567267E+01 -0.24194543493E+01  0.50528862484E+02  0.30000008006E+02 0.  0.
         12    1    1    2    0    0  0.40556851836E+02 -0.15663567267E+01  0.24194543493E+01  0.40659137516E+02  0.00000000000E+00 0. -1.
         11    1    3    3    0    0 -0.11693603217E+02 -0.11500611919E+02 -0.45547040562E+01  0.17022037481E+02  0.51100000000E-03 0. -1.
        -11    1    3    3    0    0 -0.21740762663E+02  0.45051663898E+01  0.26355895604E+01  0.22358524503E+02  0.51100000000E-03 0.  1.
         12    1    3    3    0    0 -0.71224859564E+01  0.85618022561E+01 -0.50033985352E+00  0.11148300500E+02  0.00000000000E+00 0. -1.
</event>
<event>
 7    1  0.5764931E-013  0.5052885E+02  0.7816164E-02  0.1300439E+00
        -11   -1    0    0    0    0  0.00000000000E+00  0.00000000000E+00  0.45593999997E+02  0.45594000000E+02  0.51100000000E-03 0.  1.
         11   -1    0    0    0    0 -0.00000000000E+00 -0.00000000000E+00 -0.45593999997E+02  0.45594000000E+02  0.51100000000E-03 0. -1.
    9900012    2    1    2    0    0  0.27816269520E+02 -0.95428188114E+01  0.28077681533E+02  0.50528850462E+02  0.29999971465E+02 0.  0.
         12    1    1    2    0    0 -0.27816269520E+02  0.95428188114E+01 -0.28077681533E+02  0.40659149538E+02  0.00000000000E+00 0. -1.
         11    1    3    3    0    0  0.83156474816E+01  0.29996751974E+01  0.75069381553E+01  0.11597506847E+02  0.51100000000E-03 0. -1.
        -11    1    3    3    0    0  0.16052218058E+02 -0.16072999101E+02  0.59242940272E+01  0.23475780384E+02  0.51100000000E-03 0.  1.
        -12    1    3    3    0    0  0.34484039798E+01  0.35305050919E+01  0.14646449351E+02  0.15455563231E+02  0.00000000000E+00 0.  1.
</event>
<event>
 7    1  0.5764931E-013  0.5052886E+02  0.7816164E-02  0.1300439E+00
        -11   -1    0    0    0    0  0.00000000000E+00  0.00000000000E+00  0.45593999997E+02  0.45594000000E+02  0.51100000000E-03 0.  1.
         11   -1    0    0    0    0 -0.00000000000E+00 -0.00000000000E+00 -0.45593999997E+02  0.45594000000E+02  0.51100000000E-03 0. -1.
    9900012    2    1    2    0    0 -0.72929065005E+01  0.38361718107E+02  0.11329508124E+02  0.50528860121E+02  0.30000000824E+02 0.  0.
         12    1    1    2    0    0  0.72929065005E+01 -0.38361718107E+02 -0.11329508124E+02  0.40659139879E+02  0.00000000000E+00 0. -1.
         11    1    3    3    0    0  0.45390324006E+01  0.19265283393E+02  0.57394998486E+01  0.20608149313E+02  0.51100000000E-03 0.  1.
        -11    1    3    3    0    0 -0.13927922998E+02  0.82965405284E+01  0.88190402194E+01  0.18455218623E+02  0.51100000000E-03 0. -1.
         12    1    3    3    0    0  0.20959840964E+01  0.10799894186E+02 -0.32290319437E+01  0.11465492185E+02  0.00000000000E+00 0. -1.
</event>
<event>
 7    1  0.5764931E-013  0.5052886E+02  0.7816164E-02  0.1300439E+00
        -11   -1    0    0    0    0  0.00000000000E+00  0.00000000000E+00  0.45593999997E+02  0.45594000000E+02  0.51100000000E-03 0.  1.
         11   -1    0    0    0    0 -0.00000000000E+00 -0.00000000000E+00 -0.45593999997E+02  0.45594000000E+02  0.51100000000E-03 0. -1.
    9900012    2    1    2    0    0  0.11190057705E+02 -0.22599855365E+02  0.31893489224E+02  0.50528861927E+02  0.30000006313E+02 0.  0.
         12    1    1    2    0    0 -0.11190057705E+02  0.22599855365E+02 -0.31893489224E+02  0.40659138073E+02  0.00000000000E+00 0. -1.
         11    1    3    3    0    0  0.10788182339E+02 -0.20161393625E+02  0.68929713109E+01  0.23882623910E+02  0.51100000000E-03 0. -1.
        -11    1    3    3    0    0 -0.10688634565E+01 -0.25334511396E+01  0.15638986178E+01  0.31633246614E+01  0.51100000000E-03 0.  1.
         12    1    3    3    0    0  0.14707388223E+01  0.94989399374E-01  0.23436619295E+02  0.23482913355E+02  0.00000000000E+00 0. -1.
</event>
<event>
 7    1  0.5764931E-013  0.5052885E+02  0.7816164E-02  0.1300439E+00
        -11   -1    0    0    0    0  0.00000000000E+00  0.00000000000E+00  0.45593999997E+02  0.45594000000E+02  0.51100000000E-03 0. -1.
         11   -1    0    0    0    0 -0.00000000000E+00 -0.00000000000E+00 -0.45593999997E+02  0.45594000000E+02  0.51100000000E-03 0.  1.
    9900012    2    1    2    0    0  0.14239791333E+02  0.15405672549E+02 -0.34829009675E+02  0.50528851966E+02  0.29999976036E+02 0.  0.
         12    1    1    2    0    0 -0.14239791333E+02 -0.15405672549E+02  0.34829009675E+02  0.40659148034E+02  0.00000000000E+00 0. -1.
         11    1    3    3    0    0  0.81634218599E+01 -0.42745271824E+01 -0.21258695942E+02  0.23169919994E+02  0.51100000000E-03 0. -1.
        -11    1    3    3    0    0  0.11924319428E+01 -0.25300023714E+00 -0.49522784963E+01  0.51000946682E+01  0.51100000000E-03 0.  1.
         12    1    3    3    0    0  0.48839375306E+01  0.19933199969E+02 -0.86180352365E+01  0.22258837304E+02  0.00000000000E+00 0. -1.
</event>
<event>
 7    1  0.5764931E-013  0.5052883E+02  0.7816164E-02  0.1300439E+00
        -11   -1    0    0    0    0  0.00000000000E+00  0.00000000000E+00  0.45593999997E+02  0.45594000000E+02  0.51100000000E-03 0.  1.
         11   -1    0    0    0    0 -0.00000000000E+00 -0.00000000000E+00 -0.45593999997E+02  0.45594000000E+02  0.51100000000E-03 0. -1.
    9900012    2    1    2    0    0 -0.32226501805E+02 -0.11293535444E+02  0.22069815357E+02  0.50528829923E+02  0.29999909035E+02 0.  0.
         12    1    1    2    0    0  0.32226501805E+02  0.11293535444E+02 -0.22069815357E+02  0.40659170077E+02  0.00000000000E+00 0. -1.
         11    1    3    3    0    0 -0.16870996579E+01  0.75273235406E+01  0.84632120997E+01  0.11451325873E+02  0.51100000000E-03 0. -1.
        -11    1    3    3    0    0 -0.11820715471E+02 -0.98277511989E+01  0.89738324031E+01  0.17800103262E+02  0.51100000000E-03 0.  1.
         12    1    3    3    0    0 -0.18718686676E+02 -0.89931077857E+01  0.46327708546E+01  0.21277400788E+02  0.00000000000E+00 0. -1.
</event>
<event>
 7    1  0.5764931E-013  0.5052886E+02  0.7816164E-02  0.1300439E+00
        -11   -1    0    0    0    0  0.00000000000E+00  0.00000000000E+00  0.45593999997E+02  0.45594000000E+02  0.51100000000E-03 0.  1.
         11   -1    0    0    0    0 -0.00000000000E+00 -0.00000000000E+00 -0.45593999997E+02  0.45594000000E+02  0.51100000000E-03 0. -1.
    9900012    2    1    2    0    0  0.23050505756E+02  0.12418199249E+02  0.31106728733E+02  0.50528855141E+02  0.29999985687E+02 0.  0.
         12    1    1    2    0    0 -0.23050505756E+02 -0.12418199249E+02 -0.31106728733E+02  0.40659144859E+02  0.00000000000E+00 0. -1.
         11    1    3    3    0    0 -0.32658144296E+01  0.37473059722E+01  0.14064457122E+01  0.51658431780E+01  0.51100000000E-03 0. -1.
        -11    1    3    3    0    0  0.25992102390E+02  0.27958045331E+01  0.16507859551E+02  0.30917880537E+02  0.51100000000E-03 0.  1.
        -12    1    3    3    0    0  0.32421779500E+00  0.58750887434E+01  0.13192423469E+02  0.14445131426E+02  0.00000000000E+00 0.  1.
</event>
<event>
 7    1  0.5764931E-013  0.5052888E+02  0.7816164E-02  0.1300439E+00
        -11   -1    0    0    0    0  0.00000000000E+00  0.00000000000E+00  0.45593999997E+02  0.45594000000E+02  0.51100000000E-03 0. -1.
         11   -1    0    0    0    0 -0.00000000000E+00 -0.00000000000E+00 -0.45593999997E+02  0.45594000000E+02  0.51100000000E-03 0.  1.
    9900012    2    1    2    0    0  0.93611419872E+01  0.37197176943E+02 -0.13487155778E+02  0.50528876512E+02  0.30000050646E+02 0.  0.
         12    1    1    2    0    0 -0.93611419872E+01 -0.37197176943E+02  0.13487155778E+02  0.40659123488E+02  0.00000000000E+00 0. -1.
         11    1    3    3    0    0  0.15023059813E+02  0.23025037655E+02 -0.23819303419E+01  0.27595620623E+02  0.51100000000E-03 0. -1.
        -11    1    3    3    0    0 -0.49840369185E+01  0.38394348509E+01 -0.10889264708E+02  0.12576087234E+02  0.51100000000E-03 0.  1.
        -12    1    3    3    0    0 -0.67788090688E+00  0.10332704438E+02 -0.21596072795E+00  0.10357168655E+02  0.00000000000E+00 0.  1.
</event>
<event>
 7    1  0.5764931E-013  0.5052886E+02  0.7816164E-02  0.1300439E+00
        -11   -1    0    0    0    0  0.00000000000E+00  0.00000000000E+00  0.45593999997E+02  0.45594000000E+02  0.51100000000E-03 0.  1.
         11   -1    0    0    0    0 -0.00000000000E+00 -0.00000000000E+00 -0.45593999997E+02  0.45594000000E+02  0.51100000000E-03 0. -1.
    9900012    2    1    2    0    0  0.17577268734E+02 -0.24378916216E+02  0.27383818230E+02  0.50528862862E+02  0.30000009154E+02 0.  0.
         12    1    1    2    0    0 -0.17577268734E+02  0.24378916216E+02 -0.27383818230E+02  0.40659137138E+02  0.00000000000E+00 0. -1.
         11    1    3    3    0    0 -0.33253355672E+01 -0.14116807626E+02  0.11292443322E+02  0.18381006247E+02  0.51100000000E-03 0. -1.
        -11    1    3    3    0    0  0.16473832234E+02 -0.12066496906E+02  0.64990662882E+01  0.21429544067E+02  0.51100000000E-03 0.  1.
        -12    1    3    3    0    0  0.44287720672E+01  0.18043883167E+01  0.95923086195E+01  0.10718312548E+02  0.00000000000E+00 0.  1.
</event>
<event>
 7    1  0.5764931E-013  0.5052886E+02  0.7816164E-02  0.1300439E+00
        -11   -1    0    0    0    0  0.00000000000E+00  0.00000000000E+00  0.45593999997E+02  0.45594000000E+02  0.51100000000E-03 0. -1.
         11   -1    0    0    0    0 -0.00000000000E+00 -0.00000000000E+00 -0.45593999997E+02  0.45594000000E+02  0.51100000000E-03 0.  1.
    9900012    2    1    2    0    0  0.85673791126E+00  0.93811298114E+00 -0.40639291382E+02  0.50528855151E+02  0.29999985717E+02 0.  0.
         12    1    1    2    0    0 -0.85673791126E+00 -0.93811298114E+00  0.40639291382E+02  0.40659144849E+02  0.00000000000E+00 0. -1.
         11    1    3    3    0    0 -0.35643911126E+01  0.60244450571E+01 -0.17217902446E+02  0.18586419428E+02  0.51100000000E-03 0. -1.
        -11    1    3    3    0    0  0.12572321036E+02 -0.18896963522E+01 -0.16199827494E+02  0.20592926446E+02  0.51100000000E-03 0.  1.
        -12    1    3    3    0    0 -0.81511920118E+01 -0.31966357237E+01 -0.72215614417E+01  0.11349509277E+02  0.00000000000E+00 0.  1.
</event>
<event>
 7    1  0.5764931E-013  0.5052886E+02  0.7816164E-02  0.1300439E+00
        -11   -1    0    0    0    0  0.00000000000E+00  0.00000000000E+00  0.45593999997E+02  0.45594000000E+02  0.51100000000E-03 0.  1.
         11   -1    0    0    0    0 -0.00000000000E+00 -0.00000000000E+00 -0.45593999997E+02  0.45594000000E+02  0.51100000000E-03 0. -1.
    9900012    2    1    2    0    0 -0.40426247832E+02  0.10002734839E+01  0.42288889463E+01  0.50528861267E+02  0.30000004307E+02 0.  0.
         12    1    1    2    0    0  0.40426247832E+02 -0.10002734839E+01 -0.42288889463E+01  0.40659138733E+02  0.00000000000E+00 0. -1.
         11    1    3    3    0    0  0.42994413715E+00 -0.48960361834E+01 -0.38406205820E+01  0.62374986162E+01  0.51100000000E-03 0. -1.
        -11    1    3    3    0    0 -0.17674042389E+02  0.17052711008E+01  0.10467229241E+02  0.20611710558E+02  0.51100000000E-03 0.  1.
        -12    1    3    3    0    0 -0.23182149580E+02  0.41910385665E+01 -0.23977197123E+01  0.23679652093E+02  0.00000000000E+00 0.  1.
</event>
<event>
 7    1  0.5764931E-013  0.5052889E+02  0.7816164E-02  0.1300439E+00
        -11   -1    0    0    0    0  0.00000000000E+00  0.00000000000E+00  0.45593999997E+02  0.45594000000E+02  0.51100000000E-03 0. -1.
         11   -1    0    0    0    0 -0.00000000000E+00 -0.00000000000E+00 -0.45593999997E+02  0.45594000000E+02  0.51100000000E-03 0.  1.
    9900012    2    1    2    0    0 -0.35835084933E+01 -0.67897475585E+01 -0.39927697073E+02  0.50528890337E+02  0.30000092668E+02 0.  0.
         12    1    1    2    0    0  0.35835084933E+01  0.67897475585E+01  0.39927697073E+02  0.40659109663E+02  0.00000000000E+00 0. -1.
         11    1    3    3    0    0  0.22106398715E+00  0.11449884221E+02 -0.13871461049E+02  0.17987944570E+02  0.51100000000E-03 0. -1.
        -11    1    3    3    0    0  0.44603177578E+00 -0.50190869274E+01 -0.10758733827E+02  0.11880258067E+02  0.51100000000E-03 0.  1.
         12    1    3    3    0    0 -0.42506042562E+01 -0.13220544852E+02 -0.15297502197E+02  0.20660687699E+02  0.00000000000E+00 0. -1.
</event>
<event>
 7    1  0.5764931E-013  0.5052886E+02  0.7816164E-02  0.1300439E+00
        -11   -1    0    0    0    0  0.00000000000E+00  0.00000000000E+00  0.45593999997E+02  0.45594000000E+02  0.51100000000E-03 0.  1.
         11   -1    0    0    0    0 -0.00000000000E+00 -0.00000000000E+00 -0.45593999997E+02  0.45594000000E+02  0.51100000000E-03 0. -1.
    9900012    2    1    2    0    0 -0.34025448835E+02 -0.78212100941E+01  0.20838983951E+02  0.50528858987E+02  0.29999997378E+02 0.  0.
         12    1    1    2    0    0  0.34025448835E+02  0.78212100941E+01 -0.20838983951E+02  0.40659141013E+02  0.00000000000E+00 0. -1.
         11    1    3    3    0    0  0.32055935057E+01 -0.31521291514E+01  0.90091828581E+00  0.45851283438E+01  0.51100000000E-03 0. -1.
        -11    1    3    3    0    0 -0.33208371660E+02 -0.83966180439E+01  0.21243708725E+02  0.40306256382E+02  0.51100000000E-03 0.  1.
        -12    1    3    3    0    0 -0.40226706810E+01  0.37275371011E+01 -0.13056430604E+01  0.56374742615E+01  0.00000000000E+00 0.  1.
</event>
<event>
 7    1  0.5764931E-013  0.5052881E+02  0.7816164E-02  0.1300439E+00
        -11   -1    0    0    0    0  0.00000000000E+00  0.00000000000E+00  0.45593999997E+02  0.45594000000E+02  0.51100000000E-03 0. -1.
         11   -1    0    0    0    0 -0.00000000000E+00 -0.00000000000E+00 -0.45593999997E+02  0.45594000000E+02  0.51100000000E-03 0.  1.
    9900012    2    1    2    0    0  0.10903632228E+01  0.40613866030E+02 -0.15793503610E+01  0.50528814649E+02  0.29999862607E+02 0.  0.
         12    1    1    2    0    0 -0.10903632228E+01 -0.40613866030E+02  0.15793503610E+01  0.40659185351E+02  0.00000000000E+00 0. -1.
         11    1    3    3    0    0  0.11059211142E+02  0.31896725775E+02 -0.87917990152E+00  0.33770996784E+02  0.51100000000E-03 0. -1.
        -11    1    3    3    0    0 -0.11350891625E+02  0.84187362852E+01 -0.26205658417E+01  0.14373072981E+02  0.51100000000E-03 0.  1.
         12    1    3    3    0    0  0.13820437066E+01  0.29840396917E+00  0.19203953822E+01  0.23847448836E+01  0.00000000000E+00 0. -1.
</event>
<event>
 7    1  0.5764931E-013  0.5052886E+02  0.7816164E-02  0.1300439E+00
        -11   -1    0    0    0    0  0.00000000000E+00  0.00000000000E+00  0.45593999997E+02  0.45594000000E+02  0.51100000000E-03 0. -1.
         11   -1    0    0    0    0 -0.00000000000E+00 -0.00000000000E+00 -0.45593999997E+02  0.45594000000E+02  0.51100000000E-03 0.  1.
    9900012    2    1    2    0    0  0.26474065937E+01 -0.25263514685E+02 -0.31747622720E+02  0.50528862229E+02  0.30000007231E+02 0.  0.
         12    1    1    2    0    0 -0.26474065937E+01  0.25263514685E+02  0.31747622720E+02  0.40659137771E+02  0.00000000000E+00 0. -1.
         11    1    3    3    0    0 -0.71041421112E+01 -0.51216461836E+01  0.17733489189E+01  0.89355951909E+01  0.51100000000E-03 0. -1.
        -11    1    3    3    0    0  0.84221460239E+01 -0.11268048393E+02 -0.12826827325E+02  0.19037567012E+02  0.51100000000E-03 0.  1.
        -12    1    3    3    0    0  0.13294026811E+01 -0.88738201091E+01 -0.20694144313E+02  0.22555700026E+02  0.00000000000E+00 0.  1.
</event>
<event>
 7    1  0.5764931E-013  0.5052886E+02  0.7816164E-02  0.1300439E+00
        -11   -1    0    0    0    0  0.00000000000E+00  0.00000000000E+00  0.45593999997E+02  0.45594000000E+02  0.51100000000E-03 0.  1.
         11   -1    0    0    0    0 -0.00000000000E+00 -0.00000000000E+00 -0.45593999997E+02  0.45594000000E+02  0.51100000000E-03 0. -1.
    9900012    2    1    2    0    0 -0.14175162453E+02  0.25165076306E+02  0.28617290892E+02  0.50528860387E+02  0.30000001632E+02 0.  0.
         12    1    1    2    0    0  0.14175162453E+02 -0.25165076306E+02 -0.28617290892E+02  0.40659139613E+02  0.00000000000E+00 0. -1.
         11    1    3    3    0    0 -0.29686279225E+01  0.41167466238E+01  0.18936088666E+02  0.19604484403E+02  0.51100000000E-03 0.  1.
        -11    1    3    3    0    0 -0.11747722065E+02  0.13962045479E+02 -0.79598966989E+00  0.18264207825E+02  0.51100000000E-03 0. -1.
         12    1    3    3    0    0  0.54118753449E+00  0.70862842038E+01  0.10477191896E+02  0.12660168158E+02  0.00000000000E+00 0. -1.
</event>
<event>
 7    1  0.5764931E-013  0.5052886E+02  0.7816164E-02  0.1300439E+00
        -11   -1    0    0    0    0  0.00000000000E+00  0.00000000000E+00  0.45593999997E+02  0.45594000000E+02  0.51100000000E-03 0. -1.
         11   -1    0    0    0    0 -0.00000000000E+00 -0.00000000000E+00 -0.45593999997E+02  0.45594000000E+02  0.51100000000E-03 0.  1.
    9900012    2    1    2    0    0  0.35857317070E+02  0.17652933914E+02  0.74694172821E+01  0.50528862555E+02  0.30000008223E+02 0.  0.
         12    1    1    2    0    0 -0.35857317070E+02 -0.17652933914E+02 -0.74694172821E+01  0.40659137445E+02  0.00000000000E+00 0. -1.
         11    1    3    3    0    0  0.26764326250E+02  0.96447346732E+01 -0.52077496744E+01  0.28921803600E+02  0.51100000000E-03 0.  1.
        -11    1    3    3    0    0  0.10764061497E+02  0.97847115180E+01  0.12468769503E+02  0.19159222651E+02  0.51100000000E-03 0. -1.
        -12    1    3    3    0    0 -0.16710706770E+01 -0.17765122769E+01  0.20839745360E+00  0.24478363050E+01  0.00000000000E+00 0.  1.
</event>
<event>
 7    1  0.5764931E-013  0.5052879E+02  0.7816164E-02  0.1300439E+00
        -11   -1    0    0    0    0  0.00000000000E+00  0.00000000000E+00  0.45593999997E+02  0.45594000000E+02  0.51100000000E-03 0. -1.
         11   -1    0    0    0    0 -0.00000000000E+00 -0.00000000000E+00 -0.45593999997E+02  0.45594000000E+02  0.51100000000E-03 0.  1.
    9900012    2    1    2    0    0  0.26587520181E+02  0.23115881948E+01 -0.30674615942E+02  0.50528785392E+02  0.29999773678E+02 0.  0.
         12    1    1    2    0    0 -0.26587520181E+02 -0.23115881948E+01  0.30674615942E+02  0.40659214608E+02  0.00000000000E+00 0. -1.
         11    1    3    3    0    0  0.34877756175E+00  0.74244670055E+00  0.15047458163E+01  0.17138066179E+01  0.51100000000E-03 0. -1.
        -11    1    3    3    0    0  0.31231334075E+02  0.32710520621E+01 -0.28225240165E+02  0.42222744964E+02  0.51100000000E-03 0.  1.
        -12    1    3    3    0    0 -0.49925914564E+01 -0.17019105678E+01 -0.39541215933E+01  0.65922338100E+01  0.00000000000E+00 0.  1.
</event>
<event>
 7    1  0.5764931E-013  0.5052889E+02  0.7816164E-02  0.1300439E+00
        -11   -1    0    0    0    0  0.00000000000E+00  0.00000000000E+00  0.45593999997E+02  0.45594000000E+02  0.51100000000E-03 0. -1.
         11   -1    0    0    0    0 -0.00000000000E+00 -0.00000000000E+00 -0.45593999997E+02  0.45594000000E+02  0.51100000000E-03 0.  1.
    9900012    2    1    2    0    0 -0.29193158224E+02 -0.54436850665E+01 -0.27772096202E+02  0.50528886364E+02  0.30000080592E+02 0.  0.
         12    1    1    2    0    0  0.29193158224E+02  0.54436850665E+01  0.27772096202E+02  0.40659113636E+02  0.00000000000E+00 0. -1.
         11    1    3    3    0    0 -0.12667822579E+02 -0.93038054301E+01 -0.19239939801E+02  0.24843707617E+02  0.51100000000E-03 0. -1.
        -11    1    3    3    0    0 -0.26723422536E+01 -0.42835134317E+01  0.30302997905E+01  0.58883459070E+01  0.51100000000E-03 0.  1.
        -12    1    3    3    0    0 -0.13852993392E+02  0.81436337953E+01 -0.11562456192E+02  0.19796832840E+02  0.00000000000E+00 0.  1.
</event>
<event>
 7    1  0.5764931E-013  0.5052886E+02  0.7816164E-02  0.1300439E+00
        -11   -1    0    0    0    0  0.00000000000E+00  0.00000000000E+00  0.45593999997E+02  0.45594000000E+02  0.51100000000E-03 0. -1.
         11   -1    0    0    0    0 -0.00000000000E+00 -0.00000000000E+00 -0.45593999997E+02  0.45594000000E+02  0.51100000000E-03 0.  1.
    9900012    2    1    2    0    0  0.39499018636E+02  0.88774082148E+01  0.37662610658E+01  0.50528861147E+02  0.30000003943E+02 0.  0.
         12    1    1    2    0    0 -0.39499018636E+02 -0.88774082148E+01 -0.37662610658E+01  0.40659138853E+02  0.00000000000E+00 0. -1.
         11    1    3    3    0    0  0.27437986675E+01 -0.13902635324E+01  0.38355267026E+01  0.49165566370E+01  0.51100000000E-03 0. -1.
        -11    1    3    3    0    0  0.30147401012E+02  0.14862424674E+02  0.76380621330E+01  0.34468789482E+02  0.51100000000E-03 0.  1.
        -12    1    3    3    0    0  0.66078189570E+01 -0.45947529269E+01 -0.77073277699E+01  0.11143515028E+02  0.00000000000E+00 0.  1.
</event>
<event>
 7    1  0.5764931E-013  0.5052886E+02  0.7816164E-02  0.1300439E+00
        -11   -1    0    0    0    0  0.00000000000E+00  0.00000000000E+00  0.45593999997E+02  0.45594000000E+02  0.51100000000E-03 0.  1.
         11   -1    0    0    0    0 -0.00000000000E+00 -0.00000000000E+00 -0.45593999997E+02  0.45594000000E+02  0.51100000000E-03 0. -1.
    9900012    2    1    2    0    0 -0.11907733693E+02 -0.13507455509E+01  0.38852894491E+02  0.50528855326E+02  0.29999986249E+02 0.  0.
         12    1    1    2    0    0  0.11907733693E+02  0.13507455509E+01 -0.38852894491E+02  0.40659144674E+02  0.00000000000E+00 0. -1.
         11    1    3    3    0    0  0.63134141916E+01  0.25425201536E+01  0.82912662217E+01  0.10727008125E+02  0.51100000000E-03 0. -1.
        -11    1    3    3    0    0 -0.13393462257E+02  0.32876639275E+01  0.87401094443E+01  0.16327372069E+02  0.51100000000E-03 0.  1.
         12    1    3    3    0    0 -0.48276856283E+01 -0.71809296320E+01  0.21821518825E+02  0.23474475133E+02  0.00000000000E+00 0. -1.
</event>
<event>
 7    1  0.5764931E-013  0.5052887E+02  0.7816164E-02  0.1300439E+00
        -11   -1    0    0    0    0  0.00000000000E+00  0.00000000000E+00  0.45593999997E+02  0.45594000000E+02  0.51100000000E-03 0. -1.
         11   -1    0    0    0    0 -0.00000000000E+00 -0.00000000000E+00 -0.45593999997E+02  0.45594000000E+02  0.51100000000E-03 0.  1.
    9900012    2    1    2    0    0  0.31344862309E+02  0.23496405796E+02  0.10889613844E+02  0.50528866117E+02  0.30000019048E+02 0.  0.
         12    1    1    2    0    0 -0.31344862309E+02 -0.23496405796E+02 -0.10889613844E+02  0.40659133883E+02  0.00000000000E+00 0. -1.
         11    1    3    3    0    0  0.23746844620E+02  0.17815912320E+02  0.21863740084E+01  0.29767425027E+02  0.51100000000E-03 0.  1.
        -11    1    3    3    0    0 -0.15796694901E+01  0.87280577132E+01  0.60396360750E+01  0.10730869085E+02  0.51100000000E-03 0. -1.
        -12    1    3    3    0    0  0.91776871796E+01 -0.30475642372E+01  0.26636037601E+01  0.10030572004E+02  0.00000000000E+00 0.  1.
</event>
<event>
 7    1  0.5764931E-013  0.5052886E+02  0.7816164E-02  0.1300439E+00
        -11   -1    0    0    0    0  0.00000000000E+00  0.00000000000E+00  0.45593999997E+02  0.45594000000E+02  0.51100000000E-03 0.  1.
         11   -1    0    0    0    0 -0.00000000000E+00 -0.00000000000E+00 -0.45593999997E+02  0.45594000000E+02  0.51100000000E-03 0. -1.
    9900012    2    1    2    0    0 -0.19570681175E+02  0.22605517809E+02  0.27552582383E+02  0.50528858432E+02  0.29999995690E+02 0.  0.
         12    1    1    2    0    0  0.19570681175E+02 -0.22605517809E+02 -0.27552582383E+02  0.40659141568E+02  0.00000000000E+00 0. -1.
         11    1    3    3    0    0  0.23530833502E+00  0.14625832448E+02  0.37736858767E+01  0.15106655823E+02  0.51100000000E-03 0. -1.
        -11    1    3    3    0    0 -0.18975452788E+02  0.40612390007E+01  0.11614800817E+02  0.22615593493E+02  0.51100000000E-03 0.  1.
        -12    1    3    3    0    0 -0.83053672167E+00  0.39184463608E+01  0.12164095689E+02  0.12806609116E+02  0.00000000000E+00 0.  1.
</event>
<event>
 7    1  0.5764931E-013  0.5052887E+02  0.7816164E-02  0.1300439E+00
        -11   -1    0    0    0    0  0.00000000000E+00  0.00000000000E+00  0.45593999997E+02  0.45594000000E+02  0.51100000000E-03 0.  1.
         11   -1    0    0    0    0 -0.00000000000E+00 -0.00000000000E+00 -0.45593999997E+02  0.45594000000E+02  0.51100000000E-03 0. -1.
    9900012    2    1    2    0    0  0.29551879100E+02  0.23174675889E+02  0.15581593118E+02  0.50528865663E+02  0.30000017669E+02 0.  0.
         12    1    1    2    0    0 -0.29551879100E+02 -0.23174675889E+02 -0.15581593118E+02  0.40659134337E+02  0.00000000000E+00 0. -1.
         11    1    3    3    0    0  0.28818515547E+00 -0.28160578767E+01 -0.32462959285E+01  0.43071649800E+01  0.51100000000E-03 0. -1.
        -11    1    3    3    0    0  0.22661312688E+02  0.11955213001E+02  0.65660119460E+01  0.26449474925E+02  0.51100000000E-03 0.  1.
         12    1    3    3    0    0  0.66023812567E+01  0.14035520765E+02  0.12261877101E+02  0.19772225758E+02  0.00000000000E+00 0. -1.
</event>
<event>
 7    1  0.5764931E-013  0.5052885E+02  0.7816164E-02  0.1300439E+00
        -11   -1    0    0    0    0  0.00000000000E+00  0.00000000000E+00  0.45593999997E+02  0.45594000000E+02  0.51100000000E-03 0.  1.
         11   -1    0    0    0    0 -0.00000000000E+00 -0.00000000000E+00 -0.45593999997E+02  0.45594000000E+02  0.51100000000E-03 0. -1.
    9900012    2    1    2    0    0  0.10226083584E+02 -0.16369450896E+02  0.35785959339E+02  0.50528848583E+02  0.29999965754E+02 0.  0.
         12    1    1    2    0    0 -0.10226083584E+02  0.16369450896E+02 -0.35785959339E+02  0.40659151417E+02  0.00000000000E+00 0. -1.
         11    1    3    3    0    0 -0.69331593267E+01 -0.16576628015E+02  0.15675457600E+02  0.23844774393E+02  0.51100000000E-03 0. -1.
        -11    1    3    3    0    0  0.11610420462E+02 -0.12316369934E+01  0.14967655867E+02  0.18982874266E+02  0.51100000000E-03 0.  1.
         12    1    3    3    0    0  0.55488224490E+01  0.14388141122E+01  0.51428458719E+01  0.77011999248E+01  0.00000000000E+00 0. -1.
</event>
<event>
 7    1  0.5764931E-013  0.5052886E+02  0.7816164E-02  0.1300439E+00
        -11   -1    0    0    0    0  0.00000000000E+00  0.00000000000E+00  0.45593999997E+02  0.45594000000E+02  0.51100000000E-03 0. -1.
         11   -1    0    0    0    0 -0.00000000000E+00 -0.00000000000E+00 -0.45593999997E+02  0.45594000000E+02  0.51100000000E-03 0.  1.
    9900012    2    1    2    0    0 -0.63779698390E+01  0.35543669676E+02 -0.18685153970E+02  0.50528856722E+02  0.29999990491E+02 0.  0.
         12    1    1    2    0    0  0.63779698390E+01 -0.35543669676E+02  0.18685153970E+02  0.40659143278E+02  0.00000000000E+00 0. -1.
         11    1    3    3    0    0 -0.13205470231E+01  0.12951545178E+02 -0.19102953222E+02  0.23117291991E+02  0.51100000000E-03 0. -1.
        -11    1    3    3    0    0 -0.82605908271E+01  0.20158012269E+02 -0.31782845877E+01  0.22015547066E+02  0.51100000000E-03 0.  1.
         12    1    3    3    0    0  0.32031680112E+01  0.24341122290E+01  0.35960838400E+01  0.53960176646E+01  0.00000000000E+00 0. -1.
</event>
<event>
 7    1  0.5764931E-013  0.5052887E+02  0.7816164E-02  0.1300439E+00
        -11   -1    0    0    0    0  0.00000000000E+00  0.00000000000E+00  0.45593999997E+02  0.45594000000E+02  0.51100000000E-03 0. -1.
         11   -1    0    0    0    0 -0.00000000000E+00 -0.00000000000E+00 -0.45593999997E+02  0.45594000000E+02  0.51100000000E-03 0.  1.
    9900012    2    1    2    0    0  0.11206423716E+02 -0.30877567033E+02 -0.23961570440E+02  0.50528868968E+02  0.30000027714E+02 0.  0.
         12    1    1    2    0    0 -0.11206423716E+02  0.30877567033E+02  0.23961570440E+02  0.40659131032E+02  0.00000000000E+00 0. -1.
         11    1    3    3    0    0  0.16544522496E+02 -0.21938383079E+02 -0.21207986080E+02  0.34710121730E+02  0.51100000000E-03 0. -1.
        -11    1    3    3    0    0 -0.34012291428E+01 -0.10972379374E+02  0.52815730024E+00  0.11499583436E+02  0.51100000000E-03 0.  1.
         12    1    3    3    0    0 -0.19368696372E+01  0.20331954204E+01 -0.32817416609E+01  0.43191638008E+01  0.00000000000E+00 0. -1.
</event>
<event>
 7    1  0.5764931E-013  0.5052890E+02  0.7816164E-02  0.1300439E+00
        -11   -1    0    0    0    0  0.00000000000E+00  0.00000000000E+00  0.45593999997E+02  0.45594000000E+02  0.51100000000E-03 0. -1.
         11   -1    0    0    0    0 -0.00000000000E+00 -0.00000000000E+00 -0.45593999997E+02  0.45594000000E+02  0.51100000000E-03 0.  1.
    9900012    2    1    2    0    0 -0.18603426420E+02 -0.20754192067E+02 -0.29603014134E+02  0.50528900050E+02  0.30000122192E+02 0.  0.
         12    1    1    2    0    0  0.18603426420E+02  0.20754192067E+02  0.29603014134E+02  0.40659099950E+02  0.00000000000E+00 0. -1.
         11    1    3    3    0    0 -0.18003999341E+02 -0.25145129794E+00 -0.17095247869E+02  0.24828506198E+02  0.51100000000E-03 0. -1.
        -11    1    3    3    0    0  0.40806485161E+01 -0.91661927235E+01 -0.41448124490E+01  0.10855885586E+02  0.51100000000E-03 0.  1.
         12    1    3    3    0    0 -0.46800755954E+01 -0.11336548045E+02 -0.83629538156E+01  0.14844508267E+02  0.00000000000E+00 0. -1.
</event>
<event>
 7    1  0.5764931E-013  0.5052887E+02  0.7816164E-02  0.1300439E+00
        -11   -1    0    0    0    0  0.00000000000E+00  0.00000000000E+00  0.45593999997E+02  0.45594000000E+02  0.51100000000E-03 0.  1.
         11   -1    0    0    0    0 -0.00000000000E+00 -0.00000000000E+00 -0.45593999997E+02  0.45594000000E+02  0.51100000000E-03 0. -1.
    9900012    2    1    2    0    0  0.13254297685E+02  0.33107320071E+02 -0.19529311135E+02  0.50528867658E+02  0.30000023734E+02 0.  0.
         12    1    1    2    0    0 -0.13254297685E+02 -0.33107320071E+02  0.19529311135E+02  0.40659132342E+02  0.00000000000E+00 0. -1.
         11    1    3    3    0    0  0.86948668653E+01  0.65136637296E+00  0.20146966417E+01  0.89489659054E+01  0.51100000000E-03 0. -1.
        -11    1    3    3    0    0  0.35128029117E+01  0.17962971898E+02 -0.19769147991E+02  0.26941183275E+02  0.51100000000E-03 0.  1.
        -12    1    3    3    0    0  0.10466279077E+01  0.14492981800E+02 -0.17748597856E+01  0.14638718478E+02  0.00000000000E+00 0.  1.
</event>
<event>
 7    1  0.5764931E-013  0.5052886E+02  0.7816164E-02  0.1300439E+00
        -11   -1    0    0    0    0  0.00000000000E+00  0.00000000000E+00  0.45593999997E+02  0.45594000000E+02  0.51100000000E-03 0.  1.
         11   -1    0    0    0    0 -0.00000000000E+00 -0.00000000000E+00 -0.45593999997E+02  0.45594000000E+02  0.51100000000E-03 0. -1.
    9900012    2    1    2    0    0  0.28750899763E+02  0.24906429327E+02  0.14360396781E+02  0.50528862593E+02  0.30000008337E+02 0.  0.
         12    1    1    2    0    0 -0.28750899763E+02 -0.24906429327E+02 -0.14360396781E+02  0.40659137407E+02  0.00000000000E+00 0. -1.
         11    1    3    3    0    0  0.60129514623E+01  0.19099028079E+02  0.66298437212E+01  0.21092256562E+02  0.51100000000E-03 0. -1.
        -11    1    3    3    0    0  0.21551901083E+02  0.38840915971E+01  0.11730151785E+02  0.24842847441E+02  0.51100000000E-03 0.  1.
         12    1    3    3    0    0  0.11860472173E+01  0.19233096503E+01 -0.39995987252E+01  0.45937585892E+01  0.00000000000E+00 0. -1.
</event>
<event>
 7    1  0.5764931E-013  0.5052886E+02  0.7816164E-02  0.1300439E+00
        -11   -1    0    0    0    0  0.00000000000E+00  0.00000000000E+00  0.45593999997E+02  0.45594000000E+02  0.51100000000E-03 0.  1.
         11   -1    0    0    0    0 -0.00000000000E+00 -0.00000000000E+00 -0.45593999997E+02  0.45594000000E+02  0.51100000000E-03 0. -1.
    9900012    2    1    2    0    0  0.17965892641E+02 -0.56085812547E+01  0.36040755105E+02  0.50528861905E+02  0.30000006246E+02 0.  0.
         12    1    1    2    0    0 -0.17965892641E+02  0.56085812547E+01 -0.36040755105E+02  0.40659138095E+02  0.00000000000E+00 0. -1.
         11    1    3    3    0    0  0.74240254549E+00  0.28952444167E+01  0.21397697174E+02  0.21605440203E+02  0.51100000000E-03 0. -1.
        -11    1    3    3    0    0  0.19570743072E+02 -0.94305956963E+01  0.14964190322E+02  0.26379482782E+02  0.51100000000E-03 0.  1.
        -12    1    3    3    0    0 -0.23472529763E+01  0.92677002487E+00 -0.32113239093E+00  0.25439389195E+01  0.00000000000E+00 0.  1.
</event>
<event>
 7    1  0.5764931E-013  0.5052886E+02  0.7816164E-02  0.1300439E+00
        -11   -1    0    0    0    0  0.00000000000E+00  0.00000000000E+00  0.45593999997E+02  0.45594000000E+02  0.51100000000E-03 0.  1.
         11   -1    0    0    0    0 -0.00000000000E+00 -0.00000000000E+00 -0.45593999997E+02  0.45594000000E+02  0.51100000000E-03 0. -1.
    9900012    2    1    2    0    0  0.13670645394E+02 -0.26035740681E+02  0.28078812828E+02  0.50528855050E+02  0.29999985409E+02 0.  0.
         12    1    1    2    0    0 -0.13670645394E+02  0.26035740681E+02 -0.28078812828E+02  0.40659144950E+02  0.00000000000E+00 0. -1.
         11    1    3    3    0    0 -0.58797675806E+01  0.19619582591E+01  0.36529656269E+01  0.71947970885E+01  0.51100000000E-03 0. -1.
        -11    1    3    3    0    0  0.16846565568E+02 -0.15338616690E+02  0.14297553042E+02  0.26897954507E+02  0.51100000000E-03 0.  1.
        -12    1    3    3    0    0  0.27038474066E+01 -0.12659082250E+02  0.10128294159E+02  0.16436103455E+02  0.00000000000E+00 0.  1.
</event>
<event>
 7    1  0.5764931E-013  0.5052886E+02  0.7816164E-02  0.1300439E+00
        -11   -1    0    0    0    0  0.00000000000E+00  0.00000000000E+00  0.45593999997E+02  0.45594000000E+02  0.51100000000E-03 0.  1.
         11   -1    0    0    0    0 -0.00000000000E+00 -0.00000000000E+00 -0.45593999997E+02  0.45594000000E+02  0.51100000000E-03 0. -1.
    9900012    2    1    2    0    0  0.10932669947E+02 -0.28398690688E+02  0.26965843783E+02  0.50528860364E+02  0.30000001563E+02 0.  0.
         12    1    1    2    0    0 -0.10932669947E+02  0.28398690688E+02 -0.26965843783E+02  0.40659139636E+02  0.00000000000E+00 0. -1.
         11    1    3    3    0    0  0.49105799455E+01 -0.25970013495E+02  0.86669212357E+01  0.27814940595E+02  0.51100000000E-03 0. -1.
        -11    1    3    3    0    0  0.73648188055E+01 -0.55680116470E+01  0.93702390048E+01  0.13154645149E+02  0.51100000000E-03 0.  1.
         12    1    3    3    0    0 -0.13427288039E+01  0.31393344535E+01  0.89286835429E+01  0.95592746201E+01  0.00000000000E+00 0. -1.
</event>
<event>
 7    1  0.5764931E-013  0.5052886E+02  0.7816164E-02  0.1300439E+00
        -11   -1    0    0    0    0  0.00000000000E+00  0.00000000000E+00  0.45593999997E+02  0.45594000000E+02  0.51100000000E-03 0.  1.
         11   -1    0    0    0    0 -0.00000000000E+00 -0.00000000000E+00 -0.45593999997E+02  0.45594000000E+02  0.51100000000E-03 0. -1.
    9900012    2    1    2    0    0 -0.96036454971E+01 -0.10972781223E+02  0.37954367623E+02  0.50528856425E+02  0.29999989590E+02 0.  0.
         12    1    1    2    0    0  0.96036454971E+01  0.10972781223E+02 -0.37954367623E+02  0.40659143575E+02  0.00000000000E+00 0. -1.
         11    1    3    3    0    0 -0.50131224059E+01  0.64031478654E+01  0.31022958285E+01  0.87037887446E+01  0.51100000000E-03 0. -1.
        -11    1    3    3    0    0 -0.94902384787E+01 -0.13145359643E+02  0.20960079985E+02  0.26498869028E+02  0.51100000000E-03 0.  1.
        -12    1    3    3    0    0  0.48997153874E+01 -0.42305694448E+01  0.13891991809E+02  0.15326198653E+02  0.00000000000E+00 0.  1.
</event>
<event>
 7    1  0.5777429E-013  0.5052886E+02  0.7816164E-02  0.1300439E+00
        -11   -1    0    0    0    0  0.00000000000E+00  0.00000000000E+00  0.45593999997E+02  0.45594000000E+02  0.51100000000E-03 0. -1.
         11   -1    0    0    0    0 -0.00000000000E+00 -0.00000000000E+00 -0.45593999997E+02  0.45594000000E+02  0.51100000000E-03 0.  1.
    9900012    2    1    2    0    0 -0.35211920563E+02  0.40947560051E+01 -0.19912800274E+02  0.50528855995E+02  0.29999988282E+02 0.  0.
         12    1    1    2    0    0  0.35211920563E+02 -0.40947560051E+01  0.19912800274E+02  0.40659144005E+02  0.00000000000E+00 0. -1.
         11    1    3    3    0    0  0.31834247418E+01  0.31835572819E+01 -0.39701852108E+01  0.60026328326E+01  0.51100000000E-03 0. -1.
        -11    1    3    3    0    0 -0.23615652400E+02 -0.31659454190E+01 -0.16825916221E+02  0.29169053903E+02  0.51100000000E-03 0.  1.
        -12    1    3    3    0    0 -0.14779692905E+02  0.40771441422E+01  0.88330115780E+00  0.15357169259E+02  0.00000000000E+00 0.  1.
</event>
<event>
 7    1  0.5764931E-013  0.5052886E+02  0.7816164E-02  0.1300439E+00
        -11   -1    0    0    0    0  0.00000000000E+00  0.00000000000E+00  0.45593999997E+02  0.45594000000E+02  0.51100000000E-03 0.  1.
         11   -1    0    0    0    0 -0.00000000000E+00 -0.00000000000E+00 -0.45593999997E+02  0.45594000000E+02  0.51100000000E-03 0. -1.
    9900012    2    1    2    0    0 -0.17429360767E+02 -0.34292395560E+02  0.13168698975E+02  0.50528860281E+02  0.30000001309E+02 0.  0.
         12    1    1    2    0    0  0.17429360767E+02  0.34292395560E+02 -0.13168698975E+02  0.40659139719E+02  0.00000000000E+00 0. -1.
         11    1    3    3    0    0 -0.18368904116E+02 -0.32299305537E+02  0.39284046320E+01  0.37364343160E+02  0.51100000000E-03 0. -1.
        -11    1    3    3    0    0 -0.65500872395E+00 -0.33420128871E+01 -0.28068752947E+00  0.34171438829E+01  0.51100000000E-03 0.  1.
         12    1    3    3    0    0  0.15945520734E+01  0.13489228636E+01  0.95209818729E+01  0.97473732375E+01  0.00000000000E+00 0. -1.
</event>
<event>
 7    1  0.5764931E-013  0.5052886E+02  0.7816164E-02  0.1300439E+00
        -11   -1    0    0    0    0  0.00000000000E+00  0.00000000000E+00  0.45593999997E+02  0.45594000000E+02  0.51100000000E-03 0. -1.
         11   -1    0    0    0    0 -0.00000000000E+00 -0.00000000000E+00 -0.45593999997E+02  0.45594000000E+02  0.51100000000E-03 0.  1.
    9900012    2    1    2    0    0  0.26027618780E+02 -0.82741436896E+01 -0.30120879474E+02  0.50528858673E+02  0.29999996423E+02 0.  0.
         12    1    1    2    0    0 -0.26027618780E+02  0.82741436896E+01  0.30120879474E+02  0.40659141327E+02  0.00000000000E+00 0. -1.
         11    1    3    3    0    0  0.22464908897E+01 -0.68137050480E+01 -0.13101692244E+01  0.72931365993E+01  0.51100000000E-03 0. -1.
        -11    1    3    3    0    0  0.17246123245E+02  0.34871051842E+01 -0.53594083098E+01  0.18393257658E+02  0.51100000000E-03 0.  1.
        -12    1    3    3    0    0  0.65350046448E+01 -0.49475438258E+01 -0.23451301940E+02  0.24842464416E+02  0.00000000000E+00 0.  1.
</event>
<event>
 7    1  0.5764931E-013  0.5052888E+02  0.7816164E-02  0.1300439E+00
        -11   -1    0    0    0    0  0.00000000000E+00  0.00000000000E+00  0.45593999997E+02  0.45594000000E+02  0.51100000000E-03 0.  1.
         11   -1    0    0    0    0 -0.00000000000E+00 -0.00000000000E+00 -0.45593999997E+02  0.45594000000E+02  0.51100000000E-03 0. -1.
    9900012    2    1    2    0    0  0.39361934261E+02  0.61011934861E+01 -0.81595189398E+01  0.50528878267E+02  0.30000055982E+02 0.  0.
         12    1    1    2    0    0 -0.39361934261E+02 -0.61011934861E+01  0.81595189398E+01  0.40659121733E+02  0.00000000000E+00 0. -1.
         11    1    3    3    0    0 -0.16966104841E+00 -0.41634224175E+00 -0.23406039536E+00  0.50686316044E+00  0.51100000000E-03 0. -1.
        -11    1    3    3    0    0  0.15186755561E+00  0.41281379495E+00  0.73362468644E+01  0.73494215623E+01  0.51100000000E-03 0.  1.
        -12    1    3    3    0    0  0.39379727754E+02  0.61047219329E+01 -0.15261705409E+02  0.42672593545E+02  0.00000000000E+00 0.  1.
</event>
<event>
 7    1  0.5764931E-013  0.5052886E+02  0.7816164E-02  0.1300439E+00
        -11   -1    0    0    0    0  0.00000000000E+00  0.00000000000E+00  0.45593999997E+02  0.45594000000E+02  0.51100000000E-03 0.  1.
         11   -1    0    0    0    0 -0.00000000000E+00 -0.00000000000E+00 -0.45593999997E+02  0.45594000000E+02  0.51100000000E-03 0. -1.
    9900012    2    1    2    0    0  0.27780750537E+02 -0.24472940956E+02  0.16806866401E+02  0.50528859605E+02  0.29999999255E+02 0.  0.
         12    1    1    2    0    0 -0.27780750537E+02  0.24472940956E+02 -0.16806866401E+02  0.40659140395E+02  0.00000000000E+00 0. -1.
         11    1    3    3    0    0  0.18968416146E+02 -0.76318744621E-01  0.42851173859E+00  0.18973409241E+02  0.51100000000E-03 0. -1.
        -11    1    3    3    0    0  0.51499480161E+01 -0.10239219824E+02  0.11246632315E+02  0.16057718576E+02  0.51100000000E-03 0.  1.
         12    1    3    3    0    0  0.36623863748E+01 -0.14157402387E+02  0.51317223474E+01  0.15497731788E+02  0.00000000000E+00 0. -1.
</event>
<event>
 7    1  0.5764931E-013  0.5052886E+02  0.7816164E-02  0.1300439E+00
        -11   -1    0    0    0    0  0.00000000000E+00  0.00000000000E+00  0.45593999997E+02  0.45594000000E+02  0.51100000000E-03 0. -1.
         11   -1    0    0    0    0 -0.00000000000E+00 -0.00000000000E+00 -0.45593999997E+02  0.45594000000E+02  0.51100000000E-03 0.  1.
    9900012    2    1    2    0    0 -0.39369863631E+02  0.94960838781E+01  0.36061181546E+01  0.50528857615E+02  0.29999993207E+02 0.  0.
         12    1    1    2    0    0  0.39369863631E+02 -0.94960838781E+01 -0.36061181546E+01  0.40659142385E+02  0.00000000000E+00 0. -1.
         11    1    3    3    0    0 -0.16624588452E+02  0.28796877723E+01  0.43880384919E+01  0.17433428376E+02  0.51100000000E-03 0. -1.
        -11    1    3    3    0    0 -0.65165883859E+01  0.25800876149E+01 -0.11330744079E+02  0.13323233014E+02  0.51100000000E-03 0.  1.
        -12    1    3    3    0    0 -0.16228686792E+02  0.40363084909E+01  0.10548823742E+02  0.19772196225E+02  0.00000000000E+00 0.  1.
</event>
<event>
 7    1  0.5764931E-013  0.5052885E+02  0.7816164E-02  0.1300439E+00
        -11   -1    0    0    0    0  0.00000000000E+00  0.00000000000E+00  0.45593999997E+02  0.45594000000E+02  0.51100000000E-03 0.  1.
         11   -1    0    0    0    0 -0.00000000000E+00 -0.00000000000E+00 -0.45593999997E+02  0.45594000000E+02  0.51100000000E-03 0. -1.
    9900012    2    1    2    0    0 -0.82740080167E+00  0.32505065299E+01  0.40520563655E+02  0.50528850185E+02  0.29999970621E+02 0.  0.
         12    1    1    2    0    0  0.82740080167E+00 -0.32505065299E+01 -0.40520563655E+02  0.40659149815E+02  0.00000000000E+00 0. -1.
         11    1    3    3    0    0  0.85762903943E+01 -0.65079355984E+01  0.75645575249E+01  0.13157830881E+02  0.51100000000E-03 0. -1.
        -11    1    3    3    0    0 -0.86842423834E+01  0.19341533292E+01  0.11625009108E+02  0.14638915666E+02  0.51100000000E-03 0.  1.
        -12    1    3    3    0    0 -0.71944881254E+00  0.78242887991E+01  0.21330997023E+02  0.22732103637E+02  0.00000000000E+00 0.  1.
</event>
<event>
 7    1  0.5764931E-013  0.5052886E+02  0.7816164E-02  0.1300439E+00
        -11   -1    0    0    0    0  0.00000000000E+00  0.00000000000E+00  0.45593999997E+02  0.45594000000E+02  0.51100000000E-03 0.  1.
         11   -1    0    0    0    0 -0.00000000000E+00 -0.00000000000E+00 -0.45593999997E+02  0.45594000000E+02  0.51100000000E-03 0. -1.
    9900012    2    1    2    0    0 -0.21749268056E+02  0.99527007083E+01  0.32879762013E+02  0.50528860038E+02  0.30000000573E+02 0.  0.
         12    1    1    2    0    0  0.21749268056E+02 -0.99527007083E+01 -0.32879762013E+02  0.40659139962E+02  0.00000000000E+00 0. -1.
         11    1    3    3    0    0 -0.21793362037E+02  0.55555205362E+00  0.15094434274E+02  0.26516055764E+02  0.51100000000E-03 0. -1.
        -11    1    3    3    0    0  0.16133926257E+01  0.92917841265E+00  0.14771739150E+02  0.14888609272E+02  0.51100000000E-03 0.  1.
        -12    1    3    3    0    0 -0.15692986455E+01  0.84679702420E+01  0.30135885891E+01  0.91241950024E+01  0.00000000000E+00 0.  1.
</event>
<event>
 7    1  0.5764931E-013  0.5052885E+02  0.7816164E-02  0.1300439E+00
        -11   -1    0    0    0    0  0.00000000000E+00  0.00000000000E+00  0.45593999997E+02  0.45594000000E+02  0.51100000000E-03 0.  1.
         11   -1    0    0    0    0 -0.00000000000E+00 -0.00000000000E+00 -0.45593999997E+02  0.45594000000E+02  0.51100000000E-03 0. -1.
    9900012    2    1    2    0    0 -0.34961293185E+02 -0.17992587830E+02  0.10350916147E+02  0.50528847241E+02  0.29999961675E+02 0.  0.
         12    1    1    2    0    0  0.34961293185E+02  0.17992587830E+02 -0.10350916147E+02  0.40659152759E+02  0.00000000000E+00 0. -1.
         11    1    3    3    0    0 -0.23879816028E+02 -0.63812122610E+01 -0.51583057996E+01  0.25250219849E+02  0.51100000000E-03 0. -1.
        -11    1    3    3    0    0 -0.49621269822E+00 -0.57216169676E+01  0.18663938136E+00  0.57461258501E+01  0.51100000000E-03 0.  1.
         12    1    3    3    0    0 -0.10585264459E+02 -0.58897586018E+01  0.15322582565E+02  0.19532501542E+02  0.00000000000E+00 0. -1.
</event>
<event>
 7    1  0.5764931E-013  0.5052886E+02  0.7816164E-02  0.1300439E+00
        -11   -1    0    0    0    0  0.00000000000E+00  0.00000000000E+00  0.45593999997E+02  0.45594000000E+02  0.51100000000E-03 0.  1.
         11   -1    0    0    0    0 -0.00000000000E+00 -0.00000000000E+00 -0.45593999997E+02  0.45594000000E+02  0.51100000000E-03 0. -1.
    9900012    2    1    2    0    0  0.15067901440E+02  0.17165723565E+02  0.33637215475E+02  0.50528856081E+02  0.29999988545E+02 0.  0.
         12    1    1    2    0    0 -0.15067901440E+02 -0.17165723565E+02 -0.33637215475E+02  0.40659143919E+02  0.00000000000E+00 0. -1.
         11    1    3    3    0    0 -0.39086103429E+01 -0.12312586456E+01  0.81906880642E+00  0.41790078530E+01  0.51100000000E-03 0. -1.
        -11    1    3    3    0    0  0.14893765693E+02  0.82157039800E+01  0.30816802527E+02  0.35199394408E+02  0.51100000000E-03 0.  1.
         12    1    3    3    0    0  0.40827460893E+01  0.10181278230E+02  0.20013441409E+01  0.11150453821E+02  0.00000000000E+00 0. -1.
</event>
<event>
 7    1  0.5764931E-013  0.5052888E+02  0.7816164E-02  0.1300439E+00
        -11   -1    0    0    0    0  0.00000000000E+00  0.00000000000E+00  0.45593999997E+02  0.45594000000E+02  0.51100000000E-03 0.  1.
         11   -1    0    0    0    0 -0.00000000000E+00 -0.00000000000E+00 -0.45593999997E+02  0.45594000000E+02  0.51100000000E-03 0. -1.
    9900012    2    1    2    0    0  0.27282918217E+02 -0.28938105606E+02  0.84494151537E+01  0.50528878035E+02  0.30000055276E+02 0.  0.
         12    1    1    2    0    0 -0.27282918217E+02  0.28938105606E+02 -0.84494151537E+01  0.40659121965E+02  0.00000000000E+00 0. -1.
         11    1    3    3    0    0  0.45105921941E+01 -0.78384392538E+01  0.71091931109E+00  0.90714926228E+01  0.51100000000E-03 0. -1.
        -11    1    3    3    0    0  0.25831279105E+02 -0.87103302105E+01  0.16290394721E+01  0.27308947296E+02  0.51100000000E-03 0.  1.
        -12    1    3    3    0    0 -0.30589530815E+01 -0.12389336142E+02  0.61094563705E+01  0.14148438116E+02  0.00000000000E+00 0.  1.
</event>
<event>
 7    1  0.5764931E-013  0.5052887E+02  0.7816164E-02  0.1300439E+00
        -11   -1    0    0    0    0  0.00000000000E+00  0.00000000000E+00  0.45593999997E+02  0.45594000000E+02  0.51100000000E-03 0. -1.
         11   -1    0    0    0    0 -0.00000000000E+00 -0.00000000000E+00 -0.45593999997E+02  0.45594000000E+02  0.51100000000E-03 0.  1.
    9900012    2    1    2    0    0 -0.34370704036E+02  0.21538489382E+02 -0.28129578112E+01  0.50528873688E+02  0.30000042063E+02 0.  0.
         12    1    1    2    0    0  0.34370704036E+02 -0.21538489382E+02  0.28129578112E+01  0.40659126312E+02  0.00000000000E+00 0. -1.
         11    1    3    3    0    0 -0.73238268067E+01  0.15842281719E+02  0.38147993702E+01  0.17865302227E+02  0.51100000000E-03 0. -1.
        -11    1    3    3    0    0 -0.22622817351E+02  0.65334331178E+01 -0.11348942777E+02  0.26139550792E+02  0.51100000000E-03 0.  1.
        -12    1    3    3    0    0 -0.44240598783E+01 -0.83722545474E+00  0.47211855954E+01  0.65240206694E+01  0.00000000000E+00 0.  1.
</event>
<event>
 7    1  0.5764931E-013  0.5052886E+02  0.7816164E-02  0.1300439E+00
        -11   -1    0    0    0    0  0.00000000000E+00  0.00000000000E+00  0.45593999997E+02  0.45594000000E+02  0.51100000000E-03 0.  1.
         11   -1    0    0    0    0 -0.00000000000E+00 -0.00000000000E+00 -0.45593999997E+02  0.45594000000E+02  0.51100000000E-03 0. -1.
    9900012    2    1    2    0    0 -0.16641713350E+01 -0.18969756118E+02  0.35924154602E+02  0.50528855921E+02  0.29999988056E+02 0.  0.
         12    1    1    2    0    0  0.16641713350E+01  0.18969756118E+02 -0.35924154602E+02  0.40659144079E+02  0.00000000000E+00 0. -1.
         11    1    3    3    0    0  0.34723709348E+01 -0.11203105287E+02  0.16161945215E+01  0.11839721829E+02  0.51100000000E-03 0. -1.
        -11    1    3    3    0    0 -0.85395974393E+01 -0.10021403926E+02  0.29958252299E+02  0.32723846689E+02  0.51100000000E-03 0.  1.
        -12    1    3    3    0    0  0.34030551695E+01  0.22547530955E+01  0.43497077817E+01  0.59652874025E+01  0.00000000000E+00 0.  1.
</event>
<event>
 7    1  0.5764931E-013  0.5052886E+02  0.7816164E-02  0.1300439E+00
        -11   -1    0    0    0    0  0.00000000000E+00  0.00000000000E+00  0.45593999997E+02  0.45594000000E+02  0.51100000000E-03 0. -1.
         11   -1    0    0    0    0 -0.00000000000E+00 -0.00000000000E+00 -0.45593999997E+02  0.45594000000E+02  0.51100000000E-03 0.  1.
    9900012    2    1    2    0    0  0.15926148912E+02 -0.33201707037E+02  0.17238621957E+02  0.50528860114E+02  0.30000000801E+02 0.  0.
         12    1    1    2    0    0 -0.15926148912E+02  0.33201707037E+02 -0.17238621957E+02  0.40659139886E+02  0.00000000000E+00 0. -1.
         11    1    3    3    0    0 -0.77099933371E+01 -0.33896421102E+01  0.89665938993E+00  0.84698092787E+01  0.51100000000E-03 0. -1.
        -11    1    3    3    0    0  0.20558461022E+02 -0.29040595719E+02  0.14943942185E+02  0.38591811665E+02  0.51100000000E-03 0.  1.
         12    1    3    3    0    0  0.30776812267E+01 -0.77146920780E+00  0.13980203823E+01  0.34672391699E+01  0.00000000000E+00 0. -1.
</event>
<event>
 7    1  0.5764931E-013  0.5052886E+02  0.7816164E-02  0.1300439E+00
        -11   -1    0    0    0    0  0.00000000000E+00  0.00000000000E+00  0.45593999997E+02  0.45594000000E+02  0.51100000000E-03 0.  1.
         11   -1    0    0    0    0 -0.00000000000E+00 -0.00000000000E+00 -0.45593999997E+02  0.45594000000E+02  0.51100000000E-03 0. -1.
    9900012    2    1    2    0    0  0.48761559728E+01  0.33550295864E+02  0.22444740070E+02  0.50528860726E+02  0.30000002664E+02 0.  0.
         12    1    1    2    0    0 -0.48761559728E+01 -0.33550295864E+02 -0.22444740070E+02  0.40659139274E+02  0.00000000000E+00 0. -1.
         11    1    3    3    0    0  0.48222773056E+01 -0.12450945627E+00 -0.22911501004E+00  0.48293224127E+01  0.51100000000E-03 0. -1.
        -11    1    3    3    0    0  0.36446566549E+01  0.33040950554E+02  0.24804921463E+02  0.41476162608E+02  0.51100000000E-03 0.  1.
        -12    1    3    3    0    0 -0.35907779877E+01  0.63385476613E+00 -0.21310663828E+01  0.42233757054E+01  0.00000000000E+00 0.  1.
</event>
<event>
 7    1  0.5764931E-013  0.5052886E+02  0.7816164E-02  0.1300439E+00
        -11   -1    0    0    0    0  0.00000000000E+00  0.00000000000E+00  0.45593999997E+02  0.45594000000E+02  0.51100000000E-03 0. -1.
         11   -1    0    0    0    0 -0.00000000000E+00 -0.00000000000E+00 -0.45593999997E+02  0.45594000000E+02  0.51100000000E-03 0.  1.
    9900012    2    1    2    0    0 -0.28261135738E+02  0.18767431835E+02 -0.22411095981E+02  0.50528861864E+02  0.30000006121E+02 0.  0.
         12    1    1    2    0    0  0.28261135738E+02 -0.18767431835E+02  0.22411095981E+02  0.40659138136E+02  0.00000000000E+00 0. -1.
         11    1    3    3    0    0 -0.16236657305E+02  0.17890560193E+02 -0.59246555150E+01  0.24875745771E+02  0.51100000000E-03 0. -1.
        -11    1    3    3    0    0 -0.94128805064E+01  0.29570453955E+01 -0.19043491721E+02  0.21447634230E+02  0.51100000000E-03 0.  1.
        -12    1    3    3    0    0 -0.26115979270E+01 -0.20801737527E+01  0.25570512545E+01  0.42054818621E+01  0.00000000000E+00 0.  1.
</event>
<event>
 7    1  0.5764931E-013  0.5052887E+02  0.7816164E-02  0.1300439E+00
        -11   -1    0    0    0    0  0.00000000000E+00  0.00000000000E+00  0.45593999997E+02  0.45594000000E+02  0.51100000000E-03 0. -1.
         11   -1    0    0    0    0 -0.00000000000E+00 -0.00000000000E+00 -0.45593999997E+02  0.45594000000E+02  0.51100000000E-03 0.  1.
    9900012    2    1    2    0    0 -0.20423308069E+02 -0.18329934162E+02 -0.30001113222E+02  0.50528870725E+02  0.30000033055E+02 0.  0.
         12    1    1    2    0    0  0.20423308069E+02  0.18329934162E+02  0.30001113222E+02  0.40659129275E+02  0.00000000000E+00 0. -1.
         11    1    3    3    0    0 -0.11766791971E+02 -0.21466972847E+02 -0.97829787729E+01  0.26362757641E+02  0.51100000000E-03 0. -1.
        -11    1    3    3    0    0 -0.98624394880E+01  0.43366084612E+00 -0.12695515418E+02  0.16082036139E+02  0.51100000000E-03 0.  1.
         12    1    3    3    0    0  0.12059233904E+01  0.27033778388E+01 -0.75226190314E+01  0.80840769451E+01  0.00000000000E+00 0. -1.
</event>
<event>
 7    1  0.5764931E-013  0.5052886E+02  0.7816164E-02  0.1300439E+00
        -11   -1    0    0    0    0  0.00000000000E+00  0.00000000000E+00  0.45593999997E+02  0.45594000000E+02  0.51100000000E-03 0.  1.
         11   -1    0    0    0    0 -0.00000000000E+00 -0.00000000000E+00 -0.45593999997E+02  0.45594000000E+02  0.51100000000E-03 0. -1.
    9900012    2    1    2    0    0  0.10608285958E+02 -0.16558357846E+02  0.35587228388E+02  0.50528858717E+02  0.29999996557E+02 0.  0.
         12    1    1    2    0    0 -0.10608285958E+02  0.16558357846E+02 -0.35587228388E+02  0.40659141283E+02  0.00000000000E+00 0. -1.
         11    1    3    3    0    0  0.12897104202E+02  0.45878380813E+01  0.10649241720E+02  0.17343295665E+02  0.51100000000E-03 0. -1.
        -11    1    3    3    0    0 -0.32927989511E+01 -0.10018623544E+02  0.14214052546E+02  0.17699000895E+02  0.51100000000E-03 0.  1.
         12    1    3    3    0    0  0.10039807075E+01 -0.11127572383E+02  0.10723934121E+02  0.15486562157E+02  0.00000000000E+00 0. -1.
</event>
<event>
 7    1  0.5764931E-013  0.5052887E+02  0.7816164E-02  0.1300439E+00
        -11   -1    0    0    0    0  0.00000000000E+00  0.00000000000E+00  0.45593999997E+02  0.45594000000E+02  0.51100000000E-03 0.  1.
         11   -1    0    0    0    0 -0.00000000000E+00 -0.00000000000E+00 -0.45593999997E+02  0.45594000000E+02  0.51100000000E-03 0. -1.
    9900012    2    1    2    0    0 -0.16327248805E+02  0.27624264536E+02  0.24969698235E+02  0.50528869726E+02  0.30000030018E+02 0.  0.
         12    1    1    2    0    0  0.16327248805E+02 -0.27624264536E+02 -0.24969698235E+02  0.40659130274E+02  0.00000000000E+00 0. -1.
         11    1    3    3    0    0 -0.47030024348E+01  0.15024723901E+01 -0.36584380494E+01  0.61449023106E+01  0.51100000000E-03 0. -1.
        -11    1    3    3    0    0 -0.11152567368E+02  0.18580345796E+02  0.29685939822E+02  0.36754102250E+02  0.51100000000E-03 0.  1.
        -12    1    3    3    0    0 -0.47167900224E+00  0.75414463493E+01 -0.10578035369E+01  0.76298651655E+01  0.00000000000E+00 0.  1.
</event>
<event>
 7    1  0.5764931E-013  0.5052882E+02  0.7816164E-02  0.1300439E+00
        -11   -1    0    0    0    0  0.00000000000E+00  0.00000000000E+00  0.45593999997E+02  0.45594000000E+02  0.51100000000E-03 0.  1.
         11   -1    0    0    0    0 -0.00000000000E+00 -0.00000000000E+00 -0.45593999997E+02  0.45594000000E+02  0.51100000000E-03 0. -1.
    9900012    2    1    2    0    0 -0.11856643335E+02 -0.38021349927E+02  0.81832804554E+01  0.50528817514E+02  0.29999871316E+02 0.  0.
         12    1    1    2    0    0  0.11856643335E+02  0.38021349927E+02 -0.81832804554E+01  0.40659182486E+02  0.00000000000E+00 0. -1.
         11    1    3    3    0    0  0.11279098140E+01  0.23061253516E+01  0.28124915648E+01  0.38079526978E+01  0.51100000000E-03 0. -1.
        -11    1    3    3    0    0 -0.12569135141E+02 -0.36516945137E+02  0.10775706158E+02  0.40094716407E+02  0.51100000000E-03 0.  1.
        -12    1    3    3    0    0 -0.41541800757E+00 -0.38105301414E+01 -0.54049172671E+01  0.66261484094E+01  0.00000000000E+00 0.  1.
</event>
<event>
 7    1  0.5764931E-013  0.5052885E+02  0.7816164E-02  0.1300439E+00
        -11   -1    0    0    0    0  0.00000000000E+00  0.00000000000E+00  0.45593999997E+02  0.45594000000E+02  0.51100000000E-03 0.  1.
         11   -1    0    0    0    0 -0.00000000000E+00 -0.00000000000E+00 -0.45593999997E+02  0.45594000000E+02  0.51100000000E-03 0. -1.
    9900012    2    1    2    0    0  0.12233475729E+02 -0.36534553296E+01  0.38602597076E+02  0.50528853854E+02  0.29999981775E+02 0.  0.
         12    1    1    2    0    0 -0.12233475729E+02  0.36534553296E+01 -0.38602597076E+02  0.40659146146E+02  0.00000000000E+00 0. -1.
         11    1    3    3    0    0 -0.76408101157E+01 -0.86909684667E+00  0.90118485972E+01  0.11846971088E+02  0.51100000000E-03 0. -1.
        -11    1    3    3    0    0  0.17121525841E+02 -0.44519861094E+01  0.13449452803E+02  0.22222839791E+02  0.51100000000E-03 0.  1.
         12    1    3    3    0    0  0.27527600038E+01  0.16676276265E+01  0.16141295677E+02  0.16459042975E+02  0.00000000000E+00 0. -1.
</event>
<event>
 7    1  0.5764931E-013  0.5052893E+02  0.7816164E-02  0.1300439E+00
        -11   -1    0    0    0    0  0.00000000000E+00  0.00000000000E+00  0.45593999997E+02  0.45594000000E+02  0.51100000000E-03 0.  1.
         11   -1    0    0    0    0 -0.00000000000E+00 -0.00000000000E+00 -0.45593999997E+02  0.45594000000E+02  0.51100000000E-03 0. -1.
    9900012    2    1    2    0    0 -0.40638707174E+02  0.94633462702E+00 -0.87166424341E+00  0.50528931288E+02  0.30000217141E+02 0.  0.
         12    1    1    2    0    0  0.40638707174E+02 -0.94633462702E+00  0.87166424341E+00  0.40659068712E+02  0.00000000000E+00 0. -1.
         11    1    3    3    0    0 -0.31698310865E+01 -0.50569798182E+01 -0.77789056818E+01  0.98047053942E+01  0.51100000000E-03 0. -1.
        -11    1    3    3    0    0 -0.12374733992E+02  0.48418194352E+01  0.81220628469E+01  0.15573861498E+02  0.51100000000E-03 0.  1.
         12    1    3    3    0    0 -0.25094142095E+02  0.11614950100E+01 -0.12148214085E+01  0.25150364395E+02  0.00000000000E+00 0. -1.
</event>
<event>
 7    1  0.5764931E-013  0.5052886E+02  0.7816164E-02  0.1300439E+00
        -11   -1    0    0    0    0  0.00000000000E+00  0.00000000000E+00  0.45593999997E+02  0.45594000000E+02  0.51100000000E-03 0.  1.
         11   -1    0    0    0    0 -0.00000000000E+00 -0.00000000000E+00 -0.45593999997E+02  0.45594000000E+02  0.51100000000E-03 0. -1.
    9900012    2    1    2    0    0  0.18465243530E+02 -0.17828479073E+02  0.31533251760E+02  0.50528857717E+02  0.29999993516E+02 0.  0.
         12    1    1    2    0    0 -0.18465243530E+02  0.17828479073E+02 -0.31533251760E+02  0.40659142283E+02  0.00000000000E+00 0. -1.
         11    1    3    3    0    0  0.35084391727E+01 -0.59976622066E+01  0.26133207550E+02  0.27041184044E+02  0.51100000000E-03 0.  1.
        -11    1    3    3    0    0  0.15455350507E+02 -0.11806053131E+02  0.14461126825E+01  0.19502358626E+02  0.51100000000E-03 0. -1.
         12    1    3    3    0    0 -0.49854614946E+00 -0.24763735591E-01  0.39539315267E+01  0.39853150470E+01  0.00000000000E+00 0. -1.
</event>
<event>
 7    1  0.5764931E-013  0.5052886E+02  0.7816164E-02  0.1300439E+00
        -11   -1    0    0    0    0  0.00000000000E+00  0.00000000000E+00  0.45593999997E+02  0.45594000000E+02  0.51100000000E-03 0. -1.
         11   -1    0    0    0    0 -0.00000000000E+00 -0.00000000000E+00 -0.45593999997E+02  0.45594000000E+02  0.51100000000E-03 0.  1.
    9900012    2    1    2    0    0  0.32919800498E+02 -0.14860542730E+02 -0.18671272126E+02  0.50528863292E+02  0.30000010461E+02 0.  0.
         12    1    1    2    0    0 -0.32919800498E+02  0.14860542730E+02  0.18671272126E+02  0.40659136708E+02  0.00000000000E+00 0. -1.
         11    1    3    3    0    0  0.71741437765E+01 -0.55075225586E+00  0.76309140871E+01  0.10488208476E+02  0.51100000000E-03 0. -1.
        -11    1    3    3    0    0  0.13831327210E+02 -0.78104520853E+01 -0.97583706293E+01  0.18642279146E+02  0.51100000000E-03 0.  1.
         12    1    3    3    0    0  0.11914329512E+02 -0.64993383893E+01 -0.16543815584E+02  0.21398375669E+02  0.00000000000E+00 0. -1.
</event>
<event>
 7    1  0.5764931E-013  0.5052886E+02  0.7816164E-02  0.1300439E+00
        -11   -1    0    0    0    0  0.00000000000E+00  0.00000000000E+00  0.45593999997E+02  0.45594000000E+02  0.51100000000E-03 0. -1.
         11   -1    0    0    0    0 -0.00000000000E+00 -0.00000000000E+00 -0.45593999997E+02  0.45594000000E+02  0.51100000000E-03 0.  1.
    9900012    2    1    2    0    0  0.36015147008E+02 -0.73990812272E+00 -0.18855431153E+02  0.50528861273E+02  0.30000004325E+02 0.  0.
         12    1    1    2    0    0 -0.36015147008E+02  0.73990812272E+00  0.18855431153E+02  0.40659138727E+02  0.00000000000E+00 0. -1.
         11    1    3    3    0    0  0.68144164062E+01  0.11039197494E+02 -0.41532244404E+01  0.13621652829E+02  0.51100000000E-03 0. -1.
        -11    1    3    3    0    0  0.10928427015E+02 -0.11002635048E+02 -0.78050907512E+01  0.17361104139E+02  0.51100000000E-03 0.  1.
         12    1    3    3    0    0  0.18272303587E+02 -0.77647056822E+00 -0.68971159619E+01  0.19546104305E+02  0.00000000000E+00 0. -1.
</event>
<event>
 7    1  0.5764931E-013  0.5052886E+02  0.7816164E-02  0.1300439E+00
        -11   -1    0    0    0    0  0.00000000000E+00  0.00000000000E+00  0.45593999997E+02  0.45594000000E+02  0.51100000000E-03 0.  1.
         11   -1    0    0    0    0 -0.00000000000E+00 -0.00000000000E+00 -0.45593999997E+02  0.45594000000E+02  0.51100000000E-03 0. -1.
    9900012    2    1    2    0    0  0.11492688907E+02  0.75699681808E+01  0.38259368853E+02  0.50528860540E+02  0.30000002098E+02 0.  0.
         12    1    1    2    0    0 -0.11492688907E+02 -0.75699681808E+01 -0.38259368853E+02  0.40659139460E+02  0.00000000000E+00 0. -1.
         11    1    3    3    0    0  0.13332479803E+00 -0.64281110206E+01  0.10557673787E+01  0.65155991140E+01  0.51100000000E-03 0. -1.
        -11    1    3    3    0    0  0.11764054093E+02  0.11812319944E+02  0.38122219552E+02  0.41608022003E+02  0.51100000000E-03 0.  1.
        -12    1    3    3    0    0 -0.40468998319E+00  0.21857592572E+01 -0.91861807743E+00  0.24052394236E+01  0.00000000000E+00 0.  1.
</event>
<event>
 7    1  0.5764931E-013  0.5052886E+02  0.7816164E-02  0.1300439E+00
        -11   -1    0    0    0    0  0.00000000000E+00  0.00000000000E+00  0.45593999997E+02  0.45594000000E+02  0.51100000000E-03 0. -1.
         11   -1    0    0    0    0 -0.00000000000E+00 -0.00000000000E+00 -0.45593999997E+02  0.45594000000E+02  0.51100000000E-03 0.  1.
    9900012    2    1    2    0    0  0.28067982049E+02  0.28842988829E+02 -0.57823700374E+01  0.50528862968E+02  0.30000009478E+02 0.  0.
         12    1    1    2    0    0 -0.28067982049E+02 -0.28842988829E+02  0.57823700374E+01  0.40659137032E+02  0.00000000000E+00 0. -1.
         11    1    3    3    0    0  0.87469281762E+01  0.18734614320E+02  0.92445152042E+01  0.22648522863E+02  0.51100000000E-03 0. -1.
        -11    1    3    3    0    0  0.14991616640E+02  0.93033390755E+01 -0.15455649087E+02  0.23455868698E+02  0.51100000000E-03 0.  1.
        -12    1    3    3    0    0  0.43294372323E+01  0.80503543403E+00  0.42876384500E+00  0.44244714072E+01  0.00000000000E+00 0.  1.
</event>
<event>
 7    1  0.5764931E-013  0.5052886E+02  0.7816164E-02  0.1300439E+00
        -11   -1    0    0    0    0  0.00000000000E+00  0.00000000000E+00  0.45593999997E+02  0.45594000000E+02  0.51100000000E-03 0.  1.
         11   -1    0    0    0    0 -0.00000000000E+00 -0.00000000000E+00 -0.45593999997E+02  0.45594000000E+02  0.51100000000E-03 0. -1.
    9900012    2    1    2    0    0  0.32183797254E+02 -0.87126089832E+01 -0.23269281000E+02  0.50528858356E+02  0.29999995459E+02 0.  0.
         12    1    1    2    0    0 -0.32183797254E+02  0.87126089832E+01  0.23269281000E+02  0.40659141644E+02  0.00000000000E+00 0. -1.
         11    1    3    3    0    0  0.15482304935E+02  0.32001200253E+01 -0.17334229478E+02  0.23460989879E+02  0.51100000000E-03 0. -1.
        -11    1    3    3    0    0  0.16536448651E+02 -0.30285621317E+01 -0.85659975237E+00  0.16833302883E+02  0.51100000000E-03 0.  1.
         12    1    3    3    0    0  0.16504366879E+00 -0.88841668768E+01 -0.50784517696E+01  0.10234565593E+02  0.00000000000E+00 0. -1.
</event>
<event>
 7    1  0.5764931E-013  0.5052880E+02  0.7816164E-02  0.1300439E+00
        -11   -1    0    0    0    0  0.00000000000E+00  0.00000000000E+00  0.45593999997E+02  0.45594000000E+02  0.51100000000E-03 0.  1.
         11   -1    0    0    0    0 -0.00000000000E+00 -0.00000000000E+00 -0.45593999997E+02  0.45594000000E+02  0.51100000000E-03 0. -1.
    9900012    2    1    2    0    0 -0.10529802756E+02  0.26419361684E+02  0.29057027231E+02  0.50528803631E+02  0.29999829116E+02 0.  0.
         12    1    1    2    0    0  0.10529802756E+02 -0.26419361684E+02 -0.29057027231E+02  0.40659196369E+02  0.00000000000E+00 0. -1.
         11    1    3    3    0    0  0.36245645644E+01  0.11543745394E+02  0.98530033814E+01  0.15603756019E+02  0.51100000000E-03 0. -1.
        -11    1    3    3    0    0 -0.15104512407E+02  0.37558757068E+01  0.40100141018E+01  0.16072744343E+02  0.51100000000E-03 0.  1.
        -12    1    3    3    0    0  0.95014508578E+00  0.11119740583E+02  0.15194009748E+02  0.18852303269E+02  0.00000000000E+00 0.  1.
</event>
<event>
 7    1  0.5764931E-013  0.5052886E+02  0.7816164E-02  0.1300439E+00
        -11   -1    0    0    0    0  0.00000000000E+00  0.00000000000E+00  0.45593999997E+02  0.45594000000E+02  0.51100000000E-03 0. -1.
         11   -1    0    0    0    0 -0.00000000000E+00 -0.00000000000E+00 -0.45593999997E+02  0.45594000000E+02  0.51100000000E-03 0.  1.
    9900012    2    1    2    0    0 -0.18343106011E+02 -0.13963074576E+02  0.33492214072E+02  0.50528863349E+02  0.30000010636E+02 0.  0.
         12    1    1    2    0    0  0.18343106011E+02  0.13963074576E+02 -0.33492214072E+02  0.40659136651E+02  0.00000000000E+00 0. -1.
         11    1    3    3    0    0 -0.21497083776E+02 -0.51638382849E+01  0.26725400936E+02  0.34684822216E+02  0.51100000000E-03 0. -1.
        -11    1    3    3    0    0 -0.10402436010E+01 -0.60735864276E+01 -0.13514492443E+01  0.63084843000E+01  0.51100000000E-03 0.  1.
        -12    1    3    3    0    0  0.41942213657E+01 -0.27256498641E+01  0.81182623803E+01  0.95355568333E+01  0.00000000000E+00 0.  1.
</event>
<event>
 7    1  0.5764931E-013  0.5052886E+02  0.7816164E-02  0.1300439E+00
        -11   -1    0    0    0    0  0.00000000000E+00  0.00000000000E+00  0.45593999997E+02  0.45594000000E+02  0.51100000000E-03 0.  1.
         11   -1    0    0    0    0 -0.00000000000E+00 -0.00000000000E+00 -0.45593999997E+02  0.45594000000E+02  0.51100000000E-03 0. -1.
    9900012    2    1    2    0    0 -0.11270475448E+01  0.24606059469E+02  0.32348688464E+02  0.50528855344E+02  0.29999986305E+02 0.  0.
         12    1    1    2    0    0  0.11270475448E+01 -0.24606059469E+02 -0.32348688464E+02  0.40659144656E+02  0.00000000000E+00 0. -1.
         11    1    3    3    0    0  0.69686894419E+01  0.28181699290E+00  0.12160511718E+02  0.14018562653E+02  0.51100000000E-03 0.  1.
        -11    1    3    3    0    0 -0.24138189963E+01  0.15254175526E+02  0.22293101199E+01  0.15604044892E+02  0.51100000000E-03 0. -1.
         12    1    3    3    0    0 -0.56819179904E+01  0.90700669504E+01  0.17958866626E+02  0.20906247799E+02  0.00000000000E+00 0. -1.
</event>
<event>
 7    1  0.5764931E-013  0.5052885E+02  0.7816164E-02  0.1300439E+00
        -11   -1    0    0    0    0  0.00000000000E+00  0.00000000000E+00  0.45593999997E+02  0.45594000000E+02  0.51100000000E-03 0. -1.
         11   -1    0    0    0    0 -0.00000000000E+00 -0.00000000000E+00 -0.45593999997E+02  0.45594000000E+02  0.51100000000E-03 0.  1.
    9900012    2    1    2    0    0 -0.15456099603E+02  0.35264263225E+02 -0.13065483097E+02  0.50528854359E+02  0.29999983309E+02 0.  0.
         12    1    1    2    0    0  0.15456099603E+02 -0.35264263225E+02  0.13065483097E+02  0.40659145641E+02  0.00000000000E+00 0. -1.
         11    1    3    3    0    0 -0.22151650257E+01 -0.34436336542E+01 -0.48234138744E+01  0.63269969575E+01  0.51100000000E-03 0. -1.
        -11    1    3    3    0    0 -0.12259637285E+02  0.14419292361E+02 -0.15544759761E+01  0.18990289476E+02  0.51100000000E-03 0.  1.
         12    1    3    3    0    0 -0.98129729187E+00  0.24288604518E+02 -0.66875932467E+01  0.25211567925E+02  0.00000000000E+00 0. -1.
</event>
<event>
 7    1  0.5764931E-013  0.5052886E+02  0.7816164E-02  0.1300439E+00
        -11   -1    0    0    0    0  0.00000000000E+00  0.00000000000E+00  0.45593999997E+02  0.45594000000E+02  0.51100000000E-03 0. -1.
         11   -1    0    0    0    0 -0.00000000000E+00 -0.00000000000E+00 -0.45593999997E+02  0.45594000000E+02  0.51100000000E-03 0.  1.
    9900012    2    1    2    0    0  0.42226268977E+01  0.44090055152E+01 -0.40198209018E+02  0.50528856922E+02  0.29999991101E+02 0.  0.
         12    1    1    2    0    0 -0.42226268977E+01 -0.44090055152E+01  0.40198209018E+02  0.40659143078E+02  0.00000000000E+00 0. -1.
         11    1    3    3    0    0  0.19930679222E+00  0.11275459374E+02 -0.78293939576E+01  0.13728624013E+02  0.51100000000E-03 0. -1.
        -11    1    3    3    0    0 -0.36725353673E+01 -0.87733976975E+01 -0.19254887853E+02  0.21475817323E+02  0.51100000000E-03 0.  1.
        -12    1    3    3    0    0  0.76958554727E+01  0.19069438388E+01 -0.13113927208E+02  0.15324415586E+02  0.00000000000E+00 0.  1.
</event>
<event>
 7    1  0.5764931E-013  0.5052887E+02  0.7816164E-02  0.1300439E+00
        -11   -1    0    0    0    0  0.00000000000E+00  0.00000000000E+00  0.45593999997E+02  0.45594000000E+02  0.51100000000E-03 0. -1.
         11   -1    0    0    0    0 -0.00000000000E+00 -0.00000000000E+00 -0.45593999997E+02  0.45594000000E+02  0.51100000000E-03 0.  1.
    9900012    2    1    2    0    0  0.38834056437E+02  0.15667602108E+01 -0.11942612980E+02  0.50528872099E+02  0.30000037231E+02 0.  0.
         12    1    1    2    0    0 -0.38834056437E+02 -0.15667602108E+01  0.11942612980E+02  0.40659127901E+02  0.00000000000E+00 0. -1.
         11    1    3    3    0    0  0.99905588509E+01 -0.77185301786E+01  0.56252393560E+01  0.13821370856E+02  0.51100000000E-03 0.  1.
        -11    1    3    3    0    0  0.13381715047E+02  0.62121605140E+00 -0.12378542762E+02  0.18239641667E+02  0.51100000000E-03 0. -1.
        -12    1    3    3    0    0  0.15461782539E+02  0.86640743380E+01 -0.51893095740E+01  0.18467859575E+02  0.00000000000E+00 0.  1.
</event>
<event>
 7    1  0.5764931E-013  0.5052885E+02  0.7816164E-02  0.1300439E+00
        -11   -1    0    0    0    0  0.00000000000E+00  0.00000000000E+00  0.45593999997E+02  0.45594000000E+02  0.51100000000E-03 0.  1.
         11   -1    0    0    0    0 -0.00000000000E+00 -0.00000000000E+00 -0.45593999997E+02  0.45594000000E+02  0.51100000000E-03 0. -1.
    9900012    2    1    2    0    0 -0.12536803070E+01  0.26432275720E+02  0.30869552917E+02  0.50528853288E+02  0.29999980054E+02 0.  0.
         12    1    1    2    0    0  0.12536803070E+01 -0.26432275720E+02 -0.30869552917E+02  0.40659146712E+02  0.00000000000E+00 0. -1.
         11    1    3    3    0    0 -0.36163310532E+01 -0.38377604678E+01 -0.13508251939E+01  0.54434350056E+01  0.51100000000E-03 0. -1.
        -11    1    3    3    0    0  0.52057008940E+01  0.25016641405E+02  0.26564119043E+02  0.36858975702E+02  0.51100000000E-03 0.  1.
         12    1    3    3    0    0 -0.28430501478E+01  0.52533947826E+01  0.56562590678E+01  0.82264425803E+01  0.00000000000E+00 0. -1.
</event>
<event>
 7    1  0.5764931E-013  0.5052886E+02  0.7816164E-02  0.1300439E+00
        -11   -1    0    0    0    0  0.00000000000E+00  0.00000000000E+00  0.45593999997E+02  0.45594000000E+02  0.51100000000E-03 0. -1.
         11   -1    0    0    0    0 -0.00000000000E+00 -0.00000000000E+00 -0.45593999997E+02  0.45594000000E+02  0.51100000000E-03 0.  1.
    9900012    2    1    2    0    0 -0.39226725879E+02  0.99084140684E+01  0.40314756365E+01  0.50528862179E+02  0.30000007079E+02 0.  0.
         12    1    1    2    0    0  0.39226725879E+02 -0.99084140684E+01 -0.40314756365E+01  0.40659137821E+02  0.00000000000E+00 0. -1.
         11    1    3    3    0    0 -0.94131863295E+01  0.67995626707E+01 -0.26618388306E+01  0.11913333522E+02  0.51100000000E-03 0. -1.
        -11    1    3    3    0    0 -0.23564332338E+01 -0.63391568583E+01 -0.37795699957E+01  0.77474406660E+01  0.51100000000E-03 0.  1.
        -12    1    3    3    0    0 -0.27457106316E+02  0.94480082560E+01  0.10472884463E+02  0.30868087991E+02  0.00000000000E+00 0.  1.
</event>
<event>
 7    1  0.5764931E-013  0.5052885E+02  0.7816164E-02  0.1300439E+00
        -11   -1    0    0    0    0  0.00000000000E+00  0.00000000000E+00  0.45593999997E+02  0.45594000000E+02  0.51100000000E-03 0.  1.
         11   -1    0    0    0    0 -0.00000000000E+00 -0.00000000000E+00 -0.45593999997E+02  0.45594000000E+02  0.51100000000E-03 0. -1.
    9900012    2    1    2    0    0 -0.39164446385E+00 -0.30523544791E+01  0.40542520639E+02  0.50528853021E+02  0.29999979243E+02 0.  0.
         12    1    1    2    0    0  0.39164446385E+00  0.30523544791E+01 -0.40542520639E+02  0.40659146979E+02  0.00000000000E+00 0. -1.
         11    1    3    3    0    0  0.49894323348E+00 -0.11894383600E+02  0.91234353913E+01  0.14998745920E+02  0.51100000000E-03 0. -1.
        -11    1    3    3    0    0  0.46812740901E+01  0.35284737099E+01  0.24457307176E+02  0.25150036349E+02  0.51100000000E-03 0.  1.
         12    1    3    3    0    0 -0.55718617874E+01  0.53135554109E+01  0.69617780723E+01  0.10380070752E+02  0.00000000000E+00 0. -1.
</event>
<event>
 7    1  0.5764931E-013  0.5052886E+02  0.7816164E-02  0.1300439E+00
        -11   -1    0    0    0    0  0.00000000000E+00  0.00000000000E+00  0.45593999997E+02  0.45594000000E+02  0.51100000000E-03 0.  1.
         11   -1    0    0    0    0 -0.00000000000E+00 -0.00000000000E+00 -0.45593999997E+02  0.45594000000E+02  0.51100000000E-03 0. -1.
    9900012    2    1    2    0    0 -0.19637691447E+01 -0.50549447357E+01  0.40295868493E+02  0.50528857447E+02  0.29999992697E+02 0.  0.
         12    1    1    2    0    0  0.19637691447E+01  0.50549447357E+01 -0.40295868493E+02  0.40659142553E+02  0.00000000000E+00 0. -1.
         11    1    3    3    0    0 -0.61763645300E+01 -0.98431726035E+01  0.21119410485E+02  0.24105290399E+02  0.51100000000E-03 0. -1.
        -11    1    3    3    0    0  0.80911174855E+01 -0.35880285756E+01  0.80252385449E+01  0.11947576540E+02  0.51100000000E-03 0.  1.
         12    1    3    3    0    0 -0.38785221002E+01  0.83762564434E+01  0.11151219463E+02  0.14475990508E+02  0.00000000000E+00 0. -1.
</event>
<event>
 7    1  0.5764931E-013  0.5052886E+02  0.7816164E-02  0.1300439E+00
        -11   -1    0    0    0    0  0.00000000000E+00  0.00000000000E+00  0.45593999997E+02  0.45594000000E+02  0.51100000000E-03 0. -1.
         11   -1    0    0    0    0 -0.00000000000E+00 -0.00000000000E+00 -0.45593999997E+02  0.45594000000E+02  0.51100000000E-03 0.  1.
    9900012    2    1    2    0    0  0.26939637319E+02 -0.17245522786E+02 -0.25100076617E+02  0.50528856364E+02  0.29999989405E+02 0.  0.
         12    1    1    2    0    0 -0.26939637319E+02  0.17245522786E+02  0.25100076617E+02  0.40659143636E+02  0.00000000000E+00 0. -1.
         11    1    3    3    0    0  0.82365713055E-01  0.67276504968E+00  0.76253379871E+00  0.10202230041E+01  0.51100000000E-03 0. -1.
        -11    1    3    3    0    0  0.15962557442E+01 -0.15726785025E+02 -0.47276165968E+01  0.16499398734E+02  0.51100000000E-03 0.  1.
        -12    1    3    3    0    0  0.25261015861E+02 -0.21915028109E+01 -0.21134993819E+02  0.33009234627E+02  0.00000000000E+00 0.  1.
</event>
<event>
 7    1  0.5764931E-013  0.5052891E+02  0.7816164E-02  0.1300439E+00
        -11   -1    0    0    0    0  0.00000000000E+00  0.00000000000E+00  0.45593999997E+02  0.45594000000E+02  0.51100000000E-03 0.  1.
         11   -1    0    0    0    0 -0.00000000000E+00 -0.00000000000E+00 -0.45593999997E+02  0.45594000000E+02  0.51100000000E-03 0. -1.
    9900012    2    1    2    0    0 -0.86350166022E+01 -0.39110014208E+02  0.70003673692E+01  0.50528906719E+02  0.30000142464E+02 0.  0.
         12    1    1    2    0    0  0.86350166022E+01  0.39110014208E+02 -0.70003673692E+01  0.40659093281E+02  0.00000000000E+00 0. -1.
         11    1    3    3    0    0  0.12222871296E+01 -0.12707260726E+02  0.15391088803E+02  0.19996351562E+02  0.51100000000E-03 0. -1.
        -11    1    3    3    0    0 -0.10293980752E+02 -0.24069062742E+02 -0.54260614598E+01  0.26734396650E+02  0.51100000000E-03 0.  1.
        -12    1    3    3    0    0  0.43667701986E+00 -0.23336907397E+01 -0.29646599738E+01  0.37981585076E+01  0.00000000000E+00 0.  1.
</event>
<event>
 7    1  0.5764931E-013  0.5052887E+02  0.7816164E-02  0.1300439E+00
        -11   -1    0    0    0    0  0.00000000000E+00  0.00000000000E+00  0.45593999997E+02  0.45594000000E+02  0.51100000000E-03 0.  1.
         11   -1    0    0    0    0 -0.00000000000E+00 -0.00000000000E+00 -0.45593999997E+02  0.45594000000E+02  0.51100000000E-03 0. -1.
    9900012    2    1    2    0    0 -0.31878506396E+02 -0.17115175664E+02  0.18547130289E+02  0.50528874948E+02  0.30000045890E+02 0.  0.
         12    1    1    2    0    0  0.31878506396E+02  0.17115175664E+02 -0.18547130289E+02  0.40659125052E+02  0.00000000000E+00 0. -1.
         11    1    3    3    0    0 -0.19381246931E+02 -0.21644651550E+02  0.38215504389E+01  0.29304059810E+02  0.51100000000E-03 0. -1.
        -11    1    3    3    0    0 -0.13087484154E+02  0.28200983755E+01  0.12159917653E+02  0.18085872772E+02  0.51100000000E-03 0.  1.
         12    1    3    3    0    0  0.59022468920E+00  0.17093775113E+01  0.25656621976E+01  0.31389423652E+01  0.00000000000E+00 0. -1.
</event>
<event>
 7    1  0.5764931E-013  0.5052887E+02  0.7816164E-02  0.1300439E+00
        -11   -1    0    0    0    0  0.00000000000E+00  0.00000000000E+00  0.45593999997E+02  0.45594000000E+02  0.51100000000E-03 0.  1.
         11   -1    0    0    0    0 -0.00000000000E+00 -0.00000000000E+00 -0.45593999997E+02  0.45594000000E+02  0.51100000000E-03 0. -1.
    9900012    2    1    2    0    0  0.28931931210E+02 -0.12548302387E+02  0.25664142116E+02  0.50528871543E+02  0.30000035541E+02 0.  0.
         12    1    1    2    0    0 -0.28931931210E+02  0.12548302387E+02 -0.25664142116E+02  0.40659128457E+02  0.00000000000E+00 0. -1.
         11    1    3    3    0    0  0.13422928082E+02  0.32656977073E+01  0.75797305350E+00  0.13835255806E+02  0.51100000000E-03 0. -1.
        -11    1    3    3    0    0  0.10924066006E+02 -0.39137573573E+01  0.19813506215E+02  0.22961440363E+02  0.51100000000E-03 0.  1.
        -12    1    3    3    0    0  0.45849371218E+01 -0.11900242737E+02  0.50926628477E+01  0.13732175373E+02  0.00000000000E+00 0.  1.
</event>
<event>
 7    1  0.5764931E-013  0.5052889E+02  0.7816164E-02  0.1300439E+00
        -11   -1    0    0    0    0  0.00000000000E+00  0.00000000000E+00  0.45593999997E+02  0.45594000000E+02  0.51100000000E-03 0.  1.
         11   -1    0    0    0    0 -0.00000000000E+00 -0.00000000000E+00 -0.45593999997E+02  0.45594000000E+02  0.51100000000E-03 0. -1.
    9900012    2    1    2    0    0 -0.32995016701E+01 -0.38714012168E+02 -0.11979210384E+02  0.50528893630E+02  0.30000102676E+02 0.  0.
         12    1    1    2    0    0  0.32995016701E+01  0.38714012168E+02  0.11979210384E+02  0.40659106370E+02  0.00000000000E+00 0. -1.
         11    1    3    3    0    0  0.14979593158E+01 -0.41099758170E+02 -0.55810524766E+01  0.41504001623E+02  0.51100000000E-03 0.  1.
        -11    1    3    3    0    0 -0.99479808603E+00  0.21606412632E+01 -0.35295768313E+01  0.42562785117E+01  0.51100000000E-03 0. -1.
        -12    1    3    3    0    0 -0.38026628998E+01  0.22510473835E+00 -0.28685810763E+01  0.47686134949E+01  0.00000000000E+00 0.  1.
</event>
<event>
 7    1  0.5764931E-013  0.5052886E+02  0.7816164E-02  0.1300439E+00
        -11   -1    0    0    0    0  0.00000000000E+00  0.00000000000E+00  0.45593999997E+02  0.45594000000E+02  0.51100000000E-03 0.  1.
         11   -1    0    0    0    0 -0.00000000000E+00 -0.00000000000E+00 -0.45593999997E+02  0.45594000000E+02  0.51100000000E-03 0. -1.
    9900012    2    1    2    0    0 -0.36669698459E+02  0.10571083248E+02  0.14026805221E+02  0.50528857722E+02  0.29999993531E+02 0.  0.
         12    1    1    2    0    0  0.36669698459E+02 -0.10571083248E+02 -0.14026805221E+02  0.40659142278E+02  0.00000000000E+00 0. -1.
         11    1    3    3    0    0 -0.49366834260E+01  0.70021804769E+01  0.46258266446E+01  0.97365110326E+01  0.51100000000E-03 0. -1.
        -11    1    3    3    0    0 -0.10685662698E+02 -0.70310704230E+01  0.11410237991E+02  0.17140970505E+02  0.51100000000E-03 0.  1.
        -12    1    3    3    0    0 -0.21047352334E+02  0.10599973194E+02 -0.20092594147E+01  0.23651376184E+02  0.00000000000E+00 0.  1.
</event>
<event>
 7    1  0.5764931E-013  0.5052886E+02  0.7816164E-02  0.1300439E+00
        -11   -1    0    0    0    0  0.00000000000E+00  0.00000000000E+00  0.45593999997E+02  0.45594000000E+02  0.51100000000E-03 0.  1.
         11   -1    0    0    0    0 -0.00000000000E+00 -0.00000000000E+00 -0.45593999997E+02  0.45594000000E+02  0.51100000000E-03 0. -1.
    9900012    2    1    2    0    0  0.63557622095E+01  0.39576092762E+02 -0.68192831308E+01  0.50528862602E+02  0.30000008365E+02 0.  0.
         12    1    1    2    0    0 -0.63557622095E+01 -0.39576092762E+02  0.68192831308E+01  0.40659137398E+02  0.00000000000E+00 0. -1.
         11    1    3    3    0    0  0.33746987079E+01  0.32029504134E+02 -0.15427759646E+02  0.35711251650E+02  0.51100000000E-03 0.  1.
        -11    1    3    3    0    0 -0.16335685257E+01  0.56996915726E+01  0.77748437606E+01  0.97776902136E+01  0.51100000000E-03 0. -1.
         12    1    3    3    0    0  0.46146320273E+01  0.18468970548E+01  0.83363275452E+00  0.50399207382E+01  0.00000000000E+00 0. -1.
</event>
<event>
 7    1  0.5764931E-013  0.5052887E+02  0.7816164E-02  0.1300439E+00
        -11   -1    0    0    0    0  0.00000000000E+00  0.00000000000E+00  0.45593999997E+02  0.45594000000E+02  0.51100000000E-03 0. -1.
         11   -1    0    0    0    0 -0.00000000000E+00 -0.00000000000E+00 -0.45593999997E+02  0.45594000000E+02  0.51100000000E-03 0.  1.
    9900012    2    1    2    0    0  0.21461162404E+02 -0.34457188491E+02 -0.22990104340E+01  0.50528870897E+02  0.30000033578E+02 0.  0.
         12    1    1    2    0    0 -0.21461162404E+02  0.34457188491E+02  0.22990104340E+01  0.40659129103E+02  0.00000000000E+00 0. -1.
         11    1    3    3    0    0  0.24476393663E+02 -0.21412407652E+02  0.19523234174E+01  0.32579082479E+02  0.51100000000E-03 0. -1.
        -11    1    3    3    0    0 -0.53352261497E+01 -0.13163630837E+02 -0.14009152151E+01  0.14272644414E+02  0.51100000000E-03 0.  1.
        -12    1    3    3    0    0  0.23199948914E+01  0.11884999794E+00 -0.28504186363E+01  0.36771440031E+01  0.00000000000E+00 0.  1.
</event>
<event>
 7    1  0.5764931E-013  0.5052886E+02  0.7816164E-02  0.1300439E+00
        -11   -1    0    0    0    0  0.00000000000E+00  0.00000000000E+00  0.45593999997E+02  0.45594000000E+02  0.51100000000E-03 0.  1.
         11   -1    0    0    0    0 -0.00000000000E+00 -0.00000000000E+00 -0.45593999997E+02  0.45594000000E+02  0.51100000000E-03 0. -1.
    9900012    2    1    2    0    0  0.32702456522E+02  0.17738193539E+02 -0.16403394827E+02  0.50528861612E+02  0.30000005357E+02 0.  0.
         12    1    1    2    0    0 -0.32702456522E+02 -0.17738193539E+02  0.16403394827E+02  0.40659138388E+02  0.00000000000E+00 0. -1.
         11    1    3    3    0    0  0.32391951791E+02  0.15152980470E+02 -0.73496031428E+01  0.36508465109E+02  0.51100000000E-03 0.  1.
        -11    1    3    3    0    0 -0.29463012528E+01  0.24991819136E+01  0.52843287381E+00  0.38994669985E+01  0.51100000000E-03 0. -1.
        -12    1    3    3    0    0  0.32568059830E+01  0.86031155201E-01 -0.95822245579E+01  0.10120929505E+02  0.00000000000E+00 0.  1.
</event>
<event>
 7    1  0.5764931E-013  0.5052885E+02  0.7816164E-02  0.1300439E+00
        -11   -1    0    0    0    0  0.00000000000E+00  0.00000000000E+00  0.45593999997E+02  0.45594000000E+02  0.51100000000E-03 0. -1.
         11   -1    0    0    0    0 -0.00000000000E+00 -0.00000000000E+00 -0.45593999997E+02  0.45594000000E+02  0.51100000000E-03 0.  1.
    9900012    2    1    2    0    0 -0.38199497535E+02 -0.10301128140E+02 -0.93729232859E+01  0.50528849199E+02  0.29999967627E+02 0.  0.
         12    1    1    2    0    0  0.38199497535E+02  0.10301128140E+02  0.93729232859E+01  0.40659150801E+02  0.00000000000E+00 0. -1.
         11    1    3    3    0    0 -0.18940997110E+02 -0.22411978724E+01 -0.11314382008E+02  0.22176554735E+02  0.51100000000E-03 0. -1.
        -11    1    3    3    0    0 -0.44919319632E+01 -0.11735803497E+02  0.35297409788E+01  0.13052417712E+02  0.51100000000E-03 0.  1.
         12    1    3    3    0    0 -0.14766568462E+02  0.36758732290E+01 -0.15882822571E+01  0.15299876753E+02  0.00000000000E+00 0. -1.
</event>
<event>
 7    1  0.5764931E-013  0.5052886E+02  0.7816164E-02  0.1300439E+00
        -11   -1    0    0    0    0  0.00000000000E+00  0.00000000000E+00  0.45593999997E+02  0.45594000000E+02  0.51100000000E-03 0. -1.
         11   -1    0    0    0    0 -0.00000000000E+00 -0.00000000000E+00 -0.45593999997E+02  0.45594000000E+02  0.51100000000E-03 0.  1.
    9900012    2    1    2    0    0 -0.25358744912E+02  0.68114785748E+01  0.31043574180E+02  0.50528859801E+02  0.29999999851E+02 0.  0.
         12    1    1    2    0    0  0.25358744912E+02 -0.68114785748E+01 -0.31043574180E+02  0.40659140199E+02  0.00000000000E+00 0. -1.
         11    1    3    3    0    0 -0.22680501114E+02 -0.49447010548E+01  0.30358513124E+02  0.38216416873E+02  0.51100000000E-03 0. -1.
        -11    1    3    3    0    0 -0.26196588235E+00  0.54472904023E+01  0.10209354246E+01  0.55483248150E+01  0.51100000000E-03 0.  1.
         12    1    3    3    0    0 -0.24162779157E+01  0.63088892272E+01 -0.33587436868E+00  0.67641181124E+01  0.00000000000E+00 0. -1.
</event>
<event>
 7    1  0.5764931E-013  0.5052886E+02  0.7816164E-02  0.1300439E+00
        -11   -1    0    0    0    0  0.00000000000E+00  0.00000000000E+00  0.45593999997E+02  0.45594000000E+02  0.51100000000E-03 0.  1.
         11   -1    0    0    0    0 -0.00000000000E+00 -0.00000000000E+00 -0.45593999997E+02  0.45594000000E+02  0.51100000000E-03 0. -1.
    9900012    2    1    2    0    0 -0.22018269751E+02 -0.32753186418E+02 -0.97770269861E+01  0.50528859822E+02  0.29999999914E+02 0.  0.
         12    1    1    2    0    0  0.22018269751E+02  0.32753186418E+02  0.97770269861E+01  0.40659140178E+02  0.00000000000E+00 0. -1.
         11    1    3    3    0    0  0.36650561095E+01 -0.83083930325E+00 -0.59036369157E+01  0.69982754538E+01  0.51100000000E-03 0. -1.
        -11    1    3    3    0    0 -0.88971286330E+01 -0.19214037947E+02  0.29942472152E+01  0.21384659660E+02  0.51100000000E-03 0.  1.
         12    1    3    3    0    0 -0.16786197227E+02 -0.12708309168E+02 -0.68676372856E+01  0.22145924707E+02  0.00000000000E+00 0. -1.
</event>
<event>
 7    1  0.5764931E-013  0.5052884E+02  0.7816164E-02  0.1300439E+00
        -11   -1    0    0    0    0  0.00000000000E+00  0.00000000000E+00  0.45593999997E+02  0.45594000000E+02  0.51100000000E-03 0. -1.
         11   -1    0    0    0    0 -0.00000000000E+00 -0.00000000000E+00 -0.45593999997E+02  0.45594000000E+02  0.51100000000E-03 0.  1.
    9900012    2    1    2    0    0  0.58289733031E+01  0.37365669205E+02  0.14933082739E+02  0.50528842053E+02  0.29999945903E+02 0.  0.
         12    1    1    2    0    0 -0.58289733031E+01 -0.37365669205E+02 -0.14933082739E+02  0.40659157947E+02  0.00000000000E+00 0. -1.
         11    1    3    3    0    0  0.56959697742E+01  0.13563656803E+01 -0.33160898969E+01  0.67290602607E+01  0.51100000000E-03 0. -1.
        -11    1    3    3    0    0  0.32174428490E+01  0.22589230552E+02  0.26156376707E+01  0.22966646166E+02  0.51100000000E-03 0.  1.
         12    1    3    3    0    0 -0.30844393201E+01  0.13420072973E+02  0.15633534965E+02  0.20833135626E+02  0.00000000000E+00 0. -1.
</event>
<event>
 7    1  0.5764931E-013  0.5052886E+02  0.7816164E-02  0.1300439E+00
        -11   -1    0    0    0    0  0.00000000000E+00  0.00000000000E+00  0.45593999997E+02  0.45594000000E+02  0.51100000000E-03 0. -1.
         11   -1    0    0    0    0 -0.00000000000E+00 -0.00000000000E+00 -0.45593999997E+02  0.45594000000E+02  0.51100000000E-03 0.  1.
    9900012    2    1    2    0    0  0.21085509661E+02  0.12824773415E+02 -0.32312414665E+02  0.50528859916E+02  0.30000000202E+02 0.  0.
         12    1    1    2    0    0 -0.21085509661E+02 -0.12824773415E+02  0.32312414665E+02  0.40659140084E+02  0.00000000000E+00 0. -1.
         11    1    3    3    0    0  0.37182826511E+01  0.12605432696E+02 -0.13802948749E+02  0.19058959934E+02  0.51100000000E-03 0. -1.
        -11    1    3    3    0    0  0.16218576757E+02 -0.54568451799E+01 -0.19105127574E+02  0.25648105022E+02  0.51100000000E-03 0.  1.
        -12    1    3    3    0    0  0.11486502533E+01  0.56761858984E+01  0.59566165702E+00  0.58217949610E+01  0.00000000000E+00 0.  1.
</event>
<event>
 7    1  0.5764931E-013  0.5052886E+02  0.7816164E-02  0.1300439E+00
        -11   -1    0    0    0    0  0.00000000000E+00  0.00000000000E+00  0.45593999997E+02  0.45594000000E+02  0.51100000000E-03 0. -1.
         11   -1    0    0    0    0 -0.00000000000E+00 -0.00000000000E+00 -0.45593999997E+02  0.45594000000E+02  0.51100000000E-03 0.  1.
    9900012    2    1    2    0    0 -0.91389815493E+01  0.15651997193E+02 -0.36395877832E+02  0.50528856834E+02  0.29999990831E+02 0.  0.
         12    1    1    2    0    0  0.91389815493E+01 -0.15651997193E+02  0.36395877832E+02  0.40659143166E+02  0.00000000000E+00 0. -1.
         11    1    3    3    0    0  0.41772215864E+01 -0.26812459298E+01 -0.16772270906E+02  0.17491350192E+02  0.51100000000E-03 0. -1.
        -11    1    3    3    0    0 -0.95349394268E+01  0.15149270006E+02 -0.65505644537E+01  0.19061095102E+02  0.51100000000E-03 0.  1.
        -12    1    3    3    0    0 -0.37812637089E+01  0.31839731169E+01 -0.13073042472E+02  0.13976411539E+02  0.00000000000E+00 0.  1.
</event>
<event>
 7    1  0.5764931E-013  0.5052886E+02  0.7816164E-02  0.1300439E+00
        -11   -1    0    0    0    0  0.00000000000E+00  0.00000000000E+00  0.45593999997E+02  0.45594000000E+02  0.51100000000E-03 0. -1.
         11   -1    0    0    0    0 -0.00000000000E+00 -0.00000000000E+00 -0.45593999997E+02  0.45594000000E+02  0.51100000000E-03 0.  1.
    9900012    2    1    2    0    0 -0.14908154943E+02  0.29267917611E+01 -0.37714006899E+02  0.50528861911E+02  0.30000006264E+02 0.  0.
         12    1    1    2    0    0  0.14908154943E+02 -0.29267917611E+01  0.37714006899E+02  0.40659138089E+02  0.00000000000E+00 0. -1.
         11    1    3    3    0    0  0.66236539505E+01  0.50617410332E+00 -0.67930861214E+00  0.66776091777E+01  0.51100000000E-03 0. -1.
        -11    1    3    3    0    0 -0.16881945805E+01 -0.25118487703E+01 -0.51481118702E+01  0.59718038544E+01  0.51100000000E-03 0.  1.
         12    1    3    3    0    0 -0.19843614313E+02  0.49324664281E+01 -0.31886586416E+02  0.37879448879E+02  0.00000000000E+00 0. -1.
</event>
<event>
 7    1  0.5764931E-013  0.5052884E+02  0.7816164E-02  0.1300439E+00
        -11   -1    0    0    0    0  0.00000000000E+00  0.00000000000E+00  0.45593999997E+02  0.45594000000E+02  0.51100000000E-03 0.  1.
         11   -1    0    0    0    0 -0.00000000000E+00 -0.00000000000E+00 -0.45593999997E+02  0.45594000000E+02  0.51100000000E-03 0. -1.
    9900012    2    1    2    0    0 -0.15876157331E+02  0.10380915356E+01  0.37417067693E+02  0.50528844077E+02  0.29999952055E+02 0.  0.
         12    1    1    2    0    0  0.15876157331E+02 -0.10380915356E+01 -0.37417067693E+02  0.40659155923E+02  0.00000000000E+00 0. -1.
         11    1    3    3    0    0 -0.62659840781E+01  0.26845695325E+00  0.31302670337E+02  0.31924783415E+02  0.51100000000E-03 0.  1.
        -11    1    3    3    0    0 -0.10612781103E+02 -0.48809270902E+01  0.29394866008E+01  0.12045544974E+02  0.51100000000E-03 0. -1.
         12    1    3    3    0    0  0.10026078493E+01  0.56505616726E+01  0.31749107550E+01  0.65585156871E+01  0.00000000000E+00 0. -1.
</event>
<event>
 7    1  0.5764931E-013  0.5052886E+02  0.7816164E-02  0.1300439E+00
        -11   -1    0    0    0    0  0.00000000000E+00  0.00000000000E+00  0.45593999997E+02  0.45594000000E+02  0.51100000000E-03 0.  1.
         11   -1    0    0    0    0 -0.00000000000E+00 -0.00000000000E+00 -0.45593999997E+02  0.45594000000E+02  0.51100000000E-03 0. -1.
    9900012    2    1    2    0    0  0.11653939289E+02  0.26201299454E+01  0.38864976001E+02  0.50528859066E+02  0.29999997618E+02 0.  0.
         12    1    1    2    0    0 -0.11653939289E+02 -0.26201299454E+01 -0.38864976001E+02  0.40659140934E+02  0.00000000000E+00 0. -1.
         11    1    3    3    0    0  0.45880157122E+01  0.76868328488E+01  0.33719901821E+02  0.34887950162E+02  0.51100000000E-03 0.  1.
        -11    1    3    3    0    0  0.79623499363E+01 -0.58848212681E+01 -0.45438461555E+00  0.99114380140E+01  0.51100000000E-03 0. -1.
         12    1    3    3    0    0 -0.89642635992E+00  0.81811836470E+00  0.55994587955E+01  0.57294708900E+01  0.00000000000E+00 0. -1.
</event>
<event>
 7    1  0.5764931E-013  0.5052886E+02  0.7816164E-02  0.1300439E+00
        -11   -1    0    0    0    0  0.00000000000E+00  0.00000000000E+00  0.45593999997E+02  0.45594000000E+02  0.51100000000E-03 0. -1.
         11   -1    0    0    0    0 -0.00000000000E+00 -0.00000000000E+00 -0.45593999997E+02  0.45594000000E+02  0.51100000000E-03 0.  1.
    9900012    2    1    2    0    0  0.19908944942E+02 -0.19958617282E+02 -0.29299371425E+02  0.50528860088E+02  0.30000000723E+02 0.  0.
         12    1    1    2    0    0 -0.19908944942E+02  0.19958617282E+02  0.29299371425E+02  0.40659139912E+02  0.00000000000E+00 0. -1.
         11    1    3    3    0    0 -0.13191965635E+01 -0.16682902731E+00  0.49098929442E+01  0.50867632618E+01  0.51100000000E-03 0. -1.
        -11    1    3    3    0    0  0.38479270833E+01 -0.66675271473E+01 -0.57648322566E+01  0.96174712012E+01  0.51100000000E-03 0.  1.
         12    1    3    3    0    0  0.17380214422E+02 -0.13124261107E+02 -0.28444432112E+02  0.35824625625E+02  0.00000000000E+00 0. -1.
</event>
<event>
 7    1  0.5764931E-013  0.5052886E+02  0.7816164E-02  0.1300439E+00
        -11   -1    0    0    0    0  0.00000000000E+00  0.00000000000E+00  0.45593999997E+02  0.45594000000E+02  0.51100000000E-03 0.  1.
         11   -1    0    0    0    0 -0.00000000000E+00 -0.00000000000E+00 -0.45593999997E+02  0.45594000000E+02  0.51100000000E-03 0. -1.
    9900012    2    1    2    0    0  0.30003170384E+01  0.32730291626E+02  0.23935151014E+02  0.50528863926E+02  0.30000012390E+02 0.  0.
         12    1    1    2    0    0 -0.30003170384E+01 -0.32730291626E+02 -0.23935151014E+02  0.40659136074E+02  0.00000000000E+00 0. -1.
         11    1    3    3    0    0  0.32369852594E+01  0.56071223970E+01 -0.19921477059E+01  0.67739610191E+01  0.51100000000E-03 0. -1.
        -11    1    3    3    0    0 -0.10648345312E+02  0.99802547530E+01  0.14941379594E+02  0.20886300947E+02  0.51100000000E-03 0.  1.
        -12    1    3    3    0    0  0.10411677091E+02  0.17142914476E+02  0.10985919125E+02  0.22868601960E+02  0.00000000000E+00 0.  1.
</event>
<event>
 7    1  0.5764931E-013  0.5052886E+02  0.7816164E-02  0.1300439E+00
        -11   -1    0    0    0    0  0.00000000000E+00  0.00000000000E+00  0.45593999997E+02  0.45594000000E+02  0.51100000000E-03 0. -1.
         11   -1    0    0    0    0 -0.00000000000E+00 -0.00000000000E+00 -0.45593999997E+02  0.45594000000E+02  0.51100000000E-03 0.  1.
    9900012    2    1    2    0    0  0.21709407655E+02 -0.66105508259E+01 -0.33736746450E+02  0.50528858051E+02  0.29999994533E+02 0.  0.
         12    1    1    2    0    0 -0.21709407655E+02  0.66105508259E+01  0.33736746450E+02  0.40659141949E+02  0.00000000000E+00 0. -1.
         11    1    3    3    0    0 -0.60914001578E+01  0.19315956505E+01 -0.11273858185E+01  0.64890073728E+01  0.51100000000E-03 0. -1.
        -11    1    3    3    0    0  0.16730402177E+02 -0.30361453919E+01 -0.21557356122E+02  0.27456222229E+02  0.51100000000E-03 0.  1.
         12    1    3    3    0    0  0.11070405636E+02 -0.55060010845E+01 -0.11052004510E+02  0.16583628450E+02  0.00000000000E+00 0. -1.
</event>
<event>
 7    1  0.5764931E-013  0.5052885E+02  0.7816164E-02  0.1300439E+00
        -11   -1    0    0    0    0  0.00000000000E+00  0.00000000000E+00  0.45593999997E+02  0.45594000000E+02  0.51100000000E-03 0.  1.
         11   -1    0    0    0    0 -0.00000000000E+00 -0.00000000000E+00 -0.45593999997E+02  0.45594000000E+02  0.51100000000E-03 0. -1.
    9900012    2    1    2    0    0 -0.81577812924E+01  0.56372130459E+01  0.39431447057E+02  0.50528848711E+02  0.29999966141E+02 0.  0.
         12    1    1    2    0    0  0.81577812924E+01 -0.56372130459E+01 -0.39431447057E+02  0.40659151289E+02  0.00000000000E+00 0. -1.
         11    1    3    3    0    0  0.79331443205E+00  0.21949771794E+01 -0.75966296218E-01  0.23351753136E+01  0.51100000000E-03 0. -1.
        -11    1    3    3    0    0 -0.12000907313E+02  0.65975331886E+01  0.41256159941E+02  0.43469759073E+02  0.51100000000E-03 0.  1.
        -12    1    3    3    0    0  0.30498115883E+01 -0.31552973221E+01 -0.17487465876E+01  0.47239143242E+01  0.00000000000E+00 0.  1.
</event>
<event>
 7    1  0.5764931E-013  0.5052887E+02  0.7816164E-02  0.1300439E+00
        -11   -1    0    0    0    0  0.00000000000E+00  0.00000000000E+00  0.45593999997E+02  0.45594000000E+02  0.51100000000E-03 0.  1.
         11   -1    0    0    0    0 -0.00000000000E+00 -0.00000000000E+00 -0.45593999997E+02  0.45594000000E+02  0.51100000000E-03 0. -1.
    9900012    2    1    2    0    0  0.74881753214E+01 -0.35862696069E+01  0.39802400774E+02  0.50528865643E+02  0.30000017608E+02 0.  0.
         12    1    1    2    0    0 -0.74881753214E+01  0.35862696069E+01 -0.39802400774E+02  0.40659134357E+02  0.00000000000E+00 0. -1.
         11    1    3    3    0    0 -0.35322372509E+01 -0.59262625857E+01  0.24073801985E+02  0.25042867857E+02  0.51100000000E-03 0.  1.
        -11    1    3    3    0    0  0.14158553784E+02 -0.24044741978E+01  0.11492478781E+02  0.18393564369E+02  0.51100000000E-03 0. -1.
        -12    1    3    3    0    0 -0.31381412114E+01  0.47444671766E+01  0.42361200080E+01  0.70924334170E+01  0.00000000000E+00 0.  1.
</event>
<event>
 7    1  0.5764931E-013  0.5052886E+02  0.7816164E-02  0.1300439E+00
        -11   -1    0    0    0    0  0.00000000000E+00  0.00000000000E+00  0.45593999997E+02  0.45594000000E+02  0.51100000000E-03 0. -1.
         11   -1    0    0    0    0 -0.00000000000E+00 -0.00000000000E+00 -0.45593999997E+02  0.45594000000E+02  0.51100000000E-03 0.  1.
    9900012    2    1    2    0    0  0.87563380344E+01 -0.31103378834E+02 -0.24679385640E+02  0.50528859499E+02  0.29999998935E+02 0.  0.
         12    1    1    2    0    0 -0.87563380344E+01  0.31103378834E+02  0.24679385640E+02  0.40659140501E+02  0.00000000000E+00 0. -1.
         11    1    3    3    0    0  0.75309828247E+01  0.93143163517E+00 -0.19953742455E+01  0.78463230776E+01  0.51100000000E-03 0. -1.
        -11    1    3    3    0    0  0.66244939006E+01 -0.29000880805E+02 -0.16925508564E+02  0.34225835962E+02  0.51100000000E-03 0.  1.
        -12    1    3    3    0    0 -0.53991386909E+01 -0.30339296640E+01 -0.57585028308E+01  0.84567004595E+01  0.00000000000E+00 0.  1.
</event>
<event>
 7    1  0.5764931E-013  0.5052884E+02  0.7816164E-02  0.1300439E+00
        -11   -1    0    0    0    0  0.00000000000E+00  0.00000000000E+00  0.45593999997E+02  0.45594000000E+02  0.51100000000E-03 0. -1.
         11   -1    0    0    0    0 -0.00000000000E+00 -0.00000000000E+00 -0.45593999997E+02  0.45594000000E+02  0.51100000000E-03 0.  1.
    9900012    2    1    2    0    0 -0.18905969245E+02 -0.19766948755E+02 -0.30083213079E+02  0.50528835654E+02  0.29999926455E+02 0.  0.
         12    1    1    2    0    0  0.18905969245E+02  0.19766948755E+02  0.30083213079E+02  0.40659164346E+02  0.00000000000E+00 0. -1.
         11    1    3    3    0    0 -0.19817557310E+02 -0.17864040904E+02 -0.24522762501E+02  0.36238452176E+02  0.51100000000E-03 0.  1.
        -11    1    3    3    0    0  0.16203867828E+01  0.42443723431E+01 -0.66031840840E+01  0.80151350719E+01  0.51100000000E-03 0. -1.
        -12    1    3    3    0    0 -0.70879871704E+00 -0.61472801938E+01  0.10427335059E+01  0.62752484068E+01  0.00000000000E+00 0.  1.
</event>
<event>
 7    1  0.5764931E-013  0.5052886E+02  0.7816164E-02  0.1300439E+00
        -11   -1    0    0    0    0  0.00000000000E+00  0.00000000000E+00  0.45593999997E+02  0.45594000000E+02  0.51100000000E-03 0.  1.
         11   -1    0    0    0    0 -0.00000000000E+00 -0.00000000000E+00 -0.45593999997E+02  0.45594000000E+02  0.51100000000E-03 0. -1.
    9900012    2    1    2    0    0  0.21358094107E+02  0.14947799390E+02  0.31201936243E+02  0.50528859382E+02  0.29999998578E+02 0.  0.
         12    1    1    2    0    0 -0.21358094107E+02 -0.14947799390E+02 -0.31201936243E+02  0.40659140618E+02  0.00000000000E+00 0. -1.
         11    1    3    3    0    0  0.37776826332E+00 -0.61146539301E+01  0.49851477502E+01  0.78983162698E+01  0.51100000000E-03 0. -1.
        -11    1    3    3    0    0  0.13430215988E+02  0.21038438697E+02  0.15034437972E+02  0.29137963719E+02  0.51100000000E-03 0.  1.
         12    1    3    3    0    0  0.75501098555E+01  0.24014623186E-01  0.11182350520E+02  0.13492579393E+02  0.00000000000E+00 0. -1.
</event>
<event>
 7    1  0.5764931E-013  0.5052886E+02  0.7816164E-02  0.1300439E+00
        -11   -1    0    0    0    0  0.00000000000E+00  0.00000000000E+00  0.45593999997E+02  0.45594000000E+02  0.51100000000E-03 0.  1.
         11   -1    0    0    0    0 -0.00000000000E+00 -0.00000000000E+00 -0.45593999997E+02  0.45594000000E+02  0.51100000000E-03 0. -1.
    9900012    2    1    2    0    0 -0.19190986895E+02 -0.62193803752E+01  0.35301433789E+02  0.50528857144E+02  0.29999991774E+02 0.  0.
         12    1    1    2    0    0  0.19190986895E+02  0.62193803752E+01 -0.35301433789E+02  0.40659142856E+02  0.00000000000E+00 0. -1.
         11    1    3    3    0    0 -0.98265793664E+01 -0.15322419760E+02  0.88436142359E+01  0.20237285450E+02  0.51100000000E-03 0. -1.
        -11    1    3    3    0    0 -0.28694760215E+01  0.44589240946E+01  0.17529020680E+02  0.18313450329E+02  0.51100000000E-03 0.  1.
        -12    1    3    3    0    0 -0.64949315074E+01  0.46441152904E+01  0.89287988731E+01  0.11978121365E+02  0.00000000000E+00 0.  1.
</event>
<event>
 7    1  0.5764931E-013  0.5052886E+02  0.7816164E-02  0.1300439E+00
        -11   -1    0    0    0    0  0.00000000000E+00  0.00000000000E+00  0.45593999997E+02  0.45594000000E+02  0.51100000000E-03 0.  1.
         11   -1    0    0    0    0 -0.00000000000E+00 -0.00000000000E+00 -0.45593999997E+02  0.45594000000E+02  0.51100000000E-03 0. -1.
    9900012    2    1    2    0    0  0.64327829735E+01 -0.66203711796E+01  0.39597423218E+02  0.50528856663E+02  0.29999990314E+02 0.  0.
         12    1    1    2    0    0 -0.64327829735E+01  0.66203711796E+01 -0.39597423218E+02  0.40659143337E+02  0.00000000000E+00 0. -1.
         11    1    3    3    0    0 -0.58877817346E+01  0.95843857912E+00  0.82120580481E+01  0.10149998813E+02  0.51100000000E-03 0. -1.
        -11    1    3    3    0    0  0.11851546371E+02 -0.12337777416E+02  0.13293220117E+02  0.21665401088E+02  0.51100000000E-03 0.  1.
        -12    1    3    3    0    0  0.46901833694E+00  0.47589676572E+01  0.18092145053E+02  0.18713456762E+02  0.00000000000E+00 0.  1.
</event>
<event>
 7    1  0.5764931E-013  0.5052886E+02  0.7816164E-02  0.1300439E+00
        -11   -1    0    0    0    0  0.00000000000E+00  0.00000000000E+00  0.45593999997E+02  0.45594000000E+02  0.51100000000E-03 0. -1.
         11   -1    0    0    0    0 -0.00000000000E+00 -0.00000000000E+00 -0.45593999997E+02  0.45594000000E+02  0.51100000000E-03 0.  1.
    9900012    2    1    2    0    0  0.10034693361E+02 -0.21656968042E+02 -0.32915746153E+02  0.50528859817E+02  0.29999999899E+02 0.  0.
         12    1    1    2    0    0 -0.10034693361E+02  0.21656968042E+02  0.32915746153E+02  0.40659140183E+02  0.00000000000E+00 0. -1.
         11    1    3    3    0    0 -0.30817493065E+01 -0.21991701392E+02 -0.21803733266E+02  0.31121293250E+02  0.51100000000E-03 0. -1.
        -11    1    3    3    0    0  0.41560414359E+01 -0.29264140525E+01 -0.78065078463E+01  0.93154787660E+01  0.51100000000E-03 0.  1.
         12    1    3    3    0    0  0.89604012317E+01  0.32611474027E+01 -0.33055050404E+01  0.10092087801E+02  0.00000000000E+00 0. -1.
</event>
<event>
 7    1  0.5764931E-013  0.5052887E+02  0.7816164E-02  0.1300439E+00
        -11   -1    0    0    0    0  0.00000000000E+00  0.00000000000E+00  0.45593999997E+02  0.45594000000E+02  0.51100000000E-03 0.  1.
         11   -1    0    0    0    0 -0.00000000000E+00 -0.00000000000E+00 -0.45593999997E+02  0.45594000000E+02  0.51100000000E-03 0. -1.
    9900012    2    1    2    0    0 -0.22426881027E+01  0.36573143558E+02  0.17622161317E+02  0.50528867580E+02  0.30000023496E+02 0.  0.
         12    1    1    2    0    0  0.22426881027E+01 -0.36573143558E+02 -0.17622161317E+02  0.40659132420E+02  0.00000000000E+00 0. -1.
         11    1    3    3    0    0 -0.82561696302E+01  0.39179299044E+01  0.32144234814E+01  0.96874676917E+01  0.51100000000E-03 0. -1.
        -11    1    3    3    0    0  0.12207721151E+02  0.21160599560E+02  0.55173764220E+01  0.25044777346E+02  0.51100000000E-03 0.  1.
         12    1    3    3    0    0 -0.61942396238E+01  0.11494614093E+02  0.88903614138E+01  0.15796622542E+02  0.00000000000E+00 0. -1.
</event>
<event>
 7    1  0.5764931E-013  0.5052887E+02  0.7816164E-02  0.1300439E+00
        -11   -1    0    0    0    0  0.00000000000E+00  0.00000000000E+00  0.45593999997E+02  0.45594000000E+02  0.51100000000E-03 0.  1.
         11   -1    0    0    0    0 -0.00000000000E+00 -0.00000000000E+00 -0.45593999997E+02  0.45594000000E+02  0.51100000000E-03 0. -1.
    9900012    2    1    2    0    0  0.75106286767E+01 -0.23278855061E+02  0.32478452957E+02  0.50528873809E+02  0.30000042431E+02 0.  0.
         12    1    1    2    0    0 -0.75106286767E+01  0.23278855061E+02 -0.32478452957E+02  0.40659126191E+02  0.00000000000E+00 0. -1.
         11    1    3    3    0    0 -0.63200668278E+01 -0.19630853659E+02  0.26524549809E+02  0.33598592276E+02  0.51100000000E-03 0. -1.
        -11    1    3    3    0    0  0.48310317325E+01 -0.14056841842E+01  0.57673963255E+01  0.76536054421E+01  0.51100000000E-03 0.  1.
         12    1    3    3    0    0  0.89996637720E+01 -0.22423172185E+01  0.18650682273E+00  0.92766760918E+01  0.00000000000E+00 0. -1.
</event>
<event>
 7    1  0.5764931E-013  0.5052890E+02  0.7816164E-02  0.1300439E+00
        -11   -1    0    0    0    0  0.00000000000E+00  0.00000000000E+00  0.45593999997E+02  0.45594000000E+02  0.51100000000E-03 0.  1.
         11   -1    0    0    0    0 -0.00000000000E+00 -0.00000000000E+00 -0.45593999997E+02  0.45594000000E+02  0.51100000000E-03 0. -1.
    9900012    2    1    2    0    0  0.10703385929E+02 -0.34926187301E+02  0.17853893406E+02  0.50528898442E+02  0.30000117303E+02 0.  0.
         12    1    1    2    0    0 -0.10703385929E+02  0.34926187301E+02 -0.17853893406E+02  0.40659101558E+02  0.00000000000E+00 0. -1.
         11    1    3    3    0    0 -0.91648653685E+00 -0.57419027326E+01 -0.68955629825E+01  0.90198771427E+01  0.51100000000E-03 0. -1.
        -11    1    3    3    0    0  0.21809748912E+01 -0.15512761201E+02  0.17188258987E+02  0.23255938141E+02  0.51100000000E-03 0.  1.
        -12    1    3    3    0    0  0.94388975746E+01 -0.13671523368E+02  0.75611974016E+01  0.18253083158E+02  0.00000000000E+00 0.  1.
</event>
<event>
 7    1  0.5764931E-013  0.5052886E+02  0.7816164E-02  0.1300439E+00
        -11   -1    0    0    0    0  0.00000000000E+00  0.00000000000E+00  0.45593999997E+02  0.45594000000E+02  0.51100000000E-03 0.  1.
         11   -1    0    0    0    0 -0.00000000000E+00 -0.00000000000E+00 -0.45593999997E+02  0.45594000000E+02  0.51100000000E-03 0. -1.
    9900012    2    1    2    0    0  0.27154142226E+02 -0.30262349845E+02 -0.90297487457E-01  0.50528863121E+02  0.30000009942E+02 0.  0.
         12    1    1    2    0    0 -0.27154142226E+02  0.30262349845E+02  0.90297487457E-01  0.40659136879E+02  0.00000000000E+00 0. -1.
         11    1    3    3    0    0 -0.67872194063E+00 -0.81179817713E+01 -0.55451081407E+01  0.98544668077E+01  0.51100000000E-03 0. -1.
        -11    1    3    3    0    0  0.13882082557E+02  0.21676423473E+00  0.30001320199E+01  0.14204224557E+02  0.51100000000E-03 0.  1.
         12    1    3    3    0    0  0.13950781609E+02 -0.22361132308E+02  0.24546786333E+01  0.26470171756E+02  0.00000000000E+00 0. -1.
</event>
<event>
 7    1  0.5764931E-013  0.5052886E+02  0.7816164E-02  0.1300439E+00
        -11   -1    0    0    0    0  0.00000000000E+00  0.00000000000E+00  0.45593999997E+02  0.45594000000E+02  0.51100000000E-03 0. -1.
         11   -1    0    0    0    0 -0.00000000000E+00 -0.00000000000E+00 -0.45593999997E+02  0.45594000000E+02  0.51100000000E-03 0.  1.
    9900012    2    1    2    0    0 -0.13902305228E+02  0.37897318716E+02  0.48666681878E+01  0.50528864301E+02  0.30000013530E+02 0.  0.
         12    1    1    2    0    0  0.13902305228E+02 -0.37897318716E+02 -0.48666681878E+01  0.40659135699E+02  0.00000000000E+00 0. -1.
         11    1    3    3    0    0  0.51672081354E+01  0.13338974808E+02  0.84348060750E+01  0.16606451837E+02  0.51100000000E-03 0. -1.
        -11    1    3    3    0    0 -0.15620314243E+02  0.23364988270E+02 -0.69441761802E+01  0.28950621357E+02  0.51100000000E-03 0.  1.
         12    1    3    3    0    0 -0.34491991206E+01  0.11933556386E+01  0.33760382929E+01  0.49717911067E+01  0.00000000000E+00 0. -1.
</event>
<event>
 7    1  0.5764931E-013  0.5052886E+02  0.7816164E-02  0.1300439E+00
        -11   -1    0    0    0    0  0.00000000000E+00  0.00000000000E+00  0.45593999997E+02  0.45594000000E+02  0.51100000000E-03 0. -1.
         11   -1    0    0    0    0 -0.00000000000E+00 -0.00000000000E+00 -0.45593999997E+02  0.45594000000E+02  0.51100000000E-03 0.  1.
    9900012    2    1    2    0    0  0.30280933591E+02 -0.12442937539E+02 -0.24112316652E+02  0.50528862674E+02  0.30000008585E+02 0.  0.
         12    1    1    2    0    0 -0.30280933591E+02  0.12442937539E+02  0.24112316652E+02  0.40659137326E+02  0.00000000000E+00 0. -1.
         11    1    3    3    0    0  0.17060711621E+00 -0.66597154683E+01 -0.10835178587E+02  0.12719355808E+02  0.51100000000E-03 0. -1.
        -11    1    3    3    0    0  0.24497855674E+02  0.32350603272E+01 -0.81930198134E+01  0.26033365550E+02  0.51100000000E-03 0.  1.
        -12    1    3    3    0    0  0.56124708003E+01 -0.90182823977E+01 -0.50841182520E+01  0.11776141316E+02  0.00000000000E+00 0.  1.
</event>
<event>
 7    1  0.5764931E-013  0.5052886E+02  0.7816164E-02  0.1300439E+00
        -11   -1    0    0    0    0  0.00000000000E+00  0.00000000000E+00  0.45593999997E+02  0.45594000000E+02  0.51100000000E-03 0.  1.
         11   -1    0    0    0    0 -0.00000000000E+00 -0.00000000000E+00 -0.45593999997E+02  0.45594000000E+02  0.51100000000E-03 0. -1.
    9900012    2    1    2    0    0  0.23878537617E+02  0.45264794159E+01  0.32595891439E+02  0.50528859413E+02  0.29999998670E+02 0.  0.
         12    1    1    2    0    0 -0.23878537617E+02 -0.45264794159E+01 -0.32595891439E+02  0.40659140587E+02  0.00000000000E+00 0. -1.
         11    1    3    3    0    0  0.20474439291E+02 -0.43609031831E+01  0.19570215483E+02  0.28656822489E+02  0.51100000000E-03 0.  1.
        -11    1    3    3    0    0 -0.40989377229E+00  0.48857639585E+01  0.15170012658E+02  0.15942646790E+02  0.51100000000E-03 0. -1.
         12    1    3    3    0    0  0.38139920977E+01  0.40016186404E+01 -0.21443367019E+01  0.59293901335E+01  0.00000000000E+00 0. -1.
</event>
<event>
 7    1  0.5764931E-013  0.5052886E+02  0.7816164E-02  0.1300439E+00
        -11   -1    0    0    0    0  0.00000000000E+00  0.00000000000E+00  0.45593999997E+02  0.45594000000E+02  0.51100000000E-03 0.  1.
         11   -1    0    0    0    0 -0.00000000000E+00 -0.00000000000E+00 -0.45593999997E+02  0.45594000000E+02  0.51100000000E-03 0. -1.
    9900012    2    1    2    0    0  0.33790072185E+02 -0.51191575856E+01  0.22027049816E+02  0.50528859868E+02  0.30000000056E+02 0.  0.
         12    1    1    2    0    0 -0.33790072185E+02  0.51191575856E+01 -0.22027049816E+02  0.40659140132E+02  0.00000000000E+00 0. -1.
         11    1    3    3    0    0  0.68498923477E+01 -0.13951124931E+02  0.81360786433E+01  0.17542824401E+02  0.51100000000E-03 0. -1.
        -11    1    3    3    0    0  0.17461909643E+02  0.62303872613E+01  0.13875148154E+02  0.23157196513E+02  0.51100000000E-03 0.  1.
         12    1    3    3    0    0  0.94782701941E+01  0.26015800844E+01  0.15823018931E-01  0.98288389536E+01  0.00000000000E+00 0. -1.
</event>
<event>
 7    1  0.5764931E-013  0.5052886E+02  0.7816164E-02  0.1300439E+00
        -11   -1    0    0    0    0  0.00000000000E+00  0.00000000000E+00  0.45593999997E+02  0.45594000000E+02  0.51100000000E-03 0. -1.
         11   -1    0    0    0    0 -0.00000000000E+00 -0.00000000000E+00 -0.45593999997E+02  0.45594000000E+02  0.51100000000E-03 0.  1.
    9900012    2    1    2    0    0  0.28082731016E+02 -0.13225545016E+02 -0.26260443789E+02  0.50528859204E+02  0.29999998036E+02 0.  0.
         12    1    1    2    0    0 -0.28082731016E+02  0.13225545016E+02  0.26260443789E+02  0.40659140796E+02  0.00000000000E+00 0. -1.
         11    1    3    3    0    0 -0.11174694416E+01  0.41115090116E+01  0.25196871977E+01  0.49499563777E+01  0.51100000000E-03 0. -1.
        -11    1    3    3    0    0  0.25536908271E+02 -0.13479004156E+02 -0.27962984000E+02  0.40196339529E+02  0.51100000000E-03 0.  1.
        -12    1    3    3    0    0  0.36632921867E+01 -0.38580498713E+01 -0.81714698725E+00  0.53825632977E+01  0.00000000000E+00 0.  1.
</event>
<event>
 7    1  0.5764931E-013  0.5052886E+02  0.7816164E-02  0.1300439E+00
        -11   -1    0    0    0    0  0.00000000000E+00  0.00000000000E+00  0.45593999997E+02  0.45594000000E+02  0.51100000000E-03 0.  1.
         11   -1    0    0    0    0 -0.00000000000E+00 -0.00000000000E+00 -0.45593999997E+02  0.45594000000E+02  0.51100000000E-03 0. -1.
    9900012    2    1    2    0    0 -0.24897860059E+02 -0.11400012267E+02  0.30054985372E+02  0.50528857598E+02  0.29999993154E+02 0.  0.
         12    1    1    2    0    0  0.24897860059E+02  0.11400012267E+02 -0.30054985372E+02  0.40659142402E+02  0.00000000000E+00 0. -1.
         11    1    3    3    0    0  0.15618073697E+01 -0.26271926995E+01  0.60895092051E+01  0.68134797542E+01  0.51100000000E-03 0. -1.
        -11    1    3    3    0    0 -0.26869143739E+02 -0.14594647563E+02  0.18614504195E+02  0.35797407580E+02  0.51100000000E-03 0.  1.
        -12    1    3    3    0    0  0.40947631079E+00  0.58218279953E+01  0.53509719712E+01  0.79179702634E+01  0.00000000000E+00 0.  1.
</event>
<event>
 7    1  0.5764931E-013  0.5052886E+02  0.7816164E-02  0.1300439E+00
        -11   -1    0    0    0    0  0.00000000000E+00  0.00000000000E+00  0.45593999997E+02  0.45594000000E+02  0.51100000000E-03 0. -1.
         11   -1    0    0    0    0 -0.00000000000E+00 -0.00000000000E+00 -0.45593999997E+02  0.45594000000E+02  0.51100000000E-03 0.  1.
    9900012    2    1    2    0    0 -0.29649880005E+02  0.27786235756E+02  0.14054436886E+01  0.50528861374E+02  0.30000004634E+02 0.  0.
         12    1    1    2    0    0  0.29649880005E+02 -0.27786235756E+02 -0.14054436886E+01  0.40659138626E+02  0.00000000000E+00 0. -1.
         11    1    3    3    0    0 -0.16076983711E+02  0.84534241670E+01 -0.13357422359E+02  0.22546629853E+02  0.51100000000E-03 0.  1.
        -11    1    3    3    0    0 -0.72207277010E+01  0.12252892692E+02  0.80774169769E+01  0.16355945498E+02  0.51100000000E-03 0. -1.
        -12    1    3    3    0    0 -0.63521685934E+01  0.70799188965E+01  0.66854490707E+01  0.11626286023E+02  0.00000000000E+00 0.  1.
</event>
<event>
 7    1  0.5764931E-013  0.5052887E+02  0.7816164E-02  0.1300439E+00
        -11   -1    0    0    0    0  0.00000000000E+00  0.00000000000E+00  0.45593999997E+02  0.45594000000E+02  0.51100000000E-03 0. -1.
         11   -1    0    0    0    0 -0.00000000000E+00 -0.00000000000E+00 -0.45593999997E+02  0.45594000000E+02  0.51100000000E-03 0.  1.
    9900012    2    1    2    0    0  0.28412177812E+02  0.26694562415E+02 -0.11546155990E+02  0.50528865372E+02  0.30000016786E+02 0.  0.
         12    1    1    2    0    0 -0.28412177812E+02 -0.26694562415E+02  0.11546155990E+02  0.40659134628E+02  0.00000000000E+00 0. -1.
         11    1    3    3    0    0 -0.11048612921E+01  0.11175472158E+02  0.13281107520E+01  0.11308217139E+02  0.51100000000E-03 0. -1.
        -11    1    3    3    0    0  0.23743238159E+02  0.64002274611E+01 -0.14119413162E+02  0.28355988752E+02  0.51100000000E-03 0.  1.
        -12    1    3    3    0    0  0.57738009451E+01  0.91188627957E+01  0.12451464198E+01  0.10864659481E+02  0.00000000000E+00 0.  1.
</event>
<event>
 7    1  0.5764931E-013  0.5052885E+02  0.7816164E-02  0.1300439E+00
        -11   -1    0    0    0    0  0.00000000000E+00  0.00000000000E+00  0.45593999997E+02  0.45594000000E+02  0.51100000000E-03 0.  1.
         11   -1    0    0    0    0 -0.00000000000E+00 -0.00000000000E+00 -0.45593999997E+02  0.45594000000E+02  0.51100000000E-03 0. -1.
    9900012    2    1    2    0    0 -0.83640653369E+01 -0.30077336662E+02  0.26049242661E+02  0.50528845891E+02  0.29999957571E+02 0.  0.
         12    1    1    2    0    0  0.83640653369E+01  0.30077336662E+02 -0.26049242661E+02  0.40659154109E+02  0.00000000000E+00 0. -1.
         11    1    3    3    0    0 -0.29731578623E+01 -0.32418561447E+01 -0.29348898339E+01  0.52879937155E+01  0.51100000000E-03 0. -1.
        -11    1    3    3    0    0 -0.15527603095E+01 -0.25033488544E+02  0.31534508108E+02  0.40292825852E+02  0.51100000000E-03 0.  1.
        -12    1    3    3    0    0 -0.38381471651E+01 -0.18019919732E+01 -0.25503756131E+01  0.49480263237E+01  0.00000000000E+00 0.  1.
</event>
<event>
 7    1  0.5764931E-013  0.5052887E+02  0.7816164E-02  0.1300439E+00
        -11   -1    0    0    0    0  0.00000000000E+00  0.00000000000E+00  0.45593999997E+02  0.45594000000E+02  0.51100000000E-03 0.  1.
         11   -1    0    0    0    0 -0.00000000000E+00 -0.00000000000E+00 -0.45593999997E+02  0.45594000000E+02  0.51100000000E-03 0. -1.
    9900012    2    1    2    0    0  0.12285042360E+02  0.27263323577E+02  0.27549110163E+02  0.50528873730E+02  0.30000042191E+02 0.  0.
         12    1    1    2    0    0 -0.12285042360E+02 -0.27263323577E+02 -0.27549110163E+02  0.40659126270E+02  0.00000000000E+00 0. -1.
         11    1    3    3    0    0  0.68495357651E+01  0.70928027143E+01  0.20934774487E+02  0.23140630363E+02  0.51100000000E-03 0.  1.
        -11    1    3    3    0    0 -0.13555559226E+01  0.19211752896E+02  0.25807996873E+01  0.19431662525E+02  0.51100000000E-03 0. -1.
        -12    1    3    3    0    0  0.67910625173E+01  0.95876796726E+00  0.40335359884E+01  0.79565808422E+01  0.00000000000E+00 0.  1.
</event>
<event>
 7    1  0.5764931E-013  0.5052886E+02  0.7816164E-02  0.1300439E+00
        -11   -1    0    0    0    0  0.00000000000E+00  0.00000000000E+00  0.45593999997E+02  0.45594000000E+02  0.51100000000E-03 0.  1.
         11   -1    0    0    0    0 -0.00000000000E+00 -0.00000000000E+00 -0.45593999997E+02  0.45594000000E+02  0.51100000000E-03 0. -1.
    9900012    2    1    2    0    0 -0.33001132331E+02 -0.22422765935E+02  0.78300781362E+01  0.50528864606E+02  0.30000014458E+02 0.  0.
         12    1    1    2    0    0  0.33001132331E+02  0.22422765935E+02 -0.78300781362E+01  0.40659135394E+02  0.00000000000E+00 0. -1.
         11    1    3    3    0    0 -0.10649810771E+02  0.59919561118E+01 -0.23827750475E+01  0.12449884525E+02  0.51100000000E-03 0. -1.
        -11    1    3    3    0    0 -0.15692407821E+02 -0.19064660807E+02  0.39611418285E+01  0.25008070692E+02  0.51100000000E-03 0.  1.
        -12    1    3    3    0    0 -0.66589137395E+01 -0.93500612403E+01  0.62517113552E+01  0.13070909389E+02  0.00000000000E+00 0.  1.
</event>
<event>
 7    1  0.5764931E-013  0.5052886E+02  0.7816164E-02  0.1300439E+00
        -11   -1    0    0    0    0  0.00000000000E+00  0.00000000000E+00  0.45593999997E+02  0.45594000000E+02  0.51100000000E-03 0.  1.
         11   -1    0    0    0    0 -0.00000000000E+00 -0.00000000000E+00 -0.45593999997E+02  0.45594000000E+02  0.51100000000E-03 0. -1.
    9900012    2    1    2    0    0  0.15518053511E+02  0.10496422212E+01  0.37566661970E+02  0.50528858038E+02  0.29999994491E+02 0.  0.
         12    1    1    2    0    0 -0.15518053511E+02 -0.10496422212E+01 -0.37566661970E+02  0.40659141962E+02  0.00000000000E+00 0. -1.
         11    1    3    3    0    0  0.15767256514E+02 -0.41797580291E+01  0.65372528946E+01  0.17573059802E+02  0.51100000000E-03 0. -1.
        -11    1    3    3    0    0  0.29973183154E+01  0.13312207501E+01  0.24341897701E+02  0.24561841334E+02  0.51100000000E-03 0.  1.
         12    1    3    3    0    0 -0.32465213179E+01  0.38981795001E+01  0.66875113742E+01  0.83939569014E+01  0.00000000000E+00 0. -1.
</event>
<event>
 7    1  0.5764931E-013  0.5052886E+02  0.7816164E-02  0.1300439E+00
        -11   -1    0    0    0    0  0.00000000000E+00  0.00000000000E+00  0.45593999997E+02  0.45594000000E+02  0.51100000000E-03 0.  1.
         11   -1    0    0    0    0 -0.00000000000E+00 -0.00000000000E+00 -0.45593999997E+02  0.45594000000E+02  0.51100000000E-03 0. -1.
    9900012    2    1    2    0    0 -0.20369521449E+02 -0.15911468586E+02  0.31385877467E+02  0.50528861532E+02  0.30000005113E+02 0.  0.
         12    1    1    2    0    0  0.20369521449E+02  0.15911468586E+02 -0.31385877467E+02  0.40659138468E+02  0.00000000000E+00 0. -1.
         11    1    3    3    0    0 -0.37507473102E+01  0.35473857828E+01  0.16476015985E+02  0.17265895698E+02  0.51100000000E-03 0. -1.
        -11    1    3    3    0    0 -0.11461573743E+02 -0.14498570805E+02  0.17692770921E+02  0.25585354623E+02  0.51100000000E-03 0.  1.
         12    1    3    3    0    0 -0.51572003959E+01 -0.49602835641E+01 -0.27829094395E+01  0.76776112111E+01  0.00000000000E+00 0. -1.
</event>
<event>
 7    1  0.5764931E-013  0.5052886E+02  0.7816164E-02  0.1300439E+00
        -11   -1    0    0    0    0  0.00000000000E+00  0.00000000000E+00  0.45593999997E+02  0.45594000000E+02  0.51100000000E-03 0.  1.
         11   -1    0    0    0    0 -0.00000000000E+00 -0.00000000000E+00 -0.45593999997E+02  0.45594000000E+02  0.51100000000E-03 0. -1.
    9900012    2    1    2    0    0  0.24562650972E+02 -0.71524543321E+00  0.32393365244E+02  0.50528861905E+02  0.30000006245E+02 0.  0.
         12    1    1    2    0    0 -0.24562650972E+02  0.71524543321E+00 -0.32393365244E+02  0.40659138095E+02  0.00000000000E+00 0. -1.
         11    1    3    3    0    0 -0.41039404329E+01  0.22284802998E+01 -0.28191529930E+00  0.46784535928E+01  0.51100000000E-03 0. -1.
        -11    1    3    3    0    0  0.23005007708E+02  0.28982966857E+01  0.19174864744E+02  0.30088302404E+02  0.51100000000E-03 0.  1.
         12    1    3    3    0    0  0.56615836969E+01 -0.58420224187E+01  0.13500415800E+02  0.15762105908E+02  0.00000000000E+00 0. -1.
</event>
<event>
 7    1  0.5764931E-013  0.5052886E+02  0.7816164E-02  0.1300439E+00
        -11   -1    0    0    0    0  0.00000000000E+00  0.00000000000E+00  0.45593999997E+02  0.45594000000E+02  0.51100000000E-03 0.  1.
         11   -1    0    0    0    0 -0.00000000000E+00 -0.00000000000E+00 -0.45593999997E+02  0.45594000000E+02  0.51100000000E-03 0. -1.
    9900012    2    1    2    0    0 -0.51837854936E+00 -0.26474085058E+02  0.30854814099E+02  0.50528862662E+02  0.30000008548E+02 0.  0.
         12    1    1    2    0    0  0.51837854936E+00  0.26474085058E+02 -0.30854814099E+02  0.40659137338E+02  0.00000000000E+00 0. -1.
         11    1    3    3    0    0  0.68242176554E+01  0.21853427874E+01  0.34456437293E+01  0.79509830007E+01  0.51100000000E-03 0. -1.
        -11    1    3    3    0    0 -0.10925004442E+02 -0.17085931910E+02  0.19324002550E+02  0.28012530520E+02  0.51100000000E-03 0.  1.
         12    1    3    3    0    0  0.35824082377E+01 -0.11573495935E+02  0.80851678198E+01  0.14565349142E+02  0.00000000000E+00 0. -1.
</event>
<event>
 7    1  0.5764931E-013  0.5052886E+02  0.7816164E-02  0.1300439E+00
        -11   -1    0    0    0    0  0.00000000000E+00  0.00000000000E+00  0.45593999997E+02  0.45594000000E+02  0.51100000000E-03 0.  1.
         11   -1    0    0    0    0 -0.00000000000E+00 -0.00000000000E+00 -0.45593999997E+02  0.45594000000E+02  0.51100000000E-03 0. -1.
    9900012    2    1    2    0    0 -0.38006723270E+02 -0.13112175988E+02  0.60601686946E+01  0.50528858132E+02  0.29999994778E+02 0.  0.
         12    1    1    2    0    0  0.38006723270E+02  0.13112175988E+02 -0.60601686946E+01  0.40659141868E+02  0.00000000000E+00 0. -1.
         11    1    3    3    0    0 -0.32860427555E+01 -0.74340873098E+01 -0.84282270062E+01  0.11708917194E+02  0.51100000000E-03 0. -1.
        -11    1    3    3    0    0 -0.26896313310E+02 -0.60119344232E+01  0.14152104826E+02  0.30981237814E+02  0.51100000000E-03 0.  1.
        -12    1    3    3    0    0 -0.78243672036E+01  0.33384574464E+00  0.33629087454E+00  0.78387031243E+01  0.00000000000E+00 0.  1.
</event>
<event>
 7    1  0.5764931E-013  0.5052886E+02  0.7816164E-02  0.1300439E+00
        -11   -1    0    0    0    0  0.00000000000E+00  0.00000000000E+00  0.45593999997E+02  0.45594000000E+02  0.51100000000E-03 0.  1.
         11   -1    0    0    0    0 -0.00000000000E+00 -0.00000000000E+00 -0.45593999997E+02  0.45594000000E+02  0.51100000000E-03 0. -1.
    9900012    2    1    2    0    0 -0.13104119280E+01 -0.10612780456E+02  0.39227762289E+02  0.50528860528E+02  0.30000002061E+02 0.  0.
         12    1    1    2    0    0  0.13104119280E+01  0.10612780456E+02 -0.39227762289E+02  0.40659139472E+02  0.00000000000E+00 0. -1.
         11    1    3    3    0    0  0.30747092289E+01  0.59144071631E+01  0.91882223661E+01  0.11351540840E+02  0.51100000000E-03 0. -1.
        -11    1    3    3    0    0 -0.18956250740E+01 -0.19638749343E+02  0.18801983801E+02  0.27254145837E+02  0.51100000000E-03 0.  1.
        -12    1    3    3    0    0 -0.24894960829E+01  0.31115617236E+01  0.11237556121E+02  0.11923173851E+02  0.00000000000E+00 0.  1.
</event>
<event>
 7    1  0.5764931E-013  0.5052887E+02  0.7816164E-02  0.1300439E+00
        -11   -1    0    0    0    0  0.00000000000E+00  0.00000000000E+00  0.45593999997E+02  0.45594000000E+02  0.51100000000E-03 0. -1.
         11   -1    0    0    0    0 -0.00000000000E+00 -0.00000000000E+00 -0.45593999997E+02  0.45594000000E+02  0.51100000000E-03 0.  1.
    9900012    2    1    2    0    0  0.98062819464E+01  0.24476483278E+02 -0.30950019195E+02  0.50528867109E+02  0.30000022065E+02 0.  0.
         12    1    1    2    0    0 -0.98062819464E+01 -0.24476483278E+02  0.30950019195E+02  0.40659132891E+02  0.00000000000E+00 0. -1.
         11    1    3    3    0    0 -0.10286996603E+02  0.69016170486E+01 -0.53790941013E+01  0.13505157186E+02  0.51100000000E-03 0. -1.
        -11    1    3    3    0    0  0.13728438035E+02  0.12118008490E+02 -0.16190748943E+02  0.24442923152E+02  0.51100000000E-03 0.  1.
         12    1    3    3    0    0  0.63648405151E+01  0.54568577400E+01 -0.93801761507E+01  0.12580786772E+02  0.00000000000E+00 0. -1.
</event>
<event>
 7    1  0.5764931E-013  0.5052888E+02  0.7816164E-02  0.1300439E+00
        -11   -1    0    0    0    0  0.00000000000E+00  0.00000000000E+00  0.45593999997E+02  0.45594000000E+02  0.51100000000E-03 0. -1.
         11   -1    0    0    0    0 -0.00000000000E+00 -0.00000000000E+00 -0.45593999997E+02  0.45594000000E+02  0.51100000000E-03 0.  1.
    9900012    2    1    2    0    0 -0.40463193642E+02 -0.39599093707E+01 -0.46150829891E+00  0.50528881566E+02  0.30000066008E+02 0.  0.
         12    1    1    2    0    0  0.40463193642E+02  0.39599093707E+01  0.46150829891E+00  0.40659118434E+02  0.00000000000E+00 0. -1.
         11    1    3    3    0    0 -0.70006272892E+01 -0.85448024640E+01 -0.35761803918E+01  0.11610835372E+02  0.51100000000E-03 0. -1.
        -11    1    3    3    0    0 -0.16731438600E+02  0.78024795270E+01  0.94514954855E+01  0.20740069710E+02  0.51100000000E-03 0.  1.
        -12    1    3    3    0    0 -0.16731127753E+02 -0.32175864338E+01 -0.63368233926E+01  0.18177976484E+02  0.00000000000E+00 0.  1.
</event>
<event>
 7    1  0.5764931E-013  0.5052886E+02  0.7816164E-02  0.1300439E+00
        -11   -1    0    0    0    0  0.00000000000E+00  0.00000000000E+00  0.45593999997E+02  0.45594000000E+02  0.51100000000E-03 0. -1.
         11   -1    0    0    0    0 -0.00000000000E+00 -0.00000000000E+00 -0.45593999997E+02  0.45594000000E+02  0.51100000000E-03 0.  1.
    9900012    2    1    2    0    0 -0.14073220282E+02  0.37742061374E+02  0.55359841245E+01  0.50528857780E+02  0.29999993708E+02 0.  0.
         12    1    1    2    0    0  0.14073220282E+02 -0.37742061374E+02 -0.55359841245E+01  0.40659142220E+02  0.00000000000E+00 0. -1.
         11    1    3    3    0    0 -0.72032181576E+01  0.19433560526E+02  0.16350674066E+02  0.26398753175E+02  0.51100000000E-03 0. -1.
        -11    1    3    3    0    0 -0.54886846372E+01  0.86538820326E+01 -0.10044744076E+01  0.10296810301E+02  0.51100000000E-03 0.  1.
         12    1    3    3    0    0 -0.13813174871E+01  0.96546188153E+01 -0.98102155337E+01  0.13833294303E+02  0.00000000000E+00 0. -1.
</event>
<event>
 7    1  0.5764931E-013  0.5052886E+02  0.7816164E-02  0.1300439E+00
        -11   -1    0    0    0    0  0.00000000000E+00  0.00000000000E+00  0.45593999997E+02  0.45594000000E+02  0.51100000000E-03 0.  1.
         11   -1    0    0    0    0 -0.00000000000E+00 -0.00000000000E+00 -0.45593999997E+02  0.45594000000E+02  0.51100000000E-03 0. -1.
    9900012    2    1    2    0    0 -0.18385524661E+02 -0.36043958646E+02  0.39964100594E+01  0.50528858773E+02  0.29999996728E+02 0.  0.
         12    1    1    2    0    0  0.18385524661E+02  0.36043958646E+02 -0.39964100594E+01  0.40659141227E+02  0.00000000000E+00 0. -1.
         11    1    3    3    0    0 -0.40630571361E+01 -0.17623494413E+02 -0.21638450018E+01  0.18214780099E+02  0.51100000000E-03 0. -1.
        -11    1    3    3    0    0 -0.21663669408E+01  0.40642257758E+01  0.48970643906E+01  0.67225230967E+01  0.51100000000E-03 0.  1.
        -12    1    3    3    0    0 -0.12156100584E+02 -0.22484690009E+02  0.12631906706E+01  0.25591555578E+02  0.00000000000E+00 0.  1.
</event>
<event>
 7    1  0.5764931E-013  0.5052892E+02  0.7816164E-02  0.1300439E+00
        -11   -1    0    0    0    0  0.00000000000E+00  0.00000000000E+00  0.45593999997E+02  0.45594000000E+02  0.51100000000E-03 0.  1.
         11   -1    0    0    0    0 -0.00000000000E+00 -0.00000000000E+00 -0.45593999997E+02  0.45594000000E+02  0.51100000000E-03 0. -1.
    9900012    2    1    2    0    0  0.19408557827E+02  0.26863890401E+01  0.35626566778E+02  0.50528916594E+02  0.30000172480E+02 0.  0.
         12    1    1    2    0    0 -0.19408557827E+02 -0.26863890401E+01 -0.35626566778E+02  0.40659083406E+02  0.00000000000E+00 0. -1.
         11    1    3    3    0    0 -0.47853343121E+01  0.90760474219E+00  0.17660888690E+01  0.51809498164E+01  0.51100000000E-03 0. -1.
        -11    1    3    3    0    0  0.95663396053E+01  0.45137390829E+01  0.26928629416E+02  0.28931639712E+02  0.51100000000E-03 0.  1.
        -12    1    3    3    0    0  0.14627552534E+02 -0.27349547850E+01  0.69318484931E+01  0.16416327066E+02  0.00000000000E+00 0.  1.
</event>
<event>
 7    1  0.5764931E-013  0.5052887E+02  0.7816164E-02  0.1300439E+00
        -11   -1    0    0    0    0  0.00000000000E+00  0.00000000000E+00  0.45593999997E+02  0.45594000000E+02  0.51100000000E-03 0.  1.
         11   -1    0    0    0    0 -0.00000000000E+00 -0.00000000000E+00 -0.45593999997E+02  0.45594000000E+02  0.51100000000E-03 0. -1.
    9900012    2    1    2    0    0  0.64723789885E+01 -0.38120437962E+02  0.12573984102E+02  0.50528873639E+02  0.30000041915E+02 0.  0.
         12    1    1    2    0    0 -0.64723789885E+01  0.38120437962E+02 -0.12573984102E+02  0.40659126361E+02  0.00000000000E+00 0. -1.
         11    1    3    3    0    0  0.48411740503E+01 -0.11722251429E+01 -0.31669718092E+01  0.59026086328E+01  0.51100000000E-03 0. -1.
        -11    1    3    3    0    0 -0.45722291951E+01 -0.12253192609E+02  0.13918345996E+02  0.19098857674E+02  0.51100000000E-03 0.  1.
        -12    1    3    3    0    0  0.62034341333E+01 -0.24695020210E+02  0.18226099153E+01  0.25527407332E+02  0.00000000000E+00 0.  1.
</event>
<event>
 7    1  0.5764931E-013  0.5052885E+02  0.7816164E-02  0.1300439E+00
        -11   -1    0    0    0    0  0.00000000000E+00  0.00000000000E+00  0.45593999997E+02  0.45594000000E+02  0.51100000000E-03 0. -1.
         11   -1    0    0    0    0 -0.00000000000E+00 -0.00000000000E+00 -0.45593999997E+02  0.45594000000E+02  0.51100000000E-03 0.  1.
    9900012    2    1    2    0    0  0.29228229388E+02  0.11385582147E+02 -0.25869777946E+02  0.50528852383E+02  0.29999977303E+02 0.  0.
         12    1    1    2    0    0 -0.29228229388E+02 -0.11385582147E+02  0.25869777946E+02  0.40659147617E+02  0.00000000000E+00 0. -1.
         11    1    3    3    0    0  0.16543795938E+02  0.13275733411E+02 -0.32933066238E+01  0.21465976578E+02  0.51100000000E-03 0.  1.
        -11    1    3    3    0    0  0.11082708887E+02  0.42191794772E+01 -0.16313588520E+02  0.20168318779E+02  0.51100000000E-03 0. -1.
         12    1    3    3    0    0  0.16017245621E+01 -0.61093307413E+01 -0.62628828028E+01  0.88945570255E+01  0.00000000000E+00 0. -1.
</event>
<event>
 7    1  0.5764931E-013  0.5052886E+02  0.7816164E-02  0.1300439E+00
        -11   -1    0    0    0    0  0.00000000000E+00  0.00000000000E+00  0.45593999997E+02  0.45594000000E+02  0.51100000000E-03 0.  1.
         11   -1    0    0    0    0 -0.00000000000E+00 -0.00000000000E+00 -0.45593999997E+02  0.45594000000E+02  0.51100000000E-03 0. -1.
    9900012    2    1    2    0    0 -0.28433031881E+02 -0.13730071716E+02  0.25616661346E+02  0.50528861915E+02  0.30000006277E+02 0.  0.
         12    1    1    2    0    0  0.28433031881E+02  0.13730071716E+02 -0.25616661346E+02  0.40659138085E+02  0.00000000000E+00 0. -1.
         11    1    3    3    0    0 -0.11596811816E+02  0.35733038595E+01 -0.13088518238E+01  0.12205229950E+02  0.51100000000E-03 0. -1.
        -11    1    3    3    0    0 -0.12434983072E+02 -0.11190038283E+02  0.25739476195E+02  0.30697986837E+02  0.51100000000E-03 0.  1.
        -12    1    3    3    0    0 -0.44012369931E+01 -0.61133372919E+01  0.11860369751E+01  0.76256451282E+01  0.00000000000E+00 0.  1.
</event>
<event>
 7    1  0.5764931E-013  0.5052886E+02  0.7816164E-02  0.1300439E+00
        -11   -1    0    0    0    0  0.00000000000E+00  0.00000000000E+00  0.45593999997E+02  0.45594000000E+02  0.51100000000E-03 0.  1.
         11   -1    0    0    0    0 -0.00000000000E+00 -0.00000000000E+00 -0.45593999997E+02  0.45594000000E+02  0.51100000000E-03 0. -1.
    9900012    2    1    2    0    0  0.17789238113E+02 -0.84199974844E+01  0.35578261531E+02  0.50528855348E+02  0.29999986316E+02 0.  0.
         12    1    1    2    0    0 -0.17789238113E+02  0.84199974844E+01 -0.35578261531E+02  0.40659144652E+02  0.00000000000E+00 0. -1.
         11    1    3    3    0    0 -0.31594469132E+01 -0.32945275599E+01 -0.20207049287E+01  0.49919200024E+01  0.51100000000E-03 0. -1.
        -11    1    3    3    0    0  0.12547440310E+02 -0.98745916505E+01  0.25053669142E+02  0.29709125809E+02  0.51100000000E-03 0.  1.
        -12    1    3    3    0    0  0.84012447159E+01  0.47491217260E+01  0.12545297317E+02  0.15827809537E+02  0.00000000000E+00 0.  1.
</event>
<event>
 7    1  0.5764931E-013  0.5052886E+02  0.7816164E-02  0.1300439E+00
        -11   -1    0    0    0    0  0.00000000000E+00  0.00000000000E+00  0.45593999997E+02  0.45594000000E+02  0.51100000000E-03 0.  1.
         11   -1    0    0    0    0 -0.00000000000E+00 -0.00000000000E+00 -0.45593999997E+02  0.45594000000E+02  0.51100000000E-03 0. -1.
    9900012    2    1    2    0    0  0.12080241906E+02  0.16213557689E+02  0.35275399670E+02  0.50528861798E+02  0.30000005921E+02 0.  0.
         12    1    1    2    0    0 -0.12080241906E+02 -0.16213557689E+02 -0.35275399670E+02  0.40659138202E+02  0.00000000000E+00 0. -1.
         11    1    3    3    0    0  0.11527021681E+01  0.67907310557E+01  0.22013726197E+01  0.72310989643E+01  0.51100000000E-03 0. -1.
        -11    1    3    3    0    0 -0.46821018925E+01 -0.38796476911E-01  0.20754457766E+02  0.21276068733E+02  0.51100000000E-03 0.  1.
        -12    1    3    3    0    0  0.15609641631E+02  0.94616231106E+01  0.12319569284E+02  0.22021694101E+02  0.00000000000E+00 0.  1.
</event>
<event>
 7    1  0.5764931E-013  0.5052885E+02  0.7816164E-02  0.1300439E+00
        -11   -1    0    0    0    0  0.00000000000E+00  0.00000000000E+00  0.45593999997E+02  0.45594000000E+02  0.51100000000E-03 0. -1.
         11   -1    0    0    0    0 -0.00000000000E+00 -0.00000000000E+00 -0.45593999997E+02  0.45594000000E+02  0.51100000000E-03 0.  1.
    9900012    2    1    2    0    0 -0.32201679271E+02  0.10770897943E+02  0.22365289226E+02  0.50528849092E+02  0.29999967300E+02 0.  0.
         12    1    1    2    0    0  0.32201679271E+02 -0.10770897943E+02 -0.22365289226E+02  0.40659150908E+02  0.00000000000E+00 0. -1.
         11    1    3    3    0    0 -0.15571520349E+02  0.12188540373E+02 -0.17843998778E+01  0.19854894751E+02  0.51100000000E-03 0. -1.
        -11    1    3    3    0    0 -0.11239283512E+02 -0.50383065142E+01  0.14261102182E+02  0.18843700860E+02  0.51100000000E-03 0.  1.
         12    1    3    3    0    0 -0.53908754100E+01  0.36206640848E+01  0.98885869217E+01  0.11830253480E+02  0.00000000000E+00 0. -1.
</event>
<event>
 7    1  0.5764931E-013  0.5052886E+02  0.7816164E-02  0.1300439E+00
        -11   -1    0    0    0    0  0.00000000000E+00  0.00000000000E+00  0.45593999997E+02  0.45594000000E+02  0.51100000000E-03 0. -1.
         11   -1    0    0    0    0 -0.00000000000E+00 -0.00000000000E+00 -0.45593999997E+02  0.45594000000E+02  0.51100000000E-03 0.  1.
    9900012    2    1    2    0    0  0.10414470300E+02 -0.37146744973E+02  0.12838379209E+02  0.50528857923E+02  0.29999994142E+02 0.  0.
         12    1    1    2    0    0 -0.10414470300E+02  0.37146744973E+02 -0.12838379209E+02  0.40659142077E+02  0.00000000000E+00 0. -1.
         11    1    3    3    0    0  0.50731183897E+01 -0.23245338317E+02  0.91577340190E+01  0.25494045899E+02  0.51100000000E-03 0. -1.
        -11    1    3    3    0    0  0.57334180265E+01  0.35914177034E+01 -0.11969856218E+01  0.68704540045E+01  0.51100000000E-03 0.  1.
        -12    1    3    3    0    0 -0.39206611601E+00 -0.17492824360E+02  0.48776308118E+01  0.18164358019E+02  0.00000000000E+00 0.  1.
</event>
<event>
 7    1  0.5764931E-013  0.5052881E+02  0.7816164E-02  0.1300439E+00
        -11   -1    0    0    0    0  0.00000000000E+00  0.00000000000E+00  0.45593999997E+02  0.45594000000E+02  0.51100000000E-03 0.  1.
         11   -1    0    0    0    0 -0.00000000000E+00 -0.00000000000E+00 -0.45593999997E+02  0.45594000000E+02  0.51100000000E-03 0. -1.
    9900012    2    1    2    0    0  0.93140375258E+01  0.38512235652E+02  0.91228210593E+01  0.50528813412E+02  0.29999858846E+02 0.  0.
         12    1    1    2    0    0 -0.93140375258E+01 -0.38512235652E+02 -0.91228210593E+01  0.40659186588E+02  0.00000000000E+00 0. -1.
         11    1    3    3    0    0  0.97286393753E+01  0.53536410744E+01  0.48090751124E+01  0.12101037168E+02  0.51100000000E-03 0. -1.
        -11    1    3    3    0    0 -0.74638341001E+01  0.13525216926E+02  0.77550935337E+01  0.17285305561E+02  0.51100000000E-03 0.  1.
         12    1    3    3    0    0  0.70492322506E+01  0.19633377652E+02 -0.34413475868E+01  0.21142470683E+02  0.00000000000E+00 0. -1.
</event>
<event>
 7    1  0.5764931E-013  0.5052886E+02  0.7816164E-02  0.1300439E+00
        -11   -1    0    0    0    0  0.00000000000E+00  0.00000000000E+00  0.45593999997E+02  0.45594000000E+02  0.51100000000E-03 0.  1.
         11   -1    0    0    0    0 -0.00000000000E+00 -0.00000000000E+00 -0.45593999997E+02  0.45594000000E+02  0.51100000000E-03 0. -1.
    9900012    2    1    2    0    0  0.20006525199E+02  0.35229382326E+02  0.34343920261E+01  0.50528862304E+02  0.30000007460E+02 0.  0.
         12    1    1    2    0    0 -0.20006525199E+02 -0.35229382326E+02 -0.34343920261E+01  0.40659137696E+02  0.00000000000E+00 0. -1.
         11    1    3    3    0    0  0.61008083702E+01  0.24877190715E+02 -0.59713909609E+01  0.26301178508E+02  0.51100000000E-03 0. -1.
        -11    1    3    3    0    0  0.24649640229E+01  0.43034383489E+01  0.10116620154E+02  0.11266837749E+02  0.51100000000E-03 0.  1.
        -12    1    3    3    0    0  0.11440752806E+02  0.60487532619E+01 -0.71083716741E+00  0.12960846047E+02  0.00000000000E+00 0.  1.
</event>
<event>
 7    1  0.5764931E-013  0.5052886E+02  0.7816164E-02  0.1300439E+00
        -11   -1    0    0    0    0  0.00000000000E+00  0.00000000000E+00  0.45593999997E+02  0.45594000000E+02  0.51100000000E-03 0.  1.
         11   -1    0    0    0    0 -0.00000000000E+00 -0.00000000000E+00 -0.45593999997E+02  0.45594000000E+02  0.51100000000E-03 0. -1.
    9900012    2    1    2    0    0  0.37341888831E+02 -0.53246987370E+01  0.15178822292E+02  0.50528859277E+02  0.29999998260E+02 0.  0.
         12    1    1    2    0    0 -0.37341888831E+02  0.53246987370E+01 -0.15178822292E+02  0.40659140723E+02  0.00000000000E+00 0. -1.
         11    1    3    3    0    0  0.33382293674E+02  0.15268851538E+01  0.12936650645E+02  0.35833864421E+02  0.51100000000E-03 0. -1.
        -11    1    3    3    0    0  0.44764829106E+01 -0.89303248951E+01 -0.17716571363E+01  0.10145362056E+02  0.51100000000E-03 0.  1.
         12    1    3    3    0    0 -0.51688775309E+00  0.20787410044E+01  0.40138287832E+01  0.45496327998E+01  0.00000000000E+00 0. -1.
</event>
<event>
 7    1  0.5764931E-013  0.5052885E+02  0.7816164E-02  0.1300439E+00
        -11   -1    0    0    0    0  0.00000000000E+00  0.00000000000E+00  0.45593999997E+02  0.45594000000E+02  0.51100000000E-03 0.  1.
         11   -1    0    0    0    0 -0.00000000000E+00 -0.00000000000E+00 -0.45593999997E+02  0.45594000000E+02  0.51100000000E-03 0. -1.
    9900012    2    1    2    0    0  0.24245042413E+02  0.19433710219E+02  0.26223558030E+02  0.50528853793E+02  0.29999981591E+02 0.  0.
         12    1    1    2    0    0 -0.24245042413E+02 -0.19433710219E+02 -0.26223558030E+02  0.40659146207E+02  0.00000000000E+00 0. -1.
         11    1    3    3    0    0  0.28004872672E+00 -0.44028023405E+01  0.26607443359E+01  0.51519565624E+01  0.51100000000E-03 0. -1.
        -11    1    3    3    0    0  0.24973124001E+02  0.14001264489E+02  0.15129908160E+02  0.32382193422E+02  0.51100000000E-03 0.  1.
        -12    1    3    3    0    0 -0.10081303138E+01  0.98352480705E+01  0.84329055335E+01  0.12994703809E+02  0.00000000000E+00 0.  1.
</event>
<event>
 7    1  0.5764931E-013  0.5052889E+02  0.7816164E-02  0.1300439E+00
        -11   -1    0    0    0    0  0.00000000000E+00  0.00000000000E+00  0.45593999997E+02  0.45594000000E+02  0.51100000000E-03 0.  1.
         11   -1    0    0    0    0 -0.00000000000E+00 -0.00000000000E+00 -0.45593999997E+02  0.45594000000E+02  0.51100000000E-03 0. -1.
    9900012    2    1    2    0    0  0.26538414672E+02  0.19087913758E+02  0.24177006236E+02  0.50528886194E+02  0.30000080076E+02 0.  0.
         12    1    1    2    0    0 -0.26538414672E+02 -0.19087913758E+02 -0.24177006236E+02  0.40659113806E+02  0.00000000000E+00 0. -1.
         11    1    3    3    0    0  0.97366834471E+01 -0.56782647056E+01  0.82547640773E+01  0.13970927845E+02  0.51100000000E-03 0. -1.
        -11    1    3    3    0    0  0.18491485231E+02  0.19086269207E+02  0.10661075511E+02  0.28633533306E+02  0.51100000000E-03 0.  1.
         12    1    3    3    0    0 -0.16897540059E+01  0.56799092562E+01  0.52611666486E+01  0.79244250430E+01  0.00000000000E+00 0. -1.
</event>
<event>
 7    1  0.5764931E-013  0.5052882E+02  0.7816164E-02  0.1300439E+00
        -11   -1    0    0    0    0  0.00000000000E+00  0.00000000000E+00  0.45593999997E+02  0.45594000000E+02  0.51100000000E-03 0.  1.
         11   -1    0    0    0    0 -0.00000000000E+00 -0.00000000000E+00 -0.45593999997E+02  0.45594000000E+02  0.51100000000E-03 0. -1.
    9900012    2    1    2    0    0 -0.31585279833E+02  0.18166671132E+01  0.25538964838E+02  0.50528820144E+02  0.29999879309E+02 0.  0.
         12    1    1    2    0    0  0.31585279833E+02 -0.18166671132E+01 -0.25538964838E+02  0.40659179856E+02  0.00000000000E+00 0. -1.
         11    1    3    3    0    0 -0.43032630520E+01  0.58324440349E+01 -0.51798950127E+01  0.89088040117E+01  0.51100000000E-03 0. -1.
        -11    1    3    3    0    0 -0.17137752432E+02 -0.49493057560E+01  0.20803957014E+02  0.27404430547E+02  0.51100000000E-03 0.  1.
         12    1    3    3    0    0 -0.10144264350E+02  0.93352883433E+00  0.99149028368E+01  0.14215585586E+02  0.00000000000E+00 0. -1.
</event>
<event>
 7    1  0.5764931E-013  0.5052886E+02  0.7816164E-02  0.1300439E+00
        -11   -1    0    0    0    0  0.00000000000E+00  0.00000000000E+00  0.45593999997E+02  0.45594000000E+02  0.51100000000E-03 0. -1.
         11   -1    0    0    0    0 -0.00000000000E+00 -0.00000000000E+00 -0.45593999997E+02  0.45594000000E+02  0.51100000000E-03 0.  1.
    9900012    2    1    2    0    0  0.24051441207E+02 -0.32087583210E+02  0.67142060407E+01  0.50528863473E+02  0.30000011012E+02 0.  0.
         12    1    1    2    0    0 -0.24051441207E+02  0.32087583210E+02 -0.67142060407E+01  0.40659136527E+02  0.00000000000E+00 0. -1.
         11    1    3    3    0    0  0.63274820479E+01 -0.23459881725E+02 -0.11355044279E+01  0.24324729191E+02  0.51100000000E-03 0. -1.
        -11    1    3    3    0    0  0.20184562371E+02 -0.57495556223E+01  0.78782831116E+01  0.22417432793E+02  0.51100000000E-03 0.  1.
        -12    1    3    3    0    0 -0.24606032123E+01 -0.28781458624E+01 -0.28572643036E-01  0.37867014894E+01  0.00000000000E+00 0.  1.
</event>
<event>
 7    1  0.5764931E-013  0.5052886E+02  0.7816164E-02  0.1300439E+00
        -11   -1    0    0    0    0  0.00000000000E+00  0.00000000000E+00  0.45593999997E+02  0.45594000000E+02  0.51100000000E-03 0.  1.
         11   -1    0    0    0    0 -0.00000000000E+00 -0.00000000000E+00 -0.45593999997E+02  0.45594000000E+02  0.51100000000E-03 0. -1.
    9900012    2    1    2    0    0 -0.24080323894E+02  0.32756776997E+02 -0.54547092510E+00  0.50528856175E+02  0.29999988830E+02 0.  0.
         12    1    1    2    0    0  0.24080323894E+02 -0.32756776997E+02  0.54547092510E+00  0.40659143825E+02  0.00000000000E+00 0. -1.
         11    1    3    3    0    0 -0.84757147276E+01  0.14173140602E+02 -0.21848780666E+01  0.16658011499E+02  0.51100000000E-03 0. -1.
        -11    1    3    3    0    0 -0.11411542372E+02 -0.28015860652E+01 -0.15283701698E+01  0.11849392365E+02  0.51100000000E-03 0.  1.
        -12    1    3    3    0    0 -0.41930667946E+01  0.21385222460E+02  0.31677773113E+01  0.22021452311E+02  0.00000000000E+00 0.  1.
</event>
<event>
 7    1  0.5764931E-013  0.5052886E+02  0.7816164E-02  0.1300439E+00
        -11   -1    0    0    0    0  0.00000000000E+00  0.00000000000E+00  0.45593999997E+02  0.45594000000E+02  0.51100000000E-03 0.  1.
         11   -1    0    0    0    0 -0.00000000000E+00 -0.00000000000E+00 -0.45593999997E+02  0.45594000000E+02  0.51100000000E-03 0. -1.
    9900012    2    1    2    0    0 -0.72411454028E+01 -0.32694670059E+02  0.23060580718E+02  0.50528855641E+02  0.29999987205E+02 0.  0.
         12    1    1    2    0    0  0.72411454028E+01  0.32694670059E+02 -0.23060580718E+02  0.40659144359E+02  0.00000000000E+00 0. -1.
         11    1    3    3    0    0 -0.90952394498E+00 -0.14438696124E+02  0.17556440168E+01  0.14573450715E+02  0.51100000000E-03 0. -1.
        -11    1    3    3    0    0 -0.11710005801E+02 -0.48926340509E+01  0.16402548899E+02  0.20738990198E+02  0.51100000000E-03 0.  1.
        -12    1    3    3    0    0  0.53783843430E+01 -0.13363339884E+02  0.49023878024E+01  0.15216414728E+02  0.00000000000E+00 0.  1.
</event>
<event>
 7    1  0.5764931E-013  0.5052887E+02  0.7816164E-02  0.1300439E+00
        -11   -1    0    0    0    0  0.00000000000E+00  0.00000000000E+00  0.45593999997E+02  0.45594000000E+02  0.51100000000E-03 0.  1.
         11   -1    0    0    0    0 -0.00000000000E+00 -0.00000000000E+00 -0.45593999997E+02  0.45594000000E+02  0.51100000000E-03 0. -1.
    9900012    2    1    2    0    0  0.25837333907E+02  0.24763372916E+02  0.19296946694E+02  0.50528872940E+02  0.30000039788E+02 0.  0.
         12    1    1    2    0    0 -0.25837333907E+02 -0.24763372916E+02 -0.19296946694E+02  0.40659127060E+02  0.00000000000E+00 0. -1.
         11    1    3    3    0    0  0.10377134531E+02 -0.44006528924E+01  0.89135986006E+01  0.14370209018E+02  0.51100000000E-03 0. -1.
        -11    1    3    3    0    0  0.13529294970E+02  0.18359560952E+02  0.31710971765E+01  0.23025445887E+02  0.51100000000E-03 0.  1.
         12    1    3    3    0    0  0.19309044059E+01  0.10804464856E+02  0.72122509165E+01  0.13133218034E+02  0.00000000000E+00 0. -1.
</event>
<event>
 7    1  0.5764931E-013  0.5052886E+02  0.7816164E-02  0.1300439E+00
        -11   -1    0    0    0    0  0.00000000000E+00  0.00000000000E+00  0.45593999997E+02  0.45594000000E+02  0.51100000000E-03 0.  1.
         11   -1    0    0    0    0 -0.00000000000E+00 -0.00000000000E+00 -0.45593999997E+02  0.45594000000E+02  0.51100000000E-03 0. -1.
    9900012    2    1    2    0    0 -0.18483676006E+02 -0.25752036057E+02  0.25462751219E+02  0.50528864010E+02  0.30000012646E+02 0.  0.
         12    1    1    2    0    0  0.18483676006E+02  0.25752036057E+02 -0.25462751219E+02  0.40659135990E+02  0.00000000000E+00 0. -1.
         11    1    3    3    0    0 -0.98196691250E+01 -0.12472394720E+01 -0.11944455617E+01  0.99703665171E+01  0.51100000000E-03 0. -1.
        -11    1    3    3    0    0 -0.63052089902E+01 -0.26023079637E+02  0.26614490011E+02  0.37752978863E+02  0.51100000000E-03 0.  1.
        -12    1    3    3    0    0 -0.23587978913E+01  0.15182830522E+01  0.42706769428E-01  0.28055186306E+01  0.00000000000E+00 0.  1.
</event>
<event>
 7    1  0.5764931E-013  0.5052888E+02  0.7816164E-02  0.1300439E+00
        -11   -1    0    0    0    0  0.00000000000E+00  0.00000000000E+00  0.45593999997E+02  0.45594000000E+02  0.51100000000E-03 0. -1.
         11   -1    0    0    0    0 -0.00000000000E+00 -0.00000000000E+00 -0.45593999997E+02  0.45594000000E+02  0.51100000000E-03 0.  1.
    9900012    2    1    2    0    0 -0.29118379639E+02 -0.11034740370E+02 -0.26144182748E+02  0.50528882702E+02  0.30000069462E+02 0.  0.
         12    1    1    2    0    0  0.29118379639E+02  0.11034740370E+02  0.26144182748E+02  0.40659117298E+02  0.00000000000E+00 0. -1.
         11    1    3    3    0    0 -0.69541835594E+01 -0.63835608810E+01  0.56664135409E+01  0.11009939199E+02  0.51100000000E-03 0. -1.
        -11    1    3    3    0    0 -0.17044633131E+02 -0.46774505430E+01 -0.20269787575E+02  0.26893537341E+02  0.51100000000E-03 0.  1.
         12    1    3    3    0    0 -0.51195629489E+01  0.26271053655E-01 -0.11540808715E+02  0.12625406162E+02  0.00000000000E+00 0. -1.
</event>
<event>
 7    1  0.5764931E-013  0.5052887E+02  0.7816164E-02  0.1300439E+00
        -11   -1    0    0    0    0  0.00000000000E+00  0.00000000000E+00  0.45593999997E+02  0.45594000000E+02  0.51100000000E-03 0.  1.
         11   -1    0    0    0    0 -0.00000000000E+00 -0.00000000000E+00 -0.45593999997E+02  0.45594000000E+02  0.51100000000E-03 0. -1.
    9900012    2    1    2    0    0 -0.23504552350E+02  0.24391793346E+02  0.22488688330E+02  0.50528872284E+02  0.30000037795E+02 0.  0.
         12    1    1    2    0    0  0.23504552350E+02 -0.24391793346E+02 -0.22488688330E+02  0.40659127716E+02  0.00000000000E+00 0. -1.
         11    1    3    3    0    0 -0.18463739934E+00 -0.64654192844E+01  0.25664734478E+01  0.69586294420E+01  0.51100000000E-03 0. -1.
        -11    1    3    3    0    0 -0.14682568752E+02  0.17891952250E+02  0.12668422389E+02  0.26385388126E+02  0.51100000000E-03 0.  1.
         12    1    3    3    0    0 -0.86373461986E+01  0.12965260380E+02  0.72537924937E+01  0.17184854716E+02  0.00000000000E+00 0. -1.
</event>
<event>
 7    1  0.5764931E-013  0.5052883E+02  0.7816164E-02  0.1300439E+00
        -11   -1    0    0    0    0  0.00000000000E+00  0.00000000000E+00  0.45593999997E+02  0.45594000000E+02  0.51100000000E-03 0. -1.
         11   -1    0    0    0    0 -0.00000000000E+00 -0.00000000000E+00 -0.45593999997E+02  0.45594000000E+02  0.51100000000E-03 0.  1.
    9900012    2    1    2    0    0  0.28455730843E+02  0.77790094526E+00 -0.29031608350E+02  0.50528830910E+02  0.29999912033E+02 0.  0.
         12    1    1    2    0    0 -0.28455730843E+02 -0.77790094526E+00  0.29031608350E+02  0.40659169090E+02  0.00000000000E+00 0. -1.
         11    1    3    3    0    0  0.25025371264E+02 -0.42333005453E+01 -0.25419721107E+02  0.35921473547E+02  0.51100000000E-03 0.  1.
        -11    1    3    3    0    0  0.42742455404E+01  0.83466756260E+01  0.31973498291E+00  0.93828780055E+01  0.51100000000E-03 0. -1.
         12    1    3    3    0    0 -0.84388596049E+00 -0.33354741355E+01 -0.39316222258E+01  0.52244793567E+01  0.00000000000E+00 0. -1.
</event>
<event>
 7    1  0.5764931E-013  0.5052884E+02  0.7816164E-02  0.1300439E+00
        -11   -1    0    0    0    0  0.00000000000E+00  0.00000000000E+00  0.45593999997E+02  0.45594000000E+02  0.51100000000E-03 0. -1.
         11   -1    0    0    0    0 -0.00000000000E+00 -0.00000000000E+00 -0.45593999997E+02  0.45594000000E+02  0.51100000000E-03 0.  1.
    9900012    2    1    2    0    0 -0.33256560788E+02  0.84633697622E+01 -0.21806869841E+02  0.50528843154E+02  0.29999949250E+02 0.  0.
         12    1    1    2    0    0  0.33256560788E+02 -0.84633697622E+01  0.21806869841E+02  0.40659156846E+02  0.00000000000E+00 0. -1.
         11    1    3    3    0    0  0.24823836025E+01 -0.31539661805E+00  0.26577776788E+01  0.36504089945E+01  0.51100000000E-03 0. -1.
        -11    1    3    3    0    0 -0.18073055392E+02  0.40691885581E+01 -0.21460427646E+02  0.28350371810E+02  0.51100000000E-03 0.  1.
         12    1    3    3    0    0 -0.17665888999E+02  0.47095778221E+01 -0.30042198729E+01  0.18528062350E+02  0.00000000000E+00 0. -1.
</event>
<event>
 7    1  0.5764931E-013  0.5052887E+02  0.7816164E-02  0.1300439E+00
        -11   -1    0    0    0    0  0.00000000000E+00  0.00000000000E+00  0.45593999997E+02  0.45594000000E+02  0.51100000000E-03 0.  1.
         11   -1    0    0    0    0 -0.00000000000E+00 -0.00000000000E+00 -0.45593999997E+02  0.45594000000E+02  0.51100000000E-03 0. -1.
    9900012    2    1    2    0    0 -0.16533362928E+02 -0.44738159876E+01  0.36875440493E+02  0.50528865347E+02  0.30000016708E+02 0.  0.
         12    1    1    2    0    0  0.16533362928E+02  0.44738159876E+01 -0.36875440493E+02  0.40659134653E+02  0.00000000000E+00 0. -1.
         11    1    3    3    0    0 -0.92207074687E+01 -0.88895817075E+01  0.18928328935E+01  0.12947158985E+02  0.51100000000E-03 0. -1.
        -11    1    3    3    0    0 -0.69973786259E+01  0.57171949393E+01  0.14701301064E+02  0.17256241736E+02  0.51100000000E-03 0.  1.
         12    1    3    3    0    0 -0.31527683371E+00 -0.13014292193E+01  0.20281306535E+02  0.20325464626E+02  0.00000000000E+00 0. -1.
</event>
<event>
 7    1  0.5764931E-013  0.5052887E+02  0.7816164E-02  0.1300439E+00
        -11   -1    0    0    0    0  0.00000000000E+00  0.00000000000E+00  0.45593999997E+02  0.45594000000E+02  0.51100000000E-03 0. -1.
         11   -1    0    0    0    0 -0.00000000000E+00 -0.00000000000E+00 -0.45593999997E+02  0.45594000000E+02  0.51100000000E-03 0.  1.
    9900012    2    1    2    0    0  0.35488507680E+02  0.91938423018E+01 -0.17584205005E+02  0.50528865979E+02  0.30000018631E+02 0.  0.
         12    1    1    2    0    0 -0.35488507680E+02 -0.91938423018E+01  0.17584205005E+02  0.40659134021E+02  0.00000000000E+00 0. -1.
         11    1    3    3    0    0  0.90568399869E+01  0.14019779856E+02 -0.75708457975E+01  0.18327528042E+02  0.51100000000E-03 0. -1.
        -11    1    3    3    0    0  0.28124260304E+02 -0.42608690047E+01 -0.80803403175E+01  0.29570609095E+02  0.51100000000E-03 0.  1.
         12    1    3    3    0    0 -0.16925926110E+01 -0.56506854959E+00 -0.19330188904E+01  0.26307288426E+01  0.00000000000E+00 0. -1.
</event>
<event>
 7    1  0.5764931E-013  0.5052886E+02  0.7816164E-02  0.1300439E+00
        -11   -1    0    0    0    0  0.00000000000E+00  0.00000000000E+00  0.45593999997E+02  0.45594000000E+02  0.51100000000E-03 0.  1.
         11   -1    0    0    0    0 -0.00000000000E+00 -0.00000000000E+00 -0.45593999997E+02  0.45594000000E+02  0.51100000000E-03 0. -1.
    9900012    2    1    2    0    0  0.32372836818E+02 -0.24299085196E+02  0.38366149386E+01  0.50528859341E+02  0.29999998452E+02 0.  0.
         12    1    1    2    0    0 -0.32372836818E+02  0.24299085196E+02 -0.38366149386E+01  0.40659140659E+02  0.00000000000E+00 0. -1.
         11    1    3    3    0    0  0.19087031491E+02 -0.35409256671E+01 -0.25673742378E+01  0.19581734767E+02  0.51100000000E-03 0. -1.
        -11    1    3    3    0    0  0.27422427828E+01 -0.95257929840E+01  0.11061181059E+02  0.14852957757E+02  0.51100000000E-03 0.  1.
         12    1    3    3    0    0  0.10543562544E+02 -0.11232366544E+02 -0.46571918826E+01  0.16094166817E+02  0.00000000000E+00 0. -1.
</event>
<event>
 7    1  0.5764931E-013  0.5052881E+02  0.7816164E-02  0.1300439E+00
        -11   -1    0    0    0    0  0.00000000000E+00  0.00000000000E+00  0.45593999997E+02  0.45594000000E+02  0.51100000000E-03 0.  1.
         11   -1    0    0    0    0 -0.00000000000E+00 -0.00000000000E+00 -0.45593999997E+02  0.45594000000E+02  0.51100000000E-03 0. -1.
    9900012    2    1    2    0    0 -0.16788662381E+02 -0.13367283414E+02  0.34534420473E+02  0.50528811029E+02  0.29999851602E+02 0.  0.
         12    1    1    2    0    0  0.16788662381E+02  0.13367283414E+02 -0.34534420473E+02  0.40659188971E+02  0.00000000000E+00 0. -1.
         11    1    3    3    0    0 -0.24628018192E+00  0.12203977385E+01  0.26824736136E+02  0.26853612301E+02  0.51100000000E-03 0. -1.
        -11    1    3    3    0    0 -0.17930261092E+01 -0.66185561566E+00  0.15934816708E+01  0.24884090461E+01  0.51100000000E-03 0.  1.
         12    1    3    3    0    0 -0.14749356090E+02 -0.13925825537E+02  0.61162026655E+01  0.21186789682E+02  0.00000000000E+00 0. -1.
</event>
<event>
 7    1  0.5764931E-013  0.5052885E+02  0.7816164E-02  0.1300439E+00
        -11   -1    0    0    0    0  0.00000000000E+00  0.00000000000E+00  0.45593999997E+02  0.45594000000E+02  0.51100000000E-03 0.  1.
         11   -1    0    0    0    0 -0.00000000000E+00 -0.00000000000E+00 -0.45593999997E+02  0.45594000000E+02  0.51100000000E-03 0. -1.
    9900012    2    1    2    0    0 -0.20746351523E+02  0.17396154197E+02  0.30333627204E+02  0.50528853161E+02  0.29999979667E+02 0.  0.
         12    1    1    2    0    0  0.20746351523E+02 -0.17396154197E+02 -0.30333627204E+02  0.40659146839E+02  0.00000000000E+00 0. -1.
         11    1    3    3    0    0 -0.79702649748E+01 -0.21703576917E+01 -0.16502156800E-01  0.82604993106E+01  0.51100000000E-03 0.  1.
        -11    1    3    3    0    0  0.14228343253E+00  0.61469269936E+01  0.20074350751E+02  0.20994868763E+02  0.51100000000E-03 0. -1.
         12    1    3    3    0    0 -0.12918369981E+02  0.13419584895E+02  0.10275778610E+02  0.21273485087E+02  0.00000000000E+00 0. -1.
</event>
<event>
 7    1  0.5764931E-013  0.5052885E+02  0.7816164E-02  0.1300439E+00
        -11   -1    0    0    0    0  0.00000000000E+00  0.00000000000E+00  0.45593999997E+02  0.45594000000E+02  0.51100000000E-03 0.  1.
         11   -1    0    0    0    0 -0.00000000000E+00 -0.00000000000E+00 -0.45593999997E+02  0.45594000000E+02  0.51100000000E-03 0. -1.
    9900012    2    1    2    0    0  0.78071156856E+01  0.26247060270E+02  0.30055064282E+02  0.50528854447E+02  0.29999983576E+02 0.  0.
         12    1    1    2    0    0 -0.78071156856E+01 -0.26247060270E+02 -0.30055064282E+02  0.40659145553E+02  0.00000000000E+00 0. -1.
         11    1    3    3    0    0 -0.60785290349E+01  0.42504171780E+01 -0.43752845465E+00  0.74300735410E+01  0.51100000000E-03 0. -1.
        -11    1    3    3    0    0  0.13461335410E+02  0.71076554293E+01  0.18622304927E+02  0.24052371147E+02  0.51100000000E-03 0.  1.
        -12    1    3    3    0    0  0.42430931023E+00  0.14888987663E+02  0.11870287809E+02  0.19046409759E+02  0.00000000000E+00 0.  1.
</event>
<event>
 7    1  0.5764931E-013  0.5052886E+02  0.7816164E-02  0.1300439E+00
        -11   -1    0    0    0    0  0.00000000000E+00  0.00000000000E+00  0.45593999997E+02  0.45594000000E+02  0.51100000000E-03 0.  1.
         11   -1    0    0    0    0 -0.00000000000E+00 -0.00000000000E+00 -0.45593999997E+02  0.45594000000E+02  0.51100000000E-03 0. -1.
    9900012    2    1    2    0    0 -0.11823385100E+02 -0.12119074443E+02  0.36966220643E+02  0.50528857496E+02  0.29999992844E+02 0.  0.
         12    1    1    2    0    0  0.11823385100E+02  0.12119074443E+02 -0.36966220643E+02  0.40659142504E+02  0.00000000000E+00 0. -1.
         11    1    3    3    0    0  0.78975276258E+00  0.77076262758E+01  0.36539409663E+01  0.85663584492E+01  0.51100000000E-03 0. -1.
        -11    1    3    3    0    0 -0.11750352702E+02 -0.11161900837E+02  0.25769774269E+02  0.30442406032E+02  0.51100000000E-03 0.  1.
         12    1    3    3    0    0 -0.86278516078E+00 -0.86647998825E+01  0.75425054078E+01  0.11520093015E+02  0.00000000000E+00 0. -1.
</event>
<event>
 7    1  0.5764931E-013  0.5052883E+02  0.7816164E-02  0.1300439E+00
        -11   -1    0    0    0    0  0.00000000000E+00  0.00000000000E+00  0.45593999997E+02  0.45594000000E+02  0.51100000000E-03 0.  1.
         11   -1    0    0    0    0 -0.00000000000E+00 -0.00000000000E+00 -0.45593999997E+02  0.45594000000E+02  0.51100000000E-03 0. -1.
    9900012    2    1    2    0    0 -0.22071203852E+02 -0.24185958589E+02  0.24105374378E+02  0.50528834905E+02  0.29999924176E+02 0.  0.
         12    1    1    2    0    0  0.22071203852E+02  0.24185958589E+02 -0.24105374378E+02  0.40659165095E+02  0.00000000000E+00 0. -1.
         11    1    3    3    0    0  0.15408111293E+01  0.18868160584E+01  0.86474929629E+00  0.25849497831E+01  0.51100000000E-03 0. -1.
        -11    1    3    3    0    0 -0.18154707769E+02 -0.24193858216E+02  0.74791154806E+01  0.31158840771E+02  0.51100000000E-03 0.  1.
        -12    1    3    3    0    0 -0.54573072121E+01 -0.18789164320E+01  0.15761509601E+02  0.16785044351E+02  0.00000000000E+00 0.  1.
</event>
<event>
 7    1  0.5764931E-013  0.5052886E+02  0.7816164E-02  0.1300439E+00
        -11   -1    0    0    0    0  0.00000000000E+00  0.00000000000E+00  0.45593999997E+02  0.45594000000E+02  0.51100000000E-03 0. -1.
         11   -1    0    0    0    0 -0.00000000000E+00 -0.00000000000E+00 -0.45593999997E+02  0.45594000000E+02  0.51100000000E-03 0.  1.
    9900012    2    1    2    0    0 -0.21286821702E+02  0.32749445065E+02 -0.11292048607E+02  0.50528864594E+02  0.30000014419E+02 0.  0.
         12    1    1    2    0    0  0.21286821702E+02 -0.32749445065E+02  0.11292048607E+02  0.40659135406E+02  0.00000000000E+00 0. -1.
         11    1    3    3    0    0 -0.95323870081E+01 -0.31088749667E+01 -0.27638277906E+01  0.10400492774E+02  0.51100000000E-03 0. -1.
        -11    1    3    3    0    0 -0.12419587735E+02  0.29473453571E+02 -0.10061159692E+02  0.33528458950E+02  0.51100000000E-03 0.  1.
         12    1    3    3    0    0  0.66515304121E+00  0.63848664608E+01  0.15329388763E+01  0.65999128698E+01  0.00000000000E+00 0. -1.
</event>
<event>
 7    1  0.5764931E-013  0.5052887E+02  0.7816164E-02  0.1300439E+00
        -11   -1    0    0    0    0  0.00000000000E+00  0.00000000000E+00  0.45593999997E+02  0.45594000000E+02  0.51100000000E-03 0.  1.
         11   -1    0    0    0    0 -0.00000000000E+00 -0.00000000000E+00 -0.45593999997E+02  0.45594000000E+02  0.51100000000E-03 0. -1.
    9900012    2    1    2    0    0  0.32182878908E+02 -0.24661075785E+02  0.30428213489E+01  0.50528866765E+02  0.30000021019E+02 0.  0.
         12    1    1    2    0    0 -0.32182878908E+02  0.24661075785E+02 -0.30428213489E+01  0.40659133235E+02  0.00000000000E+00 0. -1.
         11    1    3    3    0    0  0.14781890175E+02 -0.15885972753E+02  0.11945489037E+02  0.24770206217E+02  0.51100000000E-03 0.  1.
        -11    1    3    3    0    0  0.63246762826E+01  0.32651137164E+01 -0.56282844653E+01  0.90741437031E+01  0.51100000000E-03 0. -1.
        -12    1    3    3    0    0  0.11076312450E+02 -0.12040216749E+02 -0.32743832232E+01  0.16684516844E+02  0.00000000000E+00 0.  1.
</event>
<event>
 7    1  0.5764931E-013  0.5052886E+02  0.7816164E-02  0.1300439E+00
        -11   -1    0    0    0    0  0.00000000000E+00  0.00000000000E+00  0.45593999997E+02  0.45594000000E+02  0.51100000000E-03 0.  1.
         11   -1    0    0    0    0 -0.00000000000E+00 -0.00000000000E+00 -0.45593999997E+02  0.45594000000E+02  0.51100000000E-03 0. -1.
    9900012    2    1    2    0    0  0.33184826055E+02 -0.22469681579E+02  0.68590531298E+01  0.50528857358E+02  0.29999992425E+02 0.  0.
         12    1    1    2    0    0 -0.33184826055E+02  0.22469681579E+02 -0.68590531298E+01  0.40659142642E+02  0.00000000000E+00 0. -1.
         11    1    3    3    0    0  0.11015914436E+02 -0.15455542466E+00  0.12570638205E+02  0.16715119006E+02  0.51100000000E-03 0. -1.
        -11    1    3    3    0    0  0.16215323750E+02 -0.86097293358E+01 -0.38112091681E+01  0.18750719430E+02  0.51100000000E-03 0.  1.
         12    1    3    3    0    0  0.59535878699E+01 -0.13705396818E+02 -0.19003759071E+01  0.15063018922E+02  0.00000000000E+00 0. -1.
</event>
<event>
 7    1  0.5764931E-013  0.5052886E+02  0.7816164E-02  0.1300439E+00
        -11   -1    0    0    0    0  0.00000000000E+00  0.00000000000E+00  0.45593999997E+02  0.45594000000E+02  0.51100000000E-03 0.  1.
         11   -1    0    0    0    0 -0.00000000000E+00 -0.00000000000E+00 -0.45593999997E+02  0.45594000000E+02  0.51100000000E-03 0. -1.
    9900012    2    1    2    0    0 -0.24755303264E+02  0.26934825878E+02  0.17744177266E+02  0.50528859433E+02  0.29999998732E+02 0.  0.
         12    1    1    2    0    0  0.24755303264E+02 -0.26934825878E+02 -0.17744177266E+02  0.40659140567E+02  0.00000000000E+00 0. -1.
         11    1    3    3    0    0 -0.26422277551E+02  0.24266839642E+02  0.13019603329E+02  0.38164464208E+02  0.51100000000E-03 0. -1.
        -11    1    3    3    0    0 -0.16888312153E+01 -0.20406556173E+01  0.58970212292E+01  0.64646179980E+01  0.51100000000E-03 0.  1.
         12    1    3    3    0    0  0.33558055015E+01  0.47086418536E+01 -0.11724472921E+01  0.58997772265E+01  0.00000000000E+00 0. -1.
</event>
<event>
 7    1  0.5764931E-013  0.5052885E+02  0.7816164E-02  0.1300439E+00
        -11   -1    0    0    0    0  0.00000000000E+00  0.00000000000E+00  0.45593999997E+02  0.45594000000E+02  0.51100000000E-03 0. -1.
         11   -1    0    0    0    0 -0.00000000000E+00 -0.00000000000E+00 -0.45593999997E+02  0.45594000000E+02  0.51100000000E-03 0.  1.
    9900012    2    1    2    0    0  0.32866767742E+02  0.23768737726E+02 -0.28264999464E+01  0.50528850762E+02  0.29999972375E+02 0.  0.
         12    1    1    2    0    0 -0.32866767742E+02 -0.23768737726E+02  0.28264999464E+01  0.40659149238E+02  0.00000000000E+00 0. -1.
         11    1    3    3    0    0  0.16901678164E+02  0.17491524071E+01  0.86200564708E+01  0.19053389009E+02  0.51100000000E-03 0. -1.
        -11    1    3    3    0    0  0.11629346712E+02  0.68545165261E+01 -0.61823657134E+01  0.14847482879E+02  0.51100000000E-03 0.  1.
         12    1    3    3    0    0  0.43357428657E+01  0.15165068792E+02 -0.52641907038E+01  0.16627978874E+02  0.00000000000E+00 0. -1.
</event>
<event>
 7    1  0.5764931E-013  0.5052887E+02  0.7816164E-02  0.1300439E+00
        -11   -1    0    0    0    0  0.00000000000E+00  0.00000000000E+00  0.45593999997E+02  0.45594000000E+02  0.51100000000E-03 0. -1.
         11   -1    0    0    0    0 -0.00000000000E+00 -0.00000000000E+00 -0.45593999997E+02  0.45594000000E+02  0.51100000000E-03 0.  1.
    9900012    2    1    2    0    0 -0.35754921459E+02  0.12112078098E+02  0.15101270365E+02  0.50528865589E+02  0.30000017445E+02 0.  0.
         12    1    1    2    0    0  0.35754921459E+02 -0.12112078098E+02 -0.15101270365E+02  0.40659134411E+02  0.00000000000E+00 0. -1.
         11    1    3    3    0    0 -0.14560272217E+02  0.17059715985E+02  0.15364144367E+02  0.27186253308E+02  0.51100000000E-03 0. -1.
        -11    1    3    3    0    0 -0.20063276531E+01 -0.30216157415E+01 -0.16974151690E+01  0.40045887252E+01  0.51100000000E-03 0.  1.
         12    1    3    3    0    0 -0.19188321589E+02 -0.19260221459E+01  0.14345411672E+01  0.19338023556E+02  0.00000000000E+00 0. -1.
</event>
<event>
 7    1  0.5764931E-013  0.5052886E+02  0.7816164E-02  0.1300439E+00
        -11   -1    0    0    0    0  0.00000000000E+00  0.00000000000E+00  0.45593999997E+02  0.45594000000E+02  0.51100000000E-03 0. -1.
         11   -1    0    0    0    0 -0.00000000000E+00 -0.00000000000E+00 -0.45593999997E+02  0.45594000000E+02  0.51100000000E-03 0.  1.
    9900012    2    1    2    0    0  0.37949546298E+02  0.45267887348E+01 -0.13874658998E+02  0.50528855361E+02  0.29999986357E+02 0.  0.
         12    1    1    2    0    0 -0.37949546298E+02 -0.45267887348E+01  0.13874658998E+02  0.40659144639E+02  0.00000000000E+00 0. -1.
         11    1    3    3    0    0  0.17898893563E+02  0.14896574080E+02 -0.13466994736E+00  0.23287259313E+02  0.51100000000E-03 0. -1.
        -11    1    3    3    0    0  0.38704879663E+01 -0.47196765322E+01 -0.18331791636E+01  0.63731130363E+01  0.51100000000E-03 0.  1.
         12    1    3    3    0    0  0.16180164769E+02 -0.56501088126E+01 -0.11906809887E+02  0.20868483012E+02  0.00000000000E+00 0. -1.
</event>
<event>
 7    1  0.5764931E-013  0.5052886E+02  0.7816164E-02  0.1300439E+00
        -11   -1    0    0    0    0  0.00000000000E+00  0.00000000000E+00  0.45593999997E+02  0.45594000000E+02  0.51100000000E-03 0.  1.
         11   -1    0    0    0    0 -0.00000000000E+00 -0.00000000000E+00 -0.45593999997E+02  0.45594000000E+02  0.51100000000E-03 0. -1.
    9900012    2    1    2    0    0  0.58973465368E+01 -0.33861275520E+02  0.21720982707E+02  0.50528858768E+02  0.29999996710E+02 0.  0.
         12    1    1    2    0    0 -0.58973465368E+01  0.33861275520E+02 -0.21720982707E+02  0.40659141232E+02  0.00000000000E+00 0. -1.
         11    1    3    3    0    0  0.75011377035E+01 -0.21801835414E+01  0.16175940952E+02  0.17963333017E+02  0.51100000000E-03 0. -1.
        -11    1    3    3    0    0 -0.23244498922E+01 -0.79024896322E+01  0.23248443793E+01  0.85590485066E+01  0.51100000000E-03 0.  1.
         12    1    3    3    0    0  0.72065872548E+00 -0.23778602346E+02  0.32201973750E+01  0.24006477244E+02  0.00000000000E+00 0. -1.
</event>
<event>
 7    1  0.5764931E-013  0.5052883E+02  0.7816164E-02  0.1300439E+00
        -11   -1    0    0    0    0  0.00000000000E+00  0.00000000000E+00  0.45593999997E+02  0.45594000000E+02  0.51100000000E-03 0.  1.
         11   -1    0    0    0    0 -0.00000000000E+00 -0.00000000000E+00 -0.45593999997E+02  0.45594000000E+02  0.51100000000E-03 0. -1.
    9900012    2    1    2    0    0 -0.37312154665E+02 -0.54707327015E+01  0.15200075845E+02  0.50528829968E+02  0.29999909171E+02 0.  0.
         12    1    1    2    0    0  0.37312154665E+02  0.54707327015E+01 -0.15200075845E+02  0.40659170032E+02  0.00000000000E+00 0. -1.
         11    1    3    3    0    0  0.35799465686E+01 -0.18053245007E+01 -0.18786317481E+01  0.44276936991E+01  0.51100000000E-03 0. -1.
        -11    1    3    3    0    0 -0.22628365531E+02 -0.80289444020E+01  0.86893785379E+01  0.25534529062E+02  0.51100000000E-03 0.  1.
        -12    1    3    3    0    0 -0.18263735703E+02  0.43635362013E+01  0.83893290551E+01  0.20566607207E+02  0.00000000000E+00 0.  1.
</event>
<event>
 7    1  0.5764931E-013  0.5052886E+02  0.7816164E-02  0.1300439E+00
        -11   -1    0    0    0    0  0.00000000000E+00  0.00000000000E+00  0.45593999997E+02  0.45594000000E+02  0.51100000000E-03 0.  1.
         11   -1    0    0    0    0 -0.00000000000E+00 -0.00000000000E+00 -0.45593999997E+02  0.45594000000E+02  0.51100000000E-03 0. -1.
    9900012    2    1    2    0    0 -0.32016593290E+01  0.37035376333E+02  0.16471073147E+02  0.50528856217E+02  0.29999988956E+02 0.  0.
         12    1    1    2    0    0  0.32016593290E+01 -0.37035376333E+02 -0.16471073147E+02  0.40659143783E+02  0.00000000000E+00 0. -1.
         11    1    3    3    0    0 -0.38789248620E+01  0.33240740492E+01 -0.66876997889E+00  0.51519685476E+01  0.51100000000E-03 0. -1.
        -11    1    3    3    0    0  0.10341964540E+02  0.25272843287E+02  0.50939018119E+01  0.27778061024E+02  0.51100000000E-03 0.  1.
        -12    1    3    3    0    0 -0.96646990065E+01  0.84384589970E+01  0.12045941314E+02  0.17598826644E+02  0.00000000000E+00 0.  1.
</event>
<event>
 7    1  0.5764931E-013  0.5052886E+02  0.7816164E-02  0.1300439E+00
        -11   -1    0    0    0    0  0.00000000000E+00  0.00000000000E+00  0.45593999997E+02  0.45594000000E+02  0.51100000000E-03 0.  1.
         11   -1    0    0    0    0 -0.00000000000E+00 -0.00000000000E+00 -0.45593999997E+02  0.45594000000E+02  0.51100000000E-03 0. -1.
    9900012    2    1    2    0    0  0.56835206970E+01 -0.89741209015E+01  0.39247014667E+02  0.50528863096E+02  0.30000009868E+02 0.  0.
         12    1    1    2    0    0 -0.56835206970E+01  0.89741209015E+01 -0.39247014667E+02  0.40659136904E+02  0.00000000000E+00 0. -1.
         11    1    3    3    0    0 -0.12166357176E+01  0.17197181352E+00 -0.45914829063E+01  0.47530508428E+01  0.51100000000E-03 0. -1.
        -11    1    3    3    0    0  0.55594004760E+01 -0.26153358627E+01  0.26421281528E+02  0.27126205654E+02  0.51100000000E-03 0.  1.
        -12    1    3    3    0    0  0.13407559385E+01 -0.65307568523E+01  0.17417216045E+02  0.18649606600E+02  0.00000000000E+00 0.  1.
</event>
<event>
 7    1  0.5764931E-013  0.5052883E+02  0.7816164E-02  0.1300439E+00
        -11   -1    0    0    0    0  0.00000000000E+00  0.00000000000E+00  0.45593999997E+02  0.45594000000E+02  0.51100000000E-03 0.  1.
         11   -1    0    0    0    0 -0.00000000000E+00 -0.00000000000E+00 -0.45593999997E+02  0.45594000000E+02  0.51100000000E-03 0. -1.
    9900012    2    1    2    0    0 -0.15993026946E+02 -0.34860366238E+02 -0.13496141839E+02  0.50528832649E+02  0.29999917320E+02 0.  0.
         12    1    1    2    0    0  0.15993026946E+02  0.34860366238E+02  0.13496141839E+02  0.40659167351E+02  0.00000000000E+00 0. -1.
         11    1    3    3    0    0 -0.13204376970E+02 -0.12588299364E+02 -0.18365707483E+02  0.25886677339E+02  0.51100000000E-03 0. -1.
        -11    1    3    3    0    0 -0.26448200707E+01 -0.57481959064E+01  0.50830273008E+01  0.81162797011E+01  0.51100000000E-03 0.  1.
         12    1    3    3    0    0 -0.14382990578E+00 -0.16523870967E+02 -0.21346165722E+00  0.16525875609E+02  0.00000000000E+00 0. -1.
</event>
<event>
 7    1  0.5764931E-013  0.5052886E+02  0.7816164E-02  0.1300439E+00
        -11   -1    0    0    0    0  0.00000000000E+00  0.00000000000E+00  0.45593999997E+02  0.45594000000E+02  0.51100000000E-03 0. -1.
         11   -1    0    0    0    0 -0.00000000000E+00 -0.00000000000E+00 -0.45593999997E+02  0.45594000000E+02  0.51100000000E-03 0.  1.
    9900012    2    1    2    0    0 -0.24643936939E+02 -0.19750908911E+02 -0.25607491623E+02  0.50528860094E+02  0.30000000741E+02 0.  0.
         12    1    1    2    0    0  0.24643936939E+02  0.19750908911E+02  0.25607491623E+02  0.40659139906E+02  0.00000000000E+00 0. -1.
         11    1    3    3    0    0 -0.21306348185E+02  0.13747831368E+01 -0.15370944157E+02  0.26308105713E+02  0.51100000000E-03 0. -1.
        -11    1    3    3    0    0 -0.36333310091E+01 -0.76650141322E+01 -0.42035682943E+01  0.94669700821E+01  0.51100000000E-03 0.  1.
         12    1    3    3    0    0  0.29574225541E+00 -0.13460677916E+02 -0.60329791716E+01  0.14753784298E+02  0.00000000000E+00 0. -1.
</event>
<event>
 7    1  0.5764931E-013  0.5052887E+02  0.7816164E-02  0.1300439E+00
        -11   -1    0    0    0    0  0.00000000000E+00  0.00000000000E+00  0.45593999997E+02  0.45594000000E+02  0.51100000000E-03 0.  1.
         11   -1    0    0    0    0 -0.00000000000E+00 -0.00000000000E+00 -0.45593999997E+02  0.45594000000E+02  0.51100000000E-03 0. -1.
    9900012    2    1    2    0    0  0.44716635694E+00  0.32315721255E+02  0.24671019431E+02  0.50528868212E+02  0.30000025418E+02 0.  0.
         12    1    1    2    0    0 -0.44716635694E+00 -0.32315721255E+02 -0.24671019431E+02  0.40659131788E+02  0.00000000000E+00 0. -1.
         11    1    3    3    0    0  0.93600817157E+01  0.68993882418E+01  0.11588846710E+02  0.16416883266E+02  0.51100000000E-03 0. -1.
        -11    1    3    3    0    0 -0.12845841352E+02  0.17530384181E+02  0.12949718971E+02  0.25298719953E+02  0.51100000000E-03 0.  1.
        -12    1    3    3    0    0  0.39329259932E+01  0.78859488319E+01  0.13245375052E+00  0.88132649934E+01  0.00000000000E+00 0.  1.
</event>
<event>
 7    1  0.5764931E-013  0.5052886E+02  0.7816164E-02  0.1300439E+00
        -11   -1    0    0    0    0  0.00000000000E+00  0.00000000000E+00  0.45593999997E+02  0.45594000000E+02  0.51100000000E-03 0.  1.
         11   -1    0    0    0    0 -0.00000000000E+00 -0.00000000000E+00 -0.45593999997E+02  0.45594000000E+02  0.51100000000E-03 0. -1.
    9900012    2    1    2    0    0 -0.62353948404E+01  0.26130422897E+02  0.30520265525E+02  0.50528858872E+02  0.29999997026E+02 0.  0.
         12    1    1    2    0    0  0.62353948404E+01 -0.26130422897E+02 -0.30520265525E+02  0.40659141128E+02  0.00000000000E+00 0. -1.
         11    1    3    3    0    0 -0.16819427929E+02  0.19500258283E+02  0.21019571447E+02  0.33241173461E+02  0.51100000000E-03 0. -1.
        -11    1    3    3    0    0  0.18131660715E+01  0.48754511770E+01  0.52279446259E+01  0.73748898741E+01  0.51100000000E-03 0.  1.
         12    1    3    3    0    0  0.87708670171E+01  0.17547134373E+01  0.42727494514E+01  0.99127955368E+01  0.00000000000E+00 0. -1.
</event>
<event>
 7    1  0.5764931E-013  0.5052886E+02  0.7816164E-02  0.1300439E+00
        -11   -1    0    0    0    0  0.00000000000E+00  0.00000000000E+00  0.45593999997E+02  0.45594000000E+02  0.51100000000E-03 0.  1.
         11   -1    0    0    0    0 -0.00000000000E+00 -0.00000000000E+00 -0.45593999997E+02  0.45594000000E+02  0.51100000000E-03 0. -1.
    9900012    2    1    2    0    0  0.26428414099E+02 -0.65265182928E+01  0.30201148252E+02  0.50528857503E+02  0.29999992866E+02 0.  0.
         12    1    1    2    0    0 -0.26428414099E+02  0.65265182928E+01 -0.30201148252E+02  0.40659142497E+02  0.00000000000E+00 0. -1.
         11    1    3    3    0    0  0.25395297521E+02 -0.89617683907E+01  0.29865304131E+02  0.40214062465E+02  0.51100000000E-03 0. -1.
        -11    1    3    3    0    0 -0.27441193595E+01 -0.24843420489E+01 -0.12602849033E+01  0.39103023891E+01  0.51100000000E-03 0.  1.
         12    1    3    3    0    0  0.37772359382E+01  0.49195921467E+01  0.15961290246E+01  0.64044926486E+01  0.00000000000E+00 0. -1.
</event>
<event>
 7    1  0.5764931E-013  0.5052885E+02  0.7816164E-02  0.1300439E+00
        -11   -1    0    0    0    0  0.00000000000E+00  0.00000000000E+00  0.45593999997E+02  0.45594000000E+02  0.51100000000E-03 0.  1.
         11   -1    0    0    0    0 -0.00000000000E+00 -0.00000000000E+00 -0.45593999997E+02  0.45594000000E+02  0.51100000000E-03 0. -1.
    9900012    2    1    2    0    0 -0.29862627873E+02 -0.32905686897E+01  0.27396386193E+02  0.50528851433E+02  0.29999974416E+02 0.  0.
         12    1    1    2    0    0  0.29862627873E+02  0.32905686897E+01 -0.27396386193E+02  0.40659148567E+02  0.00000000000E+00 0. -1.
         11    1    3    3    0    0 -0.16674960321E+02 -0.14613319849E+02  0.21033257429E+02  0.30561435455E+02  0.51100000000E-03 0.  1.
        -11    1    3    3    0    0 -0.43064068594E+01  0.67916398443E+01 -0.17636712573E+00  0.80437937217E+01  0.51100000000E-03 0. -1.
        -12    1    3    3    0    0 -0.88812606922E+01  0.45311113146E+01  0.65394958891E+01  0.11923622256E+02  0.00000000000E+00 0.  1.
</event>
<event>
 7    1  0.5764931E-013  0.5052886E+02  0.7816164E-02  0.1300439E+00
        -11   -1    0    0    0    0  0.00000000000E+00  0.00000000000E+00  0.45593999997E+02  0.45594000000E+02  0.51100000000E-03 0. -1.
         11   -1    0    0    0    0 -0.00000000000E+00 -0.00000000000E+00 -0.45593999997E+02  0.45594000000E+02  0.51100000000E-03 0.  1.
    9900012    2    1    2    0    0 -0.66298835082E+01 -0.29711404056E+01 -0.40004780767E+02  0.50528861853E+02  0.30000006088E+02 0.  0.
         12    1    1    2    0    0  0.66298835082E+01  0.29711404056E+01  0.40004780767E+02  0.40659138147E+02  0.00000000000E+00 0. -1.
         11    1    3    3    0    0 -0.62754441617E+01  0.20866154818E+01  0.37623475030E+00  0.66239502145E+01  0.51100000000E-03 0. -1.
        -11    1    3    3    0    0 -0.51831555746E+01 -0.75413744229E+01 -0.35305647878E+02  0.36472266207E+02  0.51100000000E-03 0.  1.
        -12    1    3    3    0    0  0.48287162282E+01  0.24836185354E+01 -0.50753676389E+01  0.74326454316E+01  0.00000000000E+00 0.  1.
</event>
<event>
 7    1  0.5764931E-013  0.5052886E+02  0.7816164E-02  0.1300439E+00
        -11   -1    0    0    0    0  0.00000000000E+00  0.00000000000E+00  0.45593999997E+02  0.45594000000E+02  0.51100000000E-03 0.  1.
         11   -1    0    0    0    0 -0.00000000000E+00 -0.00000000000E+00 -0.45593999997E+02  0.45594000000E+02  0.51100000000E-03 0. -1.
    9900012    2    1    2    0    0 -0.14859052623E+02 -0.33288944652E+02  0.18006113689E+02  0.50528863130E+02  0.30000009969E+02 0.  0.
         12    1    1    2    0    0  0.14859052623E+02  0.33288944652E+02 -0.18006113689E+02  0.40659136870E+02  0.00000000000E+00 0. -1.
         11    1    3    3    0    0  0.53522778726E+01 -0.90798272763E+01  0.13874795826E+01  0.10630862695E+02  0.51100000000E-03 0. -1.
        -11    1    3    3    0    0 -0.29956167921E+01  0.53480431557E+00  0.79805902721E+01  0.85410512803E+01  0.51100000000E-03 0.  1.
        -12    1    3    3    0    0 -0.17215713703E+02 -0.24743921691E+02  0.86380438346E+01  0.31356949154E+02  0.00000000000E+00 0.  1.
</event>
<event>
 7    1  0.5764931E-013  0.5052886E+02  0.7816164E-02  0.1300439E+00
        -11   -1    0    0    0    0  0.00000000000E+00  0.00000000000E+00  0.45593999997E+02  0.45594000000E+02  0.51100000000E-03 0.  1.
         11   -1    0    0    0    0 -0.00000000000E+00 -0.00000000000E+00 -0.45593999997E+02  0.45594000000E+02  0.51100000000E-03 0. -1.
    9900012    2    1    2    0    0  0.12099219284E+02 -0.32685839719E+02  0.20938246286E+02  0.50528863475E+02  0.30000011017E+02 0.  0.
         12    1    1    2    0    0 -0.12099219284E+02  0.32685839719E+02 -0.20938246286E+02  0.40659136525E+02  0.00000000000E+00 0. -1.
         11    1    3    3    0    0 -0.17223952378E+01  0.59840230172E-01 -0.55594820404E+01  0.58204868377E+01  0.51100000000E-03 0. -1.
        -11    1    3    3    0    0  0.93826650911E+01 -0.27387160900E+02  0.19987470449E+02  0.35179396834E+02  0.51100000000E-03 0.  1.
         12    1    3    3    0    0  0.44389494306E+01 -0.53585190494E+01  0.65102578783E+01  0.95289798034E+01  0.00000000000E+00 0. -1.
</event>
<event>
 7    1  0.5764931E-013  0.5052887E+02  0.7816164E-02  0.1300439E+00
        -11   -1    0    0    0    0  0.00000000000E+00  0.00000000000E+00  0.45593999997E+02  0.45594000000E+02  0.51100000000E-03 0.  1.
         11   -1    0    0    0    0 -0.00000000000E+00 -0.00000000000E+00 -0.45593999997E+02  0.45594000000E+02  0.51100000000E-03 0. -1.
    9900012    2    1    2    0    0 -0.34801891660E+02 -0.43530488811E+01  0.20568039824E+02  0.50528868677E+02  0.30000026832E+02 0.  0.
         12    1    1    2    0    0  0.34801891660E+02  0.43530488811E+01 -0.20568039824E+02  0.40659131323E+02  0.00000000000E+00 0. -1.
         11    1    3    3    0    0  0.25337140656E+01 -0.48417285758E+01 -0.19385057454E+01  0.57982624427E+01  0.51100000000E-03 0. -1.
        -11    1    3    3    0    0 -0.97446449759E+01  0.19603208658E+01  0.10928373904E+02  0.14772620622E+02  0.51100000000E-03 0.  1.
         12    1    3    3    0    0 -0.27590960750E+02 -0.14716411711E+01  0.11578171666E+02  0.29957985613E+02  0.00000000000E+00 0. -1.
</event>
<event>
 7    1  0.5764931E-013  0.5052886E+02  0.7816164E-02  0.1300439E+00
        -11   -1    0    0    0    0  0.00000000000E+00  0.00000000000E+00  0.45593999997E+02  0.45594000000E+02  0.51100000000E-03 0. -1.
         11   -1    0    0    0    0 -0.00000000000E+00 -0.00000000000E+00 -0.45593999997E+02  0.45594000000E+02  0.51100000000E-03 0.  1.
    9900012    2    1    2    0    0  0.28753372294E+02 -0.53631110978E+01 -0.28242639021E+02  0.50528855422E+02  0.29999986542E+02 0.  0.
         12    1    1    2    0    0 -0.28753372294E+02  0.53631110978E+01  0.28242639021E+02  0.40659144578E+02  0.00000000000E+00 0. -1.
         11    1    3    3    0    0  0.12997886402E+02 -0.10734514327E+02 -0.17725010218E+01  0.16950416186E+02  0.51100000000E-03 0. -1.
        -11    1    3    3    0    0  0.21799634114E+01 -0.18647717293E+01  0.10632167481E+00  0.28707000256E+01  0.51100000000E-03 0.  1.
         12    1    3    3    0    0  0.13575522481E+02  0.72361749579E+01 -0.26576459674E+02  0.30707739211E+02  0.00000000000E+00 0. -1.
</event>
<event>
 7    1  0.5764931E-013  0.5052885E+02  0.7816164E-02  0.1300439E+00
        -11   -1    0    0    0    0  0.00000000000E+00  0.00000000000E+00  0.45593999997E+02  0.45594000000E+02  0.51100000000E-03 0.  1.
         11   -1    0    0    0    0 -0.00000000000E+00 -0.00000000000E+00 -0.45593999997E+02  0.45594000000E+02  0.51100000000E-03 0. -1.
    9900012    2    1    2    0    0  0.34426491002E+02  0.18962707611E+02  0.10411483197E+02  0.50528849185E+02  0.29999967582E+02 0.  0.
         12    1    1    2    0    0 -0.34426491002E+02 -0.18962707611E+02 -0.10411483197E+02  0.40659150815E+02  0.00000000000E+00 0. -1.
         11    1    3    3    0    0  0.12304318017E+02  0.14850419469E+02 -0.17270168977E+01  0.19362690616E+02  0.51100000000E-03 0. -1.
        -11    1    3    3    0    0  0.15478121041E+02 -0.55718882906E+01  0.41604945620E+01  0.16968437917E+02  0.51100000000E-03 0.  1.
         12    1    3    3    0    0  0.66440519436E+01  0.96841764333E+01  0.79780055323E+01  0.14197720651E+02  0.00000000000E+00 0. -1.
</event>
<event>
 7    1  0.5764931E-013  0.5052885E+02  0.7816164E-02  0.1300439E+00
        -11   -1    0    0    0    0  0.00000000000E+00  0.00000000000E+00  0.45593999997E+02  0.45594000000E+02  0.51100000000E-03 0.  1.
         11   -1    0    0    0    0 -0.00000000000E+00 -0.00000000000E+00 -0.45593999997E+02  0.45594000000E+02  0.51100000000E-03 0. -1.
    9900012    2    1    2    0    0 -0.14554606047E+02 -0.33728587810E+02  0.17427339335E+02  0.50528851594E+02  0.29999974905E+02 0.  0.
         12    1    1    2    0    0  0.14554606047E+02  0.33728587810E+02 -0.17427339335E+02  0.40659148406E+02  0.00000000000E+00 0. -1.
         11    1    3    3    0    0 -0.66642864875E+01 -0.18993352108E+02  0.75354791284E+01  0.21492872880E+02  0.51100000000E-03 0. -1.
        -11    1    3    3    0    0 -0.54974665132E+01  0.44392431094E+01 -0.52188981829E+00  0.70852936912E+01  0.51100000000E-03 0.  1.
        -12    1    3    3    0    0 -0.23928530466E+01 -0.19174478812E+02  0.10413750025E+02  0.21950685023E+02  0.00000000000E+00 0.  1.
</event>
<event>
 7    1  0.5764931E-013  0.5052886E+02  0.7816164E-02  0.1300439E+00
        -11   -1    0    0    0    0  0.00000000000E+00  0.00000000000E+00  0.45593999997E+02  0.45594000000E+02  0.51100000000E-03 0.  1.
         11   -1    0    0    0    0 -0.00000000000E+00 -0.00000000000E+00 -0.45593999997E+02  0.45594000000E+02  0.51100000000E-03 0. -1.
    9900012    2    1    2    0    0  0.31373366678E+02  0.55893126755E+01  0.25251469541E+02  0.50528864903E+02  0.30000015358E+02 0.  0.
         12    1    1    2    0    0 -0.31373366678E+02 -0.55893126755E+01 -0.25251469541E+02  0.40659135097E+02  0.00000000000E+00 0. -1.
         11    1    3    3    0    0 -0.38659293101E+01  0.16693849840E+01  0.12541973644E+00  0.42128358652E+01  0.51100000000E-03 0. -1.
        -11    1    3    3    0    0  0.17369682614E+02  0.58183363121E+01  0.21021588848E+02  0.27883079268E+02  0.51100000000E-03 0.  1.
         12    1    3    3    0    0  0.17869613374E+02 -0.18984086205E+01  0.41044609569E+01  0.18432949769E+02  0.00000000000E+00 0. -1.
</event>
<event>
 7    1  0.5764931E-013  0.5052886E+02  0.7816164E-02  0.1300439E+00
        -11   -1    0    0    0    0  0.00000000000E+00  0.00000000000E+00  0.45593999997E+02  0.45594000000E+02  0.51100000000E-03 0. -1.
         11   -1    0    0    0    0 -0.00000000000E+00 -0.00000000000E+00 -0.45593999997E+02  0.45594000000E+02  0.51100000000E-03 0.  1.
    9900012    2    1    2    0    0 -0.20909523362E+02 -0.28341722072E+02 -0.20315119163E+02  0.50528862726E+02  0.30000008743E+02 0.  0.
         12    1    1    2    0    0  0.20909523362E+02  0.28341722072E+02  0.20315119163E+02  0.40659137274E+02  0.00000000000E+00 0. -1.
         11    1    3    3    0    0  0.13429132466E+01 -0.23142092734E+01  0.23466132858E+00  0.26858977548E+01  0.51100000000E-03 0. -1.
        -11    1    3    3    0    0 -0.17326908203E+02 -0.25272089164E+02 -0.44171021082E+01  0.30958214255E+02  0.51100000000E-03 0.  1.
        -12    1    3    3    0    0 -0.49255284056E+01 -0.75542363510E+00 -0.16132678383E+02  0.16884750716E+02  0.00000000000E+00 0.  1.
</event>
<event>
 7    1  0.5764931E-013  0.5052886E+02  0.7816164E-02  0.1300439E+00
        -11   -1    0    0    0    0  0.00000000000E+00  0.00000000000E+00  0.45593999997E+02  0.45594000000E+02  0.51100000000E-03 0.  1.
         11   -1    0    0    0    0 -0.00000000000E+00 -0.00000000000E+00 -0.45593999997E+02  0.45594000000E+02  0.51100000000E-03 0. -1.
    9900012    2    1    2    0    0 -0.33779679941E+02  0.13533761304E+02  0.18136590087E+02  0.50528863611E+02  0.30000011431E+02 0.  0.
         12    1    1    2    0    0  0.33779679941E+02 -0.13533761304E+02 -0.18136590087E+02  0.40659136389E+02  0.00000000000E+00 0. -1.
         11    1    3    3    0    0 -0.10847467846E+02 -0.25059173293E+00 -0.21885260519E+01  0.11068875346E+02  0.51100000000E-03 0. -1.
        -11    1    3    3    0    0 -0.11392986865E+02  0.14037193908E+02  0.21227483697E+02  0.27882772941E+02  0.51100000000E-03 0.  1.
        -12    1    3    3    0    0 -0.11539225230E+02 -0.25284087155E+00 -0.90236755870E+00  0.11577215323E+02  0.00000000000E+00 0.  1.
</event>
<event>
 7    1  0.5764931E-013  0.5052885E+02  0.7816164E-02  0.1300439E+00
        -11   -1    0    0    0    0  0.00000000000E+00  0.00000000000E+00  0.45593999997E+02  0.45594000000E+02  0.51100000000E-03 0.  1.
         11   -1    0    0    0    0 -0.00000000000E+00 -0.00000000000E+00 -0.45593999997E+02  0.45594000000E+02  0.51100000000E-03 0. -1.
    9900012    2    1    2    0    0  0.32387742617E+02  0.16751725024E+02  0.17988333003E+02  0.50528852353E+02  0.29999977213E+02 0.  0.
         12    1    1    2    0    0 -0.32387742617E+02 -0.16751725024E+02 -0.17988333003E+02  0.40659147647E+02  0.00000000000E+00 0. -1.
         11    1    3    3    0    0  0.12658978236E+02  0.19723197439E+02  0.18503518432E+02  0.29860248522E+02  0.51100000000E-03 0. -1.
        -11    1    3    3    0    0  0.15990847811E+02 -0.88262908196E+00  0.11905823389E+01  0.16059381507E+02  0.51100000000E-03 0.  1.
         12    1    3    3    0    0  0.37379165702E+01 -0.20888433332E+01 -0.17057677678E+01  0.46092223242E+01  0.00000000000E+00 0. -1.
</event>
<event>
 7    1  0.5764931E-013  0.5052883E+02  0.7816164E-02  0.1300439E+00
        -11   -1    0    0    0    0  0.00000000000E+00  0.00000000000E+00  0.45593999997E+02  0.45594000000E+02  0.51100000000E-03 0.  1.
         11   -1    0    0    0    0 -0.00000000000E+00 -0.00000000000E+00 -0.45593999997E+02  0.45594000000E+02  0.51100000000E-03 0. -1.
    9900012    2    1    2    0    0 -0.10112963239E+02  0.86322542621E+01  0.38423690418E+02  0.50528833451E+02  0.29999919757E+02 0.  0.
         12    1    1    2    0    0  0.10112963239E+02 -0.86322542621E+01 -0.38423690418E+02  0.40659166549E+02  0.00000000000E+00 0. -1.
         11    1    3    3    0    0  0.24698309287E+01 -0.85364298919E+01  0.64019783429E+01  0.10952443886E+02  0.51100000000E-03 0. -1.
        -11    1    3    3    0    0 -0.49484408557E+01  0.14244365314E+02  0.20481933094E+02  0.25434201258E+02  0.51100000000E-03 0.  1.
        -12    1    3    3    0    0 -0.76343533117E+01  0.29243188401E+01  0.11539778982E+02  0.14142188307E+02  0.00000000000E+00 0.  1.
</event>
<event>
 7    1  0.5764931E-013  0.5052887E+02  0.7816164E-02  0.1300439E+00
        -11   -1    0    0    0    0  0.00000000000E+00  0.00000000000E+00  0.45593999997E+02  0.45594000000E+02  0.51100000000E-03 0. -1.
         11   -1    0    0    0    0 -0.00000000000E+00 -0.00000000000E+00 -0.45593999997E+02  0.45594000000E+02  0.51100000000E-03 0.  1.
    9900012    2    1    2    0    0 -0.39927747180E+02  0.72764045762E+01 -0.24482737904E+01  0.50528866918E+02  0.30000021483E+02 0.  0.
         12    1    1    2    0    0  0.39927747180E+02 -0.72764045762E+01  0.24482737904E+01  0.40659133082E+02  0.00000000000E+00 0. -1.
         11    1    3    3    0    0 -0.24754560491E+01 -0.76539605311E+01 -0.30292593122E+00  0.80500160772E+01  0.51100000000E-03 0. -1.
        -11    1    3    3    0    0 -0.21450857962E+02  0.91439485521E+01 -0.77363245093E+01  0.24568309254E+02  0.51100000000E-03 0.  1.
        -12    1    3    3    0    0 -0.16001433169E+02  0.57864165551E+01  0.55909766501E+01  0.17910541587E+02  0.00000000000E+00 0.  1.
</event>
<event>
 7    1  0.5764931E-013  0.5052884E+02  0.7816164E-02  0.1300439E+00
        -11   -1    0    0    0    0  0.00000000000E+00  0.00000000000E+00  0.45593999997E+02  0.45594000000E+02  0.51100000000E-03 0.  1.
         11   -1    0    0    0    0 -0.00000000000E+00 -0.00000000000E+00 -0.45593999997E+02  0.45594000000E+02  0.51100000000E-03 0. -1.
    9900012    2    1    2    0    0  0.52868702508E+01  0.21548935510E+02  0.34071396598E+02  0.50528835168E+02  0.29999924977E+02 0.  0.
         12    1    1    2    0    0 -0.52868702508E+01 -0.21548935510E+02 -0.34071396598E+02  0.40659164832E+02  0.00000000000E+00 0. -1.
         11    1    3    3    0    0  0.86115655320E+01  0.64908388220E+01  0.10231633612E+02  0.14865274170E+02  0.51100000000E-03 0. -1.
        -11    1    3    3    0    0 -0.32737088901E+01 -0.15352448330E+01  0.17549121881E+02  0.17917751691E+02  0.51100000000E-03 0.  1.
        -12    1    3    3    0    0 -0.50986391131E-01  0.16593341521E+02  0.62906411055E+01  0.17745809307E+02  0.00000000000E+00 0.  1.
</event>
<event>
 7    1  0.5764931E-013  0.5052886E+02  0.7816164E-02  0.1300439E+00
        -11   -1    0    0    0    0  0.00000000000E+00  0.00000000000E+00  0.45593999997E+02  0.45594000000E+02  0.51100000000E-03 0.  1.
         11   -1    0    0    0    0 -0.00000000000E+00 -0.00000000000E+00 -0.45593999997E+02  0.45594000000E+02  0.51100000000E-03 0. -1.
    9900012    2    1    2    0    0  0.40129274724E+02 -0.52984759195E+01  0.38383924479E+01  0.50528858426E+02  0.29999995671E+02 0.  0.
         12    1    1    2    0    0 -0.40129274724E+02  0.52984759195E+01 -0.38383924479E+01  0.40659141574E+02  0.00000000000E+00 0. -1.
         11    1    3    3    0    0  0.56612689711E+01  0.60733405934E+01 -0.10578358939E+01  0.83698536048E+01  0.51100000000E-03 0. -1.
        -11    1    3    3    0    0  0.31097877905E+02 -0.10803840681E+02  0.11377607622E+02  0.34831751882E+02  0.51100000000E-03 0.  1.
        -12    1    3    3    0    0  0.33701278478E+01 -0.56797583236E+00 -0.64813792805E+01  0.73272529392E+01  0.00000000000E+00 0.  1.
</event>
<event>
 7    1  0.5764931E-013  0.5052886E+02  0.7816164E-02  0.1300439E+00
        -11   -1    0    0    0    0  0.00000000000E+00  0.00000000000E+00  0.45593999997E+02  0.45594000000E+02  0.51100000000E-03 0.  1.
         11   -1    0    0    0    0 -0.00000000000E+00 -0.00000000000E+00 -0.45593999997E+02  0.45594000000E+02  0.51100000000E-03 0. -1.
    9900012    2    1    2    0    0  0.11054081306E+02  0.98020972830E-01  0.39127525160E+02  0.50528861460E+02  0.30000004895E+02 0.  0.
         12    1    1    2    0    0 -0.11054081306E+02 -0.98020972830E-01 -0.39127525160E+02  0.40659138540E+02  0.00000000000E+00 0. -1.
         11    1    3    3    0    0  0.46936811449E+01  0.74645380584E+01 -0.10505145807E-01  0.88176006790E+01  0.51100000000E-03 0. -1.
        -11    1    3    3    0    0  0.79077009892E+01 -0.40011655460E+01  0.35226745599E+02  0.36324436216E+02  0.51100000000E-03 0.  1.
         12    1    3    3    0    0 -0.15473008285E+01 -0.33653515395E+01  0.39112847071E+01  0.53868245654E+01  0.00000000000E+00 0. -1.
</event>
<event>
 7    1  0.5764931E-013  0.5052886E+02  0.7816164E-02  0.1300439E+00
        -11   -1    0    0    0    0  0.00000000000E+00  0.00000000000E+00  0.45593999997E+02  0.45594000000E+02  0.51100000000E-03 0.  1.
         11   -1    0    0    0    0 -0.00000000000E+00 -0.00000000000E+00 -0.45593999997E+02  0.45594000000E+02  0.51100000000E-03 0. -1.
    9900012    2    1    2    0    0 -0.22313202963E+02 -0.28013158878E+02  0.19249671063E+02  0.50528856713E+02  0.29999990464E+02 0.  0.
         12    1    1    2    0    0  0.22313202963E+02  0.28013158878E+02 -0.19249671063E+02  0.40659143287E+02  0.00000000000E+00 0. -1.
         11    1    3    3    0    0  0.39206391949E+01  0.24203968237E+01  0.56617664254E+01  0.72996802531E+01  0.51100000000E-03 0. -1.
        -11    1    3    3    0    0 -0.23255864851E+02 -0.22003876788E+02  0.11737293898E+02  0.34099412194E+02  0.51100000000E-03 0.  1.
        -12    1    3    3    0    0 -0.29779773072E+01 -0.84296789136E+01  0.18506107395E+01  0.91297642652E+01  0.00000000000E+00 0.  1.
</event>
<event>
 7    1  0.5764931E-013  0.5052886E+02  0.7816164E-02  0.1300439E+00
        -11   -1    0    0    0    0  0.00000000000E+00  0.00000000000E+00  0.45593999997E+02  0.45594000000E+02  0.51100000000E-03 0.  1.
         11   -1    0    0    0    0 -0.00000000000E+00 -0.00000000000E+00 -0.45593999997E+02  0.45594000000E+02  0.51100000000E-03 0. -1.
    9900012    2    1    2    0    0  0.26099105792E+02  0.20613891058E+02  0.23389529989E+02  0.50528856615E+02  0.29999990167E+02 0.  0.
         12    1    1    2    0    0 -0.26099105792E+02 -0.20613891058E+02 -0.23389529989E+02  0.40659143385E+02  0.00000000000E+00 0. -1.
         11    1    3    3    0    0  0.13802702382E+02 -0.58853906210E+01  0.10795518078E+02  0.18485010864E+02  0.51100000000E-03 0. -1.
        -11    1    3    3    0    0  0.52013613680E+01  0.12735985166E+02  0.78974215256E+01  0.15862810131E+02  0.51100000000E-03 0.  1.
         12    1    3    3    0    0  0.70950420412E+01  0.13763296513E+02  0.46965903854E+01  0.16181035620E+02  0.00000000000E+00 0. -1.
</event>
<event>
 7    1  0.5764931E-013  0.5052886E+02  0.7816164E-02  0.1300439E+00
        -11   -1    0    0    0    0  0.00000000000E+00  0.00000000000E+00  0.45593999997E+02  0.45594000000E+02  0.51100000000E-03 0.  1.
         11   -1    0    0    0    0 -0.00000000000E+00 -0.00000000000E+00 -0.45593999997E+02  0.45594000000E+02  0.51100000000E-03 0. -1.
    9900012    2    1    2    0    0  0.15714136578E+02  0.27634801963E+02  0.25348560141E+02  0.50528857496E+02  0.29999992845E+02 0.  0.
         12    1    1    2    0    0 -0.15714136578E+02 -0.27634801963E+02 -0.25348560141E+02  0.40659142504E+02  0.00000000000E+00 0. -1.
         11    1    3    3    0    0  0.13771338595E+02  0.84486467900E+00  0.16322369266E+01  0.13893443082E+02  0.51100000000E-03 0. -1.
        -11    1    3    3    0    0  0.32533931662E+01  0.22405656440E+02  0.22457480922E+02  0.31889441156E+02  0.51100000000E-03 0.  1.
         12    1    3    3    0    0 -0.13105951825E+01  0.43842808445E+01  0.12588422921E+01  0.47459732587E+01  0.00000000000E+00 0. -1.
</event>
<event>
 7    1  0.5764931E-013  0.5052886E+02  0.7816164E-02  0.1300439E+00
        -11   -1    0    0    0    0  0.00000000000E+00  0.00000000000E+00  0.45593999997E+02  0.45594000000E+02  0.51100000000E-03 0.  1.
         11   -1    0    0    0    0 -0.00000000000E+00 -0.00000000000E+00 -0.45593999997E+02  0.45594000000E+02  0.51100000000E-03 0. -1.
    9900012    2    1    2    0    0  0.22388665229E+02  0.32518227157E+02  0.97200014115E+01  0.50528857663E+02  0.29999993352E+02 0.  0.
         12    1    1    2    0    0 -0.22388665229E+02 -0.32518227157E+02 -0.97200014115E+01  0.40659142337E+02  0.00000000000E+00 0. -1.
         11    1    3    3    0    0  0.31419219016E+01 -0.23660282098E+01 -0.64853267383E+00  0.39862711417E+01  0.51100000000E-03 0. -1.
        -11    1    3    3    0    0  0.14513070407E+02  0.33894053155E+02  0.20587306707E+01  0.36927962632E+02  0.51100000000E-03 0.  1.
        -12    1    3    3    0    0  0.47336729205E+01  0.99020221142E+00  0.83098034146E+01  0.96146238890E+01  0.00000000000E+00 0.  1.
</event>
<event>
 7    1  0.5764931E-013  0.5052884E+02  0.7816164E-02  0.1300439E+00
        -11   -1    0    0    0    0  0.00000000000E+00  0.00000000000E+00  0.45593999997E+02  0.45594000000E+02  0.51100000000E-03 0.  1.
         11   -1    0    0    0    0 -0.00000000000E+00 -0.00000000000E+00 -0.45593999997E+02  0.45594000000E+02  0.51100000000E-03 0. -1.
    9900012    2    1    2    0    0 -0.51461614658E+01  0.61460993407E+01  0.39861128621E+02  0.50528842484E+02  0.29999947216E+02 0.  0.
         12    1    1    2    0    0  0.51461614658E+01 -0.61460993407E+01 -0.39861128621E+02  0.40659157516E+02  0.00000000000E+00 0. -1.
         11    1    3    3    0    0 -0.44874792427E+01 -0.67123030116E+01  0.11249839521E+01  0.81521819672E+01  0.51100000000E-03 0. -1.
        -11    1    3    3    0    0  0.34178430060E+01  0.71259075661E+01  0.30680802464E+02  0.31682358649E+02  0.51100000000E-03 0.  1.
        -12    1    3    3    0    0 -0.40765252290E+01  0.57324947862E+01  0.80553422050E+01  0.10694301869E+02  0.00000000000E+00 0.  1.
</event>
<event>
 7    1  0.5764931E-013  0.5052886E+02  0.7816164E-02  0.1300439E+00
        -11   -1    0    0    0    0  0.00000000000E+00  0.00000000000E+00  0.45593999997E+02  0.45594000000E+02  0.51100000000E-03 0.  1.
         11   -1    0    0    0    0 -0.00000000000E+00 -0.00000000000E+00 -0.45593999997E+02  0.45594000000E+02  0.51100000000E-03 0. -1.
    9900012    2    1    2    0    0 -0.13329399797E+02  0.18526026868E+01  0.38367442588E+02  0.50528859743E+02  0.29999999675E+02 0.  0.
         12    1    1    2    0    0  0.13329399797E+02 -0.18526026868E+01 -0.38367442588E+02  0.40659140257E+02  0.00000000000E+00 0. -1.
         11    1    3    3    0    0 -0.17384446865E+02 -0.27096400957E+01  0.11793030976E+02  0.21181046294E+02  0.51100000000E-03 0. -1.
        -11    1    3    3    0    0  0.61327780419E+01  0.46512445540E+01  0.98799237478E+01  0.12524293830E+02  0.51100000000E-03 0.  1.
         12    1    3    3    0    0 -0.20777309734E+01 -0.89001771600E-01  0.16694487864E+02  0.16823519619E+02  0.00000000000E+00 0. -1.
</event>
<event>
 7    1  0.5764931E-013  0.5052888E+02  0.7816164E-02  0.1300439E+00
        -11   -1    0    0    0    0  0.00000000000E+00  0.00000000000E+00  0.45593999997E+02  0.45594000000E+02  0.51100000000E-03 0. -1.
         11   -1    0    0    0    0 -0.00000000000E+00 -0.00000000000E+00 -0.45593999997E+02  0.45594000000E+02  0.51100000000E-03 0.  1.
    9900012    2    1    2    0    0 -0.25690277934E+02  0.13871061257E+02 -0.28297826960E+02  0.50528883785E+02  0.30000072753E+02 0.  0.
         12    1    1    2    0    0  0.25690277934E+02 -0.13871061257E+02  0.28297826960E+02  0.40659116215E+02  0.00000000000E+00 0. -1.
         11    1    3    3    0    0  0.31060539723E+01  0.53269578401E+00 -0.23251320699E+01  0.39163216774E+01  0.51100000000E-03 0. -1.
        -11    1    3    3    0    0 -0.28694134272E+02  0.17520074841E+02 -0.19382852184E+02  0.38807232871E+02  0.51100000000E-03 0.  1.
        -12    1    3    3    0    0 -0.10219763458E+00 -0.41817093682E+01 -0.65898427063E+01  0.78053292365E+01  0.00000000000E+00 0.  1.
</event>
<event>
 7    1  0.5764931E-013  0.5052886E+02  0.7816164E-02  0.1300439E+00
        -11   -1    0    0    0    0  0.00000000000E+00  0.00000000000E+00  0.45593999997E+02  0.45594000000E+02  0.51100000000E-03 0.  1.
         11   -1    0    0    0    0 -0.00000000000E+00 -0.00000000000E+00 -0.45593999997E+02  0.45594000000E+02  0.51100000000E-03 0. -1.
    9900012    2    1    2    0    0 -0.38588290549E+02 -0.43810412696E+01  0.12038094897E+02  0.50528863034E+02  0.30000009678E+02 0.  0.
         12    1    1    2    0    0  0.38588290549E+02  0.43810412696E+01 -0.12038094897E+02  0.40659136966E+02  0.00000000000E+00 0. -1.
         11    1    3    3    0    0 -0.27412903888E+02  0.68829356150E+01  0.12243715780E+02  0.30801796679E+02  0.51100000000E-03 0. -1.
        -11    1    3    3    0    0 -0.20760921249E+01  0.47698507989E+00 -0.38789828428E+01  0.44254018386E+01  0.51100000000E-03 0.  1.
         12    1    3    3    0    0 -0.90992945357E+01 -0.11740961965E+02  0.36733619592E+01  0.15301664517E+02  0.00000000000E+00 0. -1.
</event>
<event>
 7    1  0.5764931E-013  0.5052886E+02  0.7816164E-02  0.1300439E+00
        -11   -1    0    0    0    0  0.00000000000E+00  0.00000000000E+00  0.45593999997E+02  0.45594000000E+02  0.51100000000E-03 0. -1.
         11   -1    0    0    0    0 -0.00000000000E+00 -0.00000000000E+00 -0.45593999997E+02  0.45594000000E+02  0.51100000000E-03 0.  1.
    9900012    2    1    2    0    0  0.24994903668E+02 -0.55341456931E+01 -0.31587875128E+02  0.50528857941E+02  0.29999994197E+02 0.  0.
         12    1    1    2    0    0 -0.24994903668E+02  0.55341456931E+01  0.31587875128E+02  0.40659142059E+02  0.00000000000E+00 0. -1.
         11    1    3    3    0    0  0.18592248045E+02  0.10772013999E+02 -0.13699011537E+02  0.25482756725E+02  0.51100000000E-03 0. -1.
        -11    1    3    3    0    0  0.39245450396E+01 -0.93146432629E+01 -0.10036326758E+02  0.14244033415E+02  0.51100000000E-03 0.  1.
         12    1    3    3    0    0  0.24781105827E+01 -0.69915164294E+01 -0.78525368332E+01  0.10802067800E+02  0.00000000000E+00 0. -1.
</event>
<event>
 7    1  0.5764931E-013  0.5052886E+02  0.7816164E-02  0.1300439E+00
        -11   -1    0    0    0    0  0.00000000000E+00  0.00000000000E+00  0.45593999997E+02  0.45594000000E+02  0.51100000000E-03 0.  1.
         11   -1    0    0    0    0 -0.00000000000E+00 -0.00000000000E+00 -0.45593999997E+02  0.45594000000E+02  0.51100000000E-03 0. -1.
    9900012    2    1    2    0    0  0.82017968986E+01 -0.32800923065E+02  0.22583080566E+02  0.50528861370E+02  0.30000004620E+02 0.  0.
         12    1    1    2    0    0 -0.82017968986E+01  0.32800923065E+02 -0.22583080566E+02  0.40659138630E+02  0.00000000000E+00 0. -1.
         11    1    3    3    0    0 -0.72719516005E+01 -0.44384935503E+01 -0.16141599801E+01  0.86710447917E+01  0.51100000000E-03 0. -1.
        -11    1    3    3    0    0  0.70188101888E+01 -0.16667905697E+02  0.19699493014E+02  0.26742340998E+02  0.51100000000E-03 0.  1.
         12    1    3    3    0    0  0.84549383104E+01 -0.11694523818E+02  0.44977475319E+01  0.15115475580E+02  0.00000000000E+00 0. -1.
</event>
<event>
 7    1  0.5764931E-013  0.5052886E+02  0.7816164E-02  0.1300439E+00
        -11   -1    0    0    0    0  0.00000000000E+00  0.00000000000E+00  0.45593999997E+02  0.45594000000E+02  0.51100000000E-03 0.  1.
         11   -1    0    0    0    0 -0.00000000000E+00 -0.00000000000E+00 -0.45593999997E+02  0.45594000000E+02  0.51100000000E-03 0. -1.
    9900012    2    1    2    0    0  0.78301116601E+01  0.29223180201E+02  0.27163589235E+02  0.50528862162E+02  0.30000007027E+02 0.  0.
         12    1    1    2    0    0 -0.78301116601E+01 -0.29223180201E+02 -0.27163589235E+02  0.40659137838E+02  0.00000000000E+00 0. -1.
         11    1    3    3    0    0  0.65886778331E+01  0.16349315396E+01  0.19234563415E+02  0.20397355386E+02  0.51100000000E-03 0. -1.
        -11    1    3    3    0    0 -0.26633086501E+01  0.11625091279E+02  0.66329618823E+01  0.13646689848E+02  0.51100000000E-03 0.  1.
         12    1    3    3    0    0  0.39047424771E+01  0.15963157382E+02  0.12960639377E+01  0.16484816928E+02  0.00000000000E+00 0. -1.
</event>
<event>
 7    1  0.5764931E-013  0.5052888E+02  0.7816164E-02  0.1300439E+00
        -11   -1    0    0    0    0  0.00000000000E+00  0.00000000000E+00  0.45593999997E+02  0.45594000000E+02  0.51100000000E-03 0.  1.
         11   -1    0    0    0    0 -0.00000000000E+00 -0.00000000000E+00 -0.45593999997E+02  0.45594000000E+02  0.51100000000E-03 0. -1.
    9900012    2    1    2    0    0  0.10996900329E+02 -0.29095426051E+02  0.26185654296E+02  0.50528878947E+02  0.30000058046E+02 0.  0.
         12    1    1    2    0    0 -0.10996900329E+02  0.29095426051E+02 -0.26185654296E+02  0.40659121053E+02  0.00000000000E+00 0. -1.
         11    1    3    3    0    0  0.24448704674E+01 -0.20539957457E+02 -0.39217324773E+00  0.20688669461E+02  0.51100000000E-03 0. -1.
        -11    1    3    3    0    0  0.25016453863E+01 -0.55218508412E+01  0.77926591814E+01  0.98729227551E+01  0.51100000000E-03 0.  1.
         12    1    3    3    0    0  0.60503844748E+01 -0.30336177524E+01  0.18785168363E+02  0.19967286730E+02  0.00000000000E+00 0. -1.
</event>
<event>
 7    1  0.5764931E-013  0.5052886E+02  0.7816164E-02  0.1300439E+00
        -11   -1    0    0    0    0  0.00000000000E+00  0.00000000000E+00  0.45593999997E+02  0.45594000000E+02  0.51100000000E-03 0.  1.
         11   -1    0    0    0    0 -0.00000000000E+00 -0.00000000000E+00 -0.45593999997E+02  0.45594000000E+02  0.51100000000E-03 0. -1.
    9900012    2    1    2    0    0  0.79509091876E+01 -0.37638793064E+02  0.13163206073E+02  0.50528859646E+02  0.29999999380E+02 0.  0.
         12    1    1    2    0    0 -0.79509091876E+01  0.37638793064E+02 -0.13163206073E+02  0.40659140354E+02  0.00000000000E+00 0. -1.
         11    1    3    3    0    0  0.26058556416E+01 -0.22753373902E+02  0.10837720539E+02  0.25336982739E+02  0.51100000000E-03 0.  1.
        -11    1    3    3    0    0  0.11072051255E+02 -0.34696583499E+01  0.40816189826E+01  0.12299937473E+02  0.51100000000E-03 0. -1.
         12    1    3    3    0    0 -0.57269977094E+01 -0.11415760811E+02 -0.17561334491E+01  0.12891939434E+02  0.00000000000E+00 0. -1.
</event>
<event>
 7    1  0.5764931E-013  0.5052886E+02  0.7816164E-02  0.1300439E+00
        -11   -1    0    0    0    0  0.00000000000E+00  0.00000000000E+00  0.45593999997E+02  0.45594000000E+02  0.51100000000E-03 0.  1.
         11   -1    0    0    0    0 -0.00000000000E+00 -0.00000000000E+00 -0.45593999997E+02  0.45594000000E+02  0.51100000000E-03 0. -1.
    9900012    2    1    2    0    0 -0.24414469524E+02  0.11714737214E+02  0.30329262534E+02  0.50528861347E+02  0.30000004550E+02 0.  0.
         12    1    1    2    0    0  0.24414469524E+02 -0.11714737214E+02 -0.30329262534E+02  0.40659138653E+02  0.00000000000E+00 0. -1.
         11    1    3    3    0    0  0.43625909824E-02 -0.65173527231E+01  0.13295015129E+02  0.14806530083E+02  0.51100000000E-03 0. -1.
        -11    1    3    3    0    0 -0.14833753788E+02  0.11771125614E+02  0.14595023837E+02  0.23908458142E+02  0.51100000000E-03 0.  1.
         12    1    3    3    0    0 -0.95850783275E+01  0.64609643228E+01  0.24392235682E+01  0.11813873122E+02  0.00000000000E+00 0. -1.
</event>
<event>
 7    1  0.5764931E-013  0.5052885E+02  0.7816164E-02  0.1300439E+00
        -11   -1    0    0    0    0  0.00000000000E+00  0.00000000000E+00  0.45593999997E+02  0.45594000000E+02  0.51100000000E-03 0. -1.
         11   -1    0    0    0    0 -0.00000000000E+00 -0.00000000000E+00 -0.45593999997E+02  0.45594000000E+02  0.51100000000E-03 0.  1.
    9900012    2    1    2    0    0  0.16631356356E+02 -0.31539332902E+02 -0.19540589029E+02  0.50528853996E+02  0.29999982207E+02 0.  0.
         12    1    1    2    0    0 -0.16631356356E+02  0.31539332902E+02  0.19540589029E+02  0.40659146004E+02  0.00000000000E+00 0. -1.
         11    1    3    3    0    0  0.19653060146E+01  0.40073970704E+01  0.23200383945E+01  0.50303317409E+01  0.51100000000E-03 0. -1.
        -11    1    3    3    0    0  0.12213184416E+02 -0.17028823465E+02 -0.14174357025E+02  0.25299310258E+02  0.51100000000E-03 0.  1.
         12    1    3    3    0    0  0.24528659248E+01 -0.18517906508E+02 -0.76862703988E+01  0.20199211998E+02  0.00000000000E+00 0. -1.
</event>
<event>
 7    1  0.5764931E-013  0.5052886E+02  0.7816164E-02  0.1300439E+00
        -11   -1    0    0    0    0  0.00000000000E+00  0.00000000000E+00  0.45593999997E+02  0.45594000000E+02  0.51100000000E-03 0.  1.
         11   -1    0    0    0    0 -0.00000000000E+00 -0.00000000000E+00 -0.45593999997E+02  0.45594000000E+02  0.51100000000E-03 0. -1.
    9900012    2    1    2    0    0  0.16553261841E+02 -0.37101172212E+02 -0.16304603189E+01  0.50528857634E+02  0.29999993266E+02 0.  0.
         12    1    1    2    0    0 -0.16553261841E+02  0.37101172212E+02  0.16304603189E+01  0.40659142366E+02  0.00000000000E+00 0. -1.
         11    1    3    3    0    0 -0.58199476850E+01 -0.13823822491E+02 -0.12582269831E+01  0.15051677472E+02  0.51100000000E-03 0. -1.
        -11    1    3    3    0    0  0.10963488113E+02 -0.34628853438E+01  0.40479197798E+01  0.12189146866E+02  0.51100000000E-03 0.  1.
         12    1    3    3    0    0  0.11409721413E+02 -0.19814464377E+02 -0.44201531156E+01  0.23288033297E+02  0.00000000000E+00 0. -1.
</event>
<event>
 7    1  0.5764931E-013  0.5052889E+02  0.7816164E-02  0.1300439E+00
        -11   -1    0    0    0    0  0.00000000000E+00  0.00000000000E+00  0.45593999997E+02  0.45594000000E+02  0.51100000000E-03 0.  1.
         11   -1    0    0    0    0 -0.00000000000E+00 -0.00000000000E+00 -0.45593999997E+02  0.45594000000E+02  0.51100000000E-03 0. -1.
    9900012    2    1    2    0    0  0.10445738088E+02  0.31682620862E+02  0.23243516013E+02  0.50528893449E+02  0.30000102126E+02 0.  0.
         12    1    1    2    0    0 -0.10445738088E+02 -0.31682620862E+02 -0.23243516013E+02  0.40659106551E+02  0.00000000000E+00 0. -1.
         11    1    3    3    0    0 -0.74881391148E+01 -0.13682040907E+00  0.19450805410E+01  0.77378476206E+01  0.51100000000E-03 0. -1.
        -11    1    3    3    0    0  0.55844637852E+01  0.11193524343E+02  0.10924243138E+02  0.16607838853E+02  0.51100000000E-03 0.  1.
         12    1    3    3    0    0  0.12349413417E+02  0.20625916929E+02  0.10374192334E+02  0.26183206975E+02  0.00000000000E+00 0. -1.
</event>
<event>
 7    1  0.5764931E-013  0.5052887E+02  0.7816164E-02  0.1300439E+00
        -11   -1    0    0    0    0  0.00000000000E+00  0.00000000000E+00  0.45593999997E+02  0.45594000000E+02  0.51100000000E-03 0. -1.
         11   -1    0    0    0    0 -0.00000000000E+00 -0.00000000000E+00 -0.45593999997E+02  0.45594000000E+02  0.51100000000E-03 0.  1.
    9900012    2    1    2    0    0  0.39270446061E+02 -0.34092847969E+01  0.99686225938E+01  0.50528873189E+02  0.30000040545E+02 0.  0.
         12    1    1    2    0    0 -0.39270446061E+02  0.34092847969E+01 -0.99686225938E+01  0.40659126811E+02  0.00000000000E+00 0. -1.
         11    1    3    3    0    0  0.68217886234E+01 -0.99240119941E+01  0.77858532091E+01  0.14340234466E+02  0.51100000000E-03 0. -1.
        -11    1    3    3    0    0  0.20389539805E+02  0.98823599637E+01 -0.25548027637E+01  0.22801784784E+02  0.51100000000E-03 0.  1.
        -12    1    3    3    0    0  0.12059117632E+02 -0.33676327665E+01  0.47375721484E+01  0.13386853939E+02  0.00000000000E+00 0.  1.
</event>
<event>
 7    1  0.5764931E-013  0.5052887E+02  0.7816164E-02  0.1300439E+00
        -11   -1    0    0    0    0  0.00000000000E+00  0.00000000000E+00  0.45593999997E+02  0.45594000000E+02  0.51100000000E-03 0.  1.
         11   -1    0    0    0    0 -0.00000000000E+00 -0.00000000000E+00 -0.45593999997E+02  0.45594000000E+02  0.51100000000E-03 0. -1.
    9900012    2    1    2    0    0 -0.15572744750E+02  0.59241429763E+01  0.37088525122E+02  0.50528873783E+02  0.30000042350E+02 0.  0.
         12    1    1    2    0    0  0.15572744750E+02 -0.59241429763E+01 -0.37088525122E+02  0.40659126217E+02  0.00000000000E+00 0. -1.
         11    1    3    3    0    0 -0.92876330799E+01  0.13983626795E+02  0.97187673683E+01  0.19397329352E+02  0.51100000000E-03 0. -1.
        -11    1    3    3    0    0 -0.83816703754E+01 -0.36029534857E+01  0.12555959914E+02  0.15520496181E+02  0.51100000000E-03 0.  1.
         12    1    3    3    0    0  0.20965587054E+01 -0.44565303330E+01  0.14813797839E+02  0.15611048249E+02  0.00000000000E+00 0. -1.
</event>
<event>
 7    1  0.5764931E-013  0.5052886E+02  0.7816164E-02  0.1300439E+00
        -11   -1    0    0    0    0  0.00000000000E+00  0.00000000000E+00  0.45593999997E+02  0.45594000000E+02  0.51100000000E-03 0.  1.
         11   -1    0    0    0    0 -0.00000000000E+00 -0.00000000000E+00 -0.45593999997E+02  0.45594000000E+02  0.51100000000E-03 0. -1.
    9900012    2    1    2    0    0 -0.17065860876E+02  0.23770520170E+02  0.28229142546E+02  0.50528859263E+02  0.29999998216E+02 0.  0.
         12    1    1    2    0    0  0.17065860876E+02 -0.23770520170E+02 -0.28229142546E+02  0.40659140737E+02  0.00000000000E+00 0. -1.
         11    1    3    3    0    0  0.55396818251E+01 -0.48754990968E+00 -0.86974608316E+00  0.56286977311E+01  0.51100000000E-03 0. -1.
        -11    1    3    3    0    0 -0.43322963574E+01  0.16431026470E+01  0.69366749583E+01  0.83418246071E+01  0.51100000000E-03 0.  1.
         12    1    3    3    0    0 -0.18273246343E+02  0.22614967433E+02  0.22162213671E+02  0.36558336925E+02  0.00000000000E+00 0. -1.
</event>
<event>
 7    1  0.5764931E-013  0.5052885E+02  0.7816164E-02  0.1300439E+00
        -11   -1    0    0    0    0  0.00000000000E+00  0.00000000000E+00  0.45593999997E+02  0.45594000000E+02  0.51100000000E-03 0.  1.
         11   -1    0    0    0    0 -0.00000000000E+00 -0.00000000000E+00 -0.45593999997E+02  0.45594000000E+02  0.51100000000E-03 0. -1.
    9900012    2    1    2    0    0  0.35201061802E+02  0.14218968661E+02  0.14555854462E+02  0.50528847022E+02  0.29999961008E+02 0.  0.
         12    1    1    2    0    0 -0.35201061802E+02 -0.14218968661E+02 -0.14555854462E+02  0.40659152978E+02  0.00000000000E+00 0. -1.
         11    1    3    3    0    0  0.56905715968E+01 -0.56488917265E+00  0.45116945529E+01  0.72840299886E+01  0.51100000000E-03 0. -1.
        -11    1    3    3    0    0  0.15089640990E+02  0.21095521104E+02  0.34008933411E+01  0.26158829324E+02  0.51100000000E-03 0.  1.
        -12    1    3    3    0    0  0.14420849214E+02 -0.63116632697E+01  0.66432665683E+01  0.17085987709E+02  0.00000000000E+00 0.  1.
</event>
<event>
 7    1  0.5764931E-013  0.5052886E+02  0.7816164E-02  0.1300439E+00
        -11   -1    0    0    0    0  0.00000000000E+00  0.00000000000E+00  0.45593999997E+02  0.45594000000E+02  0.51100000000E-03 0.  1.
         11   -1    0    0    0    0 -0.00000000000E+00 -0.00000000000E+00 -0.45593999997E+02  0.45594000000E+02  0.51100000000E-03 0. -1.
    9900012    2    1    2    0    0  0.82921689820E+00 -0.20273971942E+02  0.35234129915E+02  0.50528862652E+02  0.30000008517E+02 0.  0.
         12    1    1    2    0    0 -0.82921689820E+00  0.20273971942E+02 -0.35234129915E+02  0.40659137348E+02  0.00000000000E+00 0. -1.
         11    1    3    3    0    0  0.62136620923E+00  0.24443239767E+01 -0.25185851616E+01  0.35642793306E+01  0.51100000000E-03 0. -1.
        -11    1    3    3    0    0 -0.30691959592E+01 -0.15070510027E+02  0.34950959759E+02  0.38185204263E+02  0.51100000000E-03 0.  1.
         12    1    3    3    0    0  0.32770466482E+01 -0.76477858922E+01  0.28017553185E+01  0.87793790585E+01  0.00000000000E+00 0. -1.
</event>
<event>
 7    1  0.5764931E-013  0.5052886E+02  0.7816164E-02  0.1300439E+00
        -11   -1    0    0    0    0  0.00000000000E+00  0.00000000000E+00  0.45593999997E+02  0.45594000000E+02  0.51100000000E-03 0.  1.
         11   -1    0    0    0    0 -0.00000000000E+00 -0.00000000000E+00 -0.45593999997E+02  0.45594000000E+02  0.51100000000E-03 0. -1.
    9900012    2    1    2    0    0  0.16225214711E+02 -0.36561927767E+02  0.72892731608E+01  0.50528860097E+02  0.30000000750E+02 0.  0.
         12    1    1    2    0    0 -0.16225214711E+02  0.36561927767E+02 -0.72892731608E+01  0.40659139903E+02  0.00000000000E+00 0. -1.
         11    1    3    3    0    0  0.22380349782E+02 -0.20070770675E+02  0.77061333756E+00  0.30071743166E+02  0.51100000000E-03 0. -1.
        -11    1    3    3    0    0 -0.77275479300E+01 -0.10196354451E+02  0.32903213143E+01  0.13210104303E+02  0.51100000000E-03 0.  1.
        -12    1    3    3    0    0  0.15724128587E+01 -0.62948026416E+01  0.32283385089E+01  0.72470126275E+01  0.00000000000E+00 0.  1.
</event>
<event>
 7    1  0.5764931E-013  0.5052878E+02  0.7816164E-02  0.1300439E+00
        -11   -1    0    0    0    0  0.00000000000E+00  0.00000000000E+00  0.45593999997E+02  0.45594000000E+02  0.51100000000E-03 0.  1.
         11   -1    0    0    0    0 -0.00000000000E+00 -0.00000000000E+00 -0.45593999997E+02  0.45594000000E+02  0.51100000000E-03 0. -1.
    9900012    2    1    2    0    0 -0.21670818024E+02  0.29183247992E+02  0.18217739368E+02  0.50528777862E+02  0.29999750788E+02 0.  0.
         12    1    1    2    0    0  0.21670818024E+02 -0.29183247992E+02 -0.18217739368E+02  0.40659222138E+02  0.00000000000E+00 0. -1.
         11    1    3    3    0    0 -0.14083189912E+02  0.60545059851E+01 -0.53900888857E+01  0.16249502739E+02  0.51100000000E-03 0. -1.
        -11    1    3    3    0    0 -0.51923670224E+01  0.93925597424E+01  0.82555574140E+01  0.13540128592E+02  0.51100000000E-03 0.  1.
         12    1    3    3    0    0 -0.23952610902E+01  0.13736182265E+02  0.15352270839E+02  0.20739146531E+02  0.00000000000E+00 0. -1.
</event>
<event>
 7    1  0.5764931E-013  0.5052887E+02  0.7816164E-02  0.1300439E+00
        -11   -1    0    0    0    0  0.00000000000E+00  0.00000000000E+00  0.45593999997E+02  0.45594000000E+02  0.51100000000E-03 0. -1.
         11   -1    0    0    0    0 -0.00000000000E+00 -0.00000000000E+00 -0.45593999997E+02  0.45594000000E+02  0.51100000000E-03 0.  1.
    9900012    2    1    2    0    0  0.35504330573E+02  0.18369355222E+02  0.74279194099E+01  0.50528872027E+02  0.30000037014E+02 0.  0.
         12    1    1    2    0    0 -0.35504330573E+02 -0.18369355222E+02 -0.74279194099E+01  0.40659127973E+02  0.00000000000E+00 0. -1.
         11    1    3    3    0    0  0.70867231231E+00 -0.19545384836E+01 -0.58789871091E+01  0.62357779643E+01  0.51100000000E-03 0. -1.
        -11    1    3    3    0    0  0.26016635221E+02  0.20999623542E+02  0.10875104231E+02  0.35158461136E+02  0.51100000000E-03 0.  1.
        -12    1    3    3    0    0  0.87790230401E+01 -0.67572983620E+00  0.24318022876E+01  0.91346329273E+01  0.00000000000E+00 0.  1.
</event>
<event>
 7    1  0.5764931E-013  0.5052878E+02  0.7816164E-02  0.1300439E+00
        -11   -1    0    0    0    0  0.00000000000E+00  0.00000000000E+00  0.45593999997E+02  0.45594000000E+02  0.51100000000E-03 0. -1.
         11   -1    0    0    0    0 -0.00000000000E+00 -0.00000000000E+00 -0.45593999997E+02  0.45594000000E+02  0.51100000000E-03 0.  1.
    9900012    2    1    2    0    0 -0.30125948886E+02  0.62549517575E+01 -0.26579602032E+02  0.50528776422E+02  0.29999746412E+02 0.  0.
         12    1    1    2    0    0  0.30125948886E+02 -0.62549517575E+01  0.26579602032E+02  0.40659223578E+02  0.00000000000E+00 0. -1.
         11    1    3    3    0    0 -0.20092911125E+02  0.11749744018E+02 -0.25023581369E+02  0.34175447133E+02  0.51100000000E-03 0.  1.
        -11    1    3    3    0    0  0.74049319303E+00 -0.46193160457E+01 -0.28328456039E+01  0.54691338781E+01  0.51100000000E-03 0. -1.
        -12    1    3    3    0    0 -0.10773530954E+02 -0.87547621427E+00  0.12768249404E+01  0.10884195411E+02  0.00000000000E+00 0.  1.
</event>
<event>
 7    1  0.5764931E-013  0.5052882E+02  0.7816164E-02  0.1300439E+00
        -11   -1    0    0    0    0  0.00000000000E+00  0.00000000000E+00  0.45593999997E+02  0.45594000000E+02  0.51100000000E-03 0.  1.
         11   -1    0    0    0    0 -0.00000000000E+00 -0.00000000000E+00 -0.45593999997E+02  0.45594000000E+02  0.51100000000E-03 0. -1.
    9900012    2    1    2    0    0  0.11396933734E+02  0.67514841302E+01  0.38440812461E+02  0.50528822694E+02  0.29999887062E+02 0.  0.
         12    1    1    2    0    0 -0.11396933734E+02 -0.67514841302E+01 -0.38440812461E+02  0.40659177306E+02  0.00000000000E+00 0. -1.
         11    1    3    3    0    0  0.10047929117E+02 -0.40106236072E+01  0.21680358753E+01  0.11033873349E+02  0.51100000000E-03 0. -1.
        -11    1    3    3    0    0 -0.48626411153E+01  0.61855527198E+01  0.16878420200E+02  0.18622228915E+02  0.51100000000E-03 0.  1.
         12    1    3    3    0    0  0.62116457318E+01  0.45765550176E+01  0.19394356386E+02  0.20872720430E+02  0.00000000000E+00 0. -1.
</event>
<event>
 7    1  0.5764931E-013  0.5052885E+02  0.7816164E-02  0.1300439E+00
        -11   -1    0    0    0    0  0.00000000000E+00  0.00000000000E+00  0.45593999997E+02  0.45594000000E+02  0.51100000000E-03 0.  1.
         11   -1    0    0    0    0 -0.00000000000E+00 -0.00000000000E+00 -0.45593999997E+02  0.45594000000E+02  0.51100000000E-03 0. -1.
    9900012    2    1    2    0    0  0.39787075935E+02 -0.14073803313E+01 -0.82567585792E+01  0.50528853513E+02  0.29999980737E+02 0.  0.
         12    1    1    2    0    0 -0.39787075935E+02  0.14073803313E+01  0.82567585792E+01  0.40659146487E+02  0.00000000000E+00 0. -1.
         11    1    3    3    0    0 -0.37073121133E+01  0.10378823343E+01  0.29849262294E+01  0.48714625834E+01  0.51100000000E-03 0. -1.
        -11    1    3    3    0    0  0.74913419201E+01 -0.33046964777E+01 -0.12416460168E+01  0.82814797993E+01  0.51100000000E-03 0.  1.
         12    1    3    3    0    0  0.36003046128E+02  0.85943381219E+00 -0.10000038792E+02  0.37375911130E+02  0.00000000000E+00 0. -1.
</event>
<event>
 7    1  0.5764931E-013  0.5052887E+02  0.7816164E-02  0.1300439E+00
        -11   -1    0    0    0    0  0.00000000000E+00  0.00000000000E+00  0.45593999997E+02  0.45594000000E+02  0.51100000000E-03 0.  1.
         11   -1    0    0    0    0 -0.00000000000E+00 -0.00000000000E+00 -0.45593999997E+02  0.45594000000E+02  0.51100000000E-03 0. -1.
    9900012    2    1    2    0    0 -0.23530818096E+02 -0.27246520565E+02  0.18896897419E+02  0.50528867997E+02  0.30000024763E+02 0.  0.
         12    1    1    2    0    0  0.23530818096E+02  0.27246520565E+02 -0.18896897419E+02  0.40659132003E+02  0.00000000000E+00 0. -1.
         11    1    3    3    0    0 -0.73999337886E+01 -0.32720006009E+00 -0.23923021884E+01  0.77839058304E+01  0.51100000000E-03 0. -1.
        -11    1    3    3    0    0 -0.66003402864E+01 -0.14510102429E+02  0.21898937637E+02  0.27086362515E+02  0.51100000000E-03 0.  1.
        -12    1    3    3    0    0 -0.95305440215E+01 -0.12409218075E+02 -0.60973802905E+00  0.15658599652E+02  0.00000000000E+00 0.  1.
</event>
<event>
 7    1  0.5764931E-013  0.5052885E+02  0.7816164E-02  0.1300439E+00
        -11   -1    0    0    0    0  0.00000000000E+00  0.00000000000E+00  0.45593999997E+02  0.45594000000E+02  0.51100000000E-03 0.  1.
         11   -1    0    0    0    0 -0.00000000000E+00 -0.00000000000E+00 -0.45593999997E+02  0.45594000000E+02  0.51100000000E-03 0. -1.
    9900012    2    1    2    0    0 -0.15390049811E+02 -0.29923394916E+02  0.22823300648E+02  0.50528852826E+02  0.29999978650E+02 0.  0.
         12    1    1    2    0    0  0.15390049811E+02  0.29923394916E+02 -0.22823300648E+02  0.40659147174E+02  0.00000000000E+00 0. -1.
         11    1    3    3    0    0  0.46278293424E-01 -0.19597577067E+02  0.16159213192E+02  0.25400538180E+02  0.51100000000E-03 0. -1.
        -11    1    3    3    0    0 -0.16390058106E+02 -0.13203307265E+02  0.48593528251E+01  0.21600338831E+02  0.51100000000E-03 0.  1.
         12    1    3    3    0    0  0.95373000196E+00  0.28774894170E+01  0.18047346306E+01  0.35279758146E+01  0.00000000000E+00 0. -1.
</event>
<event>
 7    1  0.5764931E-013  0.5052881E+02  0.7816164E-02  0.1300439E+00
        -11   -1    0    0    0    0  0.00000000000E+00  0.00000000000E+00  0.45593999997E+02  0.45594000000E+02  0.51100000000E-03 0.  1.
         11   -1    0    0    0    0 -0.00000000000E+00 -0.00000000000E+00 -0.45593999997E+02  0.45594000000E+02  0.51100000000E-03 0. -1.
    9900012    2    1    2    0    0 -0.10809670521E+02  0.10990460209E+01  0.39180513631E+02  0.50528812510E+02  0.29999856105E+02 0.  0.
         12    1    1    2    0    0  0.10809670521E+02 -0.10990460209E+01 -0.39180513631E+02  0.40659187490E+02  0.00000000000E+00 0. -1.
         11    1    3    3    0    0 -0.10562907622E+02  0.27094648198E+01  0.14754862345E+01  0.11004239044E+02  0.51100000000E-03 0. -1.
        -11    1    3    3    0    0 -0.52243767432E+01 -0.37516643457E+01  0.20956597969E+02  0.21921407263E+02  0.51100000000E-03 0.  1.
         12    1    3    3    0    0  0.49776138443E+01  0.21412455468E+01  0.16748429428E+02  0.17603166203E+02  0.00000000000E+00 0. -1.
</event>
<event>
 7    1  0.5764931E-013  0.5052884E+02  0.7816164E-02  0.1300439E+00
        -11   -1    0    0    0    0  0.00000000000E+00  0.00000000000E+00  0.45593999997E+02  0.45594000000E+02  0.51100000000E-03 0. -1.
         11   -1    0    0    0    0 -0.00000000000E+00 -0.00000000000E+00 -0.45593999997E+02  0.45594000000E+02  0.51100000000E-03 0.  1.
    9900012    2    1    2    0    0  0.31478599655E+02 -0.12804310986E+02 -0.22322957036E+02  0.50528843259E+02  0.29999949570E+02 0.  0.
         12    1    1    2    0    0 -0.31478599655E+02  0.12804310986E+02  0.22322957036E+02  0.40659156741E+02  0.00000000000E+00 0. -1.
         11    1    3    3    0    0  0.19614733561E+01  0.83842558061E+01 -0.30110902876E+01  0.91219399324E+01  0.51100000000E-03 0. -1.
        -11    1    3    3    0    0  0.25887800016E+02 -0.16817026267E+02 -0.15319167890E+02  0.34462551664E+02  0.51100000000E-03 0.  1.
        -12    1    3    3    0    0  0.36293262828E+01 -0.43715405254E+01 -0.39926988587E+01  0.69443516622E+01  0.00000000000E+00 0.  1.
</event>
<event>
 7    1  0.5764931E-013  0.5052890E+02  0.7816164E-02  0.1300439E+00
        -11   -1    0    0    0    0  0.00000000000E+00  0.00000000000E+00  0.45593999997E+02  0.45594000000E+02  0.51100000000E-03 0.  1.
         11   -1    0    0    0    0 -0.00000000000E+00 -0.00000000000E+00 -0.45593999997E+02  0.45594000000E+02  0.51100000000E-03 0. -1.
    9900012    2    1    2    0    0 -0.22121369106E+02  0.24807838846E+02  0.23417483119E+02  0.50528900711E+02  0.30000124202E+02 0.  0.
         12    1    1    2    0    0  0.22121369106E+02 -0.24807838846E+02 -0.23417483119E+02  0.40659099289E+02  0.00000000000E+00 0. -1.
         11    1    3    3    0    0 -0.16826673680E+01  0.13638550198E+02  0.67766290167E+00  0.13758657211E+02  0.51100000000E-03 0. -1.
        -11    1    3    3    0    0 -0.13185639924E+02 -0.21894589580E+01  0.13415390622E+02  0.18937463836E+02  0.51100000000E-03 0.  1.
        -12    1    3    3    0    0 -0.72530618145E+01  0.13358747606E+02  0.93244295953E+01  0.17832779664E+02  0.00000000000E+00 0.  1.
</event>
<event>
 7    1  0.5764931E-013  0.5052886E+02  0.7816164E-02  0.1300439E+00
        -11   -1    0    0    0    0  0.00000000000E+00  0.00000000000E+00  0.45593999997E+02  0.45594000000E+02  0.51100000000E-03 0.  1.
         11   -1    0    0    0    0 -0.00000000000E+00 -0.00000000000E+00 -0.45593999997E+02  0.45594000000E+02  0.51100000000E-03 0. -1.
    9900012    2    1    2    0    0  0.75449411546E+01  0.20887647345E+02  0.34057972474E+02  0.50528862802E+02  0.30000008974E+02 0.  0.
         12    1    1    2    0    0 -0.75449411546E+01 -0.20887647345E+02 -0.34057972474E+02  0.40659137198E+02  0.00000000000E+00 0. -1.
         11    1    3    3    0    0 -0.57491774710E+01  0.17240251868E+02  0.25754606460E+02  0.31521089452E+02  0.51100000000E-03 0. -1.
        -11    1    3    3    0    0  0.59175894528E+01 -0.20830792918E+01 -0.33825563009E+00  0.62826349090E+01  0.51100000000E-03 0.  1.
        -12    1    3    3    0    0  0.73765291728E+01  0.57304747692E+01  0.86416216433E+01  0.12725138441E+02  0.00000000000E+00 0.  1.
</event>
<event>
 7    1  0.5764931E-013  0.5052885E+02  0.7816164E-02  0.1300439E+00
        -11   -1    0    0    0    0  0.00000000000E+00  0.00000000000E+00  0.45593999997E+02  0.45594000000E+02  0.51100000000E-03 0.  1.
         11   -1    0    0    0    0 -0.00000000000E+00 -0.00000000000E+00 -0.45593999997E+02  0.45594000000E+02  0.51100000000E-03 0. -1.
    9900012    2    1    2    0    0 -0.20300324849E+02 -0.35193713723E+02  0.15701952583E+01  0.50528853578E+02  0.29999980937E+02 0.  0.
         12    1    1    2    0    0  0.20300324849E+02  0.35193713723E+02 -0.15701952583E+01  0.40659146422E+02  0.00000000000E+00 0. -1.
         11    1    3    3    0    0 -0.49293556295E+01 -0.65331266818E+01  0.10936217788E+02  0.13659471107E+02  0.51100000000E-03 0. -1.
        -11    1    3    3    0    0 -0.99816591364E+01 -0.28562764281E+02 -0.83049153808E+01  0.31375733334E+02  0.51100000000E-03 0.  1.
        -12    1    3    3    0    0 -0.53893100832E+01 -0.97822760055E-01 -0.10611071485E+01  0.54936491375E+01  0.00000000000E+00 0.  1.
</event>
<event>
 7    1  0.5764931E-013  0.5052885E+02  0.7816164E-02  0.1300439E+00
        -11   -1    0    0    0    0  0.00000000000E+00  0.00000000000E+00  0.45593999997E+02  0.45594000000E+02  0.51100000000E-03 0.  1.
         11   -1    0    0    0    0 -0.00000000000E+00 -0.00000000000E+00 -0.45593999997E+02  0.45594000000E+02  0.51100000000E-03 0. -1.
    9900012    2    1    2    0    0 -0.16396166362E+02 -0.31878513905E+02  0.19185728131E+02  0.50528854853E+02  0.29999984811E+02 0.  0.
         12    1    1    2    0    0  0.16396166362E+02  0.31878513905E+02 -0.19185728131E+02  0.40659145147E+02  0.00000000000E+00 0. -1.
         11    1    3    3    0    0 -0.41258010798E+01 -0.23253226536E+02  0.18103097229E+02  0.29756627974E+02  0.51100000000E-03 0. -1.
        -11    1    3    3    0    0 -0.14045783761E+02 -0.60476082332E+01  0.46908144386E+01  0.15995666512E+02  0.51100000000E-03 0.  1.
         12    1    3    3    0    0  0.17754184786E+01 -0.25776791362E+01 -0.36081835361E+01  0.47765603664E+01  0.00000000000E+00 0. -1.
</event>
<event>
 7    1  0.5764931E-013  0.5052881E+02  0.7816164E-02  0.1300439E+00
        -11   -1    0    0    0    0  0.00000000000E+00  0.00000000000E+00  0.45593999997E+02  0.45594000000E+02  0.51100000000E-03 0.  1.
         11   -1    0    0    0    0 -0.00000000000E+00 -0.00000000000E+00 -0.45593999997E+02  0.45594000000E+02  0.51100000000E-03 0. -1.
    9900012    2    1    2    0    0 -0.23008122794E+01  0.17370764695E+02  0.36689679515E+02  0.50528809327E+02  0.29999846431E+02 0.  0.
         12    1    1    2    0    0  0.23008122794E+01 -0.17370764695E+02 -0.36689679515E+02  0.40659190673E+02  0.00000000000E+00 0. -1.
         11    1    3    3    0    0  0.81716377995E+00 -0.54117484095E+01 -0.42173005964E+00  0.54893199939E+01  0.51100000000E-03 0. -1.
        -11    1    3    3    0    0 -0.16801156094E+01  0.61695578686E+01  0.20612944776E+02  0.21581930529E+02  0.51100000000E-03 0.  1.
         12    1    3    3    0    0 -0.14378604499E+01  0.16612955236E+02  0.16498464799E+02  0.23457558804E+02  0.00000000000E+00 0. -1.
</event>
<event>
 7    1  0.5764931E-013  0.5052886E+02  0.7816164E-02  0.1300439E+00
        -11   -1    0    0    0    0  0.00000000000E+00  0.00000000000E+00  0.45593999997E+02  0.45594000000E+02  0.51100000000E-03 0. -1.
         11   -1    0    0    0    0 -0.00000000000E+00 -0.00000000000E+00 -0.45593999997E+02  0.45594000000E+02  0.51100000000E-03 0.  1.
    9900012    2    1    2    0    0  0.34095839263E+02 -0.13424273474E+02 -0.17618976053E+02  0.50528859693E+02  0.29999999522E+02 0.  0.
         12    1    1    2    0    0 -0.34095839263E+02  0.13424273474E+02  0.17618976053E+02  0.40659140307E+02  0.00000000000E+00 0. -1.
         11    1    3    3    0    0  0.19607951887E+01 -0.35970719288E+01  0.16933321902E+01  0.44329469206E+01  0.51100000000E-03 0. -1.
        -11    1    3    3    0    0  0.16161520480E+02  0.33494483419E+01 -0.19292113718E+02  0.25388958237E+02  0.51100000000E-03 0.  1.
        -12    1    3    3    0    0  0.15973523595E+02 -0.13176649887E+02 -0.20194525415E-01  0.20706954535E+02  0.00000000000E+00 0.  1.
</event>
<event>
 7    1  0.5764931E-013  0.5052886E+02  0.7816164E-02  0.1300439E+00
        -11   -1    0    0    0    0  0.00000000000E+00  0.00000000000E+00  0.45593999997E+02  0.45594000000E+02  0.51100000000E-03 0.  1.
         11   -1    0    0    0    0 -0.00000000000E+00 -0.00000000000E+00 -0.45593999997E+02  0.45594000000E+02  0.51100000000E-03 0. -1.
    9900012    2    1    2    0    0  0.40185072828E+02  0.50135327430E+01  0.36317779494E+01  0.50528863267E+02  0.30000010387E+02 0.  0.
         12    1    1    2    0    0 -0.40185072828E+02 -0.50135327430E+01 -0.36317779494E+01  0.40659136733E+02  0.00000000000E+00 0. -1.
         11    1    3    3    0    0 -0.11310852020E+01  0.33443103614E+01  0.42532254711E+01  0.55275394794E+01  0.51100000000E-03 0. -1.
        -11    1    3    3    0    0  0.31798527173E+02  0.48573882714E+01  0.63398571509E+01  0.32786191303E+02  0.51100000000E-03 0.  1.
        -12    1    3    3    0    0  0.95176308577E+01 -0.31881658898E+01 -0.69613046725E+01  0.12215132485E+02  0.00000000000E+00 0.  1.
</event>
<event>
 7    1  0.5764931E-013  0.5052885E+02  0.7816164E-02  0.1300439E+00
        -11   -1    0    0    0    0  0.00000000000E+00  0.00000000000E+00  0.45593999997E+02  0.45594000000E+02  0.51100000000E-03 0.  1.
         11   -1    0    0    0    0 -0.00000000000E+00 -0.00000000000E+00 -0.45593999997E+02  0.45594000000E+02  0.51100000000E-03 0. -1.
    9900012    2    1    2    0    0  0.13898930180E+02 -0.35422548144E+02 -0.14325830637E+02  0.50528848501E+02  0.29999965505E+02 0.  0.
         12    1    1    2    0    0 -0.13898930180E+02  0.35422548144E+02  0.14325830637E+02  0.40659151499E+02  0.00000000000E+00 0. -1.
         11    1    3    3    0    0  0.14551578146E+02 -0.46651943645E+01 -0.39546598163E+01  0.15784543057E+02  0.51100000000E-03 0. -1.
        -11    1    3    3    0    0  0.98181049784E+00 -0.19081710365E+02 -0.98548733096E-01  0.19107206348E+02  0.51100000000E-03 0.  1.
         12    1    3    3    0    0 -0.16344584629E+01 -0.11675643414E+02 -0.10272622088E+02  0.15637099097E+02  0.00000000000E+00 0. -1.
</event>
<event>
 7    1  0.5764931E-013  0.5052886E+02  0.7816164E-02  0.1300439E+00
        -11   -1    0    0    0    0  0.00000000000E+00  0.00000000000E+00  0.45593999997E+02  0.45594000000E+02  0.51100000000E-03 0.  1.
         11   -1    0    0    0    0 -0.00000000000E+00 -0.00000000000E+00 -0.45593999997E+02  0.45594000000E+02  0.51100000000E-03 0. -1.
    9900012    2    1    2    0    0  0.13608924372E+02  0.14458653703E+01  0.38286707690E+02  0.50528864065E+02  0.30000012813E+02 0.  0.
         12    1    1    2    0    0 -0.13608924372E+02 -0.14458653703E+01 -0.38286707690E+02  0.40659135935E+02  0.00000000000E+00 0. -1.
         11    1    3    3    0    0  0.15375687400E+02  0.73949782700E+01  0.10526052834E+02  0.20047325387E+02  0.51100000000E-03 0. -1.
        -11    1    3    3    0    0  0.30428176311E+00 -0.19154184803E+01  0.25199270589E+02  0.25273793815E+02  0.51100000000E-03 0.  1.
         12    1    3    3    0    0 -0.20710447915E+01 -0.40336944194E+01  0.25613842673E+01  0.52077448633E+01  0.00000000000E+00 0. -1.
</event>
<event>
 7    1  0.5764931E-013  0.5052886E+02  0.7816164E-02  0.1300439E+00
        -11   -1    0    0    0    0  0.00000000000E+00  0.00000000000E+00  0.45593999997E+02  0.45594000000E+02  0.51100000000E-03 0. -1.
         11   -1    0    0    0    0 -0.00000000000E+00 -0.00000000000E+00 -0.45593999997E+02  0.45594000000E+02  0.51100000000E-03 0.  1.
    9900012    2    1    2    0    0  0.39479526128E+02 -0.58432716316E+01  0.77710007552E+01  0.50528864995E+02  0.30000015638E+02 0.  0.
         12    1    1    2    0    0 -0.39479526128E+02  0.58432716316E+01 -0.77710007552E+01  0.40659135005E+02  0.00000000000E+00 0. -1.
         11    1    3    3    0    0  0.28293427861E+01  0.29791993408E+01  0.25753364614E+01  0.48490377875E+01  0.51100000000E-03 0. -1.
        -11    1    3    3    0    0  0.40072436473E+02 -0.62561163217E+01  0.67752898752E+01  0.41119870008E+02  0.51100000000E-03 0.  1.
        -12    1    3    3    0    0 -0.34222531311E+01 -0.25663546507E+01 -0.15796255815E+01  0.45599571998E+01  0.00000000000E+00 0.  1.
</event>
<event>
 7    1  0.5764931E-013  0.5052877E+02  0.7816164E-02  0.1300439E+00
        -11   -1    0    0    0    0  0.00000000000E+00  0.00000000000E+00  0.45593999997E+02  0.45594000000E+02  0.51100000000E-03 0.  1.
         11   -1    0    0    0    0 -0.00000000000E+00 -0.00000000000E+00 -0.45593999997E+02  0.45594000000E+02  0.51100000000E-03 0. -1.
    9900012    2    1    2    0    0  0.25369632307E+02 -0.20286903500E+02  0.24453960547E+02  0.50528771239E+02  0.29999730657E+02 0.  0.
         12    1    1    2    0    0 -0.25369632307E+02  0.20286903500E+02 -0.24453960547E+02  0.40659228761E+02  0.00000000000E+00 0. -1.
         11    1    3    3    0    0  0.11589215814E+02 -0.54725654207E+00 -0.43418988762E+01  0.12387957823E+02  0.51100000000E-03 0. -1.
        -11    1    3    3    0    0  0.45177869438E+01 -0.12346003206E+02  0.15734911385E+02  0.20504185684E+02  0.51100000000E-03 0.  1.
         12    1    3    3    0    0  0.92626295495E+01 -0.73936437516E+01  0.13060948039E+02  0.17636627732E+02  0.00000000000E+00 0. -1.
</event>
<event>
 7    1  0.5764931E-013  0.5052886E+02  0.7816164E-02  0.1300439E+00
        -11   -1    0    0    0    0  0.00000000000E+00  0.00000000000E+00  0.45593999997E+02  0.45594000000E+02  0.51100000000E-03 0.  1.
         11   -1    0    0    0    0 -0.00000000000E+00 -0.00000000000E+00 -0.45593999997E+02  0.45594000000E+02  0.51100000000E-03 0. -1.
    9900012    2    1    2    0    0  0.24646607970E+02 -0.10417387862E+02  0.30613534875E+02  0.50528858693E+02  0.29999996483E+02 0.  0.
         12    1    1    2    0    0 -0.24646607970E+02  0.10417387862E+02 -0.30613534875E+02  0.40659141307E+02  0.00000000000E+00 0. -1.
         11    1    3    3    0    0  0.22668088004E+02 -0.92765957009E+01  0.10388621343E+02  0.26604903593E+02  0.51100000000E-03 0. -1.
        -11    1    3    3    0    0  0.41646145118E+01 -0.60847630366E+01  0.11657329120E+02  0.13793537535E+02  0.51100000000E-03 0.  1.
         12    1    3    3    0    0 -0.21860945455E+01  0.49439708754E+01  0.85675844120E+01  0.10130417565E+02  0.00000000000E+00 0. -1.
</event>
<event>
 7    1  0.5764931E-013  0.5052887E+02  0.7816164E-02  0.1300439E+00
        -11   -1    0    0    0    0  0.00000000000E+00  0.00000000000E+00  0.45593999997E+02  0.45594000000E+02  0.51100000000E-03 0.  1.
         11   -1    0    0    0    0 -0.00000000000E+00 -0.00000000000E+00 -0.45593999997E+02  0.45594000000E+02  0.51100000000E-03 0. -1.
    9900012    2    1    2    0    0 -0.28688073065E+02  0.28631353806E+02 -0.32257137555E+01  0.50528865895E+02  0.30000018374E+02 0.  0.
         12    1    1    2    0    0  0.28688073065E+02 -0.28631353806E+02  0.32257137555E+01  0.40659134105E+02  0.00000000000E+00 0. -1.
         11    1    3    3    0    0  0.69258291717E+00  0.10116500367E+00  0.53903615426E+01  0.54356143421E+01  0.51100000000E-03 0. -1.
        -11    1    3    3    0    0 -0.14849727427E+02  0.12216421465E+02 -0.12456842389E+02  0.22911313376E+02  0.51100000000E-03 0.  1.
        -12    1    3    3    0    0 -0.14530928555E+02  0.16313767337E+02  0.38407670906E+01  0.22181938176E+02  0.00000000000E+00 0.  1.
</event>
<event>
 7    1  0.5764931E-013  0.5052886E+02  0.7816164E-02  0.1300439E+00
        -11   -1    0    0    0    0  0.00000000000E+00  0.00000000000E+00  0.45593999997E+02  0.45594000000E+02  0.51100000000E-03 0. -1.
         11   -1    0    0    0    0 -0.00000000000E+00 -0.00000000000E+00 -0.45593999997E+02  0.45594000000E+02  0.51100000000E-03 0.  1.
    9900012    2    1    2    0    0  0.10387370694E+02  0.22563165909E+02 -0.32189618541E+02  0.50528862434E+02  0.30000007855E+02 0.  0.
         12    1    1    2    0    0 -0.10387370694E+02 -0.22563165909E+02  0.32189618541E+02  0.40659137566E+02  0.00000000000E+00 0. -1.
         11    1    3    3    0    0  0.34014367925E+00  0.19475585402E+02 -0.13300117727E+02  0.23586166630E+02  0.51100000000E-03 0.  1.
        -11    1    3    3    0    0 -0.18691531475E+01 -0.40547052436E+01 -0.84768950041E+01  0.95808202818E+01  0.51100000000E-03 0. -1.
        -12    1    3    3    0    0  0.11916380162E+02  0.71422857501E+01 -0.10412605810E+02  0.17361875522E+02  0.00000000000E+00 0.  1.
</event>
<event>
 7    1  0.5764931E-013  0.5052885E+02  0.7816164E-02  0.1300439E+00
        -11   -1    0    0    0    0  0.00000000000E+00  0.00000000000E+00  0.45593999997E+02  0.45594000000E+02  0.51100000000E-03 0.  1.
         11   -1    0    0    0    0 -0.00000000000E+00 -0.00000000000E+00 -0.45593999997E+02  0.45594000000E+02  0.51100000000E-03 0. -1.
    9900012    2    1    2    0    0 -0.67659482676E+01  0.18628480065E+02  0.35501660345E+02  0.50528853270E+02  0.29999980001E+02 0.  0.
         12    1    1    2    0    0  0.67659482676E+01 -0.18628480065E+02 -0.35501660345E+02  0.40659146730E+02  0.00000000000E+00 0. -1.
         11    1    3    3    0    0 -0.48907731272E+01 -0.69972092650E+01  0.61820773978E+01  0.10540335881E+02  0.51100000000E-03 0. -1.
        -11    1    3    3    0    0 -0.35885782497E+01  0.18808235101E+02  0.25795046001E+02  0.32124943578E+02  0.51100000000E-03 0.  1.
         12    1    3    3    0    0  0.17134031093E+01  0.68174542296E+01  0.35245369463E+01  0.78635738106E+01  0.00000000000E+00 0. -1.
</event>
<event>
 7    1  0.5764931E-013  0.5052885E+02  0.7816164E-02  0.1300439E+00
        -11   -1    0    0    0    0  0.00000000000E+00  0.00000000000E+00  0.45593999997E+02  0.45594000000E+02  0.51100000000E-03 0.  1.
         11   -1    0    0    0    0 -0.00000000000E+00 -0.00000000000E+00 -0.45593999997E+02  0.45594000000E+02  0.51100000000E-03 0. -1.
    9900012    2    1    2    0    0  0.29618347576E+02  0.11212566206E+02  0.25498993206E+02  0.50528845944E+02  0.29999957731E+02 0.  0.
         12    1    1    2    0    0 -0.29618347576E+02 -0.11212566206E+02 -0.25498993206E+02  0.40659154056E+02  0.00000000000E+00 0. -1.
         11    1    3    3    0    0  0.17368745713E+02  0.17073271802E+02  0.13550573574E+02  0.27870916421E+02  0.51100000000E-03 0. -1.
        -11    1    3    3    0    0  0.22746941274E+01 -0.60893406431E+01  0.10812378066E+02  0.12615935262E+02  0.51100000000E-03 0.  1.
         12    1    3    3    0    0  0.99749077351E+01  0.22863504723E+00  0.11360415660E+01  0.10041994261E+02  0.00000000000E+00 0. -1.
</event>
<event>
 7    1  0.5764931E-013  0.5052885E+02  0.7816164E-02  0.1300439E+00
        -11   -1    0    0    0    0  0.00000000000E+00  0.00000000000E+00  0.45593999997E+02  0.45594000000E+02  0.51100000000E-03 0. -1.
         11   -1    0    0    0    0 -0.00000000000E+00 -0.00000000000E+00 -0.45593999997E+02  0.45594000000E+02  0.51100000000E-03 0.  1.
    9900012    2    1    2    0    0 -0.37543761627E+01  0.92632642796E+01 -0.39411455734E+02  0.50528852831E+02  0.29999978664E+02 0.  0.
         12    1    1    2    0    0  0.37543761627E+01 -0.92632642796E+01  0.39411455734E+02  0.40659147169E+02  0.00000000000E+00 0. -1.
         11    1    3    3    0    0 -0.10789887731E+02  0.14259661071E+02 -0.12225554711E+02  0.21661574258E+02  0.51100000000E-03 0. -1.
        -11    1    3    3    0    0  0.93062976680E+00 -0.27287799493E+01 -0.12044336532E+02  0.12384601509E+02  0.51100000000E-03 0.  1.
         12    1    3    3    0    0  0.61048818017E+01 -0.22676168418E+01 -0.15141564491E+02  0.16482677064E+02  0.00000000000E+00 0. -1.
</event>
<event>
 7    1  0.5764931E-013  0.5052887E+02  0.7816164E-02  0.1300439E+00
        -11   -1    0    0    0    0  0.00000000000E+00  0.00000000000E+00  0.45593999997E+02  0.45594000000E+02  0.51100000000E-03 0.  1.
         11   -1    0    0    0    0 -0.00000000000E+00 -0.00000000000E+00 -0.45593999997E+02  0.45594000000E+02  0.51100000000E-03 0. -1.
    9900012    2    1    2    0    0  0.39419277797E+02  0.86787225087E+01  0.48954124412E+01  0.50528871267E+02  0.30000034702E+02 0.  0.
         12    1    1    2    0    0 -0.39419277797E+02 -0.86787225087E+01 -0.48954124412E+01  0.40659128733E+02  0.00000000000E+00 0. -1.
         11    1    3    3    0    0 -0.24575358064E+00  0.83508672313E+01 -0.42196635241E-01  0.83545891075E+01  0.51100000000E-03 0. -1.
        -11    1    3    3    0    0  0.24752811494E+02 -0.90856811005E+00 -0.34688413000E+01  0.25011198154E+02  0.51100000000E-03 0.  1.
         12    1    3    3    0    0  0.14912219883E+02  0.12364233875E+01  0.84064503765E+01  0.17163084005E+02  0.00000000000E+00 0. -1.
</event>
<event>
 7    1  0.5764931E-013  0.5052886E+02  0.7816164E-02  0.1300439E+00
        -11   -1    0    0    0    0  0.00000000000E+00  0.00000000000E+00  0.45593999997E+02  0.45594000000E+02  0.51100000000E-03 0.  1.
         11   -1    0    0    0    0 -0.00000000000E+00 -0.00000000000E+00 -0.45593999997E+02  0.45594000000E+02  0.51100000000E-03 0. -1.
    9900012    2    1    2    0    0  0.46216350439E+01 -0.14350155215E+02  0.37760820266E+02  0.50528855735E+02  0.29999987493E+02 0.  0.
         12    1    1    2    0    0 -0.46216350439E+01  0.14350155215E+02 -0.37760820266E+02  0.40659144265E+02  0.00000000000E+00 0. -1.
         11    1    3    3    0    0  0.13479724688E+01 -0.14601650376E+02  0.34299503083E+02  0.37302562050E+02  0.51100000000E-03 0.  1.
        -11    1    3    3    0    0  0.56399376177E+01  0.43511676157E+01  0.44384464182E+01  0.83929352922E+01  0.51100000000E-03 0. -1.
         12    1    3    3    0    0 -0.23662750426E+01 -0.40996724548E+01 -0.97712923514E+00  0.48333583931E+01  0.00000000000E+00 0. -1.
</event>
<event>
 7    1  0.5764931E-013  0.5052885E+02  0.7816164E-02  0.1300439E+00
        -11   -1    0    0    0    0  0.00000000000E+00  0.00000000000E+00  0.45593999997E+02  0.45594000000E+02  0.51100000000E-03 0.  1.
         11   -1    0    0    0    0 -0.00000000000E+00 -0.00000000000E+00 -0.45593999997E+02  0.45594000000E+02  0.51100000000E-03 0. -1.
    9900012    2    1    2    0    0  0.58248619543E+01  0.20845312699E+02  0.34419619505E+02  0.50528852380E+02  0.29999977295E+02 0.  0.
         12    1    1    2    0    0 -0.58248619543E+01 -0.20845312699E+02 -0.34419619505E+02  0.40659147620E+02  0.00000000000E+00 0. -1.
         11    1    3    3    0    0  0.12425573300E+02  0.13584034286E+02  0.19502671760E+02  0.26819303969E+02  0.51100000000E-03 0. -1.
        -11    1    3    3    0    0 -0.76349908481E+01  0.42006295794E+01  0.27836855258E+00  0.87187076695E+01  0.51100000000E-03 0.  1.
        -12    1    3    3    0    0  0.10342795021E+01  0.30606488331E+01  0.14638579193E+02  0.14990840742E+02  0.00000000000E+00 0.  1.
</event>
<event>
 7    1  0.5764931E-013  0.5052886E+02  0.7816164E-02  0.1300439E+00
        -11   -1    0    0    0    0  0.00000000000E+00  0.00000000000E+00  0.45593999997E+02  0.45594000000E+02  0.51100000000E-03 0.  1.
         11   -1    0    0    0    0 -0.00000000000E+00 -0.00000000000E+00 -0.45593999997E+02  0.45594000000E+02  0.51100000000E-03 0. -1.
    9900012    2    1    2    0    0  0.74468870703E+01 -0.14404157651E+02  0.37285784176E+02  0.50528860975E+02  0.30000003419E+02 0.  0.
         12    1    1    2    0    0 -0.74468870703E+01  0.14404157651E+02 -0.37285784176E+02  0.40659139025E+02  0.00000000000E+00 0. -1.
         11    1    3    3    0    0 -0.14708954883E+01  0.86395205914E+00  0.81191781278E+00  0.18892213988E+01  0.51100000000E-03 0. -1.
        -11    1    3    3    0    0  0.16841066493E+02 -0.13498406924E+02  0.33779031832E+02  0.40085552283E+02  0.51100000000E-03 0.  1.
        -12    1    3    3    0    0 -0.79232839346E+01 -0.17697027864E+01  0.26948345314E+01  0.85540872927E+01  0.00000000000E+00 0.  1.
</event>
<event>
 7    1  0.5764931E-013  0.5052888E+02  0.7816164E-02  0.1300439E+00
        -11   -1    0    0    0    0  0.00000000000E+00  0.00000000000E+00  0.45593999997E+02  0.45594000000E+02  0.51100000000E-03 0. -1.
         11   -1    0    0    0    0 -0.00000000000E+00 -0.00000000000E+00 -0.45593999997E+02  0.45594000000E+02  0.51100000000E-03 0.  1.
    9900012    2    1    2    0    0  0.10949633672E+02 -0.37025486209E+02  0.12742971827E+02  0.50528875101E+02  0.30000046357E+02 0.  0.
         12    1    1    2    0    0 -0.10949633672E+02  0.37025486209E+02 -0.12742971827E+02  0.40659124899E+02  0.00000000000E+00 0. -1.
         11    1    3    3    0    0 -0.64770049062E+01 -0.18372673994E+02  0.39934367423E+01  0.19886032272E+02  0.51100000000E-03 0. -1.
        -11    1    3    3    0    0  0.90219238838E+01 -0.54673078746E+00  0.50092229043E+01  0.10333747601E+02  0.51100000000E-03 0.  1.
        -12    1    3    3    0    0  0.84047146946E+01 -0.18106081428E+02  0.37403121803E+01  0.20309095228E+02  0.00000000000E+00 0.  1.
</event>
<event>
 7    1  0.5764931E-013  0.5052886E+02  0.7816164E-02  0.1300439E+00
        -11   -1    0    0    0    0  0.00000000000E+00  0.00000000000E+00  0.45593999997E+02  0.45594000000E+02  0.51100000000E-03 0. -1.
         11   -1    0    0    0    0 -0.00000000000E+00 -0.00000000000E+00 -0.45593999997E+02  0.45594000000E+02  0.51100000000E-03 0.  1.
    9900012    2    1    2    0    0 -0.34439902742E+01  0.40066293210E+02  0.59997024601E+01  0.50528863878E+02  0.30000012243E+02 0.  0.
         12    1    1    2    0    0  0.34439902742E+01 -0.40066293210E+02 -0.59997024601E+01  0.40659136122E+02  0.00000000000E+00 0. -1.
         11    1    3    3    0    0 -0.10958832061E+02  0.21860113466E+02  0.96615043428E+01  0.26292683912E+02  0.51100000000E-03 0. -1.
        -11    1    3    3    0    0  0.16438173952E+01  0.15071971182E+02 -0.71043391972E+01  0.16743299753E+02  0.51100000000E-03 0.  1.
         12    1    3    3    0    0  0.58710243912E+01  0.31342085619E+01  0.34425373145E+01  0.74928802122E+01  0.00000000000E+00 0. -1.
</event>
<event>
 7    1  0.5764931E-013  0.5052886E+02  0.7816164E-02  0.1300439E+00
        -11   -1    0    0    0    0  0.00000000000E+00  0.00000000000E+00  0.45593999997E+02  0.45594000000E+02  0.51100000000E-03 0.  1.
         11   -1    0    0    0    0 -0.00000000000E+00 -0.00000000000E+00 -0.45593999997E+02  0.45594000000E+02  0.51100000000E-03 0. -1.
    9900012    2    1    2    0    0  0.13188425342E+02 -0.24024833670E+02  0.30033959127E+02  0.50528857156E+02  0.29999991813E+02 0.  0.
         12    1    1    2    0    0 -0.13188425342E+02  0.24024833670E+02 -0.30033959127E+02  0.40659142844E+02  0.00000000000E+00 0. -1.
         11    1    3    3    0    0 -0.69266178819E+01 -0.18957649846E+01  0.14019979615E+02  0.15752199491E+02  0.51100000000E-03 0. -1.
        -11    1    3    3    0    0  0.82267073958E+01 -0.56089543516E+01  0.22542470174E+01  0.10208854655E+02  0.51100000000E-03 0.  1.
         12    1    3    3    0    0  0.11888335828E+02 -0.16520114334E+02  0.13759732495E+02  0.24567803010E+02  0.00000000000E+00 0. -1.
</event>
<event>
 7    1  0.5764931E-013  0.5052886E+02  0.7816164E-02  0.1300439E+00
        -11   -1    0    0    0    0  0.00000000000E+00  0.00000000000E+00  0.45593999997E+02  0.45594000000E+02  0.51100000000E-03 0.  1.
         11   -1    0    0    0    0 -0.00000000000E+00 -0.00000000000E+00 -0.45593999997E+02  0.45594000000E+02  0.51100000000E-03 0. -1.
    9900012    2    1    2    0    0  0.11395559438E+00 -0.34621219414E+02  0.21319562439E+02  0.50528861271E+02  0.30000004320E+02 0.  0.
         12    1    1    2    0    0 -0.11395559438E+00  0.34621219414E+02 -0.21319562439E+02  0.40659138729E+02  0.00000000000E+00 0. -1.
         11    1    3    3    0    0 -0.50325990412E+01 -0.36710345986E+01 -0.44525696696E+01  0.76569527266E+01  0.51100000000E-03 0. -1.
        -11    1    3    3    0    0  0.41667300142E+01 -0.89783460328E+01  0.15979369263E+02  0.18796610833E+02  0.51100000000E-03 0.  1.
        -12    1    3    3    0    0  0.97982462137E+00 -0.21971838782E+02  0.97927628457E+01  0.24075297712E+02  0.00000000000E+00 0.  1.
</event>
<event>
 7    1  0.5764931E-013  0.5052886E+02  0.7816164E-02  0.1300439E+00
        -11   -1    0    0    0    0  0.00000000000E+00  0.00000000000E+00  0.45593999997E+02  0.45594000000E+02  0.51100000000E-03 0.  1.
         11   -1    0    0    0    0 -0.00000000000E+00 -0.00000000000E+00 -0.45593999997E+02  0.45594000000E+02  0.51100000000E-03 0. -1.
    9900012    2    1    2    0    0 -0.30102651326E+01 -0.38835897149E+02 -0.11656621146E+02  0.50528863018E+02  0.30000009630E+02 0.  0.
         12    1    1    2    0    0  0.30102651326E+01  0.38835897149E+02  0.11656621146E+02  0.40659136982E+02  0.00000000000E+00 0. -1.
         11    1    3    3    0    0  0.30108122394E+01 -0.39512614376E+02 -0.91568436646E+01  0.40671359350E+02  0.51100000000E-03 0. -1.
        -11    1    3    3    0    0 -0.13096571412E+01  0.60342039718E+00  0.25632822854E+01  0.29410430699E+01  0.51100000000E-03 0.  1.
         12    1    3    3    0    0 -0.47114202308E+01  0.73296829664E-01 -0.50630597663E+01  0.69164605987E+01  0.00000000000E+00 0. -1.
</event>
<event>
 7    1  0.5764931E-013  0.5052886E+02  0.7816164E-02  0.1300439E+00
        -11   -1    0    0    0    0  0.00000000000E+00  0.00000000000E+00  0.45593999997E+02  0.45594000000E+02  0.51100000000E-03 0.  1.
         11   -1    0    0    0    0 -0.00000000000E+00 -0.00000000000E+00 -0.45593999997E+02  0.45594000000E+02  0.51100000000E-03 0. -1.
    9900012    2    1    2    0    0 -0.47947605471E+01  0.12327459336E+02  0.38447495271E+02  0.50528857424E+02  0.29999992626E+02 0.  0.
         12    1    1    2    0    0  0.47947605471E+01 -0.12327459336E+02 -0.38447495271E+02  0.40659142576E+02  0.00000000000E+00 0. -1.
         11    1    3    3    0    0  0.33503693634E+01  0.76789823100E+01 -0.15223266120E+01  0.85152347451E+01  0.51100000000E-03 0. -1.
        -11    1    3    3    0    0 -0.64687542089E+01  0.39556771443E+01  0.39384333084E+02  0.40107578529E+02  0.51100000000E-03 0.  1.
         12    1    3    3    0    0 -0.16763757017E+01  0.69279988173E+00  0.58548879874E+00  0.19060441503E+01  0.00000000000E+00 0. -1.
</event>
<event>
 7    1  0.5764931E-013  0.5052886E+02  0.7816164E-02  0.1300439E+00
        -11   -1    0    0    0    0  0.00000000000E+00  0.00000000000E+00  0.45593999997E+02  0.45594000000E+02  0.51100000000E-03 0.  1.
         11   -1    0    0    0    0 -0.00000000000E+00 -0.00000000000E+00 -0.45593999997E+02  0.45594000000E+02  0.51100000000E-03 0. -1.
    9900012    2    1    2    0    0  0.38741261001E+02  0.12313986023E+02  0.80389929457E+00  0.50528858226E+02  0.29999995064E+02 0.  0.
         12    1    1    2    0    0 -0.38741261001E+02 -0.12313986023E+02 -0.80389929457E+00  0.40659141774E+02  0.00000000000E+00 0. -1.
         11    1    3    3    0    0  0.23839965561E+02 -0.44497463277E+00  0.74439874934E+01  0.24979089464E+02  0.51100000000E-03 0.  1.
        -11    1    3    3    0    0  0.11481330261E+01  0.25742872790E+01 -0.79019741352E+01  0.83896579152E+01  0.51100000000E-03 0. -1.
         12    1    3    3    0    0  0.13753162413E+02  0.10184673376E+02  0.12618859364E+01  0.17160110847E+02  0.00000000000E+00 0. -1.
</event>
<event>
 7    1  0.5764931E-013  0.5052887E+02  0.7816164E-02  0.1300439E+00
        -11   -1    0    0    0    0  0.00000000000E+00  0.00000000000E+00  0.45593999997E+02  0.45594000000E+02  0.51100000000E-03 0. -1.
         11   -1    0    0    0    0 -0.00000000000E+00 -0.00000000000E+00 -0.45593999997E+02  0.45594000000E+02  0.51100000000E-03 0.  1.
    9900012    2    1    2    0    0 -0.22630723325E+02  0.31503484804E+02 -0.12187929212E+02  0.50528870503E+02  0.30000032380E+02 0.  0.
         12    1    1    2    0    0  0.22630723325E+02 -0.31503484804E+02  0.12187929212E+02  0.40659129497E+02  0.00000000000E+00 0. -1.
         11    1    3    3    0    0 -0.77906960531E+01  0.44354387895E+01 -0.13623524487E+02  0.16308540154E+02  0.51100000000E-03 0.  1.
        -11    1    3    3    0    0 -0.42043189466E+01 -0.49271606952E+00 -0.15948703698E+01  0.45235692420E+01  0.51100000000E-03 0. -1.
         12    1    3    3    0    0 -0.10635708325E+02  0.27560762084E+02  0.30304656440E+01  0.29696761107E+02  0.00000000000E+00 0. -1.
</event>
<event>
 7    1  0.5764931E-013  0.5052885E+02  0.7816164E-02  0.1300439E+00
        -11   -1    0    0    0    0  0.00000000000E+00  0.00000000000E+00  0.45593999997E+02  0.45594000000E+02  0.51100000000E-03 0.  1.
         11   -1    0    0    0    0 -0.00000000000E+00 -0.00000000000E+00 -0.45593999997E+02  0.45594000000E+02  0.51100000000E-03 0. -1.
    9900012    2    1    2    0    0  0.24320455932E+02 -0.26841567434E+02 -0.18471922873E+02  0.50528852768E+02  0.29999978474E+02 0.  0.
         12    1    1    2    0    0 -0.24320455932E+02  0.26841567434E+02  0.18471922873E+02  0.40659147232E+02  0.00000000000E+00 0. -1.
         11    1    3    3    0    0  0.23151741913E+02 -0.42156464115E+01 -0.57005209370E+01  0.24213028879E+02  0.51100000000E-03 0. -1.
        -11    1    3    3    0    0  0.44660016219E+00 -0.88206080441E+01 -0.27804601311E+01  0.92592406154E+01  0.51100000000E-03 0.  1.
         12    1    3    3    0    0  0.72211385686E+00 -0.13805312978E+02 -0.99909418045E+01  0.17056583274E+02  0.00000000000E+00 0. -1.
</event>
<event>
 7    1  0.5764931E-013  0.5052887E+02  0.7816164E-02  0.1300439E+00
        -11   -1    0    0    0    0  0.00000000000E+00  0.00000000000E+00  0.45593999997E+02  0.45594000000E+02  0.51100000000E-03 0.  1.
         11   -1    0    0    0    0 -0.00000000000E+00 -0.00000000000E+00 -0.45593999997E+02  0.45594000000E+02  0.51100000000E-03 0. -1.
    9900012    2    1    2    0    0 -0.34367149517E+02 -0.17121965486E+02 -0.13375434352E+02  0.50528869265E+02  0.30000028618E+02 0.  0.
         12    1    1    2    0    0  0.34367149517E+02  0.17121965486E+02  0.13375434352E+02  0.40659130735E+02  0.00000000000E+00 0. -1.
         11    1    3    3    0    0 -0.47555765376E+01 -0.41732184018E+01 -0.13394314090E+02  0.14813470567E+02  0.51100000000E-03 0. -1.
        -11    1    3    3    0    0 -0.29185613391E+02 -0.88836782694E+01 -0.29698722333E+01  0.30651915274E+02  0.51100000000E-03 0.  1.
        -12    1    3    3    0    0 -0.42595958859E+00 -0.40650688144E+01  0.29887519717E+01  0.50634834241E+01  0.00000000000E+00 0.  1.
</event>
<event>
 7    1  0.5764931E-013  0.5052885E+02  0.7816164E-02  0.1300439E+00
        -11   -1    0    0    0    0  0.00000000000E+00  0.00000000000E+00  0.45593999997E+02  0.45594000000E+02  0.51100000000E-03 0. -1.
         11   -1    0    0    0    0 -0.00000000000E+00 -0.00000000000E+00 -0.45593999997E+02  0.45594000000E+02  0.51100000000E-03 0.  1.
    9900012    2    1    2    0    0 -0.34199979491E+02  0.20233671712E+02 -0.86096679750E+01  0.50528850344E+02  0.29999971106E+02 0.  0.
         12    1    1    2    0    0  0.34199979491E+02 -0.20233671712E+02  0.86096679750E+01  0.40659149656E+02  0.00000000000E+00 0. -1.
         11    1    3    3    0    0 -0.15855419761E+02  0.13190783048E+02  0.43680716279E+01  0.21082484275E+02  0.51100000000E-03 0. -1.
        -11    1    3    3    0    0  0.15429494297E+01 -0.17432234561E+00 -0.74078931491E+01  0.75688811850E+01  0.51100000000E-03 0.  1.
         12    1    3    3    0    0 -0.19887509159E+02  0.72172110097E+01 -0.55698464538E+01  0.21877484884E+02  0.00000000000E+00 0. -1.
</event>
<event>
 7    1  0.5764931E-013  0.5052886E+02  0.7816164E-02  0.1300439E+00
        -11   -1    0    0    0    0  0.00000000000E+00  0.00000000000E+00  0.45593999997E+02  0.45594000000E+02  0.51100000000E-03 0. -1.
         11   -1    0    0    0    0 -0.00000000000E+00 -0.00000000000E+00 -0.45593999997E+02  0.45594000000E+02  0.51100000000E-03 0.  1.
    9900012    2    1    2    0    0  0.60766641295E+01  0.37386764206E+02 -0.14780710653E+02  0.50528863362E+02  0.30000010676E+02 0.  0.
         12    1    1    2    0    0 -0.60766641295E+01 -0.37386764206E+02  0.14780710653E+02  0.40659136638E+02  0.00000000000E+00 0. -1.
         11    1    3    3    0    0  0.12380723011E+02  0.11509798843E+02 -0.49873715080E+01  0.17624745289E+02  0.51100000000E-03 0. -1.
        -11    1    3    3    0    0 -0.37996837429E+01  0.26542742906E+02 -0.12116482273E+02  0.29423866851E+02  0.51100000000E-03 0.  1.
         12    1    3    3    0    0 -0.25043751387E+01 -0.66577754382E+00  0.23231431281E+01  0.34802512218E+01  0.00000000000E+00 0. -1.
</event>
<event>
 7    1  0.5764931E-013  0.5052885E+02  0.7816164E-02  0.1300439E+00
        -11   -1    0    0    0    0  0.00000000000E+00  0.00000000000E+00  0.45593999997E+02  0.45594000000E+02  0.51100000000E-03 0. -1.
         11   -1    0    0    0    0 -0.00000000000E+00 -0.00000000000E+00 -0.45593999997E+02  0.45594000000E+02  0.51100000000E-03 0.  1.
    9900012    2    1    2    0    0 -0.27072153645E+02  0.29439782846E+02 -0.73187264688E+01  0.50528854976E+02  0.29999985184E+02 0.  0.
         12    1    1    2    0    0  0.27072153645E+02 -0.29439782846E+02  0.73187264688E+01  0.40659145024E+02  0.00000000000E+00 0. -1.
         11    1    3    3    0    0  0.47960853127E+01  0.71532580281E+01 -0.74310715060E+01  0.11375076208E+02  0.51100000000E-03 0. -1.
        -11    1    3    3    0    0 -0.28528509117E+02  0.21495087508E+02  0.19764785507E+00  0.35720493898E+02  0.51100000000E-03 0.  1.
         12    1    3    3    0    0 -0.33397298411E+01  0.79143730969E+00 -0.85302817934E-01  0.34332848699E+01  0.00000000000E+00 0. -1.
</event>
<event>
 7    1  0.5764931E-013  0.5052886E+02  0.7816164E-02  0.1300439E+00
        -11   -1    0    0    0    0  0.00000000000E+00  0.00000000000E+00  0.45593999997E+02  0.45594000000E+02  0.51100000000E-03 0.  1.
         11   -1    0    0    0    0 -0.00000000000E+00 -0.00000000000E+00 -0.45593999997E+02  0.45594000000E+02  0.51100000000E-03 0. -1.
    9900012    2    1    2    0    0 -0.19776707317E+02  0.21530347280E+02  0.28257601432E+02  0.50528855334E+02  0.29999986273E+02 0.  0.
         12    1    1    2    0    0  0.19776707317E+02 -0.21530347280E+02 -0.28257601432E+02  0.40659144666E+02  0.00000000000E+00 0. -1.
         11    1    3    3    0    0 -0.14852857503E+02  0.12269810877E+02 -0.24779693914E+00  0.19266993500E+02  0.51100000000E-03 0. -1.
        -11    1    3    3    0    0 -0.63910381692E+01  0.52913802437E+01  0.21879944156E+02  0.23400342525E+02  0.51100000000E-03 0.  1.
         12    1    3    3    0    0  0.14671883552E+01  0.39691561601E+01  0.66254542144E+01  0.78615193086E+01  0.00000000000E+00 0. -1.
</event>
<event>
 7    1  0.5764931E-013  0.5052889E+02  0.7816164E-02  0.1300439E+00
        -11   -1    0    0    0    0  0.00000000000E+00  0.00000000000E+00  0.45593999997E+02  0.45594000000E+02  0.51100000000E-03 0. -1.
         11   -1    0    0    0    0 -0.00000000000E+00 -0.00000000000E+00 -0.45593999997E+02  0.45594000000E+02  0.51100000000E-03 0.  1.
    9900012    2    1    2    0    0  0.82922468898E+01 -0.35146516354E+02 -0.18684864682E+02  0.50528891076E+02  0.30000094914E+02 0.  0.
         12    1    1    2    0    0 -0.82922468898E+01  0.35146516354E+02  0.18684864682E+02  0.40659108924E+02  0.00000000000E+00 0. -1.
         11    1    3    3    0    0 -0.52805713135E+01  0.12874656691E+01 -0.85296463993E+01  0.10114191476E+02  0.51100000000E-03 0. -1.
        -11    1    3    3    0    0  0.10601031330E+02 -0.27923643421E+02 -0.96413276486E+01  0.31385775858E+02  0.51100000000E-03 0.  1.
         12    1    3    3    0    0  0.29717868735E+01 -0.85103386028E+01 -0.51389063413E+00  0.90289237420E+01  0.00000000000E+00 0. -1.
</event>
<event>
 7    1  0.5764931E-013  0.5052886E+02  0.7816164E-02  0.1300439E+00
        -11   -1    0    0    0    0  0.00000000000E+00  0.00000000000E+00  0.45593999997E+02  0.45594000000E+02  0.51100000000E-03 0.  1.
         11   -1    0    0    0    0 -0.00000000000E+00 -0.00000000000E+00 -0.45593999997E+02  0.45594000000E+02  0.51100000000E-03 0. -1.
    9900012    2    1    2    0    0 -0.19215151818E+02  0.27400561075E+01  0.35727238484E+02  0.50528861586E+02  0.30000005277E+02 0.  0.
         12    1    1    2    0    0  0.19215151818E+02 -0.27400561075E+01 -0.35727238484E+02  0.40659138414E+02  0.00000000000E+00 0. -1.
         11    1    3    3    0    0 -0.10307603785E+02 -0.83242244045E+01  0.14698055646E+01  0.13330406460E+02  0.51100000000E-03 0. -1.
        -11    1    3    3    0    0 -0.84036816353E+01  0.10657789316E+02  0.33747023650E+02  0.36374055913E+02  0.51100000000E-03 0.  1.
        -12    1    3    3    0    0 -0.50386639787E+00  0.40649119640E+00  0.51040926997E+00  0.82439921308E+00  0.00000000000E+00 0.  1.
</event>
<event>
 7    1  0.5764931E-013  0.5052886E+02  0.7816164E-02  0.1300439E+00
        -11   -1    0    0    0    0  0.00000000000E+00  0.00000000000E+00  0.45593999997E+02  0.45594000000E+02  0.51100000000E-03 0. -1.
         11   -1    0    0    0    0 -0.00000000000E+00 -0.00000000000E+00 -0.45593999997E+02  0.45594000000E+02  0.51100000000E-03 0.  1.
    9900012    2    1    2    0    0  0.17721459102E+01  0.14725272196E+02 -0.37857511252E+02  0.50528864488E+02  0.30000014098E+02 0.  0.
         12    1    1    2    0    0 -0.17721459102E+01 -0.14725272196E+02  0.37857511252E+02  0.40659135512E+02  0.00000000000E+00 0. -1.
         11    1    3    3    0    0 -0.21610679926E+01  0.86679015016E+01 -0.59476572792E+01  0.10732071500E+02  0.51100000000E-03 0. -1.
        -11    1    3    3    0    0  0.18849631934E+01 -0.86660246311E+01 -0.13154581067E+02  0.15864932161E+02  0.51100000000E-03 0.  1.
        -12    1    3    3    0    0  0.20482507093E+01  0.14723395326E+02 -0.18755272906E+02  0.23931860827E+02  0.00000000000E+00 0.  1.
</event>
<event>
 7    1  0.5764931E-013  0.5052894E+02  0.7816164E-02  0.1300439E+00
        -11   -1    0    0    0    0  0.00000000000E+00  0.00000000000E+00  0.45593999997E+02  0.45594000000E+02  0.51100000000E-03 0.  1.
         11   -1    0    0    0    0 -0.00000000000E+00 -0.00000000000E+00 -0.45593999997E+02  0.45594000000E+02  0.51100000000E-03 0. -1.
    9900012    2    1    2    0    0  0.40128451374E+02 -0.55644822692E+01  0.34500652043E+01  0.50528941691E+02  0.30000248764E+02 0.  0.
         12    1    1    2    0    0 -0.40128451374E+02  0.55644822692E+01 -0.34500652043E+01  0.40659058309E+02  0.00000000000E+00 0. -1.
         11    1    3    3    0    0  0.11009074674E+02 -0.10169157702E+01 -0.71549675686E+01  0.13169183879E+02  0.51100000000E-03 0. -1.
        -11    1    3    3    0    0  0.14025841417E+02 -0.12300329447E+02  0.35848673164E+01  0.18996673548E+02  0.51100000000E-03 0.  1.
        -12    1    3    3    0    0  0.15093535283E+02  0.77527629478E+01  0.70201654565E+01  0.18363084265E+02  0.00000000000E+00 0.  1.
</event>
<event>
 7    1  0.5764931E-013  0.5052886E+02  0.7816164E-02  0.1300439E+00
        -11   -1    0    0    0    0  0.00000000000E+00  0.00000000000E+00  0.45593999997E+02  0.45594000000E+02  0.51100000000E-03 0.  1.
         11   -1    0    0    0    0 -0.00000000000E+00 -0.00000000000E+00 -0.45593999997E+02  0.45594000000E+02  0.51100000000E-03 0. -1.
    9900012    2    1    2    0    0  0.19942936082E+02 -0.15038097921E+02  0.32082709783E+02  0.50528863810E+02  0.30000012037E+02 0.  0.
         12    1    1    2    0    0 -0.19942936082E+02  0.15038097921E+02 -0.32082709783E+02  0.40659136190E+02  0.00000000000E+00 0. -1.
         11    1    3    3    0    0  0.14615130928E+02 -0.10064820275E+02  0.15346137906E+02  0.23460746111E+02  0.51100000000E-03 0. -1.
        -11    1    3    3    0    0  0.15619851198E+01  0.42852376179E+01  0.16448214947E+02  0.17068884971E+02  0.51100000000E-03 0.  1.
        -12    1    3    3    0    0  0.37658200348E+01 -0.92585152639E+01  0.28835693042E+00  0.99992327279E+01  0.00000000000E+00 0.  1.
</event>
<event>
 7    1  0.5764931E-013  0.5052886E+02  0.7816164E-02  0.1300439E+00
        -11   -1    0    0    0    0  0.00000000000E+00  0.00000000000E+00  0.45593999997E+02  0.45594000000E+02  0.51100000000E-03 0. -1.
         11   -1    0    0    0    0 -0.00000000000E+00 -0.00000000000E+00 -0.45593999997E+02  0.45594000000E+02  0.51100000000E-03 0.  1.
    9900012    2    1    2    0    0  0.19071780518E+02  0.34198828776E+02 -0.10948635163E+02  0.50528864326E+02  0.30000013606E+02 0.  0.
         12    1    1    2    0    0 -0.19071780518E+02 -0.34198828776E+02  0.10948635163E+02  0.40659135674E+02  0.00000000000E+00 0. -1.
         11    1    3    3    0    0  0.60969086276E+00  0.23243251254E+02  0.58558260087E+00  0.23258619027E+02  0.51100000000E-03 0. -1.
        -11    1    3    3    0    0  0.78612714893E+01  0.10689367349E+02 -0.98679300879E+01  0.16535967109E+02  0.51100000000E-03 0.  1.
         12    1    3    3    0    0  0.10600818166E+02  0.26621017315E+00 -0.16662876759E+01  0.10734278190E+02  0.00000000000E+00 0. -1.
</event>
<event>
 7    1  0.5764931E-013  0.5052887E+02  0.7816164E-02  0.1300439E+00
        -11   -1    0    0    0    0  0.00000000000E+00  0.00000000000E+00  0.45593999997E+02  0.45594000000E+02  0.51100000000E-03 0.  1.
         11   -1    0    0    0    0 -0.00000000000E+00 -0.00000000000E+00 -0.45593999997E+02  0.45594000000E+02  0.51100000000E-03 0. -1.
    9900012    2    1    2    0    0  0.36664488078E+02  0.19855376621E+01  0.17462468920E+02  0.50528869825E+02  0.30000030320E+02 0.  0.
         12    1    1    2    0    0 -0.36664488078E+02 -0.19855376621E+01 -0.17462468920E+02  0.40659130175E+02  0.00000000000E+00 0. -1.
         11    1    3    3    0    0 -0.36399741274E+01  0.29509296182E+01 -0.20309165681E+01  0.51070558669E+01  0.51100000000E-03 0. -1.
        -11    1    3    3    0    0  0.77062525509E+01  0.12900059854E+01  0.68294916016E+01  0.10377494862E+02  0.51100000000E-03 0.  1.
         12    1    3    3    0    0  0.32598209654E+02 -0.22553979415E+01  0.12663893887E+02  0.35044319096E+02  0.00000000000E+00 0. -1.
</event>
<event>
 7    1  0.5764931E-013  0.5052886E+02  0.7816164E-02  0.1300439E+00
        -11   -1    0    0    0    0  0.00000000000E+00  0.00000000000E+00  0.45593999997E+02  0.45594000000E+02  0.51100000000E-03 0.  1.
         11   -1    0    0    0    0 -0.00000000000E+00 -0.00000000000E+00 -0.45593999997E+02  0.45594000000E+02  0.51100000000E-03 0. -1.
    9900012    2    1    2    0    0  0.19324917540E+02  0.11186346871E+02  0.33979094755E+02  0.50528859888E+02  0.30000000117E+02 0.  0.
         12    1    1    2    0    0 -0.19324917540E+02 -0.11186346871E+02 -0.33979094755E+02  0.40659140112E+02  0.00000000000E+00 0. -1.
         11    1    3    3    0    0  0.19042511135E+02  0.94764878450E+01  0.31080048347E+02  0.37661524899E+02  0.51100000000E-03 0.  1.
        -11    1    3    3    0    0 -0.54045281253E+01 -0.46935996320E-01  0.41141719663E+01  0.67924618861E+01  0.51100000000E-03 0. -1.
         12    1    3    3    0    0  0.56869345303E+01  0.17567950220E+01 -0.12151255580E+01  0.60748731035E+01  0.00000000000E+00 0. -1.
</event>
<event>
 7    1  0.5764931E-013  0.5052886E+02  0.7816164E-02  0.1300439E+00
        -11   -1    0    0    0    0  0.00000000000E+00  0.00000000000E+00  0.45593999997E+02  0.45594000000E+02  0.51100000000E-03 0. -1.
         11   -1    0    0    0    0 -0.00000000000E+00 -0.00000000000E+00 -0.45593999997E+02  0.45594000000E+02  0.51100000000E-03 0.  1.
    9900012    2    1    2    0    0  0.35510754157E+02  0.19603864209E+02 -0.28000614694E+01  0.50528862073E+02  0.30000006758E+02 0.  0.
         12    1    1    2    0    0 -0.35510754157E+02 -0.19603864209E+02  0.28000614694E+01  0.40659137927E+02  0.00000000000E+00 0. -1.
         11    1    3    3    0    0  0.57942663644E+01  0.88289593422E+01  0.10955282968E+02  0.15216513101E+02  0.51100000000E-03 0. -1.
        -11    1    3    3    0    0  0.16718710869E+02  0.89253930391E+01 -0.52369443117E+01  0.19662235885E+02  0.51100000000E-03 0.  1.
         12    1    3    3    0    0  0.12997776923E+02  0.18495118280E+01 -0.85184001257E+01  0.15650113087E+02  0.00000000000E+00 0. -1.
</event>
<event>
 7    1  0.5764931E-013  0.5052878E+02  0.7816164E-02  0.1300439E+00
        -11   -1    0    0    0    0  0.00000000000E+00  0.00000000000E+00  0.45593999997E+02  0.45594000000E+02  0.51100000000E-03 0.  1.
         11   -1    0    0    0    0 -0.00000000000E+00 -0.00000000000E+00 -0.45593999997E+02  0.45594000000E+02  0.51100000000E-03 0. -1.
    9900012    2    1    2    0    0  0.14762086534E+02  0.47448640315E+01  0.37586421722E+02  0.50528781717E+02  0.29999762507E+02 0.  0.
         12    1    1    2    0    0 -0.14762086534E+02 -0.47448640315E+01 -0.37586421722E+02  0.40659218283E+02  0.00000000000E+00 0. -1.
         11    1    3    3    0    0  0.11050185949E+02 -0.70742570583E+01  0.27935973909E+02  0.30863738610E+02  0.51100000000E-03 0. -1.
        -11    1    3    3    0    0  0.17604409039E+01  0.96666628519E+01  0.25321011504E+00  0.98289184802E+01  0.51100000000E-03 0.  1.
         12    1    3    3    0    0  0.19514596812E+01  0.21524582379E+01  0.93972376970E+01  0.98361246275E+01  0.00000000000E+00 0. -1.
</event>
<event>
 7    1  0.5764931E-013  0.5052888E+02  0.7816164E-02  0.1300439E+00
        -11   -1    0    0    0    0  0.00000000000E+00  0.00000000000E+00  0.45593999997E+02  0.45594000000E+02  0.51100000000E-03 0.  1.
         11   -1    0    0    0    0 -0.00000000000E+00 -0.00000000000E+00 -0.45593999997E+02  0.45594000000E+02  0.51100000000E-03 0. -1.
    9900012    2    1    2    0    0  0.43166873498E+01  0.89790885423E+01  0.39419621944E+02  0.50528875379E+02  0.30000047201E+02 0.  0.
         12    1    1    2    0    0 -0.43166873498E+01 -0.89790885423E+01 -0.39419621944E+02  0.40659124621E+02  0.00000000000E+00 0. -1.
         11    1    3    3    0    0  0.10564641501E+02  0.13001598715E+02  0.11261439285E+02  0.20185966269E+02  0.51100000000E-03 0. -1.
        -11    1    3    3    0    0  0.20367022361E+01 -0.42427024766E-02  0.64118278383E+01  0.67275337597E+01  0.51100000000E-03 0.  1.
         12    1    3    3    0    0 -0.82846563869E+01 -0.40182674705E+01  0.21746354821E+02  0.23615375350E+02  0.00000000000E+00 0. -1.
</event>
<event>
 7    1  0.5764931E-013  0.5052886E+02  0.7816164E-02  0.1300439E+00
        -11   -1    0    0    0    0  0.00000000000E+00  0.00000000000E+00  0.45593999997E+02  0.45594000000E+02  0.51100000000E-03 0.  1.
         11   -1    0    0    0    0 -0.00000000000E+00 -0.00000000000E+00 -0.45593999997E+02  0.45594000000E+02  0.51100000000E-03 0. -1.
    9900012    2    1    2    0    0  0.50221294836E+01 -0.92390982584E+01  0.39275732383E+02  0.50528857419E+02  0.29999992611E+02 0.  0.
         12    1    1    2    0    0 -0.50221294836E+01  0.92390982584E+01 -0.39275732383E+02  0.40659142581E+02  0.00000000000E+00 0. -1.
         11    1    3    3    0    0  0.73974115950E+01 -0.27918062391E+01 -0.11571348011E+01  0.79909224494E+01  0.51100000000E-03 0. -1.
        -11    1    3    3    0    0  0.17308453667E+01 -0.31727792809E+01  0.34186714207E+02  0.34377227675E+02  0.51100000000E-03 0.  1.
         12    1    3    3    0    0 -0.41061274781E+01 -0.32745127384E+01  0.62461529771E+01  0.81607072949E+01  0.00000000000E+00 0. -1.
</event>
<event>
 7    1  0.5764931E-013  0.5052886E+02  0.7816164E-02  0.1300439E+00
        -11   -1    0    0    0    0  0.00000000000E+00  0.00000000000E+00  0.45593999997E+02  0.45594000000E+02  0.51100000000E-03 0. -1.
         11   -1    0    0    0    0 -0.00000000000E+00 -0.00000000000E+00 -0.45593999997E+02  0.45594000000E+02  0.51100000000E-03 0.  1.
    9900012    2    1    2    0    0 -0.26909672671E+02  0.14217544101E+02 -0.26961025586E+02  0.50528856573E+02  0.29999990040E+02 0.  0.
         12    1    1    2    0    0  0.26909672671E+02 -0.14217544101E+02  0.26961025586E+02  0.40659143427E+02  0.00000000000E+00 0. -1.
         11    1    3    3    0    0  0.31786161873E+01 -0.80854385838E+00 -0.13458349342E+02  0.13852238495E+02  0.51100000000E-03 0. -1.
        -11    1    3    3    0    0 -0.15105799654E+02  0.67163421837E+01 -0.95577560686E+01  0.19095683723E+02  0.51100000000E-03 0.  1.
         12    1    3    3    0    0 -0.14982489205E+02  0.83097457760E+01 -0.39449201749E+01  0.17580934356E+02  0.00000000000E+00 0. -1.
</event>
<event>
 7    1  0.5764931E-013  0.5052886E+02  0.7816164E-02  0.1300439E+00
        -11   -1    0    0    0    0  0.00000000000E+00  0.00000000000E+00  0.45593999997E+02  0.45594000000E+02  0.51100000000E-03 0. -1.
         11   -1    0    0    0    0 -0.00000000000E+00 -0.00000000000E+00 -0.45593999997E+02  0.45594000000E+02  0.51100000000E-03 0.  1.
    9900012    2    1    2    0    0  0.32072034067E+02  0.18823274419E+02 -0.16438815057E+02  0.50528859951E+02  0.30000000307E+02 0.  0.
         12    1    1    2    0    0 -0.32072034067E+02 -0.18823274419E+02  0.16438815057E+02  0.40659140049E+02  0.00000000000E+00 0. -1.
         11    1    3    3    0    0 -0.22321054657E+01  0.11084469275E+02 -0.54615559403E+01  0.12556924284E+02  0.51100000000E-03 0. -1.
        -11    1    3    3    0    0  0.18057629535E+02  0.87369700813E+01 -0.55497956040E+01  0.20813766169E+02  0.51100000000E-03 0.  1.
         12    1    3    3    0    0  0.16246509997E+02 -0.99816493718E+00 -0.54274635123E+01  0.17158169498E+02  0.00000000000E+00 0. -1.
</event>
<event>
 7    1  0.5764931E-013  0.5052876E+02  0.7816164E-02  0.1300439E+00
        -11   -1    0    0    0    0  0.00000000000E+00  0.00000000000E+00  0.45593999997E+02  0.45594000000E+02  0.51100000000E-03 0. -1.
         11   -1    0    0    0    0 -0.00000000000E+00 -0.00000000000E+00 -0.45593999997E+02  0.45594000000E+02  0.51100000000E-03 0.  1.
    9900012    2    1    2    0    0 -0.15223469838E+02 -0.33799958588E+02 -0.16702764493E+02  0.50528762721E+02  0.29999704764E+02 0.  0.
         12    1    1    2    0    0  0.15223469838E+02  0.33799958588E+02  0.16702764493E+02  0.40659237279E+02  0.00000000000E+00 0. -1.
         11    1    3    3    0    0 -0.34091582094E+01  0.89628395818E+00 -0.41096504377E+01  0.54143246682E+01  0.51100000000E-03 0. -1.
        -11    1    3    3    0    0  0.32267826843E+01 -0.25393330518E+02 -0.83756799974E+01  0.26932979355E+02  0.51100000000E-03 0.  1.
        -12    1    3    3    0    0 -0.15041094313E+02 -0.93029120278E+01 -0.42174340583E+01  0.18181458697E+02  0.00000000000E+00 0.  1.
</event>
<event>
 7    1  0.5764931E-013  0.5052885E+02  0.7816164E-02  0.1300439E+00
        -11   -1    0    0    0    0  0.00000000000E+00  0.00000000000E+00  0.45593999997E+02  0.45594000000E+02  0.51100000000E-03 0.  1.
         11   -1    0    0    0    0 -0.00000000000E+00 -0.00000000000E+00 -0.45593999997E+02  0.45594000000E+02  0.51100000000E-03 0. -1.
    9900012    2    1    2    0    0 -0.18265571069E+02 -0.24065507398E+02  0.27210051777E+02  0.50528847887E+02  0.29999963638E+02 0.  0.
         12    1    1    2    0    0  0.18265571069E+02  0.24065507398E+02 -0.27210051777E+02  0.40659152113E+02  0.00000000000E+00 0. -1.
         11    1    3    3    0    0 -0.30923480281E+01  0.24925338438E+01 -0.14247320200E+01  0.42196211772E+01  0.51100000000E-03 0. -1.
        -11    1    3    3    0    0 -0.11257231723E+02 -0.29178983644E+02  0.22287644963E+02  0.38404133512E+02  0.51100000000E-03 0.  1.
        -12    1    3    3    0    0 -0.39159913188E+01  0.26209424026E+01  0.63471388345E+01  0.79050931981E+01  0.00000000000E+00 0.  1.
</event>
<event>
 7    1  0.5764931E-013  0.5052885E+02  0.7816164E-02  0.1300439E+00
        -11   -1    0    0    0    0  0.00000000000E+00  0.00000000000E+00  0.45593999997E+02  0.45594000000E+02  0.51100000000E-03 0. -1.
         11   -1    0    0    0    0 -0.00000000000E+00 -0.00000000000E+00 -0.45593999997E+02  0.45594000000E+02  0.51100000000E-03 0.  1.
    9900012    2    1    2    0    0 -0.29983460200E+02 -0.27241325228E+02  0.34740090959E+01  0.50528850661E+02  0.29999972069E+02 0.  0.
         12    1    1    2    0    0  0.29983460200E+02  0.27241325228E+02 -0.34740090959E+01  0.40659149339E+02  0.00000000000E+00 0. -1.
         11    1    3    3    0    0 -0.13292451849E+02  0.22768138769E+01  0.59718389989E+01  0.14749102307E+02  0.51100000000E-03 0. -1.
        -11    1    3    3    0    0 -0.49920978030E+01 -0.19989538268E+02 -0.13371897296E+01  0.20646809857E+02  0.51100000000E-03 0.  1.
         12    1    3    3    0    0 -0.11698910549E+02 -0.95286008371E+01 -0.11606401734E+01  0.15132938497E+02  0.00000000000E+00 0. -1.
</event>
<event>
 7    1  0.5764931E-013  0.5052887E+02  0.7816164E-02  0.1300439E+00
        -11   -1    0    0    0    0  0.00000000000E+00  0.00000000000E+00  0.45593999997E+02  0.45594000000E+02  0.51100000000E-03 0.  1.
         11   -1    0    0    0    0 -0.00000000000E+00 -0.00000000000E+00 -0.45593999997E+02  0.45594000000E+02  0.51100000000E-03 0. -1.
    9900012    2    1    2    0    0  0.29169936248E+02 -0.24562485451E+02  0.14105465321E+02  0.50528867887E+02  0.30000024431E+02 0.  0.
         12    1    1    2    0    0 -0.29169936248E+02  0.24562485451E+02 -0.14105465321E+02  0.40659132113E+02  0.00000000000E+00 0. -1.
         11    1    3    3    0    0  0.41399338076E+01 -0.74026193859E+00  0.47345825300E+01  0.63327175575E+01  0.51100000000E-03 0. -1.
        -11    1    3    3    0    0  0.82958615956E+01 -0.23308729651E+02 -0.52799052311E+00  0.24746655770E+02  0.51100000000E-03 0.  1.
        -12    1    3    3    0    0  0.16734140844E+02 -0.51349386183E+00  0.98988733141E+01  0.19449494560E+02  0.00000000000E+00 0.  1.
</event>
<event>
 7    1  0.5764931E-013  0.5052886E+02  0.7816164E-02  0.1300439E+00
        -11   -1    0    0    0    0  0.00000000000E+00  0.00000000000E+00  0.45593999997E+02  0.45594000000E+02  0.51100000000E-03 0.  1.
         11   -1    0    0    0    0 -0.00000000000E+00 -0.00000000000E+00 -0.45593999997E+02  0.45594000000E+02  0.51100000000E-03 0. -1.
    9900012    2    1    2    0    0 -0.53842864871E+01  0.52034099416E+01  0.39963728519E+02  0.50528860645E+02  0.30000002416E+02 0.  0.
         12    1    1    2    0    0  0.53842864871E+01 -0.52034099416E+01 -0.39963728519E+02  0.40659139355E+02  0.00000000000E+00 0. -1.
         11    1    3    3    0    0 -0.80046476423E+00  0.10971503358E+01 -0.78258879431E+00  0.15674591479E+01  0.51100000000E-03 0. -1.
        -11    1    3    3    0    0  0.44939621475E+01 -0.95848542484E+01  0.13641613373E+02  0.17267273741E+02  0.51100000000E-03 0.  1.
        -12    1    3    3    0    0 -0.90777838703E+01  0.13691113854E+02  0.27104703940E+02  0.31694127756E+02  0.00000000000E+00 0.  1.
</event>
<event>
 7    1  0.5764931E-013  0.5052886E+02  0.7816164E-02  0.1300439E+00
        -11   -1    0    0    0    0  0.00000000000E+00  0.00000000000E+00  0.45593999997E+02  0.45594000000E+02  0.51100000000E-03 0. -1.
         11   -1    0    0    0    0 -0.00000000000E+00 -0.00000000000E+00 -0.45593999997E+02  0.45594000000E+02  0.51100000000E-03 0.  1.
    9900012    2    1    2    0    0 -0.20023053069E+02 -0.74010772717E+01 -0.34604441377E+02  0.50528856355E+02  0.29999989376E+02 0.  0.
         12    1    1    2    0    0  0.20023053069E+02  0.74010772717E+01  0.34604441377E+02  0.40659143645E+02  0.00000000000E+00 0. -1.
         11    1    3    3    0    0 -0.67643178166E+01  0.95208194383E+01 -0.74059713152E+01  0.13829331498E+02  0.51100000000E-03 0. -1.
        -11    1    3    3    0    0 -0.31602748076E+01 -0.13260053197E+02 -0.17847525179E+02  0.22457749284E+02  0.51100000000E-03 0.  1.
        -12    1    3    3    0    0 -0.10098460444E+02 -0.36618435128E+01 -0.93509448828E+01  0.14241775573E+02  0.00000000000E+00 0.  1.
</event>
<event>
 7    1  0.5764931E-013  0.5052887E+02  0.7816164E-02  0.1300439E+00
        -11   -1    0    0    0    0  0.00000000000E+00  0.00000000000E+00  0.45593999997E+02  0.45594000000E+02  0.51100000000E-03 0. -1.
         11   -1    0    0    0    0 -0.00000000000E+00 -0.00000000000E+00 -0.45593999997E+02  0.45594000000E+02  0.51100000000E-03 0.  1.
    9900012    2    1    2    0    0 -0.14820274624E+02 -0.89552876535E+01 -0.36787598209E+02  0.50528866968E+02  0.30000021637E+02 0.  0.
         12    1    1    2    0    0  0.14820274624E+02  0.89552876535E+01  0.36787598209E+02  0.40659133032E+02  0.00000000000E+00 0. -1.
         11    1    3    3    0    0 -0.11369800835E+02  0.69588191833E+01 -0.27529413919E+02  0.30587026113E+02  0.51100000000E-03 0. -1.
        -11    1    3    3    0    0 -0.32393301916E+01 -0.87773328745E+01 -0.87069759578E+01  0.12780698849E+02  0.51100000000E-03 0.  1.
         12    1    3    3    0    0 -0.21114359808E+00 -0.71367739623E+01 -0.55120833218E+00  0.71611420062E+01  0.00000000000E+00 0. -1.
</event>
<event>
 7    1  0.5764931E-013  0.5052886E+02  0.7816164E-02  0.1300439E+00
        -11   -1    0    0    0    0  0.00000000000E+00  0.00000000000E+00  0.45593999997E+02  0.45594000000E+02  0.51100000000E-03 0.  1.
         11   -1    0    0    0    0 -0.00000000000E+00 -0.00000000000E+00 -0.45593999997E+02  0.45594000000E+02  0.51100000000E-03 0. -1.
    9900012    2    1    2    0    0 -0.23030153140E+02  0.10843084547E+02  0.31704968691E+02  0.50528862333E+02  0.30000007546E+02 0.  0.
         12    1    1    2    0    0  0.23030153140E+02 -0.10843084547E+02 -0.31704968691E+02  0.40659137667E+02  0.00000000000E+00 0. -1.
         11    1    3    3    0    0 -0.75860047764E+01 -0.82221749600E+01  0.13184105254E+01  0.11264538877E+02  0.51100000000E-03 0. -1.
        -11    1    3    3    0    0 -0.68610848739E+01  0.65906336699E+01  0.14267167371E+02  0.17148265302E+02  0.51100000000E-03 0.  1.
         12    1    3    3    0    0 -0.85830634894E+01  0.12474625837E+02  0.16119390795E+02  0.22116058153E+02  0.00000000000E+00 0. -1.
</event>
<event>
 7    1  0.5764931E-013  0.5052886E+02  0.7816164E-02  0.1300439E+00
        -11   -1    0    0    0    0  0.00000000000E+00  0.00000000000E+00  0.45593999997E+02  0.45594000000E+02  0.51100000000E-03 0.  1.
         11   -1    0    0    0    0 -0.00000000000E+00 -0.00000000000E+00 -0.45593999997E+02  0.45594000000E+02  0.51100000000E-03 0. -1.
    9900012    2    1    2    0    0  0.19958183247E+02 -0.28711332019E+02  0.20748391733E+02  0.50528862966E+02  0.30000009472E+02 0.  0.
         12    1    1    2    0    0 -0.19958183247E+02  0.28711332019E+02 -0.20748391733E+02  0.40659137034E+02  0.00000000000E+00 0. -1.
         11    1    3    3    0    0  0.17326796027E+02 -0.19037533878E+02  0.15727833867E+02  0.30166377229E+02  0.51100000000E-03 0. -1.
        -11    1    3    3    0    0 -0.33398512378E+01 -0.40427981932E+01 -0.51116526604E+01  0.73231015768E+01  0.51100000000E-03 0.  1.
        -12    1    3    3    0    0  0.59712384572E+01 -0.56309999480E+01  0.10132210527E+02  0.13039384160E+02  0.00000000000E+00 0.  1.
</event>
<event>
 7    1  0.5764931E-013  0.5052886E+02  0.7816164E-02  0.1300439E+00
        -11   -1    0    0    0    0  0.00000000000E+00  0.00000000000E+00  0.45593999997E+02  0.45594000000E+02  0.51100000000E-03 0. -1.
         11   -1    0    0    0    0 -0.00000000000E+00 -0.00000000000E+00 -0.45593999997E+02  0.45594000000E+02  0.51100000000E-03 0.  1.
    9900012    2    1    2    0    0  0.18579547729E+00  0.15577972247E+02 -0.37556058804E+02  0.50528864592E+02  0.30000014413E+02 0.  0.
         12    1    1    2    0    0 -0.18579547729E+00 -0.15577972247E+02  0.37556058804E+02  0.40659135408E+02  0.00000000000E+00 0. -1.
         11    1    3    3    0    0 -0.45900103663E+01 -0.52312267710E+01 -0.30858887416E+01  0.76129257372E+01  0.51100000000E-03 0. -1.
        -11    1    3    3    0    0  0.36804064602E+01  0.56597017683E+01 -0.22750651395E+02  0.23731197926E+02  0.51100000000E-03 0.  1.
         12    1    3    3    0    0  0.10953993835E+01  0.15149497250E+02 -0.11719518667E+02  0.19184740929E+02  0.00000000000E+00 0. -1.
</event>
<event>
 7    1  0.5764931E-013  0.5052886E+02  0.7816164E-02  0.1300439E+00
        -11   -1    0    0    0    0  0.00000000000E+00  0.00000000000E+00  0.45593999997E+02  0.45594000000E+02  0.51100000000E-03 0.  1.
         11   -1    0    0    0    0 -0.00000000000E+00 -0.00000000000E+00 -0.45593999997E+02  0.45594000000E+02  0.51100000000E-03 0. -1.
    9900012    2    1    2    0    0 -0.29915453771E+02  0.13121753843E+02  0.24208492730E+02  0.50528856889E+02  0.29999990999E+02 0.  0.
         12    1    1    2    0    0  0.29915453771E+02 -0.13121753843E+02 -0.24208492730E+02  0.40659143111E+02  0.00000000000E+00 0. -1.
         11    1    3    3    0    0 -0.33770818203E+01 -0.57736698021E+01  0.15375632794E+02  0.16767528997E+02  0.51100000000E-03 0. -1.
        -11    1    3    3    0    0 -0.15267466231E+02  0.10475866031E+02  0.48889512707E+01  0.19150486652E+02  0.51100000000E-03 0.  1.
         12    1    3    3    0    0 -0.11270905720E+02  0.84195576137E+01  0.39439086657E+01  0.14610841240E+02  0.00000000000E+00 0. -1.
</event>
<event>
 7    1  0.5764931E-013  0.5052892E+02  0.7816164E-02  0.1300439E+00
        -11   -1    0    0    0    0  0.00000000000E+00  0.00000000000E+00  0.45593999997E+02  0.45594000000E+02  0.51100000000E-03 0. -1.
         11   -1    0    0    0    0 -0.00000000000E+00 -0.00000000000E+00 -0.45593999997E+02  0.45594000000E+02  0.51100000000E-03 0.  1.
    9900012    2    1    2    0    0 -0.61175624505E+00  0.40461870755E+02  0.39526165696E+01  0.50528924649E+02  0.30000196962E+02 0.  0.
         12    1    1    2    0    0  0.61175624505E+00 -0.40461870755E+02 -0.39526165696E+01  0.40659075351E+02  0.00000000000E+00 0. -1.
         11    1    3    3    0    0 -0.65968503161E+01  0.12854100653E+02  0.60792498663E+01  0.15674935945E+02  0.51100000000E-03 0. -1.
        -11    1    3    3    0    0  0.69021001915E+00  0.50256427060E+01 -0.92845958713E+01  0.10580037582E+02  0.51100000000E-03 0.  1.
        -12    1    3    3    0    0  0.52948840519E+01  0.22582127396E+02  0.71579625745E+01  0.24273951122E+02  0.00000000000E+00 0.  1.
</event>
<event>
 7    1  0.5764931E-013  0.5052885E+02  0.7816164E-02  0.1300439E+00
        -11   -1    0    0    0    0  0.00000000000E+00  0.00000000000E+00  0.45593999997E+02  0.45594000000E+02  0.51100000000E-03 0.  1.
         11   -1    0    0    0    0 -0.00000000000E+00 -0.00000000000E+00 -0.45593999997E+02  0.45594000000E+02  0.51100000000E-03 0. -1.
    9900012    2    1    2    0    0  0.36433941587E+02 -0.18033291430E+02  0.73145926341E+00  0.50528846885E+02  0.29999960591E+02 0.  0.
         12    1    1    2    0    0 -0.36433941587E+02  0.18033291430E+02 -0.73145926341E+00  0.40659153115E+02  0.00000000000E+00 0. -1.
         11    1    3    3    0    0  0.27767006920E+02 -0.14887233525E+02  0.17688895169E+01  0.31555750121E+02  0.51100000000E-03 0. -1.
        -11    1    3    3    0    0  0.96636647248E+01  0.48816633187E+01 -0.11097690907E+01  0.10883411247E+02  0.51100000000E-03 0.  1.
         12    1    3    3    0    0 -0.99673005758E+00 -0.80277212236E+01  0.72338837265E-01  0.80896855167E+01  0.00000000000E+00 0. -1.
</event>
<event>
 7    1  0.5764931E-013  0.5052886E+02  0.7816164E-02  0.1300439E+00
        -11   -1    0    0    0    0  0.00000000000E+00  0.00000000000E+00  0.45593999997E+02  0.45594000000E+02  0.51100000000E-03 0.  1.
         11   -1    0    0    0    0 -0.00000000000E+00 -0.00000000000E+00 -0.45593999997E+02  0.45594000000E+02  0.51100000000E-03 0. -1.
    9900012    2    1    2    0    0 -0.32716011777E+02  0.83033782245E+01  0.22668977536E+02  0.50528855161E+02  0.29999985747E+02 0.  0.
         12    1    1    2    0    0  0.32716011777E+02 -0.83033782245E+01 -0.22668977536E+02  0.40659144839E+02  0.00000000000E+00 0. -1.
         11    1    3    3    0    0 -0.43400836826E+01  0.14402325906E+01 -0.54296922929E+01  0.70987431946E+01  0.51100000000E-03 0. -1.
        -11    1    3    3    0    0 -0.25883799494E+02  0.23713780471E+01  0.16612205926E+02  0.30847364492E+02  0.51100000000E-03 0.  1.
        -12    1    3    3    0    0 -0.24921286003E+01  0.44917675869E+01  0.11486463903E+02  0.12582747475E+02  0.00000000000E+00 0.  1.
</event>
<event>
 7    1  0.5764931E-013  0.5052886E+02  0.7816164E-02  0.1300439E+00
        -11   -1    0    0    0    0  0.00000000000E+00  0.00000000000E+00  0.45593999997E+02  0.45594000000E+02  0.51100000000E-03 0. -1.
         11   -1    0    0    0    0 -0.00000000000E+00 -0.00000000000E+00 -0.45593999997E+02  0.45594000000E+02  0.51100000000E-03 0.  1.
    9900012    2    1    2    0    0  0.87915626817E+01  0.26528667671E+02 -0.29531407088E+02  0.50528858501E+02  0.29999995901E+02 0.  0.
         12    1    1    2    0    0 -0.87915626817E+01 -0.26528667671E+02  0.29531407088E+02  0.40659141499E+02  0.00000000000E+00 0. -1.
         11    1    3    3    0    0  0.24120836791E+01  0.11782342658E+02 -0.25329396236E+02  0.28039615906E+02  0.51100000000E-03 0.  1.
        -11    1    3    3    0    0  0.90859741394E+01  0.13830276553E+02  0.97447498807E+00  0.16576521872E+02  0.51100000000E-03 0. -1.
        -12    1    3    3    0    0 -0.27064951368E+01  0.91604845968E+00 -0.51764858400E+01  0.59127207238E+01  0.00000000000E+00 0.  1.
</event>
<event>
 7    1  0.5764931E-013  0.5052887E+02  0.7816164E-02  0.1300439E+00
        -11   -1    0    0    0    0  0.00000000000E+00  0.00000000000E+00  0.45593999997E+02  0.45594000000E+02  0.51100000000E-03 0.  1.
         11   -1    0    0    0    0 -0.00000000000E+00 -0.00000000000E+00 -0.45593999997E+02  0.45594000000E+02  0.51100000000E-03 0. -1.
    9900012    2    1    2    0    0 -0.89634962956E+01  0.35204784636E+02  0.18260446750E+02  0.50528867660E+02  0.30000023740E+02 0.  0.
         12    1    1    2    0    0  0.89634962956E+01 -0.35204784636E+02 -0.18260446750E+02  0.40659132340E+02  0.00000000000E+00 0. -1.
         11    1    3    3    0    0 -0.47005503568E+01  0.15947486702E+02  0.50905990031E+01  0.17387688295E+02  0.51100000000E-03 0. -1.
        -11    1    3    3    0    0  0.92186084348E+01  0.54056903404E+01  0.72940348719E+01  0.12938592447E+02  0.51100000000E-03 0.  1.
        -12    1    3    3    0    0 -0.13481554374E+02  0.13851607594E+02  0.58758128753E+01  0.20202586919E+02  0.00000000000E+00 0.  1.
</event>
<event>
 7    1  0.5764931E-013  0.5052886E+02  0.7816164E-02  0.1300439E+00
        -11   -1    0    0    0    0  0.00000000000E+00  0.00000000000E+00  0.45593999997E+02  0.45594000000E+02  0.51100000000E-03 0.  1.
         11   -1    0    0    0    0 -0.00000000000E+00 -0.00000000000E+00 -0.45593999997E+02  0.45594000000E+02  0.51100000000E-03 0. -1.
    9900012    2    1    2    0    0 -0.30287993425E+02  0.21658988637E+01  0.27039079108E+02  0.50528862495E+02  0.30000008041E+02 0.  0.
         12    1    1    2    0    0  0.30287993425E+02 -0.21658988637E+01 -0.27039079108E+02  0.40659137505E+02  0.00000000000E+00 0. -1.
         11    1    3    3    0    0  0.19326012271E+00 -0.81646645093E+01  0.54091549227E+01  0.97958181518E+01  0.51100000000E-03 0. -1.
        -11    1    3    3    0    0 -0.15424079358E+02  0.15408902039E+01  0.16318284881E+02  0.22506954223E+02  0.51100000000E-03 0.  1.
         12    1    3    3    0    0 -0.15057174189E+02  0.87896731691E+01  0.53116393042E+01  0.18226090121E+02  0.00000000000E+00 0. -1.
</event>
<event>
 7    1  0.5764931E-013  0.5052876E+02  0.7816164E-02  0.1300439E+00
        -11   -1    0    0    0    0  0.00000000000E+00  0.00000000000E+00  0.45593999997E+02  0.45594000000E+02  0.51100000000E-03 0.  1.
         11   -1    0    0    0    0 -0.00000000000E+00 -0.00000000000E+00 -0.45593999997E+02  0.45594000000E+02  0.51100000000E-03 0. -1.
    9900012    2    1    2    0    0 -0.18978653483E+02  0.14217708752E+02  0.33027890923E+02  0.50528756167E+02  0.29999684844E+02 0.  0.
         12    1    1    2    0    0  0.18978653483E+02 -0.14217708752E+02 -0.33027890923E+02  0.40659243833E+02  0.00000000000E+00 0. -1.
         11    1    3    3    0    0 -0.94351519369E+00 -0.59881038476E+01  0.25444733883E+01  0.65743405521E+01  0.51100000000E-03 0. -1.
        -11    1    3    3    0    0 -0.16795837135E+02  0.11803355321E+02  0.12418436530E+02  0.23992434392E+02  0.51100000000E-03 0.  1.
        -12    1    3    3    0    0 -0.12393011547E+01  0.84024572783E+01  0.18064981005E+02  0.19961981223E+02  0.00000000000E+00 0.  1.
</event>
<event>
 7    1  0.5764931E-013  0.5052888E+02  0.7816164E-02  0.1300439E+00
        -11   -1    0    0    0    0  0.00000000000E+00  0.00000000000E+00  0.45593999997E+02  0.45594000000E+02  0.51100000000E-03 0.  1.
         11   -1    0    0    0    0 -0.00000000000E+00 -0.00000000000E+00 -0.45593999997E+02  0.45594000000E+02  0.51100000000E-03 0. -1.
    9900012    2    1    2    0    0  0.37582893253E+02  0.84569292329E+00  0.15491133694E+02  0.50528876978E+02  0.30000052062E+02 0.  0.
         12    1    1    2    0    0 -0.37582893253E+02 -0.84569292329E+00 -0.15491133694E+02  0.40659123022E+02  0.00000000000E+00 0. -1.
         11    1    3    3    0    0  0.67007629137E+01 -0.96846079080E+01 -0.59780994197E+00  0.11791913795E+02  0.51100000000E-03 0. -1.
        -11    1    3    3    0    0  0.17771889713E+02 -0.86809156928E+00  0.93795944121E+01  0.20113936426E+02  0.51100000000E-03 0.  1.
         12    1    3    3    0    0  0.13110240626E+02  0.11398392401E+02  0.67093492236E+01  0.18623026757E+02  0.00000000000E+00 0. -1.
</event>
<event>
 7    1  0.5764931E-013  0.5052889E+02  0.7816164E-02  0.1300439E+00
        -11   -1    0    0    0    0  0.00000000000E+00  0.00000000000E+00  0.45593999997E+02  0.45594000000E+02  0.51100000000E-03 0.  1.
         11   -1    0    0    0    0 -0.00000000000E+00 -0.00000000000E+00 -0.45593999997E+02  0.45594000000E+02  0.51100000000E-03 0. -1.
    9900012    2    1    2    0    0 -0.34127408618E+02 -0.80330813297E+01  0.20590106010E+02  0.50528894253E+02  0.30000104570E+02 0.  0.
         12    1    1    2    0    0  0.34127408618E+02  0.80330813297E+01 -0.20590106010E+02  0.40659105747E+02  0.00000000000E+00 0. -1.
         11    1    3    3    0    0 -0.32745965349E+01 -0.82685445503E+01 -0.32988052674E+00  0.88994737411E+01  0.51100000000E-03 0. -1.
        -11    1    3    3    0    0 -0.31070625475E+02 -0.88554144848E-01  0.23539632787E+02  0.38980840438E+02  0.51100000000E-03 0.  1.
        -12    1    3    3    0    0  0.21781339186E+00  0.32401736542E+00 -0.26196462504E+01  0.26485800731E+01  0.00000000000E+00 0.  1.
</event>
<event>
 7    1  0.5764931E-013  0.5052886E+02  0.7816164E-02  0.1300439E+00
        -11   -1    0    0    0    0  0.00000000000E+00  0.00000000000E+00  0.45593999997E+02  0.45594000000E+02  0.51100000000E-03 0.  1.
         11   -1    0    0    0    0 -0.00000000000E+00 -0.00000000000E+00 -0.45593999997E+02  0.45594000000E+02  0.51100000000E-03 0. -1.
    9900012    2    1    2    0    0  0.39103260953E+02 -0.10450804823E+02 -0.38576414375E+01  0.50528859133E+02  0.29999997820E+02 0.  0.
         12    1    1    2    0    0 -0.39103260953E+02  0.10450804823E+02  0.38576414375E+01  0.40659140867E+02  0.00000000000E+00 0. -1.
         11    1    3    3    0    0  0.23471542805E+01 -0.11221099584E+01 -0.15333358048E+01  0.30198316056E+01  0.51100000000E-03 0. -1.
        -11    1    3    3    0    0  0.40744117523E+02 -0.84533083933E+01  0.18723600476E+01  0.41653898592E+02  0.51100000000E-03 0.  1.
        -12    1    3    3    0    0 -0.39880108504E+01 -0.87538647135E+00 -0.41966656803E+01  0.58551289353E+01  0.00000000000E+00 0.  1.
</event>
<event>
 7    1  0.5764931E-013  0.5052884E+02  0.7816164E-02  0.1300439E+00
        -11   -1    0    0    0    0  0.00000000000E+00  0.00000000000E+00  0.45593999997E+02  0.45594000000E+02  0.51100000000E-03 0.  1.
         11   -1    0    0    0    0 -0.00000000000E+00 -0.00000000000E+00 -0.45593999997E+02  0.45594000000E+02  0.51100000000E-03 0. -1.
    9900012    2    1    2    0    0  0.19938043362E+00 -0.66098107732E+01  0.40117800271E+02  0.50528840521E+02  0.29999941246E+02 0.  0.
         12    1    1    2    0    0 -0.19938043362E+00  0.66098107732E+01 -0.40117800271E+02  0.40659159479E+02  0.00000000000E+00 0. -1.
         11    1    3    3    0    0 -0.89858243057E+01 -0.58199340936E+01  0.26017915217E+02  0.28134473228E+02  0.51100000000E-03 0.  1.
        -11    1    3    3    0    0  0.12029193520E+02  0.23743939976E+01  0.13255658859E+02  0.18056902714E+02  0.51100000000E-03 0. -1.
        -12    1    3    3    0    0 -0.28439887803E+01 -0.31642706771E+01  0.84422619463E+00  0.43374645783E+01  0.00000000000E+00 0.  1.
</event>
<event>
 7    1  0.5764931E-013  0.5052886E+02  0.7816164E-02  0.1300439E+00
        -11   -1    0    0    0    0  0.00000000000E+00  0.00000000000E+00  0.45593999997E+02  0.45594000000E+02  0.51100000000E-03 0. -1.
         11   -1    0    0    0    0 -0.00000000000E+00 -0.00000000000E+00 -0.45593999997E+02  0.45594000000E+02  0.51100000000E-03 0.  1.
    9900012    2    1    2    0    0 -0.60455831288E+01  0.16661762365E+02 -0.36592381551E+02  0.50528858494E+02  0.29999995877E+02 0.  0.
         12    1    1    2    0    0  0.60455831288E+01 -0.16661762365E+02  0.36592381551E+02  0.40659141506E+02  0.00000000000E+00 0. -1.
         11    1    3    3    0    0 -0.12913737353E+02  0.66936294160E+01 -0.21232998153E+02  0.25737317226E+02  0.51100000000E-03 0.  1.
        -11    1    3    3    0    0  0.93913718934E+01  0.12045649266E+02 -0.15154983804E+02  0.21516715982E+02  0.51100000000E-03 0. -1.
         12    1    3    3    0    0 -0.25232176690E+01 -0.20775163175E+01 -0.20439959365E+00  0.32748252852E+01  0.00000000000E+00 0. -1.
</event>
<event>
 7    1  0.5764931E-013  0.5052886E+02  0.7816164E-02  0.1300439E+00
        -11   -1    0    0    0    0  0.00000000000E+00  0.00000000000E+00  0.45593999997E+02  0.45594000000E+02  0.51100000000E-03 0.  1.
         11   -1    0    0    0    0 -0.00000000000E+00 -0.00000000000E+00 -0.45593999997E+02  0.45594000000E+02  0.51100000000E-03 0. -1.
    9900012    2    1    2    0    0 -0.30172289339E+02  0.19703661140E+02  0.18829877011E+02  0.50528861119E+02  0.30000003858E+02 0.  0.
         12    1    1    2    0    0  0.30172289339E+02 -0.19703661140E+02 -0.18829877011E+02  0.40659138881E+02  0.00000000000E+00 0. -1.
         11    1    3    3    0    0 -0.15727005505E+02  0.22846458301E+02  0.14162326037E+02  0.31142749366E+02  0.51100000000E-03 0. -1.
        -11    1    3    3    0    0  0.18656407003E+01 -0.11881543042E+01  0.14544278976E+01  0.26472035516E+01  0.51100000000E-03 0.  1.
         12    1    3    3    0    0 -0.16310924535E+02 -0.19546428564E+01  0.32131230759E+01  0.16738908202E+02  0.00000000000E+00 0. -1.
</event>
<event>
 7    1  0.5764931E-013  0.5052886E+02  0.7816164E-02  0.1300439E+00
        -11   -1    0    0    0    0  0.00000000000E+00  0.00000000000E+00  0.45593999997E+02  0.45594000000E+02  0.51100000000E-03 0.  1.
         11   -1    0    0    0    0 -0.00000000000E+00 -0.00000000000E+00 -0.45593999997E+02  0.45594000000E+02  0.51100000000E-03 0. -1.
    9900012    2    1    2    0    0 -0.28183789125E+02 -0.25124202894E+02  0.15086890270E+02  0.50528858365E+02  0.29999995485E+02 0.  0.
         12    1    1    2    0    0  0.28183789125E+02  0.25124202894E+02 -0.15086890270E+02  0.40659141635E+02  0.00000000000E+00 0. -1.
         11    1    3    3    0    0  0.18799208634E+01 -0.11561668355E+02  0.84901221474E+01  0.14466805174E+02  0.51100000000E-03 0.  1.
        -11    1    3    3    0    0 -0.20462090569E+02 -0.10609697545E+02 -0.15888877320E+01  0.23103839441E+02  0.51100000000E-03 0. -1.
         12    1    3    3    0    0 -0.96016194200E+01 -0.29528369936E+01  0.81856558550E+01  0.12958213749E+02  0.00000000000E+00 0. -1.
</event>
<event>
 7    1  0.5764931E-013  0.5052886E+02  0.7816164E-02  0.1300439E+00
        -11   -1    0    0    0    0  0.00000000000E+00  0.00000000000E+00  0.45593999997E+02  0.45594000000E+02  0.51100000000E-03 0. -1.
         11   -1    0    0    0    0 -0.00000000000E+00 -0.00000000000E+00 -0.45593999997E+02  0.45594000000E+02  0.51100000000E-03 0.  1.
    9900012    2    1    2    0    0  0.14850033471E+02 -0.10014212501E+02 -0.36501478555E+02  0.50528857329E+02  0.29999992336E+02 0.  0.
         12    1    1    2    0    0 -0.14850033471E+02  0.10014212501E+02  0.36501478555E+02  0.40659142671E+02  0.00000000000E+00 0. -1.
         11    1    3    3    0    0  0.16758512370E+02  0.29791631414E+01 -0.17546046039E+02  0.24445590230E+02  0.51100000000E-03 0.  1.
        -11    1    3    3    0    0  0.25547193614E+01 -0.12717315636E+02 -0.16478538122E+02  0.20971383524E+02  0.51100000000E-03 0. -1.
        -12    1    3    3    0    0 -0.44631982602E+01 -0.27606000646E+00 -0.24768943942E+01  0.51118835743E+01  0.00000000000E+00 0.  1.
</event>
<event>
 7    1  0.5764931E-013  0.5052885E+02  0.7816164E-02  0.1300439E+00
        -11   -1    0    0    0    0  0.00000000000E+00  0.00000000000E+00  0.45593999997E+02  0.45594000000E+02  0.51100000000E-03 0.  1.
         11   -1    0    0    0    0 -0.00000000000E+00 -0.00000000000E+00 -0.45593999997E+02  0.45594000000E+02  0.51100000000E-03 0. -1.
    9900012    2    1    2    0    0  0.28552195784E+02  0.21022732962E+02  0.19899330095E+02  0.50528849449E+02  0.29999968385E+02 0.  0.
         12    1    1    2    0    0 -0.28552195784E+02 -0.21022732962E+02 -0.19899330095E+02  0.40659150551E+02  0.00000000000E+00 0. -1.
         11    1    3    3    0    0  0.38958673811E+00 -0.26460354531E+01  0.66001653758E+01  0.71214791087E+01  0.51100000000E-03 0. -1.
        -11    1    3    3    0    0  0.27513290025E+02  0.18477387907E+02  0.48861951799E+01  0.33500296946E+02  0.51100000000E-03 0.  1.
        -12    1    3    3    0    0  0.64931902080E+00  0.51913805087E+01  0.84129695389E+01  0.99070733943E+01  0.00000000000E+00 0.  1.
</event>
<event>
 7    1  0.5764931E-013  0.5052885E+02  0.7816164E-02  0.1300439E+00
        -11   -1    0    0    0    0  0.00000000000E+00  0.00000000000E+00  0.45593999997E+02  0.45594000000E+02  0.51100000000E-03 0.  1.
         11   -1    0    0    0    0 -0.00000000000E+00 -0.00000000000E+00 -0.45593999997E+02  0.45594000000E+02  0.51100000000E-03 0. -1.
    9900012    2    1    2    0    0 -0.53259945204E+00  0.35642200307E+02  0.19558029567E+02  0.50528848196E+02  0.29999964576E+02 0.  0.
         12    1    1    2    0    0  0.53259945204E+00 -0.35642200307E+02 -0.19558029567E+02  0.40659151804E+02  0.00000000000E+00 0. -1.
         11    1    3    3    0    0 -0.70244346420E+01  0.32321245945E+02  0.15423812657E+02  0.36495199939E+02  0.51100000000E-03 0.  1.
        -11    1    3    3    0    0  0.34457202536E+01 -0.24090610700E+00 -0.36007098889E+01  0.49896027681E+01  0.51100000000E-03 0. -1.
        -12    1    3    3    0    0  0.30461149364E+01  0.35618604689E+01  0.77349267992E+01  0.90440454883E+01  0.00000000000E+00 0.  1.
</event>
<event>
 7    1  0.5764931E-013  0.5052885E+02  0.7816164E-02  0.1300439E+00
        -11   -1    0    0    0    0  0.00000000000E+00  0.00000000000E+00  0.45593999997E+02  0.45594000000E+02  0.51100000000E-03 0.  1.
         11   -1    0    0    0    0 -0.00000000000E+00 -0.00000000000E+00 -0.45593999997E+02  0.45594000000E+02  0.51100000000E-03 0. -1.
    9900012    2    1    2    0    0 -0.15542266117E+02 -0.35067807845E+02 -0.13485292729E+02  0.50528852159E+02  0.29999976624E+02 0.  0.
         12    1    1    2    0    0  0.15542266117E+02  0.35067807845E+02  0.13485292729E+02  0.40659147841E+02  0.00000000000E+00 0. -1.
         11    1    3    3    0    0 -0.56608352251E+01  0.19323546620E+01  0.47713287556E+01  0.76514461600E+01  0.51100000000E-03 0. -1.
        -11    1    3    3    0    0 -0.81575248106E+01 -0.32085892289E+02 -0.13269978514E+02  0.35667100037E+02  0.51100000000E-03 0.  1.
        -12    1    3    3    0    0 -0.17239060816E+01 -0.49142702181E+01 -0.49866429707E+01  0.72103059624E+01  0.00000000000E+00 0.  1.
</event>
<event>
 7    1  0.5764931E-013  0.5052887E+02  0.7816164E-02  0.1300439E+00
        -11   -1    0    0    0    0  0.00000000000E+00  0.00000000000E+00  0.45593999997E+02  0.45594000000E+02  0.51100000000E-03 0. -1.
         11   -1    0    0    0    0 -0.00000000000E+00 -0.00000000000E+00 -0.45593999997E+02  0.45594000000E+02  0.51100000000E-03 0.  1.
    9900012    2    1    2    0    0 -0.17466280524E+02  0.32001981329E+02 -0.17999080368E+02  0.50528872385E+02  0.30000038101E+02 0.  0.
         12    1    1    2    0    0  0.17466280524E+02 -0.32001981329E+02  0.17999080368E+02  0.40659127615E+02  0.00000000000E+00 0. -1.
         11    1    3    3    0    0 -0.31949067131E+01  0.64993892877E+01  0.10829546415E+01  0.73227236078E+01  0.51100000000E-03 0. -1.
        -11    1    3    3    0    0 -0.11328587689E+02  0.25774229643E+02 -0.24312366021E+02  0.37198641837E+02  0.51100000000E-03 0.  1.
        -12    1    3    3    0    0 -0.29427861220E+01 -0.27163760154E+00  0.52303310117E+01  0.60075069404E+01  0.00000000000E+00 0.  1.
</event>
<event>
 7    1  0.5764931E-013  0.5052886E+02  0.7816164E-02  0.1300439E+00
        -11   -1    0    0    0    0  0.00000000000E+00  0.00000000000E+00  0.45593999997E+02  0.45594000000E+02  0.51100000000E-03 0.  1.
         11   -1    0    0    0    0 -0.00000000000E+00 -0.00000000000E+00 -0.45593999997E+02  0.45594000000E+02  0.51100000000E-03 0. -1.
    9900012    2    1    2    0    0 -0.26945300732E+02  0.19176838126E+02  0.23650904949E+02  0.50528860106E+02  0.30000000778E+02 0.  0.
         12    1    1    2    0    0  0.26945300732E+02 -0.19176838126E+02 -0.23650904949E+02  0.40659139894E+02  0.00000000000E+00 0. -1.
         11    1    3    3    0    0 -0.91856184078E+01  0.71994211856E+00 -0.59041995912E+01  0.10943193102E+02  0.51100000000E-03 0. -1.
        -11    1    3    3    0    0 -0.13921849676E+02  0.10367503838E+02  0.18704265306E+02  0.25517691415E+02  0.51100000000E-03 0.  1.
         12    1    3    3    0    0 -0.38378326478E+01  0.80893921691E+01  0.10850839234E+02  0.14067975589E+02  0.00000000000E+00 0. -1.
</event>
<event>
 7    1  0.5764931E-013  0.5052889E+02  0.7816164E-02  0.1300439E+00
        -11   -1    0    0    0    0  0.00000000000E+00  0.00000000000E+00  0.45593999997E+02  0.45594000000E+02  0.51100000000E-03 0.  1.
         11   -1    0    0    0    0 -0.00000000000E+00 -0.00000000000E+00 -0.45593999997E+02  0.45594000000E+02  0.51100000000E-03 0. -1.
    9900012    2    1    2    0    0 -0.16212978478E+02 -0.62966817724E-01  0.37286711170E+02  0.50528887050E+02  0.30000082678E+02 0.  0.
         12    1    1    2    0    0  0.16212978478E+02  0.62966817724E-01 -0.37286711170E+02  0.40659112950E+02  0.00000000000E+00 0. -1.
         11    1    3    3    0    0  0.17147577628E+01  0.77353672069E+01  0.27274974766E+02  0.28402474343E+02  0.51100000000E-03 0. -1.
        -11    1    3    3    0    0 -0.12194888142E+02 -0.65246131955E+01  0.75660398676E+01  0.15764860725E+02  0.51100000000E-03 0.  1.
         12    1    3    3    0    0 -0.57328480993E+01 -0.12737208291E+01  0.24456965364E+01  0.63615519827E+01  0.00000000000E+00 0. -1.
</event>
<event>
 7    1  0.5764931E-013  0.5052892E+02  0.7816164E-02  0.1300439E+00
        -11   -1    0    0    0    0  0.00000000000E+00  0.00000000000E+00  0.45593999997E+02  0.45594000000E+02  0.51100000000E-03 0.  1.
         11   -1    0    0    0    0 -0.00000000000E+00 -0.00000000000E+00 -0.45593999997E+02  0.45594000000E+02  0.51100000000E-03 0. -1.
    9900012    2    1    2    0    0 -0.70243504187E+01 -0.38196572199E+02  0.12035010255E+02  0.50528916164E+02  0.30000171171E+02 0.  0.
         12    1    1    2    0    0  0.70243504187E+01  0.38196572199E+02 -0.12035010255E+02  0.40659083836E+02  0.00000000000E+00 0. -1.
         11    1    3    3    0    0 -0.29098179267E+00  0.19713917749E+00 -0.17320455007E+01  0.17673472032E+01  0.51100000000E-03 0. -1.
        -11    1    3    3    0    0 -0.63183283969E+00 -0.28719181209E+02  0.20681133039E+02  0.35396325319E+02  0.51100000000E-03 0.  1.
        -12    1    3    3    0    0 -0.61015357864E+01 -0.96745301672E+01 -0.69140772833E+01  0.13365243641E+02  0.00000000000E+00 0.  1.
</event>
<event>
 7    1  0.5764931E-013  0.5052886E+02  0.7816164E-02  0.1300439E+00
        -11   -1    0    0    0    0  0.00000000000E+00  0.00000000000E+00  0.45593999997E+02  0.45594000000E+02  0.51100000000E-03 0.  1.
         11   -1    0    0    0    0 -0.00000000000E+00 -0.00000000000E+00 -0.45593999997E+02  0.45594000000E+02  0.51100000000E-03 0. -1.
    9900012    2    1    2    0    0 -0.35031272971E+02  0.13285238714E+02  0.15794869089E+02  0.50528861504E+02  0.30000005029E+02 0.  0.
         12    1    1    2    0    0  0.35031272971E+02 -0.13285238714E+02 -0.15794869089E+02  0.40659138496E+02  0.00000000000E+00 0. -1.
         11    1    3    3    0    0  0.68090355229E+00  0.84098734504E+00 -0.41240809771E+01  0.42636760582E+01  0.51100000000E-03 0. -1.
        -11    1    3    3    0    0 -0.37195692898E+02  0.10983878968E+02  0.16257226523E+02  0.42053092416E+02  0.51100000000E-03 0.  1.
        -12    1    3    3    0    0  0.14835163742E+01  0.14603724009E+01  0.36617235435E+01  0.42120930297E+01  0.00000000000E+00 0.  1.
</event>
<event>
 7    1  0.5764931E-013  0.5052886E+02  0.7816164E-02  0.1300439E+00
        -11   -1    0    0    0    0  0.00000000000E+00  0.00000000000E+00  0.45593999997E+02  0.45594000000E+02  0.51100000000E-03 0.  1.
         11   -1    0    0    0    0 -0.00000000000E+00 -0.00000000000E+00 -0.45593999997E+02  0.45594000000E+02  0.51100000000E-03 0. -1.
    9900012    2    1    2    0    0  0.39483177462E+02 -0.82033204483E+01  0.51913176152E+01  0.50528861452E+02  0.30000004870E+02 0.  0.
         12    1    1    2    0    0 -0.39483177462E+02  0.82033204483E+01 -0.51913176152E+01  0.40659138548E+02  0.00000000000E+00 0. -1.
         11    1    3    3    0    0  0.28594146581E+02  0.42391301243E+01  0.90971895589E+01  0.30304361090E+02  0.51100000000E-03 0.  1.
        -11    1    3    3    0    0  0.64131488919E+00 -0.76005186834E+01  0.13247885591E+01  0.77417203534E+01  0.51100000000E-03 0. -1.
        -12    1    3    3    0    0  0.10247715992E+02 -0.48419318892E+01 -0.52306605027E+01  0.12482780009E+02  0.00000000000E+00 0.  1.
</event>
<event>
 7    1  0.5764931E-013  0.5052886E+02  0.7816164E-02  0.1300439E+00
        -11   -1    0    0    0    0  0.00000000000E+00  0.00000000000E+00  0.45593999997E+02  0.45594000000E+02  0.51100000000E-03 0. -1.
         11   -1    0    0    0    0 -0.00000000000E+00 -0.00000000000E+00 -0.45593999997E+02  0.45594000000E+02  0.51100000000E-03 0.  1.
    9900012    2    1    2    0    0  0.10018850842E+02  0.39396470964E+02 -0.84028009731E+00  0.50528863669E+02  0.30000011607E+02 0.  0.
         12    1    1    2    0    0 -0.10018850842E+02 -0.39396470964E+02  0.84028009731E+00  0.40659136331E+02  0.00000000000E+00 0. -1.
         11    1    3    3    0    0  0.85466497339E+01  0.19026321708E+02  0.68505811140E+01  0.21953965502E+02  0.51100000000E-03 0. -1.
        -11    1    3    3    0    0 -0.78197550566E+01  0.12136067324E+02 -0.10009196385E+01  0.14471853358E+02  0.51100000000E-03 0.  1.
         12    1    3    3    0    0  0.92919561643E+01  0.82340819316E+01 -0.66899415729E+01  0.14103044808E+02  0.00000000000E+00 0. -1.
</event>
<event>
 7    1  0.5764931E-013  0.5052886E+02  0.7816164E-02  0.1300439E+00
        -11   -1    0    0    0    0  0.00000000000E+00  0.00000000000E+00  0.45593999997E+02  0.45594000000E+02  0.51100000000E-03 0.  1.
         11   -1    0    0    0    0 -0.00000000000E+00 -0.00000000000E+00 -0.45593999997E+02  0.45594000000E+02  0.51100000000E-03 0. -1.
    9900012    2    1    2    0    0  0.31101733785E+02 -0.22586709274E+02  0.13254764036E+02  0.50528855273E+02  0.29999986089E+02 0.  0.
         12    1    1    2    0    0 -0.31101733785E+02  0.22586709274E+02 -0.13254764036E+02  0.40659144727E+02  0.00000000000E+00 0. -1.
         11    1    3    3    0    0  0.67730932999E+01 -0.18757447173E+02  0.52143394770E+01  0.20613247045E+02  0.51100000000E-03 0. -1.
        -11    1    3    3    0    0  0.78932592562E+01  0.57429988346E+01  0.34147255087E+01  0.10341466427E+02  0.51100000000E-03 0.  1.
        -12    1    3    3    0    0  0.16435381229E+02 -0.95722609354E+01  0.46256990501E+01  0.19574141801E+02  0.00000000000E+00 0.  1.
</event>
<event>
 7    1  0.5764931E-013  0.5052886E+02  0.7816164E-02  0.1300439E+00
        -11   -1    0    0    0    0  0.00000000000E+00  0.00000000000E+00  0.45593999997E+02  0.45594000000E+02  0.51100000000E-03 0.  1.
         11   -1    0    0    0    0 -0.00000000000E+00 -0.00000000000E+00 -0.45593999997E+02  0.45594000000E+02  0.51100000000E-03 0. -1.
    9900012    2    1    2    0    0 -0.14865980500E+02  0.86795322200E+00  0.37834045951E+02  0.50528858937E+02  0.29999997224E+02 0.  0.
         12    1    1    2    0    0  0.14865980500E+02 -0.86795322200E+00 -0.37834045951E+02  0.40659141063E+02  0.00000000000E+00 0. -1.
         11    1    3    3    0    0  0.66184229794E+01 -0.29900285301E+01  0.13416239749E+02  0.15255795050E+02  0.51100000000E-03 0. -1.
        -11    1    3    3    0    0 -0.19636963781E+02 -0.32335189100E-01  0.23904320671E+02  0.30935868165E+02  0.51100000000E-03 0.  1.
        -12    1    3    3    0    0 -0.18474396978E+01  0.38903169412E+01  0.51348553080E+00  0.43371957220E+01  0.00000000000E+00 0.  1.
</event>
<event>
 7    1  0.5764931E-013  0.5052886E+02  0.7816164E-02  0.1300439E+00
        -11   -1    0    0    0    0  0.00000000000E+00  0.00000000000E+00  0.45593999997E+02  0.45594000000E+02  0.51100000000E-03 0.  1.
         11   -1    0    0    0    0 -0.00000000000E+00 -0.00000000000E+00 -0.45593999997E+02  0.45594000000E+02  0.51100000000E-03 0. -1.
    9900012    2    1    2    0    0  0.33199619180E+02 -0.23467051325E+02  0.49874860505E+00  0.50528856358E+02  0.29999989385E+02 0.  0.
         12    1    1    2    0    0 -0.33199619180E+02  0.23467051325E+02 -0.49874860505E+00  0.40659143642E+02  0.00000000000E+00 0. -1.
         11    1    3    3    0    0 -0.91605571612E+00 -0.52560996577E+01 -0.87017182412E-01  0.53360391619E+01  0.51100000000E-03 0. -1.
        -11    1    3    3    0    0  0.26991310113E+02 -0.72382494864E+01 -0.85642282483E+01  0.29227881945E+02  0.51100000000E-03 0.  1.
        -12    1    3    3    0    0  0.71243647825E+01 -0.10972702181E+02  0.91499940358E+01  0.15964935251E+02  0.00000000000E+00 0.  1.
</event>
<event>
 7    1  0.5764931E-013  0.5052886E+02  0.7816164E-02  0.1300439E+00
        -11   -1    0    0    0    0  0.00000000000E+00  0.00000000000E+00  0.45593999997E+02  0.45594000000E+02  0.51100000000E-03 0.  1.
         11   -1    0    0    0    0 -0.00000000000E+00 -0.00000000000E+00 -0.45593999997E+02  0.45594000000E+02  0.51100000000E-03 0. -1.
    9900012    2    1    2    0    0 -0.82637887150E+01 -0.61703319057E+01  0.39329407468E+02  0.50528862140E+02  0.30000006961E+02 0.  0.
         12    1    1    2    0    0  0.82637887150E+01  0.61703319057E+01 -0.39329407468E+02  0.40659137860E+02  0.00000000000E+00 0. -1.
         11    1    3    3    0    0  0.22147797574E+01 -0.10762523861E+02  0.57958732478E+01  0.12422935088E+02  0.51100000000E-03 0. -1.
        -11    1    3    3    0    0 -0.24749955422E+01 -0.24014849504E+01  0.22585330871E+02  0.22847098365E+02  0.51100000000E-03 0.  1.
         12    1    3    3    0    0 -0.80035729302E+01  0.69936769061E+01  0.10948203349E+02  0.15258828686E+02  0.00000000000E+00 0. -1.
</event>
<event>
 7    1  0.5764931E-013  0.5052886E+02  0.7816164E-02  0.1300439E+00
        -11   -1    0    0    0    0  0.00000000000E+00  0.00000000000E+00  0.45593999997E+02  0.45594000000E+02  0.51100000000E-03 0.  1.
         11   -1    0    0    0    0 -0.00000000000E+00 -0.00000000000E+00 -0.45593999997E+02  0.45594000000E+02  0.51100000000E-03 0. -1.
    9900012    2    1    2    0    0 -0.10128180600E+02 -0.32092757322E+02  0.22817547602E+02  0.50528860887E+02  0.30000003153E+02 0.  0.
         12    1    1    2    0    0  0.10128180600E+02  0.32092757322E+02 -0.22817547602E+02  0.40659139113E+02  0.00000000000E+00 0. -1.
         11    1    3    3    0    0 -0.64951461642E+01 -0.16185316679E+02 -0.14296764100E+01  0.17498439205E+02  0.51100000000E-03 0. -1.
        -11    1    3    3    0    0  0.54234408770E+01 -0.83938735404E+01  0.15182687464E+02  0.18176490939E+02  0.51100000000E-03 0.  1.
         12    1    3    3    0    0 -0.90564753131E+01 -0.75135671023E+01  0.90645365480E+01  0.14853930743E+02  0.00000000000E+00 0. -1.
</event>
<event>
 7    1  0.5764931E-013  0.5052885E+02  0.7816164E-02  0.1300439E+00
        -11   -1    0    0    0    0  0.00000000000E+00  0.00000000000E+00  0.45593999997E+02  0.45594000000E+02  0.51100000000E-03 0.  1.
         11   -1    0    0    0    0 -0.00000000000E+00 -0.00000000000E+00 -0.45593999997E+02  0.45594000000E+02  0.51100000000E-03 0. -1.
    9900012    2    1    2    0    0  0.18658732291E+02 -0.18870769706E+02  0.30804414477E+02  0.50528853535E+02  0.29999980806E+02 0.  0.
         12    1    1    2    0    0 -0.18658732291E+02  0.18870769706E+02 -0.30804414477E+02  0.40659146465E+02  0.00000000000E+00 0. -1.
         11    1    3    3    0    0  0.18453543716E+02 -0.72048718933E+01  0.30370038385E+01  0.20041627859E+02  0.51100000000E-03 0. -1.
        -11    1    3    3    0    0  0.20182536501E+00 -0.58971111988E+01  0.19732850428E+02  0.20596165669E+02  0.51100000000E-03 0.  1.
         12    1    3    3    0    0  0.33632096069E-02 -0.57687866136E+01  0.80345602097E+01  0.98910600073E+01  0.00000000000E+00 0. -1.
</event>
<event>
 7    1  0.5764931E-013  0.5052886E+02  0.7816164E-02  0.1300439E+00
        -11   -1    0    0    0    0  0.00000000000E+00  0.00000000000E+00  0.45593999997E+02  0.45594000000E+02  0.51100000000E-03 0.  1.
         11   -1    0    0    0    0 -0.00000000000E+00 -0.00000000000E+00 -0.45593999997E+02  0.45594000000E+02  0.51100000000E-03 0. -1.
    9900012    2    1    2    0    0 -0.33420516351E+02  0.21097587401E+02  0.95460104814E+01  0.50528862978E+02  0.30000009507E+02 0.  0.
         12    1    1    2    0    0  0.33420516351E+02 -0.21097587401E+02 -0.95460104814E+01  0.40659137022E+02  0.00000000000E+00 0. -1.
         11    1    3    3    0    0 -0.51609434579E+01  0.65435894386E+01 -0.27062776680E+01  0.87622964567E+01  0.51100000000E-03 0. -1.
        -11    1    3    3    0    0 -0.15982703758E+02  0.17925636069E+02  0.15555257554E+02  0.28613655581E+02  0.51100000000E-03 0.  1.
        -12    1    3    3    0    0 -0.12276869135E+02 -0.33716381074E+01 -0.33029694048E+01  0.13152910940E+02  0.00000000000E+00 0.  1.
</event>
<event>
 7    1  0.5764931E-013  0.5052883E+02  0.7816164E-02  0.1300439E+00
        -11   -1    0    0    0    0  0.00000000000E+00  0.00000000000E+00  0.45593999997E+02  0.45594000000E+02  0.51100000000E-03 0.  1.
         11   -1    0    0    0    0 -0.00000000000E+00 -0.00000000000E+00 -0.45593999997E+02  0.45594000000E+02  0.51100000000E-03 0. -1.
    9900012    2    1    2    0    0 -0.16423068847E+02  0.13467219750E+02  0.34671092852E+02  0.50528832796E+02  0.29999917768E+02 0.  0.
         12    1    1    2    0    0  0.16423068847E+02 -0.13467219750E+02 -0.34671092852E+02  0.40659167204E+02  0.00000000000E+00 0. -1.
         11    1    3    3    0    0  0.40310836178E+01  0.10395451056E+02  0.84797405691E+01  0.14007891996E+02  0.51100000000E-03 0. -1.
        -11    1    3    3    0    0 -0.12413336663E+02  0.23180270625E+01  0.45513925815E+01  0.13423090228E+02  0.51100000000E-03 0.  1.
         12    1    3    3    0    0 -0.80408158020E+01  0.75374163140E+00  0.21639959701E+02  0.23097850572E+02  0.00000000000E+00 0. -1.
</event>
<event>
 7    1  0.5764931E-013  0.5052886E+02  0.7816164E-02  0.1300439E+00
        -11   -1    0    0    0    0  0.00000000000E+00  0.00000000000E+00  0.45593999997E+02  0.45594000000E+02  0.51100000000E-03 0. -1.
         11   -1    0    0    0    0 -0.00000000000E+00 -0.00000000000E+00 -0.45593999997E+02  0.45594000000E+02  0.51100000000E-03 0.  1.
    9900012    2    1    2    0    0 -0.53732955894E+01 -0.20904771400E+02 -0.34456988853E+02  0.50528857687E+02  0.29999993427E+02 0.  0.
         12    1    1    2    0    0  0.53732955894E+01  0.20904771400E+02  0.34456988853E+02  0.40659142313E+02  0.00000000000E+00 0. -1.
         11    1    3    3    0    0 -0.91504476090E+00 -0.53546820168E+01  0.23347849064E+01  0.59127952134E+01  0.51100000000E-03 0. -1.
        -11    1    3    3    0    0  0.10684636580E+00  0.27904085490E+01 -0.17082044153E+02  0.17308784727E+02  0.51100000000E-03 0.  1.
        -12    1    3    3    0    0 -0.45650971943E+01 -0.18340497932E+02 -0.19709729606E+02  0.27307277747E+02  0.00000000000E+00 0.  1.
</event>
<event>
 7    1  0.5764931E-013  0.5052886E+02  0.7816164E-02  0.1300439E+00
        -11   -1    0    0    0    0  0.00000000000E+00  0.00000000000E+00  0.45593999997E+02  0.45594000000E+02  0.51100000000E-03 0.  1.
         11   -1    0    0    0    0 -0.00000000000E+00 -0.00000000000E+00 -0.45593999997E+02  0.45594000000E+02  0.51100000000E-03 0. -1.
    9900012    2    1    2    0    0  0.13924531219E+02 -0.84357700600E+01  0.37257358936E+02  0.50528861039E+02  0.30000003613E+02 0.  0.
         12    1    1    2    0    0 -0.13924531219E+02  0.84357700600E+01 -0.37257358936E+02  0.40659138961E+02  0.00000000000E+00 0. -1.
         11    1    3    3    0    0  0.25935958094E+00  0.43299724185E+01  0.27531006309E+02  0.27870633957E+02  0.51100000000E-03 0. -1.
        -11    1    3    3    0    0  0.94064007478E+01 -0.35960509455E+01  0.67336025690E+01  0.12114180172E+02  0.51100000000E-03 0.  1.
         12    1    3    3    0    0  0.42587708905E+01 -0.91696915330E+01  0.29927500583E+01  0.10544046909E+02  0.00000000000E+00 0. -1.
</event>
<event>
 7    1  0.5764931E-013  0.5052886E+02  0.7816164E-02  0.1300439E+00
        -11   -1    0    0    0    0  0.00000000000E+00  0.00000000000E+00  0.45593999997E+02  0.45594000000E+02  0.51100000000E-03 0. -1.
         11   -1    0    0    0    0 -0.00000000000E+00 -0.00000000000E+00 -0.45593999997E+02  0.45594000000E+02  0.51100000000E-03 0.  1.
    9900012    2    1    2    0    0  0.38418409089E+02  0.96789246959E+01 -0.91383802612E+01  0.50528859158E+02  0.29999997896E+02 0.  0.
         12    1    1    2    0    0 -0.38418409089E+02 -0.96789246959E+01  0.91383802612E+01  0.40659140842E+02  0.00000000000E+00 0. -1.
         11    1    3    3    0    0 -0.77209624904E+00 -0.55897290413E+01 -0.60996573656E+01  0.83094538697E+01  0.51100000000E-03 0. -1.
        -11    1    3    3    0    0  0.19035589400E+02  0.64188836748E+01 -0.10149018710E+01  0.20114317227E+02  0.51100000000E-03 0.  1.
         12    1    3    3    0    0  0.20154915939E+02  0.88497700625E+01 -0.20238210246E+01  0.22105088061E+02  0.00000000000E+00 0. -1.
</event>
<event>
 7    1  0.5764931E-013  0.5052886E+02  0.7816164E-02  0.1300439E+00
        -11   -1    0    0    0    0  0.00000000000E+00  0.00000000000E+00  0.45593999997E+02  0.45594000000E+02  0.51100000000E-03 0.  1.
         11   -1    0    0    0    0 -0.00000000000E+00 -0.00000000000E+00 -0.45593999997E+02  0.45594000000E+02  0.51100000000E-03 0. -1.
    9900012    2    1    2    0    0 -0.56118234503E+01 -0.30104297435E+02  0.26747040119E+02  0.50528862754E+02  0.30000008826E+02 0.  0.
         12    1    1    2    0    0  0.56118234503E+01  0.30104297435E+02 -0.26747040119E+02  0.40659137246E+02  0.00000000000E+00 0. -1.
         11    1    3    3    0    0 -0.34520358738E+01  0.47393054853E+00  0.45830655118E+00  0.35144284023E+01  0.51100000000E-03 0. -1.
        -11    1    3    3    0    0  0.29476838300E+01 -0.31461757435E+02  0.15832587573E+02  0.35344049717E+02  0.51100000000E-03 0.  1.
        -12    1    3    3    0    0 -0.51074714065E+01  0.88352945164E+00  0.10456145994E+02  0.11670384634E+02  0.00000000000E+00 0.  1.
</event>
<event>
 7    1  0.5764931E-013  0.5052886E+02  0.7816164E-02  0.1300439E+00
        -11   -1    0    0    0    0  0.00000000000E+00  0.00000000000E+00  0.45593999997E+02  0.45594000000E+02  0.51100000000E-03 0.  1.
         11   -1    0    0    0    0 -0.00000000000E+00 -0.00000000000E+00 -0.45593999997E+02  0.45594000000E+02  0.51100000000E-03 0. -1.
    9900012    2    1    2    0    0  0.22944888676E+02  0.28858296517E+01  0.33442034966E+02  0.50528860415E+02  0.30000001718E+02 0.  0.
         12    1    1    2    0    0 -0.22944888676E+02 -0.28858296517E+01 -0.33442034966E+02  0.40659139585E+02  0.00000000000E+00 0. -1.
         11    1    3    3    0    0  0.13483957866E+02  0.12080038368E+02  0.81185692302E+01  0.19840756369E+02  0.51100000000E-03 0. -1.
        -11    1    3    3    0    0  0.11223124530E+02 -0.86201298256E+01  0.16802501488E+02  0.21967913396E+02  0.51100000000E-03 0.  1.
         12    1    3    3    0    0 -0.17621937201E+01 -0.57407889035E+00  0.85209642472E+01  0.87201906506E+01  0.00000000000E+00 0. -1.
</event>
<event>
 7    1  0.5764931E-013  0.5052886E+02  0.7816164E-02  0.1300439E+00
        -11   -1    0    0    0    0  0.00000000000E+00  0.00000000000E+00  0.45593999997E+02  0.45594000000E+02  0.51100000000E-03 0.  1.
         11   -1    0    0    0    0 -0.00000000000E+00 -0.00000000000E+00 -0.45593999997E+02  0.45594000000E+02  0.51100000000E-03 0. -1.
    9900012    2    1    2    0    0 -0.18607304160E+02 -0.15024411938E+02  0.32881623017E+02  0.50528857678E+02  0.29999993397E+02 0.  0.
         12    1    1    2    0    0  0.18607304160E+02  0.15024411938E+02 -0.32881623017E+02  0.40659142322E+02  0.00000000000E+00 0. -1.
         11    1    3    3    0    0  0.26270127887E+01 -0.11282317828E+01 -0.22603507340E+01  0.36446246514E+01  0.51100000000E-03 0. -1.
        -11    1    3    3    0    0 -0.12457732473E+01 -0.65642270293E+01  0.19074906006E+02  0.20211211415E+02  0.51100000000E-03 0.  1.
         12    1    3    3    0    0 -0.19988543701E+02 -0.73319531258E+01  0.16067067745E+02  0.26673021611E+02  0.00000000000E+00 0. -1.
</event>
<event>
 7    1  0.5764931E-013  0.5052886E+02  0.7816164E-02  0.1300439E+00
        -11   -1    0    0    0    0  0.00000000000E+00  0.00000000000E+00  0.45593999997E+02  0.45594000000E+02  0.51100000000E-03 0. -1.
         11   -1    0    0    0    0 -0.00000000000E+00 -0.00000000000E+00 -0.45593999997E+02  0.45594000000E+02  0.51100000000E-03 0.  1.
    9900012    2    1    2    0    0  0.32292505934E+02  0.96492981421E+01 -0.22743143811E+02  0.50528862226E+02  0.30000007223E+02 0.  0.
         12    1    1    2    0    0 -0.32292505934E+02 -0.96492981421E+01  0.22743143811E+02  0.40659137774E+02  0.00000000000E+00 0. -1.
         11    1    3    3    0    0  0.20064645235E+01 -0.25105095921E+01  0.90730171499E+00  0.33394243455E+01  0.51100000000E-03 0. -1.
        -11    1    3    3    0    0  0.10100431161E+02  0.11369689223E+02 -0.22235428427E+02  0.26938871919E+02  0.51100000000E-03 0.  1.
        -12    1    3    3    0    0  0.20185610249E+02  0.79011851130E+00 -0.14150170990E+01  0.20250565962E+02  0.00000000000E+00 0.  1.
</event>
<event>
 7    1  0.5764931E-013  0.5052885E+02  0.7816164E-02  0.1300439E+00
        -11   -1    0    0    0    0  0.00000000000E+00  0.00000000000E+00  0.45593999997E+02  0.45594000000E+02  0.51100000000E-03 0.  1.
         11   -1    0    0    0    0 -0.00000000000E+00 -0.00000000000E+00 -0.45593999997E+02  0.45594000000E+02  0.51100000000E-03 0. -1.
    9900012    2    1    2    0    0 -0.76723851797E+01  0.17316299417E+01  0.39891130725E+02  0.50528851618E+02  0.29999974979E+02 0.  0.
         12    1    1    2    0    0  0.76723851797E+01 -0.17316299417E+01 -0.39891130725E+02  0.40659148382E+02  0.00000000000E+00 0. -1.
         11    1    3    3    0    0 -0.10170045295E+02  0.10023899992E+01 -0.25628068219E+00  0.10222538191E+02  0.51100000000E-03 0. -1.
        -11    1    3    3    0    0  0.10012815765E+01  0.15540422682E+01  0.22884658228E+02  0.22959207187E+02  0.51100000000E-03 0.  1.
         12    1    3    3    0    0  0.14963785386E+01 -0.82480232574E+00  0.17262753179E+02  0.17347106241E+02  0.00000000000E+00 0. -1.
</event>
<event>
 7    1  0.5764931E-013  0.5052901E+02  0.7816164E-02  0.1300438E+00
        -11   -1    0    0    0    0  0.00000000000E+00  0.00000000000E+00  0.45593999997E+02  0.45594000000E+02  0.51100000000E-03 0.  1.
         11   -1    0    0    0    0 -0.00000000000E+00 -0.00000000000E+00 -0.45593999997E+02  0.45594000000E+02  0.51100000000E-03 0. -1.
    9900012    2    1    2    0    0  0.60288333252E+01  0.36650352861E+02  0.16539602344E+02  0.50529007860E+02  0.30000449889E+02 0.  0.
         12    1    1    2    0    0 -0.60288333252E+01 -0.36650352861E+02 -0.16539602344E+02  0.40658992140E+02  0.00000000000E+00 0. -1.
         11    1    3    3    0    0  0.53518108149E+01 -0.30847572912E+00 -0.54148326826E+00  0.53879718508E+01  0.51100000000E-03 0. -1.
        -11    1    3    3    0    0  0.18624354951E+00  0.32302379443E+02  0.56568102770E+01  0.32794479826E+02  0.51100000000E-03 0.  1.
        -12    1    3    3    0    0  0.49077896072E+00  0.46564491476E+01  0.11424275335E+02  0.12346556183E+02  0.00000000000E+00 0.  1.
</event>
<event>
 7    1  0.5764931E-013  0.5052886E+02  0.7816164E-02  0.1300439E+00
        -11   -1    0    0    0    0  0.00000000000E+00  0.00000000000E+00  0.45593999997E+02  0.45594000000E+02  0.51100000000E-03 0.  1.
         11   -1    0    0    0    0 -0.00000000000E+00 -0.00000000000E+00 -0.45593999997E+02  0.45594000000E+02  0.51100000000E-03 0. -1.
    9900012    2    1    2    0    0 -0.21185019541E+02 -0.21458178997E+02  0.27274660881E+02  0.50528860498E+02  0.30000001970E+02 0.  0.
         12    1    1    2    0    0  0.21185019541E+02  0.21458178997E+02 -0.27274660881E+02  0.40659139502E+02  0.00000000000E+00 0. -1.
         11    1    3    3    0    0  0.13339103494E+01 -0.14260110252E+01 -0.12768032863E+01  0.23330347527E+01  0.51100000000E-03 0. -1.
        -11    1    3    3    0    0 -0.17949809449E+02 -0.22569903601E+01  0.22499528674E+02  0.28870719692E+02  0.51100000000E-03 0.  1.
        -12    1    3    3    0    0 -0.45691204412E+01 -0.17775177612E+02  0.60519354941E+01  0.19325106053E+02  0.00000000000E+00 0.  1.
</event>
<event>
 7    1  0.5764931E-013  0.5052887E+02  0.7816164E-02  0.1300439E+00
        -11   -1    0    0    0    0  0.00000000000E+00  0.00000000000E+00  0.45593999997E+02  0.45594000000E+02  0.51100000000E-03 0.  1.
         11   -1    0    0    0    0 -0.00000000000E+00 -0.00000000000E+00 -0.45593999997E+02  0.45594000000E+02  0.51100000000E-03 0. -1.
    9900012    2    1    2    0    0  0.28095354867E+02  0.20006957256E+01  0.29322567493E+02  0.50528871715E+02  0.30000036066E+02 0.  0.
         12    1    1    2    0    0 -0.28095354867E+02 -0.20006957256E+01 -0.29322567493E+02  0.40659128285E+02  0.00000000000E+00 0. -1.
         11    1    3    3    0    0 -0.56046479996E+01 -0.24405373268E+00  0.16196688299E+01  0.58390897238E+01  0.51100000000E-03 0. -1.
        -11    1    3    3    0    0  0.10873689054E+02 -0.15300862172E+01  0.14026524599E+02  0.17813524919E+02  0.51100000000E-03 0.  1.
         12    1    3    3    0    0  0.22826313813E+02  0.37748356754E+01  0.13676374064E+02  0.26876257072E+02  0.00000000000E+00 0. -1.
</event>
<event>
 7    1  0.5764931E-013  0.5052886E+02  0.7816164E-02  0.1300439E+00
        -11   -1    0    0    0    0  0.00000000000E+00  0.00000000000E+00  0.45593999997E+02  0.45594000000E+02  0.51100000000E-03 0.  1.
         11   -1    0    0    0    0 -0.00000000000E+00 -0.00000000000E+00 -0.45593999997E+02  0.45594000000E+02  0.51100000000E-03 0. -1.
    9900012    2    1    2    0    0 -0.18763850782E+02 -0.19326997264E+02  0.30455721130E+02  0.50528857499E+02  0.29999992853E+02 0.  0.
         12    1    1    2    0    0  0.18763850782E+02  0.19326997264E+02 -0.30455721130E+02  0.40659142501E+02  0.00000000000E+00 0. -1.
         11    1    3    3    0    0 -0.95490349843E+00  0.35431362912E+01  0.24781866844E+01  0.44279865598E+01  0.51100000000E-03 0. -1.
        -11    1    3    3    0    0 -0.19923852820E+02 -0.10805537850E+02  0.11073880918E+02  0.25225986567E+02  0.51100000000E-03 0.  1.
        -12    1    3    3    0    0  0.21149055368E+01 -0.12064595705E+02  0.16903653528E+02  0.20874884372E+02  0.00000000000E+00 0.  1.
</event>
<event>
 7    1  0.5764931E-013  0.5052888E+02  0.7816164E-02  0.1300439E+00
        -11   -1    0    0    0    0  0.00000000000E+00  0.00000000000E+00  0.45593999997E+02  0.45594000000E+02  0.51100000000E-03 0. -1.
         11   -1    0    0    0    0 -0.00000000000E+00 -0.00000000000E+00 -0.45593999997E+02  0.45594000000E+02  0.51100000000E-03 0.  1.
    9900012    2    1    2    0    0  0.96907572657E+01 -0.25005244286E+02 -0.30561260462E+02  0.50528884673E+02  0.30000075451E+02 0.  0.
         12    1    1    2    0    0 -0.96907572657E+01  0.25005244286E+02  0.30561260462E+02  0.40659115327E+02  0.00000000000E+00 0. -1.
         11    1    3    3    0    0 -0.14709531857E+01 -0.20635271924E+02 -0.36639419825E+01  0.21009584046E+02  0.51100000000E-03 0. -1.
        -11    1    3    3    0    0  0.46179228271E+01 -0.80511256131E+00 -0.11281213727E+02  0.12216349736E+02  0.51100000000E-03 0.  1.
         12    1    3    3    0    0  0.65437876244E+01 -0.35648598002E+01 -0.15616104753E+02  0.17302950890E+02  0.00000000000E+00 0. -1.
</event>
<event>
 7    1  0.5764931E-013  0.5052886E+02  0.7816164E-02  0.1300439E+00
        -11   -1    0    0    0    0  0.00000000000E+00  0.00000000000E+00  0.45593999997E+02  0.45594000000E+02  0.51100000000E-03 0. -1.
         11   -1    0    0    0    0 -0.00000000000E+00 -0.00000000000E+00 -0.45593999997E+02  0.45594000000E+02  0.51100000000E-03 0.  1.
    9900012    2    1    2    0    0  0.32557309152E+02  0.10908244029E+02  0.21776081678E+02  0.50528857114E+02  0.29999991683E+02 0.  0.
         12    1    1    2    0    0 -0.32557309152E+02 -0.10908244029E+02 -0.21776081678E+02  0.40659142886E+02  0.00000000000E+00 0. -1.
         11    1    3    3    0    0  0.19183351217E+01 -0.60380760117E+01  0.12112935562E+02  0.13669732249E+02  0.51100000000E-03 0. -1.
        -11    1    3    3    0    0  0.17157507719E+02  0.60694404757E+01  0.39900252692E+01  0.18631652657E+02  0.51100000000E-03 0.  1.
         12    1    3    3    0    0  0.13481466311E+02  0.10876879565E+02  0.56731208463E+01  0.18227472208E+02  0.00000000000E+00 0. -1.
</event>
<event>
 7    1  0.5764931E-013  0.5052885E+02  0.7816164E-02  0.1300439E+00
        -11   -1    0    0    0    0  0.00000000000E+00  0.00000000000E+00  0.45593999997E+02  0.45594000000E+02  0.51100000000E-03 0. -1.
         11   -1    0    0    0    0 -0.00000000000E+00 -0.00000000000E+00 -0.45593999997E+02  0.45594000000E+02  0.51100000000E-03 0.  1.
    9900012    2    1    2    0    0 -0.11041839675E+02  0.38576006016E+02 -0.65677864899E+01  0.50528852408E+02  0.29999977379E+02 0.  0.
         12    1    1    2    0    0  0.11041839675E+02 -0.38576006016E+02  0.65677864899E+01  0.40659147592E+02  0.00000000000E+00 0. -1.
         11    1    3    3    0    0 -0.79818966987E+01  0.84979077282E+01  0.63760435205E+01  0.13288304704E+02  0.51100000000E-03 0. -1.
        -11    1    3    3    0    0 -0.33292487971E+01  0.30013059650E+02 -0.66246092526E+01  0.30915256673E+02  0.51100000000E-03 0.  1.
        -12    1    3    3    0    0  0.26930582091E+00  0.65038637401E-01 -0.63192207577E+01  0.63252910316E+01  0.00000000000E+00 0.  1.
</event>
<event>
 7    1  0.5764931E-013  0.5052885E+02  0.7816164E-02  0.1300439E+00
        -11   -1    0    0    0    0  0.00000000000E+00  0.00000000000E+00  0.45593999997E+02  0.45594000000E+02  0.51100000000E-03 0.  1.
         11   -1    0    0    0    0 -0.00000000000E+00 -0.00000000000E+00 -0.45593999997E+02  0.45594000000E+02  0.51100000000E-03 0. -1.
    9900012    2    1    2    0    0  0.23516218956E+02 -0.11036643450E+02  0.31278523606E+02  0.50528854760E+02  0.29999984530E+02 0.  0.
         12    1    1    2    0    0 -0.23516218956E+02  0.11036643450E+02 -0.31278523606E+02  0.40659145240E+02  0.00000000000E+00 0. -1.
         11    1    3    3    0    0  0.13532999555E+01  0.48435528493E+01 -0.47231162990E-01  0.50292798706E+01  0.51100000000E-03 0. -1.
        -11    1    3    3    0    0  0.12554583057E+02 -0.19010646127E+02  0.23381860266E+02  0.32645575683E+02  0.51100000000E-03 0.  1.
        -12    1    3    3    0    0  0.96083359431E+01  0.31304498283E+01  0.79438945029E+01  0.12853999206E+02  0.00000000000E+00 0.  1.
</event>
<event>
 7    1  0.5764931E-013  0.5052894E+02  0.7816164E-02  0.1300438E+00
        -11   -1    0    0    0    0  0.00000000000E+00  0.00000000000E+00  0.45593999997E+02  0.45594000000E+02  0.51100000000E-03 0.  1.
         11   -1    0    0    0    0 -0.00000000000E+00 -0.00000000000E+00 -0.45593999997E+02  0.45594000000E+02  0.51100000000E-03 0. -1.
    9900012    2    1    2    0    0 -0.92501035184E+01  0.39541644702E+02  0.20131468313E+01  0.50528943924E+02  0.30000255550E+02 0.  0.
         12    1    1    2    0    0  0.92501035184E+01 -0.39541644702E+02 -0.20131468313E+01  0.40659056076E+02  0.00000000000E+00 0. -1.
         11    1    3    3    0    0 -0.14087860115E+02  0.30680722243E+02 -0.50422152532E+01  0.34135003368E+02  0.51100000000E-03 0. -1.
        -11    1    3    3    0    0 -0.66568931904E+00  0.80746194056E+01  0.98354237768E+00  0.81614935327E+01  0.51100000000E-03 0.  1.
         12    1    3    3    0    0  0.55034459158E+01  0.78630305307E+00  0.60718197068E+01  0.82324470233E+01  0.00000000000E+00 0. -1.
</event>
<event>
 7    1  0.5764931E-013  0.5052883E+02  0.7816164E-02  0.1300439E+00
        -11   -1    0    0    0    0  0.00000000000E+00  0.00000000000E+00  0.45593999997E+02  0.45594000000E+02  0.51100000000E-03 0. -1.
         11   -1    0    0    0    0 -0.00000000000E+00 -0.00000000000E+00 -0.45593999997E+02  0.45594000000E+02  0.51100000000E-03 0.  1.
    9900012    2    1    2    0    0 -0.11538822213E+02  0.19324338924E+02 -0.33861382568E+02  0.50528834707E+02  0.29999923574E+02 0.  0.
         12    1    1    2    0    0  0.11538822213E+02 -0.19324338924E+02  0.33861382568E+02  0.40659165293E+02  0.00000000000E+00 0. -1.
         11    1    3    3    0    0 -0.11960595520E+02  0.33949157040E+01 -0.17244771293E+02  0.21259431673E+02  0.51100000000E-03 0. -1.
        -11    1    3    3    0    0  0.89866080633E+01  0.89355991594E+01 -0.63255929703E+01  0.14163939548E+02  0.51100000000E-03 0.  1.
        -12    1    3    3    0    0 -0.85648347564E+01  0.69938240608E+01 -0.10291018305E+02  0.15105463487E+02  0.00000000000E+00 0.  1.
</event>
<event>
 7    1  0.5764931E-013  0.5052886E+02  0.7816164E-02  0.1300439E+00
        -11   -1    0    0    0    0  0.00000000000E+00  0.00000000000E+00  0.45593999997E+02  0.45594000000E+02  0.51100000000E-03 0. -1.
         11   -1    0    0    0    0 -0.00000000000E+00 -0.00000000000E+00 -0.45593999997E+02  0.45594000000E+02  0.51100000000E-03 0.  1.
    9900012    2    1    2    0    0 -0.15938545392E+02  0.27325278807E+02 -0.25543255392E+02  0.50528856046E+02  0.29999988437E+02 0.  0.
         12    1    1    2    0    0  0.15938545392E+02 -0.27325278807E+02  0.25543255392E+02  0.40659143954E+02  0.00000000000E+00 0. -1.
         11    1    3    3    0    0 -0.91618421335E+01  0.27768100834E+02 -0.19807586684E+02  0.35317803807E+02  0.51100000000E-03 0. -1.
        -11    1    3    3    0    0 -0.78711211296E+01  0.13687839884E+01  0.10913771145E+01  0.80634497401E+01  0.51100000000E-03 0.  1.
         12    1    3    3    0    0  0.10944178710E+01 -0.18116060159E+01 -0.68270458216E+01  0.71476024989E+01  0.00000000000E+00 0. -1.
</event>
<event>
 7    1  0.5764931E-013  0.5052886E+02  0.7816164E-02  0.1300439E+00
        -11   -1    0    0    0    0  0.00000000000E+00  0.00000000000E+00  0.45593999997E+02  0.45594000000E+02  0.51100000000E-03 0. -1.
         11   -1    0    0    0    0 -0.00000000000E+00 -0.00000000000E+00 -0.45593999997E+02  0.45594000000E+02  0.51100000000E-03 0.  1.
    9900012    2    1    2    0    0  0.46321215427E+01 -0.37541680349E+02 -0.14910775840E+02  0.50528861426E+02  0.30000004791E+02 0.  0.
         12    1    1    2    0    0 -0.46321215427E+01  0.37541680349E+02  0.14910775840E+02  0.40659138574E+02  0.00000000000E+00 0. -1.
         11    1    3    3    0    0  0.11336389079E+02 -0.21478997169E+02 -0.90683410371E+01  0.25924811401E+02  0.51100000000E-03 0. -1.
        -11    1    3    3    0    0 -0.11968695213E+02 -0.11055564044E+02 -0.59277056769E+01  0.17338190687E+02  0.51100000000E-03 0.  1.
        -12    1    3    3    0    0  0.52644276770E+01 -0.50071191357E+01  0.85270873562E-01  0.72658593385E+01  0.00000000000E+00 0.  1.
</event>
<event>
 7    1  0.5764931E-013  0.5052886E+02  0.7816164E-02  0.1300439E+00
        -11   -1    0    0    0    0  0.00000000000E+00  0.00000000000E+00  0.45593999997E+02  0.45594000000E+02  0.51100000000E-03 0. -1.
         11   -1    0    0    0    0 -0.00000000000E+00 -0.00000000000E+00 -0.45593999997E+02  0.45594000000E+02  0.51100000000E-03 0.  1.
    9900012    2    1    2    0    0  0.29574999296E+02  0.19941888464E+01 -0.27829986158E+02  0.50528862010E+02  0.30000006567E+02 0.  0.
         12    1    1    2    0    0 -0.29574999296E+02 -0.19941888464E+01  0.27829986158E+02  0.40659137990E+02  0.00000000000E+00 0. -1.
         11    1    3    3    0    0  0.57205724895E+01 -0.12252946917E+02 -0.66578148008E+01  0.15072695709E+02  0.51100000000E-03 0. -1.
        -11    1    3    3    0    0  0.52998714054E+01  0.27453282607E+01 -0.79237122898E+01  0.99202157681E+01  0.51100000000E-03 0.  1.
         12    1    3    3    0    0  0.18554555401E+02  0.11501807503E+02 -0.13248459067E+02  0.25535950533E+02  0.00000000000E+00 0. -1.
</event>
<event>
 7    1  0.5764931E-013  0.5052884E+02  0.7816164E-02  0.1300439E+00
        -11   -1    0    0    0    0  0.00000000000E+00  0.00000000000E+00  0.45593999997E+02  0.45594000000E+02  0.51100000000E-03 0.  1.
         11   -1    0    0    0    0 -0.00000000000E+00 -0.00000000000E+00 -0.45593999997E+02  0.45594000000E+02  0.51100000000E-03 0. -1.
    9900012    2    1    2    0    0 -0.20463115546E+02 -0.70220215138E+01  0.34425560413E+02  0.50528842437E+02  0.29999947071E+02 0.  0.
         12    1    1    2    0    0  0.20463115546E+02  0.70220215138E+01 -0.34425560413E+02  0.40659157563E+02  0.00000000000E+00 0. -1.
         11    1    3    3    0    0 -0.11307380575E+02 -0.19984403396E+01  0.35632837759E+02  0.37437277496E+02  0.51100000000E-03 0. -1.
        -11    1    3    3    0    0  0.20722450263E+00  0.11815774226E+01  0.10965195768E+01  0.16252454102E+01  0.51100000000E-03 0.  1.
         12    1    3    3    0    0 -0.93629594741E+01 -0.62051585968E+01 -0.23037969232E+01  0.11466319531E+02  0.00000000000E+00 0. -1.
</event>
<event>
 7    1  0.5764931E-013  0.5052886E+02  0.7816164E-02  0.1300439E+00
        -11   -1    0    0    0    0  0.00000000000E+00  0.00000000000E+00  0.45593999997E+02  0.45594000000E+02  0.51100000000E-03 0.  1.
         11   -1    0    0    0    0 -0.00000000000E+00 -0.00000000000E+00 -0.45593999997E+02  0.45594000000E+02  0.51100000000E-03 0. -1.
    9900012    2    1    2    0    0 -0.36435272285E+02 -0.17057686278E+02 -0.58882909164E+01  0.50528859606E+02  0.29999999260E+02 0.  0.
         12    1    1    2    0    0  0.36435272285E+02  0.17057686278E+02  0.58882909164E+01  0.40659140394E+02  0.00000000000E+00 0. -1.
         11    1    3    3    0    0 -0.13815325453E+02  0.12885272882E+01 -0.13275332832E+02  0.19203072202E+02  0.51100000000E-03 0. -1.
        -11    1    3    3    0    0 -0.14617333554E+02 -0.76380700320E+01  0.70963671003E+01  0.17954525344E+02  0.51100000000E-03 0.  1.
        -12    1    3    3    0    0 -0.80026132777E+01 -0.10708143534E+02  0.29067481577E+00  0.13371262060E+02  0.00000000000E+00 0.  1.
</event>
<event>
 7    1  0.5764931E-013  0.5052886E+02  0.7816164E-02  0.1300439E+00
        -11   -1    0    0    0    0  0.00000000000E+00  0.00000000000E+00  0.45593999997E+02  0.45594000000E+02  0.51100000000E-03 0.  1.
         11   -1    0    0    0    0 -0.00000000000E+00 -0.00000000000E+00 -0.45593999997E+02  0.45594000000E+02  0.51100000000E-03 0. -1.
    9900012    2    1    2    0    0  0.30943107290E+02  0.26210390501E+02  0.29504331545E+01  0.50528861854E+02  0.30000006093E+02 0.  0.
         12    1    1    2    0    0 -0.30943107290E+02 -0.26210390501E+02 -0.29504331545E+01  0.40659138146E+02  0.00000000000E+00 0. -1.
         11    1    3    3    0    0  0.36909813641E+01  0.14963429570E+02  0.46235137040E+01  0.16090507983E+02  0.51100000000E-03 0.  1.
        -11    1    3    3    0    0  0.27821872271E+01 -0.85928216286E+00 -0.61202296626E+01  0.67776207467E+01  0.51100000000E-03 0. -1.
         12    1    3    3    0    0  0.24469938699E+02  0.12106243094E+02  0.44471491130E+01  0.27660733125E+02  0.00000000000E+00 0. -1.
</event>
<event>
 7    1  0.5764931E-013  0.5052885E+02  0.7816164E-02  0.1300439E+00
        -11   -1    0    0    0    0  0.00000000000E+00  0.00000000000E+00  0.45593999997E+02  0.45594000000E+02  0.51100000000E-03 0.  1.
         11   -1    0    0    0    0 -0.00000000000E+00 -0.00000000000E+00 -0.45593999997E+02  0.45594000000E+02  0.51100000000E-03 0. -1.
    9900012    2    1    2    0    0  0.79105551061E+01 -0.33517894606E+02  0.21613422475E+02  0.50528853772E+02  0.29999981525E+02 0.  0.
         12    1    1    2    0    0 -0.79105551061E+01  0.33517894606E+02 -0.21613422475E+02  0.40659146228E+02  0.00000000000E+00 0. -1.
         11    1    3    3    0    0  0.27880131596E+01  0.34355462272E+01  0.12734455369E+01  0.46040915558E+01  0.51100000000E-03 0. -1.
        -11    1    3    3    0    0  0.95001819439E+01 -0.29110086178E+02  0.99650523252E+01  0.32201752163E+02  0.51100000000E-03 0.  1.
        -12    1    3    3    0    0 -0.43776399973E+01 -0.78433546552E+01  0.10374924613E+02  0.13723010053E+02  0.00000000000E+00 0.  1.
</event>
<event>
 7    1  0.5764931E-013  0.5052886E+02  0.7816164E-02  0.1300439E+00
        -11   -1    0    0    0    0  0.00000000000E+00  0.00000000000E+00  0.45593999997E+02  0.45594000000E+02  0.51100000000E-03 0. -1.
         11   -1    0    0    0    0 -0.00000000000E+00 -0.00000000000E+00 -0.45593999997E+02  0.45594000000E+02  0.51100000000E-03 0.  1.
    9900012    2    1    2    0    0  0.13866560799E+02  0.31585708843E+02  0.21522715355E+02  0.50528858497E+02  0.29999995888E+02 0.  0.
         12    1    1    2    0    0 -0.13866560799E+02 -0.31585708843E+02 -0.21522715355E+02  0.40659141503E+02  0.00000000000E+00 0. -1.
         11    1    3    3    0    0  0.86276852195E+01  0.11278372023E+02  0.21291740580E+02  0.25592515408E+02  0.51100000000E-03 0. -1.
        -11    1    3    3    0    0  0.97105939529E+01  0.16039164444E+02  0.36373230272E+00  0.18753205924E+02  0.51100000000E-03 0.  1.
         12    1    3    3    0    0 -0.44717183735E+01  0.42681723751E+01 -0.13275752730E+00  0.61831371647E+01  0.00000000000E+00 0. -1.
</event>
<event>
 7    1  0.5764931E-013  0.5052885E+02  0.7816164E-02  0.1300439E+00
        -11   -1    0    0    0    0  0.00000000000E+00  0.00000000000E+00  0.45593999997E+02  0.45594000000E+02  0.51100000000E-03 0.  1.
         11   -1    0    0    0    0 -0.00000000000E+00 -0.00000000000E+00 -0.45593999997E+02  0.45594000000E+02  0.51100000000E-03 0. -1.
    9900012    2    1    2    0    0  0.20206578586E+02 -0.14197111176E+02  0.32300191988E+02  0.50528853595E+02  0.29999980988E+02 0.  0.
         12    1    1    2    0    0 -0.20206578586E+02  0.14197111176E+02 -0.32300191988E+02  0.40659146405E+02  0.00000000000E+00 0. -1.
         11    1    3    3    0    0  0.11561635502E+02 -0.18144819025E+01 -0.33909558820E+00  0.11708063296E+02  0.51100000000E-03 0. -1.
        -11    1    3    3    0    0  0.12538482515E+02 -0.95692530712E+01  0.28031912405E+02  0.32164767393E+02  0.51100000000E-03 0.  1.
         12    1    3    3    0    0 -0.38935394311E+01 -0.28133762018E+01  0.46073751713E+01  0.66560229059E+01  0.00000000000E+00 0. -1.
</event>
<event>
 7    1  0.5764931E-013  0.5052886E+02  0.7816164E-02  0.1300439E+00
        -11   -1    0    0    0    0  0.00000000000E+00  0.00000000000E+00  0.45593999997E+02  0.45594000000E+02  0.51100000000E-03 0. -1.
         11   -1    0    0    0    0 -0.00000000000E+00 -0.00000000000E+00 -0.45593999997E+02  0.45594000000E+02  0.51100000000E-03 0.  1.
    9900012    2    1    2    0    0  0.26339801413E+02  0.26054346616E+02  0.16749679575E+02  0.50528857339E+02  0.29999992367E+02 0.  0.
         12    1    1    2    0    0 -0.26339801413E+02 -0.26054346616E+02 -0.16749679575E+02  0.40659142661E+02  0.00000000000E+00 0. -1.
         11    1    3    3    0    0  0.29556855913E+01 -0.54453643637E+00  0.66953791351E+01  0.73389848937E+01  0.51100000000E-03 0. -1.
        -11    1    3    3    0    0  0.22219208166E+02  0.18929553137E+02 -0.15511304863E+01  0.29230586713E+02  0.51100000000E-03 0.  1.
        -12    1    3    3    0    0  0.11649076559E+01  0.76693299146E+01  0.11605430926E+02  0.13959285733E+02  0.00000000000E+00 0.  1.
</event>
<event>
 7    1  0.5764931E-013  0.5052886E+02  0.7816164E-02  0.1300439E+00
        -11   -1    0    0    0    0  0.00000000000E+00  0.00000000000E+00  0.45593999997E+02  0.45594000000E+02  0.51100000000E-03 0.  1.
         11   -1    0    0    0    0 -0.00000000000E+00 -0.00000000000E+00 -0.45593999997E+02  0.45594000000E+02  0.51100000000E-03 0. -1.
    9900012    2    1    2    0    0 -0.36633037525E+02  0.14581895031E+02  0.99274813812E+01  0.50528856040E+02  0.29999988419E+02 0.  0.
         12    1    1    2    0    0  0.36633037525E+02 -0.14581895031E+02 -0.99274813812E+01  0.40659143960E+02  0.00000000000E+00 0. -1.
         11    1    3    3    0    0  0.67956892623E+00  0.22375006086E+01  0.74962476044E+01  0.78525124200E+01  0.51100000000E-03 0. -1.
        -11    1    3    3    0    0 -0.35648320537E+02  0.15618786758E+02  0.19116498608E+01  0.38966699403E+02  0.51100000000E-03 0.  1.
        -12    1    3    3    0    0 -0.16642859135E+01 -0.32743923356E+01  0.51958391607E+00  0.37096442168E+01  0.00000000000E+00 0.  1.
</event>
<event>
 7    1  0.5764931E-013  0.5052886E+02  0.7816164E-02  0.1300439E+00
        -11   -1    0    0    0    0  0.00000000000E+00  0.00000000000E+00  0.45593999997E+02  0.45594000000E+02  0.51100000000E-03 0.  1.
         11   -1    0    0    0    0 -0.00000000000E+00 -0.00000000000E+00 -0.45593999997E+02  0.45594000000E+02  0.51100000000E-03 0. -1.
    9900012    2    1    2    0    0 -0.49229122777E+00 -0.26359714493E+02  0.30953003999E+02  0.50528863814E+02  0.30000012050E+02 0.  0.
         12    1    1    2    0    0  0.49229122777E+00  0.26359714493E+02 -0.30953003999E+02  0.40659136186E+02  0.00000000000E+00 0. -1.
         11    1    3    3    0    0  0.84846490507E+01  0.25487736359E+01  0.78747679930E+01  0.11853163618E+02  0.51100000000E-03 0. -1.
        -11    1    3    3    0    0 -0.97516824878E+01 -0.22519740424E+02  0.17285295891E+02  0.30016919802E+02  0.51100000000E-03 0.  1.
        -12    1    3    3    0    0  0.77474220927E+00 -0.63887477047E+01  0.57929401151E+01  0.86587803935E+01  0.00000000000E+00 0.  1.
</event>
<event>
 7    1  0.5764931E-013  0.5052886E+02  0.7816164E-02  0.1300439E+00
        -11   -1    0    0    0    0  0.00000000000E+00  0.00000000000E+00  0.45593999997E+02  0.45594000000E+02  0.51100000000E-03 0. -1.
         11   -1    0    0    0    0 -0.00000000000E+00 -0.00000000000E+00 -0.45593999997E+02  0.45594000000E+02  0.51100000000E-03 0.  1.
    9900012    2    1    2    0    0 -0.25540664832E+02  0.26846402324E+02 -0.16736512636E+02  0.50528859170E+02  0.29999997933E+02 0.  0.
         12    1    1    2    0    0  0.25540664832E+02 -0.26846402324E+02  0.16736512636E+02  0.40659140830E+02  0.00000000000E+00 0. -1.
         11    1    3    3    0    0  0.41660117417E+00  0.52694757443E+01 -0.13101370962E+02  0.14127521102E+02  0.51100000000E-03 0. -1.
        -11    1    3    3    0    0 -0.18508487067E+02  0.22005754797E+02 -0.31001474385E+01  0.28921069346E+02  0.51100000000E-03 0.  1.
         12    1    3    3    0    0 -0.74487789391E+01 -0.42882821749E+00 -0.53499423637E+00  0.74802687222E+01  0.00000000000E+00 0. -1.
</event>
<event>
 7    1  0.5764931E-013  0.5052886E+02  0.7816164E-02  0.1300439E+00
        -11   -1    0    0    0    0  0.00000000000E+00  0.00000000000E+00  0.45593999997E+02  0.45594000000E+02  0.51100000000E-03 0. -1.
         11   -1    0    0    0    0 -0.00000000000E+00 -0.00000000000E+00 -0.45593999997E+02  0.45594000000E+02  0.51100000000E-03 0.  1.
    9900012    2    1    2    0    0  0.17703727221E+02 -0.96413885155E+01 -0.35309873682E+02  0.50528861919E+02  0.30000006290E+02 0.  0.
         12    1    1    2    0    0 -0.17703727221E+02  0.96413885155E+01  0.35309873682E+02  0.40659138081E+02  0.00000000000E+00 0. -1.
         11    1    3    3    0    0 -0.50626657266E+01  0.23015486858E+01 -0.46281531623E+00  0.55804936063E+01  0.51100000000E-03 0. -1.
        -11    1    3    3    0    0  0.97570409887E+01 -0.90418522674E+01 -0.25197020677E+02  0.28492890211E+02  0.51100000000E-03 0.  1.
         12    1    3    3    0    0  0.13009351959E+02 -0.29010849340E+01 -0.96500376885E+01  0.16455478102E+02  0.00000000000E+00 0. -1.
</event>
<event>
 7    1  0.5764931E-013  0.5052886E+02  0.7816164E-02  0.1300439E+00
        -11   -1    0    0    0    0  0.00000000000E+00  0.00000000000E+00  0.45593999997E+02  0.45594000000E+02  0.51100000000E-03 0.  1.
         11   -1    0    0    0    0 -0.00000000000E+00 -0.00000000000E+00 -0.45593999997E+02  0.45594000000E+02  0.51100000000E-03 0. -1.
    9900012    2    1    2    0    0  0.28063893329E+02 -0.29376322653E+02  0.16172638045E+01  0.50528856089E+02  0.29999988567E+02 0.  0.
         12    1    1    2    0    0 -0.28063893329E+02  0.29376322653E+02 -0.16172638045E+01  0.40659143911E+02  0.00000000000E+00 0. -1.
         11    1    3    3    0    0  0.26922258848E+01  0.52904714413E+01 -0.15430996638E+01  0.61333779534E+01  0.51100000000E-03 0. -1.
        -11    1    3    3    0    0  0.13425249301E+02 -0.24629737794E+02  0.55947183288E+01  0.28603534328E+02  0.51100000000E-03 0.  1.
         12    1    3    3    0    0  0.11946418143E+02 -0.10037056300E+02 -0.24343548606E+01  0.15791943807E+02  0.00000000000E+00 0. -1.
</event>
<event>
 7    1  0.5764931E-013  0.5052887E+02  0.7816164E-02  0.1300439E+00
        -11   -1    0    0    0    0  0.00000000000E+00  0.00000000000E+00  0.45593999997E+02  0.45594000000E+02  0.51100000000E-03 0. -1.
         11   -1    0    0    0    0 -0.00000000000E+00 -0.00000000000E+00 -0.45593999997E+02  0.45594000000E+02  0.51100000000E-03 0.  1.
    9900012    2    1    2    0    0 -0.24850187334E+02 -0.12097146301E+02 -0.29821006182E+02  0.50528866108E+02  0.30000019021E+02 0.  0.
         12    1    1    2    0    0  0.24850187334E+02  0.12097146301E+02  0.29821006182E+02  0.40659133892E+02  0.00000000000E+00 0. -1.
         11    1    3    3    0    0 -0.88482323784E+01 -0.24782026593E+01  0.44408106663E+01  0.10205562418E+02  0.51100000000E-03 0. -1.
        -11    1    3    3    0    0 -0.15481009911E+02 -0.10455008967E+02 -0.26067439176E+02  0.32069927748E+02  0.51100000000E-03 0.  1.
         12    1    3    3    0    0 -0.52094504482E+00  0.83606532569E+00 -0.81943776731E+01  0.82533759406E+01  0.00000000000E+00 0. -1.
</event>
<event>
 7    1  0.5764931E-013  0.5052886E+02  0.7816164E-02  0.1300439E+00
        -11   -1    0    0    0    0  0.00000000000E+00  0.00000000000E+00  0.45593999997E+02  0.45594000000E+02  0.51100000000E-03 0.  1.
         11   -1    0    0    0    0 -0.00000000000E+00 -0.00000000000E+00 -0.45593999997E+02  0.45594000000E+02  0.51100000000E-03 0. -1.
    9900012    2    1    2    0    0 -0.26486205493E+02 -0.18429578294E+02  0.24738580614E+02  0.50528858244E+02  0.29999995119E+02 0.  0.
         12    1    1    2    0    0  0.26486205493E+02  0.18429578294E+02 -0.24738580614E+02  0.40659141756E+02  0.00000000000E+00 0. -1.
         11    1    3    3    0    0 -0.12742009986E+02 -0.14123933904E+02 -0.18764286824E+01  0.19114531442E+02  0.51100000000E-03 0. -1.
        -11    1    3    3    0    0 -0.70060708905E+01 -0.48534999368E+01  0.83218126437E+01  0.11911929185E+02  0.51100000000E-03 0.  1.
         12    1    3    3    0    0 -0.67381246166E+01  0.54785554646E+00  0.18293196653E+02  0.19502397617E+02  0.00000000000E+00 0. -1.
</event>
<event>
 7    1  0.5764931E-013  0.5052886E+02  0.7816164E-02  0.1300439E+00
        -11   -1    0    0    0    0  0.00000000000E+00  0.00000000000E+00  0.45593999997E+02  0.45594000000E+02  0.51100000000E-03 0.  1.
         11   -1    0    0    0    0 -0.00000000000E+00 -0.00000000000E+00 -0.45593999997E+02  0.45594000000E+02  0.51100000000E-03 0. -1.
    9900012    2    1    2    0    0 -0.30602423251E+02  0.25129916610E+02 -0.92274055021E+01  0.50528855519E+02  0.29999986835E+02 0.  0.
         12    1    1    2    0    0  0.30602423251E+02 -0.25129916610E+02  0.92274055021E+01  0.40659144481E+02  0.00000000000E+00 0. -1.
         11    1    3    3    0    0 -0.25801459798E+02  0.56029730019E+01 -0.30383717967E+01  0.26577064127E+02  0.51100000000E-03 0. -1.
        -11    1    3    3    0    0 -0.13727424635E+01  0.19052657386E+02 -0.31783710449E+01  0.19364664161E+02  0.51100000000E-03 0.  1.
        -12    1    3    3    0    0 -0.34282209890E+01  0.47428622225E+00 -0.30106626605E+01  0.45871272302E+01  0.00000000000E+00 0.  1.
</event>
<event>
 7    1  0.5764931E-013  0.5052887E+02  0.7816164E-02  0.1300439E+00
        -11   -1    0    0    0    0  0.00000000000E+00  0.00000000000E+00  0.45593999997E+02  0.45594000000E+02  0.51100000000E-03 0.  1.
         11   -1    0    0    0    0 -0.00000000000E+00 -0.00000000000E+00 -0.45593999997E+02  0.45594000000E+02  0.51100000000E-03 0. -1.
    9900012    2    1    2    0    0  0.27021029434E+02  0.19168106864E+02  0.23571438018E+02  0.50528867660E+02  0.30000023740E+02 0.  0.
         12    1    1    2    0    0 -0.27021029434E+02 -0.19168106864E+02 -0.23571438018E+02  0.40659132340E+02  0.00000000000E+00 0. -1.
         11    1    3    3    0    0  0.11149750988E+02  0.22794006774E+01  0.47695346446E+01  0.12339411474E+02  0.51100000000E-03 0. -1.
        -11    1    3    3    0    0  0.10223771884E+02  0.22055076898E+02  0.18466325820E+02  0.30527972714E+02  0.51100000000E-03 0.  1.
        -12    1    3    3    0    0  0.56475065621E+01 -0.51663707112E+01  0.33557755366E+00  0.76614834718E+01  0.00000000000E+00 0.  1.
</event>
<event>
 7    1  0.5764931E-013  0.5052884E+02  0.7816164E-02  0.1300439E+00
        -11   -1    0    0    0    0  0.00000000000E+00  0.00000000000E+00  0.45593999997E+02  0.45594000000E+02  0.51100000000E-03 0. -1.
         11   -1    0    0    0    0 -0.00000000000E+00 -0.00000000000E+00 -0.45593999997E+02  0.45594000000E+02  0.51100000000E-03 0.  1.
    9900012    2    1    2    0    0 -0.28060290993E+02 -0.69447913864E+01 -0.28592958405E+02  0.50528839551E+02  0.29999938300E+02 0.  0.
         12    1    1    2    0    0  0.28060290993E+02  0.69447913864E+01  0.28592958405E+02  0.40659160449E+02  0.00000000000E+00 0. -1.
         11    1    3    3    0    0 -0.96378202465E+01  0.25696000984E+01 -0.29004163906E+01  0.10387629146E+02  0.51100000000E-03 0. -1.
        -11    1    3    3    0    0  0.18313709542E+01 -0.99799817504E+01 -0.55171686389E+01  0.11549593299E+02  0.51100000000E-03 0.  1.
        -12    1    3    3    0    0 -0.20253841701E+02  0.46559026554E+00 -0.20175373376E+02  0.28591617107E+02  0.00000000000E+00 0.  1.
</event>
<event>
 7    1  0.5764931E-013  0.5052886E+02  0.7816164E-02  0.1300439E+00
        -11   -1    0    0    0    0  0.00000000000E+00  0.00000000000E+00  0.45593999997E+02  0.45594000000E+02  0.51100000000E-03 0.  1.
         11   -1    0    0    0    0 -0.00000000000E+00 -0.00000000000E+00 -0.45593999997E+02  0.45594000000E+02  0.51100000000E-03 0. -1.
    9900012    2    1    2    0    0  0.13165297463E+02 -0.31665464675E+02  0.21843512221E+02  0.50528859127E+02  0.29999997804E+02 0.  0.
         12    1    1    2    0    0 -0.13165297463E+02  0.31665464675E+02 -0.21843512221E+02  0.40659140873E+02  0.00000000000E+00 0. -1.
         11    1    3    3    0    0 -0.24793103728E+01 -0.81155677765E+01 -0.45836843580E+01  0.96446660292E+01  0.51100000000E-03 0. -1.
        -11    1    3    3    0    0  0.61102661531E+01 -0.12575336087E+02  0.21280395414E+02  0.25462318421E+02  0.51100000000E-03 0.  1.
         12    1    3    3    0    0  0.95343416823E+01 -0.10974560811E+02  0.51468011651E+01  0.15421874677E+02  0.00000000000E+00 0. -1.
</event>
<event>
 7    1  0.5764931E-013  0.5052887E+02  0.7816164E-02  0.1300439E+00
        -11   -1    0    0    0    0  0.00000000000E+00  0.00000000000E+00  0.45593999997E+02  0.45594000000E+02  0.51100000000E-03 0.  1.
         11   -1    0    0    0    0 -0.00000000000E+00 -0.00000000000E+00 -0.45593999997E+02  0.45594000000E+02  0.51100000000E-03 0. -1.
    9900012    2    1    2    0    0  0.20945977471E+02 -0.10708590998E+02  0.33162581571E+02  0.50528871753E+02  0.30000036180E+02 0.  0.
         12    1    1    2    0    0 -0.20945977471E+02  0.10708590998E+02 -0.33162581571E+02  0.40659128247E+02  0.00000000000E+00 0. -1.
         11    1    3    3    0    0  0.24753348748E+01 -0.18321629729E+01 -0.52414768194E+01  0.60792420096E+01  0.51100000000E-03 0. -1.
        -11    1    3    3    0    0  0.13957314095E+01 -0.39383319421E+01  0.11194856471E+02  0.11949198145E+02  0.51100000000E-03 0.  1.
         12    1    3    3    0    0  0.17074911187E+02 -0.49380960834E+01  0.27209201920E+02  0.32500431598E+02  0.00000000000E+00 0. -1.
</event>
<event>
 7    1  0.5764931E-013  0.5052886E+02  0.7816164E-02  0.1300439E+00
        -11   -1    0    0    0    0  0.00000000000E+00  0.00000000000E+00  0.45593999997E+02  0.45594000000E+02  0.51100000000E-03 0.  1.
         11   -1    0    0    0    0 -0.00000000000E+00 -0.00000000000E+00 -0.45593999997E+02  0.45594000000E+02  0.51100000000E-03 0. -1.
    9900012    2    1    2    0    0 -0.11726885478E+02  0.25005487201E+02  0.29839090684E+02  0.50528861224E+02  0.30000004175E+02 0.  0.
         12    1    1    2    0    0  0.11726885478E+02 -0.25005487201E+02 -0.29839090684E+02  0.40659138776E+02  0.00000000000E+00 0. -1.
         11    1    3    3    0    0  0.23660397581E+01  0.11941085596E+01 -0.44766157033E+00  0.26878319389E+01  0.51100000000E-03 0. -1.
        -11    1    3    3    0    0 -0.13004307053E+02  0.26156047784E+02  0.15966529982E+02  0.33289351414E+02  0.51100000000E-03 0.  1.
        -12    1    3    3    0    0 -0.10886181828E+01 -0.23446691425E+01  0.14320222272E+02  0.14551677871E+02  0.00000000000E+00 0.  1.
</event>
<event>
 7    1  0.5764931E-013  0.5052886E+02  0.7816164E-02  0.1300439E+00
        -11   -1    0    0    0    0  0.00000000000E+00  0.00000000000E+00  0.45593999997E+02  0.45594000000E+02  0.51100000000E-03 0.  1.
         11   -1    0    0    0    0 -0.00000000000E+00 -0.00000000000E+00 -0.45593999997E+02  0.45594000000E+02  0.51100000000E-03 0. -1.
    9900012    2    1    2    0    0 -0.94870876564E+01  0.14749291133E+02  0.36682685795E+02  0.50528857630E+02  0.29999993254E+02 0.  0.
         12    1    1    2    0    0  0.94870876564E+01 -0.14749291133E+02 -0.36682685795E+02  0.40659142370E+02  0.00000000000E+00 0. -1.
         11    1    3    3    0    0  0.99612583611E+01  0.45303888386E+01  0.11925080500E+02  0.16185136279E+02  0.51100000000E-03 0. -1.
        -11    1    3    3    0    0 -0.11481714520E+02  0.61682619083E+01  0.20852052912E+02  0.24590350429E+02  0.51100000000E-03 0.  1.
         12    1    3    3    0    0 -0.79666314976E+01  0.40506403857E+01  0.39055523820E+01  0.97533709230E+01  0.00000000000E+00 0. -1.
</event>
<event>
 7    1  0.5764931E-013  0.5052886E+02  0.7816164E-02  0.1300439E+00
        -11   -1    0    0    0    0  0.00000000000E+00  0.00000000000E+00  0.45593999997E+02  0.45594000000E+02  0.51100000000E-03 0.  1.
         11   -1    0    0    0    0 -0.00000000000E+00 -0.00000000000E+00 -0.45593999997E+02  0.45594000000E+02  0.51100000000E-03 0. -1.
    9900012    2    1    2    0    0 -0.23395997120E+02 -0.14309327529E+02  0.30017261114E+02  0.50528862031E+02  0.30000006629E+02 0.  0.
         12    1    1    2    0    0  0.23395997120E+02  0.14309327529E+02 -0.30017261114E+02  0.40659137969E+02  0.00000000000E+00 0. -1.
         11    1    3    3    0    0  0.19373639217E+01  0.46617816700E+00 -0.19491829190E+01  0.27874747284E+01  0.51100000000E-03 0. -1.
        -11    1    3    3    0    0 -0.23847750372E+02 -0.85583513424E+01  0.32633245031E+02  0.41314516299E+02  0.51100000000E-03 0.  1.
        -12    1    3    3    0    0 -0.14856106697E+01 -0.62171543538E+01 -0.66680099778E+00  0.64268710032E+01  0.00000000000E+00 0.  1.
</event>
<event>
 7    1  0.5764931E-013  0.5052885E+02  0.7816164E-02  0.1300439E+00
        -11   -1    0    0    0    0  0.00000000000E+00  0.00000000000E+00  0.45593999997E+02  0.45594000000E+02  0.51100000000E-03 0.  1.
         11   -1    0    0    0    0 -0.00000000000E+00 -0.00000000000E+00 -0.45593999997E+02  0.45594000000E+02  0.51100000000E-03 0. -1.
    9900012    2    1    2    0    0 -0.13490609610E+02 -0.20253507424E+02  0.32572465429E+02  0.50528848327E+02  0.29999964975E+02 0.  0.
         12    1    1    2    0    0  0.13490609610E+02  0.20253507424E+02 -0.32572465429E+02  0.40659151673E+02  0.00000000000E+00 0. -1.
         11    1    3    3    0    0 -0.57900240322E+00 -0.94763009750E+00  0.71774415746E+01  0.72628447871E+01  0.51100000000E-03 0. -1.
        -11    1    3    3    0    0 -0.25606943894E+00 -0.13746834624E+01 -0.53282904767E+01  0.55087208901E+01  0.51100000000E-03 0.  1.
        -12    1    3    3    0    0 -0.12655537768E+02 -0.17931193864E+02  0.30723314331E+02  0.37757282650E+02  0.00000000000E+00 0.  1.
</event>
<event>
 7    1  0.5764931E-013  0.5052885E+02  0.7816164E-02  0.1300439E+00
        -11   -1    0    0    0    0  0.00000000000E+00  0.00000000000E+00  0.45593999997E+02  0.45594000000E+02  0.51100000000E-03 0. -1.
         11   -1    0    0    0    0 -0.00000000000E+00 -0.00000000000E+00 -0.45593999997E+02  0.45594000000E+02  0.51100000000E-03 0.  1.
    9900012    2    1    2    0    0  0.15863238056E+02  0.34672173428E+02 -0.14119642839E+02  0.50528852865E+02  0.29999978767E+02 0.  0.
         12    1    1    2    0    0 -0.15863238056E+02 -0.34672173428E+02  0.14119642839E+02  0.40659147135E+02  0.00000000000E+00 0. -1.
         11    1    3    3    0    0  0.23479400712E+01  0.44139915213E+00 -0.90566152423E+00  0.25549713985E+01  0.51100000000E-03 0. -1.
        -11    1    3    3    0    0  0.18643413812E+02  0.33915800411E+02 -0.60715594447E+01  0.39175531016E+02  0.51100000000E-03 0.  1.
        -12    1    3    3    0    0 -0.51281158269E+01  0.31497386569E+00 -0.71424218700E+01  0.87983504499E+01  0.00000000000E+00 0.  1.
</event>
<event>
 7    1  0.5764931E-013  0.5052885E+02  0.7816164E-02  0.1300439E+00
        -11   -1    0    0    0    0  0.00000000000E+00  0.00000000000E+00  0.45593999997E+02  0.45594000000E+02  0.51100000000E-03 0.  1.
         11   -1    0    0    0    0 -0.00000000000E+00 -0.00000000000E+00 -0.45593999997E+02  0.45594000000E+02  0.51100000000E-03 0. -1.
    9900012    2    1    2    0    0  0.40498259670E+01 -0.10239872747E+02  0.39139623325E+02  0.50528853449E+02  0.29999980543E+02 0.  0.
         12    1    1    2    0    0 -0.40498259670E+01  0.10239872747E+02 -0.39139623325E+02  0.40659146551E+02  0.00000000000E+00 0. -1.
         11    1    3    3    0    0  0.13448497711E+02 -0.74039943132E+01  0.28190334352E+02  0.32099473105E+02  0.51100000000E-03 0. -1.
        -11    1    3    3    0    0 -0.53840334405E+01 -0.62053629451E+01  0.10258617861E+02  0.13142814997E+02  0.51100000000E-03 0.  1.
         12    1    3    3    0    0 -0.40146383033E+01  0.33694845117E+01  0.69067111240E+00  0.52865653469E+01  0.00000000000E+00 0. -1.
</event>
<event>
 7    1  0.5764931E-013  0.5052887E+02  0.7816164E-02  0.1300439E+00
        -11   -1    0    0    0    0  0.00000000000E+00  0.00000000000E+00  0.45593999997E+02  0.45594000000E+02  0.51100000000E-03 0. -1.
         11   -1    0    0    0    0 -0.00000000000E+00 -0.00000000000E+00 -0.45593999997E+02  0.45594000000E+02  0.51100000000E-03 0.  1.
    9900012    2    1    2    0    0  0.48417055999E+01 -0.24766777840E+02 -0.31879923991E+02  0.50528868782E+02  0.30000027151E+02 0.  0.
         12    1    1    2    0    0 -0.48417055999E+01  0.24766777840E+02  0.31879923991E+02  0.40659131218E+02  0.00000000000E+00 0. -1.
         11    1    3    3    0    0 -0.54516761862E+01  0.12078505486E+01 -0.39118678078E+00  0.55975622860E+01  0.51100000000E-03 0. -1.
        -11    1    3    3    0    0  0.11164752389E+02 -0.10218646703E+02 -0.21365830585E+02  0.26183413704E+02  0.51100000000E-03 0.  1.
         12    1    3    3    0    0 -0.87137060343E+00 -0.15755981686E+02 -0.10122906626E+02  0.18747892793E+02  0.00000000000E+00 0. -1.
</event>
<event>
 7    1  0.5764931E-013  0.5052886E+02  0.7816164E-02  0.1300439E+00
        -11   -1    0    0    0    0  0.00000000000E+00  0.00000000000E+00  0.45593999997E+02  0.45594000000E+02  0.51100000000E-03 0.  1.
         11   -1    0    0    0    0 -0.00000000000E+00 -0.00000000000E+00 -0.45593999997E+02  0.45594000000E+02  0.51100000000E-03 0. -1.
    9900012    2    1    2    0    0 -0.44341252021E+01 -0.24336236065E+02  0.32268436690E+02  0.50528857627E+02  0.29999993243E+02 0.  0.
         12    1    1    2    0    0  0.44341252021E+01  0.24336236065E+02 -0.32268436690E+02  0.40659142373E+02  0.00000000000E+00 0. -1.
         11    1    3    3    0    0  0.66520703228E+01 -0.87999696233E+01  0.76483963263E+01  0.13423392700E+02  0.51100000000E-03 0.  1.
        -11    1    3    3    0    0 -0.14559132226E+02 -0.15921106711E+02  0.25598023074E+02  0.33476988449E+02  0.51100000000E-03 0. -1.
         12    1    3    3    0    0  0.34729367015E+01  0.38484026879E+00 -0.97798271090E+00  0.36284764776E+01  0.00000000000E+00 0. -1.
</event>
<event>
 7    1  0.5764931E-013  0.5052886E+02  0.7816164E-02  0.1300439E+00
        -11   -1    0    0    0    0  0.00000000000E+00  0.00000000000E+00  0.45593999997E+02  0.45594000000E+02  0.51100000000E-03 0.  1.
         11   -1    0    0    0    0 -0.00000000000E+00 -0.00000000000E+00 -0.45593999997E+02  0.45594000000E+02  0.51100000000E-03 0. -1.
    9900012    2    1    2    0    0  0.26279800158E+02 -0.81198172232E+01  0.29943387834E+02  0.50528858309E+02  0.29999995315E+02 0.  0.
         12    1    1    2    0    0 -0.26279800158E+02  0.81198172232E+01 -0.29943387834E+02  0.40659141691E+02  0.00000000000E+00 0. -1.
         11    1    3    3    0    0  0.26504268935E+02 -0.10499901595E+02  0.12861571114E+02  0.31275297234E+02  0.51100000000E-03 0. -1.
        -11    1    3    3    0    0  0.51799400458E+00  0.29396918511E+01  0.10046186909E+01  0.31495023326E+01  0.51100000000E-03 0.  1.
         12    1    3    3    0    0 -0.74246278118E+00 -0.55960747907E+00  0.16077198029E+02  0.16104058742E+02  0.00000000000E+00 0. -1.
</event>
<event>
 7    1  0.5764931E-013  0.5052888E+02  0.7816164E-02  0.1300439E+00
        -11   -1    0    0    0    0  0.00000000000E+00  0.00000000000E+00  0.45593999997E+02  0.45594000000E+02  0.51100000000E-03 0.  1.
         11   -1    0    0    0    0 -0.00000000000E+00 -0.00000000000E+00 -0.45593999997E+02  0.45594000000E+02  0.51100000000E-03 0. -1.
    9900012    2    1    2    0    0  0.18007943444E+01 -0.24409913599E+02  0.32466562590E+02  0.50528875211E+02  0.30000046691E+02 0.  0.
         12    1    1    2    0    0 -0.18007943444E+01  0.24409913599E+02 -0.32466562590E+02  0.40659124789E+02  0.00000000000E+00 0. -1.
         11    1    3    3    0    0  0.48854120830E+01  0.17250525926E+01  0.40213237796E+00  0.51966112399E+01  0.51100000000E-03 0. -1.
        -11    1    3    3    0    0 -0.52492705078E+01 -0.28314821506E+02  0.30245478835E+02  0.41762099420E+02  0.51100000000E-03 0.  1.
        -12    1    3    3    0    0  0.21646527692E+01  0.21798553146E+01  0.18189513775E+01  0.35701645505E+01  0.00000000000E+00 0.  1.
</event>
<event>
 7    1  0.5764931E-013  0.5052886E+02  0.7816164E-02  0.1300439E+00
        -11   -1    0    0    0    0  0.00000000000E+00  0.00000000000E+00  0.45593999997E+02  0.45594000000E+02  0.51100000000E-03 0.  1.
         11   -1    0    0    0    0 -0.00000000000E+00 -0.00000000000E+00 -0.45593999997E+02  0.45594000000E+02  0.51100000000E-03 0. -1.
    9900012    2    1    2    0    0  0.38533224875E+02  0.96937262444E+01  0.86248308283E+01  0.50528862595E+02  0.30000008343E+02 0.  0.
         12    1    1    2    0    0 -0.38533224875E+02 -0.96937262444E+01 -0.86248308283E+01  0.40659137405E+02  0.00000000000E+00 0. -1.
         11    1    3    3    0    0  0.23841445785E+02  0.14927247365E+02  0.12306570714E+02  0.30703239797E+02  0.51100000000E-03 0.  1.
        -11    1    3    3    0    0  0.14491300714E+02 -0.62826029649E+01 -0.62947700151E+01  0.17002735844E+02  0.51100000000E-03 0. -1.
         12    1    3    3    0    0  0.20047837625E+00  0.10490818439E+01  0.26130301297E+01  0.28228869537E+01  0.00000000000E+00 0. -1.
</event>
<event>
 7    1  0.5764931E-013  0.5052886E+02  0.7816164E-02  0.1300439E+00
        -11   -1    0    0    0    0  0.00000000000E+00  0.00000000000E+00  0.45593999997E+02  0.45594000000E+02  0.51100000000E-03 0.  1.
         11   -1    0    0    0    0 -0.00000000000E+00 -0.00000000000E+00 -0.45593999997E+02  0.45594000000E+02  0.51100000000E-03 0. -1.
    9900012    2    1    2    0    0  0.26321436582E+02 -0.20381012924E+02  0.23344412834E+02  0.50528864224E+02  0.30000013294E+02 0.  0.
         12    1    1    2    0    0 -0.26321436582E+02  0.20381012924E+02 -0.23344412834E+02  0.40659135776E+02  0.00000000000E+00 0. -1.
         11    1    3    3    0    0 -0.18140258780E+01 -0.15075100459E+01  0.10203437076E+02  0.10472507095E+02  0.51100000000E-03 0. -1.
        -11    1    3    3    0    0  0.13497812887E+02 -0.18629613378E+02  0.60388377947E+01  0.23784890362E+02  0.51100000000E-03 0.  1.
         12    1    3    3    0    0  0.14637649573E+02 -0.24388950000E+00  0.71021379629E+01  0.16271466767E+02  0.00000000000E+00 0. -1.
</event>
<event>
 7    1  0.5764931E-013  0.5052886E+02  0.7816164E-02  0.1300439E+00
        -11   -1    0    0    0    0  0.00000000000E+00  0.00000000000E+00  0.45593999997E+02  0.45594000000E+02  0.51100000000E-03 0.  1.
         11   -1    0    0    0    0 -0.00000000000E+00 -0.00000000000E+00 -0.45593999997E+02  0.45594000000E+02  0.51100000000E-03 0. -1.
    9900012    2    1    2    0    0 -0.94818559148E+01 -0.36849483900E+02  0.14330935200E+02  0.50528858851E+02  0.29999996962E+02 0.  0.
         12    1    1    2    0    0  0.94818559148E+01  0.36849483900E+02 -0.14330935200E+02  0.40659141149E+02  0.00000000000E+00 0. -1.
         11    1    3    3    0    0 -0.32727661359E+00 -0.11241753436E+02  0.13442442077E+02  0.17526647698E+02  0.51100000000E-03 0.  1.
        -11    1    3    3    0    0 -0.37313401215E+01 -0.72630886533E+01 -0.84191835233E+01  0.11728512580E+02  0.51100000000E-03 0. -1.
         12    1    3    3    0    0 -0.54232391797E+01 -0.18344641811E+02  0.93076766465E+01  0.21273698572E+02  0.00000000000E+00 0. -1.
</event>
<event>
 7    1  0.5764931E-013  0.5052886E+02  0.7816164E-02  0.1300439E+00
        -11   -1    0    0    0    0  0.00000000000E+00  0.00000000000E+00  0.45593999997E+02  0.45594000000E+02  0.51100000000E-03 0.  1.
         11   -1    0    0    0    0 -0.00000000000E+00 -0.00000000000E+00 -0.45593999997E+02  0.45594000000E+02  0.51100000000E-03 0. -1.
    9900012    2    1    2    0    0  0.89619985955E+01  0.14009210476E+02  0.37102434422E+02  0.50528855432E+02  0.29999986571E+02 0.  0.
         12    1    1    2    0    0 -0.89619985955E+01 -0.14009210476E+02 -0.37102434422E+02  0.40659144568E+02  0.00000000000E+00 0. -1.
         11    1    3    3    0    0  0.35688777859E+01 -0.76758991810E+01  0.23663983227E+01  0.87895482348E+01  0.51100000000E-03 0. -1.
        -11    1    3    3    0    0  0.62995090548E+01  0.15612172734E+02  0.23116058723E+02  0.28596781689E+02  0.51100000000E-03 0.  1.
        -12    1    3    3    0    0 -0.90638824522E+00  0.60729369231E+01  0.11619977376E+02  0.13142525509E+02  0.00000000000E+00 0.  1.
</event>
<event>
 7    1  0.5764931E-013  0.5052883E+02  0.7816164E-02  0.1300439E+00
        -11   -1    0    0    0    0  0.00000000000E+00  0.00000000000E+00  0.45593999997E+02  0.45594000000E+02  0.51100000000E-03 0.  1.
         11   -1    0    0    0    0 -0.00000000000E+00 -0.00000000000E+00 -0.45593999997E+02  0.45594000000E+02  0.51100000000E-03 0. -1.
    9900012    2    1    2    0    0 -0.21917655173E+02  0.25628453442E+02  0.22714905991E+02  0.50528828977E+02  0.29999906159E+02 0.  0.
         12    1    1    2    0    0  0.21917655173E+02 -0.25628453442E+02 -0.22714905991E+02  0.40659171023E+02  0.00000000000E+00 0. -1.
         11    1    3    3    0    0 -0.93629796253E+01  0.22382590360E+02  0.24360322120E+01  0.24384010989E+02  0.51100000000E-03 0.  1.
        -11    1    3    3    0    0  0.17588930785E+00  0.91892779485E+00  0.87893534223E+01  0.88390100794E+01  0.51100000000E-03 0. -1.
         12    1    3    3    0    0 -0.12730564855E+02  0.23269352865E+01  0.11489520357E+02  0.17305807909E+02  0.00000000000E+00 0. -1.
</event>
<event>
 7    1  0.5764931E-013  0.5052886E+02  0.7816164E-02  0.1300439E+00
        -11   -1    0    0    0    0  0.00000000000E+00  0.00000000000E+00  0.45593999997E+02  0.45594000000E+02  0.51100000000E-03 0.  1.
         11   -1    0    0    0    0 -0.00000000000E+00 -0.00000000000E+00 -0.45593999997E+02  0.45594000000E+02  0.51100000000E-03 0. -1.
    9900012    2    1    2    0    0  0.23412381865E+02  0.17333794363E+02  0.28364863884E+02  0.50528861362E+02  0.30000004597E+02 0.  0.
         12    1    1    2    0    0 -0.23412381865E+02 -0.17333794363E+02 -0.28364863884E+02  0.40659138638E+02  0.00000000000E+00 0. -1.
         11    1    3    3    0    0  0.23482489171E+01 -0.20407225816E+01  0.45212763984E+00  0.31437622836E+01  0.51100000000E-03 0. -1.
        -11    1    3    3    0    0  0.15623467141E+01  0.18228889456E+02  0.17170287745E+02  0.25090877218E+02  0.51100000000E-03 0.  1.
        -12    1    3    3    0    0  0.19501786234E+02  0.11456274885E+01  0.10742448499E+02  0.22294221861E+02  0.00000000000E+00 0.  1.
</event>
<event>
 7    1  0.5764931E-013  0.5052885E+02  0.7816164E-02  0.1300439E+00
        -11   -1    0    0    0    0  0.00000000000E+00  0.00000000000E+00  0.45593999997E+02  0.45594000000E+02  0.51100000000E-03 0.  1.
         11   -1    0    0    0    0 -0.00000000000E+00 -0.00000000000E+00 -0.45593999997E+02  0.45594000000E+02  0.51100000000E-03 0. -1.
    9900012    2    1    2    0    0 -0.19147463564E+02  0.29023664716E+02  0.21075299591E+02  0.50528846943E+02  0.29999960768E+02 0.  0.
         12    1    1    2    0    0  0.19147463564E+02 -0.29023664716E+02 -0.21075299591E+02  0.40659153057E+02  0.00000000000E+00 0. -1.
         11    1    3    3    0    0  0.38883415933E+00  0.17131476584E+02  0.88289096725E+01  0.19276626474E+02  0.51100000000E-03 0. -1.
        -11    1    3    3    0    0 -0.74910765975E+01 -0.42275040487E+01  0.43072893286E+01  0.96198108450E+01  0.51100000000E-03 0.  1.
        -12    1    3    3    0    0 -0.12045221125E+02  0.16119692181E+02  0.79391005897E+01  0.21632409624E+02  0.00000000000E+00 0.  1.
</event>
<event>
 7    1  0.5764931E-013  0.5052886E+02  0.7816164E-02  0.1300439E+00
        -11   -1    0    0    0    0  0.00000000000E+00  0.00000000000E+00  0.45593999997E+02  0.45594000000E+02  0.51100000000E-03 0.  1.
         11   -1    0    0    0    0 -0.00000000000E+00 -0.00000000000E+00 -0.45593999997E+02  0.45594000000E+02  0.51100000000E-03 0. -1.
    9900012    2    1    2    0    0 -0.38455349401E+02  0.16421911004E+01  0.13101723859E+02  0.50528857643E+02  0.29999993291E+02 0.  0.
         12    1    1    2    0    0  0.38455349401E+02 -0.16421911004E+01 -0.13101723859E+02  0.40659142357E+02  0.00000000000E+00 0. -1.
         11    1    3    3    0    0  0.14127219723E+01 -0.71421742658E+01  0.60163155033E+00  0.73053677113E+01  0.51100000000E-03 0. -1.
        -11    1    3    3    0    0 -0.25901745654E+02  0.74471796948E+01  0.11014199709E+02  0.29114833141E+02  0.51100000000E-03 0.  1.
         12    1    3    3    0    0 -0.13966325719E+02  0.13371856714E+01  0.14858925997E+01  0.14108656790E+02  0.00000000000E+00 0. -1.
</event>
<event>
 7    1  0.5764931E-013  0.5052887E+02  0.7816164E-02  0.1300439E+00
        -11   -1    0    0    0    0  0.00000000000E+00  0.00000000000E+00  0.45593999997E+02  0.45594000000E+02  0.51100000000E-03 0.  1.
         11   -1    0    0    0    0 -0.00000000000E+00 -0.00000000000E+00 -0.45593999997E+02  0.45594000000E+02  0.51100000000E-03 0. -1.
    9900012    2    1    2    0    0  0.72379638194E+01 -0.39368398415E+02  0.71348347589E+01  0.50528870877E+02  0.30000033518E+02 0.  0.
         12    1    1    2    0    0 -0.72379638194E+01  0.39368398415E+02 -0.71348347589E+01  0.40659129123E+02  0.00000000000E+00 0. -1.
         11    1    3    3    0    0 -0.22784677438E+01  0.99464051958E+00  0.72494413465E+01  0.76638844668E+01  0.51100000000E-03 0. -1.
        -11    1    3    3    0    0  0.81260967097E+01 -0.21563168409E+02 -0.45749790408E+01  0.23493278040E+02  0.51100000000E-03 0.  1.
         12    1    3    3    0    0  0.13903348535E+01 -0.18799870526E+02  0.44603724532E+01  0.19371708371E+02  0.00000000000E+00 0. -1.
</event>
<event>
 7    1  0.5764931E-013  0.5052886E+02  0.7816164E-02  0.1300439E+00
        -11   -1    0    0    0    0  0.00000000000E+00  0.00000000000E+00  0.45593999997E+02  0.45594000000E+02  0.51100000000E-03 0.  1.
         11   -1    0    0    0    0 -0.00000000000E+00 -0.00000000000E+00 -0.45593999997E+02  0.45594000000E+02  0.51100000000E-03 0. -1.
    9900012    2    1    2    0    0  0.29012365693E+02  0.31176132602E+01  0.28314816926E+02  0.50528859170E+02  0.29999997932E+02 0.  0.
         12    1    1    2    0    0 -0.29012365693E+02 -0.31176132602E+01 -0.28314816926E+02  0.40659140830E+02  0.00000000000E+00 0. -1.
         11    1    3    3    0    0 -0.68991469961E+00 -0.42636835607E+01 -0.15350178210E+01  0.45838040720E+01  0.51100000000E-03 0. -1.
        -11    1    3    3    0    0  0.27575470924E+02  0.99064127246E+01  0.19791685317E+02  0.35358936886E+02  0.51100000000E-03 0.  1.
         12    1    3    3    0    0  0.21268094687E+01 -0.25251159037E+01  0.10058149430E+02  0.10586118212E+02  0.00000000000E+00 0. -1.
</event>
<event>
 7    1  0.5764931E-013  0.5052886E+02  0.7816164E-02  0.1300439E+00
        -11   -1    0    0    0    0  0.00000000000E+00  0.00000000000E+00  0.45593999997E+02  0.45594000000E+02  0.51100000000E-03 0. -1.
         11   -1    0    0    0    0 -0.00000000000E+00 -0.00000000000E+00 -0.45593999997E+02  0.45594000000E+02  0.51100000000E-03 0.  1.
    9900012    2    1    2    0    0 -0.38018791607E+02 -0.76853524024E+01 -0.12193130067E+02  0.50528861080E+02  0.30000003740E+02 0.  0.
         12    1    1    2    0    0  0.38018791607E+02  0.76853524024E+01  0.12193130067E+02  0.40659138920E+02  0.00000000000E+00 0. -1.
         11    1    3    3    0    0  0.12688768125E+01  0.63176391687E+01 -0.27705439400E+01  0.70141661668E+01  0.51100000000E-03 0. -1.
        -11    1    3    3    0    0 -0.17624395246E+02 -0.20664305049E+01 -0.41906345250E+01  0.18233235061E+02  0.51100000000E-03 0.  1.
         12    1    3    3    0    0 -0.21663273174E+02 -0.11936561066E+02 -0.52319516024E+01  0.25281459853E+02  0.00000000000E+00 0. -1.
</event>
<event>
 7    1  0.5764931E-013  0.5052886E+02  0.7816164E-02  0.1300439E+00
        -11   -1    0    0    0    0  0.00000000000E+00  0.00000000000E+00  0.45593999997E+02  0.45594000000E+02  0.51100000000E-03 0.  1.
         11   -1    0    0    0    0 -0.00000000000E+00 -0.00000000000E+00 -0.45593999997E+02  0.45594000000E+02  0.51100000000E-03 0. -1.
    9900012    2    1    2    0    0 -0.20542776541E+02 -0.53757485508E+01  0.34673643534E+02  0.50528857161E+02  0.29999991827E+02 0.  0.
         12    1    1    2    0    0  0.20542776541E+02  0.53757485508E+01 -0.34673643534E+02  0.40659142839E+02  0.00000000000E+00 0. -1.
         11    1    3    3    0    0  0.46160533783E+01  0.35961027513E+01  0.88063060043E+01  0.10573122977E+02  0.51100000000E-03 0. -1.
        -11    1    3    3    0    0 -0.16943896245E+02 -0.24493994504E+01  0.23713228348E+02  0.29247433675E+02  0.51100000000E-03 0.  1.
        -12    1    3    3    0    0 -0.82149336742E+01 -0.65224518517E+01  0.21541091815E+01  0.10708300509E+02  0.00000000000E+00 0.  1.
</event>
<event>
 7    1  0.5764931E-013  0.5052888E+02  0.7816164E-02  0.1300439E+00
        -11   -1    0    0    0    0  0.00000000000E+00  0.00000000000E+00  0.45593999997E+02  0.45594000000E+02  0.51100000000E-03 0. -1.
         11   -1    0    0    0    0 -0.00000000000E+00 -0.00000000000E+00 -0.45593999997E+02  0.45594000000E+02  0.51100000000E-03 0.  1.
    9900012    2    1    2    0    0  0.27160616546E+02 -0.27565336964E+01 -0.30130818873E+02  0.50528882755E+02  0.30000069623E+02 0.  0.
         12    1    1    2    0    0 -0.27160616546E+02  0.27565336964E+01  0.30130818873E+02  0.40659117245E+02  0.00000000000E+00 0. -1.
         11    1    3    3    0    0  0.63119459192E+01  0.39274626556E+01 -0.21132291822E+02  0.22401771852E+02  0.51100000000E-03 0. -1.
        -11    1    3    3    0    0  0.21185678953E+02 -0.97553932473E+01 -0.66720954306E+01  0.24259380615E+02  0.51100000000E-03 0.  1.
        -12    1    3    3    0    0 -0.33700832679E+00  0.30713968953E+01 -0.23264316206E+01  0.38677302887E+01  0.00000000000E+00 0.  1.
</event>
<event>
 7    1  0.5764931E-013  0.5052887E+02  0.7816164E-02  0.1300439E+00
        -11   -1    0    0    0    0  0.00000000000E+00  0.00000000000E+00  0.45593999997E+02  0.45594000000E+02  0.51100000000E-03 0. -1.
         11   -1    0    0    0    0 -0.00000000000E+00 -0.00000000000E+00 -0.45593999997E+02  0.45594000000E+02  0.51100000000E-03 0.  1.
    9900012    2    1    2    0    0 -0.35915920674E+02  0.70735840693E+01 -0.17696775665E+02  0.50528870418E+02  0.30000032122E+02 0.  0.
         12    1    1    2    0    0  0.35915920674E+02 -0.70735840693E+01  0.17696775665E+02  0.40659129582E+02  0.00000000000E+00 0. -1.
         11    1    3    3    0    0  0.16174041489E+01  0.65797677010E+00  0.46769927846E+01  0.49923132292E+01  0.51100000000E-03 0. -1.
        -11    1    3    3    0    0 -0.32775949842E+02  0.56669795313E+01 -0.14452958497E+02  0.36266590061E+02  0.51100000000E-03 0.  1.
        -12    1    3    3    0    0 -0.47573749807E+01  0.74862776790E+00 -0.79208099524E+01  0.92699671274E+01  0.00000000000E+00 0.  1.
</event>
<event>
 7    1  0.5764931E-013  0.5052881E+02  0.7816164E-02  0.1300439E+00
        -11   -1    0    0    0    0  0.00000000000E+00  0.00000000000E+00  0.45593999997E+02  0.45594000000E+02  0.51100000000E-03 0.  1.
         11   -1    0    0    0    0 -0.00000000000E+00 -0.00000000000E+00 -0.45593999997E+02  0.45594000000E+02  0.51100000000E-03 0. -1.
    9900012    2    1    2    0    0 -0.26954642109E+02 -0.28432373668E+02  0.10872776528E+02  0.50528808259E+02  0.29999843184E+02 0.  0.
         12    1    1    2    0    0  0.26954642109E+02  0.28432373668E+02 -0.10872776528E+02  0.40659191741E+02  0.00000000000E+00 0. -1.
         11    1    3    3    0    0  0.39293635594E+01  0.11793425653E+01  0.46859477616E+01  0.62280698096E+01  0.51100000000E-03 0. -1.
        -11    1    3    3    0    0 -0.54130676435E+01 -0.10898111691E+02  0.30091060365E+01  0.12534945518E+02  0.51100000000E-03 0.  1.
         12    1    3    3    0    0 -0.25470938025E+02 -0.18713604542E+02  0.31777227297E+01  0.31765792931E+02  0.00000000000E+00 0. -1.
</event>
<event>
 7    1  0.5764931E-013  0.5052887E+02  0.7816164E-02  0.1300439E+00
        -11   -1    0    0    0    0  0.00000000000E+00  0.00000000000E+00  0.45593999997E+02  0.45594000000E+02  0.51100000000E-03 0. -1.
         11   -1    0    0    0    0 -0.00000000000E+00 -0.00000000000E+00 -0.45593999997E+02  0.45594000000E+02  0.51100000000E-03 0.  1.
    9900012    2    1    2    0    0  0.25795655701E+02 -0.14630626373E+02 -0.27815349088E+02  0.50528871554E+02  0.30000035575E+02 0.  0.
         12    1    1    2    0    0 -0.25795655701E+02  0.14630626373E+02  0.27815349088E+02  0.40659128446E+02  0.00000000000E+00 0. -1.
         11    1    3    3    0    0  0.24578873558E+02 -0.15163092155E+02 -0.15366996570E+02  0.32713681739E+02  0.51100000000E-03 0. -1.
        -11    1    3    3    0    0  0.49018756622E+01  0.49583377228E+01 -0.64177519027E+01  0.94763409461E+01  0.51100000000E-03 0.  1.
         12    1    3    3    0    0 -0.36850935186E+01 -0.44258719409E+01 -0.60306006148E+01  0.83388488686E+01  0.00000000000E+00 0. -1.
</event>
<event>
 7    1  0.5764931E-013  0.5052886E+02  0.7816164E-02  0.1300439E+00
        -11   -1    0    0    0    0  0.00000000000E+00  0.00000000000E+00  0.45593999997E+02  0.45594000000E+02  0.51100000000E-03 0. -1.
         11   -1    0    0    0    0 -0.00000000000E+00 -0.00000000000E+00 -0.45593999997E+02  0.45594000000E+02  0.51100000000E-03 0.  1.
    9900012    2    1    2    0    0  0.39956258281E+02 -0.52609993246E+01 -0.53837883544E+01  0.50528857525E+02  0.29999992934E+02 0.  0.
         12    1    1    2    0    0 -0.39956258281E+02  0.52609993246E+01  0.53837883544E+01  0.40659142475E+02  0.00000000000E+00 0. -1.
         11    1    3    3    0    0  0.84987719826E+00 -0.21001688325E+01  0.16505001587E+01  0.28030610789E+01  0.51100000000E-03 0. -1.
        -11    1    3    3    0    0  0.30549114390E+02  0.77554005063E+01  0.12982291817E+01  0.31544889067E+02  0.51100000000E-03 0.  1.
        -12    1    3    3    0    0  0.85572666934E+01 -0.10916230998E+02 -0.83325176948E+01  0.16180907379E+02  0.00000000000E+00 0.  1.
</event>
<event>
 7    1  0.5764931E-013  0.5052889E+02  0.7816164E-02  0.1300439E+00
        -11   -1    0    0    0    0  0.00000000000E+00  0.00000000000E+00  0.45593999997E+02  0.45594000000E+02  0.51100000000E-03 0. -1.
         11   -1    0    0    0    0 -0.00000000000E+00 -0.00000000000E+00 -0.45593999997E+02  0.45594000000E+02  0.51100000000E-03 0.  1.
    9900012    2    1    2    0    0  0.31665605301E+02 -0.14192797731E+02 -0.21190028900E+02  0.50528887967E+02  0.30000085465E+02 0.  0.
         12    1    1    2    0    0 -0.31665605301E+02  0.14192797731E+02  0.21190028900E+02  0.40659112033E+02  0.00000000000E+00 0. -1.
         11    1    3    3    0    0  0.70115990647E+01 -0.39246935437E+00 -0.19855424020E+02  0.21060731633E+02  0.51100000000E-03 0. -1.
        -11    1    3    3    0    0  0.16052975827E+02 -0.84224243032E+01 -0.47924134765E+01  0.18751066402E+02  0.51100000000E-03 0.  1.
         12    1    3    3    0    0  0.86010304095E+01 -0.53779040736E+01  0.34578085964E+01  0.10717089932E+02  0.00000000000E+00 0. -1.
</event>
<event>
 7    1  0.5764931E-013  0.5052885E+02  0.7816164E-02  0.1300439E+00
        -11   -1    0    0    0    0  0.00000000000E+00  0.00000000000E+00  0.45593999997E+02  0.45594000000E+02  0.51100000000E-03 0.  1.
         11   -1    0    0    0    0 -0.00000000000E+00 -0.00000000000E+00 -0.45593999997E+02  0.45594000000E+02  0.51100000000E-03 0. -1.
    9900012    2    1    2    0    0  0.99070259168E+01 -0.65720331050E+01  0.38882198129E+02  0.50528854498E+02  0.29999983731E+02 0.  0.
         12    1    1    2    0    0 -0.99070259168E+01  0.65720331050E+01 -0.38882198129E+02  0.40659145502E+02  0.00000000000E+00 0. -1.
         11    1    3    3    0    0  0.12745983045E+02 -0.66379156022E+01  0.80887523310E+01  0.16490904216E+02  0.51100000000E-03 0. -1.
        -11    1    3    3    0    0 -0.33632016457E+00 -0.54243182613E+01  0.25303096520E+02  0.25880166800E+02  0.51100000000E-03 0.  1.
         12    1    3    3    0    0 -0.25026369636E+01  0.54902007585E+01  0.54903492777E+01  0.81577834815E+01  0.00000000000E+00 0. -1.
</event>
<event>
 7    1  0.5764931E-013  0.5052886E+02  0.7816164E-02  0.1300439E+00
        -11   -1    0    0    0    0  0.00000000000E+00  0.00000000000E+00  0.45593999997E+02  0.45594000000E+02  0.51100000000E-03 0.  1.
         11   -1    0    0    0    0 -0.00000000000E+00 -0.00000000000E+00 -0.45593999997E+02  0.45594000000E+02  0.51100000000E-03 0. -1.
    9900012    2    1    2    0    0 -0.41673357073E+01 -0.35636339925E-01  0.40444997965E+02  0.50528858135E+02  0.29999994787E+02 0.  0.
         12    1    1    2    0    0  0.41673357073E+01  0.35636339925E-01 -0.40444997965E+02  0.40659141865E+02  0.00000000000E+00 0. -1.
         11    1    3    3    0    0  0.32425912747E+01  0.63912077089E+01  0.36774715514E+01  0.80551679949E+01  0.51100000000E-03 0. -1.
        -11    1    3    3    0    0 -0.10234340574E+02 -0.11446329358E+02  0.24372676648E+02  0.28806033223E+02  0.51100000000E-03 0.  1.
        -12    1    3    3    0    0  0.28244135925E+01  0.50194853090E+01  0.12394849765E+02  0.13667656917E+02  0.00000000000E+00 0.  1.
</event>
<event>
 7    1  0.5764931E-013  0.5052886E+02  0.7816164E-02  0.1300439E+00
        -11   -1    0    0    0    0  0.00000000000E+00  0.00000000000E+00  0.45593999997E+02  0.45594000000E+02  0.51100000000E-03 0. -1.
         11   -1    0    0    0    0 -0.00000000000E+00 -0.00000000000E+00 -0.45593999997E+02  0.45594000000E+02  0.51100000000E-03 0.  1.
    9900012    2    1    2    0    0  0.19287280989E+01  0.31562397074E+02 -0.25558968304E+02  0.50528858815E+02  0.29999996853E+02 0.  0.
         12    1    1    2    0    0 -0.19287280989E+01 -0.31562397074E+02  0.25558968304E+02  0.40659141185E+02  0.00000000000E+00 0. -1.
         11    1    3    3    0    0  0.34811343739E+01 -0.29602106770E+01  0.19966857390E+01  0.49867723011E+01  0.51100000000E-03 0. -1.
        -11    1    3    3    0    0 -0.51496160891E+00  0.23949694888E+02 -0.12236101209E+02  0.26899353965E+02  0.51100000000E-03 0.  1.
         12    1    3    3    0    0 -0.10374446661E+01  0.10572912864E+02 -0.15319552834E+02  0.18642732549E+02  0.00000000000E+00 0. -1.
</event>
<event>
 7    1  0.5764931E-013  0.5052887E+02  0.7816164E-02  0.1300439E+00
        -11   -1    0    0    0    0  0.00000000000E+00  0.00000000000E+00  0.45593999997E+02  0.45594000000E+02  0.51100000000E-03 0.  1.
         11   -1    0    0    0    0 -0.00000000000E+00 -0.00000000000E+00 -0.45593999997E+02  0.45594000000E+02  0.51100000000E-03 0. -1.
    9900012    2    1    2    0    0 -0.47528939185E+01 -0.35927344535E+02  0.18433675045E+02  0.50528874806E+02  0.30000045459E+02 0.  0.
         12    1    1    2    0    0  0.47528939185E+01  0.35927344535E+02 -0.18433675045E+02  0.40659125194E+02  0.00000000000E+00 0. -1.
         11    1    3    3    0    0  0.15607356227E+01 -0.10703840073E+02  0.17997194699E+02  0.20997788105E+02  0.51100000000E-03 0. -1.
        -11    1    3    3    0    0 -0.69033384445E+01 -0.48219247966E+01 -0.27830486980E+01  0.88686188744E+01  0.51100000000E-03 0.  1.
         12    1    3    3    0    0  0.58970890338E+00 -0.20401579665E+02  0.32195290443E+01  0.20662467827E+02  0.00000000000E+00 0. -1.
</event>
<event>
 7    1  0.5764931E-013  0.5052886E+02  0.7816164E-02  0.1300439E+00
        -11   -1    0    0    0    0  0.00000000000E+00  0.00000000000E+00  0.45593999997E+02  0.45594000000E+02  0.51100000000E-03 0.  1.
         11   -1    0    0    0    0 -0.00000000000E+00 -0.00000000000E+00 -0.45593999997E+02  0.45594000000E+02  0.51100000000E-03 0. -1.
    9900012    2    1    2    0    0 -0.31114499669E+02  0.19909895251E+02  0.16989698185E+02  0.50528857572E+02  0.29999993075E+02 0.  0.
         12    1    1    2    0    0  0.31114499669E+02 -0.19909895251E+02 -0.16989698185E+02  0.40659142428E+02  0.00000000000E+00 0. -1.
         11    1    3    3    0    0 -0.19199756926E+01  0.18019295966E+01  0.15240987464E+02  0.15466769413E+02  0.51100000000E-03 0. -1.
        -11    1    3    3    0    0 -0.22533133186E+02  0.14088835343E+02  0.42002997840E+01  0.26905016094E+02  0.51100000000E-03 0.  1.
         12    1    3    3    0    0 -0.66613907910E+01  0.40191303114E+01 -0.24515890632E+01  0.81570720645E+01  0.00000000000E+00 0. -1.
</event>
<event>
 7    1  0.5764931E-013  0.5052884E+02  0.7816164E-02  0.1300439E+00
        -11   -1    0    0    0    0  0.00000000000E+00  0.00000000000E+00  0.45593999997E+02  0.45594000000E+02  0.51100000000E-03 0. -1.
         11   -1    0    0    0    0 -0.00000000000E+00 -0.00000000000E+00 -0.45593999997E+02  0.45594000000E+02  0.51100000000E-03 0.  1.
    9900012    2    1    2    0    0  0.77734283196E+01  0.11791845176E+02 -0.38127329495E+02  0.50528842914E+02  0.29999948522E+02 0.  0.
         12    1    1    2    0    0 -0.77734283196E+01 -0.11791845176E+02  0.38127329495E+02  0.40659157086E+02  0.00000000000E+00 0. -1.
         11    1    3    3    0    0 -0.84885811896E+01  0.11056578150E+02 -0.12753440297E+02  0.18893230816E+02  0.51100000000E-03 0. -1.
        -11    1    3    3    0    0 -0.17538136547E+00 -0.20755133931E+01 -0.41566443114E+01  0.46493232476E+01  0.51100000000E-03 0.  1.
         12    1    3    3    0    0  0.16437390875E+02  0.28107804191E+01 -0.21217244887E+02  0.26986288850E+02  0.00000000000E+00 0. -1.
</event>
<event>
 7    1  0.5764931E-013  0.5052885E+02  0.7816164E-02  0.1300439E+00
        -11   -1    0    0    0    0  0.00000000000E+00  0.00000000000E+00  0.45593999997E+02  0.45594000000E+02  0.51100000000E-03 0.  1.
         11   -1    0    0    0    0 -0.00000000000E+00 -0.00000000000E+00 -0.45593999997E+02  0.45594000000E+02  0.51100000000E-03 0. -1.
    9900012    2    1    2    0    0  0.59127837396E+01  0.71641820480E+01  0.39583836000E+02  0.50528848650E+02  0.29999965958E+02 0.  0.
         12    1    1    2    0    0 -0.59127837396E+01 -0.71641820480E+01 -0.39583836000E+02  0.40659151350E+02  0.00000000000E+00 0. -1.
         11    1    3    3    0    0  0.26174798021E-01  0.38326039387E+01 -0.11696845861E+01  0.40072060544E+01  0.51100000000E-03 0. -1.
        -11    1    3    3    0    0  0.87680158652E+01  0.45355508947E+01  0.42010940081E+02  0.43155166677E+02  0.51100000000E-03 0.  1.
        -12    1    3    3    0    0 -0.28814069237E+01 -0.12039727854E+01 -0.12574194948E+01  0.33664759191E+01  0.00000000000E+00 0.  1.
</event>
<event>
 7    1  0.5764931E-013  0.5052886E+02  0.7816164E-02  0.1300439E+00
        -11   -1    0    0    0    0  0.00000000000E+00  0.00000000000E+00  0.45593999997E+02  0.45594000000E+02  0.51100000000E-03 0. -1.
         11   -1    0    0    0    0 -0.00000000000E+00 -0.00000000000E+00 -0.45593999997E+02  0.45594000000E+02  0.51100000000E-03 0.  1.
    9900012    2    1    2    0    0  0.24075790308E+02  0.11025436447E+02 -0.30853874052E+02  0.50528862382E+02  0.30000007698E+02 0.  0.
         12    1    1    2    0    0 -0.24075790308E+02 -0.11025436447E+02  0.30853874052E+02  0.40659137618E+02  0.00000000000E+00 0. -1.
         11    1    3    3    0    0  0.13981773728E+02 -0.48261584973E+01 -0.98951273322E+01  0.17795936266E+02  0.51100000000E-03 0. -1.
        -11    1    3    3    0    0  0.39450411642E+01  0.43753641589E+01 -0.18587798263E+02  0.19499061666E+02  0.51100000000E-03 0.  1.
         12    1    3    3    0    0  0.61489754165E+01  0.11476230785E+02 -0.23709484560E+01  0.13233864450E+02  0.00000000000E+00 0. -1.
</event>
<event>
 7    1  0.5764931E-013  0.5052887E+02  0.7816164E-02  0.1300439E+00
        -11   -1    0    0    0    0  0.00000000000E+00  0.00000000000E+00  0.45593999997E+02  0.45594000000E+02  0.51100000000E-03 0. -1.
         11   -1    0    0    0    0 -0.00000000000E+00 -0.00000000000E+00 -0.45593999997E+02  0.45594000000E+02  0.51100000000E-03 0.  1.
    9900012    2    1    2    0    0 -0.52542163200E+01  0.27083780757E+02 -0.29866820488E+02  0.50528868980E+02  0.30000027752E+02 0.  0.
         12    1    1    2    0    0  0.52542163200E+01 -0.27083780757E+02  0.29866820488E+02  0.40659131020E+02  0.00000000000E+00 0. -1.
         11    1    3    3    0    0  0.84449380539E+00 -0.59180188956E+01 -0.93607151286E+01  0.11106714429E+02  0.51100000000E-03 0. -1.
        -11    1    3    3    0    0 -0.25625706057E+01  0.78121492915E+01 -0.54397207997E+01  0.98583470877E+01  0.51100000000E-03 0.  1.
         12    1    3    3    0    0 -0.35361395198E+01  0.25189650361E+02 -0.15066384560E+02  0.29563807463E+02  0.00000000000E+00 0. -1.
</event>
<event>
 7    1  0.5764931E-013  0.5052886E+02  0.7816164E-02  0.1300439E+00
        -11   -1    0    0    0    0  0.00000000000E+00  0.00000000000E+00  0.45593999997E+02  0.45594000000E+02  0.51100000000E-03 0.  1.
         11   -1    0    0    0    0 -0.00000000000E+00 -0.00000000000E+00 -0.45593999997E+02  0.45594000000E+02  0.51100000000E-03 0. -1.
    9900012    2    1    2    0    0 -0.33222722782E+02 -0.13105445431E+02  0.19433566323E+02  0.50528861925E+02  0.30000006307E+02 0.  0.
         12    1    1    2    0    0  0.33222722782E+02  0.13105445431E+02 -0.19433566323E+02  0.40659138075E+02  0.00000000000E+00 0. -1.
         11    1    3    3    0    0  0.71030815624E-02  0.45954107548E+00 -0.11923050582E+01  0.12778184795E+01  0.51100000000E-03 0. -1.
        -11    1    3    3    0    0 -0.24268012408E+02 -0.14938398591E+02  0.26114175124E+02  0.38652843639E+02  0.51100000000E-03 0.  1.
        -12    1    3    3    0    0 -0.89618134558E+01  0.13734120843E+01 -0.54883037430E+01  0.10598199807E+02  0.00000000000E+00 0.  1.
</event>
<event>
 7    1  0.5764931E-013  0.5052886E+02  0.7816164E-02  0.1300439E+00
        -11   -1    0    0    0    0  0.00000000000E+00  0.00000000000E+00  0.45593999997E+02  0.45594000000E+02  0.51100000000E-03 0. -1.
         11   -1    0    0    0    0 -0.00000000000E+00 -0.00000000000E+00 -0.45593999997E+02  0.45594000000E+02  0.51100000000E-03 0.  1.
    9900012    2    1    2    0    0 -0.20637893566E+01 -0.37066215791E+02  0.16583181920E+02  0.50528862009E+02  0.30000006563E+02 0.  0.
         12    1    1    2    0    0  0.20637893566E+01  0.37066215791E+02 -0.16583181920E+02  0.40659137991E+02  0.00000000000E+00 0. -1.
         11    1    3    3    0    0  0.15518477847E+01 -0.58706075258E+01  0.81066840106E+01  0.10128701308E+02  0.51100000000E-03 0. -1.
        -11    1    3    3    0    0 -0.13218130571E+02 -0.16907579819E+02  0.60204592240E+00  0.21469692375E+02  0.51100000000E-03 0.  1.
        -12    1    3    3    0    0  0.96024934300E+01 -0.14288028446E+02  0.78744519875E+01  0.18930468326E+02  0.00000000000E+00 0.  1.
</event>
<event>
 7    1  0.5764931E-013  0.5052885E+02  0.7816164E-02  0.1300439E+00
        -11   -1    0    0    0    0  0.00000000000E+00  0.00000000000E+00  0.45593999997E+02  0.45594000000E+02  0.51100000000E-03 0.  1.
         11   -1    0    0    0    0 -0.00000000000E+00 -0.00000000000E+00 -0.45593999997E+02  0.45594000000E+02  0.51100000000E-03 0. -1.
    9900012    2    1    2    0    0 -0.37603594938E+02  0.14276121690E+02  0.59437551019E+01  0.50528853089E+02  0.29999979451E+02 0.  0.
         12    1    1    2    0    0  0.37603594938E+02 -0.14276121690E+02 -0.59437551019E+01  0.40659146911E+02  0.00000000000E+00 0. -1.
         11    1    3    3    0    0 -0.26752510071E+01 -0.39408204282E-01  0.87630814249E+01  0.91624296602E+01  0.51100000000E-03 0. -1.
        -11    1    3    3    0    0 -0.25242366545E+02  0.74800188269E+01  0.54844136114E+01  0.26892499760E+02  0.51100000000E-03 0.  1.
         12    1    3    3    0    0 -0.96859773860E+01  0.68355110675E+01 -0.83037399344E+01  0.14473923669E+02  0.00000000000E+00 0. -1.
</event>
<event>
 7    1  0.5764931E-013  0.5052886E+02  0.7816164E-02  0.1300439E+00
        -11   -1    0    0    0    0  0.00000000000E+00  0.00000000000E+00  0.45593999997E+02  0.45594000000E+02  0.51100000000E-03 0.  1.
         11   -1    0    0    0    0 -0.00000000000E+00 -0.00000000000E+00 -0.45593999997E+02  0.45594000000E+02  0.51100000000E-03 0. -1.
    9900012    2    1    2    0    0 -0.32499627133E+02 -0.18740789697E+02  0.15675543394E+02  0.50528860524E+02  0.30000002048E+02 0.  0.
         12    1    1    2    0    0  0.32499627133E+02  0.18740789697E+02 -0.15675543394E+02  0.40659139476E+02  0.00000000000E+00 0. -1.
         11    1    3    3    0    0 -0.16538487435E+02 -0.14747941282E+02 -0.27102620784E+01  0.22324176569E+02  0.51100000000E-03 0. -1.
        -11    1    3    3    0    0 -0.78835265875E+01  0.48649370390E+01  0.64498219106E+01  0.11287949627E+02  0.51100000000E-03 0.  1.
         12    1    3    3    0    0 -0.80776131107E+01 -0.88577854540E+01  0.11935983562E+02  0.16916734328E+02  0.00000000000E+00 0. -1.
</event>
<event>
 7    1  0.5764931E-013  0.5052886E+02  0.7816164E-02  0.1300439E+00
        -11   -1    0    0    0    0  0.00000000000E+00  0.00000000000E+00  0.45593999997E+02  0.45594000000E+02  0.51100000000E-03 0.  1.
         11   -1    0    0    0    0 -0.00000000000E+00 -0.00000000000E+00 -0.45593999997E+02  0.45594000000E+02  0.51100000000E-03 0. -1.
    9900012    2    1    2    0    0  0.55584329045E+00  0.13747727723E+02  0.38260382919E+02  0.50528857358E+02  0.29999992425E+02 0.  0.
         12    1    1    2    0    0 -0.55584329045E+00 -0.13747727723E+02 -0.38260382919E+02  0.40659142642E+02  0.00000000000E+00 0. -1.
         11    1    3    3    0    0  0.40459925127E+01 -0.76804379238E+00  0.83970382379E+01  0.93525503532E+01  0.51100000000E-03 0. -1.
        -11    1    3    3    0    0 -0.12634347594E+02  0.12006579900E+02  0.25118350790E+02  0.30573129488E+02  0.51100000000E-03 0.  1.
        -12    1    3    3    0    0  0.91441983716E+01  0.25091916147E+01  0.47449938910E+01  0.10603177516E+02  0.00000000000E+00 0.  1.
</event>
<event>
 7    1  0.5764931E-013  0.5052888E+02  0.7816164E-02  0.1300439E+00
        -11   -1    0    0    0    0  0.00000000000E+00  0.00000000000E+00  0.45593999997E+02  0.45594000000E+02  0.51100000000E-03 0.  1.
         11   -1    0    0    0    0 -0.00000000000E+00 -0.00000000000E+00 -0.45593999997E+02  0.45594000000E+02  0.51100000000E-03 0. -1.
    9900012    2    1    2    0    0 -0.27765854354E+02  0.28547396293E+02  0.82016999651E+01  0.50528875741E+02  0.30000048303E+02 0.  0.
         12    1    1    2    0    0  0.27765854354E+02 -0.28547396293E+02 -0.82016999651E+01  0.40659124259E+02  0.00000000000E+00 0. -1.
         11    1    3    3    0    0 -0.35487588119E+01  0.18847412840E+02  0.13428366398E+02  0.23412383139E+02  0.51100000000E-03 0.  1.
        -11    1    3    3    0    0 -0.22353671190E+02  0.10155611499E+02 -0.55479164391E+01  0.25171460777E+02  0.51100000000E-03 0. -1.
        -12    1    3    3    0    0 -0.18634243529E+01 -0.45562804596E+00  0.32125000671E+00  0.19450318255E+01  0.00000000000E+00 0.  1.
</event>
<event>
 7    1  0.5764931E-013  0.5052885E+02  0.7816164E-02  0.1300439E+00
        -11   -1    0    0    0    0  0.00000000000E+00  0.00000000000E+00  0.45593999997E+02  0.45594000000E+02  0.51100000000E-03 0.  1.
         11   -1    0    0    0    0 -0.00000000000E+00 -0.00000000000E+00 -0.45593999997E+02  0.45594000000E+02  0.51100000000E-03 0. -1.
    9900012    2    1    2    0    0  0.30363842263E+02  0.26048523122E+02 -0.72579457029E+01  0.50528852817E+02  0.29999978622E+02 0.  0.
         12    1    1    2    0    0 -0.30363842263E+02 -0.26048523122E+02  0.72579457029E+01  0.40659147183E+02  0.00000000000E+00 0. -1.
         11    1    3    3    0    0 -0.88994760138E-01 -0.54400109662E+01 -0.30854292157E+01  0.62547192652E+01  0.51100000000E-03 0. -1.
        -11    1    3    3    0    0  0.29690096175E+02  0.31084969481E+02 -0.34069833483E+01  0.43120582954E+02  0.51100000000E-03 0.  1.
        -12    1    3    3    0    0  0.76274084812E+00  0.40356460768E+00 -0.76553313887E+00  0.11535505974E+01  0.00000000000E+00 0.  1.
</event>
<event>
 7    1  0.5764931E-013  0.5052885E+02  0.7816164E-02  0.1300439E+00
        -11   -1    0    0    0    0  0.00000000000E+00  0.00000000000E+00  0.45593999997E+02  0.45594000000E+02  0.51100000000E-03 0.  1.
         11   -1    0    0    0    0 -0.00000000000E+00 -0.00000000000E+00 -0.45593999997E+02  0.45594000000E+02  0.51100000000E-03 0. -1.
    9900012    2    1    2    0    0 -0.11428182004E+02  0.32201302905E+02  0.22037215337E+02  0.50528854504E+02  0.29999983749E+02 0.  0.
         12    1    1    2    0    0  0.11428182004E+02 -0.32201302905E+02 -0.22037215337E+02  0.40659145496E+02  0.00000000000E+00 0. -1.
         11    1    3    3    0    0 -0.16025696441E+02  0.12435756102E+02  0.29350020734E+01  0.20495980427E+02  0.51100000000E-03 0. -1.
        -11    1    3    3    0    0  0.36254838936E+01  0.19932926750E+02  0.13502923495E+02  0.24347374508E+02  0.51100000000E-03 0.  1.
         12    1    3    3    0    0  0.97203054276E+00 -0.16737994710E+00  0.55992897691E+01  0.56854995683E+01  0.00000000000E+00 0. -1.
</event>
<event>
 7    1  0.5764931E-013  0.5052886E+02  0.7816164E-02  0.1300439E+00
        -11   -1    0    0    0    0  0.00000000000E+00  0.00000000000E+00  0.45593999997E+02  0.45594000000E+02  0.51100000000E-03 0.  1.
         11   -1    0    0    0    0 -0.00000000000E+00 -0.00000000000E+00 -0.45593999997E+02  0.45594000000E+02  0.51100000000E-03 0. -1.
    9900012    2    1    2    0    0 -0.20269439365E+01  0.23195653696E+02  0.33331954393E+02  0.50528855448E+02  0.29999986618E+02 0.  0.
         12    1    1    2    0    0  0.20269439365E+01 -0.23195653696E+02 -0.33331954393E+02  0.40659144552E+02  0.00000000000E+00 0. -1.
         11    1    3    3    0    0  0.74087310115E+01 -0.30577753595E+01  0.12202219334E+02  0.14599090461E+02  0.51100000000E-03 0. -1.
        -11    1    3    3    0    0  0.10115562349E+01  0.76931904470E+01  0.58316229699E+01  0.97065056531E+01  0.51100000000E-03 0.  1.
         12    1    3    3    0    0 -0.10447231183E+02  0.18560238608E+02  0.15298112089E+02  0.26223259333E+02  0.00000000000E+00 0. -1.
</event>
<event>
 7    1  0.5764931E-013  0.5052887E+02  0.7816164E-02  0.1300439E+00
        -11   -1    0    0    0    0  0.00000000000E+00  0.00000000000E+00  0.45593999997E+02  0.45594000000E+02  0.51100000000E-03 0. -1.
         11   -1    0    0    0    0 -0.00000000000E+00 -0.00000000000E+00 -0.45593999997E+02  0.45594000000E+02  0.51100000000E-03 0.  1.
    9900012    2    1    2    0    0 -0.28137894952E+02 -0.54253060990E+00 -0.29345010967E+02  0.50528866457E+02  0.30000020084E+02 0.  0.
         12    1    1    2    0    0  0.28137894952E+02  0.54253060990E+00  0.29345010967E+02  0.40659133543E+02  0.00000000000E+00 0. -1.
         11    1    3    3    0    0 -0.27560740246E+01 -0.35871269900E+01  0.39048462763E+01  0.59758889526E+01  0.51100000000E-03 0. -1.
        -11    1    3    3    0    0 -0.10781227258E+02  0.70711565244E+01 -0.22663424239E+02  0.26074257694E+02  0.51100000000E-03 0.  1.
        -12    1    3    3    0    0 -0.14600593670E+02 -0.40265601443E+01 -0.10586433004E+02  0.18478719811E+02  0.00000000000E+00 0.  1.
</event>
<event>
 7    1  0.5764931E-013  0.5052886E+02  0.7816164E-02  0.1300439E+00
        -11   -1    0    0    0    0  0.00000000000E+00  0.00000000000E+00  0.45593999997E+02  0.45594000000E+02  0.51100000000E-03 0.  1.
         11   -1    0    0    0    0 -0.00000000000E+00 -0.00000000000E+00 -0.45593999997E+02  0.45594000000E+02  0.51100000000E-03 0. -1.
    9900012    2    1    2    0    0  0.27750990594E+02 -0.30005752508E+01  0.29564241734E+02  0.50528864248E+02  0.30000013369E+02 0.  0.
         12    1    1    2    0    0 -0.27750990594E+02  0.30005752508E+01 -0.29564241734E+02  0.40659135752E+02  0.00000000000E+00 0. -1.
         11    1    3    3    0    0  0.17731291111E+02 -0.52364394726E+01  0.30427196237E+01  0.18737052217E+02  0.51100000000E-03 0. -1.
        -11    1    3    3    0    0  0.28267636718E+01  0.73604761905E+01  0.17359281183E+02  0.19065986627E+02  0.51100000000E-03 0.  1.
        -12    1    3    3    0    0  0.71929358110E+01 -0.51246119687E+01  0.91622409271E+01  0.12725825404E+02  0.00000000000E+00 0.  1.
</event>
<event>
 7    1  0.5764931E-013  0.5052885E+02  0.7816164E-02  0.1300439E+00
        -11   -1    0    0    0    0  0.00000000000E+00  0.00000000000E+00  0.45593999997E+02  0.45594000000E+02  0.51100000000E-03 0.  1.
         11   -1    0    0    0    0 -0.00000000000E+00 -0.00000000000E+00 -0.45593999997E+02  0.45594000000E+02  0.51100000000E-03 0. -1.
    9900012    2    1    2    0    0  0.13987021709E+02 -0.26045334570E+02  0.27913614107E+02  0.50528854883E+02  0.29999984902E+02 0.  0.
         12    1    1    2    0    0 -0.13987021709E+02  0.26045334570E+02 -0.27913614107E+02  0.40659145117E+02  0.00000000000E+00 0. -1.
         11    1    3    3    0    0  0.24418621079E+01 -0.24422770520E+02  0.12387072059E+02  0.27493162148E+02  0.51100000000E-03 0. -1.
        -11    1    3    3    0    0  0.54775659372E+01  0.22966280970E+00  0.15761066575E+02  0.16687351301E+02  0.51100000000E-03 0.  1.
         12    1    3    3    0    0  0.60675936638E+01 -0.18522268596E+01 -0.23452452703E+00  0.63483414340E+01  0.00000000000E+00 0. -1.
</event>
<event>
 7    1  0.5764931E-013  0.5052885E+02  0.7816164E-02  0.1300439E+00
        -11   -1    0    0    0    0  0.00000000000E+00  0.00000000000E+00  0.45593999997E+02  0.45594000000E+02  0.51100000000E-03 0.  1.
         11   -1    0    0    0    0 -0.00000000000E+00 -0.00000000000E+00 -0.45593999997E+02  0.45594000000E+02  0.51100000000E-03 0. -1.
    9900012    2    1    2    0    0  0.14971623893E+02 -0.35066160031E+02  0.14120246713E+02  0.50528850125E+02  0.29999970440E+02 0.  0.
         12    1    1    2    0    0 -0.14971623893E+02  0.35066160031E+02 -0.14120246713E+02  0.40659149875E+02  0.00000000000E+00 0. -1.
         11    1    3    3    0    0 -0.41576815884E+01 -0.11635233651E+01 -0.22340228541E+01  0.48611687057E+01  0.51100000000E-03 0. -1.
        -11    1    3    3    0    0  0.14739349396E+02 -0.32395393877E+02  0.18979463763E+02  0.40335220466E+02  0.51100000000E-03 0.  1.
         12    1    3    3    0    0  0.43899560853E+01 -0.15072427892E+01 -0.26251941958E+01  0.53324609536E+01  0.00000000000E+00 0. -1.
</event>
<event>
 7    1  0.5764931E-013  0.5052885E+02  0.7816164E-02  0.1300439E+00
        -11   -1    0    0    0    0  0.00000000000E+00  0.00000000000E+00  0.45593999997E+02  0.45594000000E+02  0.51100000000E-03 0.  1.
         11   -1    0    0    0    0 -0.00000000000E+00 -0.00000000000E+00 -0.45593999997E+02  0.45594000000E+02  0.51100000000E-03 0. -1.
    9900012    2    1    2    0    0 -0.14120733898E+02 -0.28136422069E+02  0.25731564297E+02  0.50528846371E+02  0.29999959030E+02 0.  0.
         12    1    1    2    0    0  0.14120733898E+02  0.28136422069E+02 -0.25731564297E+02  0.40659153629E+02  0.00000000000E+00 0. -1.
         11    1    3    3    0    0 -0.30793443588E+01 -0.35839551602E+01 -0.30504083730E+01  0.56242410842E+01  0.51100000000E-03 0. -1.
        -11    1    3    3    0    0 -0.12567928330E+02 -0.27433262229E+02  0.21884962300E+02  0.37275840355E+02  0.51100000000E-03 0.  1.
        -12    1    3    3    0    0  0.15265387906E+01  0.28807953203E+01  0.68970103696E+01  0.76287649324E+01  0.00000000000E+00 0.  1.
</event>
<event>
 7    1  0.5764931E-013  0.5052886E+02  0.7816164E-02  0.1300439E+00
        -11   -1    0    0    0    0  0.00000000000E+00  0.00000000000E+00  0.45593999997E+02  0.45594000000E+02  0.51100000000E-03 0.  1.
         11   -1    0    0    0    0 -0.00000000000E+00 -0.00000000000E+00 -0.45593999997E+02  0.45594000000E+02  0.51100000000E-03 0. -1.
    9900012    2    1    2    0    0  0.27260959382E+02 -0.28683642688E+02  0.93410238298E+01  0.50528856004E+02  0.29999988311E+02 0.  0.
         12    1    1    2    0    0 -0.27260959382E+02  0.28683642688E+02 -0.93410238298E+01  0.40659143996E+02  0.00000000000E+00 0. -1.
         11    1    3    3    0    0  0.57447181118E+01  0.51723502023E+01 -0.22730446384E+01  0.80574018758E+01  0.51100000000E-03 0. -1.
        -11    1    3    3    0    0  0.78863697378E+01 -0.62407195607E+01  0.28543657322E+01  0.10454128958E+02  0.51100000000E-03 0.  1.
         12    1    3    3    0    0  0.13629871532E+02 -0.27615273330E+02  0.87597027360E+01  0.32017325171E+02  0.00000000000E+00 0. -1.
</event>
<event>
 7    1  0.5764931E-013  0.5052887E+02  0.7816164E-02  0.1300439E+00
        -11   -1    0    0    0    0  0.00000000000E+00  0.00000000000E+00  0.45593999997E+02  0.45594000000E+02  0.51100000000E-03 0. -1.
         11   -1    0    0    0    0 -0.00000000000E+00 -0.00000000000E+00 -0.45593999997E+02  0.45594000000E+02  0.51100000000E-03 0.  1.
    9900012    2    1    2    0    0  0.17569757769E+02  0.20310092590E+02 -0.30528167140E+02  0.50528865257E+02  0.30000016436E+02 0.  0.
         12    1    1    2    0    0 -0.17569757769E+02 -0.20310092590E+02  0.30528167140E+02  0.40659134743E+02  0.00000000000E+00 0. -1.
         11    1    3    3    0    0 -0.56013659590E+01  0.44737154425E+01 -0.90784423268E+01  0.11567521161E+02  0.51100000000E-03 0. -1.
        -11    1    3    3    0    0  0.19193060580E+02  0.51315712588E+01 -0.82633418173E+01  0.21517188856E+02  0.51100000000E-03 0.  1.
        -12    1    3    3    0    0  0.39780631482E+01  0.10704805889E+02 -0.13186382996E+02  0.17444155241E+02  0.00000000000E+00 0.  1.
</event>
<event>
 7    1  0.5764931E-013  0.5052891E+02  0.7816164E-02  0.1300439E+00
        -11   -1    0    0    0    0  0.00000000000E+00  0.00000000000E+00  0.45593999997E+02  0.45594000000E+02  0.51100000000E-03 0. -1.
         11   -1    0    0    0    0 -0.00000000000E+00 -0.00000000000E+00 -0.45593999997E+02  0.45594000000E+02  0.51100000000E-03 0.  1.
    9900012    2    1    2    0    0  0.35780527560E+02 -0.10259977769E+02 -0.16359963840E+02  0.50528908605E+02  0.30000148194E+02 0.  0.
         12    1    1    2    0    0 -0.35780527560E+02  0.10259977769E+02  0.16359963840E+02  0.40659091395E+02  0.00000000000E+00 0. -1.
         11    1    3    3    0    0  0.10292496406E+02 -0.11621958122E+02  0.48693057704E+01  0.16270080879E+02  0.51100000000E-03 0. -1.
        -11    1    3    3    0    0  0.25326514387E+02  0.19812433067E+01 -0.21742940642E+02  0.33438198577E+02  0.51100000000E-03 0.  1.
        -12    1    3    3    0    0  0.16151676704E+00 -0.61926295358E+00  0.51367103192E+00  0.82062914934E+00  0.00000000000E+00 0.  1.
</event>
<event>
 7    1  0.5764931E-013  0.5052885E+02  0.7816164E-02  0.1300439E+00
        -11   -1    0    0    0    0  0.00000000000E+00  0.00000000000E+00  0.45593999997E+02  0.45594000000E+02  0.51100000000E-03 0. -1.
         11   -1    0    0    0    0 -0.00000000000E+00 -0.00000000000E+00 -0.45593999997E+02  0.45594000000E+02  0.51100000000E-03 0.  1.
    9900012    2    1    2    0    0 -0.40861093983E+01 -0.40452232513E+02 -0.29488219289E+00  0.50528851450E+02  0.29999974468E+02 0.  0.
         12    1    1    2    0    0  0.40861093983E+01  0.40452232513E+02  0.29488219289E+00  0.40659148550E+02  0.00000000000E+00 0. -1.
         11    1    3    3    0    0 -0.41452265038E+01 -0.12537881099E+02  0.22086099315E+01  0.13388776020E+02  0.51100000000E-03 0.  1.
        -11    1    3    3    0    0 -0.99604345522E-01  0.79879837915E+00 -0.78854694116E+01  0.79264511592E+01  0.51100000000E-03 0. -1.
        -12    1    3    3    0    0  0.15872145106E+00 -0.28713149793E+02  0.53819772872E+01  0.29213624271E+02  0.00000000000E+00 0.  1.
</event>
<event>
 7    1  0.5764931E-013  0.5052886E+02  0.7816164E-02  0.1300439E+00
        -11   -1    0    0    0    0  0.00000000000E+00  0.00000000000E+00  0.45593999997E+02  0.45594000000E+02  0.51100000000E-03 0. -1.
         11   -1    0    0    0    0 -0.00000000000E+00 -0.00000000000E+00 -0.45593999997E+02  0.45594000000E+02  0.51100000000E-03 0.  1.
    9900012    2    1    2    0    0  0.22840500413E+02  0.33389565428E+02 -0.40759996748E+01  0.50528864348E+02  0.30000013673E+02 0.  0.
         12    1    1    2    0    0 -0.22840500413E+02 -0.33389565428E+02  0.40759996748E+01  0.40659135652E+02  0.00000000000E+00 0. -1.
         11    1    3    3    0    0  0.60096758561E+01  0.21797856752E+01  0.46689829140E+01  0.79162536087E+01  0.51100000000E-03 0. -1.
        -11    1    3    3    0    0  0.12730717733E+02  0.32537812834E+02 -0.12283779047E+02  0.37036085997E+02  0.51100000000E-03 0.  1.
        -12    1    3    3    0    0  0.41001068244E+01 -0.13280330811E+01  0.35387964583E+01  0.55765247430E+01  0.00000000000E+00 0.  1.
</event>
<event>
 7    1  0.5764931E-013  0.5052886E+02  0.7816164E-02  0.1300439E+00
        -11   -1    0    0    0    0  0.00000000000E+00  0.00000000000E+00  0.45593999997E+02  0.45594000000E+02  0.51100000000E-03 0.  1.
         11   -1    0    0    0    0 -0.00000000000E+00 -0.00000000000E+00 -0.45593999997E+02  0.45594000000E+02  0.51100000000E-03 0. -1.
    9900012    2    1    2    0    0  0.11775004309E+02  0.59003332091E+01  0.38466886085E+02  0.50528856089E+02  0.29999988568E+02 0.  0.
         12    1    1    2    0    0 -0.11775004309E+02 -0.59003332091E+01 -0.38466886085E+02  0.40659143911E+02  0.00000000000E+00 0. -1.
         11    1    3    3    0    0  0.59488819415E+01  0.10852273869E+02  0.17256991955E+01  0.12495562511E+02  0.51100000000E-03 0. -1.
        -11    1    3    3    0    0  0.45251549991E+01  0.32811329300E-01  0.20546608152E+02  0.21039040167E+02  0.51100000000E-03 0.  1.
         12    1    3    3    0    0  0.13009673687E+01 -0.49847519895E+01  0.16194578738E+02  0.16994253411E+02  0.00000000000E+00 0. -1.
</event>
<event>
 7    1  0.5764931E-013  0.5052888E+02  0.7816164E-02  0.1300439E+00
        -11   -1    0    0    0    0  0.00000000000E+00  0.00000000000E+00  0.45593999997E+02  0.45594000000E+02  0.51100000000E-03 0. -1.
         11   -1    0    0    0    0 -0.00000000000E+00 -0.00000000000E+00 -0.45593999997E+02  0.45594000000E+02  0.51100000000E-03 0.  1.
    9900012    2    1    2    0    0  0.11077182229E+02 -0.15362072824E+02 -0.35978699323E+02  0.50528879836E+02  0.30000060750E+02 0.  0.
         12    1    1    2    0    0 -0.11077182229E+02  0.15362072824E+02  0.35978699323E+02  0.40659120164E+02  0.00000000000E+00 0. -1.
         11    1    3    3    0    0  0.11149228486E+02  0.46318733813E+01 -0.13665524753E+02  0.18234750174E+02  0.51100000000E-03 0. -1.
        -11    1    3    3    0    0 -0.99408639547E-01 -0.21454034411E+02 -0.22129846543E+02  0.30822322801E+02  0.51100000000E-03 0.  1.
        -12    1    3    3    0    0  0.27362381935E-01  0.14600882066E+01 -0.18332802707E+00  0.14718068612E+01  0.00000000000E+00 0.  1.
</event>
<event>
 7    1  0.5764931E-013  0.5052887E+02  0.7816164E-02  0.1300439E+00
        -11   -1    0    0    0    0  0.00000000000E+00  0.00000000000E+00  0.45593999997E+02  0.45594000000E+02  0.51100000000E-03 0.  1.
         11   -1    0    0    0    0 -0.00000000000E+00 -0.00000000000E+00 -0.45593999997E+02  0.45594000000E+02  0.51100000000E-03 0. -1.
    9900012    2    1    2    0    0  0.26716637789E+02  0.28293608156E+02  0.11783802385E+02  0.50528868235E+02  0.30000025487E+02 0.  0.
         12    1    1    2    0    0 -0.26716637789E+02 -0.28293608156E+02 -0.11783802385E+02  0.40659131765E+02  0.00000000000E+00 0. -1.
         11    1    3    3    0    0  0.27389463661E+02  0.19340344429E+02  0.65508528960E+01  0.34163508546E+02  0.51100000000E-03 0. -1.
        -11    1    3    3    0    0 -0.24342045673E+01  0.39275848191E+00  0.70237274333E+01  0.74439477711E+01  0.51100000000E-03 0.  1.
         12    1    3    3    0    0  0.17613786958E+01  0.85605052450E+01 -0.17907779441E+01  0.89214119176E+01  0.00000000000E+00 0. -1.
</event>
<event>
 7    1  0.5764931E-013  0.5052886E+02  0.7816164E-02  0.1300439E+00
        -11   -1    0    0    0    0  0.00000000000E+00  0.00000000000E+00  0.45593999997E+02  0.45594000000E+02  0.51100000000E-03 0.  1.
         11   -1    0    0    0    0 -0.00000000000E+00 -0.00000000000E+00 -0.45593999997E+02  0.45594000000E+02  0.51100000000E-03 0. -1.
    9900012    2    1    2    0    0 -0.28281477515E+02 -0.44384739351E+01  0.28872536906E+02  0.50528863159E+02  0.30000010057E+02 0.  0.
         12    1    1    2    0    0  0.28281477515E+02  0.44384739351E+01 -0.28872536906E+02  0.40659136841E+02  0.00000000000E+00 0. -1.
         11    1    3    3    0    0  0.13604855984E+01  0.21289390816E+01  0.43796178020E+01  0.50561205513E+01  0.51100000000E-03 0. -1.
        -11    1    3    3    0    0 -0.32909018613E+02 -0.48663215060E+01  0.17547763547E+02  0.37611282840E+02  0.51100000000E-03 0.  1.
        -12    1    3    3    0    0  0.32670555002E+01 -0.17010915107E+01  0.69451555567E+01  0.78614597675E+01  0.00000000000E+00 0.  1.
</event>
<event>
 7    1  0.5764931E-013  0.5052885E+02  0.7816164E-02  0.1300439E+00
        -11   -1    0    0    0    0  0.00000000000E+00  0.00000000000E+00  0.45593999997E+02  0.45594000000E+02  0.51100000000E-03 0.  1.
         11   -1    0    0    0    0 -0.00000000000E+00 -0.00000000000E+00 -0.45593999997E+02  0.45594000000E+02  0.51100000000E-03 0. -1.
    9900012    2    1    2    0    0 -0.15140534977E+01  0.30230107831E+02 -0.27148010102E+02  0.50528853059E+02  0.29999979359E+02 0.  0.
         12    1    1    2    0    0  0.15140534977E+01 -0.30230107831E+02  0.27148010102E+02  0.40659146941E+02  0.00000000000E+00 0. -1.
         11    1    3    3    0    0  0.49447192291E+01  0.35061202790E+01 -0.87343394472E+01  0.10631642089E+02  0.51100000000E-03 0. -1.
        -11    1    3    3    0    0 -0.10019567429E+02  0.21345273611E+02 -0.22226404327E+02  0.32404096756E+02  0.51100000000E-03 0.  1.
        -12    1    3    3    0    0  0.35607947023E+01  0.53787139409E+01  0.38127336726E+01  0.74931142142E+01  0.00000000000E+00 0.  1.
</event>
<event>
 7    1  0.5764931E-013  0.5052884E+02  0.7816164E-02  0.1300439E+00
        -11   -1    0    0    0    0  0.00000000000E+00  0.00000000000E+00  0.45593999997E+02  0.45594000000E+02  0.51100000000E-03 0. -1.
         11   -1    0    0    0    0 -0.00000000000E+00 -0.00000000000E+00 -0.45593999997E+02  0.45594000000E+02  0.51100000000E-03 0.  1.
    9900012    2    1    2    0    0 -0.35356464593E+02 -0.20095093440E-01 -0.20077037671E+02  0.50528838253E+02  0.29999934353E+02 0.  0.
         12    1    1    2    0    0  0.35356464593E+02  0.20095093440E-01  0.20077037671E+02  0.40659161747E+02  0.00000000000E+00 0. -1.
         11    1    3    3    0    0 -0.22291564429E+01 -0.59453695110E+01 -0.15033374138E+02  0.16319279865E+02  0.51100000000E-03 0. -1.
        -11    1    3    3    0    0 -0.12347030382E+02  0.11767348186E+01 -0.32297440751E+01  0.12816595146E+02  0.51100000000E-03 0.  1.
         12    1    3    3    0    0 -0.20780277769E+02  0.47485395989E+01 -0.18139194573E+01  0.21392963242E+02  0.00000000000E+00 0. -1.
</event>
<event>
 7    1  0.5764931E-013  0.5052886E+02  0.7816164E-02  0.1300439E+00
        -11   -1    0    0    0    0  0.00000000000E+00  0.00000000000E+00  0.45593999997E+02  0.45594000000E+02  0.51100000000E-03 0.  1.
         11   -1    0    0    0    0 -0.00000000000E+00 -0.00000000000E+00 -0.45593999997E+02  0.45594000000E+02  0.51100000000E-03 0. -1.
    9900012    2    1    2    0    0 -0.32185457698E+02 -0.17899460537E+02  0.17229957243E+02  0.50528858330E+02  0.29999995379E+02 0.  0.
         12    1    1    2    0    0  0.32185457698E+02  0.17899460537E+02 -0.17229957243E+02  0.40659141670E+02  0.00000000000E+00 0. -1.
         11    1    3    3    0    0  0.18636036654E+01 -0.19419414488E+01  0.51224738885E+01  0.57865269559E+01  0.51100000000E-03 0. -1.
        -11    1    3    3    0    0 -0.25256503094E+02 -0.41671698118E+01 -0.14685822468E+00  0.25598394879E+02  0.51100000000E-03 0.  1.
        -12    1    3    3    0    0 -0.87925582698E+01 -0.11790349276E+02  0.12254341580E+02  0.19143936495E+02  0.00000000000E+00 0.  1.
</event>
<event>
 7    1  0.5764931E-013  0.5052883E+02  0.7816164E-02  0.1300439E+00
        -11   -1    0    0    0    0  0.00000000000E+00  0.00000000000E+00  0.45593999997E+02  0.45594000000E+02  0.51100000000E-03 0. -1.
         11   -1    0    0    0    0 -0.00000000000E+00 -0.00000000000E+00 -0.45593999997E+02  0.45594000000E+02  0.51100000000E-03 0.  1.
    9900012    2    1    2    0    0  0.11550982197E+02 -0.38775049770E+02 -0.40297108665E+01  0.50528828291E+02  0.29999904073E+02 0.  0.
         12    1    1    2    0    0 -0.11550982197E+02  0.38775049770E+02  0.40297108665E+01  0.40659171709E+02  0.00000000000E+00 0. -1.
         11    1    3    3    0    0  0.90726864987E+01 -0.29847050113E+02 -0.10158796277E+02  0.32807943898E+02  0.51100000000E-03 0.  1.
        -11    1    3    3    0    0 -0.39281407403E+01 -0.94131230316E+01  0.36085421367E+01  0.10819369274E+02  0.51100000000E-03 0. -1.
         12    1    3    3    0    0  0.64064364391E+01  0.48512337434E+00  0.25205432743E+01  0.69015151187E+01  0.00000000000E+00 0. -1.
</event>
<event>
 7    1  0.5764931E-013  0.5052886E+02  0.7816164E-02  0.1300439E+00
        -11   -1    0    0    0    0  0.00000000000E+00  0.00000000000E+00  0.45593999997E+02  0.45594000000E+02  0.51100000000E-03 0.  1.
         11   -1    0    0    0    0 -0.00000000000E+00 -0.00000000000E+00 -0.45593999997E+02  0.45594000000E+02  0.51100000000E-03 0. -1.
    9900012    2    1    2    0    0  0.33194844919E+02  0.16693466193E+01  0.23419677976E+02  0.50528858791E+02  0.29999996782E+02 0.  0.
         12    1    1    2    0    0 -0.33194844919E+02 -0.16693466193E+01 -0.23419677976E+02  0.40659141209E+02  0.00000000000E+00 0. -1.
         11    1    3    3    0    0  0.10452953344E+02  0.12204904681E+02  0.49488347664E+01  0.16814127919E+02  0.51100000000E-03 0. -1.
        -11    1    3    3    0    0  0.21193643712E+02 -0.12174765289E+02  0.12753762282E+02  0.27569074998E+02  0.51100000000E-03 0.  1.
         12    1    3    3    0    0  0.15482478627E+01  0.16392072271E+01  0.57170809281E+01  0.61456558736E+01  0.00000000000E+00 0. -1.
</event>
<event>
 7    1  0.5764931E-013  0.5052886E+02  0.7816164E-02  0.1300439E+00
        -11   -1    0    0    0    0  0.00000000000E+00  0.00000000000E+00  0.45593999997E+02  0.45594000000E+02  0.51100000000E-03 0.  1.
         11   -1    0    0    0    0 -0.00000000000E+00 -0.00000000000E+00 -0.45593999997E+02  0.45594000000E+02  0.51100000000E-03 0. -1.
    9900012    2    1    2    0    0 -0.13540011567E+02 -0.21173671650E+02  0.31961059494E+02  0.50528860703E+02  0.30000002593E+02 0.  0.
         12    1    1    2    0    0  0.13540011567E+02  0.21173671650E+02 -0.31961059494E+02  0.40659139297E+02  0.00000000000E+00 0. -1.
         11    1    3    3    0    0 -0.79177305969E+01 -0.96977892769E+01  0.32841751193E+01  0.12943082366E+02  0.51100000000E-03 0. -1.
        -11    1    3    3    0    0 -0.23503081058E+00  0.34977173624E+01  0.18197164563E+02  0.18531758271E+02  0.51100000000E-03 0.  1.
        -12    1    3    3    0    0 -0.53872501594E+01 -0.14973599736E+02  0.10479719812E+02  0.19054020066E+02  0.00000000000E+00 0.  1.
</event>
<event>
 7    1  0.5764931E-013  0.5052886E+02  0.7816164E-02  0.1300439E+00
        -11   -1    0    0    0    0  0.00000000000E+00  0.00000000000E+00  0.45593999997E+02  0.45594000000E+02  0.51100000000E-03 0. -1.
         11   -1    0    0    0    0 -0.00000000000E+00 -0.00000000000E+00 -0.45593999997E+02  0.45594000000E+02  0.51100000000E-03 0.  1.
    9900012    2    1    2    0    0 -0.28697452604E+02  0.23623014744E+02 -0.16479525464E+02  0.50528863621E+02  0.30000011461E+02 0.  0.
         12    1    1    2    0    0  0.28697452604E+02 -0.23623014744E+02  0.16479525464E+02  0.40659136379E+02  0.00000000000E+00 0. -1.
         11    1    3    3    0    0 -0.23994133425E+01  0.20235491665E+02 -0.37581981015E+01  0.20720916016E+02  0.51100000000E-03 0. -1.
        -11    1    3    3    0    0 -0.13941693360E+02  0.40277516782E+01 -0.79511522154E+01  0.16547338732E+02  0.51100000000E-03 0.  1.
         12    1    3    3    0    0 -0.12356345902E+02 -0.64022859917E+00 -0.47701751475E+01  0.13260608872E+02  0.00000000000E+00 0. -1.
</event>
<event>
 7    1  0.5764931E-013  0.5052886E+02  0.7816164E-02  0.1300439E+00
        -11   -1    0    0    0    0  0.00000000000E+00  0.00000000000E+00  0.45593999997E+02  0.45594000000E+02  0.51100000000E-03 0.  1.
         11   -1    0    0    0    0 -0.00000000000E+00 -0.00000000000E+00 -0.45593999997E+02  0.45594000000E+02  0.51100000000E-03 0. -1.
    9900012    2    1    2    0    0 -0.35176463470E+02  0.20283952223E+02  0.20840977988E+01  0.50528858793E+02  0.29999996787E+02 0.  0.
         12    1    1    2    0    0  0.35176463470E+02 -0.20283952223E+02 -0.20840977988E+01  0.40659141207E+02  0.00000000000E+00 0. -1.
         11    1    3    3    0    0 -0.16371337336E+01 -0.69275843392E+01  0.43003184016E+00  0.71313784981E+01  0.51100000000E-03 0. -1.
        -11    1    3    3    0    0 -0.12830685793E+02  0.81582564212E+01  0.12240215162E+01  0.15253913422E+02  0.51100000000E-03 0.  1.
         12    1    3    3    0    0 -0.20708643944E+02  0.19053280141E+02  0.43004444244E+00  0.28143566873E+02  0.00000000000E+00 0. -1.
</event>
<event>
 7    1  0.5764931E-013  0.5052885E+02  0.7816164E-02  0.1300439E+00
        -11   -1    0    0    0    0  0.00000000000E+00  0.00000000000E+00  0.45593999997E+02  0.45594000000E+02  0.51100000000E-03 0. -1.
         11   -1    0    0    0    0 -0.00000000000E+00 -0.00000000000E+00 -0.45593999997E+02  0.45594000000E+02  0.51100000000E-03 0.  1.
    9900012    2    1    2    0    0 -0.37971014893E+02 -0.14396247024E+02 -0.20289474831E+01  0.50528849390E+02  0.29999968206E+02 0.  0.
         12    1    1    2    0    0  0.37971014893E+02  0.14396247024E+02  0.20289474831E+01  0.40659150610E+02  0.00000000000E+00 0. -1.
         11    1    3    3    0    0  0.64322514886E+00  0.59396931310E+00  0.14571619075E+01  0.16999585944E+01  0.51100000000E-03 0. -1.
        -11    1    3    3    0    0 -0.37773478143E+02 -0.61555708101E+01  0.21225517775E+01  0.38330561297E+02  0.51100000000E-03 0.  1.
        -12    1    3    3    0    0 -0.84076189919E+00 -0.88346455275E+01 -0.56086611681E+01  0.10498329499E+02  0.00000000000E+00 0.  1.
</event>
<event>
 7    1  0.5764931E-013  0.5052885E+02  0.7816164E-02  0.1300439E+00
        -11   -1    0    0    0    0  0.00000000000E+00  0.00000000000E+00  0.45593999997E+02  0.45594000000E+02  0.51100000000E-03 0.  1.
         11   -1    0    0    0    0 -0.00000000000E+00 -0.00000000000E+00 -0.45593999997E+02  0.45594000000E+02  0.51100000000E-03 0. -1.
    9900012    2    1    2    0    0  0.21010874830E+02 -0.28808230055E+02 -0.19539579523E+02  0.50528854068E+02  0.29999982425E+02 0.  0.
         12    1    1    2    0    0 -0.21010874830E+02  0.28808230055E+02  0.19539579523E+02  0.40659145932E+02  0.00000000000E+00 0. -1.
         11    1    3    3    0    0  0.13204598793E+02 -0.31004925324E+02 -0.15102494706E+02  0.36929015289E+02  0.51100000000E-03 0. -1.
        -11    1    3    3    0    0  0.38829369029E+01  0.58488590702E+00  0.30652782969E+01  0.49814879118E+01  0.51100000000E-03 0.  1.
         12    1    3    3    0    0  0.39233391338E+01  0.16118093623E+01 -0.75023631137E+01  0.86183508672E+01  0.00000000000E+00 0. -1.
</event>
<event>
 7    1  0.5764931E-013  0.5052886E+02  0.7816164E-02  0.1300439E+00
        -11   -1    0    0    0    0  0.00000000000E+00  0.00000000000E+00  0.45593999997E+02  0.45594000000E+02  0.51100000000E-03 0. -1.
         11   -1    0    0    0    0 -0.00000000000E+00 -0.00000000000E+00 -0.45593999997E+02  0.45594000000E+02  0.51100000000E-03 0.  1.
    9900012    2    1    2    0    0  0.29188148204E+02 -0.28235335305E+02 -0.19958076486E+01  0.50528863222E+02  0.30000010250E+02 0.  0.
         12    1    1    2    0    0 -0.29188148204E+02  0.28235335305E+02  0.19958076486E+01  0.40659136778E+02  0.00000000000E+00 0. -1.
         11    1    3    3    0    0  0.33615722660E+02 -0.25573853771E+02  0.33422896972E+01  0.42369915120E+02  0.51100000000E-03 0. -1.
        -11    1    3    3    0    0 -0.22634507121E+01  0.49251848273E+00 -0.16373806128E+01  0.28366880538E+01  0.51100000000E-03 0.  1.
         12    1    3    3    0    0 -0.21641237436E+01 -0.31540000168E+01 -0.37007167329E+01  0.53222600482E+01  0.00000000000E+00 0. -1.
</event>
<event>
 7    1  0.5764931E-013  0.5052886E+02  0.7816164E-02  0.1300439E+00
        -11   -1    0    0    0    0  0.00000000000E+00  0.00000000000E+00  0.45593999997E+02  0.45594000000E+02  0.51100000000E-03 0.  1.
         11   -1    0    0    0    0 -0.00000000000E+00 -0.00000000000E+00 -0.45593999997E+02  0.45594000000E+02  0.51100000000E-03 0. -1.
    9900012    2    1    2    0    0  0.28538213698E+02  0.27965643994E+02  0.75271823041E+01  0.50528863776E+02  0.30000011933E+02 0.  0.
         12    1    1    2    0    0 -0.28538213698E+02 -0.27965643994E+02 -0.75271823041E+01  0.40659136224E+02  0.00000000000E+00 0. -1.
         11    1    3    3    0    0  0.13281475312E+01  0.85683717538E+01 -0.69109088699E+01  0.11087904764E+02  0.51100000000E-03 0. -1.
        -11    1    3    3    0    0  0.88238294401E+00  0.41975122902E+01  0.68925833111E+01  0.81182149545E+01  0.51100000000E-03 0.  1.
         12    1    3    3    0    0  0.26327683222E+02  0.15199759950E+02  0.75455078629E+01  0.31322744058E+02  0.00000000000E+00 0. -1.
</event>
<event>
 7    1  0.5764931E-013  0.5052886E+02  0.7816164E-02  0.1300439E+00
        -11   -1    0    0    0    0  0.00000000000E+00  0.00000000000E+00  0.45593999997E+02  0.45594000000E+02  0.51100000000E-03 0.  1.
         11   -1    0    0    0    0 -0.00000000000E+00 -0.00000000000E+00 -0.45593999997E+02  0.45594000000E+02  0.51100000000E-03 0. -1.
    9900012    2    1    2    0    0 -0.23276395123E+02 -0.22743492880E+02  0.24374347648E+02  0.50528857589E+02  0.29999993128E+02 0.  0.
         12    1    1    2    0    0  0.23276395123E+02  0.22743492880E+02 -0.24374347648E+02  0.40659142411E+02  0.00000000000E+00 0. -1.
         11    1    3    3    0    0 -0.16951137258E+02 -0.50213205290E+01  0.19900133292E+02  0.26618978558E+02  0.51100000000E-03 0. -1.
        -11    1    3    3    0    0 -0.65064025990E+01 -0.14833957894E+02  0.90056252736E+01  0.18533236857E+02  0.51100000000E-03 0.  1.
         12    1    3    3    0    0  0.18114473374E+00 -0.28882144569E+01 -0.45314109172E+01  0.53766421737E+01  0.00000000000E+00 0. -1.
</event>
<event>
 7    1  0.5764931E-013  0.5052887E+02  0.7816164E-02  0.1300439E+00
        -11   -1    0    0    0    0  0.00000000000E+00  0.00000000000E+00  0.45593999997E+02  0.45594000000E+02  0.51100000000E-03 0.  1.
         11   -1    0    0    0    0 -0.00000000000E+00 -0.00000000000E+00 -0.45593999997E+02  0.45594000000E+02  0.51100000000E-03 0. -1.
    9900012    2    1    2    0    0  0.89157693773E+01  0.32882762289E+02  0.22190046554E+02  0.50528866150E+02  0.30000019150E+02 0.  0.
         12    1    1    2    0    0 -0.89157693773E+01 -0.32882762289E+02 -0.22190046554E+02  0.40659133850E+02  0.00000000000E+00 0. -1.
         11    1    3    3    0    0 -0.84063915307E+01  0.46612668139E+01  0.99847250069E+01  0.13859637824E+02  0.51100000000E-03 0. -1.
        -11    1    3    3    0    0  0.10409794544E+01  0.71597574115E+01 -0.33435245551E+00  0.72427588833E+01  0.51100000000E-03 0.  1.
         12    1    3    3    0    0  0.16281181454E+02  0.21061738064E+02  0.12539674003E+02  0.29426469443E+02  0.00000000000E+00 0. -1.
</event>
<event>
 7    1  0.5764931E-013  0.5052885E+02  0.7816164E-02  0.1300439E+00
        -11   -1    0    0    0    0  0.00000000000E+00  0.00000000000E+00  0.45593999997E+02  0.45594000000E+02  0.51100000000E-03 0.  1.
         11   -1    0    0    0    0 -0.00000000000E+00 -0.00000000000E+00 -0.45593999997E+02  0.45594000000E+02  0.51100000000E-03 0. -1.
    9900012    2    1    2    0    0  0.68608314141E+01  0.17775661956E+02  0.35918255012E+02  0.50528853320E+02  0.29999980151E+02 0.  0.
         12    1    1    2    0    0 -0.68608314141E+01 -0.17775661956E+02 -0.35918255012E+02  0.40659146680E+02  0.00000000000E+00 0. -1.
         11    1    3    3    0    0 -0.34009730525E+01  0.15446399822E+02  0.20508129471E+02  0.25898672936E+02  0.51100000000E-03 0. -1.
        -11    1    3    3    0    0  0.11660072225E+02  0.74098116190E+01  0.12385717657E+02  0.18554476405E+02  0.51100000000E-03 0.  1.
         12    1    3    3    0    0 -0.13982677583E+01 -0.50805494851E+01  0.30244078838E+01  0.60757039792E+01  0.00000000000E+00 0. -1.
</event>
<event>
 7    1  0.5764931E-013  0.5052885E+02  0.7816164E-02  0.1300439E+00
        -11   -1    0    0    0    0  0.00000000000E+00  0.00000000000E+00  0.45593999997E+02  0.45594000000E+02  0.51100000000E-03 0.  1.
         11   -1    0    0    0    0 -0.00000000000E+00 -0.00000000000E+00 -0.45593999997E+02  0.45594000000E+02  0.51100000000E-03 0. -1.
    9900012    2    1    2    0    0  0.38282551118E+02 -0.97049329177E+01  0.96657727730E+01  0.50528848430E+02  0.29999965289E+02 0.  0.
         12    1    1    2    0    0 -0.38282551118E+02  0.97049329177E+01 -0.96657727730E+01  0.40659151570E+02  0.00000000000E+00 0. -1.
         11    1    3    3    0    0  0.18569920103E+01  0.75970986851E+01  0.30635789568E+01  0.83993954570E+01  0.51100000000E-03 0. -1.
        -11    1    3    3    0    0  0.32247672241E+02 -0.18070711144E+02  0.76615982919E+01  0.37751331829E+02  0.51100000000E-03 0.  1.
         12    1    3    3    0    0  0.41778868666E+01  0.76867954151E+00 -0.10594044757E+01  0.43781211440E+01  0.00000000000E+00 0. -1.
</event>
<event>
 7    1  0.5764931E-013  0.5052884E+02  0.7816164E-02  0.1300439E+00
        -11   -1    0    0    0    0  0.00000000000E+00  0.00000000000E+00  0.45593999997E+02  0.45594000000E+02  0.51100000000E-03 0. -1.
         11   -1    0    0    0    0 -0.00000000000E+00 -0.00000000000E+00 -0.45593999997E+02  0.45594000000E+02  0.51100000000E-03 0.  1.
    9900012    2    1    2    0    0  0.39665185239E+02 -0.68965430909E+01 -0.56813435692E+01  0.50528844925E+02  0.29999954633E+02 0.  0.
         12    1    1    2    0    0 -0.39665185239E+02  0.68965430909E+01  0.56813435692E+01  0.40659155075E+02  0.00000000000E+00 0. -1.
         11    1    3    3    0    0  0.30072088839E+02 -0.15319835850E+02  0.40246094312E+01  0.33988606605E+02  0.51100000000E-03 0. -1.
        -11    1    3    3    0    0  0.47132713166E+01  0.36113195897E+01 -0.69820487101E+01  0.91654547151E+01  0.51100000000E-03 0.  1.
         12    1    3    3    0    0  0.48798250839E+01  0.48119731695E+01 -0.27239042903E+01  0.73747836048E+01  0.00000000000E+00 0. -1.
</event>
<event>
 7    1  0.5764931E-013  0.5052884E+02  0.7816164E-02  0.1300439E+00
        -11   -1    0    0    0    0  0.00000000000E+00  0.00000000000E+00  0.45593999997E+02  0.45594000000E+02  0.51100000000E-03 0. -1.
         11   -1    0    0    0    0 -0.00000000000E+00 -0.00000000000E+00 -0.45593999997E+02  0.45594000000E+02  0.51100000000E-03 0.  1.
    9900012    2    1    2    0    0  0.59574214244E+01 -0.30234385715E+02 -0.26524677438E+02  0.50528837899E+02  0.29999933277E+02 0.  0.
         12    1    1    2    0    0 -0.59574214244E+01  0.30234385715E+02  0.26524677438E+02  0.40659162101E+02  0.00000000000E+00 0. -1.
         11    1    3    3    0    0 -0.82349865762E+01 -0.57424506444E+01 -0.68047880795E+01  0.12128309214E+02  0.51100000000E-03 0. -1.
        -11    1    3    3    0    0  0.16519344145E+02 -0.14869235802E+02 -0.17414560971E+02  0.28235612945E+02  0.51100000000E-03 0.  1.
        -12    1    3    3    0    0 -0.23269361441E+01 -0.96226992683E+01 -0.23053283876E+01  0.10164915740E+02  0.00000000000E+00 0.  1.
</event>
<event>
 7    1  0.5764931E-013  0.5052886E+02  0.7816164E-02  0.1300439E+00
        -11   -1    0    0    0    0  0.00000000000E+00  0.00000000000E+00  0.45593999997E+02  0.45594000000E+02  0.51100000000E-03 0. -1.
         11   -1    0    0    0    0 -0.00000000000E+00 -0.00000000000E+00 -0.45593999997E+02  0.45594000000E+02  0.51100000000E-03 0.  1.
    9900012    2    1    2    0    0 -0.87262937925E+01 -0.27814203196E+02 -0.28344085819E+02  0.50528864450E+02  0.30000013981E+02 0.  0.
         12    1    1    2    0    0  0.87262937925E+01  0.27814203196E+02  0.28344085819E+02  0.40659135550E+02  0.00000000000E+00 0. -1.
         11    1    3    3    0    0  0.92986239061E+00  0.24562398132E+01 -0.10757564130E+02  0.11073524478E+02  0.51100000000E-03 0. -1.
        -11    1    3    3    0    0 -0.23064563785E+01 -0.16163468692E+02 -0.16951766082E+02  0.23535926469E+02  0.51100000000E-03 0.  1.
         12    1    3    3    0    0 -0.73496998046E+01 -0.14106974317E+02 -0.63475560735E+00  0.15919413503E+02  0.00000000000E+00 0. -1.
</event>
<event>
 7    1  0.5764931E-013  0.5052887E+02  0.7816164E-02  0.1300439E+00
        -11   -1    0    0    0    0  0.00000000000E+00  0.00000000000E+00  0.45593999997E+02  0.45594000000E+02  0.51100000000E-03 0.  1.
         11   -1    0    0    0    0 -0.00000000000E+00 -0.00000000000E+00 -0.45593999997E+02  0.45594000000E+02  0.51100000000E-03 0. -1.
    9900012    2    1    2    0    0  0.61549991071E+01 -0.19378492059E+01  0.40143808148E+02  0.50528873027E+02  0.30000040054E+02 0.  0.
         12    1    1    2    0    0 -0.61549991071E+01  0.19378492059E+01 -0.40143808148E+02  0.40659126973E+02  0.00000000000E+00 0. -1.
         11    1    3    3    0    0 -0.38015381090E+01  0.10979748375E+02  0.16859332506E+02  0.20475440391E+02  0.51100000000E-03 0. -1.
        -11    1    3    3    0    0  0.15844013905E+01 -0.97502713926E+01  0.14218224699E+02  0.17312886352E+02  0.51100000000E-03 0.  1.
         12    1    3    3    0    0  0.83721358255E+01 -0.31673261887E+01  0.90662509427E+01  0.12740546284E+02  0.00000000000E+00 0. -1.
</event>
<event>
 7    1  0.5764931E-013  0.5052885E+02  0.7816164E-02  0.1300439E+00
        -11   -1    0    0    0    0  0.00000000000E+00  0.00000000000E+00  0.45593999997E+02  0.45594000000E+02  0.51100000000E-03 0.  1.
         11   -1    0    0    0    0 -0.00000000000E+00 -0.00000000000E+00 -0.45593999997E+02  0.45594000000E+02  0.51100000000E-03 0. -1.
    9900012    2    1    2    0    0 -0.14007423981E+02 -0.14368655274E+02  0.35362410459E+02  0.50528852758E+02  0.29999978444E+02 0.  0.
         12    1    1    2    0    0  0.14007423981E+02  0.14368655274E+02 -0.35362410459E+02  0.40659147242E+02  0.00000000000E+00 0. -1.
         11    1    3    3    0    0 -0.14405215046E+01 -0.91717619914E+01  0.21642714861E+02  0.23550019683E+02  0.51100000000E-03 0.  1.
        -11    1    3    3    0    0 -0.56007872927E+00  0.36162497972E+01 -0.28946239713E+01  0.46658117166E+01  0.51100000000E-03 0. -1.
        -12    1    3    3    0    0 -0.12006823747E+02 -0.88131430801E+01  0.16614319569E+02  0.22313021359E+02  0.00000000000E+00 0.  1.
</event>
<event>
 7    1  0.5764931E-013  0.5052886E+02  0.7816164E-02  0.1300439E+00
        -11   -1    0    0    0    0  0.00000000000E+00  0.00000000000E+00  0.45593999997E+02  0.45594000000E+02  0.51100000000E-03 0.  1.
         11   -1    0    0    0    0 -0.00000000000E+00 -0.00000000000E+00 -0.45593999997E+02  0.45594000000E+02  0.51100000000E-03 0. -1.
    9900012    2    1    2    0    0  0.24666029693E+02 -0.85128829606E+01  0.31181458520E+02  0.50528861390E+02  0.30000004680E+02 0.  0.
         12    1    1    2    0    0 -0.24666029693E+02  0.85128829606E+01 -0.31181458520E+02  0.40659138610E+02  0.00000000000E+00 0. -1.
         11    1    3    3    0    0  0.43179006532E+01 -0.27923851768E+01 -0.55201399124E+01  0.75441120048E+01  0.51100000000E-03 0. -1.
        -11    1    3    3    0    0  0.37833892755E+01 -0.43301317235E+01  0.91385503856E+01  0.10797091208E+02  0.51100000000E-03 0.  1.
         12    1    3    3    0    0  0.16564739764E+02 -0.13903660602E+01  0.27563048047E+02  0.32187658176E+02  0.00000000000E+00 0. -1.
</event>
<event>
 7    1  0.5764931E-013  0.5052886E+02  0.7816164E-02  0.1300439E+00
        -11   -1    0    0    0    0  0.00000000000E+00  0.00000000000E+00  0.45593999997E+02  0.45594000000E+02  0.51100000000E-03 0.  1.
         11   -1    0    0    0    0 -0.00000000000E+00 -0.00000000000E+00 -0.45593999997E+02  0.45594000000E+02  0.51100000000E-03 0. -1.
    9900012    2    1    2    0    0 -0.39063857792E+01  0.17520977493E+02  0.36481793193E+02  0.50528859125E+02  0.29999997796E+02 0.  0.
         12    1    1    2    0    0  0.39063857792E+01 -0.17520977493E+02 -0.36481793193E+02  0.40659140875E+02  0.00000000000E+00 0. -1.
         11    1    3    3    0    0 -0.13720365528E+02  0.78896672781E+01  0.94676260609E+01  0.18442646867E+02  0.51100000000E-03 0.  1.
        -11    1    3    3    0    0  0.26473691496E+01  0.74999416138E+01  0.65647324525E+01  0.10312778484E+02  0.51100000000E-03 0. -1.
         12    1    3    3    0    0  0.71666105992E+01  0.21313686011E+01  0.20449434679E+02  0.21773433774E+02  0.00000000000E+00 0. -1.
</event>
<event>
 7    1  0.5764931E-013  0.5052886E+02  0.7816164E-02  0.1300439E+00
        -11   -1    0    0    0    0  0.00000000000E+00  0.00000000000E+00  0.45593999997E+02  0.45594000000E+02  0.51100000000E-03 0. -1.
         11   -1    0    0    0    0 -0.00000000000E+00 -0.00000000000E+00 -0.45593999997E+02  0.45594000000E+02  0.51100000000E-03 0.  1.
    9900012    2    1    2    0    0 -0.34287493162E+02 -0.21291054149E+02 -0.49218316558E+01  0.50528860794E+02  0.30000002870E+02 0.  0.
         12    1    1    2    0    0  0.34287493162E+02  0.21291054149E+02  0.49218316558E+01  0.40659139206E+02  0.00000000000E+00 0. -1.
         11    1    3    3    0    0 -0.16322948298E+02  0.19432434745E+01  0.11398207308E+01  0.16477682723E+02  0.51100000000E-03 0. -1.
        -11    1    3    3    0    0 -0.20516428267E+02 -0.22745975851E+02 -0.43480682517E+01  0.30938793513E+02  0.51100000000E-03 0.  1.
        -12    1    3    3    0    0  0.25518834027E+01 -0.48832177235E+00 -0.17135841349E+01  0.31123845588E+01  0.00000000000E+00 0.  1.
</event>
<event>
 7    1  0.5764931E-013  0.5052886E+02  0.7816164E-02  0.1300439E+00
        -11   -1    0    0    0    0  0.00000000000E+00  0.00000000000E+00  0.45593999997E+02  0.45594000000E+02  0.51100000000E-03 0.  1.
         11   -1    0    0    0    0 -0.00000000000E+00 -0.00000000000E+00 -0.45593999997E+02  0.45594000000E+02  0.51100000000E-03 0. -1.
    9900012    2    1    2    0    0 -0.40457606203E+02 -0.27433859786E+01  0.29701242420E+01  0.50528859523E+02  0.29999999005E+02 0.  0.
         12    1    1    2    0    0  0.40457606203E+02  0.27433859786E+01 -0.29701242420E+01  0.40659140477E+02  0.00000000000E+00 0. -1.
         11    1    3    3    0    0 -0.26572504160E+02  0.13792450432E+01 -0.79926669663E+01  0.27782782793E+02  0.51100000000E-03 0. -1.
        -11    1    3    3    0    0 -0.14414557650E+02 -0.73784735752E+01  0.10758054198E+02  0.19441118150E+02  0.51100000000E-03 0.  1.
         12    1    3    3    0    0  0.52945560612E+00  0.32558425534E+01  0.20473701055E+00  0.33049585799E+01  0.00000000000E+00 0. -1.
</event>
<event>
 7    1  0.5764931E-013  0.5052886E+02  0.7816164E-02  0.1300439E+00
        -11   -1    0    0    0    0  0.00000000000E+00  0.00000000000E+00  0.45593999997E+02  0.45594000000E+02  0.51100000000E-03 0.  1.
         11   -1    0    0    0    0 -0.00000000000E+00 -0.00000000000E+00 -0.45593999997E+02  0.45594000000E+02  0.51100000000E-03 0. -1.
    9900012    2    1    2    0    0 -0.37978174726E+02 -0.72395671994E+01  0.12586215855E+02  0.50528856891E+02  0.29999991007E+02 0.  0.
         12    1    1    2    0    0  0.37978174726E+02  0.72395671994E+01 -0.12586215855E+02  0.40659143109E+02  0.00000000000E+00 0. -1.
         11    1    3    3    0    0 -0.21741846559E+02  0.47354423539E+01  0.17822517959E+02  0.28509199441E+02  0.51100000000E-03 0. -1.
        -11    1    3    3    0    0 -0.79156009623E+01 -0.48425973072E+01  0.11259628040E+01  0.93474745130E+01  0.51100000000E-03 0.  1.
         12    1    3    3    0    0 -0.83207272047E+01 -0.71324122460E+01 -0.63622649073E+01  0.12672182938E+02  0.00000000000E+00 0. -1.
</event>
<event>
 7    1  0.5764931E-013  0.5052886E+02  0.7816164E-02  0.1300439E+00
        -11   -1    0    0    0    0  0.00000000000E+00  0.00000000000E+00  0.45593999997E+02  0.45594000000E+02  0.51100000000E-03 0. -1.
         11   -1    0    0    0    0 -0.00000000000E+00 -0.00000000000E+00 -0.45593999997E+02  0.45594000000E+02  0.51100000000E-03 0.  1.
    9900012    2    1    2    0    0  0.11893100343E+02 -0.10984745370E+02 -0.37296849645E+02  0.50528862527E+02  0.30000008136E+02 0.  0.
         12    1    1    2    0    0 -0.11893100343E+02  0.10984745370E+02  0.37296849645E+02  0.40659137473E+02  0.00000000000E+00 0. -1.
         11    1    3    3    0    0  0.17435833276E+02 -0.48643063773E+01 -0.27830490532E+02  0.33199487377E+02  0.51100000000E-03 0.  1.
        -11    1    3    3    0    0 -0.12656461196E+01 -0.91731943236E+01 -0.61058466463E+01  0.11091921282E+02  0.51100000000E-03 0. -1.
         12    1    3    3    0    0 -0.42770868132E+01  0.30527553305E+01 -0.33605124665E+01  0.62374538678E+01  0.00000000000E+00 0. -1.
</event>
<event>
 7    1  0.5764931E-013  0.5052886E+02  0.7816164E-02  0.1300439E+00
        -11   -1    0    0    0    0  0.00000000000E+00  0.00000000000E+00  0.45593999997E+02  0.45594000000E+02  0.51100000000E-03 0. -1.
         11   -1    0    0    0    0 -0.00000000000E+00 -0.00000000000E+00 -0.45593999997E+02  0.45594000000E+02  0.51100000000E-03 0.  1.
    9900012    2    1    2    0    0 -0.16144351576E+02  0.27436089120E+02 -0.25293995286E+02  0.50528864845E+02  0.30000015182E+02 0.  0.
         12    1    1    2    0    0  0.16144351576E+02 -0.27436089120E+02  0.25293995286E+02  0.40659135155E+02  0.00000000000E+00 0. -1.
         11    1    3    3    0    0  0.48829985524E+01 -0.76860641629E+00  0.39390461136E+00  0.49587893472E+01  0.51100000000E-03 0. -1.
        -11    1    3    3    0    0 -0.34591105717E+01  0.14036865218E+02 -0.14122871636E+02  0.20210258152E+02  0.51100000000E-03 0.  1.
         12    1    3    3    0    0 -0.17568239557E+02  0.14167830319E+02 -0.11565028262E+02  0.25359817345E+02  0.00000000000E+00 0. -1.
</event>
<event>
 7    1  0.5764931E-013  0.5052885E+02  0.7816164E-02  0.1300439E+00
        -11   -1    0    0    0    0  0.00000000000E+00  0.00000000000E+00  0.45593999997E+02  0.45594000000E+02  0.51100000000E-03 0.  1.
         11   -1    0    0    0    0 -0.00000000000E+00 -0.00000000000E+00 -0.45593999997E+02  0.45594000000E+02  0.51100000000E-03 0. -1.
    9900012    2    1    2    0    0  0.30531890596E+02  0.18655704897E+01  0.26785998152E+02  0.50528851046E+02  0.29999973240E+02 0.  0.
         12    1    1    2    0    0 -0.30531890596E+02 -0.18655704897E+01 -0.26785998152E+02  0.40659148954E+02  0.00000000000E+00 0. -1.
         11    1    3    3    0    0  0.46541151647E+01  0.13907232275E+01 -0.24951733840E+01  0.54608414680E+01  0.51100000000E-03 0. -1.
        -11    1    3    3    0    0  0.28926079635E+02 -0.34362363917E+01  0.26514767176E+02  0.39389829681E+02  0.51100000000E-03 0.  1.
        -12    1    3    3    0    0 -0.30483042034E+01  0.39110836539E+01  0.27664043601E+01  0.56781798975E+01  0.00000000000E+00 0.  1.
</event>
<event>
 7    1  0.5764931E-013  0.5052889E+02  0.7816164E-02  0.1300439E+00
        -11   -1    0    0    0    0  0.00000000000E+00  0.00000000000E+00  0.45593999997E+02  0.45594000000E+02  0.51100000000E-03 0.  1.
         11   -1    0    0    0    0 -0.00000000000E+00 -0.00000000000E+00 -0.45593999997E+02  0.45594000000E+02  0.51100000000E-03 0. -1.
    9900012    2    1    2    0    0 -0.27726644391E+02 -0.10745958220E+02  0.27729422881E+02  0.50528888837E+02  0.30000088108E+02 0.  0.
         12    1    1    2    0    0  0.27726644391E+02  0.10745958220E+02 -0.27729422881E+02  0.40659111163E+02  0.00000000000E+00 0. -1.
         11    1    3    3    0    0 -0.25189691163E+01  0.64111362133E+01 -0.13874120504E+01  0.70265770766E+01  0.51100000000E-03 0. -1.
        -11    1    3    3    0    0 -0.12964234816E+02 -0.28987235280E+01  0.14719664053E+02  0.19827821176E+02  0.51100000000E-03 0.  1.
         12    1    3    3    0    0 -0.12243440458E+02 -0.14258370906E+02  0.14397170878E+02  0.23674490585E+02  0.00000000000E+00 0. -1.
</event>
<event>
 7    1  0.5764931E-013  0.5052886E+02  0.7816164E-02  0.1300439E+00
        -11   -1    0    0    0    0  0.00000000000E+00  0.00000000000E+00  0.45593999997E+02  0.45594000000E+02  0.51100000000E-03 0.  1.
         11   -1    0    0    0    0 -0.00000000000E+00 -0.00000000000E+00 -0.45593999997E+02  0.45594000000E+02  0.51100000000E-03 0. -1.
    9900012    2    1    2    0    0 -0.18817808180E+02  0.72899602556E+01 -0.35297482399E+02  0.50528859712E+02  0.29999999580E+02 0.  0.
         12    1    1    2    0    0  0.18817808180E+02 -0.72899602556E+01  0.35297482399E+02  0.40659140288E+02  0.00000000000E+00 0. -1.
         11    1    3    3    0    0  0.69465596883E+00  0.95255642256E+01 -0.17617996237E+02  0.20040277254E+02  0.51100000000E-03 0. -1.
        -11    1    3    3    0    0 -0.19672301714E+02 -0.40887796056E+01 -0.97305145864E+01  0.22324884944E+02  0.51100000000E-03 0.  1.
        -12    1    3    3    0    0  0.15983756527E+00  0.18531756356E+01 -0.79489715757E+01  0.81636975137E+01  0.00000000000E+00 0.  1.
</event>
<event>
 7    1  0.5764931E-013  0.5052886E+02  0.7816164E-02  0.1300439E+00
        -11   -1    0    0    0    0  0.00000000000E+00  0.00000000000E+00  0.45593999997E+02  0.45594000000E+02  0.51100000000E-03 0. -1.
         11   -1    0    0    0    0 -0.00000000000E+00 -0.00000000000E+00 -0.45593999997E+02  0.45594000000E+02  0.51100000000E-03 0.  1.
    9900012    2    1    2    0    0 -0.80553353242E+01 -0.22937884946E+02 -0.32590346481E+02  0.50528859863E+02  0.30000000038E+02 0.  0.
         12    1    1    2    0    0  0.80553353242E+01  0.22937884946E+02  0.32590346481E+02  0.40659140137E+02  0.00000000000E+00 0. -1.
         11    1    3    3    0    0 -0.48427718784E+01 -0.19630927954E+02 -0.62435611019E+01  0.21161470348E+02  0.51100000000E-03 0.  1.
        -11    1    3    3    0    0  0.11196189649E+01 -0.60129250285E+01 -0.21399618600E+02  0.22256515687E+02  0.51100000000E-03 0. -1.
        -12    1    3    3    0    0 -0.43321824108E+01  0.27059680366E+01 -0.49471667784E+01  0.71108738274E+01  0.00000000000E+00 0.  1.
</event>
<event>
 7    1  0.5764931E-013  0.5052885E+02  0.7816164E-02  0.1300439E+00
        -11   -1    0    0    0    0  0.00000000000E+00  0.00000000000E+00  0.45593999997E+02  0.45594000000E+02  0.51100000000E-03 0.  1.
         11   -1    0    0    0    0 -0.00000000000E+00 -0.00000000000E+00 -0.45593999997E+02  0.45594000000E+02  0.51100000000E-03 0. -1.
    9900012    2    1    2    0    0 -0.17147558636E+02  0.32696867398E+02  0.17030631620E+02  0.50528851974E+02  0.29999976060E+02 0.  0.
         12    1    1    2    0    0  0.17147558636E+02 -0.32696867398E+02 -0.17030631620E+02  0.40659148026E+02  0.00000000000E+00 0. -1.
         11    1    3    3    0    0 -0.12668215920E+02  0.22662268130E+02 -0.34881483999E+01  0.26195978144E+02  0.51100000000E-03 0. -1.
        -11    1    3    3    0    0 -0.26532925039E+01  0.10217331205E+02  0.19642197319E+02  0.22299097153E+02  0.51100000000E-03 0.  1.
         12    1    3    3    0    0 -0.18260502120E+01 -0.18273193780E+00  0.87658270102E+00  0.20337766765E+01  0.00000000000E+00 0. -1.
</event>
<event>
 7    1  0.5764931E-013  0.5052886E+02  0.7816164E-02  0.1300439E+00
        -11   -1    0    0    0    0  0.00000000000E+00  0.00000000000E+00  0.45593999997E+02  0.45594000000E+02  0.51100000000E-03 0.  1.
         11   -1    0    0    0    0 -0.00000000000E+00 -0.00000000000E+00 -0.45593999997E+02  0.45594000000E+02  0.51100000000E-03 0. -1.
    9900012    2    1    2    0    0 -0.40101166401E+02  0.55920471693E+01 -0.37136136042E+01  0.50528862475E+02  0.30000007978E+02 0.  0.
         12    1    1    2    0    0  0.40101166401E+02 -0.55920471693E+01  0.37136136042E+01  0.40659137525E+02  0.00000000000E+00 0. -1.
         11    1    3    3    0    0 -0.19371163354E+01 -0.56337116455E+01  0.44412358979E+01  0.74307269607E+01  0.51100000000E-03 0. -1.
        -11    1    3    3    0    0 -0.31618422221E+02  0.12452900576E+02 -0.20181923559E+01  0.34042215809E+02  0.51100000000E-03 0.  1.
        -12    1    3    3    0    0 -0.65456278447E+01 -0.12271417610E+01 -0.61366571463E+01  0.90559197056E+01  0.00000000000E+00 0.  1.
</event>
<event>
 7    1  0.5764931E-013  0.5052886E+02  0.7816164E-02  0.1300439E+00
        -11   -1    0    0    0    0  0.00000000000E+00  0.00000000000E+00  0.45593999997E+02  0.45594000000E+02  0.51100000000E-03 0.  1.
         11   -1    0    0    0    0 -0.00000000000E+00 -0.00000000000E+00 -0.45593999997E+02  0.45594000000E+02  0.51100000000E-03 0. -1.
    9900012    2    1    2    0    0 -0.60766260527E+01 -0.11218854065E+01  0.40186838527E+02  0.50528855865E+02  0.29999987886E+02 0.  0.
         12    1    1    2    0    0  0.60766260527E+01  0.11218854065E+01 -0.40186838527E+02  0.40659144135E+02  0.00000000000E+00 0. -1.
         11    1    3    3    0    0 -0.59962621612E+01  0.11172588931E+02  0.78760085186E+01  0.14926935847E+02  0.51100000000E-03 0. -1.
        -11    1    3    3    0    0 -0.27790820598E+01 -0.84025427732E+01  0.13054177465E+02  0.15771416287E+02  0.51100000000E-03 0.  1.
         12    1    3    3    0    0  0.26987181682E+01 -0.38919315642E+01  0.19256652543E+02  0.19830503731E+02  0.00000000000E+00 0. -1.
</event>
<event>
 7    1  0.5764931E-013  0.5052886E+02  0.7816164E-02  0.1300439E+00
        -11   -1    0    0    0    0  0.00000000000E+00  0.00000000000E+00  0.45593999997E+02  0.45594000000E+02  0.51100000000E-03 0. -1.
         11   -1    0    0    0    0 -0.00000000000E+00 -0.00000000000E+00 -0.45593999997E+02  0.45594000000E+02  0.51100000000E-03 0.  1.
    9900012    2    1    2    0    0 -0.31847147283E+02  0.22244120733E+02 -0.12005152291E+02  0.50528863527E+02  0.30000011175E+02 0.  0.
         12    1    1    2    0    0  0.31847147283E+02 -0.22244120733E+02  0.12005152291E+02  0.40659136473E+02  0.00000000000E+00 0. -1.
         11    1    3    3    0    0 -0.22863618441E+02  0.86353929942E+01 -0.79873545601E+01  0.25712115695E+02  0.51100000000E-03 0. -1.
        -11    1    3    3    0    0  0.31564870275E+01  0.11552629667E+02 -0.35653603516E+01  0.12495537494E+02  0.51100000000E-03 0.  1.
         12    1    3    3    0    0 -0.12140015870E+02  0.20560980719E+01 -0.45243737895E+00  0.12321210337E+02  0.00000000000E+00 0. -1.
</event>
<event>
 7    1  0.5764931E-013  0.5052885E+02  0.7816164E-02  0.1300439E+00
        -11   -1    0    0    0    0  0.00000000000E+00  0.00000000000E+00  0.45593999997E+02  0.45594000000E+02  0.51100000000E-03 0. -1.
         11   -1    0    0    0    0 -0.00000000000E+00 -0.00000000000E+00 -0.45593999997E+02  0.45594000000E+02  0.51100000000E-03 0.  1.
    9900012    2    1    2    0    0  0.16365031571E+02 -0.66722502682E+00 -0.37214342386E+02  0.50528846949E+02  0.29999960787E+02 0.  0.
         12    1    1    2    0    0 -0.16365031571E+02  0.66722502682E+00  0.37214342386E+02  0.40659153051E+02  0.00000000000E+00 0. -1.
         11    1    3    3    0    0  0.12712887719E+02  0.11297068292E+01 -0.17568830321E+02  0.21715375907E+02  0.51100000000E-03 0. -1.
        -11    1    3    3    0    0 -0.41044761149E+01 -0.81631511874E+01 -0.34608321515E+01  0.97704207140E+01  0.51100000000E-03 0.  1.
        -12    1    3    3    0    0  0.77566199665E+01  0.63662193314E+01 -0.16184679914E+02  0.19043050328E+02  0.00000000000E+00 0.  1.
</event>
<event>
 7    1  0.5764931E-013  0.5052887E+02  0.7816164E-02  0.1300439E+00
        -11   -1    0    0    0    0  0.00000000000E+00  0.00000000000E+00  0.45593999997E+02  0.45594000000E+02  0.51100000000E-03 0.  1.
         11   -1    0    0    0    0 -0.00000000000E+00 -0.00000000000E+00 -0.45593999997E+02  0.45594000000E+02  0.51100000000E-03 0. -1.
    9900012    2    1    2    0    0  0.24884098001E+02 -0.27388159545E+02  0.16847410695E+02  0.50528869860E+02  0.30000030428E+02 0.  0.
         12    1    1    2    0    0 -0.24884098001E+02  0.27388159545E+02 -0.16847410695E+02  0.40659130140E+02  0.00000000000E+00 0. -1.
         11    1    3    3    0    0  0.75173451549E+00 -0.10181806143E+02  0.10634625599E+01  0.10264756890E+02  0.51100000000E-03 0. -1.
        -11    1    3    3    0    0  0.26171370361E+02 -0.10972801765E+02  0.17681970756E+02  0.33436433650E+02  0.51100000000E-03 0.  1.
        -12    1    3    3    0    0 -0.20390068753E+01 -0.62335516367E+01 -0.18980226206E+01  0.68276793212E+01  0.00000000000E+00 0.  1.
</event>
<event>
 7    1  0.5764931E-013  0.5052888E+02  0.7816164E-02  0.1300439E+00
        -11   -1    0    0    0    0  0.00000000000E+00  0.00000000000E+00  0.45593999997E+02  0.45594000000E+02  0.51100000000E-03 0.  1.
         11   -1    0    0    0    0 -0.00000000000E+00 -0.00000000000E+00 -0.45593999997E+02  0.45594000000E+02  0.51100000000E-03 0. -1.
    9900012    2    1    2    0    0 -0.21760267504E+02 -0.24335777786E+01  0.34259782319E+02  0.50528877688E+02  0.30000054219E+02 0.  0.
         12    1    1    2    0    0  0.21760267504E+02  0.24335777786E+01 -0.34259782319E+02  0.40659122312E+02  0.00000000000E+00 0. -1.
         11    1    3    3    0    0 -0.12190741154E+02 -0.12066133419E+02  0.27293949338E+02  0.32236088726E+02  0.51100000000E-03 0. -1.
        -11    1    3    3    0    0 -0.85707755138E+01  0.15636927118E+01  0.27602905181E+01  0.91390662439E+01  0.51100000000E-03 0.  1.
         12    1    3    3    0    0 -0.99875083606E+00  0.80688629286E+01  0.42055424627E+01  0.91537227180E+01  0.00000000000E+00 0. -1.
</event>
<event>
 7    1  0.5764931E-013  0.5052886E+02  0.7816164E-02  0.1300439E+00
        -11   -1    0    0    0    0  0.00000000000E+00  0.00000000000E+00  0.45593999997E+02  0.45594000000E+02  0.51100000000E-03 0.  1.
         11   -1    0    0    0    0 -0.00000000000E+00 -0.00000000000E+00 -0.45593999997E+02  0.45594000000E+02  0.51100000000E-03 0. -1.
    9900012    2    1    2    0    0  0.35472678337E+02 -0.64250737330E+01  0.18803552620E+02  0.50528855001E+02  0.29999985262E+02 0.  0.
         12    1    1    2    0    0 -0.35472678337E+02  0.64250737330E+01 -0.18803552620E+02  0.40659144999E+02  0.00000000000E+00 0. -1.
         11    1    3    3    0    0  0.23847407743E+02  0.56269336415E+01  0.36727701367E+01  0.24776006115E+02  0.51100000000E-03 0. -1.
        -11    1    3    3    0    0 -0.14601075416E+01 -0.13308330037E+00  0.53146476485E+01  0.55131755900E+01  0.51100000000E-03 0.  1.
         12    1    3    3    0    0  0.13085378136E+02 -0.11918924074E+02  0.98161348353E+01  0.20239673297E+02  0.00000000000E+00 0. -1.
</event>
<event>
 7    1  0.5764931E-013  0.5052884E+02  0.7816164E-02  0.1300439E+00
        -11   -1    0    0    0    0  0.00000000000E+00  0.00000000000E+00  0.45593999997E+02  0.45594000000E+02  0.51100000000E-03 0. -1.
         11   -1    0    0    0    0 -0.00000000000E+00 -0.00000000000E+00 -0.45593999997E+02  0.45594000000E+02  0.51100000000E-03 0.  1.
    9900012    2    1    2    0    0  0.12325513575E+02 -0.36819792644E+02 -0.12064491429E+02  0.50528839056E+02  0.29999936795E+02 0.  0.
         12    1    1    2    0    0 -0.12325513575E+02  0.36819792644E+02  0.12064491429E+02  0.40659160944E+02  0.00000000000E+00 0. -1.
         11    1    3    3    0    0  0.33081168957E+01 -0.23382000255E+02 -0.18894969005E+02  0.30243700622E+02  0.51100000000E-03 0. -1.
        -11    1    3    3    0    0  0.91855023161E+01 -0.11358260425E+02  0.16502613888E+01  0.14700574669E+02  0.51100000000E-03 0.  1.
         12    1    3    3    0    0 -0.16810563696E+00 -0.20795319639E+01  0.51802161881E+01  0.55845637654E+01  0.00000000000E+00 0. -1.
</event>
<event>
 7    1  0.5764931E-013  0.5052887E+02  0.7816164E-02  0.1300439E+00
        -11   -1    0    0    0    0  0.00000000000E+00  0.00000000000E+00  0.45593999997E+02  0.45594000000E+02  0.51100000000E-03 0.  1.
         11   -1    0    0    0    0 -0.00000000000E+00 -0.00000000000E+00 -0.45593999997E+02  0.45594000000E+02  0.51100000000E-03 0. -1.
    9900012    2    1    2    0    0 -0.61969667521E+01 -0.35204552558E+01  0.40029602188E+02  0.50528867527E+02  0.30000023336E+02 0.  0.
         12    1    1    2    0    0  0.61969667521E+01  0.35204552558E+01 -0.40029602188E+02  0.40659132473E+02  0.00000000000E+00 0. -1.
         11    1    3    3    0    0 -0.11958990618E+02 -0.25607440727E+01  0.75699362909E+01  0.14383282049E+02  0.51100000000E-03 0. -1.
        -11    1    3    3    0    0  0.76400436709E+01 -0.62646153563E+01  0.16607909000E+02  0.19324552116E+02  0.51100000000E-03 0.  1.
        -12    1    3    3    0    0 -0.18780198053E+01  0.53049041731E+01  0.15851756896E+02  0.16821033362E+02  0.00000000000E+00 0.  1.
</event>
<event>
 7    1  0.5764931E-013  0.5052885E+02  0.7816164E-02  0.1300439E+00
        -11   -1    0    0    0    0  0.00000000000E+00  0.00000000000E+00  0.45593999997E+02  0.45594000000E+02  0.51100000000E-03 0.  1.
         11   -1    0    0    0    0 -0.00000000000E+00 -0.00000000000E+00 -0.45593999997E+02  0.45594000000E+02  0.51100000000E-03 0. -1.
    9900012    2    1    2    0    0 -0.13662282107E+02  0.19346206406E+02  0.33048942423E+02  0.50528852814E+02  0.29999978612E+02 0.  0.
         12    1    1    2    0    0  0.13662282107E+02 -0.19346206406E+02 -0.33048942423E+02  0.40659147186E+02  0.00000000000E+00 0. -1.
         11    1    3    3    0    0 -0.48498998906E+01 -0.11897403726E+01 -0.65226519290E+00  0.50361156903E+01  0.51100000000E-03 0. -1.
        -11    1    3    3    0    0 -0.76124897892E+00  0.20468803073E+02  0.15814981232E+02  0.25877886910E+02  0.51100000000E-03 0.  1.
        -12    1    3    3    0    0 -0.80511332371E+01  0.67143705303E-01  0.17886226383E+02  0.19614850214E+02  0.00000000000E+00 0.  1.
</event>
<event>
 7    1  0.5764931E-013  0.5052886E+02  0.7816164E-02  0.1300439E+00
        -11   -1    0    0    0    0  0.00000000000E+00  0.00000000000E+00  0.45593999997E+02  0.45594000000E+02  0.51100000000E-03 0. -1.
         11   -1    0    0    0    0 -0.00000000000E+00 -0.00000000000E+00 -0.45593999997E+02  0.45594000000E+02  0.51100000000E-03 0.  1.
    9900012    2    1    2    0    0 -0.39604954547E+02  0.75409099319E+01 -0.52676077453E+01  0.50528862791E+02  0.30000008938E+02 0.  0.
         12    1    1    2    0    0  0.39604954547E+02 -0.75409099319E+01  0.52676077453E+01  0.40659137209E+02  0.00000000000E+00 0. -1.
         11    1    3    3    0    0 -0.16165299009E+02  0.13106716289E+02  0.23672917407E+01  0.20945332998E+02  0.51100000000E-03 0. -1.
        -11    1    3    3    0    0 -0.23992746572E+02 -0.53693740415E+01 -0.28364228477E+01  0.24749290101E+02  0.51100000000E-03 0.  1.
        -12    1    3    3    0    0  0.55309103471E+00 -0.19643231586E+00 -0.47984766382E+01  0.48342396915E+01  0.00000000000E+00 0.  1.
</event>
<event>
 7    1  0.5764931E-013  0.5052887E+02  0.7816164E-02  0.1300439E+00
        -11   -1    0    0    0    0  0.00000000000E+00  0.00000000000E+00  0.45593999997E+02  0.45594000000E+02  0.51100000000E-03 0. -1.
         11   -1    0    0    0    0 -0.00000000000E+00 -0.00000000000E+00 -0.45593999997E+02  0.45594000000E+02  0.51100000000E-03 0.  1.
    9900012    2    1    2    0    0 -0.24473763665E+02  0.32188686672E+02 -0.42530294251E+01  0.50528869207E+02  0.30000028440E+02 0.  0.
         12    1    1    2    0    0  0.24473763665E+02 -0.32188686672E+02  0.42530294251E+01  0.40659130793E+02  0.00000000000E+00 0. -1.
         11    1    3    3    0    0  0.50096071662E+01  0.47638276899E+01 -0.59589530942E+01  0.91268472354E+01  0.51100000000E-03 0. -1.
        -11    1    3    3    0    0 -0.13968954399E+02  0.15540122942E+02 -0.34772826202E+01  0.21182979081E+02  0.51100000000E-03 0.  1.
         12    1    3    3    0    0 -0.15514416432E+02  0.11884736040E+02  0.51832062893E+01  0.20219042890E+02  0.00000000000E+00 0. -1.
</event>
<event>
 7    1  0.5764931E-013  0.5052886E+02  0.7816164E-02  0.1300439E+00
        -11   -1    0    0    0    0  0.00000000000E+00  0.00000000000E+00  0.45593999997E+02  0.45594000000E+02  0.51100000000E-03 0.  1.
         11   -1    0    0    0    0 -0.00000000000E+00 -0.00000000000E+00 -0.45593999997E+02  0.45594000000E+02  0.51100000000E-03 0. -1.
    9900012    2    1    2    0    0 -0.20701354513E+02  0.11522079930E+02  0.33043329682E+02  0.50528855382E+02  0.29999986419E+02 0.  0.
         12    1    1    2    0    0  0.20701354513E+02 -0.11522079930E+02 -0.33043329682E+02  0.40659144618E+02  0.00000000000E+00 0. -1.
         11    1    3    3    0    0 -0.14509209996E+02 -0.50595133106E+01  0.21126321066E+02  0.26123500755E+02  0.51100000000E-03 0.  1.
        -11    1    3    3    0    0 -0.20575744007E+01  0.15346524026E+02  0.12692393835E+02  0.20021145662E+02  0.51100000000E-03 0. -1.
        -12    1    3    3    0    0 -0.41345701167E+01  0.12350692148E+01 -0.77538521883E+00  0.43842089654E+01  0.00000000000E+00 0.  1.
</event>
<event>
 7    1  0.5764931E-013  0.5052885E+02  0.7816164E-02  0.1300439E+00
        -11   -1    0    0    0    0  0.00000000000E+00  0.00000000000E+00  0.45593999997E+02  0.45594000000E+02  0.51100000000E-03 0.  1.
         11   -1    0    0    0    0 -0.00000000000E+00 -0.00000000000E+00 -0.45593999997E+02  0.45594000000E+02  0.51100000000E-03 0. -1.
    9900012    2    1    2    0    0 -0.24715328723E+02  0.27279465585E+02  0.17267014520E+02  0.50528849653E+02  0.29999969006E+02 0.  0.
         12    1    1    2    0    0  0.24715328723E+02 -0.27279465585E+02 -0.17267014520E+02  0.40659150347E+02  0.00000000000E+00 0. -1.
         11    1    3    3    0    0 -0.13304786525E+02  0.10177499570E+02  0.20985571803E+02  0.26851314048E+02  0.51100000000E-03 0. -1.
        -11    1    3    3    0    0 -0.15091470880E+01  0.76761015601E+01 -0.59465827715E+01  0.98265918310E+01  0.51100000000E-03 0.  1.
         12    1    3    3    0    0 -0.99013951098E+01  0.94258644554E+01  0.22280254891E+01  0.13850943774E+02  0.00000000000E+00 0. -1.
</event>
<event>
 7    1  0.5764931E-013  0.5052885E+02  0.7816164E-02  0.1300439E+00
        -11   -1    0    0    0    0  0.00000000000E+00  0.00000000000E+00  0.45593999997E+02  0.45594000000E+02  0.51100000000E-03 0.  1.
         11   -1    0    0    0    0 -0.00000000000E+00 -0.00000000000E+00 -0.45593999997E+02  0.45594000000E+02  0.51100000000E-03 0. -1.
    9900012    2    1    2    0    0  0.24956153085E+02 -0.25092997171E+02  0.20017442693E+02  0.50528854709E+02  0.29999984374E+02 0.  0.
         12    1    1    2    0    0 -0.24956153085E+02  0.25092997171E+02 -0.20017442693E+02  0.40659145291E+02  0.00000000000E+00 0. -1.
         11    1    3    3    0    0  0.66573614209E+01  0.25848783530E+01 -0.29872671171E+01  0.77411770602E+01  0.51100000000E-03 0. -1.
        -11    1    3    3    0    0  0.43730786597E+01 -0.17549751004E+02  0.16172493446E+02  0.24262463226E+02  0.51100000000E-03 0.  1.
        -12    1    3    3    0    0  0.13925713005E+02 -0.10128124520E+02  0.68322163636E+01  0.18525214423E+02  0.00000000000E+00 0.  1.
</event>
<event>
 7    1  0.5764931E-013  0.5052888E+02  0.7816164E-02  0.1300439E+00
        -11   -1    0    0    0    0  0.00000000000E+00  0.00000000000E+00  0.45593999997E+02  0.45594000000E+02  0.51100000000E-03 0. -1.
         11   -1    0    0    0    0 -0.00000000000E+00 -0.00000000000E+00 -0.45593999997E+02  0.45594000000E+02  0.51100000000E-03 0.  1.
    9900012    2    1    2    0    0 -0.19977065553E+02  0.17235866344E+00 -0.35412583366E+02  0.50528881512E+02  0.30000065843E+02 0.  0.
         12    1    1    2    0    0  0.19977065553E+02 -0.17235866344E+00  0.35412583366E+02  0.40659118488E+02  0.00000000000E+00 0. -1.
         11    1    3    3    0    0 -0.38196666362E+01 -0.36575615205E+01  0.93660006891E+00  0.53707382582E+01  0.51100000000E-03 0. -1.
        -11    1    3    3    0    0 -0.92747356297E+01  0.11430533333E+02 -0.29066481891E+02  0.32581255087E+02  0.51100000000E-03 0.  1.
         12    1    3    3    0    0 -0.68826632868E+01 -0.76006131495E+01 -0.72827015437E+01  0.12576888166E+02  0.00000000000E+00 0. -1.
</event>
<event>
 7    1  0.5764931E-013  0.5052886E+02  0.7816164E-02  0.1300439E+00
        -11   -1    0    0    0    0  0.00000000000E+00  0.00000000000E+00  0.45593999997E+02  0.45594000000E+02  0.51100000000E-03 0. -1.
         11   -1    0    0    0    0 -0.00000000000E+00 -0.00000000000E+00 -0.45593999997E+02  0.45594000000E+02  0.51100000000E-03 0.  1.
    9900012    2    1    2    0    0 -0.56879865470E+00  0.39643011922E+02 -0.90152063184E+01  0.50528857471E+02  0.29999992770E+02 0.  0.
         12    1    1    2    0    0  0.56879865470E+00 -0.39643011922E+02  0.90152063184E+01  0.40659142529E+02  0.00000000000E+00 0. -1.
         11    1    3    3    0    0  0.81090527051E+01  0.47779107565E+01 -0.19311088865E+01  0.96080356350E+01  0.51100000000E-03 0. -1.
        -11    1    3    3    0    0 -0.94126151102E+01  0.33411783283E+02 -0.11216182836E+02  0.36479409851E+02  0.51100000000E-03 0.  1.
        -12    1    3    3    0    0  0.73476375039E+00  0.14533178829E+01  0.41320854045E+01  0.44414119858E+01  0.00000000000E+00 0.  1.
</event>
<event>
 7    1  0.5764931E-013  0.5052886E+02  0.7816164E-02  0.1300439E+00
        -11   -1    0    0    0    0  0.00000000000E+00  0.00000000000E+00  0.45593999997E+02  0.45594000000E+02  0.51100000000E-03 0.  1.
         11   -1    0    0    0    0 -0.00000000000E+00 -0.00000000000E+00 -0.45593999997E+02  0.45594000000E+02  0.51100000000E-03 0. -1.
    9900012    2    1    2    0    0 -0.38392491209E+02 -0.71089626173E+01  0.11342184880E+02  0.50528857258E+02  0.29999992121E+02 0.  0.
         12    1    1    2    0    0  0.38392491209E+02  0.71089626173E+01 -0.11342184880E+02  0.40659142742E+02  0.00000000000E+00 0. -1.
         11    1    3    3    0    0 -0.53886763037E+01 -0.11016729996E+02 -0.14053244554E+01  0.12344274349E+02  0.51100000000E-03 0. -1.
        -11    1    3    3    0    0 -0.12388836025E+02  0.55482946696E+01  0.10924097169E+02  0.17424199581E+02  0.51100000000E-03 0.  1.
         12    1    3    3    0    0 -0.20614978880E+02 -0.16405272904E+01  0.18234121657E+01  0.20760383328E+02  0.00000000000E+00 0. -1.
</event>
<event>
 7    1  0.5764931E-013  0.5052886E+02  0.7816164E-02  0.1300439E+00
        -11   -1    0    0    0    0  0.00000000000E+00  0.00000000000E+00  0.45593999997E+02  0.45594000000E+02  0.51100000000E-03 0.  1.
         11   -1    0    0    0    0 -0.00000000000E+00 -0.00000000000E+00 -0.45593999997E+02  0.45594000000E+02  0.51100000000E-03 0. -1.
    9900012    2    1    2    0    0 -0.39524053242E+02  0.88820831102E+01 -0.34818629805E+01  0.50528861361E+02  0.30000004594E+02 0.  0.
         12    1    1    2    0    0  0.39524053242E+02 -0.88820831102E+01  0.34818629805E+01  0.40659138639E+02  0.00000000000E+00 0. -1.
         11    1    3    3    0    0 -0.64321346514E+00 -0.19741736794E+01 -0.70399950993E+01  0.73397967641E+01  0.51100000000E-03 0. -1.
        -11    1    3    3    0    0 -0.31535929854E+02  0.14100506256E+02  0.36144916422E+00  0.34546632169E+02  0.51100000000E-03 0.  1.
        -12    1    3    3    0    0 -0.73449099221E+01 -0.32442494666E+01  0.31966829546E+01  0.86424324283E+01  0.00000000000E+00 0.  1.
</event>
<event>
 7    1  0.5764931E-013  0.5052886E+02  0.7816164E-02  0.1300439E+00
        -11   -1    0    0    0    0  0.00000000000E+00  0.00000000000E+00  0.45593999997E+02  0.45594000000E+02  0.51100000000E-03 0. -1.
         11   -1    0    0    0    0 -0.00000000000E+00 -0.00000000000E+00 -0.45593999997E+02  0.45594000000E+02  0.51100000000E-03 0.  1.
    9900012    2    1    2    0    0 -0.25171026179E+02  0.30418312082E+02 -0.97113958483E+01  0.50528862304E+02  0.30000007460E+02 0.  0.
         12    1    1    2    0    0  0.25171026179E+02 -0.30418312082E+02  0.97113958483E+01  0.40659137696E+02  0.00000000000E+00 0. -1.
         11    1    3    3    0    0  0.51232540479E+01  0.64208093933E+01 -0.67745910874E+01  0.10647516610E+02  0.51100000000E-03 0. -1.
        -11    1    3    3    0    0 -0.31732449559E+01  0.71984002416E+01 -0.35815885069E+00  0.78749430227E+01  0.51100000000E-03 0.  1.
         12    1    3    3    0    0 -0.27121035271E+02  0.16799102447E+02 -0.25786459102E+01  0.32006402671E+02  0.00000000000E+00 0. -1.
</event>
<event>
 7    1  0.5764931E-013  0.5052887E+02  0.7816164E-02  0.1300439E+00
        -11   -1    0    0    0    0  0.00000000000E+00  0.00000000000E+00  0.45593999997E+02  0.45594000000E+02  0.51100000000E-03 0. -1.
         11   -1    0    0    0    0 -0.00000000000E+00 -0.00000000000E+00 -0.45593999997E+02  0.45594000000E+02  0.51100000000E-03 0.  1.
    9900012    2    1    2    0    0  0.36683061703E+02 -0.16923232399E+02 -0.45958671723E+01  0.50528870572E+02  0.30000032592E+02 0.  0.
         12    1    1    2    0    0 -0.36683061703E+02  0.16923232399E+02  0.45958671723E+01  0.40659129428E+02  0.00000000000E+00 0. -1.
         11    1    3    3    0    0  0.23722959373E+02 -0.14875998888E+02  0.10156753361E+02  0.29786469805E+02  0.51100000000E-03 0. -1.
        -11    1    3    3    0    0  0.11497711011E+02  0.34163855833E+00 -0.13310030392E+02  0.17591787422E+02  0.51100000000E-03 0.  1.
         12    1    3    3    0    0  0.14623913186E+01 -0.23888720698E+01 -0.14425901415E+01  0.31506133452E+01  0.00000000000E+00 0. -1.
</event>
<event>
 7    1  0.5764931E-013  0.5052887E+02  0.7816164E-02  0.1300439E+00
        -11   -1    0    0    0    0  0.00000000000E+00  0.00000000000E+00  0.45593999997E+02  0.45594000000E+02  0.51100000000E-03 0.  1.
         11   -1    0    0    0    0 -0.00000000000E+00 -0.00000000000E+00 -0.45593999997E+02  0.45594000000E+02  0.51100000000E-03 0. -1.
    9900012    2    1    2    0    0  0.61078090824E+01 -0.40190327608E+02  0.77261959118E+00  0.50528871799E+02  0.30000036319E+02 0.  0.
         12    1    1    2    0    0 -0.61078090824E+01  0.40190327608E+02 -0.77261959118E+00  0.40659128201E+02  0.00000000000E+00 0. -1.
         11    1    3    3    0    0 -0.34301444653E+00 -0.21367183637E+01  0.30696440573E+01  0.37557874242E+01  0.51100000000E-03 0. -1.
        -11    1    3    3    0    0 -0.93619624751E+00 -0.19555958340E+02 -0.13630907904E+02  0.23856102376E+02  0.51100000000E-03 0.  1.
        -12    1    3    3    0    0  0.73870197765E+01 -0.18497650904E+02  0.11333883437E+02  0.22916981999E+02  0.00000000000E+00 0.  1.
</event>
<event>
 7    1  0.5764931E-013  0.5052886E+02  0.7816164E-02  0.1300439E+00
        -11   -1    0    0    0    0  0.00000000000E+00  0.00000000000E+00  0.45593999997E+02  0.45594000000E+02  0.51100000000E-03 0.  1.
         11   -1    0    0    0    0 -0.00000000000E+00 -0.00000000000E+00 -0.45593999997E+02  0.45594000000E+02  0.51100000000E-03 0. -1.
    9900012    2    1    2    0    0  0.36396135285E+02 -0.11434138299E+02  0.14062262747E+02  0.50528863070E+02  0.30000009787E+02 0.  0.
         12    1    1    2    0    0 -0.36396135285E+02  0.11434138299E+02 -0.14062262747E+02  0.40659136930E+02  0.00000000000E+00 0. -1.
         11    1    3    3    0    0  0.15373006334E+02 -0.11842233600E+02  0.12281842814E+01  0.19444183122E+02  0.51100000000E-03 0. -1.
        -11    1    3    3    0    0  0.20148395667E+02 -0.20693491890E+01  0.16808431337E+02  0.26320399281E+02  0.51100000000E-03 0.  1.
        -12    1    3    3    0    0  0.87473328429E+00  0.24774444901E+01 -0.39743528722E+01  0.47642806669E+01  0.00000000000E+00 0.  1.
</event>
<event>
 7    1  0.5764931E-013  0.5052887E+02  0.7816164E-02  0.1300439E+00
        -11   -1    0    0    0    0  0.00000000000E+00  0.00000000000E+00  0.45593999997E+02  0.45594000000E+02  0.51100000000E-03 0.  1.
         11   -1    0    0    0    0 -0.00000000000E+00 -0.00000000000E+00 -0.45593999997E+02  0.45594000000E+02  0.51100000000E-03 0. -1.
    9900012    2    1    2    0    0  0.93269540828E+01 -0.13833925933E+01  0.39550714663E+02  0.50528869686E+02  0.30000029899E+02 0.  0.
         12    1    1    2    0    0 -0.93269540828E+01  0.13833925933E+01 -0.39550714663E+02  0.40659130314E+02  0.00000000000E+00 0. -1.
         11    1    3    3    0    0  0.13465096307E+02  0.23977180941E+01  0.16794036500E+02  0.21658659535E+02  0.51100000000E-03 0. -1.
        -11    1    3    3    0    0 -0.34001489466E+01 -0.70089544961E+01  0.22650085589E+01  0.81127504597E+01  0.51100000000E-03 0.  1.
         12    1    3    3    0    0 -0.73799327745E+00  0.32278438087E+01  0.20491669604E+02  0.20757459692E+02  0.00000000000E+00 0. -1.
</event>
<event>
 7    1  0.5764931E-013  0.5052887E+02  0.7816164E-02  0.1300439E+00
        -11   -1    0    0    0    0  0.00000000000E+00  0.00000000000E+00  0.45593999997E+02  0.45594000000E+02  0.51100000000E-03 0.  1.
         11   -1    0    0    0    0 -0.00000000000E+00 -0.00000000000E+00 -0.45593999997E+02  0.45594000000E+02  0.51100000000E-03 0. -1.
    9900012    2    1    2    0    0  0.44893134956E+01  0.23350474332E+02  0.32981307886E+02  0.50528865023E+02  0.30000015723E+02 0.  0.
         12    1    1    2    0    0 -0.44893134956E+01 -0.23350474332E+02 -0.32981307886E+02  0.40659134977E+02  0.00000000000E+00 0. -1.
         11    1    3    3    0    0  0.75095497827E+01 -0.39680131172E+01  0.11283058636E+02  0.14122530881E+02  0.51100000000E-03 0. -1.
        -11    1    3    3    0    0 -0.51802656679E+01  0.67941478056E+01  0.73590605981E+01  0.11276141625E+02  0.51100000000E-03 0.  1.
         12    1    3    3    0    0  0.21600293809E+01  0.20524339644E+02  0.14339188652E+02  0.25130192517E+02  0.00000000000E+00 0. -1.
</event>
<event>
 7    1  0.5764931E-013  0.5052886E+02  0.7816164E-02  0.1300439E+00
        -11   -1    0    0    0    0  0.00000000000E+00  0.00000000000E+00  0.45593999997E+02  0.45594000000E+02  0.51100000000E-03 0.  1.
         11   -1    0    0    0    0 -0.00000000000E+00 -0.00000000000E+00 -0.45593999997E+02  0.45594000000E+02  0.51100000000E-03 0. -1.
    9900012    2    1    2    0    0 -0.76335765215E+01 -0.13076697311E+02  0.37734526173E+02  0.50528856273E+02  0.29999989128E+02 0.  0.
         12    1    1    2    0    0  0.76335765215E+01  0.13076697311E+02 -0.37734526173E+02  0.40659143727E+02  0.00000000000E+00 0. -1.
         11    1    3    3    0    0 -0.71844478673E+01  0.81163463741E+00  0.20985401868E+02  0.22195993642E+02  0.51100000000E-03 0. -1.
        -11    1    3    3    0    0  0.55316986402E+01 -0.14970406927E+02  0.15246616603E+02  0.22071975251E+02  0.51100000000E-03 0.  1.
         12    1    3    3    0    0 -0.59808272945E+01  0.10820749782E+01  0.15025077025E+01  0.62608873797E+01  0.00000000000E+00 0. -1.
</event>
<event>
 7    1  0.5764931E-013  0.5052886E+02  0.7816164E-02  0.1300439E+00
        -11   -1    0    0    0    0  0.00000000000E+00  0.00000000000E+00  0.45593999997E+02  0.45594000000E+02  0.51100000000E-03 0.  1.
         11   -1    0    0    0    0 -0.00000000000E+00 -0.00000000000E+00 -0.45593999997E+02  0.45594000000E+02  0.51100000000E-03 0. -1.
    9900012    2    1    2    0    0  0.24598728501E+01 -0.25486162744E+02  0.31584337362E+02  0.50528857948E+02  0.29999994218E+02 0.  0.
         12    1    1    2    0    0 -0.24598728501E+01  0.25486162744E+02 -0.31584337362E+02  0.40659142052E+02  0.00000000000E+00 0. -1.
         11    1    3    3    0    0 -0.57589836336E+01 -0.56968764789E+00  0.19237049957E+02  0.20088666651E+02  0.51100000000E-03 0. -1.
        -11    1    3    3    0    0  0.46720938183E+01 -0.22719837026E+02  0.12328891903E+02  0.26268251387E+02  0.51100000000E-03 0.  1.
         12    1    3    3    0    0  0.35467626654E+01 -0.21966380704E+01  0.18395501558E-01  0.41719399098E+01  0.00000000000E+00 0. -1.
</event>
<event>
 7    1  0.5764931E-013  0.5052881E+02  0.7816164E-02  0.1300439E+00
        -11   -1    0    0    0    0  0.00000000000E+00  0.00000000000E+00  0.45593999997E+02  0.45594000000E+02  0.51100000000E-03 0.  1.
         11   -1    0    0    0    0 -0.00000000000E+00 -0.00000000000E+00 -0.45593999997E+02  0.45594000000E+02  0.51100000000E-03 0. -1.
    9900012    2    1    2    0    0  0.15468419358E+02  0.18226626401E+02  0.32889027341E+02  0.50528806368E+02  0.29999837434E+02 0.  0.
         12    1    1    2    0    0 -0.15468419358E+02 -0.18226626401E+02 -0.32889027341E+02  0.40659193632E+02  0.00000000000E+00 0. -1.
         11    1    3    3    0    0  0.51781570002E+01  0.18910351828E+02  0.62432907769E+01  0.20576525367E+02  0.51100000000E-03 0. -1.
        -11    1    3    3    0    0  0.92756135459E+01  0.51926938697E+00  0.11775353269E+02  0.14998853030E+02  0.51100000000E-03 0.  1.
         12    1    3    3    0    0  0.10146488121E+01 -0.12029948142E+01  0.14870383295E+02  0.14953427971E+02  0.00000000000E+00 0. -1.
</event>
<event>
 7    1  0.5764931E-013  0.5052883E+02  0.7816164E-02  0.1300439E+00
        -11   -1    0    0    0    0  0.00000000000E+00  0.00000000000E+00  0.45593999997E+02  0.45594000000E+02  0.51100000000E-03 0.  1.
         11   -1    0    0    0    0 -0.00000000000E+00 -0.00000000000E+00 -0.45593999997E+02  0.45594000000E+02  0.51100000000E-03 0. -1.
    9900012    2    1    2    0    0 -0.14253208414E+02  0.22354632877E+02  0.30826682433E+02  0.50528832387E+02  0.29999916523E+02 0.  0.
         12    1    1    2    0    0  0.14253208414E+02 -0.22354632877E+02 -0.30826682433E+02  0.40659167613E+02  0.00000000000E+00 0. -1.
         11    1    3    3    0    0 -0.71568493024E+01  0.20542272429E+02  0.45586460519E+01  0.22225811629E+02  0.51100000000E-03 0. -1.
        -11    1    3    3    0    0 -0.86093304135E+01  0.10082879500E+01  0.19847493259E+02  0.21657797757E+02  0.51100000000E-03 0.  1.
         12    1    3    3    0    0  0.15129713023E+01  0.80407249808E+00  0.64205431225E+01  0.66452230009E+01  0.00000000000E+00 0. -1.
</event>
<event>
 7    1  0.5764931E-013  0.5052890E+02  0.7816164E-02  0.1300439E+00
        -11   -1    0    0    0    0  0.00000000000E+00  0.00000000000E+00  0.45593999997E+02  0.45594000000E+02  0.51100000000E-03 0.  1.
         11   -1    0    0    0    0 -0.00000000000E+00 -0.00000000000E+00 -0.45593999997E+02  0.45594000000E+02  0.51100000000E-03 0. -1.
    9900012    2    1    2    0    0  0.24344251814E+02 -0.29695409304E+02  0.13367958471E+02  0.50528902078E+02  0.30000128357E+02 0.  0.
         12    1    1    2    0    0 -0.24344251814E+02  0.29695409304E+02 -0.13367958471E+02  0.40659097922E+02  0.00000000000E+00 0. -1.
         11    1    3    3    0    0  0.81084123473E+01 -0.16228402461E+02 -0.49050384127E+01  0.18792732620E+02  0.51100000000E-03 0. -1.
        -11    1    3    3    0    0  0.32586594704E+01  0.28624939642E+01  0.64129099132E+01  0.77419730725E+01  0.51100000000E-03 0.  1.
        -12    1    3    3    0    0  0.12977179997E+02 -0.16329500807E+02  0.11860086970E+02  0.23994196386E+02  0.00000000000E+00 0.  1.
</event>
<event>
 7    1  0.5764931E-013  0.5052887E+02  0.7816164E-02  0.1300439E+00
        -11   -1    0    0    0    0  0.00000000000E+00  0.00000000000E+00  0.45593999997E+02  0.45594000000E+02  0.51100000000E-03 0.  1.
         11   -1    0    0    0    0 -0.00000000000E+00 -0.00000000000E+00 -0.45593999997E+02  0.45594000000E+02  0.51100000000E-03 0. -1.
    9900012    2    1    2    0    0  0.15285926492E+02  0.17390644449E+02  0.33422614475E+02  0.50528865461E+02  0.30000017056E+02 0.  0.
         12    1    1    2    0    0 -0.15285926492E+02 -0.17390644449E+02 -0.33422614475E+02  0.40659134539E+02  0.00000000000E+00 0. -1.
         11    1    3    3    0    0  0.68003733393E+01 -0.24673712334E+01  0.15063072085E+00  0.72357230622E+01  0.51100000000E-03 0. -1.
        -11    1    3    3    0    0 -0.22611542587E+01  0.15163885004E+02  0.23340944608E+02  0.27925900566E+02  0.51100000000E-03 0.  1.
        -12    1    3    3    0    0  0.10746707411E+02  0.46941306783E+01  0.99310391466E+01  0.15367241833E+02  0.00000000000E+00 0.  1.
</event>
<event>
 7    1  0.5764931E-013  0.5052886E+02  0.7816164E-02  0.1300439E+00
        -11   -1    0    0    0    0  0.00000000000E+00  0.00000000000E+00  0.45593999997E+02  0.45594000000E+02  0.51100000000E-03 0. -1.
         11   -1    0    0    0    0 -0.00000000000E+00 -0.00000000000E+00 -0.45593999997E+02  0.45594000000E+02  0.51100000000E-03 0.  1.
    9900012    2    1    2    0    0  0.13556159634E+02  0.38326508431E+02  0.68888109213E+00  0.50528864868E+02  0.30000015252E+02 0.  0.
         12    1    1    2    0    0 -0.13556159634E+02 -0.38326508431E+02 -0.68888109213E+00  0.40659135132E+02  0.00000000000E+00 0. -1.
         11    1    3    3    0    0  0.12482446906E+01  0.26041600568E+01 -0.90392563454E+01  0.94893582475E+01  0.51100000000E-03 0. -1.
        -11    1    3    3    0    0  0.11501933844E+02  0.33241058892E+02  0.12408352627E+02  0.37299191594E+02  0.51100000000E-03 0.  1.
        -12    1    3    3    0    0  0.80598109934E+00  0.24812894824E+01 -0.26802151898E+01  0.37403150257E+01  0.00000000000E+00 0.  1.
</event>
<event>
 7    1  0.5764931E-013  0.5052886E+02  0.7816164E-02  0.1300439E+00
        -11   -1    0    0    0    0  0.00000000000E+00  0.00000000000E+00  0.45593999997E+02  0.45594000000E+02  0.51100000000E-03 0.  1.
         11   -1    0    0    0    0 -0.00000000000E+00 -0.00000000000E+00 -0.45593999997E+02  0.45594000000E+02  0.51100000000E-03 0. -1.
    9900012    2    1    2    0    0 -0.35753230869E+02  0.19037182498E+02  0.35295266470E+01  0.50528863347E+02  0.30000010630E+02 0.  0.
         12    1    1    2    0    0  0.35753230869E+02 -0.19037182498E+02 -0.35295266470E+01  0.40659136653E+02  0.00000000000E+00 0. -1.
         11    1    3    3    0    0 -0.19123301751E+02  0.11245468105E+01 -0.32099652595E+01  0.19423417634E+02  0.51100000000E-03 0. -1.
        -11    1    3    3    0    0 -0.75722052171E+01  0.11092798804E+02  0.12535381707E+02  0.18371833658E+02  0.51100000000E-03 0.  1.
        -12    1    3    3    0    0 -0.90577239009E+01  0.68198368833E+01 -0.57958898007E+01  0.12733612055E+02  0.00000000000E+00 0.  1.
</event>
<event>
 7    1  0.5764931E-013  0.5052884E+02  0.7816164E-02  0.1300439E+00
        -11   -1    0    0    0    0  0.00000000000E+00  0.00000000000E+00  0.45593999997E+02  0.45594000000E+02  0.51100000000E-03 0.  1.
         11   -1    0    0    0    0 -0.00000000000E+00 -0.00000000000E+00 -0.45593999997E+02  0.45594000000E+02  0.51100000000E-03 0. -1.
    9900012    2    1    2    0    0  0.13882075621E+02 -0.32166258596E+02  0.20634609246E+02  0.50528839724E+02  0.29999938824E+02 0.  0.
         12    1    1    2    0    0 -0.13882075621E+02  0.32166258596E+02 -0.20634609246E+02  0.40659160276E+02  0.00000000000E+00 0. -1.
         11    1    3    3    0    0  0.91744790054E+01 -0.31018862757E+02  0.16253066742E+02  0.36200871406E+02  0.51100000000E-03 0.  1.
        -11    1    3    3    0    0  0.48335999046E+01 -0.16777073567E+01 -0.36455503158E+01  0.62823902600E+01  0.51100000000E-03 0. -1.
         12    1    3    3    0    0 -0.12600328918E+00  0.53031151770E+00  0.80270928207E+01  0.80455780580E+01  0.00000000000E+00 0. -1.
</event>
<event>
 7    1  0.5764931E-013  0.5052886E+02  0.7816164E-02  0.1300439E+00
        -11   -1    0    0    0    0  0.00000000000E+00  0.00000000000E+00  0.45593999997E+02  0.45594000000E+02  0.51100000000E-03 0.  1.
         11   -1    0    0    0    0 -0.00000000000E+00 -0.00000000000E+00 -0.45593999997E+02  0.45594000000E+02  0.51100000000E-03 0. -1.
    9900012    2    1    2    0    0 -0.22830418832E+02  0.33642538086E+02 -0.34229177981E+00  0.50528861340E+02  0.30000004528E+02 0.  0.
         12    1    1    2    0    0  0.22830418832E+02 -0.33642538086E+02  0.34229177981E+00  0.40659138660E+02  0.00000000000E+00 0. -1.
         11    1    3    3    0    0 -0.58802868722E+01  0.90362131702E+01 -0.12146275466E+02  0.16240779850E+02  0.51100000000E-03 0. -1.
        -11    1    3    3    0    0 -0.14018781819E+02  0.18100474733E+02  0.13983293697E+02  0.26826962782E+02  0.51100000000E-03 0.  1.
        -12    1    3    3    0    0 -0.29313501417E+01  0.65058501829E+01 -0.21793100106E+01  0.74611187082E+01  0.00000000000E+00 0.  1.
</event>
<event>
 7    1  0.5764931E-013  0.5052886E+02  0.7816164E-02  0.1300439E+00
        -11   -1    0    0    0    0  0.00000000000E+00  0.00000000000E+00  0.45593999997E+02  0.45594000000E+02  0.51100000000E-03 0.  1.
         11   -1    0    0    0    0 -0.00000000000E+00 -0.00000000000E+00 -0.45593999997E+02  0.45594000000E+02  0.51100000000E-03 0. -1.
    9900012    2    1    2    0    0  0.99650778273E+01 -0.44029169791E+00  0.39416607157E+02  0.50528861389E+02  0.30000004677E+02 0.  0.
         12    1    1    2    0    0 -0.99650778273E+01  0.44029169791E+00 -0.39416607157E+02  0.40659138611E+02  0.00000000000E+00 0. -1.
         11    1    3    3    0    0  0.19807819934E+01 -0.70538839744E+01 -0.13916238093E+01  0.74577069879E+01  0.51100000000E-03 0. -1.
        -11    1    3    3    0    0  0.53489518767E+01  0.16652340947E+01  0.32921788616E+02  0.33395036408E+02  0.51100000000E-03 0.  1.
         12    1    3    3    0    0  0.26353439572E+01  0.49483581818E+01  0.78864423498E+01  0.96761179925E+01  0.00000000000E+00 0. -1.
</event>
<event>
 7    1  0.5764931E-013  0.5052887E+02  0.7816164E-02  0.1300439E+00
        -11   -1    0    0    0    0  0.00000000000E+00  0.00000000000E+00  0.45593999997E+02  0.45594000000E+02  0.51100000000E-03 0.  1.
         11   -1    0    0    0    0 -0.00000000000E+00 -0.00000000000E+00 -0.45593999997E+02  0.45594000000E+02  0.51100000000E-03 0. -1.
    9900012    2    1    2    0    0 -0.24419147534E+02  0.14720268706E+02  0.28985924813E+02  0.50528869238E+02  0.30000028536E+02 0.  0.
         12    1    1    2    0    0  0.24419147534E+02 -0.14720268706E+02 -0.28985924813E+02  0.40659130762E+02  0.00000000000E+00 0. -1.
         11    1    3    3    0    0 -0.13058003546E+02  0.58875954921E+01 -0.26931493896E+01  0.14574919937E+02  0.51100000000E-03 0. -1.
        -11    1    3    3    0    0 -0.62473385020E+01  0.54300190332E+00  0.18721442412E+02  0.19743771060E+02  0.51100000000E-03 0.  1.
         12    1    3    3    0    0 -0.51138054866E+01  0.82896713103E+01  0.12957631790E+02  0.16210178241E+02  0.00000000000E+00 0. -1.
</event>
<event>
 7    1  0.5764931E-013  0.5052888E+02  0.7816164E-02  0.1300439E+00
        -11   -1    0    0    0    0  0.00000000000E+00  0.00000000000E+00  0.45593999997E+02  0.45594000000E+02  0.51100000000E-03 0. -1.
         11   -1    0    0    0    0 -0.00000000000E+00 -0.00000000000E+00 -0.45593999997E+02  0.45594000000E+02  0.51100000000E-03 0.  1.
    9900012    2    1    2    0    0  0.21121537290E+02 -0.32232892806E+02 -0.12964784347E+02  0.50528876186E+02  0.30000049655E+02 0.  0.
         12    1    1    2    0    0 -0.21121537290E+02  0.32232892806E+02  0.12964784347E+02  0.40659123814E+02  0.00000000000E+00 0. -1.
         11    1    3    3    0    0  0.24700925134E+02 -0.30487453454E+02 -0.11723551660E+02  0.40951949701E+02  0.51100000000E-03 0. -1.
        -11    1    3    3    0    0 -0.36999409020E+01 -0.28949013263E+01  0.27350774761E+01  0.54360523755E+01  0.51100000000E-03 0.  1.
         12    1    3    3    0    0  0.12055305871E+00  0.11494619743E+01 -0.39763101636E+01  0.41408741091E+01  0.00000000000E+00 0. -1.
</event>
<event>
 7    1  0.5764931E-013  0.5052886E+02  0.7816164E-02  0.1300439E+00
        -11   -1    0    0    0    0  0.00000000000E+00  0.00000000000E+00  0.45593999997E+02  0.45594000000E+02  0.51100000000E-03 0.  1.
         11   -1    0    0    0    0 -0.00000000000E+00 -0.00000000000E+00 -0.45593999997E+02  0.45594000000E+02  0.51100000000E-03 0. -1.
    9900012    2    1    2    0    0  0.16825055931E+02  0.29039996616E+02  0.22951284283E+02  0.50528863748E+02  0.30000011848E+02 0.  0.
         12    1    1    2    0    0 -0.16825055931E+02 -0.29039996616E+02 -0.22951284283E+02  0.40659136252E+02  0.00000000000E+00 0. -1.
         11    1    3    3    0    0  0.89985656616E+00  0.38665335389E+01 -0.56182357734E+01  0.68792729931E+01  0.51100000000E-03 0. -1.
        -11    1    3    3    0    0  0.74365005381E+01  0.90826330679E+01  0.20765471416E+02  0.23853732771E+02  0.51100000000E-03 0.  1.
         12    1    3    3    0    0  0.84886988267E+01  0.16090830009E+02  0.78040486407E+01  0.19795857984E+02  0.00000000000E+00 0. -1.
</event>
<event>
 7    1  0.5764931E-013  0.5052886E+02  0.7816164E-02  0.1300439E+00
        -11   -1    0    0    0    0  0.00000000000E+00  0.00000000000E+00  0.45593999997E+02  0.45594000000E+02  0.51100000000E-03 0.  1.
         11   -1    0    0    0    0 -0.00000000000E+00 -0.00000000000E+00 -0.45593999997E+02  0.45594000000E+02  0.51100000000E-03 0. -1.
    9900012    2    1    2    0    0 -0.32392730635E+02 -0.59895244736E+01  0.23832799038E+02  0.50528859436E+02  0.29999998742E+02 0.  0.
         12    1    1    2    0    0  0.32392730635E+02  0.59895244736E+01 -0.23832799038E+02  0.40659140564E+02  0.00000000000E+00 0. -1.
         11    1    3    3    0    0 -0.76764344064E+01 -0.14539920739E+01 -0.43841555814E+01  0.89589373572E+01  0.51100000000E-03 0. -1.
        -11    1    3    3    0    0 -0.14049057870E+02 -0.71162765843E+01  0.25962797727E+02  0.30365840768E+02  0.51100000000E-03 0.  1.
        -12    1    3    3    0    0 -0.10667238358E+02  0.25807441846E+01  0.22541568929E+01  0.11204081311E+02  0.00000000000E+00 0.  1.
</event>
<event>
 7    1  0.5764931E-013  0.5052886E+02  0.7816164E-02  0.1300439E+00
        -11   -1    0    0    0    0  0.00000000000E+00  0.00000000000E+00  0.45593999997E+02  0.45594000000E+02  0.51100000000E-03 0.  1.
         11   -1    0    0    0    0 -0.00000000000E+00 -0.00000000000E+00 -0.45593999997E+02  0.45594000000E+02  0.51100000000E-03 0. -1.
    9900012    2    1    2    0    0 -0.10856937678E+01 -0.11671438635E+02  0.38932817602E+02  0.50528862070E+02  0.30000006748E+02 0.  0.
         12    1    1    2    0    0  0.10856937678E+01  0.11671438635E+02 -0.38932817602E+02  0.40659137930E+02  0.00000000000E+00 0. -1.
         11    1    3    3    0    0 -0.54756112178E+01 -0.11070501811E+02  0.49422286161E+01  0.13302779879E+02  0.51100000000E-03 0. -1.
        -11    1    3    3    0    0  0.77236634293E+01  0.46089224181E+01  0.20224053866E+02  0.22133899287E+02  0.51100000000E-03 0.  1.
        -12    1    3    3    0    0 -0.33337459794E+01 -0.52098592421E+01  0.13766535120E+02  0.15092182904E+02  0.00000000000E+00 0.  1.
</event>
<event>
 7    1  0.5764931E-013  0.5052885E+02  0.7816164E-02  0.1300439E+00
        -11   -1    0    0    0    0  0.00000000000E+00  0.00000000000E+00  0.45593999997E+02  0.45594000000E+02  0.51100000000E-03 0. -1.
         11   -1    0    0    0    0 -0.00000000000E+00 -0.00000000000E+00 -0.45593999997E+02  0.45594000000E+02  0.51100000000E-03 0.  1.
    9900012    2    1    2    0    0 -0.10597834353E+01  0.20572128759E+02 -0.35054678357E+02  0.50528854691E+02  0.29999984318E+02 0.  0.
         12    1    1    2    0    0  0.10597834353E+01 -0.20572128759E+02  0.35054678357E+02  0.40659145309E+02  0.00000000000E+00 0. -1.
         11    1    3    3    0    0 -0.46151845418E+01 -0.22359529851E+01 -0.13951903253E+01  0.53146938210E+01  0.51100000000E-03 0. -1.
        -11    1    3    3    0    0  0.11278743368E+02  0.95820028123E+01 -0.18116296730E+02  0.23392841583E+02  0.51100000000E-03 0.  1.
        -12    1    3    3    0    0 -0.77233422613E+01  0.13226078931E+02 -0.15543191302E+02  0.21821319287E+02  0.00000000000E+00 0.  1.
</event>
<event>
 7    1  0.5764931E-013  0.5052886E+02  0.7816164E-02  0.1300439E+00
        -11   -1    0    0    0    0  0.00000000000E+00  0.00000000000E+00  0.45593999997E+02  0.45594000000E+02  0.51100000000E-03 0.  1.
         11   -1    0    0    0    0 -0.00000000000E+00 -0.00000000000E+00 -0.45593999997E+02  0.45594000000E+02  0.51100000000E-03 0. -1.
    9900012    2    1    2    0    0 -0.37056002662E+02 -0.16355101680E+02  0.35396472933E+01  0.50528858503E+02  0.29999995907E+02 0.  0.
         12    1    1    2    0    0  0.37056002662E+02  0.16355101680E+02 -0.35396472933E+01  0.40659141497E+02  0.00000000000E+00 0. -1.
         11    1    3    3    0    0 -0.19250480939E+02 -0.37599893796E+01 -0.14784340384E+01  0.19669883172E+02  0.51100000000E-03 0. -1.
        -11    1    3    3    0    0  0.45469534302E+01 -0.38160378731E+01 -0.11914687678E+01  0.60544635296E+01  0.51100000000E-03 0.  1.
        -12    1    3    3    0    0 -0.22352475154E+02 -0.87790744278E+01  0.62095500995E+01  0.24804511802E+02  0.00000000000E+00 0.  1.
</event>
<event>
 7    1  0.5764931E-013  0.5052886E+02  0.7816164E-02  0.1300439E+00
        -11   -1    0    0    0    0  0.00000000000E+00  0.00000000000E+00  0.45593999997E+02  0.45594000000E+02  0.51100000000E-03 0.  1.
         11   -1    0    0    0    0 -0.00000000000E+00 -0.00000000000E+00 -0.45593999997E+02  0.45594000000E+02  0.51100000000E-03 0. -1.
    9900012    2    1    2    0    0 -0.36225219819E+02  0.16677152292E+02  0.79228736368E+01  0.50528857287E+02  0.29999992208E+02 0.  0.
         12    1    1    2    0    0  0.36225219819E+02 -0.16677152292E+02 -0.79228736368E+01  0.40659142713E+02  0.00000000000E+00 0. -1.
         11    1    3    3    0    0 -0.15058602203E+02 -0.75859937417E+01  0.40689454536E+01  0.17345463924E+02  0.51100000000E-03 0. -1.
        -11    1    3    3    0    0 -0.40519662145E+01  0.66087478108E+01 -0.17890250256E+01  0.79557896298E+01  0.51100000000E-03 0.  1.
         12    1    3    3    0    0 -0.17114651402E+02  0.17654398222E+02  0.56429532089E+01  0.25227603733E+02  0.00000000000E+00 0. -1.
</event>
<event>
 7    1  0.5764931E-013  0.5052885E+02  0.7816164E-02  0.1300439E+00
        -11   -1    0    0    0    0  0.00000000000E+00  0.00000000000E+00  0.45593999997E+02  0.45594000000E+02  0.51100000000E-03 0.  1.
         11   -1    0    0    0    0 -0.00000000000E+00 -0.00000000000E+00 -0.45593999997E+02  0.45594000000E+02  0.51100000000E-03 0. -1.
    9900012    2    1    2    0    0 -0.24652677785E+02 -0.24413259300E+02  0.21199169403E+02  0.50528849308E+02  0.29999967956E+02 0.  0.
         12    1    1    2    0    0  0.24652677785E+02  0.24413259300E+02 -0.21199169403E+02  0.40659150692E+02  0.00000000000E+00 0. -1.
         11    1    3    3    0    0 -0.17230722301E+02 -0.22185252969E+02  0.70690477116E+01  0.28966440515E+02  0.51100000000E-03 0. -1.
        -11    1    3    3    0    0 -0.72294290426E+01  0.51684542871E+01  0.75680666431E+01  0.11672754473E+02  0.51100000000E-03 0.  1.
         12    1    3    3    0    0 -0.19252644113E+00 -0.73964606187E+01  0.65620550483E+01  0.98896543201E+01  0.00000000000E+00 0. -1.
</event>
<event>
 7    1  0.5764931E-013  0.5052887E+02  0.7816164E-02  0.1300439E+00
        -11   -1    0    0    0    0  0.00000000000E+00  0.00000000000E+00  0.45593999997E+02  0.45594000000E+02  0.51100000000E-03 0. -1.
         11   -1    0    0    0    0 -0.00000000000E+00 -0.00000000000E+00 -0.45593999997E+02  0.45594000000E+02  0.51100000000E-03 0.  1.
    9900012    2    1    2    0    0  0.24353635945E+02  0.25477852078E+02 -0.20271755612E+02  0.50528873032E+02  0.30000040067E+02 0.  0.
         12    1    1    2    0    0 -0.24353635945E+02 -0.25477852078E+02  0.20271755612E+02  0.40659126968E+02  0.00000000000E+00 0. -1.
         11    1    3    3    0    0  0.14103747733E+01  0.18477015043E+01 -0.15841626326E+02  0.16011254877E+02  0.51100000000E-03 0. -1.
        -11    1    3    3    0    0 -0.72627581302E+00  0.54399670472E+00 -0.87947036501E+00  0.12636761276E+01  0.51100000000E-03 0.  1.
         12    1    3    3    0    0  0.23669536985E+02  0.23086153869E+02 -0.35506589214E+01  0.33253942027E+02  0.00000000000E+00 0. -1.
</event>
<event>
 7    1  0.5764931E-013  0.5052884E+02  0.7816164E-02  0.1300439E+00
        -11   -1    0    0    0    0  0.00000000000E+00  0.00000000000E+00  0.45593999997E+02  0.45594000000E+02  0.51100000000E-03 0.  1.
         11   -1    0    0    0    0 -0.00000000000E+00 -0.00000000000E+00 -0.45593999997E+02  0.45594000000E+02  0.51100000000E-03 0. -1.
    9900012    2    1    2    0    0 -0.37772129472E+02 -0.12970917493E+02 -0.76281604027E+01  0.50528839942E+02  0.29999939488E+02 0.  0.
         12    1    1    2    0    0  0.37772129472E+02  0.12970917493E+02  0.76281604027E+01  0.40659160058E+02  0.00000000000E+00 0. -1.
         11    1    3    3    0    0 -0.20114183060E+02 -0.56070892787E+01 -0.15447761763E+02  0.25974086203E+02  0.51100000000E-03 0. -1.
        -11    1    3    3    0    0 -0.42955615535E+01 -0.50584011910E+01  0.87282221191E+01  0.10964539812E+02  0.51100000000E-03 0.  1.
        -12    1    3    3    0    0 -0.13362384859E+02 -0.23054270235E+01 -0.90862075828E+00  0.13590213927E+02  0.00000000000E+00 0.  1.
</event>
<event>
 7    1  0.5764931E-013  0.5052886E+02  0.7816164E-02  0.1300439E+00
        -11   -1    0    0    0    0  0.00000000000E+00  0.00000000000E+00  0.45593999997E+02  0.45594000000E+02  0.51100000000E-03 0.  1.
         11   -1    0    0    0    0 -0.00000000000E+00 -0.00000000000E+00 -0.45593999997E+02  0.45594000000E+02  0.51100000000E-03 0. -1.
    9900012    2    1    2    0    0  0.16357144733E+02  0.11738064330E+02  0.35324595373E+02  0.50528863557E+02  0.30000011268E+02 0.  0.
         12    1    1    2    0    0 -0.16357144733E+02 -0.11738064330E+02 -0.35324595373E+02  0.40659136443E+02  0.00000000000E+00 0. -1.
         11    1    3    3    0    0  0.56743270524E+01  0.20279748670E+01 -0.76880007663E+00  0.60746788703E+01  0.51100000000E-03 0. -1.
        -11    1    3    3    0    0  0.50568570036E+01 -0.63240730127E+01  0.17399830011E+02  0.19191659306E+02  0.51100000000E-03 0.  1.
        -12    1    3    3    0    0  0.56259606772E+01  0.16034162476E+02  0.18693565438E+02  0.25262525381E+02  0.00000000000E+00 0.  1.
</event>
<event>
 7    1  0.5764931E-013  0.5052886E+02  0.7816164E-02  0.1300439E+00
        -11   -1    0    0    0    0  0.00000000000E+00  0.00000000000E+00  0.45593999997E+02  0.45594000000E+02  0.51100000000E-03 0.  1.
         11   -1    0    0    0    0 -0.00000000000E+00 -0.00000000000E+00 -0.45593999997E+02  0.45594000000E+02  0.51100000000E-03 0. -1.
    9900012    2    1    2    0    0 -0.47443781677E+00 -0.18884580519E+02  0.36004345563E+02  0.50528863609E+02  0.30000011427E+02 0.  0.
         12    1    1    2    0    0  0.47443781677E+00  0.18884580519E+02 -0.36004345563E+02  0.40659136391E+02  0.00000000000E+00 0. -1.
         11    1    3    3    0    0 -0.35957254854E+01  0.26203192037E+01 -0.27763027793E+01  0.52443466590E+01  0.51100000000E-03 0. -1.
        -11    1    3    3    0    0 -0.12997241580E+01 -0.13418013968E+02  0.17472304713E+02  0.22068389475E+02  0.51100000000E-03 0.  1.
         12    1    3    3    0    0  0.44210118267E+01 -0.80868857546E+01  0.21308343629E+02  0.23216127476E+02  0.00000000000E+00 0. -1.
</event>
<event>
 7    1  0.5764931E-013  0.5052886E+02  0.7816164E-02  0.1300439E+00
        -11   -1    0    0    0    0  0.00000000000E+00  0.00000000000E+00  0.45593999997E+02  0.45594000000E+02  0.51100000000E-03 0.  1.
         11   -1    0    0    0    0 -0.00000000000E+00 -0.00000000000E+00 -0.45593999997E+02  0.45594000000E+02  0.51100000000E-03 0. -1.
    9900012    2    1    2    0    0 -0.23890834789E+02 -0.19548754690E+02  0.26462047481E+02  0.50528858916E+02  0.29999997160E+02 0.  0.
         12    1    1    2    0    0  0.23890834789E+02  0.19548754690E+02 -0.26462047481E+02  0.40659141084E+02  0.00000000000E+00 0. -1.
         11    1    3    3    0    0  0.44598970155E+01  0.12171393468E+01 -0.15730256838E+01  0.48832898379E+01  0.51100000000E-03 0. -1.
        -11    1    3    3    0    0 -0.52018049801E+01 -0.59380595180E+01  0.10110882920E+02  0.12827676312E+02  0.51100000000E-03 0.  1.
         12    1    3    3    0    0 -0.23148926825E+02 -0.14827834518E+02  0.17924190245E+02  0.32817892765E+02  0.00000000000E+00 0. -1.
</event>
<event>
 7    1  0.5764931E-013  0.5052885E+02  0.7816164E-02  0.1300439E+00
        -11   -1    0    0    0    0  0.00000000000E+00  0.00000000000E+00  0.45593999997E+02  0.45594000000E+02  0.51100000000E-03 0.  1.
         11   -1    0    0    0    0 -0.00000000000E+00 -0.00000000000E+00 -0.45593999997E+02  0.45594000000E+02  0.51100000000E-03 0. -1.
    9900012    2    1    2    0    0  0.53897019787E+00 -0.19871700173E+02  0.35468180074E+02  0.50528846609E+02  0.29999959754E+02 0.  0.
         12    1    1    2    0    0 -0.53897019787E+00  0.19871700173E+02 -0.35468180074E+02  0.40659153391E+02  0.00000000000E+00 0. -1.
         11    1    3    3    0    0  0.83166880227E+01 -0.53104049828E+01  0.23941940122E+02  0.25895640517E+02  0.51100000000E-03 0. -1.
        -11    1    3    3    0    0 -0.11281358359E+02 -0.66412061428E+01  0.64350474616E+01  0.14587134795E+02  0.51100000000E-03 0.  1.
        -12    1    3    3    0    0  0.35036405338E+01 -0.79200890477E+01  0.50911924909E+01  0.10046071296E+02  0.00000000000E+00 0.  1.
</event>
<event>
 7    1  0.5764931E-013  0.5052882E+02  0.7816164E-02  0.1300439E+00
        -11   -1    0    0    0    0  0.00000000000E+00  0.00000000000E+00  0.45593999997E+02  0.45594000000E+02  0.51100000000E-03 0.  1.
         11   -1    0    0    0    0 -0.00000000000E+00 -0.00000000000E+00 -0.45593999997E+02  0.45594000000E+02  0.51100000000E-03 0. -1.
    9900012    2    1    2    0    0  0.35775508809E+02  0.18366645020E+02  0.59956980219E+01  0.50528818078E+02  0.29999873030E+02 0.  0.
         12    1    1    2    0    0 -0.35775508809E+02 -0.18366645020E+02 -0.59956980219E+01  0.40659181922E+02  0.00000000000E+00 0. -1.
         11    1    3    3    0    0  0.72059678446E+01  0.12269101864E+02  0.99091427470E+01  0.17339202501E+02  0.51100000000E-03 0.  1.
        -11    1    3    3    0    0  0.21871010665E+02  0.22356470113E+01 -0.91902655062E+01  0.23828558610E+02  0.51100000000E-03 0. -1.
         12    1    3    3    0    0  0.66985302987E+01  0.38618961439E+01  0.52768207810E+01  0.93610569672E+01  0.00000000000E+00 0. -1.
</event>
<event>
 7    1  0.5764931E-013  0.5052885E+02  0.7816164E-02  0.1300439E+00
        -11   -1    0    0    0    0  0.00000000000E+00  0.00000000000E+00  0.45593999997E+02  0.45594000000E+02  0.51100000000E-03 0.  1.
         11   -1    0    0    0    0 -0.00000000000E+00 -0.00000000000E+00 -0.45593999997E+02  0.45594000000E+02  0.51100000000E-03 0. -1.
    9900012    2    1    2    0    0 -0.12269858662E+02  0.21104617510E+02  0.32514794555E+02  0.50528853714E+02  0.29999981348E+02 0.  0.
         12    1    1    2    0    0  0.12269858662E+02 -0.21104617510E+02 -0.32514794555E+02  0.40659146286E+02  0.00000000000E+00 0. -1.
         11    1    3    3    0    0  0.39591674564E+01 -0.35648287090E+01  0.26103714279E+01  0.59327101669E+01  0.51100000000E-03 0. -1.
        -11    1    3    3    0    0 -0.14521207992E+02  0.20990693850E+02  0.31226053859E+02  0.40330399821E+02  0.51100000000E-03 0.  1.
        -12    1    3    3    0    0 -0.17078181266E+01  0.36787523684E+01 -0.13216307323E+01  0.42657437258E+01  0.00000000000E+00 0.  1.
</event>
<event>
 7    1  0.5764931E-013  0.5052886E+02  0.7816164E-02  0.1300439E+00
        -11   -1    0    0    0    0  0.00000000000E+00  0.00000000000E+00  0.45593999997E+02  0.45594000000E+02  0.51100000000E-03 0.  1.
         11   -1    0    0    0    0 -0.00000000000E+00 -0.00000000000E+00 -0.45593999997E+02  0.45594000000E+02  0.51100000000E-03 0. -1.
    9900012    2    1    2    0    0  0.56567888351E+01  0.33582464126E+02  0.22212252756E+02  0.50528864136E+02  0.30000013029E+02 0.  0.
         12    1    1    2    0    0 -0.56567888351E+01 -0.33582464126E+02 -0.22212252756E+02  0.40659135864E+02  0.00000000000E+00 0. -1.
         11    1    3    3    0    0  0.66585872348E+01  0.13120930948E+02 -0.51576228928E+01  0.15591558199E+02  0.51100000000E-03 0. -1.
        -11    1    3    3    0    0  0.28414505571E+01  0.13119475217E+02  0.17221848568E+02  0.21835442281E+02  0.51100000000E-03 0.  1.
         12    1    3    3    0    0 -0.38432489568E+01  0.73420579604E+01  0.10148027080E+02  0.13101863656E+02  0.00000000000E+00 0. -1.
</event>
<event>
 7    1  0.5764931E-013  0.5052886E+02  0.7816164E-02  0.1300439E+00
        -11   -1    0    0    0    0  0.00000000000E+00  0.00000000000E+00  0.45593999997E+02  0.45594000000E+02  0.51100000000E-03 0.  1.
         11   -1    0    0    0    0 -0.00000000000E+00 -0.00000000000E+00 -0.45593999997E+02  0.45594000000E+02  0.51100000000E-03 0. -1.
    9900012    2    1    2    0    0  0.22232809867E+02  0.63423925883E+01  0.33446100835E+02  0.50528862781E+02  0.30000008909E+02 0.  0.
         12    1    1    2    0    0 -0.22232809867E+02 -0.63423925883E+01 -0.33446100835E+02  0.40659137219E+02  0.00000000000E+00 0. -1.
         11    1    3    3    0    0  0.11033794318E+02 -0.98027397331E+01  0.95818181541E+01  0.17596862298E+02  0.51100000000E-03 0. -1.
        -11    1    3    3    0    0  0.12997786112E+02  0.15232475640E+02  0.18741948885E+02  0.27426837335E+02  0.51100000000E-03 0.  1.
        -12    1    3    3    0    0 -0.17987705643E+01  0.91265668165E+00  0.51223337962E+01  0.55051631476E+01  0.00000000000E+00 0.  1.
</event>
<event>
 7    1  0.5764931E-013  0.5052886E+02  0.7816164E-02  0.1300439E+00
        -11   -1    0    0    0    0  0.00000000000E+00  0.00000000000E+00  0.45593999997E+02  0.45594000000E+02  0.51100000000E-03 0. -1.
         11   -1    0    0    0    0 -0.00000000000E+00 -0.00000000000E+00 -0.45593999997E+02  0.45594000000E+02  0.51100000000E-03 0.  1.
    9900012    2    1    2    0    0 -0.37430169377E+02 -0.11918803858E+00 -0.15878722737E+02  0.50528860546E+02  0.30000002117E+02 0.  0.
         12    1    1    2    0    0  0.37430169377E+02  0.11918803858E+00  0.15878722737E+02  0.40659139454E+02  0.00000000000E+00 0. -1.
         11    1    3    3    0    0 -0.43941245403E+01 -0.19787082596E+01 -0.11242333598E+02  0.12231667173E+02  0.51100000000E-03 0. -1.
        -11    1    3    3    0    0 -0.23277183456E+02  0.63465469642E+01  0.40737914867E+01  0.24468381748E+02  0.51100000000E-03 0.  1.
        -12    1    3    3    0    0 -0.97588613805E+01 -0.44870267432E+01 -0.87101806258E+01  0.13828811625E+02  0.00000000000E+00 0.  1.
</event>
<event>
 7    1  0.5764931E-013  0.5052887E+02  0.7816164E-02  0.1300439E+00
        -11   -1    0    0    0    0  0.00000000000E+00  0.00000000000E+00  0.45593999997E+02  0.45594000000E+02  0.51100000000E-03 0. -1.
         11   -1    0    0    0    0 -0.00000000000E+00 -0.00000000000E+00 -0.45593999997E+02  0.45594000000E+02  0.51100000000E-03 0.  1.
    9900012    2    1    2    0    0 -0.52811818060E+01  0.40231766418E+02 -0.25844066735E+01  0.50528867346E+02  0.30000022784E+02 0.  0.
         12    1    1    2    0    0  0.52811818060E+01 -0.40231766418E+02  0.25844066735E+01  0.40659132654E+02  0.00000000000E+00 0. -1.
         11    1    3    3    0    0  0.88204088266E+01  0.13121173296E+02  0.58832651548E+00  0.15821217680E+02  0.51100000000E-03 0. -1.
        -11    1    3    3    0    0 -0.13935500422E+02  0.28918260730E+02 -0.13410658534E+01  0.32128841149E+02  0.51100000000E-03 0.  1.
        -12    1    3    3    0    0 -0.16609021044E+00 -0.18076676083E+01 -0.18316673356E+01  0.25788085172E+01  0.00000000000E+00 0.  1.
</event>
<event>
 7    1  0.5764931E-013  0.5052886E+02  0.7816164E-02  0.1300439E+00
        -11   -1    0    0    0    0  0.00000000000E+00  0.00000000000E+00  0.45593999997E+02  0.45594000000E+02  0.51100000000E-03 0.  1.
         11   -1    0    0    0    0 -0.00000000000E+00 -0.00000000000E+00 -0.45593999997E+02  0.45594000000E+02  0.51100000000E-03 0. -1.
    9900012    2    1    2    0    0 -0.37086296969E+02  0.21889445565E+01 -0.16522130926E+02  0.50528859435E+02  0.29999998737E+02 0.  0.
         12    1    1    2    0    0  0.37086296969E+02 -0.21889445565E+01  0.16522130926E+02  0.40659140565E+02  0.00000000000E+00 0. -1.
         11    1    3    3    0    0 -0.19122913741E+02 -0.32690361674E+00 -0.16505934399E+02  0.25263383910E+02  0.51100000000E-03 0. -1.
        -11    1    3    3    0    0 -0.13498051952E+02 -0.21981881332E+01  0.72845731028E+01  0.15494981223E+02  0.51100000000E-03 0.  1.
         12    1    3    3    0    0 -0.44653312770E+01  0.47140363065E+01 -0.73007696299E+01  0.97704943018E+01  0.00000000000E+00 0. -1.
</event>
<event>
 7    1  0.5764931E-013  0.5052886E+02  0.7816164E-02  0.1300439E+00
        -11   -1    0    0    0    0  0.00000000000E+00  0.00000000000E+00  0.45593999997E+02  0.45594000000E+02  0.51100000000E-03 0.  1.
         11   -1    0    0    0    0 -0.00000000000E+00 -0.00000000000E+00 -0.45593999997E+02  0.45594000000E+02  0.51100000000E-03 0. -1.
    9900012    2    1    2    0    0  0.29410623859E+02  0.15713492985E+01  0.28030551970E+02  0.50528858616E+02  0.29999996248E+02 0.  0.
         12    1    1    2    0    0 -0.29410623859E+02 -0.15713492985E+01 -0.28030551970E+02  0.40659141384E+02  0.00000000000E+00 0. -1.
         11    1    3    3    0    0  0.21483457468E+01 -0.17436448156E-01 -0.25467937698E+01  0.33319442139E+01  0.51100000000E-03 0. -1.
        -11    1    3    3    0    0  0.28903885672E+02  0.20278597734E+00  0.17172487764E+02  0.33620976568E+02  0.51100000000E-03 0.  1.
        -12    1    3    3    0    0 -0.16416075598E+01  0.13859997693E+01  0.13404857975E+02  0.13575937834E+02  0.00000000000E+00 0.  1.
</event>
<event>
 7    1  0.5764931E-013  0.5052886E+02  0.7816164E-02  0.1300439E+00
        -11   -1    0    0    0    0  0.00000000000E+00  0.00000000000E+00  0.45593999997E+02  0.45594000000E+02  0.51100000000E-03 0.  1.
         11   -1    0    0    0    0 -0.00000000000E+00 -0.00000000000E+00 -0.45593999997E+02  0.45594000000E+02  0.51100000000E-03 0. -1.
    9900012    2    1    2    0    0  0.33939432491E+02 -0.22323396387E+02  0.17166245668E+01  0.50528857068E+02  0.29999991544E+02 0.  0.
         12    1    1    2    0    0 -0.33939432491E+02  0.22323396387E+02 -0.17166245668E+01  0.40659142932E+02  0.00000000000E+00 0. -1.
         11    1    3    3    0    0  0.23717809518E+01 -0.75838921697E+01  0.10805101156E+02  0.13412344186E+02  0.51100000000E-03 0. -1.
        -11    1    3    3    0    0  0.32951689385E+01 -0.46743650355E+00 -0.37246004135E+01  0.49949257972E+01  0.51100000000E-03 0.  1.
         12    1    3    3    0    0  0.28272482601E+02 -0.14272067713E+02 -0.53638761754E+01  0.32121587085E+02  0.00000000000E+00 0. -1.
</event>
<event>
 7    1  0.5764931E-013  0.5052886E+02  0.7816164E-02  0.1300439E+00
        -11   -1    0    0    0    0  0.00000000000E+00  0.00000000000E+00  0.45593999997E+02  0.45594000000E+02  0.51100000000E-03 0.  1.
         11   -1    0    0    0    0 -0.00000000000E+00 -0.00000000000E+00 -0.45593999997E+02  0.45594000000E+02  0.51100000000E-03 0. -1.
    9900012    2    1    2    0    0 -0.78404585221E+01  0.57466005797E+01  0.39479988524E+02  0.50528859552E+02  0.29999999095E+02 0.  0.
         12    1    1    2    0    0  0.78404585221E+01 -0.57466005797E+01 -0.39479988524E+02  0.40659140448E+02  0.00000000000E+00 0. -1.
         11    1    3    3    0    0  0.32655407856E+01  0.10335625704E+02  0.46724603352E+01  0.11803423281E+02  0.51100000000E-03 0. -1.
        -11    1    3    3    0    0 -0.93116278058E+01 -0.23315997304E+01  0.34517284646E+02  0.35827164405E+02  0.51100000000E-03 0.  1.
        -12    1    3    3    0    0 -0.17943715018E+01 -0.22574253937E+01  0.29024354300E+00  0.28982718659E+01  0.00000000000E+00 0.  1.
</event>
<event>
 7    1  0.5764931E-013  0.5052885E+02  0.7816164E-02  0.1300439E+00
        -11   -1    0    0    0    0  0.00000000000E+00  0.00000000000E+00  0.45593999997E+02  0.45594000000E+02  0.51100000000E-03 0.  1.
         11   -1    0    0    0    0 -0.00000000000E+00 -0.00000000000E+00 -0.45593999997E+02  0.45594000000E+02  0.51100000000E-03 0. -1.
    9900012    2    1    2    0    0  0.32504500864E+02 -0.13278018883E+02  0.20501652538E+02  0.50528854428E+02  0.29999983519E+02 0.  0.
         12    1    1    2    0    0 -0.32504500864E+02  0.13278018883E+02 -0.20501652538E+02  0.40659145572E+02  0.00000000000E+00 0. -1.
         11    1    3    3    0    0  0.11749715088E+02 -0.11692992390E+02  0.27574344146E+01  0.16804324458E+02  0.51100000000E-03 0. -1.
        -11    1    3    3    0    0  0.21928826542E+02  0.25637082714E+00  0.20627865228E+02  0.30107274597E+02  0.51100000000E-03 0.  1.
        -12    1    3    3    0    0 -0.11740407664E+01 -0.18413973208E+01 -0.28836471044E+01  0.36172553735E+01  0.00000000000E+00 0.  1.
</event>
<event>
 7    1  0.5764931E-013  0.5052886E+02  0.7816164E-02  0.1300439E+00
        -11   -1    0    0    0    0  0.00000000000E+00  0.00000000000E+00  0.45593999997E+02  0.45594000000E+02  0.51100000000E-03 0.  1.
         11   -1    0    0    0    0 -0.00000000000E+00 -0.00000000000E+00 -0.45593999997E+02  0.45594000000E+02  0.51100000000E-03 0. -1.
    9900012    2    1    2    0    0 -0.25994460287E+02 -0.28695760551E+02  0.12409964538E+02  0.50528857620E+02  0.29999993222E+02 0.  0.
         12    1    1    2    0    0  0.25994460287E+02  0.28695760551E+02 -0.12409964538E+02  0.40659142380E+02  0.00000000000E+00 0. -1.
         11    1    3    3    0    0 -0.55383148099E+01 -0.22513709692E+02  0.19245241190E+01  0.23264648039E+02  0.51100000000E-03 0. -1.
        -11    1    3    3    0    0 -0.45450029015E+01 -0.13985887110E+01  0.94960177173E+01  0.10620143808E+02  0.51100000000E-03 0.  1.
         12    1    3    3    0    0 -0.15911142576E+02 -0.47834621485E+01  0.98942270216E+00  0.16644065773E+02  0.00000000000E+00 0. -1.
</event>
<event>
 7    1  0.5764931E-013  0.5052886E+02  0.7816164E-02  0.1300439E+00
        -11   -1    0    0    0    0  0.00000000000E+00  0.00000000000E+00  0.45593999997E+02  0.45594000000E+02  0.51100000000E-03 0.  1.
         11   -1    0    0    0    0 -0.00000000000E+00 -0.00000000000E+00 -0.45593999997E+02  0.45594000000E+02  0.51100000000E-03 0. -1.
    9900012    2    1    2    0    0 -0.31917530535E+02  0.25154868437E+02 -0.12922476283E+01  0.50528855082E+02  0.29999985508E+02 0.  0.
         12    1    1    2    0    0  0.31917530535E+02 -0.25154868437E+02  0.12922476283E+01  0.40659144918E+02  0.00000000000E+00 0. -1.
         11    1    3    3    0    0 -0.34778917535E+01 -0.31296028780E+01  0.17322008231E+01  0.49890545372E+01  0.51100000000E-03 0. -1.
        -11    1    3    3    0    0 -0.28087634245E+02  0.31454136737E+02 -0.21111185429E+01  0.42222443524E+02  0.51100000000E-03 0.  1.
        -12    1    3    3    0    0 -0.35200453612E+00 -0.31696654222E+01 -0.91332990847E+00  0.33173570209E+01  0.00000000000E+00 0.  1.
</event>
<event>
 7    1  0.5764931E-013  0.5052886E+02  0.7816164E-02  0.1300439E+00
        -11   -1    0    0    0    0  0.00000000000E+00  0.00000000000E+00  0.45593999997E+02  0.45594000000E+02  0.51100000000E-03 0.  1.
         11   -1    0    0    0    0 -0.00000000000E+00 -0.00000000000E+00 -0.45593999997E+02  0.45594000000E+02  0.51100000000E-03 0. -1.
    9900012    2    1    2    0    0  0.36536823418E+02 -0.10830364612E+01 -0.17805993759E+02  0.50528857766E+02  0.29999993666E+02 0.  0.
         12    1    1    2    0    0 -0.36536823418E+02  0.10830364612E+01  0.17805993759E+02  0.40659142234E+02  0.00000000000E+00 0. -1.
         11    1    3    3    0    0  0.10998827626E+02  0.11572515875E+02 -0.12585815529E+02  0.20329783216E+02  0.51100000000E-03 0. -1.
        -11    1    3    3    0    0  0.44374112010E+01 -0.55996292511E+01 -0.32919917542E+01  0.78666178175E+01  0.51100000000E-03 0.  1.
         12    1    3    3    0    0  0.21100584590E+02 -0.70559230848E+01 -0.19281864761E+01  0.22332456733E+02  0.00000000000E+00 0. -1.
</event>
<event>
 7    1  0.5764931E-013  0.5052887E+02  0.7816164E-02  0.1300439E+00
        -11   -1    0    0    0    0  0.00000000000E+00  0.00000000000E+00  0.45593999997E+02  0.45594000000E+02  0.51100000000E-03 0.  1.
         11   -1    0    0    0    0 -0.00000000000E+00 -0.00000000000E+00 -0.45593999997E+02  0.45594000000E+02  0.51100000000E-03 0. -1.
    9900012    2    1    2    0    0  0.26395131142E+02  0.17766099069E+01  0.30875651862E+02  0.50528866110E+02  0.30000019027E+02 0.  0.
         12    1    1    2    0    0 -0.26395131142E+02 -0.17766099069E+01 -0.30875651862E+02  0.40659133890E+02  0.00000000000E+00 0. -1.
         11    1    3    3    0    0 -0.21074137940E+00  0.15695451337E+01 -0.25966556720E+01  0.30414642520E+01  0.51100000000E-03 0. -1.
        -11    1    3    3    0    0  0.28060969725E+02 -0.43835534242E+01  0.31106912257E+02  0.42122126644E+02  0.51100000000E-03 0.  1.
        -12    1    3    3    0    0 -0.14550972036E+01  0.45906181974E+01  0.23653952770E+01  0.53652752141E+01  0.00000000000E+00 0.  1.
</event>
<event>
 7    1  0.5764931E-013  0.5052886E+02  0.7816164E-02  0.1300439E+00
        -11   -1    0    0    0    0  0.00000000000E+00  0.00000000000E+00  0.45593999997E+02  0.45594000000E+02  0.51100000000E-03 0.  1.
         11   -1    0    0    0    0 -0.00000000000E+00 -0.00000000000E+00 -0.45593999997E+02  0.45594000000E+02  0.51100000000E-03 0. -1.
    9900012    2    1    2    0    0  0.39033647627E+02  0.92288718834E+01  0.66609234459E+01  0.50528860505E+02  0.30000001992E+02 0.  0.
         12    1    1    2    0    0 -0.39033647627E+02 -0.92288718834E+01 -0.66609234459E+01  0.40659139495E+02  0.00000000000E+00 0. -1.
         11    1    3    3    0    0 -0.64579128810E-01 -0.20517856467E+01  0.76093427423E-01  0.20542115944E+01  0.51100000000E-03 0. -1.
        -11    1    3    3    0    0  0.39957969349E+02  0.54383749057E+01  0.10140245847E+02  0.41581724618E+02  0.51100000000E-03 0.  1.
        -12    1    3    3    0    0 -0.85974259347E+00  0.58422826243E+01 -0.35554158285E+01  0.68929242926E+01  0.00000000000E+00 0.  1.
</event>
<event>
 7    1  0.5764931E-013  0.5052886E+02  0.7816164E-02  0.1300439E+00
        -11   -1    0    0    0    0  0.00000000000E+00  0.00000000000E+00  0.45593999997E+02  0.45594000000E+02  0.51100000000E-03 0.  1.
         11   -1    0    0    0    0 -0.00000000000E+00 -0.00000000000E+00 -0.45593999997E+02  0.45594000000E+02  0.51100000000E-03 0. -1.
    9900012    2    1    2    0    0  0.14820906237E+02 -0.11675684842E+02  0.36016454276E+02  0.50528857648E+02  0.29999993305E+02 0.  0.
         12    1    1    2    0    0 -0.14820906237E+02  0.11675684842E+02 -0.36016454276E+02  0.40659142352E+02  0.00000000000E+00 0. -1.
         11    1    3    3    0    0 -0.48845653129E+01 -0.43773498834E+01 -0.62262608440E+00  0.65884621726E+01  0.51100000000E-03 0. -1.
        -11    1    3    3    0    0  0.48530604336E+01 -0.53134484782E+01  0.21360894305E+02  0.22540468852E+02  0.51100000000E-03 0.  1.
         12    1    3    3    0    0  0.14852411117E+02 -0.19848864809E+01  0.15278186055E+02  0.21399926623E+02  0.00000000000E+00 0. -1.
</event>
<event>
 7    1  0.5764931E-013  0.5052887E+02  0.7816164E-02  0.1300439E+00
        -11   -1    0    0    0    0  0.00000000000E+00  0.00000000000E+00  0.45593999997E+02  0.45594000000E+02  0.51100000000E-03 0.  1.
         11   -1    0    0    0    0 -0.00000000000E+00 -0.00000000000E+00 -0.45593999997E+02  0.45594000000E+02  0.51100000000E-03 0. -1.
    9900012    2    1    2    0    0 -0.13826859423E+02  0.17389195533E+02  0.34052879489E+02  0.50528871083E+02  0.30000034145E+02 0.  0.
         12    1    1    2    0    0  0.13826859423E+02 -0.17389195533E+02 -0.34052879489E+02  0.40659128917E+02  0.00000000000E+00 0. -1.
         11    1    3    3    0    0  0.32539026344E+01 -0.26484147014E+01  0.26347461885E+01  0.49541770784E+01  0.51100000000E-03 0. -1.
        -11    1    3    3    0    0 -0.55195607854E+01  0.19983035999E+02  0.15424515269E+02  0.25839948734E+02  0.51100000000E-03 0.  1.
         12    1    3    3    0    0 -0.11561201272E+02  0.54574235090E-01  0.15993618031E+02  0.19734745271E+02  0.00000000000E+00 0. -1.
</event>
<event>
 7    1  0.5764931E-013  0.5052886E+02  0.7816164E-02  0.1300439E+00
        -11   -1    0    0    0    0  0.00000000000E+00  0.00000000000E+00  0.45593999997E+02  0.45594000000E+02  0.51100000000E-03 0.  1.
         11   -1    0    0    0    0 -0.00000000000E+00 -0.00000000000E+00 -0.45593999997E+02  0.45594000000E+02  0.51100000000E-03 0. -1.
    9900012    2    1    2    0    0  0.17792748925E+02 -0.85949347736E+01  0.35534646868E+02  0.50528856550E+02  0.29999989969E+02 0.  0.
         12    1    1    2    0    0 -0.17792748925E+02  0.85949347736E+01 -0.35534646868E+02  0.40659143450E+02  0.00000000000E+00 0. -1.
         11    1    3    3    0    0  0.24169545377E+02 -0.20176842595E+01  0.16914975885E+02  0.29569483982E+02  0.51100000000E-03 0. -1.
        -11    1    3    3    0    0 -0.59215548746E+01 -0.57366479474E+01  0.14046547268E+02  0.16287401027E+02  0.51100000000E-03 0.  1.
         12    1    3    3    0    0 -0.45524157751E+00 -0.84060256665E+00  0.45731237148E+01  0.46719715410E+01  0.00000000000E+00 0. -1.
</event>
<event>
 7    1  0.5764931E-013  0.5052887E+02  0.7816164E-02  0.1300439E+00
        -11   -1    0    0    0    0  0.00000000000E+00  0.00000000000E+00  0.45593999997E+02  0.45594000000E+02  0.51100000000E-03 0. -1.
         11   -1    0    0    0    0 -0.00000000000E+00 -0.00000000000E+00 -0.45593999997E+02  0.45594000000E+02  0.51100000000E-03 0.  1.
    9900012    2    1    2    0    0  0.22138848424E+02  0.11325418996E+02 -0.32167862883E+02  0.50528866617E+02  0.30000020569E+02 0.  0.
         12    1    1    2    0    0 -0.22138848424E+02 -0.11325418996E+02  0.32167862883E+02  0.40659133383E+02  0.00000000000E+00 0. -1.
         11    1    3    3    0    0 -0.83975185686E+00  0.10465921842E+02 -0.77840418374E+00  0.10528371978E+02  0.51100000000E-03 0. -1.
        -11    1    3    3    0    0  0.11001498720E+02  0.36067583448E+01 -0.20680786937E+02  0.23700983702E+02  0.51100000000E-03 0.  1.
         12    1    3    3    0    0  0.11977101561E+02 -0.27472611906E+01 -0.10708671763E+02  0.16299510937E+02  0.00000000000E+00 0. -1.
</event>
<event>
 7    1  0.5764931E-013  0.5052890E+02  0.7816164E-02  0.1300439E+00
        -11   -1    0    0    0    0  0.00000000000E+00  0.00000000000E+00  0.45593999997E+02  0.45594000000E+02  0.51100000000E-03 0.  1.
         11   -1    0    0    0    0 -0.00000000000E+00 -0.00000000000E+00 -0.45593999997E+02  0.45594000000E+02  0.51100000000E-03 0. -1.
    9900012    2    1    2    0    0 -0.10001645746E+02  0.11731707469E+02  0.37623087736E+02  0.50528897593E+02  0.30000114723E+02 0.  0.
         12    1    1    2    0    0  0.10001645746E+02 -0.11731707469E+02 -0.37623087736E+02  0.40659102407E+02  0.00000000000E+00 0. -1.
         11    1    3    3    0    0  0.39422950612E+01  0.66087843464E+00  0.28595574883E+01  0.49148265427E+01  0.51100000000E-03 0. -1.
        -11    1    3    3    0    0 -0.61743991676E+01  0.16088038259E+02  0.31315315055E+02  0.35743490839E+02  0.51100000000E-03 0.  1.
        -12    1    3    3    0    0 -0.77695416393E+01 -0.50172092245E+01  0.34482151925E+01  0.98705802110E+01  0.00000000000E+00 0.  1.
</event>
<event>
 7    1  0.5764931E-013  0.5052885E+02  0.7816164E-02  0.1300439E+00
        -11   -1    0    0    0    0  0.00000000000E+00  0.00000000000E+00  0.45593999997E+02  0.45594000000E+02  0.51100000000E-03 0.  1.
         11   -1    0    0    0    0 -0.00000000000E+00 -0.00000000000E+00 -0.45593999997E+02  0.45594000000E+02  0.51100000000E-03 0. -1.
    9900012    2    1    2    0    0 -0.16335002161E+02 -0.23046820043E+02  0.29243425120E+02  0.50528854381E+02  0.29999983376E+02 0.  0.
         12    1    1    2    0    0  0.16335002161E+02  0.23046820043E+02 -0.29243425120E+02  0.40659145619E+02  0.00000000000E+00 0. -1.
         11    1    3    3    0    0 -0.99813071396E+01 -0.28747342769E+00  0.18550426444E+02  0.21067212789E+02  0.51100000000E-03 0.  1.
        -11    1    3    3    0    0  0.37443556638E-01 -0.96658851758E+01 -0.23043917265E+01  0.99368485820E+01  0.51100000000E-03 0. -1.
         12    1    3    3    0    0 -0.63911385781E+01 -0.13093461440E+02  0.12997390403E+02  0.19524793010E+02  0.00000000000E+00 0. -1.
</event>
<event>
 7    1  0.5764931E-013  0.5052886E+02  0.7816164E-02  0.1300439E+00
        -11   -1    0    0    0    0  0.00000000000E+00  0.00000000000E+00  0.45593999997E+02  0.45594000000E+02  0.51100000000E-03 0.  1.
         11   -1    0    0    0    0 -0.00000000000E+00 -0.00000000000E+00 -0.45593999997E+02  0.45594000000E+02  0.51100000000E-03 0. -1.
    9900012    2    1    2    0    0  0.28221449784E+02 -0.19228957930E+02  0.22067227792E+02  0.50528860887E+02  0.30000003153E+02 0.  0.
         12    1    1    2    0    0 -0.28221449784E+02  0.19228957930E+02 -0.22067227792E+02  0.40659139113E+02  0.00000000000E+00 0. -1.
         11    1    3    3    0    0  0.98934188687E+01 -0.71512685640E+01 -0.69738398873E+01  0.14058976564E+02  0.51100000000E-03 0. -1.
        -11    1    3    3    0    0  0.14092284271E+02 -0.10251478199E+02  0.23599492228E+02  0.29336348016E+02  0.51100000000E-03 0.  1.
         12    1    3    3    0    0  0.42357466437E+01 -0.18262111671E+01  0.54415754514E+01  0.71335363075E+01  0.00000000000E+00 0. -1.
</event>
<event>
 7    1  0.5764931E-013  0.5052886E+02  0.7816164E-02  0.1300439E+00
        -11   -1    0    0    0    0  0.00000000000E+00  0.00000000000E+00  0.45593999997E+02  0.45594000000E+02  0.51100000000E-03 0.  1.
         11   -1    0    0    0    0 -0.00000000000E+00 -0.00000000000E+00 -0.45593999997E+02  0.45594000000E+02  0.51100000000E-03 0. -1.
    9900012    2    1    2    0    0  0.60083021358E+01 -0.25890522326E+02  0.30769252047E+02  0.50528859423E+02  0.29999998703E+02 0.  0.
         12    1    1    2    0    0 -0.60083021358E+01  0.25890522326E+02 -0.30769252047E+02  0.40659140577E+02  0.00000000000E+00 0. -1.
         11    1    3    3    0    0 -0.29779130384E+01  0.25628009433E+01  0.17259849242E+01  0.42912630960E+01  0.51100000000E-03 0. -1.
        -11    1    3    3    0    0  0.13168678470E+02 -0.18271110239E+02  0.26794048563E+02  0.35002408498E+02  0.51100000000E-03 0.  1.
        -12    1    3    3    0    0 -0.41824632955E+01 -0.10182213031E+02  0.22492185595E+01  0.11235187829E+02  0.00000000000E+00 0.  1.
</event>
<event>
 7    1  0.5764931E-013  0.5052877E+02  0.7816164E-02  0.1300439E+00
        -11   -1    0    0    0    0  0.00000000000E+00  0.00000000000E+00  0.45593999997E+02  0.45594000000E+02  0.51100000000E-03 0.  1.
         11   -1    0    0    0    0 -0.00000000000E+00 -0.00000000000E+00 -0.45593999997E+02  0.45594000000E+02  0.51100000000E-03 0. -1.
    9900012    2    1    2    0    0  0.15031967187E+02  0.25632695396E+02  0.27752082018E+02  0.50528767750E+02  0.29999720053E+02 0.  0.
         12    1    1    2    0    0 -0.15031967187E+02 -0.25632695396E+02 -0.27752082018E+02  0.40659232250E+02  0.00000000000E+00 0. -1.
         11    1    3    3    0    0 -0.74581145919E+01  0.11404105400E+02  0.32412560593E+01  0.14006528276E+02  0.51100000000E-03 0. -1.
        -11    1    3    3    0    0  0.82031539720E+01  0.27920896854E+01  0.94475731074E+01  0.12819677757E+02  0.51100000000E-03 0.  1.
         12    1    3    3    0    0  0.14286927807E+02  0.11436500311E+02  0.15063252851E+02  0.23702561718E+02  0.00000000000E+00 0. -1.
</event>
<event>
 7    1  0.5764931E-013  0.5052885E+02  0.7816164E-02  0.1300439E+00
        -11   -1    0    0    0    0  0.00000000000E+00  0.00000000000E+00  0.45593999997E+02  0.45594000000E+02  0.51100000000E-03 0. -1.
         11   -1    0    0    0    0 -0.00000000000E+00 -0.00000000000E+00 -0.45593999997E+02  0.45594000000E+02  0.51100000000E-03 0.  1.
    9900012    2    1    2    0    0 -0.25925547695E+02 -0.31247940901E+02  0.21445032143E+01  0.50528846937E+02  0.29999960748E+02 0.  0.
         12    1    1    2    0    0  0.25925547695E+02  0.31247940901E+02 -0.21445032143E+01  0.40659153063E+02  0.00000000000E+00 0. -1.
         11    1    3    3    0    0 -0.55145700318E+00  0.40145632287E+01 -0.40262248636E+01  0.57123821351E+01  0.51100000000E-03 0. -1.
        -11    1    3    3    0    0 -0.49342592638E+01 -0.13483493851E+02  0.21148555814E+00  0.14359535066E+02  0.51100000000E-03 0.  1.
         12    1    3    3    0    0 -0.20439831428E+02 -0.21779010279E+02  0.59592425198E+01  0.30456929736E+02  0.00000000000E+00 0. -1.
</event>
<event>
 7    1  0.5764931E-013  0.5052886E+02  0.7816164E-02  0.1300439E+00
        -11   -1    0    0    0    0  0.00000000000E+00  0.00000000000E+00  0.45593999997E+02  0.45594000000E+02  0.51100000000E-03 0.  1.
         11   -1    0    0    0    0 -0.00000000000E+00 -0.00000000000E+00 -0.45593999997E+02  0.45594000000E+02  0.51100000000E-03 0. -1.
    9900012    2    1    2    0    0  0.20184098329E+02 -0.90047808750E+01  0.34127428786E+02  0.50528864501E+02  0.30000014138E+02 0.  0.
         12    1    1    2    0    0 -0.20184098329E+02  0.90047808750E+01 -0.34127428786E+02  0.40659135499E+02  0.00000000000E+00 0. -1.
         11    1    3    3    0    0  0.17600664499E+02 -0.14217576099E+02  0.27421399530E+02  0.35550752641E+02  0.51100000000E-03 0. -1.
        -11    1    3    3    0    0 -0.46142938768E+01  0.42236239463E+00  0.14294973673E+01  0.48490783618E+01  0.51100000000E-03 0.  1.
         12    1    3    3    0    0  0.71977277069E+01  0.47904328290E+01  0.52765318888E+01  0.10129033498E+02  0.00000000000E+00 0. -1.
</event>
<event>
 7    1  0.5764931E-013  0.5052887E+02  0.7816164E-02  0.1300439E+00
        -11   -1    0    0    0    0  0.00000000000E+00  0.00000000000E+00  0.45593999997E+02  0.45594000000E+02  0.51100000000E-03 0. -1.
         11   -1    0    0    0    0 -0.00000000000E+00 -0.00000000000E+00 -0.45593999997E+02  0.45594000000E+02  0.51100000000E-03 0.  1.
    9900012    2    1    2    0    0 -0.11584914178E+02 -0.38337937114E+02  0.70111960646E+01  0.50528873978E+02  0.30000042942E+02 0.  0.
         12    1    1    2    0    0  0.11584914178E+02  0.38337937114E+02 -0.70111960646E+01  0.40659126022E+02  0.00000000000E+00 0. -1.
         11    1    3    3    0    0 -0.62737017089E+01  0.19892237122E+01  0.19031602659E+01  0.68511578122E+01  0.51100000000E-03 0. -1.
        -11    1    3    3    0    0  0.95771874705E+00 -0.19233816548E+02 -0.43226433384E+01  0.19736822690E+02  0.51100000000E-03 0.  1.
        -12    1    3    3    0    0 -0.62689312163E+01 -0.21093344278E+02  0.94306791371E+01  0.23940893476E+02  0.00000000000E+00 0.  1.
</event>
<event>
 7    1  0.5764931E-013  0.5052890E+02  0.7816164E-02  0.1300439E+00
        -11   -1    0    0    0    0  0.00000000000E+00  0.00000000000E+00  0.45593999997E+02  0.45594000000E+02  0.51100000000E-03 0.  1.
         11   -1    0    0    0    0 -0.00000000000E+00 -0.00000000000E+00 -0.45593999997E+02  0.45594000000E+02  0.51100000000E-03 0. -1.
    9900012    2    1    2    0    0 -0.24478225714E+02  0.30573734752E+02  0.10919040008E+02  0.50528902304E+02  0.30000129042E+02 0.  0.
         12    1    1    2    0    0  0.24478225714E+02 -0.30573734752E+02 -0.10919040008E+02  0.40659097696E+02  0.00000000000E+00 0. -1.
         11    1    3    3    0    0 -0.10311655151E+02  0.17844259965E+02 -0.68186984893E+01  0.21708120485E+02  0.51100000000E-03 0. -1.
        -11    1    3    3    0    0 -0.11733659008E+02  0.15230540318E+02  0.14948292278E+02  0.24353635342E+02  0.51100000000E-03 0.  1.
         12    1    3    3    0    0 -0.24329115549E+01 -0.25010655313E+01  0.27894462201E+01  0.44671464762E+01  0.00000000000E+00 0. -1.
</event>
<event>
 7    1  0.5764931E-013  0.5052886E+02  0.7816164E-02  0.1300439E+00
        -11   -1    0    0    0    0  0.00000000000E+00  0.00000000000E+00  0.45593999997E+02  0.45594000000E+02  0.51100000000E-03 0. -1.
         11   -1    0    0    0    0 -0.00000000000E+00 -0.00000000000E+00 -0.45593999997E+02  0.45594000000E+02  0.51100000000E-03 0.  1.
    9900012    2    1    2    0    0 -0.24661162395E+02  0.31054858054E+02 -0.89771255416E+01  0.50528856841E+02  0.29999990854E+02 0.  0.
         12    1    1    2    0    0  0.24661162395E+02 -0.31054858054E+02  0.89771255416E+01  0.40659143159E+02  0.00000000000E+00 0. -1.
         11    1    3    3    0    0 -0.14778451370E+02  0.28042890985E+02 -0.18395425166E+01  0.31752012166E+02  0.51100000000E-03 0.  1.
        -11    1    3    3    0    0 -0.66547906467E+01  0.65755807586E+01 -0.95744665306E+01  0.13386370325E+02  0.51100000000E-03 0. -1.
         12    1    3    3    0    0 -0.32279203786E+01 -0.35636136895E+01  0.24368835056E+01  0.53904743501E+01  0.00000000000E+00 0. -1.
</event>
<event>
 7    1  0.5764931E-013  0.5052885E+02  0.7816164E-02  0.1300439E+00
        -11   -1    0    0    0    0  0.00000000000E+00  0.00000000000E+00  0.45593999997E+02  0.45594000000E+02  0.51100000000E-03 0.  1.
         11   -1    0    0    0    0 -0.00000000000E+00 -0.00000000000E+00 -0.45593999997E+02  0.45594000000E+02  0.51100000000E-03 0. -1.
    9900012    2    1    2    0    0  0.12342556211E+02 -0.32046392580E+02  0.21768249201E+02  0.50528847961E+02  0.29999963862E+02 0.  0.
         12    1    1    2    0    0 -0.12342556211E+02  0.32046392580E+02 -0.21768249201E+02  0.40659152039E+02  0.00000000000E+00 0. -1.
         11    1    3    3    0    0 -0.25386221142E+01 -0.14577542153E+01 -0.17618188725E+01  0.34166731760E+01  0.51100000000E-03 0. -1.
        -11    1    3    3    0    0  0.16254839679E+01 -0.53285917271E+01  0.16941985686E+02  0.17834432068E+02  0.51100000000E-03 0.  1.
        -12    1    3    3    0    0  0.13255694358E+02 -0.25260046638E+02  0.65880823876E+01  0.29277742717E+02  0.00000000000E+00 0.  1.
</event>
<event>
 7    1  0.5764931E-013  0.5052887E+02  0.7816164E-02  0.1300439E+00
        -11   -1    0    0    0    0  0.00000000000E+00  0.00000000000E+00  0.45593999997E+02  0.45594000000E+02  0.51100000000E-03 0.  1.
         11   -1    0    0    0    0 -0.00000000000E+00 -0.00000000000E+00 -0.45593999997E+02  0.45594000000E+02  0.51100000000E-03 0. -1.
    9900012    2    1    2    0    0  0.15516784517E+02  0.28011463282E+02  0.25054982045E+02  0.50528870617E+02  0.30000032726E+02 0.  0.
         12    1    1    2    0    0 -0.15516784517E+02 -0.28011463282E+02 -0.25054982045E+02  0.40659129383E+02  0.00000000000E+00 0. -1.
         11    1    3    3    0    0 -0.55836338545E+01  0.91626743182E+01  0.17439977982E+01  0.10870744973E+02  0.51100000000E-03 0. -1.
        -11    1    3    3    0    0  0.14076341751E+02  0.25586593256E+01  0.94661966583E+01  0.17155145411E+02  0.51100000000E-03 0.  1.
        -12    1    3    3    0    0  0.70240766204E+01  0.16290129638E+02  0.13844787589E+02  0.22502980233E+02  0.00000000000E+00 0.  1.
</event>
<event>
 7    1  0.5764931E-013  0.5052885E+02  0.7816164E-02  0.1300439E+00
        -11   -1    0    0    0    0  0.00000000000E+00  0.00000000000E+00  0.45593999997E+02  0.45594000000E+02  0.51100000000E-03 0.  1.
         11   -1    0    0    0    0 -0.00000000000E+00 -0.00000000000E+00 -0.45593999997E+02  0.45594000000E+02  0.51100000000E-03 0. -1.
    9900012    2    1    2    0    0 -0.36569859065E+02 -0.18870382104E+01  0.17670622735E+02  0.50528850808E+02  0.29999972515E+02 0.  0.
         12    1    1    2    0    0  0.36569859065E+02  0.18870382104E+01 -0.17670622735E+02  0.40659149192E+02  0.00000000000E+00 0. -1.
         11    1    3    3    0    0 -0.15648536049E+02 -0.58588805656E+01 -0.44457456377E+01  0.17290685830E+02  0.51100000000E-03 0.  1.
        -11    1    3    3    0    0 -0.37134854591E+01  0.33622444579E+01  0.12612260781E+02  0.13570695794E+02  0.51100000000E-03 0. -1.
         12    1    3    3    0    0 -0.17207837557E+02  0.60959789733E+00  0.95041075911E+01  0.19667469183E+02  0.00000000000E+00 0. -1.
</event>
<event>
 7    1  0.5764931E-013  0.5052886E+02  0.7816164E-02  0.1300439E+00
        -11   -1    0    0    0    0  0.00000000000E+00  0.00000000000E+00  0.45593999997E+02  0.45594000000E+02  0.51100000000E-03 0.  1.
         11   -1    0    0    0    0 -0.00000000000E+00 -0.00000000000E+00 -0.45593999997E+02  0.45594000000E+02  0.51100000000E-03 0. -1.
    9900012    2    1    2    0    0 -0.23620224861E+01 -0.40467943092E+02  0.31515657995E+01  0.50528856683E+02  0.29999990373E+02 0.  0.
         12    1    1    2    0    0  0.23620224861E+01  0.40467943092E+02 -0.31515657995E+01  0.40659143317E+02  0.00000000000E+00 0. -1.
         11    1    3    3    0    0  0.86838398572E+01 -0.15157134482E+02 -0.82444968943E+01  0.19316302174E+02  0.51100000000E-03 0. -1.
        -11    1    3    3    0    0 -0.32303291450E+01 -0.41526909998E+01  0.60777387013E+01  0.80385805281E+01  0.51100000000E-03 0.  1.
         12    1    3    3    0    0 -0.78155331982E+01 -0.21158117610E+02  0.53183239925E+01  0.23173973980E+02  0.00000000000E+00 0. -1.
</event>
<event>
 7    1  0.5764931E-013  0.5052888E+02  0.7816164E-02  0.1300439E+00
        -11   -1    0    0    0    0  0.00000000000E+00  0.00000000000E+00  0.45593999997E+02  0.45594000000E+02  0.51100000000E-03 0. -1.
         11   -1    0    0    0    0 -0.00000000000E+00 -0.00000000000E+00 -0.45593999997E+02  0.45594000000E+02  0.51100000000E-03 0.  1.
    9900012    2    1    2    0    0  0.21282155688E+02  0.27571250085E+02  0.20977615773E+02  0.50528876233E+02  0.30000049796E+02 0.  0.
         12    1    1    2    0    0 -0.21282155688E+02 -0.27571250085E+02 -0.20977615773E+02  0.40659123767E+02  0.00000000000E+00 0. -1.
         11    1    3    3    0    0  0.17311946039E+02  0.13867243987E+02  0.20036284344E+02  0.29890744755E+02  0.51100000000E-03 0.  1.
        -11    1    3    3    0    0 -0.49380186501E+01  0.50720717354E+01 -0.29041765456E+01  0.76514169633E+01  0.51100000000E-03 0. -1.
         12    1    3    3    0    0  0.89082282996E+01  0.86319343628E+01  0.38455079744E+01  0.12986714514E+02  0.00000000000E+00 0. -1.
</event>
<event>
 7    1  0.5764931E-013  0.5052876E+02  0.7816164E-02  0.1300439E+00
        -11   -1    0    0    0    0  0.00000000000E+00  0.00000000000E+00  0.45593999997E+02  0.45594000000E+02  0.51100000000E-03 0.  1.
         11   -1    0    0    0    0 -0.00000000000E+00 -0.00000000000E+00 -0.45593999997E+02  0.45594000000E+02  0.51100000000E-03 0. -1.
    9900012    2    1    2    0    0 -0.27219247397E+02 -0.98768524164E+01  0.28543541375E+02  0.50528764927E+02  0.29999711470E+02 0.  0.
         12    1    1    2    0    0  0.27219247397E+02  0.98768524164E+01 -0.28543541375E+02  0.40659235073E+02  0.00000000000E+00 0. -1.
         11    1    3    3    0    0 -0.82571787101E+01 -0.10036798005E+02  0.27607281499E+02  0.30513608545E+02  0.51100000000E-03 0. -1.
        -11    1    3    3    0    0 -0.17124197200E+01 -0.17414393514E+01  0.10554232842E+01  0.26606222734E+01  0.51100000000E-03 0.  1.
         12    1    3    3    0    0 -0.17249648967E+02  0.19013849404E+01 -0.11916340818E+00  0.17354534108E+02  0.00000000000E+00 0. -1.
</event>
<event>
 7    1  0.5764931E-013  0.5052886E+02  0.7816164E-02  0.1300439E+00
        -11   -1    0    0    0    0  0.00000000000E+00  0.00000000000E+00  0.45593999997E+02  0.45594000000E+02  0.51100000000E-03 0.  1.
         11   -1    0    0    0    0 -0.00000000000E+00 -0.00000000000E+00 -0.45593999997E+02  0.45594000000E+02  0.51100000000E-03 0. -1.
    9900012    2    1    2    0    0 -0.10617846033E+02  0.76019603261E+01  0.38505023318E+02  0.50528864792E+02  0.30000015021E+02 0.  0.
         12    1    1    2    0    0  0.10617846033E+02 -0.76019603261E+01 -0.38505023318E+02  0.40659135208E+02  0.00000000000E+00 0. -1.
         11    1    3    3    0    0  0.25445338281E+01 -0.78923654024E+01  0.17337490960E+02  0.19218550338E+02  0.51100000000E-03 0. -1.
        -11    1    3    3    0    0 -0.91824420663E+01  0.15428181191E+02  0.12816678800E+02  0.22059312611E+02  0.51100000000E-03 0.  1.
         12    1    3    3    0    0 -0.39799377949E+01  0.66144537835E-01  0.83508535580E+01  0.92510018430E+01  0.00000000000E+00 0. -1.
</event>
<event>
 7    1  0.5764931E-013  0.5052887E+02  0.7816164E-02  0.1300439E+00
        -11   -1    0    0    0    0  0.00000000000E+00  0.00000000000E+00  0.45593999997E+02  0.45594000000E+02  0.51100000000E-03 0.  1.
         11   -1    0    0    0    0 -0.00000000000E+00 -0.00000000000E+00 -0.45593999997E+02  0.45594000000E+02  0.51100000000E-03 0. -1.
    9900012    2    1    2    0    0  0.74539062712E+01 -0.39201675978E+02  0.77995589023E+01  0.50528865267E+02  0.30000016466E+02 0.  0.
         12    1    1    2    0    0 -0.74539062712E+01  0.39201675978E+02 -0.77995589023E+01  0.40659134733E+02  0.00000000000E+00 0. -1.
         11    1    3    3    0    0  0.11574360935E+01 -0.20813987448E+02  0.72175020235E+00  0.20858635032E+02  0.51100000000E-03 0. -1.
        -11    1    3    3    0    0 -0.36445101322E+01 -0.44396672393E+01  0.10717539386E+02  0.12159718338E+02  0.51100000000E-03 0.  1.
        -12    1    3    3    0    0  0.99409803099E+01 -0.13948021291E+02 -0.36397306861E+01  0.17510511898E+02  0.00000000000E+00 0.  1.
</event>
<event>
 7    1  0.5764931E-013  0.5052890E+02  0.7816164E-02  0.1300439E+00
        -11   -1    0    0    0    0  0.00000000000E+00  0.00000000000E+00  0.45593999997E+02  0.45594000000E+02  0.51100000000E-03 0.  1.
         11   -1    0    0    0    0 -0.00000000000E+00 -0.00000000000E+00 -0.45593999997E+02  0.45594000000E+02  0.51100000000E-03 0. -1.
    9900012    2    1    2    0    0  0.79839453546E+01 -0.32698760166E+02  0.22808107446E+02  0.50528904276E+02  0.30000135036E+02 0.  0.
         12    1    1    2    0    0 -0.79839453546E+01  0.32698760166E+02 -0.22808107446E+02  0.40659095724E+02  0.00000000000E+00 0. -1.
         11    1    3    3    0    0  0.99283211693E+01 -0.15811882867E+01 -0.17747338474E+01  0.10208888193E+02  0.51100000000E-03 0. -1.
        -11    1    3    3    0    0 -0.27746938966E+01 -0.26000656701E+02  0.23195476878E+02  0.34953729744E+02  0.51100000000E-03 0.  1.
        -12    1    3    3    0    0  0.83031808182E+00 -0.51169151781E+01  0.13873644156E+01  0.53662863396E+01  0.00000000000E+00 0.  1.
</event>
<event>
 7    1  0.5764931E-013  0.5052886E+02  0.7816164E-02  0.1300439E+00
        -11   -1    0    0    0    0  0.00000000000E+00  0.00000000000E+00  0.45593999997E+02  0.45594000000E+02  0.51100000000E-03 0.  1.
         11   -1    0    0    0    0 -0.00000000000E+00 -0.00000000000E+00 -0.45593999997E+02  0.45594000000E+02  0.51100000000E-03 0. -1.
    9900012    2    1    2    0    0 -0.11199244681E+02 -0.22414995775E+02  0.32020474432E+02  0.50528857118E+02  0.29999991697E+02 0.  0.
         12    1    1    2    0    0  0.11199244681E+02  0.22414995775E+02 -0.32020474432E+02  0.40659142882E+02  0.00000000000E+00 0. -1.
         11    1    3    3    0    0  0.78529364567E+01 -0.94858419013E+01  0.14768178932E+02  0.19228856357E+02  0.51100000000E-03 0. -1.
        -11    1    3    3    0    0 -0.49486785903E+01 -0.10326096140E+02  0.10124286598E+02  0.15284595534E+02  0.51100000000E-03 0.  1.
         12    1    3    3    0    0 -0.14103502547E+02 -0.26030577343E+01  0.71280089022E+01  0.16015405227E+02  0.00000000000E+00 0. -1.
</event>
<event>
 7    1  0.5764931E-013  0.5052886E+02  0.7816164E-02  0.1300439E+00
        -11   -1    0    0    0    0  0.00000000000E+00  0.00000000000E+00  0.45593999997E+02  0.45594000000E+02  0.51100000000E-03 0. -1.
         11   -1    0    0    0    0 -0.00000000000E+00 -0.00000000000E+00 -0.45593999997E+02  0.45594000000E+02  0.51100000000E-03 0.  1.
    9900012    2    1    2    0    0 -0.20261542584E+02 -0.24039969278E+02 -0.25782078444E+02  0.50528858351E+02  0.29999995443E+02 0.  0.
         12    1    1    2    0    0  0.20261542584E+02  0.24039969278E+02  0.25782078444E+02  0.40659141649E+02  0.00000000000E+00 0. -1.
         11    1    3    3    0    0  0.52520425620E+00 -0.15026850860E+02 -0.27062415290E+01  0.15277625134E+02  0.51100000000E-03 0. -1.
        -11    1    3    3    0    0 -0.19178478652E+02 -0.55687359729E+01 -0.11450993850E+02  0.23020645607E+02  0.51100000000E-03 0.  1.
         12    1    3    3    0    0 -0.16082681889E+01 -0.34443824451E+01 -0.11624843065E+02  0.12230587610E+02  0.00000000000E+00 0. -1.
</event>
<event>
 7    1  0.5764931E-013  0.5052886E+02  0.7816164E-02  0.1300439E+00
        -11   -1    0    0    0    0  0.00000000000E+00  0.00000000000E+00  0.45593999997E+02  0.45594000000E+02  0.51100000000E-03 0.  1.
         11   -1    0    0    0    0 -0.00000000000E+00 -0.00000000000E+00 -0.45593999997E+02  0.45594000000E+02  0.51100000000E-03 0. -1.
    9900012    2    1    2    0    0  0.27825243965E+02 -0.28556346372E+02  0.79659748025E+01  0.50528857432E+02  0.29999992649E+02 0.  0.
         12    1    1    2    0    0 -0.27825243965E+02  0.28556346372E+02 -0.79659748025E+01  0.40659142568E+02  0.00000000000E+00 0. -1.
         11    1    3    3    0    0  0.10381532126E+01  0.10952139252E+00 -0.23492131311E+01  0.25707118907E+01  0.51100000000E-03 0. -1.
        -11    1    3    3    0    0  0.31638395337E+02 -0.27211174118E+02  0.98117240102E+01  0.42868473086E+02  0.51100000000E-03 0.  1.
        -12    1    3    3    0    0 -0.48513045847E+01 -0.14546936467E+01  0.50346392347E+00  0.50896724552E+01  0.00000000000E+00 0.  1.
</event>
<event>
 7    1  0.5764931E-013  0.5052886E+02  0.7816164E-02  0.1300439E+00
        -11   -1    0    0    0    0  0.00000000000E+00  0.00000000000E+00  0.45593999997E+02  0.45594000000E+02  0.51100000000E-03 0.  1.
         11   -1    0    0    0    0 -0.00000000000E+00 -0.00000000000E+00 -0.45593999997E+02  0.45594000000E+02  0.51100000000E-03 0. -1.
    9900012    2    1    2    0    0  0.61546291161E+01  0.13295581973E+02  0.37927739995E+02  0.50528863011E+02  0.30000009609E+02 0.  0.
         12    1    1    2    0    0 -0.61546291161E+01 -0.13295581973E+02 -0.37927739995E+02  0.40659136989E+02  0.00000000000E+00 0. -1.
         11    1    3    3    0    0 -0.10763890460E+02  0.21872340726E+01  0.11552893276E+02  0.15940974689E+02  0.51100000000E-03 0. -1.
        -11    1    3    3    0    0  0.11817943592E+02  0.85753022674E+01  0.11269133030E+02  0.18444320514E+02  0.51100000000E-03 0.  1.
         12    1    3    3    0    0  0.51005759838E+01  0.25330456325E+01  0.15105713689E+02  0.16143567808E+02  0.00000000000E+00 0. -1.
</event>
<event>
 7    1  0.5764931E-013  0.5052886E+02  0.7816164E-02  0.1300439E+00
        -11   -1    0    0    0    0  0.00000000000E+00  0.00000000000E+00  0.45593999997E+02  0.45594000000E+02  0.51100000000E-03 0.  1.
         11   -1    0    0    0    0 -0.00000000000E+00 -0.00000000000E+00 -0.45593999997E+02  0.45594000000E+02  0.51100000000E-03 0. -1.
    9900012    2    1    2    0    0 -0.39006093750E+02  0.65415345270E+01  0.94286155940E+01  0.50528858155E+02  0.29999994847E+02 0.  0.
         12    1    1    2    0    0  0.39006093750E+02 -0.65415345270E+01 -0.94286155940E+01  0.40659141845E+02  0.00000000000E+00 0. -1.
         11    1    3    3    0    0 -0.21150190939E+02 -0.44174809852E+01  0.31346894500E+01  0.21832796276E+02  0.51100000000E-03 0. -1.
        -11    1    3    3    0    0 -0.13126741035E+02  0.16221336291E+02  0.54761779050E+01  0.21573863955E+02  0.51100000000E-03 0.  1.
        -12    1    3    3    0    0 -0.47291617756E+01 -0.52623207786E+01  0.81774823902E+00  0.71221979234E+01  0.00000000000E+00 0.  1.
</event>
<event>
 7    1  0.5764931E-013  0.5052885E+02  0.7816164E-02  0.1300439E+00
        -11   -1    0    0    0    0  0.00000000000E+00  0.00000000000E+00  0.45593999997E+02  0.45594000000E+02  0.51100000000E-03 0.  1.
         11   -1    0    0    0    0 -0.00000000000E+00 -0.00000000000E+00 -0.45593999997E+02  0.45594000000E+02  0.51100000000E-03 0. -1.
    9900012    2    1    2    0    0 -0.19784671762E+02  0.28613464920E+02  0.21047631284E+02  0.50528851040E+02  0.29999973221E+02 0.  0.
         12    1    1    2    0    0  0.19784671762E+02 -0.28613464920E+02 -0.21047631284E+02  0.40659148960E+02  0.00000000000E+00 0. -1.
         11    1    3    3    0    0  0.28226035885E+01  0.15853139795E+02  0.48683774116E+01  0.16822313493E+02  0.51100000000E-03 0. -1.
        -11    1    3    3    0    0 -0.19599951520E+02  0.12836316202E+02  0.76250781846E+01  0.24638809443E+02  0.51100000000E-03 0.  1.
         12    1    3    3    0    0 -0.30073238312E+01 -0.75991076270E-01  0.85541756879E+01  0.90677281040E+01  0.00000000000E+00 0. -1.
</event>
<event>
 7    1  0.5764931E-013  0.5052886E+02  0.7816164E-02  0.1300439E+00
        -11   -1    0    0    0    0  0.00000000000E+00  0.00000000000E+00  0.45593999997E+02  0.45594000000E+02  0.51100000000E-03 0.  1.
         11   -1    0    0    0    0 -0.00000000000E+00 -0.00000000000E+00 -0.45593999997E+02  0.45594000000E+02  0.51100000000E-03 0. -1.
    9900012    2    1    2    0    0 -0.24356891060E+02  0.29647463617E+02  0.13451218642E+02  0.50528861741E+02  0.30000005748E+02 0.  0.
         12    1    1    2    0    0  0.24356891060E+02 -0.29647463617E+02 -0.13451218642E+02  0.40659138259E+02  0.00000000000E+00 0. -1.
         11    1    3    3    0    0 -0.93788356456E+01  0.14289331056E+02 -0.82090338524E+01  0.18961428668E+02  0.51100000000E-03 0. -1.
        -11    1    3    3    0    0 -0.12011384263E+02  0.15027198296E+02  0.21057586397E+02  0.28522131506E+02  0.51100000000E-03 0.  1.
         12    1    3    3    0    0 -0.29666711510E+01  0.33093426512E+00  0.60266609673E+00  0.30453015664E+01  0.00000000000E+00 0. -1.
</event>
<event>
 7    1  0.5764931E-013  0.5052886E+02  0.7816164E-02  0.1300439E+00
        -11   -1    0    0    0    0  0.00000000000E+00  0.00000000000E+00  0.45593999997E+02  0.45594000000E+02  0.51100000000E-03 0.  1.
         11   -1    0    0    0    0 -0.00000000000E+00 -0.00000000000E+00 -0.45593999997E+02  0.45594000000E+02  0.51100000000E-03 0. -1.
    9900012    2    1    2    0    0 -0.26911524718E+02 -0.17864346666E+02  0.24694141828E+02  0.50528859760E+02  0.29999999725E+02 0.  0.
         12    1    1    2    0    0  0.26911524718E+02  0.17864346666E+02 -0.24694141828E+02  0.40659140240E+02  0.00000000000E+00 0. -1.
         11    1    3    3    0    0 -0.60839132698E+01 -0.16155233585E+02  0.10481145926E+02  0.20195543891E+02  0.51100000000E-03 0. -1.
        -11    1    3    3    0    0 -0.22677072916E+02 -0.28830717712E+01  0.88018850535E+01  0.24495610212E+02  0.51100000000E-03 0.  1.
         12    1    3    3    0    0  0.18494614679E+01  0.11739586898E+01  0.54111108481E+01  0.58377056569E+01  0.00000000000E+00 0. -1.
</event>
<event>
 7    1  0.5764931E-013  0.5052885E+02  0.7816164E-02  0.1300439E+00
        -11   -1    0    0    0    0  0.00000000000E+00  0.00000000000E+00  0.45593999997E+02  0.45594000000E+02  0.51100000000E-03 0.  1.
         11   -1    0    0    0    0 -0.00000000000E+00 -0.00000000000E+00 -0.45593999997E+02  0.45594000000E+02  0.51100000000E-03 0. -1.
    9900012    2    1    2    0    0 -0.12385686536E+01 -0.11696183798E+02  0.38920842852E+02  0.50528846344E+02  0.29999958947E+02 0.  0.
         12    1    1    2    0    0  0.12385686536E+01  0.11696183798E+02 -0.38920842852E+02  0.40659153656E+02  0.00000000000E+00 0. -1.
         11    1    3    3    0    0 -0.30171087709E+01 -0.81508921857E+01  0.36450673713E-01  0.86914508381E+01  0.51100000000E-03 0. -1.
        -11    1    3    3    0    0  0.76155316564E+01 -0.23883240735E+01  0.30686978140E+02  0.31707901884E+02  0.51100000000E-03 0.  1.
        -12    1    3    3    0    0 -0.58369915391E+01 -0.11569675390E+01  0.81974140384E+01  0.10129493622E+02  0.00000000000E+00 0.  1.
</event>
<event>
 7    1  0.5764931E-013  0.5052886E+02  0.7816164E-02  0.1300439E+00
        -11   -1    0    0    0    0  0.00000000000E+00  0.00000000000E+00  0.45593999997E+02  0.45594000000E+02  0.51100000000E-03 0.  1.
         11   -1    0    0    0    0 -0.00000000000E+00 -0.00000000000E+00 -0.45593999997E+02  0.45594000000E+02  0.51100000000E-03 0. -1.
    9900012    2    1    2    0    0  0.24021228667E+01 -0.54171926287E+01  0.40224984409E+02  0.50528861532E+02  0.30000005113E+02 0.  0.
         12    1    1    2    0    0 -0.24021228667E+01  0.54171926287E+01 -0.40224984409E+02  0.40659138468E+02  0.00000000000E+00 0. -1.
         11    1    3    3    0    0 -0.59524730979E+01 -0.15263659386E+02  0.16818321976E+02  0.23479079799E+02  0.51100000000E-03 0. -1.
        -11    1    3    3    0    0  0.64718821019E+01  0.44822453736E+01  0.13478190861E+02  0.15608888836E+02  0.51100000000E-03 0.  1.
         12    1    3    3    0    0  0.18827138627E+01  0.53642213840E+01  0.99284715716E+01  0.11440892898E+02  0.00000000000E+00 0. -1.
</event>
<event>
 7    1  0.5764931E-013  0.5052886E+02  0.7816164E-02  0.1300439E+00
        -11   -1    0    0    0    0  0.00000000000E+00  0.00000000000E+00  0.45593999997E+02  0.45594000000E+02  0.51100000000E-03 0. -1.
         11   -1    0    0    0    0 -0.00000000000E+00 -0.00000000000E+00 -0.45593999997E+02  0.45594000000E+02  0.51100000000E-03 0.  1.
    9900012    2    1    2    0    0  0.61449541723E+01 -0.25028889454E+02  0.31447736268E+02  0.50528857295E+02  0.29999992235E+02 0.  0.
         12    1    1    2    0    0 -0.61449541723E+01  0.25028889454E+02 -0.31447736268E+02  0.40659142705E+02  0.00000000000E+00 0. -1.
         11    1    3    3    0    0  0.36773314371E+01 -0.75214514539E+00 -0.29631857480E+01  0.47821500245E+01  0.51100000000E-03 0. -1.
        -11    1    3    3    0    0 -0.46085519805E+01 -0.22059293274E+02  0.23546136184E+02  0.32592509885E+02  0.51100000000E-03 0.  1.
         12    1    3    3    0    0  0.70761747156E+01 -0.22174510341E+01  0.10864785832E+02  0.13154197386E+02  0.00000000000E+00 0. -1.
</event>
<event>
 7    1  0.5764931E-013  0.5052887E+02  0.7816164E-02  0.1300439E+00
        -11   -1    0    0    0    0  0.00000000000E+00  0.00000000000E+00  0.45593999997E+02  0.45594000000E+02  0.51100000000E-03 0. -1.
         11   -1    0    0    0    0 -0.00000000000E+00 -0.00000000000E+00 -0.45593999997E+02  0.45594000000E+02  0.51100000000E-03 0.  1.
    9900012    2    1    2    0    0  0.28307880837E+02  0.82658581932E+00 -0.29174400199E+02  0.50528868325E+02  0.30000025761E+02 0.  0.
         12    1    1    2    0    0 -0.28307880837E+02 -0.82658581932E+00  0.29174400199E+02  0.40659131675E+02  0.00000000000E+00 0. -1.
         11    1    3    3    0    0  0.23418922767E+02 -0.37059269156E+01 -0.12938327520E+02  0.27010741514E+02  0.51100000000E-03 0.  1.
        -11    1    3    3    0    0 -0.31974378626E+01  0.73755622491E+01 -0.10415986833E+02  0.13157329111E+02  0.51100000000E-03 0. -1.
         12    1    3    3    0    0  0.80863959322E+01 -0.28430495142E+01 -0.58200858462E+01  0.10360797700E+02  0.00000000000E+00 0. -1.
</event>
<event>
 7    1  0.5764931E-013  0.5052884E+02  0.7816164E-02  0.1300439E+00
        -11   -1    0    0    0    0  0.00000000000E+00  0.00000000000E+00  0.45593999997E+02  0.45594000000E+02  0.51100000000E-03 0. -1.
         11   -1    0    0    0    0 -0.00000000000E+00 -0.00000000000E+00 -0.45593999997E+02  0.45594000000E+02  0.51100000000E-03 0.  1.
    9900012    2    1    2    0    0 -0.11030841769E+02 -0.38145566183E+02 -0.87409151321E+01  0.50528840061E+02  0.29999939850E+02 0.  0.
         12    1    1    2    0    0  0.11030841769E+02  0.38145566183E+02  0.87409151321E+01  0.40659159939E+02  0.00000000000E+00 0. -1.
         11    1    3    3    0    0  0.41413837334E+01  0.24749787622E+01 -0.82771833082E-01  0.48252907206E+01  0.51100000000E-03 0. -1.
        -11    1    3    3    0    0 -0.14742393178E+02 -0.23495893273E+02 -0.49347379653E+01  0.28173512318E+02  0.51100000000E-03 0.  1.
         12    1    3    3    0    0 -0.42983232467E+00 -0.17124651673E+02 -0.37234053337E+01  0.17530037023E+02  0.00000000000E+00 0. -1.
</event>
<event>
 7    1  0.5764931E-013  0.5052886E+02  0.7816164E-02  0.1300439E+00
        -11   -1    0    0    0    0  0.00000000000E+00  0.00000000000E+00  0.45593999997E+02  0.45594000000E+02  0.51100000000E-03 0. -1.
         11   -1    0    0    0    0 -0.00000000000E+00 -0.00000000000E+00 -0.45593999997E+02  0.45594000000E+02  0.51100000000E-03 0.  1.
    9900012    2    1    2    0    0  0.39123475367E+02 -0.20527501712E+01 -0.10876834471E+02  0.50528860361E+02  0.30000001554E+02 0.  0.
         12    1    1    2    0    0 -0.39123475367E+02  0.20527501712E+01  0.10876834471E+02  0.40659139639E+02  0.00000000000E+00 0. -1.
         11    1    3    3    0    0  0.12364801985E+02  0.70275181310E+01 -0.13262229363E+02  0.19446363854E+02  0.51100000000E-03 0.  1.
        -11    1    3    3    0    0  0.17436493952E+02 -0.10015535858E+01  0.55888599335E+01  0.18337660335E+02  0.51100000000E-03 0. -1.
         12    1    3    3    0    0  0.93221794299E+01 -0.80787147164E+01 -0.32034650406E+01  0.12744836172E+02  0.00000000000E+00 0. -1.
</event>
<event>
 7    1  0.5764931E-013  0.5052886E+02  0.7816164E-02  0.1300439E+00
        -11   -1    0    0    0    0  0.00000000000E+00  0.00000000000E+00  0.45593999997E+02  0.45594000000E+02  0.51100000000E-03 0.  1.
         11   -1    0    0    0    0 -0.00000000000E+00 -0.00000000000E+00 -0.45593999997E+02  0.45594000000E+02  0.51100000000E-03 0. -1.
    9900012    2    1    2    0    0  0.32742267014E+02 -0.47907128094E+01  0.23625380307E+02  0.50528861137E+02  0.30000003911E+02 0.  0.
         12    1    1    2    0    0 -0.32742267014E+02  0.47907128094E+01 -0.23625380307E+02  0.40659138863E+02  0.00000000000E+00 0. -1.
         11    1    3    3    0    0  0.47674975744E+01 -0.15829772216E+01  0.12155141305E+01  0.51683967406E+01  0.51100000000E-03 0. -1.
        -11    1    3    3    0    0  0.15650287250E+02  0.87852485980E+01  0.11053130379E+01  0.17981484953E+02  0.51100000000E-03 0.  1.
        -12    1    3    3    0    0  0.12324482190E+02 -0.11992984186E+02  0.21304553139E+02  0.27378979444E+02  0.00000000000E+00 0.  1.
</event>
<event>
 7    1  0.5764931E-013  0.5052886E+02  0.7816164E-02  0.1300439E+00
        -11   -1    0    0    0    0  0.00000000000E+00  0.00000000000E+00  0.45593999997E+02  0.45594000000E+02  0.51100000000E-03 0. -1.
         11   -1    0    0    0    0 -0.00000000000E+00 -0.00000000000E+00 -0.45593999997E+02  0.45594000000E+02  0.51100000000E-03 0.  1.
    9900012    2    1    2    0    0 -0.28764821675E+02  0.23892277947E+02  0.15965886138E+02  0.50528862876E+02  0.30000009198E+02 0.  0.
         12    1    1    2    0    0  0.28764821675E+02 -0.23892277947E+02 -0.15965886138E+02  0.40659137124E+02  0.00000000000E+00 0. -1.
         11    1    3    3    0    0 -0.30065433345E+02  0.16357509903E+02  0.14295014455E+02  0.37092396134E+02  0.51100000000E-03 0. -1.
        -11    1    3    3    0    0  0.60918099891E+01  0.48930056267E+01  0.42463503485E+00  0.78250858257E+01  0.51100000000E-03 0.  1.
        -12    1    3    3    0    0 -0.47911983199E+01  0.26417624170E+01  0.12462366478E+01  0.56113809166E+01  0.00000000000E+00 0.  1.
</event>
<event>
 7    1  0.5764931E-013  0.5052887E+02  0.7816164E-02  0.1300439E+00
        -11   -1    0    0    0    0  0.00000000000E+00  0.00000000000E+00  0.45593999997E+02  0.45594000000E+02  0.51100000000E-03 0.  1.
         11   -1    0    0    0    0 -0.00000000000E+00 -0.00000000000E+00 -0.45593999997E+02  0.45594000000E+02  0.51100000000E-03 0. -1.
    9900012    2    1    2    0    0 -0.20629795511E+02 -0.20379174590E+02  0.28500280544E+02  0.50528865591E+02  0.30000017452E+02 0.  0.
         12    1    1    2    0    0  0.20629795511E+02  0.20379174590E+02 -0.28500280544E+02  0.40659134409E+02  0.00000000000E+00 0. -1.
         11    1    3    3    0    0 -0.20948142217E+01  0.47343017991E+01  0.78047495225E+01  0.93656807290E+01  0.51100000000E-03 0. -1.
        -11    1    3    3    0    0 -0.15839772620E+02 -0.95892568452E+01  0.16636589411E+02  0.24892335186E+02  0.51100000000E-03 0.  1.
         12    1    3    3    0    0 -0.26952086686E+01 -0.15524219544E+02  0.40589416103E+01  0.16270849677E+02  0.00000000000E+00 0. -1.
</event>
<event>
 7    1  0.5764931E-013  0.5052887E+02  0.7816164E-02  0.1300439E+00
        -11   -1    0    0    0    0  0.00000000000E+00  0.00000000000E+00  0.45593999997E+02  0.45594000000E+02  0.51100000000E-03 0.  1.
         11   -1    0    0    0    0 -0.00000000000E+00 -0.00000000000E+00 -0.45593999997E+02  0.45594000000E+02  0.51100000000E-03 0. -1.
    9900012    2    1    2    0    0 -0.37660707460E+02 -0.15092165376E+02 -0.26575875893E+01  0.50528866783E+02  0.30000021074E+02 0.  0.
         12    1    1    2    0    0  0.37660707460E+02  0.15092165376E+02  0.26575875893E+01  0.40659133217E+02  0.00000000000E+00 0. -1.
         11    1    3    3    0    0  0.23081641306E+01 -0.44162278394E+01 -0.54543810663E+01  0.73878930055E+01  0.51100000000E-03 0. -1.
        -11    1    3    3    0    0 -0.19031926524E+02  0.48578047510E+00 -0.12192942103E+01  0.19077129986E+02  0.51100000000E-03 0.  1.
         12    1    3    3    0    0 -0.20936945067E+02 -0.11161718012E+02  0.40160876873E+01  0.24063843792E+02  0.00000000000E+00 0. -1.
</event>
<event>
 7    1  0.5764931E-013  0.5052885E+02  0.7816164E-02  0.1300439E+00
        -11   -1    0    0    0    0  0.00000000000E+00  0.00000000000E+00  0.45593999997E+02  0.45594000000E+02  0.51100000000E-03 0. -1.
         11   -1    0    0    0    0 -0.00000000000E+00 -0.00000000000E+00 -0.45593999997E+02  0.45594000000E+02  0.51100000000E-03 0.  1.
    9900012    2    1    2    0    0  0.40460100819E+02 -0.39941621821E+00 -0.39984270935E+01  0.50528847146E+02  0.29999961384E+02 0.  0.
         12    1    1    2    0    0 -0.40460100819E+02  0.39941621821E+00  0.39984270935E+01  0.40659152854E+02  0.00000000000E+00 0. -1.
         11    1    3    3    0    0  0.23312739344E+02  0.12402368257E+02 -0.76234847054E+01  0.27484906283E+02  0.51100000000E-03 0. -1.
        -11    1    3    3    0    0  0.85472794543E+01 -0.11061252429E+02  0.24309993375E+01  0.14188623943E+02  0.51100000000E-03 0.  1.
         12    1    3    3    0    0  0.86000820210E+01 -0.17405320462E+01  0.11940582744E+01  0.88553169190E+01  0.00000000000E+00 0. -1.
</event>
<event>
 7    1  0.5764931E-013  0.5052886E+02  0.7816164E-02  0.1300439E+00
        -11   -1    0    0    0    0  0.00000000000E+00  0.00000000000E+00  0.45593999997E+02  0.45594000000E+02  0.51100000000E-03 0.  1.
         11   -1    0    0    0    0 -0.00000000000E+00 -0.00000000000E+00 -0.45593999997E+02  0.45594000000E+02  0.51100000000E-03 0. -1.
    9900012    2    1    2    0    0  0.23116878557E+02  0.69051659322E+01  0.32727572896E+02  0.50528863039E+02  0.30000009693E+02 0.  0.
         12    1    1    2    0    0 -0.23116878557E+02 -0.69051659322E+01 -0.32727572896E+02  0.40659136961E+02  0.00000000000E+00 0. -1.
         11    1    3    3    0    0  0.47140983354E+01  0.34965721935E+01  0.43040454847E+00  0.58850648728E+01  0.51100000000E-03 0. -1.
        -11    1    3    3    0    0  0.14852301570E+02 -0.92017571239E+01  0.21223449995E+02  0.27489962277E+02  0.51100000000E-03 0.  1.
        -12    1    3    3    0    0  0.35504786519E+01  0.12610350863E+02  0.11073718353E+02  0.17153835889E+02  0.00000000000E+00 0.  1.
</event>
<event>
 7    1  0.5764931E-013  0.5052884E+02  0.7816164E-02  0.1300439E+00
        -11   -1    0    0    0    0  0.00000000000E+00  0.00000000000E+00  0.45593999997E+02  0.45594000000E+02  0.51100000000E-03 0.  1.
         11   -1    0    0    0    0 -0.00000000000E+00 -0.00000000000E+00 -0.45593999997E+02  0.45594000000E+02  0.51100000000E-03 0. -1.
    9900012    2    1    2    0    0  0.20505250458E+02 -0.33346604757E+02  0.10986610350E+02  0.50528844178E+02  0.29999952363E+02 0.  0.
         12    1    1    2    0    0 -0.20505250458E+02  0.33346604757E+02 -0.10986610350E+02  0.40659155822E+02  0.00000000000E+00 0. -1.
         11    1    3    3    0    0 -0.46553883050E+01 -0.16062725216E+02  0.29039690438E+01  0.16974004186E+02  0.51100000000E-03 0. -1.
        -11    1    3    3    0    0  0.81890502821E+01 -0.99546614110E+01  0.77995147513E+01  0.15066129528E+02  0.51100000000E-03 0.  1.
         12    1    3    3    0    0  0.16971588481E+02 -0.73292181299E+01  0.28312655507E+00  0.18488710464E+02  0.00000000000E+00 0. -1.
</event>
<event>
 7    1  0.5764931E-013  0.5052887E+02  0.7816164E-02  0.1300439E+00
        -11   -1    0    0    0    0  0.00000000000E+00  0.00000000000E+00  0.45593999997E+02  0.45594000000E+02  0.51100000000E-03 0. -1.
         11   -1    0    0    0    0 -0.00000000000E+00 -0.00000000000E+00 -0.45593999997E+02  0.45594000000E+02  0.51100000000E-03 0.  1.
    9900012    2    1    2    0    0  0.33490243567E+02 -0.20273535310E+02  0.10979644400E+02  0.50528865241E+02  0.30000016388E+02 0.  0.
         12    1    1    2    0    0 -0.33490243567E+02  0.20273535310E+02 -0.10979644400E+02  0.40659134759E+02  0.00000000000E+00 0. -1.
         11    1    3    3    0    0  0.14096157530E+02 -0.21189332011E+01  0.17987040467E+02  0.22950493678E+02  0.51100000000E-03 0. -1.
        -11    1    3    3    0    0  0.14036615329E+02 -0.11694473962E+02 -0.51653462385E+01  0.18985997292E+02  0.51100000000E-03 0.  1.
         12    1    3    3    0    0  0.53574707079E+01 -0.64601281465E+01 -0.18420498284E+01  0.85923742717E+01  0.00000000000E+00 0. -1.
</event>
<event>
 7    1  0.5764931E-013  0.5052886E+02  0.7816164E-02  0.1300439E+00
        -11   -1    0    0    0    0  0.00000000000E+00  0.00000000000E+00  0.45593999997E+02  0.45594000000E+02  0.51100000000E-03 0. -1.
         11   -1    0    0    0    0 -0.00000000000E+00 -0.00000000000E+00 -0.45593999997E+02  0.45594000000E+02  0.51100000000E-03 0.  1.
    9900012    2    1    2    0    0 -0.24898148484E+02  0.29744213869E+02 -0.12187279294E+02  0.50528857938E+02  0.29999994190E+02 0.  0.
         12    1    1    2    0    0  0.24898148484E+02 -0.29744213869E+02  0.12187279294E+02  0.40659142062E+02  0.00000000000E+00 0. -1.
         11    1    3    3    0    0 -0.40528525564E+01 -0.39079644066E+01 -0.58200876052E+01  0.80976057968E+01  0.51100000000E-03 0. -1.
        -11    1    3    3    0    0 -0.10317123439E+02  0.21311178859E+02 -0.10171377906E+02  0.25769484069E+02  0.51100000000E-03 0.  1.
         12    1    3    3    0    0 -0.10528172488E+02  0.12340999416E+02  0.38041862167E+01  0.16661768073E+02  0.00000000000E+00 0. -1.
</event>
<event>
 7    1  0.5764931E-013  0.5052886E+02  0.7816164E-02  0.1300439E+00
        -11   -1    0    0    0    0  0.00000000000E+00  0.00000000000E+00  0.45593999997E+02  0.45594000000E+02  0.51100000000E-03 0.  1.
         11   -1    0    0    0    0 -0.00000000000E+00 -0.00000000000E+00 -0.45593999997E+02  0.45594000000E+02  0.51100000000E-03 0. -1.
    9900012    2    1    2    0    0 -0.34770506254E+02  0.11252864697E+02  0.17819952284E+02  0.50528858734E+02  0.29999996609E+02 0.  0.
         12    1    1    2    0    0  0.34770506254E+02 -0.11252864697E+02 -0.17819952284E+02  0.40659141266E+02  0.00000000000E+00 0. -1.
         11    1    3    3    0    0 -0.32331415110E+02  0.17767803921E+02  0.10562420812E+02  0.38374209997E+02  0.51100000000E-03 0. -1.
        -11    1    3    3    0    0 -0.46360633682E+01 -0.28207040891E+01  0.36141535748E+01  0.65200890666E+01  0.51100000000E-03 0.  1.
         12    1    3    3    0    0  0.21969722238E+01 -0.36942351353E+01  0.36433778971E+01  0.56345596712E+01  0.00000000000E+00 0. -1.
</event>
<event>
 7    1  0.5764931E-013  0.5052886E+02  0.7816164E-02  0.1300439E+00
        -11   -1    0    0    0    0  0.00000000000E+00  0.00000000000E+00  0.45593999997E+02  0.45594000000E+02  0.51100000000E-03 0.  1.
         11   -1    0    0    0    0 -0.00000000000E+00 -0.00000000000E+00 -0.45593999997E+02  0.45594000000E+02  0.51100000000E-03 0. -1.
    9900012    2    1    2    0    0  0.40386502850E+02  0.30459156156E+01 -0.35803047754E+01  0.50528858388E+02  0.29999995556E+02 0.  0.
         12    1    1    2    0    0 -0.40386502850E+02 -0.30459156156E+01  0.35803047754E+01  0.40659141612E+02  0.00000000000E+00 0. -1.
         11    1    3    3    0    0  0.77074698805E+01  0.10107822886E+02 -0.39416533380E+01  0.13308260847E+02  0.51100000000E-03 0. -1.
        -11    1    3    3    0    0  0.24156420957E+02 -0.86515639335E+01  0.66543826019E+01  0.26507792062E+02  0.51100000000E-03 0.  1.
         12    1    3    3    0    0  0.85226120125E+01  0.15896566627E+01 -0.62930340393E+01  0.10712805479E+02  0.00000000000E+00 0. -1.
</event>
<event>
 7    1  0.5764931E-013  0.5052887E+02  0.7816164E-02  0.1300439E+00
        -11   -1    0    0    0    0  0.00000000000E+00  0.00000000000E+00  0.45593999997E+02  0.45594000000E+02  0.51100000000E-03 0.  1.
         11   -1    0    0    0    0 -0.00000000000E+00 -0.00000000000E+00 -0.45593999997E+02  0.45594000000E+02  0.51100000000E-03 0. -1.
    9900012    2    1    2    0    0 -0.13415354255E+02 -0.12498903365E+02  0.36290086922E+02  0.50528871580E+02  0.30000035654E+02 0.  0.
         12    1    1    2    0    0  0.13415354255E+02  0.12498903365E+02 -0.36290086922E+02  0.40659128420E+02  0.00000000000E+00 0. -1.
         11    1    3    3    0    0 -0.19402059577E+02 -0.60258657723E+01  0.12504484995E+02  0.23856091872E+02  0.51100000000E-03 0. -1.
        -11    1    3    3    0    0  0.68430058199E+01 -0.35762404079E+01  0.10413203172E+02  0.12963449567E+02  0.51100000000E-03 0.  1.
         12    1    3    3    0    0 -0.85630049718E+00 -0.28967971848E+01  0.13372398754E+02  0.13709330141E+02  0.00000000000E+00 0. -1.
</event>
<event>
 7    1  0.5764931E-013  0.5052885E+02  0.7816164E-02  0.1300439E+00
        -11   -1    0    0    0    0  0.00000000000E+00  0.00000000000E+00  0.45593999997E+02  0.45594000000E+02  0.51100000000E-03 0.  1.
         11   -1    0    0    0    0 -0.00000000000E+00 -0.00000000000E+00 -0.45593999997E+02  0.45594000000E+02  0.51100000000E-03 0. -1.
    9900012    2    1    2    0    0  0.39546112832E+02 -0.80176438846E+01  0.49988434892E+01  0.50528854783E+02  0.29999984597E+02 0.  0.
         12    1    1    2    0    0 -0.39546112832E+02  0.80176438846E+01 -0.49988434892E+01  0.40659145217E+02  0.00000000000E+00 0. -1.
         11    1    3    3    0    0  0.15426332965E+01  0.57768519762E+01 -0.31708497016E+01  0.67680148000E+01  0.51100000000E-03 0. -1.
        -11    1    3    3    0    0  0.31535973949E+02 -0.15152678183E+02  0.25401462208E+01  0.35079533236E+02  0.51100000000E-03 0.  1.
        -12    1    3    3    0    0  0.64675055869E+01  0.13581823220E+01  0.56295469699E+01  0.86813067463E+01  0.00000000000E+00 0.  1.
</event>
<event>
 7    1  0.5764931E-013  0.5052886E+02  0.7816164E-02  0.1300439E+00
        -11   -1    0    0    0    0  0.00000000000E+00  0.00000000000E+00  0.45593999997E+02  0.45594000000E+02  0.51100000000E-03 0. -1.
         11   -1    0    0    0    0 -0.00000000000E+00 -0.00000000000E+00 -0.45593999997E+02  0.45594000000E+02  0.51100000000E-03 0.  1.
    9900012    2    1    2    0    0  0.90905385790E+00  0.36436759219E+02 -0.18019496911E+02  0.50528855023E+02  0.29999985328E+02 0.  0.
         12    1    1    2    0    0 -0.90905385790E+00 -0.36436759219E+02  0.18019496911E+02  0.40659144977E+02  0.00000000000E+00 0. -1.
         11    1    3    3    0    0 -0.10250319038E+01  0.14361602850E+02  0.47445433942E+01  0.15159716986E+02  0.51100000000E-03 0.  1.
        -11    1    3    3    0    0  0.36031627367E+01  0.18084390152E+02 -0.24537540972E+02  0.30693954879E+02  0.51100000000E-03 0. -1.
         12    1    3    3    0    0 -0.16690769749E+01  0.39907662174E+01  0.17735006666E+01  0.46751831584E+01  0.00000000000E+00 0. -1.
</event>
<event>
 7    1  0.5764931E-013  0.5052886E+02  0.7816164E-02  0.1300439E+00
        -11   -1    0    0    0    0  0.00000000000E+00  0.00000000000E+00  0.45593999997E+02  0.45594000000E+02  0.51100000000E-03 0.  1.
         11   -1    0    0    0    0 -0.00000000000E+00 -0.00000000000E+00 -0.45593999997E+02  0.45594000000E+02  0.51100000000E-03 0. -1.
    9900012    2    1    2    0    0  0.93139226121E+00  0.12205945355E+02  0.38772581284E+02  0.50528860154E+02  0.30000000924E+02 0.  0.
         12    1    1    2    0    0 -0.93139226121E+00 -0.12205945355E+02 -0.38772581284E+02  0.40659139846E+02  0.00000000000E+00 0. -1.
         11    1    3    3    0    0  0.51594329684E+01 -0.57036239646E+01  0.18739414282E+02  0.20256276133E+02  0.51100000000E-03 0. -1.
        -11    1    3    3    0    0 -0.84815050007E+01  0.94496358984E+01  0.14624593703E+02  0.19367764118E+02  0.51100000000E-03 0.  1.
         12    1    3    3    0    0  0.42534642935E+01  0.84599334209E+01  0.54085732994E+01  0.10904819903E+02  0.00000000000E+00 0. -1.
</event>
<event>
 7    1  0.5764931E-013  0.5052885E+02  0.7816164E-02  0.1300439E+00
        -11   -1    0    0    0    0  0.00000000000E+00  0.00000000000E+00  0.45593999997E+02  0.45594000000E+02  0.51100000000E-03 0.  1.
         11   -1    0    0    0    0 -0.00000000000E+00 -0.00000000000E+00 -0.45593999997E+02  0.45594000000E+02  0.51100000000E-03 0. -1.
    9900012    2    1    2    0    0  0.33720694516E+02  0.19629061034E+02 -0.11435943257E+02  0.50528854978E+02  0.29999985191E+02 0.  0.
         12    1    1    2    0    0 -0.33720694516E+02 -0.19629061034E+02  0.11435943257E+02  0.40659145022E+02  0.00000000000E+00 0. -1.
         11    1    3    3    0    0  0.13409254990E+02  0.89110701864E+00  0.40936730638E+01  0.14048499939E+02  0.51100000000E-03 0. -1.
        -11    1    3    3    0    0  0.42816185050E+01  0.39478130570E+01 -0.13345182876E+02  0.14560610949E+02  0.51100000000E-03 0.  1.
         12    1    3    3    0    0  0.16029821021E+02  0.14790140958E+02 -0.21844334456E+01  0.21919744091E+02  0.00000000000E+00 0. -1.
</event>
<event>
 7    1  0.5764931E-013  0.5052886E+02  0.7816164E-02  0.1300439E+00
        -11   -1    0    0    0    0  0.00000000000E+00  0.00000000000E+00  0.45593999997E+02  0.45594000000E+02  0.51100000000E-03 0.  1.
         11   -1    0    0    0    0 -0.00000000000E+00 -0.00000000000E+00 -0.45593999997E+02  0.45594000000E+02  0.51100000000E-03 0. -1.
    9900012    2    1    2    0    0 -0.79660193535E+01  0.39598846871E+02  0.46518410549E+01  0.50528858801E+02  0.29999996811E+02 0.  0.
         12    1    1    2    0    0  0.79660193535E+01 -0.39598846871E+02 -0.46518410549E+01  0.40659141199E+02  0.00000000000E+00 0. -1.
         11    1    3    3    0    0 -0.95656205327E+01  0.13922625889E+02 -0.80060236064E+01  0.18693234660E+02  0.51100000000E-03 0. -1.
        -11    1    3    3    0    0  0.38735705802E+01  0.18982256764E+01  0.53166019350E+01  0.68464637700E+01  0.51100000000E-03 0.  1.
        -12    1    3    3    0    0 -0.22739694009E+01  0.23777995306E+02  0.73412627264E+01  0.24989160371E+02  0.00000000000E+00 0.  1.
</event>
<event>
 7    1  0.5764931E-013  0.5052885E+02  0.7816164E-02  0.1300439E+00
        -11   -1    0    0    0    0  0.00000000000E+00  0.00000000000E+00  0.45593999997E+02  0.45594000000E+02  0.51100000000E-03 0. -1.
         11   -1    0    0    0    0 -0.00000000000E+00 -0.00000000000E+00 -0.45593999997E+02  0.45594000000E+02  0.51100000000E-03 0.  1.
    9900012    2    1    2    0    0 -0.16097124645E+02 -0.32146769074E+02 -0.18990365968E+02  0.50528853633E+02  0.29999981102E+02 0.  0.
         12    1    1    2    0    0  0.16097124645E+02  0.32146769074E+02  0.18990365968E+02  0.40659146367E+02  0.00000000000E+00 0. -1.
         11    1    3    3    0    0 -0.15831937395E+02 -0.27238008651E+02 -0.26361779732E+01  0.31615008960E+02  0.51100000000E-03 0.  1.
        -11    1    3    3    0    0 -0.15784007270E+01 -0.22923161395E+01 -0.15659679974E+02  0.15905082185E+02  0.51100000000E-03 0. -1.
         12    1    3    3    0    0  0.13132134765E+01 -0.26164442832E+01 -0.69450802027E+00  0.30087624885E+01  0.00000000000E+00 0. -1.
</event>
<event>
 7    1  0.5764931E-013  0.5052886E+02  0.7816164E-02  0.1300439E+00
        -11   -1    0    0    0    0  0.00000000000E+00  0.00000000000E+00  0.45593999997E+02  0.45594000000E+02  0.51100000000E-03 0. -1.
         11   -1    0    0    0    0 -0.00000000000E+00 -0.00000000000E+00 -0.45593999997E+02  0.45594000000E+02  0.51100000000E-03 0.  1.
    9900012    2    1    2    0    0 -0.26622401643E+02 -0.92381299405E+01 -0.29309896042E+02  0.50528864249E+02  0.30000013372E+02 0.  0.
         12    1    1    2    0    0  0.26622401643E+02  0.92381299405E+01  0.29309896042E+02  0.40659135751E+02  0.00000000000E+00 0. -1.
         11    1    3    3    0    0 -0.14383252434E+02 -0.16853806804E+02 -0.11199706596E+02  0.24826642593E+02  0.51100000000E-03 0. -1.
        -11    1    3    3    0    0 -0.12185916533E+02  0.30284972809E+01 -0.88312670523E+01  0.15351209579E+02  0.51100000000E-03 0.  1.
         12    1    3    3    0    0 -0.53232675741E-01  0.45871795822E+01 -0.92789223935E+01  0.10351012077E+02  0.00000000000E+00 0. -1.
</event>
<event>
 7    1  0.5764931E-013  0.5052885E+02  0.7816164E-02  0.1300439E+00
        -11   -1    0    0    0    0  0.00000000000E+00  0.00000000000E+00  0.45593999997E+02  0.45594000000E+02  0.51100000000E-03 0. -1.
         11   -1    0    0    0    0 -0.00000000000E+00 -0.00000000000E+00 -0.45593999997E+02  0.45594000000E+02  0.51100000000E-03 0.  1.
    9900012    2    1    2    0    0  0.33318616888E+02  0.22449042908E+02 -0.62511457937E+01  0.50528848723E+02  0.29999966179E+02 0.  0.
         12    1    1    2    0    0 -0.33318616888E+02 -0.22449042908E+02  0.62511457937E+01  0.40659151277E+02  0.00000000000E+00 0. -1.
         11    1    3    3    0    0  0.12066621858E+02  0.20666718930E+02  0.70898709350E+01  0.24959625489E+02  0.51100000000E-03 0. -1.
        -11    1    3    3    0    0  0.47747940157E+01 -0.12624699750E+01 -0.41918149973E+01  0.64779473263E+01  0.51100000000E-03 0.  1.
         12    1    3    3    0    0  0.16477201014E+02  0.30447939524E+01 -0.91492017315E+01  0.19091275908E+02  0.00000000000E+00 0. -1.
</event>
<event>
 7    1  0.5764931E-013  0.5052886E+02  0.7816164E-02  0.1300439E+00
        -11   -1    0    0    0    0  0.00000000000E+00  0.00000000000E+00  0.45593999997E+02  0.45594000000E+02  0.51100000000E-03 0. -1.
         11   -1    0    0    0    0 -0.00000000000E+00 -0.00000000000E+00 -0.45593999997E+02  0.45594000000E+02  0.51100000000E-03 0.  1.
    9900012    2    1    2    0    0 -0.14388130876E+02  0.21373577141E+02 -0.31453415466E+02  0.50528862596E+02  0.30000008348E+02 0.  0.
         12    1    1    2    0    0  0.14388130876E+02 -0.21373577141E+02  0.31453415466E+02  0.40659137404E+02  0.00000000000E+00 0. -1.
         11    1    3    3    0    0 -0.47048268968E+00  0.15497268407E+02 -0.13150020400E+02  0.20330020138E+02  0.51100000000E-03 0. -1.
        -11    1    3    3    0    0 -0.36162835500E+01 -0.59381481924E+01 -0.10741682533E+02  0.12795423188E+02  0.51100000000E-03 0.  1.
        -12    1    3    3    0    0 -0.10301364636E+02  0.11814456926E+02 -0.75617125333E+01  0.17403419269E+02  0.00000000000E+00 0.  1.
</event>
<event>
 7    1  0.5764931E-013  0.5052887E+02  0.7816164E-02  0.1300439E+00
        -11   -1    0    0    0    0  0.00000000000E+00  0.00000000000E+00  0.45593999997E+02  0.45594000000E+02  0.51100000000E-03 0.  1.
         11   -1    0    0    0    0 -0.00000000000E+00 -0.00000000000E+00 -0.45593999997E+02  0.45594000000E+02  0.51100000000E-03 0. -1.
    9900012    2    1    2    0    0 -0.19480527828E+02  0.21487264664E+01  0.35623821608E+02  0.50528872416E+02  0.30000038196E+02 0.  0.
         12    1    1    2    0    0  0.19480527828E+02 -0.21487264664E+01 -0.35623821608E+02  0.40659127584E+02  0.00000000000E+00 0. -1.
         11    1    3    3    0    0  0.14620066680E+00 -0.25022448079E+01  0.16632573740E+02  0.16820377915E+02  0.51100000000E-03 0. -1.
        -11    1    3    3    0    0 -0.21407475765E+02  0.59290471515E+01  0.21121384306E+02  0.30652022674E+02  0.51100000000E-03 0.  1.
         12    1    3    3    0    0  0.17807472697E+01 -0.12780758772E+01 -0.21301364377E+01  0.30564718271E+01  0.00000000000E+00 0. -1.
</event>
<event>
 7    1  0.5764931E-013  0.5052886E+02  0.7816164E-02  0.1300439E+00
        -11   -1    0    0    0    0  0.00000000000E+00  0.00000000000E+00  0.45593999997E+02  0.45594000000E+02  0.51100000000E-03 0. -1.
         11   -1    0    0    0    0 -0.00000000000E+00 -0.00000000000E+00 -0.45593999997E+02  0.45594000000E+02  0.51100000000E-03 0.  1.
    9900012    2    1    2    0    0 -0.29405633430E+02 -0.25293086209E+02  0.12195671468E+02  0.50528857241E+02  0.29999992069E+02 0.  0.
         12    1    1    2    0    0  0.29405633430E+02  0.25293086209E+02 -0.12195671468E+02  0.40659142759E+02  0.00000000000E+00 0. -1.
         11    1    3    3    0    0 -0.75915339423E+01  0.21000281125E+01 -0.25623498091E+01  0.82829428632E+01  0.51100000000E-03 0.  1.
        -11    1    3    3    0    0 -0.21907666327E+02 -0.29847043913E+02  0.13059089401E+02  0.39259797382E+02  0.51100000000E-03 0. -1.
         12    1    3    3    0    0  0.93566839597E-01  0.24539295914E+01  0.16989318760E+01  0.29861169957E+01  0.00000000000E+00 0. -1.
</event>
<event>
 7    1  0.5764931E-013  0.5052886E+02  0.7816164E-02  0.1300439E+00
        -11   -1    0    0    0    0  0.00000000000E+00  0.00000000000E+00  0.45593999997E+02  0.45594000000E+02  0.51100000000E-03 0.  1.
         11   -1    0    0    0    0 -0.00000000000E+00 -0.00000000000E+00 -0.45593999997E+02  0.45594000000E+02  0.51100000000E-03 0. -1.
    9900012    2    1    2    0    0  0.38897547824E+02 -0.11830189492E+02 -0.43946678776E+00  0.50528859069E+02  0.29999997628E+02 0.  0.
         12    1    1    2    0    0 -0.38897547824E+02  0.11830189492E+02  0.43946678776E+00  0.40659140931E+02  0.00000000000E+00 0. -1.
         11    1    3    3    0    0  0.98133243577E+01  0.44492457662E+01 -0.14377908500E+01  0.10870343400E+02  0.51100000000E-03 0. -1.
        -11    1    3    3    0    0  0.11525873000E+02 -0.14006945484E+02 -0.79684531917E+01  0.19812534334E+02  0.51100000000E-03 0.  1.
        -12    1    3    3    0    0  0.17558350466E+02 -0.22724897751E+01  0.89667772539E+01  0.19845981336E+02  0.00000000000E+00 0.  1.
</event>
<event>
 7    1  0.5764931E-013  0.5052886E+02  0.7816164E-02  0.1300439E+00
        -11   -1    0    0    0    0  0.00000000000E+00  0.00000000000E+00  0.45593999997E+02  0.45594000000E+02  0.51100000000E-03 0. -1.
         11   -1    0    0    0    0 -0.00000000000E+00 -0.00000000000E+00 -0.45593999997E+02  0.45594000000E+02  0.51100000000E-03 0.  1.
    9900012    2    1    2    0    0 -0.11621000194E+02 -0.27397233540E+02 -0.27703962279E+02  0.50528861088E+02  0.30000003762E+02 0.  0.
         12    1    1    2    0    0  0.11621000194E+02  0.27397233540E+02  0.27703962279E+02  0.40659138912E+02  0.00000000000E+00 0. -1.
         11    1    3    3    0    0 -0.13114737243E+02 -0.75583179989E+01 -0.14657316270E+02  0.21070392128E+02  0.51100000000E-03 0. -1.
        -11    1    3    3    0    0  0.22184538499E+01 -0.23025757557E+02 -0.11710970976E+02  0.25927859342E+02  0.51100000000E-03 0.  1.
         12    1    3    3    0    0 -0.72471680092E+00  0.31868420166E+01 -0.13356750334E+01  0.35306096181E+01  0.00000000000E+00 0. -1.
</event>
<event>
 7    1  0.5764931E-013  0.5052886E+02  0.7816164E-02  0.1300439E+00
        -11   -1    0    0    0    0  0.00000000000E+00  0.00000000000E+00  0.45593999997E+02  0.45594000000E+02  0.51100000000E-03 0. -1.
         11   -1    0    0    0    0 -0.00000000000E+00 -0.00000000000E+00 -0.45593999997E+02  0.45594000000E+02  0.51100000000E-03 0.  1.
    9900012    2    1    2    0    0 -0.27008404181E+02  0.28559248695E+02  0.10396202190E+02  0.50528860776E+02  0.30000002815E+02 0.  0.
         12    1    1    2    0    0  0.27008404181E+02 -0.28559248695E+02 -0.10396202190E+02  0.40659139224E+02  0.00000000000E+00 0. -1.
         11    1    3    3    0    0  0.68534450876E+00  0.76416077314E+01 -0.28782936374E+01  0.81944151921E+01  0.51100000000E-03 0. -1.
        -11    1    3    3    0    0 -0.29491052485E+02  0.16601618918E+02  0.15420180002E+02  0.37190292805E+02  0.51100000000E-03 0.  1.
        -12    1    3    3    0    0  0.17973037952E+01  0.43160220462E+01 -0.21456841750E+01  0.51441527790E+01  0.00000000000E+00 0.  1.
</event>
<event>
 7    1  0.5764931E-013  0.5052884E+02  0.7816164E-02  0.1300439E+00
        -11   -1    0    0    0    0  0.00000000000E+00  0.00000000000E+00  0.45593999997E+02  0.45594000000E+02  0.51100000000E-03 0.  1.
         11   -1    0    0    0    0 -0.00000000000E+00 -0.00000000000E+00 -0.45593999997E+02  0.45594000000E+02  0.51100000000E-03 0. -1.
    9900012    2    1    2    0    0 -0.10625122777E+02  0.18490990278E+02  0.34617297954E+02  0.50528840231E+02  0.29999940366E+02 0.  0.
         12    1    1    2    0    0  0.10625122777E+02 -0.18490990278E+02 -0.34617297954E+02  0.40659159769E+02  0.00000000000E+00 0. -1.
         11    1    3    3    0    0 -0.14177513588E+02 -0.39368106325E+00  0.85141094437E+01  0.16542277237E+02  0.51100000000E-03 0. -1.
        -11    1    3    3    0    0  0.60205952730E+01  0.18161513759E+02  0.22141106476E+02  0.29262890249E+02  0.51100000000E-03 0.  1.
         12    1    3    3    0    0 -0.24682044626E+01  0.72315758290E+00  0.39620820337E+01  0.47236727449E+01  0.00000000000E+00 0. -1.
</event>
<event>
 7    1  0.5764931E-013  0.5052886E+02  0.7816164E-02  0.1300439E+00
        -11   -1    0    0    0    0  0.00000000000E+00  0.00000000000E+00  0.45593999997E+02  0.45594000000E+02  0.51100000000E-03 0.  1.
         11   -1    0    0    0    0 -0.00000000000E+00 -0.00000000000E+00 -0.45593999997E+02  0.45594000000E+02  0.51100000000E-03 0. -1.
    9900012    2    1    2    0    0 -0.25454978320E+02 -0.57916505120E+01  0.31171566370E+02  0.50528859737E+02  0.29999999658E+02 0.  0.
         12    1    1    2    0    0  0.25454978320E+02  0.57916505120E+01 -0.31171566370E+02  0.40659140263E+02  0.00000000000E+00 0. -1.
         11    1    3    3    0    0 -0.23637796470E+01 -0.26025245467E+01  0.28203793788E+01  0.45072306727E+01  0.51100000000E-03 0. -1.
        -11    1    3    3    0    0  0.39612293029E+01 -0.64759086731E+01  0.12124694662E+02  0.14305137246E+02  0.51100000000E-03 0.  1.
        -12    1    3    3    0    0 -0.27052427975E+02  0.32867827078E+01  0.16226492330E+02  0.31716491818E+02  0.00000000000E+00 0.  1.
</event>
<event>
 7    1  0.5764931E-013  0.5052886E+02  0.7816164E-02  0.1300439E+00
        -11   -1    0    0    0    0  0.00000000000E+00  0.00000000000E+00  0.45593999997E+02  0.45594000000E+02  0.51100000000E-03 0.  1.
         11   -1    0    0    0    0 -0.00000000000E+00 -0.00000000000E+00 -0.45593999997E+02  0.45594000000E+02  0.51100000000E-03 0. -1.
    9900012    2    1    2    0    0 -0.36870979777E+02 -0.39457536254E+01  0.16677167094E+02  0.50528855596E+02  0.29999987070E+02 0.  0.
         12    1    1    2    0    0  0.36870979777E+02  0.39457536254E+01 -0.16677167094E+02  0.40659144404E+02  0.00000000000E+00 0. -1.
         11    1    3    3    0    0 -0.35144327402E+02 -0.11662147973E+02  0.72964183201E+01  0.37740789134E+02  0.51100000000E-03 0. -1.
        -11    1    3    3    0    0 -0.22874654190E+01  0.26797626044E+01  0.29142295650E+01  0.45723473050E+01  0.51100000000E-03 0.  1.
         12    1    3    3    0    0  0.56081304413E+00  0.50366317435E+01  0.64665192086E+01  0.82157191569E+01  0.00000000000E+00 0. -1.
</event>
<event>
 7    1  0.5764931E-013  0.5052886E+02  0.7816164E-02  0.1300439E+00
        -11   -1    0    0    0    0  0.00000000000E+00  0.00000000000E+00  0.45593999997E+02  0.45594000000E+02  0.51100000000E-03 0. -1.
         11   -1    0    0    0    0 -0.00000000000E+00 -0.00000000000E+00 -0.45593999997E+02  0.45594000000E+02  0.51100000000E-03 0.  1.
    9900012    2    1    2    0    0 -0.52525245066E+01 -0.28249046854E+02 -0.28767485358E+02  0.50528857416E+02  0.29999992602E+02 0.  0.
         12    1    1    2    0    0  0.52525245066E+01  0.28249046854E+02  0.28767485358E+02  0.40659142584E+02  0.00000000000E+00 0. -1.
         11    1    3    3    0    0  0.25706818956E+01  0.25217779550E+01 -0.11861689757E+01  0.37914069371E+01  0.51100000000E-03 0. -1.
        -11    1    3    3    0    0 -0.13634406516E+02 -0.13820075158E+02 -0.10946309824E+02  0.22287063904E+02  0.51100000000E-03 0.  1.
        -12    1    3    3    0    0  0.58112001140E+01 -0.16950749651E+02 -0.16635006558E+02  0.24450386575E+02  0.00000000000E+00 0.  1.
</event>
<event>
 7    1  0.5764931E-013  0.5052885E+02  0.7816164E-02  0.1300439E+00
        -11   -1    0    0    0    0  0.00000000000E+00  0.00000000000E+00  0.45593999997E+02  0.45594000000E+02  0.51100000000E-03 0.  1.
         11   -1    0    0    0    0 -0.00000000000E+00 -0.00000000000E+00 -0.45593999997E+02  0.45594000000E+02  0.51100000000E-03 0. -1.
    9900012    2    1    2    0    0 -0.10259763474E+02 -0.12769760043E+02  0.37213397934E+02  0.50528849690E+02  0.29999969119E+02 0.  0.
         12    1    1    2    0    0  0.10259763474E+02  0.12769760043E+02 -0.37213397934E+02  0.40659150310E+02  0.00000000000E+00 0. -1.
         11    1    3    3    0    0 -0.40089437695E+01 -0.72218194282E+01  0.28617884542E+02  0.29786064223E+02  0.51100000000E-03 0. -1.
        -11    1    3    3    0    0 -0.11666108057E+02 -0.32944737666E+01  0.26855869647E+01  0.12416280128E+02  0.51100000000E-03 0.  1.
         12    1    3    3    0    0  0.54152883533E+01 -0.22534668482E+01  0.59099264274E+01  0.83265053392E+01  0.00000000000E+00 0. -1.
</event>
<event>
 7    1  0.5764931E-013  0.5052887E+02  0.7816164E-02  0.1300439E+00
        -11   -1    0    0    0    0  0.00000000000E+00  0.00000000000E+00  0.45593999997E+02  0.45594000000E+02  0.51100000000E-03 0.  1.
         11   -1    0    0    0    0 -0.00000000000E+00 -0.00000000000E+00 -0.45593999997E+02  0.45594000000E+02  0.51100000000E-03 0. -1.
    9900012    2    1    2    0    0  0.25321647741E+02 -0.29730039060E+02  0.11318286801E+02  0.50528872084E+02  0.30000037185E+02 0.  0.
         12    1    1    2    0    0 -0.25321647741E+02  0.29730039060E+02 -0.11318286801E+02  0.40659127916E+02  0.00000000000E+00 0. -1.
         11    1    3    3    0    0  0.11385402545E+02 -0.41837802244E+01  0.12282224816E+02  0.17262226240E+02  0.51100000000E-03 0.  1.
        -11    1    3    3    0    0  0.91236077786E+01 -0.23245128406E+02 -0.62657685213E+01  0.25745602905E+02  0.51100000000E-03 0. -1.
         12    1    3    3    0    0  0.48126374173E+01 -0.23011304297E+01  0.53018305069E+01  0.75210429389E+01  0.00000000000E+00 0. -1.
</event>
<event>
 7    1  0.5764931E-013  0.5052886E+02  0.7816164E-02  0.1300439E+00
        -11   -1    0    0    0    0  0.00000000000E+00  0.00000000000E+00  0.45593999997E+02  0.45594000000E+02  0.51100000000E-03 0.  1.
         11   -1    0    0    0    0 -0.00000000000E+00 -0.00000000000E+00 -0.45593999997E+02  0.45594000000E+02  0.51100000000E-03 0. -1.
    9900012    2    1    2    0    0 -0.11989903700E+01 -0.19664337852E+02  0.35567432646E+02  0.50528855566E+02  0.29999986979E+02 0.  0.
         12    1    1    2    0    0  0.11989903700E+01  0.19664337852E+02 -0.35567432646E+02  0.40659144434E+02  0.00000000000E+00 0. -1.
         11    1    3    3    0    0 -0.90603182178E+01 -0.62784005375E+01  0.56135476571E+01  0.12370109016E+02  0.51100000000E-03 0. -1.
        -11    1    3    3    0    0  0.13123263815E+02 -0.12810740313E+02  0.22841927354E+02  0.29293152203E+02  0.51100000000E-03 0.  1.
        -12    1    3    3    0    0 -0.52619359672E+01 -0.57519700224E+00  0.71119576349E+01  0.88655943464E+01  0.00000000000E+00 0.  1.
</event>
<event>
 7    1  0.5764931E-013  0.5052886E+02  0.7816164E-02  0.1300439E+00
        -11   -1    0    0    0    0  0.00000000000E+00  0.00000000000E+00  0.45593999997E+02  0.45594000000E+02  0.51100000000E-03 0.  1.
         11   -1    0    0    0    0 -0.00000000000E+00 -0.00000000000E+00 -0.45593999997E+02  0.45594000000E+02  0.51100000000E-03 0. -1.
    9900012    2    1    2    0    0  0.15909762899E+02 -0.21719455409E+02  0.30468182821E+02  0.50528862489E+02  0.30000008022E+02 0.  0.
         12    1    1    2    0    0 -0.15909762899E+02  0.21719455409E+02 -0.30468182821E+02  0.40659137511E+02  0.00000000000E+00 0. -1.
         11    1    3    3    0    0  0.72925196094E+00  0.31406674924E+01  0.83481605459E+00  0.33305433230E+01  0.51100000000E-03 0. -1.
        -11    1    3    3    0    0  0.17164043250E+02 -0.21369486607E+02  0.13463111552E+02  0.30537103848E+02  0.51100000000E-03 0.  1.
        -12    1    3    3    0    0 -0.19835323123E+01 -0.34906362944E+01  0.16170255214E+02  0.16661215318E+02  0.00000000000E+00 0.  1.
</event>
<event>
 7    1  0.5764931E-013  0.5052884E+02  0.7816164E-02  0.1300439E+00
        -11   -1    0    0    0    0  0.00000000000E+00  0.00000000000E+00  0.45593999997E+02  0.45594000000E+02  0.51100000000E-03 0.  1.
         11   -1    0    0    0    0 -0.00000000000E+00 -0.00000000000E+00 -0.45593999997E+02  0.45594000000E+02  0.51100000000E-03 0. -1.
    9900012    2    1    2    0    0 -0.25612196757E+02  0.10583064681E+02  0.29751995814E+02  0.50528841921E+02  0.29999945503E+02 0.  0.
         12    1    1    2    0    0  0.25612196757E+02 -0.10583064681E+02 -0.29751995814E+02  0.40659158079E+02  0.00000000000E+00 0. -1.
         11    1    3    3    0    0  0.49503680466E+01  0.65995390645E+01  0.11432390575E+02  0.14098213156E+02  0.51100000000E-03 0. -1.
        -11    1    3    3    0    0 -0.18564092632E+02 -0.55315965257E+00  0.94762543780E+01  0.20850201873E+02  0.51100000000E-03 0.  1.
         12    1    3    3    0    0 -0.11998472172E+02  0.45366852690E+01  0.88433508610E+01  0.15580426892E+02  0.00000000000E+00 0. -1.
</event>
<event>
 7    1  0.5764931E-013  0.5052886E+02  0.7816164E-02  0.1300439E+00
        -11   -1    0    0    0    0  0.00000000000E+00  0.00000000000E+00  0.45593999997E+02  0.45594000000E+02  0.51100000000E-03 0. -1.
         11   -1    0    0    0    0 -0.00000000000E+00 -0.00000000000E+00 -0.45593999997E+02  0.45594000000E+02  0.51100000000E-03 0.  1.
    9900012    2    1    2    0    0  0.26811850628E+02 -0.26989348436E+02 -0.14348021202E+02  0.50528856188E+02  0.29999988869E+02 0.  0.
         12    1    1    2    0    0 -0.26811850628E+02  0.26989348436E+02  0.14348021202E+02  0.40659143812E+02  0.00000000000E+00 0. -1.
         11    1    3    3    0    0 -0.27373055939E+01 -0.16278306973E+02 -0.71151550191E+01  0.17975025759E+02  0.51100000000E-03 0. -1.
        -11    1    3    3    0    0  0.79512254595E+01 -0.45534978017E+01 -0.82936348751E+00  0.92002267686E+01  0.51100000000E-03 0.  1.
         12    1    3    3    0    0  0.21597930763E+02 -0.61575436614E+01 -0.64035026958E+01  0.23353603661E+02  0.00000000000E+00 0. -1.
</event>
<event>
 7    1  0.5764931E-013  0.5052886E+02  0.7816164E-02  0.1300439E+00
        -11   -1    0    0    0    0  0.00000000000E+00  0.00000000000E+00  0.45593999997E+02  0.45594000000E+02  0.51100000000E-03 0. -1.
         11   -1    0    0    0    0 -0.00000000000E+00 -0.00000000000E+00 -0.45593999997E+02  0.45594000000E+02  0.51100000000E-03 0.  1.
    9900012    2    1    2    0    0 -0.34014242168E+02  0.18460781274E+02 -0.12465821076E+02  0.50528858216E+02  0.29999995032E+02 0.  0.
         12    1    1    2    0    0  0.34014242168E+02 -0.18460781274E+02  0.12465821076E+02  0.40659141784E+02  0.00000000000E+00 0. -1.
         11    1    3    3    0    0 -0.13304599502E+02  0.15289392548E+02  0.52366014082E+00  0.20274420154E+02  0.51100000000E-03 0. -1.
        -11    1    3    3    0    0 -0.84902846657E+01 -0.71652448818E+01 -0.71790212505E+01  0.13227396354E+02  0.51100000000E-03 0.  1.
         12    1    3    3    0    0 -0.12219358000E+02  0.10336633608E+02 -0.58104599661E+01  0.17027041708E+02  0.00000000000E+00 0. -1.
</event>
<event>
 7    1  0.5764931E-013  0.5052887E+02  0.7816164E-02  0.1300439E+00
        -11   -1    0    0    0    0  0.00000000000E+00  0.00000000000E+00  0.45593999997E+02  0.45594000000E+02  0.51100000000E-03 0.  1.
         11   -1    0    0    0    0 -0.00000000000E+00 -0.00000000000E+00 -0.45593999997E+02  0.45594000000E+02  0.51100000000E-03 0. -1.
    9900012    2    1    2    0    0 -0.92604599119E+01  0.24053527255E+02  0.31445777871E+02  0.50528865268E+02  0.30000016469E+02 0.  0.
         12    1    1    2    0    0  0.92604599119E+01 -0.24053527255E+02 -0.31445777871E+02  0.40659134732E+02  0.00000000000E+00 0. -1.
         11    1    3    3    0    0 -0.49072174195E+00 -0.59158475616E+01  0.62649501643E+01  0.86306234435E+01  0.51100000000E-03 0. -1.
        -11    1    3    3    0    0 -0.48107972647E+01  0.27687923979E+02  0.17954810725E+02  0.33348765089E+02  0.51100000000E-03 0.  1.
        -12    1    3    3    0    0 -0.39589409053E+01  0.22814508385E+01  0.72260169823E+01  0.85494767353E+01  0.00000000000E+00 0.  1.
</event>
<event>
 7    1  0.5764931E-013  0.5052890E+02  0.7816164E-02  0.1300439E+00
        -11   -1    0    0    0    0  0.00000000000E+00  0.00000000000E+00  0.45593999997E+02  0.45594000000E+02  0.51100000000E-03 0. -1.
         11   -1    0    0    0    0 -0.00000000000E+00 -0.00000000000E+00 -0.45593999997E+02  0.45594000000E+02  0.51100000000E-03 0.  1.
    9900012    2    1    2    0    0  0.11471008432E+02  0.20010858650E+02 -0.33483491282E+02  0.50528896631E+02  0.30000111799E+02 0.  0.
         12    1    1    2    0    0 -0.11471008432E+02 -0.20010858650E+02  0.33483491282E+02  0.40659103369E+02  0.00000000000E+00 0. -1.
         11    1    3    3    0    0  0.66172539899E+01  0.22322389785E+02 -0.10588574373E+02  0.25577236825E+02  0.51100000000E-03 0. -1.
        -11    1    3    3    0    0  0.35647477867E+01 -0.47886143257E+01 -0.91449034312E+01  0.10920966668E+02  0.51100000000E-03 0.  1.
         12    1    3    3    0    0  0.12890066559E+01  0.24770831908E+01 -0.13750013478E+02  0.14030693138E+02  0.00000000000E+00 0. -1.
</event>
<event>
 7    1  0.5764931E-013  0.5052886E+02  0.7816164E-02  0.1300439E+00
        -11   -1    0    0    0    0  0.00000000000E+00  0.00000000000E+00  0.45593999997E+02  0.45594000000E+02  0.51100000000E-03 0.  1.
         11   -1    0    0    0    0 -0.00000000000E+00 -0.00000000000E+00 -0.45593999997E+02  0.45594000000E+02  0.51100000000E-03 0. -1.
    9900012    2    1    2    0    0  0.31089980785E+02 -0.25612051976E+02  0.55318614825E+01  0.50528860768E+02  0.30000002792E+02 0.  0.
         12    1    1    2    0    0 -0.31089980785E+02  0.25612051976E+02 -0.55318614825E+01  0.40659139232E+02  0.00000000000E+00 0. -1.
         11    1    3    3    0    0 -0.42549611289E+01 -0.37904573059E+00  0.11372601087E+01  0.44206029781E+01  0.51100000000E-03 0. -1.
        -11    1    3    3    0    0  0.30705385579E+02 -0.14143010425E+02  0.21105024020E+01  0.33871812294E+02  0.51100000000E-03 0.  1.
        -12    1    3    3    0    0  0.46395563347E+01 -0.11089995820E+02  0.22840989718E+01  0.12236445497E+02  0.00000000000E+00 0.  1.
</event>
<event>
 7    1  0.5764931E-013  0.5052886E+02  0.7816164E-02  0.1300439E+00
        -11   -1    0    0    0    0  0.00000000000E+00  0.00000000000E+00  0.45593999997E+02  0.45594000000E+02  0.51100000000E-03 0.  1.
         11   -1    0    0    0    0 -0.00000000000E+00 -0.00000000000E+00 -0.45593999997E+02  0.45594000000E+02  0.51100000000E-03 0. -1.
    9900012    2    1    2    0    0 -0.37683111954E+01  0.14707638144E+02  0.37718046564E+02  0.50528858031E+02  0.29999994471E+02 0.  0.
         12    1    1    2    0    0  0.37683111954E+01 -0.14707638144E+02 -0.37718046564E+02  0.40659141969E+02  0.00000000000E+00 0. -1.
         11    1    3    3    0    0 -0.10680031146E+02 -0.54935095664E+01  0.14014272007E+02  0.18456476716E+02  0.51100000000E-03 0. -1.
        -11    1    3    3    0    0  0.55063655471E+01  0.11146444706E+02  0.14111278652E+02  0.18806687017E+02  0.51100000000E-03 0.  1.
         12    1    3    3    0    0  0.14053544033E+01  0.90547030047E+01  0.95924959053E+01  0.13265694298E+02  0.00000000000E+00 0. -1.
</event>
<event>
 7    1  0.5764931E-013  0.5052885E+02  0.7816164E-02  0.1300439E+00
        -11   -1    0    0    0    0  0.00000000000E+00  0.00000000000E+00  0.45593999997E+02  0.45594000000E+02  0.51100000000E-03 0.  1.
         11   -1    0    0    0    0 -0.00000000000E+00 -0.00000000000E+00 -0.45593999997E+02  0.45594000000E+02  0.51100000000E-03 0. -1.
    9900012    2    1    2    0    0 -0.34411393984E+02 -0.47325319511E+01  0.21133520214E+02  0.50528848862E+02  0.29999966601E+02 0.  0.
         12    1    1    2    0    0  0.34411393984E+02  0.47325319511E+01 -0.21133520214E+02  0.40659151138E+02  0.00000000000E+00 0. -1.
         11    1    3    3    0    0 -0.29250556378E+02  0.70452904216E+01  0.20125978133E+02  0.36197875098E+02  0.51100000000E-03 0. -1.
        -11    1    3    3    0    0 -0.12402213894E+01 -0.62880413067E+01 -0.23107251575E+01  0.68130069414E+01  0.51100000000E-03 0.  1.
        -12    1    3    3    0    0 -0.39206162171E+01 -0.54897810661E+01  0.33182672388E+01  0.75179668224E+01  0.00000000000E+00 0.  1.
</event>
<event>
 7    1  0.5764931E-013  0.5052886E+02  0.7816164E-02  0.1300439E+00
        -11   -1    0    0    0    0  0.00000000000E+00  0.00000000000E+00  0.45593999997E+02  0.45594000000E+02  0.51100000000E-03 0.  1.
         11   -1    0    0    0    0 -0.00000000000E+00 -0.00000000000E+00 -0.45593999997E+02  0.45594000000E+02  0.51100000000E-03 0. -1.
    9900012    2    1    2    0    0  0.11533947891E+01  0.17172590759E+01  0.40606486634E+02  0.50528855210E+02  0.29999985896E+02 0.  0.
         12    1    1    2    0    0 -0.11533947891E+01 -0.17172590759E+01 -0.40606486634E+02  0.40659144790E+02  0.00000000000E+00 0. -1.
         11    1    3    3    0    0 -0.33472338844E+01 -0.45702261798E+00 -0.24045138306E-01  0.33783757606E+01  0.51100000000E-03 0. -1.
        -11    1    3    3    0    0  0.81842172796E+01  0.11186280444E+02  0.27596951537E+02  0.30882131032E+02  0.51100000000E-03 0.  1.
        -12    1    3    3    0    0 -0.36835886060E+01 -0.90119987496E+01  0.13033580235E+02  0.16268348418E+02  0.00000000000E+00 0.  1.
</event>
<event>
 7    1  0.5764931E-013  0.5052893E+02  0.7816164E-02  0.1300439E+00
        -11   -1    0    0    0    0  0.00000000000E+00  0.00000000000E+00  0.45593999997E+02  0.45594000000E+02  0.51100000000E-03 0. -1.
         11   -1    0    0    0    0 -0.00000000000E+00 -0.00000000000E+00 -0.45593999997E+02  0.45594000000E+02  0.51100000000E-03 0.  1.
    9900012    2    1    2    0    0  0.21154624634E+02 -0.21326403458E+02 -0.27401209496E+02  0.50528930781E+02  0.30000215603E+02 0.  0.
         12    1    1    2    0    0 -0.21154624634E+02  0.21326403458E+02  0.27401209496E+02  0.40659069219E+02  0.00000000000E+00 0. -1.
         11    1    3    3    0    0 -0.10879985299E+01 -0.62804766010E+01  0.42812110580E+01  0.76783393726E+01  0.51100000000E-03 0. -1.
        -11    1    3    3    0    0  0.18884616109E+02 -0.99845548963E+01 -0.18201452371E+02  0.28064442462E+02  0.51100000000E-03 0.  1.
         12    1    3    3    0    0  0.33580070549E+01 -0.50613719611E+01 -0.13480968183E+02  0.14786148946E+02  0.00000000000E+00 0. -1.
</event>
<event>
 7    1  0.5764931E-013  0.5052885E+02  0.7816164E-02  0.1300439E+00
        -11   -1    0    0    0    0  0.00000000000E+00  0.00000000000E+00  0.45593999997E+02  0.45594000000E+02  0.51100000000E-03 0. -1.
         11   -1    0    0    0    0 -0.00000000000E+00 -0.00000000000E+00 -0.45593999997E+02  0.45594000000E+02  0.51100000000E-03 0.  1.
    9900012    2    1    2    0    0  0.14174042670E+02 -0.36051197231E+02 -0.12352077818E+02  0.50528854241E+02  0.29999982952E+02 0.  0.
         12    1    1    2    0    0 -0.14174042670E+02  0.36051197231E+02  0.12352077818E+02  0.40659145759E+02  0.00000000000E+00 0. -1.
         11    1    3    3    0    0  0.66120456585E+01 -0.20220831683E+02 -0.18456777728E+02  0.28164762135E+02  0.51100000000E-03 0. -1.
        -11    1    3    3    0    0  0.16601060740E+01 -0.15461390861E+02  0.37276906503E+01  0.15990817283E+02  0.51100000000E-03 0.  1.
         12    1    3    3    0    0  0.59018909378E+01 -0.36897468701E+00  0.23770092593E+01  0.63732748238E+01  0.00000000000E+00 0. -1.
</event>
<event>
 7    1  0.5764931E-013  0.5052886E+02  0.7816164E-02  0.1300439E+00
        -11   -1    0    0    0    0  0.00000000000E+00  0.00000000000E+00  0.45593999997E+02  0.45594000000E+02  0.51100000000E-03 0.  1.
         11   -1    0    0    0    0 -0.00000000000E+00 -0.00000000000E+00 -0.45593999997E+02  0.45594000000E+02  0.51100000000E-03 0. -1.
    9900012    2    1    2    0    0  0.58609001041E+01  0.19181714822E+02  0.35367743270E+02  0.50528860836E+02  0.30000002996E+02 0.  0.
         12    1    1    2    0    0 -0.58609001041E+01 -0.19181714822E+02 -0.35367743270E+02  0.40659139164E+02  0.00000000000E+00 0. -1.
         11    1    3    3    0    0  0.10300514608E+02  0.23878151480E+02  0.19830856318E+02  0.32703663126E+02  0.51100000000E-03 0. -1.
        -11    1    3    3    0    0 -0.87769241601E+00  0.56683757390E+00  0.75326669056E+01  0.76047826914E+01  0.51100000000E-03 0.  1.
         12    1    3    3    0    0 -0.35619220877E+01 -0.52632742317E+01  0.80042200463E+01  0.10220415018E+02  0.00000000000E+00 0. -1.
</event>
<event>
 7    1  0.5764931E-013  0.5052887E+02  0.7816164E-02  0.1300439E+00
        -11   -1    0    0    0    0  0.00000000000E+00  0.00000000000E+00  0.45593999997E+02  0.45594000000E+02  0.51100000000E-03 0.  1.
         11   -1    0    0    0    0 -0.00000000000E+00 -0.00000000000E+00 -0.45593999997E+02  0.45594000000E+02  0.51100000000E-03 0. -1.
    9900012    2    1    2    0    0  0.39010549655E+02  0.58569529041E+01  0.98507864362E+01  0.50528869720E+02  0.30000030001E+02 0.  0.
         12    1    1    2    0    0 -0.39010549655E+02 -0.58569529041E+01 -0.98507864362E+01  0.40659130280E+02  0.00000000000E+00 0. -1.
         11    1    3    3    0    0 -0.21573181685E+01 -0.27098477595E+01  0.65097560682E+01  0.73738877730E+01  0.51100000000E-03 0. -1.
        -11    1    3    3    0    0  0.19114347739E+02  0.43119460336E+01  0.61088914054E+01  0.20524856213E+02  0.51100000000E-03 0.  1.
         12    1    3    3    0    0  0.22053520084E+02  0.42548546299E+01 -0.27678610374E+01  0.22630125734E+02  0.00000000000E+00 0. -1.
</event>
<event>
 7    1  0.5764931E-013  0.5052886E+02  0.7816164E-02  0.1300439E+00
        -11   -1    0    0    0    0  0.00000000000E+00  0.00000000000E+00  0.45593999997E+02  0.45594000000E+02  0.51100000000E-03 0. -1.
         11   -1    0    0    0    0 -0.00000000000E+00 -0.00000000000E+00 -0.45593999997E+02  0.45594000000E+02  0.51100000000E-03 0.  1.
    9900012    2    1    2    0    0  0.58984679216E+01 -0.26198335476E+02 -0.30529023251E+02  0.50528856303E+02  0.29999989218E+02 0.  0.
         12    1    1    2    0    0 -0.58984679216E+01  0.26198335476E+02  0.30529023251E+02  0.40659143697E+02  0.00000000000E+00 0. -1.
         11    1    3    3    0    0 -0.94158316020E+01 -0.94981480077E+01 -0.46883252950E+01  0.14172264980E+02  0.51100000000E-03 0. -1.
        -11    1    3    3    0    0  0.53771480625E+01 -0.36234126287E+01 -0.15868648408E+02  0.17142253146E+02  0.51100000000E-03 0.  1.
         12    1    3    3    0    0  0.99371514611E+01 -0.13076774839E+02 -0.99720495477E+01  0.19214338176E+02  0.00000000000E+00 0. -1.
</event>
<event>
 7    1  0.5764931E-013  0.5052885E+02  0.7816164E-02  0.1300439E+00
        -11   -1    0    0    0    0  0.00000000000E+00  0.00000000000E+00  0.45593999997E+02  0.45594000000E+02  0.51100000000E-03 0.  1.
         11   -1    0    0    0    0 -0.00000000000E+00 -0.00000000000E+00 -0.45593999997E+02  0.45594000000E+02  0.51100000000E-03 0. -1.
    9900012    2    1    2    0    0 -0.38637832632E+01 -0.34713198639E+02  0.20814212724E+02  0.50528850572E+02  0.29999971799E+02 0.  0.
         12    1    1    2    0    0  0.38637832632E+01  0.34713198639E+02 -0.20814212724E+02  0.40659149428E+02  0.00000000000E+00 0. -1.
         11    1    3    3    0    0 -0.16261442314E+02 -0.25628672782E+02  0.13234288036E+02  0.33112078685E+02  0.51100000000E-03 0. -1.
        -11    1    3    3    0    0  0.25745308458E+01 -0.83506883319E+00  0.22742473820E+01  0.35352157569E+01  0.51100000000E-03 0.  1.
         12    1    3    3    0    0  0.98231282055E+01 -0.82494570238E+01  0.53056773056E+01  0.13881556130E+02  0.00000000000E+00 0. -1.
</event>
<event>
 7    1  0.5764931E-013  0.5052886E+02  0.7816164E-02  0.1300439E+00
        -11   -1    0    0    0    0  0.00000000000E+00  0.00000000000E+00  0.45593999997E+02  0.45594000000E+02  0.51100000000E-03 0.  1.
         11   -1    0    0    0    0 -0.00000000000E+00 -0.00000000000E+00 -0.45593999997E+02  0.45594000000E+02  0.51100000000E-03 0. -1.
    9900012    2    1    2    0    0 -0.27683010203E+00  0.26033108936E+02  0.31230856354E+02  0.50528858538E+02  0.29999996013E+02 0.  0.
         12    1    1    2    0    0  0.27683010203E+00 -0.26033108936E+02 -0.31230856354E+02  0.40659141462E+02  0.00000000000E+00 0. -1.
         11    1    3    3    0    0  0.25943129220E+01 -0.47109653994E+01  0.97401668112E+01  0.11126297870E+02  0.51100000000E-03 0. -1.
        -11    1    3    3    0    0 -0.12390046399E+01  0.14113578632E+02  0.30040668344E+01  0.14482839919E+02  0.51100000000E-03 0.  1.
         12    1    3    3    0    0 -0.16321383842E+01  0.16630495703E+02  0.18486622709E+02  0.24919720749E+02  0.00000000000E+00 0. -1.
</event>
<event>
 7    1  0.5764931E-013  0.5052886E+02  0.7816164E-02  0.1300439E+00
        -11   -1    0    0    0    0  0.00000000000E+00  0.00000000000E+00  0.45593999997E+02  0.45594000000E+02  0.51100000000E-03 0. -1.
         11   -1    0    0    0    0 -0.00000000000E+00 -0.00000000000E+00 -0.45593999997E+02  0.45594000000E+02  0.51100000000E-03 0.  1.
    9900012    2    1    2    0    0 -0.28142703161E+02  0.18667156126E+02 -0.22642678110E+02  0.50528864114E+02  0.30000012960E+02 0.  0.
         12    1    1    2    0    0  0.28142703161E+02 -0.18667156126E+02  0.22642678110E+02  0.40659135886E+02  0.00000000000E+00 0. -1.
         11    1    3    3    0    0 -0.17777252179E+02  0.13199092297E+01 -0.23002599511E+01  0.17973982628E+02  0.51100000000E-03 0.  1.
        -11    1    3    3    0    0 -0.70141761501E+01  0.16257072497E+02 -0.74842504967E+01  0.19222514898E+02  0.51100000000E-03 0. -1.
         12    1    3    3    0    0 -0.33512748323E+01  0.10901743993E+01 -0.12858167662E+02  0.13332366588E+02  0.00000000000E+00 0. -1.
</event>
<event>
 7    1  0.5764931E-013  0.5052884E+02  0.7816164E-02  0.1300439E+00
        -11   -1    0    0    0    0  0.00000000000E+00  0.00000000000E+00  0.45593999997E+02  0.45594000000E+02  0.51100000000E-03 0.  1.
         11   -1    0    0    0    0 -0.00000000000E+00 -0.00000000000E+00 -0.45593999997E+02  0.45594000000E+02  0.51100000000E-03 0. -1.
    9900012    2    1    2    0    0 -0.59003611440E+01 -0.11462992667E+02  0.38561023109E+02  0.50528844011E+02  0.29999951857E+02 0.  0.
         12    1    1    2    0    0  0.59003611440E+01  0.11462992667E+02 -0.38561023109E+02  0.40659155989E+02  0.00000000000E+00 0. -1.
         11    1    3    3    0    0 -0.23427408481E+01 -0.32363908020E+01  0.54652285475E+00  0.40325361247E+01  0.51100000000E-03 0. -1.
        -11    1    3    3    0    0  0.49748231736E+01 -0.14667982916E+02  0.27127807853E+02  0.31238062482E+02  0.51100000000E-03 0.  1.
        -12    1    3    3    0    0 -0.85324434695E+01  0.64413810514E+01  0.10886692401E+02  0.15258245405E+02  0.00000000000E+00 0.  1.
</event>
<event>
 7    1  0.5764931E-013  0.5052887E+02  0.7816164E-02  0.1300439E+00
        -11   -1    0    0    0    0  0.00000000000E+00  0.00000000000E+00  0.45593999997E+02  0.45594000000E+02  0.51100000000E-03 0.  1.
         11   -1    0    0    0    0 -0.00000000000E+00 -0.00000000000E+00 -0.45593999997E+02  0.45594000000E+02  0.51100000000E-03 0. -1.
    9900012    2    1    2    0    0  0.33563457785E+02  0.33938085544E+01  0.22696726667E+02  0.50528867736E+02  0.30000023971E+02 0.  0.
         12    1    1    2    0    0 -0.33563457785E+02 -0.33938085544E+01 -0.22696726667E+02  0.40659132264E+02  0.00000000000E+00 0. -1.
         11    1    3    3    0    0 -0.13744355851E+01  0.69843903058E+00 -0.15625090487E+01  0.21950683464E+01  0.51100000000E-03 0. -1.
        -11    1    3    3    0    0  0.34722556155E+02  0.86942161710E+01  0.21096498673E+02  0.41548857473E+02  0.51100000000E-03 0.  1.
        -12    1    3    3    0    0  0.21533721519E+00 -0.59988466472E+01  0.31627370432E+01  0.67849419170E+01  0.00000000000E+00 0.  1.
</event>
<event>
 7    1  0.5764931E-013  0.5052891E+02  0.7816164E-02  0.1300439E+00
        -11   -1    0    0    0    0  0.00000000000E+00  0.00000000000E+00  0.45593999997E+02  0.45594000000E+02  0.51100000000E-03 0. -1.
         11   -1    0    0    0    0 -0.00000000000E+00 -0.00000000000E+00 -0.45593999997E+02  0.45594000000E+02  0.51100000000E-03 0.  1.
    9900012    2    1    2    0    0 -0.35537240331E+00 -0.15467443384E+02 -0.37600448808E+02  0.50528906983E+02  0.30000143266E+02 0.  0.
         12    1    1    2    0    0  0.35537240331E+00  0.15467443384E+02  0.37600448808E+02  0.40659093017E+02  0.00000000000E+00 0. -1.
         11    1    3    3    0    0 -0.20239372778E+01 -0.15955146269E+01  0.49196794545E+01  0.55538486859E+01  0.51100000000E-03 0. -1.
        -11    1    3    3    0    0  0.45019542476E+00 -0.12686537900E+02 -0.34128351303E+02  0.36412845024E+02  0.51100000000E-03 0.  1.
         12    1    3    3    0    0  0.12183694497E+01 -0.11853908574E+01 -0.83917769597E+01  0.85622132736E+01  0.00000000000E+00 0. -1.
</event>
<event>
 7    1  0.5764931E-013  0.5052887E+02  0.7816164E-02  0.1300439E+00
        -11   -1    0    0    0    0  0.00000000000E+00  0.00000000000E+00  0.45593999997E+02  0.45594000000E+02  0.51100000000E-03 0. -1.
         11   -1    0    0    0    0 -0.00000000000E+00 -0.00000000000E+00 -0.45593999997E+02  0.45594000000E+02  0.51100000000E-03 0.  1.
    9900012    2    1    2    0    0 -0.84375889148E+01  0.26522999879E+02 -0.29639544837E+02  0.50528867601E+02  0.30000023560E+02 0.  0.
         12    1    1    2    0    0  0.84375889148E+01 -0.26522999879E+02  0.29639544837E+02  0.40659132399E+02  0.00000000000E+00 0. -1.
         11    1    3    3    0    0 -0.12372895693E+02  0.23594290952E+02 -0.10801740285E+02  0.28748160060E+02  0.51100000000E-03 0. -1.
        -11    1    3    3    0    0  0.22325297188E+01  0.63227702778E+01 -0.14742966250E+02  0.16196192980E+02  0.51100000000E-03 0.  1.
         12    1    3    3    0    0  0.17027770593E+01 -0.33940613510E+01 -0.40948383019E+01  0.55845145615E+01  0.00000000000E+00 0. -1.
</event>
<event>
 7    1  0.5764931E-013  0.5052886E+02  0.7816164E-02  0.1300439E+00
        -11   -1    0    0    0    0  0.00000000000E+00  0.00000000000E+00  0.45593999997E+02  0.45594000000E+02  0.51100000000E-03 0.  1.
         11   -1    0    0    0    0 -0.00000000000E+00 -0.00000000000E+00 -0.45593999997E+02  0.45594000000E+02  0.51100000000E-03 0. -1.
    9900012    2    1    2    0    0  0.26415621915E+02 -0.30896143841E+02 -0.89934024604E+00  0.50528860827E+02  0.30000002971E+02 0.  0.
         12    1    1    2    0    0 -0.26415621915E+02  0.30896143841E+02  0.89934024604E+00  0.40659139173E+02  0.00000000000E+00 0. -1.
         11    1    3    3    0    0  0.10068396676E+02 -0.49742766750E+01  0.11468957704E+02  0.16051574101E+02  0.51100000000E-03 0.  1.
        -11    1    3    3    0    0  0.99166929638E+01 -0.88257042582E+01 -0.86278501072E+01  0.15832676739E+02  0.51100000000E-03 0. -1.
         12    1    3    3    0    0  0.64305322754E+01 -0.17096162907E+02 -0.37404478424E+01  0.18644609987E+02  0.00000000000E+00 0. -1.
</event>
<event>
 7    1  0.5764931E-013  0.5052885E+02  0.7816164E-02  0.1300439E+00
        -11   -1    0    0    0    0  0.00000000000E+00  0.00000000000E+00  0.45593999997E+02  0.45594000000E+02  0.51100000000E-03 0. -1.
         11   -1    0    0    0    0 -0.00000000000E+00 -0.00000000000E+00 -0.45593999997E+02  0.45594000000E+02  0.51100000000E-03 0.  1.
    9900012    2    1    2    0    0 -0.66247330790E+00  0.32190002789E+02 -0.24830044281E+02  0.50528852820E+02  0.29999978632E+02 0.  0.
         12    1    1    2    0    0  0.66247330790E+00 -0.32190002789E+02  0.24830044281E+02  0.40659147180E+02  0.00000000000E+00 0. -1.
         11    1    3    3    0    0 -0.12976501318E+01 -0.24452136161E+00  0.26787775349E+01  0.29865592081E+01  0.51100000000E-03 0. -1.
        -11    1    3    3    0    0 -0.73696469494E+01  0.28898389544E+02 -0.19160911472E+02  0.35448119035E+02  0.51100000000E-03 0.  1.
        -12    1    3    3    0    0  0.80048237733E+01  0.35361346059E+01 -0.83479103438E+01  0.12094174577E+02  0.00000000000E+00 0.  1.
</event>
<event>
 7    1  0.5764931E-013  0.5052884E+02  0.7816164E-02  0.1300439E+00
        -11   -1    0    0    0    0  0.00000000000E+00  0.00000000000E+00  0.45593999997E+02  0.45594000000E+02  0.51100000000E-03 0. -1.
         11   -1    0    0    0    0 -0.00000000000E+00 -0.00000000000E+00 -0.45593999997E+02  0.45594000000E+02  0.51100000000E-03 0.  1.
    9900012    2    1    2    0    0 -0.23677599982E+02 -0.32202493484E+02 -0.74523746495E+01  0.50528840940E+02  0.29999942522E+02 0.  0.
         12    1    1    2    0    0  0.23677599982E+02  0.32202493484E+02  0.74523746495E+01  0.40659159060E+02  0.00000000000E+00 0. -1.
         11    1    3    3    0    0 -0.13395419546E+02 -0.83276412944E+01 -0.68780955976E+01  0.17207413334E+02  0.51100000000E-03 0.  1.
        -11    1    3    3    0    0  0.51937690845E+01 -0.81790346697E+01  0.45305887692E+01  0.10695703824E+02  0.51100000000E-03 0. -1.
         12    1    3    3    0    0 -0.15475949521E+02 -0.15695817520E+02 -0.51048678211E+01  0.22625723783E+02  0.00000000000E+00 0. -1.
</event>
<event>
 7    1  0.5764931E-013  0.5052885E+02  0.7816164E-02  0.1300439E+00
        -11   -1    0    0    0    0  0.00000000000E+00  0.00000000000E+00  0.45593999997E+02  0.45594000000E+02  0.51100000000E-03 0.  1.
         11   -1    0    0    0    0 -0.00000000000E+00 -0.00000000000E+00 -0.45593999997E+02  0.45594000000E+02  0.51100000000E-03 0. -1.
    9900012    2    1    2    0    0 -0.31417761467E+01  0.25541519111E+02  0.31478982134E+02  0.50528852541E+02  0.29999977784E+02 0.  0.
         12    1    1    2    0    0  0.31417761467E+01 -0.25541519111E+02 -0.31478982134E+02  0.40659147459E+02  0.00000000000E+00 0. -1.
         11    1    3    3    0    0 -0.12827435104E+02  0.66306964766E+01  0.28732218349E+01  0.14722928754E+02  0.51100000000E-03 0. -1.
        -11    1    3    3    0    0  0.59825535042E+01  0.11624534168E+02  0.14670107425E+02  0.19650261911E+02  0.51100000000E-03 0.  1.
         12    1    3    3    0    0  0.37031054536E+01  0.72862884669E+01  0.13935652875E+02  0.16155661877E+02  0.00000000000E+00 0. -1.
</event>
<event>
 7    1  0.6877667E-013  0.5052886E+02  0.7816164E-02  0.1300439E+00
        -11   -1    0    0    0    0  0.00000000000E+00  0.00000000000E+00  0.45593999997E+02  0.45594000000E+02  0.51100000000E-03 0.  1.
         11   -1    0    0    0    0 -0.00000000000E+00 -0.00000000000E+00 -0.45593999997E+02  0.45594000000E+02  0.51100000000E-03 0. -1.
    9900012    2    1    2    0    0 -0.39206493605E+02  0.96871020389E+01 -0.47092105286E+01  0.50528858955E+02  0.29999997281E+02 0.  0.
         12    1    1    2    0    0  0.39206493605E+02 -0.96871020389E+01  0.47092105286E+01  0.40659141045E+02  0.00000000000E+00 0. -1.
         11    1    3    3    0    0 -0.19968100545E-01  0.49402760327E+01 -0.73666995515E+01  0.88698922512E+01  0.51100000000E-03 0. -1.
        -11    1    3    3    0    0 -0.28175688868E+02  0.90568528496E+01  0.27404979795E+00  0.29596809461E+02  0.51100000000E-03 0.  1.
        -12    1    3    3    0    0 -0.11010836637E+02 -0.43100268434E+01  0.23834392249E+01  0.12062157244E+02  0.00000000000E+00 0.  1.
</event>
<event>
 7    1  0.5764931E-013  0.5052886E+02  0.7816164E-02  0.1300439E+00
        -11   -1    0    0    0    0  0.00000000000E+00  0.00000000000E+00  0.45593999997E+02  0.45594000000E+02  0.51100000000E-03 0. -1.
         11   -1    0    0    0    0 -0.00000000000E+00 -0.00000000000E+00 -0.45593999997E+02  0.45594000000E+02  0.51100000000E-03 0.  1.
    9900012    2    1    2    0    0  0.35060249307E+02 -0.20364955903E+02 -0.30353633312E+01  0.50528856613E+02  0.29999990161E+02 0.  0.
         12    1    1    2    0    0 -0.35060249307E+02  0.20364955903E+02  0.30353633312E+01  0.40659143387E+02  0.00000000000E+00 0. -1.
         11    1    3    3    0    0  0.22643860557E+02 -0.19357915200E+01 -0.61877574372E+01  0.23553769382E+02  0.51100000000E-03 0. -1.
        -11    1    3    3    0    0  0.15133611813E+02 -0.17449808247E+02  0.57696984385E+00  0.23105300448E+02  0.51100000000E-03 0.  1.
        -12    1    3    3    0    0 -0.27172230624E+01 -0.97935613630E+00  0.25754242622E+01  0.38697867826E+01  0.00000000000E+00 0.  1.
</event>
<event>
 7    1  0.5764931E-013  0.5052886E+02  0.7816164E-02  0.1300439E+00
        -11   -1    0    0    0    0  0.00000000000E+00  0.00000000000E+00  0.45593999997E+02  0.45594000000E+02  0.51100000000E-03 0.  1.
         11   -1    0    0    0    0 -0.00000000000E+00 -0.00000000000E+00 -0.45593999997E+02  0.45594000000E+02  0.51100000000E-03 0. -1.
    9900012    2    1    2    0    0  0.39010184784E+01  0.39965048939E+02  0.63829684958E+01  0.50528863650E+02  0.30000011552E+02 0.  0.
         12    1    1    2    0    0 -0.39010184784E+01 -0.39965048939E+02 -0.63829684958E+01  0.40659136350E+02  0.00000000000E+00 0. -1.
         11    1    3    3    0    0 -0.28051085876E+01  0.19172588660E+02 -0.33515559413E+01  0.19664427721E+02  0.51100000000E-03 0. -1.
        -11    1    3    3    0    0  0.11735852838E+02  0.73725120892E+01  0.60621096342E+00  0.13872695064E+02  0.51100000000E-03 0.  1.
        -12    1    3    3    0    0 -0.50297257721E+01  0.13419948191E+02  0.91283134737E+01  0.16991740866E+02  0.00000000000E+00 0.  1.
</event>
<event>
 7    1  0.5764931E-013  0.5052886E+02  0.7816164E-02  0.1300439E+00
        -11   -1    0    0    0    0  0.00000000000E+00  0.00000000000E+00  0.45593999997E+02  0.45594000000E+02  0.51100000000E-03 0. -1.
         11   -1    0    0    0    0 -0.00000000000E+00 -0.00000000000E+00 -0.45593999997E+02  0.45594000000E+02  0.51100000000E-03 0.  1.
    9900012    2    1    2    0    0 -0.61203016163E+01  0.70399395337E+01 -0.39574570616E+02  0.50528862282E+02  0.30000007392E+02 0.  0.
         12    1    1    2    0    0  0.61203016163E+01 -0.70399395337E+01  0.39574570616E+02  0.40659137718E+02  0.00000000000E+00 0. -1.
         11    1    3    3    0    0 -0.34284832197E+01  0.93404499631E+01 -0.18905335625E+01  0.10127814182E+02  0.51100000000E-03 0. -1.
        -11    1    3    3    0    0 -0.81229868351E+01 -0.36444320897E+01 -0.24994570845E+02  0.26532873429E+02  0.51100000000E-03 0.  1.
        -12    1    3    3    0    0  0.54311684384E+01  0.13439216604E+01 -0.12689466209E+02  0.13868174671E+02  0.00000000000E+00 0.  1.
</event>
<event>
 7    1  0.5764931E-013  0.5052886E+02  0.7816164E-02  0.1300439E+00
        -11   -1    0    0    0    0  0.00000000000E+00  0.00000000000E+00  0.45593999997E+02  0.45594000000E+02  0.51100000000E-03 0.  1.
         11   -1    0    0    0    0 -0.00000000000E+00 -0.00000000000E+00 -0.45593999997E+02  0.45594000000E+02  0.51100000000E-03 0. -1.
    9900012    2    1    2    0    0  0.22705647507E+02 -0.33545018782E+02 -0.35144099082E+01  0.50528858460E+02  0.29999995775E+02 0.  0.
         12    1    1    2    0    0 -0.22705647507E+02  0.33545018782E+02  0.35144099082E+01  0.40659141540E+02  0.00000000000E+00 0. -1.
         11    1    3    3    0    0 -0.54785085144E+01 -0.14973132389E+01  0.39183916905E+01  0.68999852303E+01  0.51100000000E-03 0. -1.
        -11    1    3    3    0    0  0.10650306395E+02 -0.96654519694E+01 -0.43724873942E+01  0.15032253137E+02  0.51100000000E-03 0.  1.
         12    1    3    3    0    0  0.17533849626E+02 -0.22382253573E+02 -0.30603142044E+01  0.28596620093E+02  0.00000000000E+00 0. -1.
</event>
<event>
 7    1  0.5764931E-013  0.5052886E+02  0.7816164E-02  0.1300439E+00
        -11   -1    0    0    0    0  0.00000000000E+00  0.00000000000E+00  0.45593999997E+02  0.45594000000E+02  0.51100000000E-03 0.  1.
         11   -1    0    0    0    0 -0.00000000000E+00 -0.00000000000E+00 -0.45593999997E+02  0.45594000000E+02  0.51100000000E-03 0. -1.
    9900012    2    1    2    0    0  0.20305377682E+02  0.30866359645E+02  0.16974245210E+02  0.50528861777E+02  0.30000005859E+02 0.  0.
         12    1    1    2    0    0 -0.20305377682E+02 -0.30866359645E+02 -0.16974245210E+02  0.40659138223E+02  0.00000000000E+00 0. -1.
         11    1    3    3    0    0  0.93216565019E+01 -0.21850888376E+01  0.16211221379E+01  0.97106091680E+01  0.51100000000E-03 0.  1.
        -11    1    3    3    0    0  0.35612891679E+01  0.29218031784E+02  0.12655160459E+02  0.32039495133E+02  0.51100000000E-03 0. -1.
         12    1    3    3    0    0  0.74224320127E+01  0.38334166983E+01  0.26979626137E+01  0.87787574765E+01  0.00000000000E+00 0. -1.
</event>
<event>
 7    1  0.5764931E-013  0.5052886E+02  0.7816164E-02  0.1300439E+00
        -11   -1    0    0    0    0  0.00000000000E+00  0.00000000000E+00  0.45593999997E+02  0.45594000000E+02  0.51100000000E-03 0.  1.
         11   -1    0    0    0    0 -0.00000000000E+00 -0.00000000000E+00 -0.45593999997E+02  0.45594000000E+02  0.51100000000E-03 0. -1.
    9900012    2    1    2    0    0  0.39761768814E+02  0.84678690864E+01  0.68008354473E+00  0.50528861056E+02  0.30000003665E+02 0.  0.
         12    1    1    2    0    0 -0.39761768814E+02 -0.84678690864E+01 -0.68008354473E+00  0.40659138944E+02  0.00000000000E+00 0. -1.
         11    1    3    3    0    0  0.21430467157E+02  0.14411264927E+00 -0.12321711317E+02  0.24720644431E+02  0.51100000000E-03 0. -1.
        -11    1    3    3    0    0  0.19280219781E+02  0.88292725759E+01  0.12178303114E+02  0.24453915760E+02  0.51100000000E-03 0.  1.
        -12    1    3    3    0    0 -0.94891812427E+00 -0.50551613876E+00  0.82349174766E+00  0.13543008645E+01  0.00000000000E+00 0.  1.
</event>
<event>
 7    1  0.5764931E-013  0.5052887E+02  0.7816164E-02  0.1300439E+00
        -11   -1    0    0    0    0  0.00000000000E+00  0.00000000000E+00  0.45593999997E+02  0.45594000000E+02  0.51100000000E-03 0.  1.
         11   -1    0    0    0    0 -0.00000000000E+00 -0.00000000000E+00 -0.45593999997E+02  0.45594000000E+02  0.51100000000E-03 0. -1.
    9900012    2    1    2    0    0 -0.35732499995E+00  0.74576238692E+01  0.39967753770E+02  0.50528866016E+02  0.30000018742E+02 0.  0.
         12    1    1    2    0    0  0.35732499995E+00 -0.74576238692E+01 -0.39967753770E+02  0.40659133984E+02  0.00000000000E+00 0. -1.
         11    1    3    3    0    0 -0.21185122268E+01 -0.62460700067E+01  0.14606366350E+01  0.67553641074E+01  0.51100000000E-03 0. -1.
        -11    1    3    3    0    0  0.58112883095E+01  0.13018718992E+02  0.36532656383E+02  0.39215980144E+02  0.51100000000E-03 0.  1.
        -12    1    3    3    0    0 -0.40501010826E+01  0.68497488339E+00  0.19744607519E+01  0.45575217642E+01  0.00000000000E+00 0.  1.
</event>
<event>
 7    1  0.5764931E-013  0.5052884E+02  0.7816164E-02  0.1300439E+00
        -11   -1    0    0    0    0  0.00000000000E+00  0.00000000000E+00  0.45593999997E+02  0.45594000000E+02  0.51100000000E-03 0.  1.
         11   -1    0    0    0    0 -0.00000000000E+00 -0.00000000000E+00 -0.45593999997E+02  0.45594000000E+02  0.51100000000E-03 0. -1.
    9900012    2    1    2    0    0 -0.12125618588E+02  0.29161078372E+02  0.25607976139E+02  0.50528836704E+02  0.29999929646E+02 0.  0.
         12    1    1    2    0    0  0.12125618588E+02 -0.29161078372E+02 -0.25607976139E+02  0.40659163296E+02  0.00000000000E+00 0. -1.
         11    1    3    3    0    0 -0.50739408829E+01  0.16829072104E+02 -0.30529033245E+01  0.17840481017E+02  0.51100000000E-03 0. -1.
        -11    1    3    3    0    0 -0.52516285390E+01  0.46181415226E+01  0.83753721151E+01  0.10911172795E+02  0.51100000000E-03 0.  1.
         12    1    3    3    0    0 -0.18000491661E+01  0.77138647457E+01  0.20285507349E+02  0.21777182892E+02  0.00000000000E+00 0. -1.
</event>
<event>
 7    1  0.5764931E-013  0.5052886E+02  0.7816164E-02  0.1300439E+00
        -11   -1    0    0    0    0  0.00000000000E+00  0.00000000000E+00  0.45593999997E+02  0.45594000000E+02  0.51100000000E-03 0.  1.
         11   -1    0    0    0    0 -0.00000000000E+00 -0.00000000000E+00 -0.45593999997E+02  0.45594000000E+02  0.51100000000E-03 0. -1.
    9900012    2    1    2    0    0  0.19022828311E+02 -0.22899935590E+02  0.27692785924E+02  0.50528862783E+02  0.30000008915E+02 0.  0.
         12    1    1    2    0    0 -0.19022828311E+02  0.22899935590E+02 -0.27692785924E+02  0.40659137217E+02  0.00000000000E+00 0. -1.
         11    1    3    3    0    0 -0.60630327994E+01 -0.53336539632E+01  0.10911059351E+02  0.13574219968E+02  0.51100000000E-03 0. -1.
        -11    1    3    3    0    0  0.19136193317E+02 -0.81982618331E+01  0.64567049999E+01  0.21796661016E+02  0.51100000000E-03 0.  1.
        -12    1    3    3    0    0  0.59496677935E+01 -0.93680197941E+01  0.10325021573E+02  0.15157981799E+02  0.00000000000E+00 0.  1.
</event>
<event>
 7    1  0.5764931E-013  0.5052880E+02  0.7816164E-02  0.1300439E+00
        -11   -1    0    0    0    0  0.00000000000E+00  0.00000000000E+00  0.45593999997E+02  0.45594000000E+02  0.51100000000E-03 0.  1.
         11   -1    0    0    0    0 -0.00000000000E+00 -0.00000000000E+00 -0.45593999997E+02  0.45594000000E+02  0.51100000000E-03 0. -1.
    9900012    2    1    2    0    0  0.14440172552E+02  0.15226211453E+02  0.34825489641E+02  0.50528796525E+02  0.29999807516E+02 0.  0.
         12    1    1    2    0    0 -0.14440172552E+02 -0.15226211453E+02 -0.34825489641E+02  0.40659203475E+02  0.00000000000E+00 0. -1.
         11    1    3    3    0    0  0.85000589299E+01  0.71868160719E+01 -0.27041819565E+01  0.11454864791E+02  0.51100000000E-03 0. -1.
        -11    1    3    3    0    0  0.27749635063E+01  0.65361018342E+01  0.20720612606E+02  0.21903534798E+02  0.51100000000E-03 0.  1.
         12    1    3    3    0    0  0.31651501157E+01  0.15032935470E+01  0.16809058992E+02  0.17170396936E+02  0.00000000000E+00 0. -1.
</event>
<event>
 7    1  0.5764931E-013  0.5052894E+02  0.7816164E-02  0.1300439E+00
        -11   -1    0    0    0    0  0.00000000000E+00  0.00000000000E+00  0.45593999997E+02  0.45594000000E+02  0.51100000000E-03 0. -1.
         11   -1    0    0    0    0 -0.00000000000E+00 -0.00000000000E+00 -0.45593999997E+02  0.45594000000E+02  0.51100000000E-03 0.  1.
    9900012    2    1    2    0    0 -0.24834584120E+02 -0.10074136067E+02  0.30576373934E+02  0.50528936695E+02  0.30000233577E+02 0.  0.
         12    1    1    2    0    0  0.24834584120E+02  0.10074136067E+02 -0.30576373934E+02  0.40659063305E+02  0.00000000000E+00 0. -1.
         11    1    3    3    0    0 -0.77836825957E+00  0.91781070857E+01  0.90433783118E+01  0.12908377062E+02  0.51100000000E-03 0. -1.
        -11    1    3    3    0    0 -0.75986731575E+01 -0.66912312183E+01  0.77192816220E+01  0.12731838751E+02  0.51100000000E-03 0.  1.
         12    1    3    3    0    0 -0.16457542703E+02 -0.12561011934E+02  0.13813714000E+02  0.24888720881E+02  0.00000000000E+00 0. -1.
</event>
<event>
 7    1  0.5764931E-013  0.5052887E+02  0.7816164E-02  0.1300439E+00
        -11   -1    0    0    0    0  0.00000000000E+00  0.00000000000E+00  0.45593999997E+02  0.45594000000E+02  0.51100000000E-03 0.  1.
         11   -1    0    0    0    0 -0.00000000000E+00 -0.00000000000E+00 -0.45593999997E+02  0.45594000000E+02  0.51100000000E-03 0. -1.
    9900012    2    1    2    0    0  0.28499919070E+02  0.11658980653E+01  0.28975171130E+02  0.50528865143E+02  0.30000016089E+02 0.  0.
         12    1    1    2    0    0 -0.28499919070E+02 -0.11658980653E+01 -0.28975171130E+02  0.40659134857E+02  0.00000000000E+00 0. -1.
         11    1    3    3    0    0  0.24105017062E+01  0.62089087737E+01  0.70032942903E+01  0.96647399248E+01  0.51100000000E-03 0. -1.
        -11    1    3    3    0    0  0.13495747773E+02 -0.11344066275E+02  0.19972855098E+02  0.26640908180E+02  0.51100000000E-03 0.  1.
        -12    1    3    3    0    0  0.12593669591E+02  0.63010555663E+01  0.19990217415E+01  0.14223217039E+02  0.00000000000E+00 0.  1.
</event>
<event>
 7    1  0.5764931E-013  0.5052886E+02  0.7816164E-02  0.1300439E+00
        -11   -1    0    0    0    0  0.00000000000E+00  0.00000000000E+00  0.45593999997E+02  0.45594000000E+02  0.51100000000E-03 0. -1.
         11   -1    0    0    0    0 -0.00000000000E+00 -0.00000000000E+00 -0.45593999997E+02  0.45594000000E+02  0.51100000000E-03 0.  1.
    9900012    2    1    2    0    0  0.31661457349E+02 -0.16984133925E+02 -0.19033055638E+02  0.50528857196E+02  0.29999991932E+02 0.  0.
         12    1    1    2    0    0 -0.31661457349E+02  0.16984133925E+02  0.19033055638E+02  0.40659142804E+02  0.00000000000E+00 0. -1.
         11    1    3    3    0    0  0.10553693691E+02 -0.17265959704E+02 -0.11704259000E+02  0.23376986419E+02  0.51100000000E-03 0. -1.
        -11    1    3    3    0    0 -0.87042533945E+00  0.32805570806E+01 -0.30458257521E+01  0.45603453602E+01  0.51100000000E-03 0.  1.
         12    1    3    3    0    0  0.21978188998E+02 -0.29987313020E+01 -0.42829708860E+01  0.22591525417E+02  0.00000000000E+00 0. -1.
</event>
<event>
 7    1  0.5764931E-013  0.5052884E+02  0.7816164E-02  0.1300439E+00
        -11   -1    0    0    0    0  0.00000000000E+00  0.00000000000E+00  0.45593999997E+02  0.45594000000E+02  0.51100000000E-03 0.  1.
         11   -1    0    0    0    0 -0.00000000000E+00 -0.00000000000E+00 -0.45593999997E+02  0.45594000000E+02  0.51100000000E-03 0. -1.
    9900012    2    1    2    0    0 -0.23540491229E+02 -0.23837006274E+01  0.33065550017E+02  0.50528839238E+02  0.29999937347E+02 0.  0.
         12    1    1    2    0    0  0.23540491229E+02  0.23837006274E+01 -0.33065550017E+02  0.40659160762E+02  0.00000000000E+00 0. -1.
         11    1    3    3    0    0 -0.51355248446E+01 -0.45738980428E+01  0.22343681925E+02  0.23378072652E+02  0.51100000000E-03 0.  1.
        -11    1    3    3    0    0  0.72125477007E+00  0.52460653862E+01  0.69606419167E+00  0.53409658396E+01  0.51100000000E-03 0. -1.
         12    1    3    3    0    0 -0.19126221155E+02 -0.30558679708E+01  0.10025803900E+02  0.21809800746E+02  0.00000000000E+00 0. -1.
</event>
<event>
 7    1  0.5764931E-013  0.5052886E+02  0.7816164E-02  0.1300439E+00
        -11   -1    0    0    0    0  0.00000000000E+00  0.00000000000E+00  0.45593999997E+02  0.45594000000E+02  0.51100000000E-03 0.  1.
         11   -1    0    0    0    0 -0.00000000000E+00 -0.00000000000E+00 -0.45593999997E+02  0.45594000000E+02  0.51100000000E-03 0. -1.
    9900012    2    1    2    0    0 -0.10016116504E+02 -0.31522690981E+02  0.23646627828E+02  0.50528860263E+02  0.30000001255E+02 0.  0.
         12    1    1    2    0    0  0.10016116504E+02  0.31522690981E+02 -0.23646627828E+02  0.40659139737E+02  0.00000000000E+00 0. -1.
         11    1    3    3    0    0  0.62584981744E+01  0.25698093556E-01  0.69300201602E+01  0.93378069948E+01  0.51100000000E-03 0.  1.
        -11    1    3    3    0    0 -0.52005430147E+01 -0.80980615258E+01 -0.11588597886E+01  0.96936682630E+01  0.51100000000E-03 0. -1.
         12    1    3    3    0    0 -0.11074071664E+02 -0.23450327549E+02  0.17875467456E+02  0.31497385005E+02  0.00000000000E+00 0. -1.
</event>
<event>
 7    1  0.5764931E-013  0.5052886E+02  0.7816164E-02  0.1300439E+00
        -11   -1    0    0    0    0  0.00000000000E+00  0.00000000000E+00  0.45593999997E+02  0.45594000000E+02  0.51100000000E-03 0.  1.
         11   -1    0    0    0    0 -0.00000000000E+00 -0.00000000000E+00 -0.45593999997E+02  0.45594000000E+02  0.51100000000E-03 0. -1.
    9900012    2    1    2    0    0  0.25805407150E+02 -0.19423866910E+02  0.24697369592E+02  0.50528859469E+02  0.29999998843E+02 0.  0.
         12    1    1    2    0    0 -0.25805407150E+02  0.19423866910E+02 -0.24697369592E+02  0.40659140531E+02  0.00000000000E+00 0. -1.
         11    1    3    3    0    0 -0.28502847298E+01  0.12412719674E+01 -0.16511682239E+01  0.35201187342E+01  0.51100000000E-03 0. -1.
        -11    1    3    3    0    0  0.10796194227E+02 -0.16631937448E+02  0.18392590512E+02  0.27045638078E+02  0.51100000000E-03 0.  1.
         12    1    3    3    0    0  0.17859497653E+02 -0.40332014299E+01  0.79559473040E+01  0.19963102657E+02  0.00000000000E+00 0. -1.
</event>
<event>
 7    1  0.5764931E-013  0.5052885E+02  0.7816164E-02  0.1300439E+00
        -11   -1    0    0    0    0  0.00000000000E+00  0.00000000000E+00  0.45593999997E+02  0.45594000000E+02  0.51100000000E-03 0. -1.
         11   -1    0    0    0    0 -0.00000000000E+00 -0.00000000000E+00 -0.45593999997E+02  0.45594000000E+02  0.51100000000E-03 0.  1.
    9900012    2    1    2    0    0  0.28890015876E+02 -0.94566390825E+00  0.28594389914E+02  0.50528850573E+02  0.29999971802E+02 0.  0.
         12    1    1    2    0    0 -0.28890015876E+02  0.94566390825E+00 -0.28594389914E+02  0.40659149427E+02  0.00000000000E+00 0. -1.
         11    1    3    3    0    0  0.52811047458E+01 -0.79059857053E+01  0.85627584250E+01  0.12795136162E+02  0.51100000000E-03 0. -1.
        -11    1    3    3    0    0  0.27045699303E+02  0.67035734043E+01  0.19979682820E+02  0.34286957769E+02  0.51100000000E-03 0.  1.
        -12    1    3    3    0    0 -0.34367881728E+01  0.25674839281E+00  0.51948668739E-01  0.34467566416E+01  0.00000000000E+00 0.  1.
</event>
<event>
 7    1  0.5764931E-013  0.5052886E+02  0.7816164E-02  0.1300439E+00
        -11   -1    0    0    0    0  0.00000000000E+00  0.00000000000E+00  0.45593999997E+02  0.45594000000E+02  0.51100000000E-03 0.  1.
         11   -1    0    0    0    0 -0.00000000000E+00 -0.00000000000E+00 -0.45593999997E+02  0.45594000000E+02  0.51100000000E-03 0. -1.
    9900012    2    1    2    0    0  0.19963149445E+02  0.15114352043E+02  0.32034269949E+02  0.50528862963E+02  0.30000009462E+02 0.  0.
         12    1    1    2    0    0 -0.19963149445E+02 -0.15114352043E+02 -0.32034269949E+02  0.40659137037E+02  0.00000000000E+00 0. -1.
         11    1    3    3    0    0 -0.20565133737E+01 -0.22961585185E+01  0.19021608080E+01  0.36221274410E+01  0.51100000000E-03 0. -1.
        -11    1    3    3    0    0  0.11990943899E+02  0.21189585404E+02  0.25421931036E+02  0.35200225042E+02  0.51100000000E-03 0.  1.
        -12    1    3    3    0    0  0.10028718920E+02 -0.37790748423E+01  0.47101781051E+01  0.11706510480E+02  0.00000000000E+00 0.  1.
</event>
<event>
 7    1  0.5764931E-013  0.5052886E+02  0.7816164E-02  0.1300439E+00
        -11   -1    0    0    0    0  0.00000000000E+00  0.00000000000E+00  0.45593999997E+02  0.45594000000E+02  0.51100000000E-03 0. -1.
         11   -1    0    0    0    0 -0.00000000000E+00 -0.00000000000E+00 -0.45593999997E+02  0.45594000000E+02  0.51100000000E-03 0.  1.
    9900012    2    1    2    0    0  0.32986796028E+02 -0.11389022004E+02  0.20864489113E+02  0.50528862769E+02  0.30000008874E+02 0.  0.
         12    1    1    2    0    0 -0.32986796028E+02  0.11389022004E+02 -0.20864489113E+02  0.40659137231E+02  0.00000000000E+00 0. -1.
         11    1    3    3    0    0  0.11864060365E+02 -0.32695631662E+00  0.13091721925E+02  0.17670767159E+02  0.51100000000E-03 0. -1.
        -11    1    3    3    0    0 -0.23845134122E+01 -0.45316672341E+00 -0.38647539879E+01  0.45637252262E+01  0.51100000000E-03 0.  1.
        -12    1    3    3    0    0  0.23507249075E+02 -0.10608898964E+02  0.11637521177E+02  0.28294370384E+02  0.00000000000E+00 0.  1.
</event>
<event>
 7    1  0.5764931E-013  0.5052886E+02  0.7816164E-02  0.1300439E+00
        -11   -1    0    0    0    0  0.00000000000E+00  0.00000000000E+00  0.45593999997E+02  0.45594000000E+02  0.51100000000E-03 0.  1.
         11   -1    0    0    0    0 -0.00000000000E+00 -0.00000000000E+00 -0.45593999997E+02  0.45594000000E+02  0.51100000000E-03 0. -1.
    9900012    2    1    2    0    0  0.13376590710E+02  0.37357964316E+02  0.88665019136E+01  0.50528861630E+02  0.30000005409E+02 0.  0.
         12    1    1    2    0    0 -0.13376590710E+02 -0.37357964316E+02 -0.88665019136E+01  0.40659138370E+02  0.00000000000E+00 0. -1.
         11    1    3    3    0    0  0.14057510969E+01  0.30075997376E+02  0.16150934607E+02  0.34167154451E+02  0.51100000000E-03 0.  1.
        -11    1    3    3    0    0  0.76502330876E+01  0.24161364211E+01 -0.50584372535E+01  0.94842801102E+01  0.51100000000E-03 0. -1.
        -12    1    3    3    0    0  0.43206065256E+01  0.48658305185E+01 -0.22259954401E+01  0.68774270685E+01  0.00000000000E+00 0.  1.
</event>
<event>
 7    1  0.5764931E-013  0.5052884E+02  0.7816164E-02  0.1300439E+00
        -11   -1    0    0    0    0  0.00000000000E+00  0.00000000000E+00  0.45593999997E+02  0.45594000000E+02  0.51100000000E-03 0.  1.
         11   -1    0    0    0    0 -0.00000000000E+00 -0.00000000000E+00 -0.45593999997E+02  0.45594000000E+02  0.51100000000E-03 0. -1.
    9900012    2    1    2    0    0  0.43880108544E+01 -0.22036968749E+02  0.33886348183E+02  0.50528840834E+02  0.29999942200E+02 0.  0.
         12    1    1    2    0    0 -0.43880108544E+01  0.22036968749E+02 -0.33886348183E+02  0.40659159166E+02  0.00000000000E+00 0. -1.
         11    1    3    3    0    0  0.55771309481E+00 -0.20557667186E+02  0.14242393038E+02  0.25015484879E+02  0.51100000000E-03 0. -1.
        -11    1    3    3    0    0  0.94455989559E+01  0.19669004937E+01  0.12578960462E+02  0.15853021282E+02  0.51100000000E-03 0.  1.
        -12    1    3    3    0    0 -0.56153011963E+01 -0.34462020562E+01  0.70649946824E+01  0.96603346733E+01  0.00000000000E+00 0.  1.
</event>
<event>
 7    1  0.5764931E-013  0.5052875E+02  0.7816164E-02  0.1300439E+00
        -11   -1    0    0    0    0  0.00000000000E+00  0.00000000000E+00  0.45593999997E+02  0.45594000000E+02  0.51100000000E-03 0.  1.
         11   -1    0    0    0    0 -0.00000000000E+00 -0.00000000000E+00 -0.45593999997E+02  0.45594000000E+02  0.51100000000E-03 0. -1.
    9900012    2    1    2    0    0  0.43021386812E+01  0.17990336513E+02  0.36207930082E+02  0.50528747598E+02  0.29999658797E+02 0.  0.
         12    1    1    2    0    0 -0.43021386812E+01 -0.17990336513E+02 -0.36207930082E+02  0.40659252402E+02  0.00000000000E+00 0. -1.
         11    1    3    3    0    0 -0.86143891895E+01  0.98808242400E+01  0.17626882167E+02  0.21966915213E+02  0.51100000000E-03 0. -1.
        -11    1    3    3    0    0  0.71156143046E+01  0.37332955134E+01  0.19638444223E+02  0.21218811326E+02  0.51100000000E-03 0.  1.
         12    1    3    3    0    0  0.58009135661E+01  0.43762167592E+01 -0.10573963084E+01  0.73430210594E+01  0.00000000000E+00 0. -1.
</event>
<event>
 7    1  0.5764931E-013  0.5052889E+02  0.7816164E-02  0.1300439E+00
        -11   -1    0    0    0    0  0.00000000000E+00  0.00000000000E+00  0.45593999997E+02  0.45594000000E+02  0.51100000000E-03 0.  1.
         11   -1    0    0    0    0 -0.00000000000E+00 -0.00000000000E+00 -0.45593999997E+02  0.45594000000E+02  0.51100000000E-03 0. -1.
    9900012    2    1    2    0    0 -0.23221756504E+02 -0.33369955406E+02 -0.59975532764E+00  0.50528885334E+02  0.30000077462E+02 0.  0.
         12    1    1    2    0    0  0.23221756504E+02  0.33369955406E+02  0.59975532764E+00  0.40659114666E+02  0.00000000000E+00 0. -1.
         11    1    3    3    0    0 -0.13947816687E+01 -0.21768229566E+02  0.44001022345E+01  0.22252238860E+02  0.51100000000E-03 0. -1.
        -11    1    3    3    0    0 -0.11229374525E+02 -0.64207919447E+01 -0.90694958415E+01  0.15798138388E+02  0.51100000000E-03 0.  1.
         12    1    3    3    0    0 -0.10597600310E+02 -0.51809338955E+01  0.40696382794E+01  0.12478508087E+02  0.00000000000E+00 0. -1.
</event>
<event>
 7    1  0.5764931E-013  0.5052886E+02  0.7816164E-02  0.1300439E+00
        -11   -1    0    0    0    0  0.00000000000E+00  0.00000000000E+00  0.45593999997E+02  0.45594000000E+02  0.51100000000E-03 0. -1.
         11   -1    0    0    0    0 -0.00000000000E+00 -0.00000000000E+00 -0.45593999997E+02  0.45594000000E+02  0.51100000000E-03 0.  1.
    9900012    2    1    2    0    0  0.22546397500E+02  0.15583227060E+02 -0.30033119748E+02  0.50528864647E+02  0.30000014582E+02 0.  0.
         12    1    1    2    0    0 -0.22546397500E+02 -0.15583227060E+02  0.30033119748E+02  0.40659135353E+02  0.00000000000E+00 0. -1.
         11    1    3    3    0    0 -0.43745136636E+01  0.19190258999E+01  0.88436888810E+00  0.48581003272E+01  0.51100000000E-03 0. -1.
        -11    1    3    3    0    0  0.22640249749E+02  0.64893722268E+01 -0.15683060771E+02  0.28295781594E+02  0.51100000000E-03 0.  1.
        -12    1    3    3    0    0  0.42806614146E+01  0.71748289333E+01 -0.15234427865E+02  0.17374982726E+02  0.00000000000E+00 0.  1.
</event>
<event>
 7    1  0.5764931E-013  0.5052885E+02  0.7816164E-02  0.1300439E+00
        -11   -1    0    0    0    0  0.00000000000E+00  0.00000000000E+00  0.45593999997E+02  0.45594000000E+02  0.51100000000E-03 0.  1.
         11   -1    0    0    0    0 -0.00000000000E+00 -0.00000000000E+00 -0.45593999997E+02  0.45594000000E+02  0.51100000000E-03 0. -1.
    9900012    2    1    2    0    0  0.10407636219E+02  0.18358770980E+02  0.34753457233E+02  0.50528854003E+02  0.29999982228E+02 0.  0.
         12    1    1    2    0    0 -0.10407636219E+02 -0.18358770980E+02 -0.34753457233E+02  0.40659145997E+02  0.00000000000E+00 0. -1.
         11    1    3    3    0    0 -0.11514453242E+00  0.47872850082E+01  0.18382524326E+00  0.47921965730E+01  0.51100000000E-03 0. -1.
        -11    1    3    3    0    0  0.14877985477E+02  0.46784618251E+01  0.31856622679E+02  0.35469520235E+02  0.51100000000E-03 0.  1.
        -12    1    3    3    0    0 -0.43552047252E+01  0.88930241466E+01  0.27130093104E+01  0.10267137195E+02  0.00000000000E+00 0.  1.
</event>
<event>
 7    1  0.5764931E-013  0.5052886E+02  0.7816164E-02  0.1300439E+00
        -11   -1    0    0    0    0  0.00000000000E+00  0.00000000000E+00  0.45593999997E+02  0.45594000000E+02  0.51100000000E-03 0.  1.
         11   -1    0    0    0    0 -0.00000000000E+00 -0.00000000000E+00 -0.45593999997E+02  0.45594000000E+02  0.51100000000E-03 0. -1.
    9900012    2    1    2    0    0  0.27273629139E+02  0.13499738377E+02  0.26964272464E+02  0.50528858689E+02  0.29999996471E+02 0.  0.
         12    1    1    2    0    0 -0.27273629139E+02 -0.13499738377E+02 -0.26964272464E+02  0.40659141311E+02  0.00000000000E+00 0. -1.
         11    1    3    3    0    0 -0.17701630534E+01  0.59771031535E+01  0.39936004515E+01  0.74032482176E+01  0.51100000000E-03 0. -1.
        -11    1    3    3    0    0  0.24277325059E+02 -0.19827397314E+01  0.99434271616E+01  0.26309532737E+02  0.51100000000E-03 0.  1.
        -12    1    3    3    0    0  0.47664671333E+01  0.95053749545E+01  0.13027244851E+02  0.16816077735E+02  0.00000000000E+00 0.  1.
</event>
<event>
 7    1  0.5764931E-013  0.5052886E+02  0.7816164E-02  0.1300439E+00
        -11   -1    0    0    0    0  0.00000000000E+00  0.00000000000E+00  0.45593999997E+02  0.45594000000E+02  0.51100000000E-03 0.  1.
         11   -1    0    0    0    0 -0.00000000000E+00 -0.00000000000E+00 -0.45593999997E+02  0.45594000000E+02  0.51100000000E-03 0. -1.
    9900012    2    1    2    0    0 -0.90837237608E+01  0.35670566422E+01  0.39470591443E+02  0.50528861798E+02  0.30000005922E+02 0.  0.
         12    1    1    2    0    0  0.90837237608E+01 -0.35670566422E+01 -0.39470591443E+02  0.40659138202E+02  0.00000000000E+00 0. -1.
         11    1    3    3    0    0 -0.12891076993E+02  0.54839399921E+01  0.56612432038E+01  0.15109703463E+02  0.51100000000E-03 0. -1.
        -11    1    3    3    0    0 -0.20287474094E+01 -0.36384187187E+01  0.97570431920E+01  0.10609137521E+02  0.51100000000E-03 0.  1.
         12    1    3    3    0    0  0.58361006412E+01  0.17215353688E+01  0.24052305047E+02  0.24810020814E+02  0.00000000000E+00 0. -1.
</event>
<event>
 7    1  0.5764931E-013  0.5052886E+02  0.7816164E-02  0.1300439E+00
        -11   -1    0    0    0    0  0.00000000000E+00  0.00000000000E+00  0.45593999997E+02  0.45594000000E+02  0.51100000000E-03 0.  1.
         11   -1    0    0    0    0 -0.00000000000E+00 -0.00000000000E+00 -0.45593999997E+02  0.45594000000E+02  0.51100000000E-03 0. -1.
    9900012    2    1    2    0    0  0.19894256216E+02  0.65256406255E+01  0.34853983664E+02  0.50528860889E+02  0.30000003158E+02 0.  0.
         12    1    1    2    0    0 -0.19894256216E+02 -0.65256406255E+01 -0.34853983664E+02  0.40659139111E+02  0.00000000000E+00 0. -1.
         11    1    3    3    0    0 -0.70749245187E+00 -0.64617516333E+01  0.70734648382E+01  0.96066999963E+01  0.51100000000E-03 0. -1.
        -11    1    3    3    0    0  0.12401164828E+02  0.16428176951E+02  0.22849412350E+02  0.30753366190E+02  0.51100000000E-03 0.  1.
        -12    1    3    3    0    0  0.82005838402E+01 -0.34407846926E+01  0.49311064765E+01  0.10168794703E+02  0.00000000000E+00 0.  1.
</event>
<event>
 7    1  0.5764931E-013  0.5052887E+02  0.7816164E-02  0.1300439E+00
        -11   -1    0    0    0    0  0.00000000000E+00  0.00000000000E+00  0.45593999997E+02  0.45594000000E+02  0.51100000000E-03 0. -1.
         11   -1    0    0    0    0 -0.00000000000E+00 -0.00000000000E+00 -0.45593999997E+02  0.45594000000E+02  0.51100000000E-03 0.  1.
    9900012    2    1    2    0    0 -0.27872716955E+02  0.26240352965E+02 -0.13701120283E+02  0.50528866080E+02  0.30000018936E+02 0.  0.
         12    1    1    2    0    0  0.27872716955E+02 -0.26240352965E+02  0.13701120283E+02  0.40659133920E+02  0.00000000000E+00 0. -1.
         11    1    3    3    0    0 -0.46800191062E+01  0.15755220396E+02  0.47480379742E+01  0.17107700413E+02  0.51100000000E-03 0. -1.
        -11    1    3    3    0    0 -0.20131351248E+02  0.55394795480E+01 -0.99675247138E+01  0.23136738878E+02  0.51100000000E-03 0.  1.
        -12    1    3    3    0    0 -0.30613466007E+01  0.49456530207E+01 -0.84816335429E+01  0.10284426788E+02  0.00000000000E+00 0.  1.
</event>
<event>
 7    1  0.5764931E-013  0.5052887E+02  0.7816164E-02  0.1300439E+00
        -11   -1    0    0    0    0  0.00000000000E+00  0.00000000000E+00  0.45593999997E+02  0.45594000000E+02  0.51100000000E-03 0.  1.
         11   -1    0    0    0    0 -0.00000000000E+00 -0.00000000000E+00 -0.45593999997E+02  0.45594000000E+02  0.51100000000E-03 0. -1.
    9900012    2    1    2    0    0  0.37415805761E+02 -0.11367231880E+02  0.11135899963E+02  0.50528871266E+02  0.30000034701E+02 0.  0.
         12    1    1    2    0    0 -0.37415805761E+02  0.11367231880E+02 -0.11135899963E+02  0.40659128734E+02  0.00000000000E+00 0. -1.
         11    1    3    3    0    0 -0.11225385231E+01  0.40177650025E+01  0.64514399747E+01  0.76826822373E+01  0.51100000000E-03 0. -1.
        -11    1    3    3    0    0  0.16660804811E+02 -0.98517453344E+01  0.59351509593E+01  0.20245130779E+02  0.51100000000E-03 0.  1.
         12    1    3    3    0    0  0.21877539473E+02 -0.55332515482E+01 -0.12506909707E+01  0.22601058250E+02  0.00000000000E+00 0. -1.
</event>
<event>
 7    1  0.5764931E-013  0.5052887E+02  0.7816164E-02  0.1300439E+00
        -11   -1    0    0    0    0  0.00000000000E+00  0.00000000000E+00  0.45593999997E+02  0.45594000000E+02  0.51100000000E-03 0. -1.
         11   -1    0    0    0    0 -0.00000000000E+00 -0.00000000000E+00 -0.45593999997E+02  0.45594000000E+02  0.51100000000E-03 0.  1.
    9900012    2    1    2    0    0  0.12182010094E+02  0.18166040796E+02 -0.34274752268E+02  0.50528867555E+02  0.30000023421E+02 0.  0.
         12    1    1    2    0    0 -0.12182010094E+02 -0.18166040796E+02  0.34274752268E+02  0.40659132445E+02  0.00000000000E+00 0. -1.
         11    1    3    3    0    0 -0.57899293126E+01  0.27022246977E+01 -0.40711393492E+01  0.75762441634E+01  0.51100000000E-03 0. -1.
        -11    1    3    3    0    0  0.14279664714E+02  0.19415995763E+02 -0.19661659455E+02  0.31104188924E+02  0.51100000000E-03 0.  1.
        -12    1    3    3    0    0  0.36922746921E+01 -0.39521796653E+01 -0.10541953463E+02  0.11848434468E+02  0.00000000000E+00 0.  1.
</event>
<event>
 7    1  0.5764931E-013  0.5052886E+02  0.7816164E-02  0.1300439E+00
        -11   -1    0    0    0    0  0.00000000000E+00  0.00000000000E+00  0.45593999997E+02  0.45594000000E+02  0.51100000000E-03 0.  1.
         11   -1    0    0    0    0 -0.00000000000E+00 -0.00000000000E+00 -0.45593999997E+02  0.45594000000E+02  0.51100000000E-03 0. -1.
    9900012    2    1    2    0    0 -0.15140987729E+02  0.10851734130E+01  0.37719210769E+02  0.50528856234E+02  0.29999989008E+02 0.  0.
         12    1    1    2    0    0  0.15140987729E+02 -0.10851734130E+01 -0.37719210769E+02  0.40659143766E+02  0.00000000000E+00 0. -1.
         11    1    3    3    0    0  0.33067670521E+00  0.39121546211E-01 -0.99316457076E+00  0.10474987850E+01  0.51100000000E-03 0. -1.
        -11    1    3    3    0    0 -0.17009803063E+02 -0.91245728206E+01  0.18178216863E+02  0.26514878804E+02  0.51100000000E-03 0.  1.
        -12    1    3    3    0    0  0.15381386291E+01  0.10170624687E+02  0.20534158477E+02  0.22966478645E+02  0.00000000000E+00 0.  1.
</event>
<event>
 7    1  0.5764931E-013  0.5052884E+02  0.7816164E-02  0.1300439E+00
        -11   -1    0    0    0    0  0.00000000000E+00  0.00000000000E+00  0.45593999997E+02  0.45594000000E+02  0.51100000000E-03 0.  1.
         11   -1    0    0    0    0 -0.00000000000E+00 -0.00000000000E+00 -0.45593999997E+02  0.45594000000E+02  0.51100000000E-03 0. -1.
    9900012    2    1    2    0    0  0.32279542077E+02 -0.18480688614E+02  0.16421410316E+02  0.50528838608E+02  0.29999935433E+02 0.  0.
         12    1    1    2    0    0 -0.32279542077E+02  0.18480688614E+02 -0.16421410316E+02  0.40659161392E+02  0.00000000000E+00 0. -1.
         11    1    3    3    0    0  0.39017894219E+01  0.69269412024E+01  0.69698292731E+01  0.10572842355E+02  0.51100000000E-03 0. -1.
        -11    1    3    3    0    0  0.97087199585E+01 -0.11319970787E+02  0.52471746450E+00  0.14922342662E+02  0.51100000000E-03 0.  1.
         12    1    3    3    0    0  0.18669032696E+02 -0.14087659030E+02  0.89268635779E+01  0.25033653591E+02  0.00000000000E+00 0. -1.
</event>
<event>
 7    1  0.5764931E-013  0.5052885E+02  0.7816164E-02  0.1300439E+00
        -11   -1    0    0    0    0  0.00000000000E+00  0.00000000000E+00  0.45593999997E+02  0.45594000000E+02  0.51100000000E-03 0.  1.
         11   -1    0    0    0    0 -0.00000000000E+00 -0.00000000000E+00 -0.45593999997E+02  0.45594000000E+02  0.51100000000E-03 0. -1.
    9900012    2    1    2    0    0  0.81120996943E+01  0.39841069041E+02 -0.22271420533E+00  0.50528849180E+02  0.29999967566E+02 0.  0.
         12    1    1    2    0    0 -0.81120996943E+01 -0.39841069041E+02  0.22271420533E+00  0.40659150820E+02  0.00000000000E+00 0. -1.
         11    1    3    3    0    0  0.41760337451E+01  0.11213787344E+01 -0.78483673296E+01  0.89606706282E+01  0.51100000000E-03 0. -1.
        -11    1    3    3    0    0 -0.65169328322E+00  0.22508366370E+02  0.98426274661E+01  0.24574958321E+02  0.51100000000E-03 0.  1.
         12    1    3    3    0    0  0.45877592324E+01  0.16211323937E+02 -0.22169743418E+01  0.16993220231E+02  0.00000000000E+00 0. -1.
</event>
<event>
 7    1  0.5764931E-013  0.5052886E+02  0.7816164E-02  0.1300439E+00
        -11   -1    0    0    0    0  0.00000000000E+00  0.00000000000E+00  0.45593999997E+02  0.45594000000E+02  0.51100000000E-03 0.  1.
         11   -1    0    0    0    0 -0.00000000000E+00 -0.00000000000E+00 -0.45593999997E+02  0.45594000000E+02  0.51100000000E-03 0. -1.
    9900012    2    1    2    0    0 -0.23551619510E+02  0.37357944869E+01  0.32932208843E+02  0.50528864234E+02  0.30000013325E+02 0.  0.
         12    1    1    2    0    0  0.23551619510E+02 -0.37357944869E+01 -0.32932208843E+02  0.40659135766E+02  0.00000000000E+00 0. -1.
         11    1    3    3    0    0  0.18463356435E+01 -0.84031127394E+01  0.61480439704E+01  0.10574483625E+02  0.51100000000E-03 0.  1.
        -11    1    3    3    0    0 -0.87110200651E+01  0.92165334068E+01  0.12275689518E+02  0.17649898357E+02  0.51100000000E-03 0. -1.
         12    1    3    3    0    0 -0.16686935089E+02  0.29223738195E+01  0.14508475354E+02  0.22304482251E+02  0.00000000000E+00 0. -1.
</event>
<event>
 7    1  0.5764931E-013  0.5052886E+02  0.7816164E-02  0.1300439E+00
        -11   -1    0    0    0    0  0.00000000000E+00  0.00000000000E+00  0.45593999997E+02  0.45594000000E+02  0.51100000000E-03 0.  1.
         11   -1    0    0    0    0 -0.00000000000E+00 -0.00000000000E+00 -0.45593999997E+02  0.45594000000E+02  0.51100000000E-03 0. -1.
    9900012    2    1    2    0    0  0.27122780098E+02 -0.99140935577E+00  0.30274368726E+02  0.50528862103E+02  0.30000006847E+02 0.  0.
         12    1    1    2    0    0 -0.27122780098E+02  0.99140935577E+00 -0.30274368726E+02  0.40659137897E+02  0.00000000000E+00 0. -1.
         11    1    3    3    0    0  0.14267199064E+02 -0.31476522451E+01  0.25915382984E+01  0.14838354181E+02  0.51100000000E-03 0. -1.
        -11    1    3    3    0    0 -0.19486725185E+01 -0.13517644252E+01  0.16844247456E+02  0.17010386953E+02  0.51100000000E-03 0.  1.
        -12    1    3    3    0    0  0.14804253553E+02  0.35080073145E+01  0.10838582972E+02  0.18680120969E+02  0.00000000000E+00 0.  1.
</event>
<event>
 7    1  0.5764931E-013  0.5052887E+02  0.7816164E-02  0.1300439E+00
        -11   -1    0    0    0    0  0.00000000000E+00  0.00000000000E+00  0.45593999997E+02  0.45594000000E+02  0.51100000000E-03 0.  1.
         11   -1    0    0    0    0 -0.00000000000E+00 -0.00000000000E+00 -0.45593999997E+02  0.45594000000E+02  0.51100000000E-03 0. -1.
    9900012    2    1    2    0    0 -0.15464065041E+02  0.24735257972E+02  0.28323042226E+02  0.50528867994E+02  0.30000024754E+02 0.  0.
         12    1    1    2    0    0  0.15464065041E+02 -0.24735257972E+02 -0.28323042226E+02  0.40659132006E+02  0.00000000000E+00 0. -1.
         11    1    3    3    0    0  0.47168961808E+01  0.18309950922E+01  0.54921901492E+01  0.74676506013E+01  0.51100000000E-03 0. -1.
        -11    1    3    3    0    0 -0.19087553798E+02  0.69154705738E+01  0.10608904133E+02  0.22906490137E+02  0.51100000000E-03 0.  1.
        -12    1    3    3    0    0 -0.10934074244E+01  0.15988792306E+02  0.12221947944E+02  0.20154727256E+02  0.00000000000E+00 0.  1.
</event>
<event>
 7    1  0.5764931E-013  0.5052886E+02  0.7816164E-02  0.1300439E+00
        -11   -1    0    0    0    0  0.00000000000E+00  0.00000000000E+00  0.45593999997E+02  0.45594000000E+02  0.51100000000E-03 0.  1.
         11   -1    0    0    0    0 -0.00000000000E+00 -0.00000000000E+00 -0.45593999997E+02  0.45594000000E+02  0.51100000000E-03 0. -1.
    9900012    2    1    2    0    0 -0.18450360341E+02 -0.36147155821E+02  0.24764078461E+01  0.50528864907E+02  0.30000015371E+02 0.  0.
         12    1    1    2    0    0  0.18450360341E+02  0.36147155821E+02 -0.24764078461E+01  0.40659135093E+02  0.00000000000E+00 0. -1.
         11    1    3    3    0    0 -0.76294753563E+01 -0.28542451124E+02 -0.10491304092E+02  0.31351999493E+02  0.51100000000E-03 0. -1.
        -11    1    3    3    0    0 -0.21629659997E+01 -0.21848477073E+01  0.62100255970E+01  0.69293866681E+01  0.51100000000E-03 0.  1.
         12    1    3    3    0    0 -0.86579189852E+01 -0.54198569901E+01  0.67576863411E+01  0.12247478746E+02  0.00000000000E+00 0. -1.
</event>
<event>
 7    1  0.5764931E-013  0.5052886E+02  0.7816164E-02  0.1300439E+00
        -11   -1    0    0    0    0  0.00000000000E+00  0.00000000000E+00  0.45593999997E+02  0.45594000000E+02  0.51100000000E-03 0.  1.
         11   -1    0    0    0    0 -0.00000000000E+00 -0.00000000000E+00 -0.45593999997E+02  0.45594000000E+02  0.51100000000E-03 0. -1.
    9900012    2    1    2    0    0 -0.28663978627E+02  0.76278436304E+01  0.27809308504E+02  0.50528864389E+02  0.30000013796E+02 0.  0.
         12    1    1    2    0    0  0.28663978627E+02 -0.76278436304E+01 -0.27809308504E+02  0.40659135611E+02  0.00000000000E+00 0. -1.
         11    1    3    3    0    0 -0.42057972664E+01  0.29071005493E+01 -0.53488733947E+01  0.73993520732E+01  0.51100000000E-03 0. -1.
        -11    1    3    3    0    0 -0.21158247911E+02  0.84355677274E+00  0.20443392445E+02  0.29433235256E+02  0.51100000000E-03 0.  1.
        -12    1    3    3    0    0 -0.32999334492E+01  0.38771863084E+01  0.12714789454E+02  0.13696277059E+02  0.00000000000E+00 0.  1.
</event>
<event>
 7    1  0.5764931E-013  0.5052886E+02  0.7816164E-02  0.1300439E+00
        -11   -1    0    0    0    0  0.00000000000E+00  0.00000000000E+00  0.45593999997E+02  0.45594000000E+02  0.51100000000E-03 0.  1.
         11   -1    0    0    0    0 -0.00000000000E+00 -0.00000000000E+00 -0.45593999997E+02  0.45594000000E+02  0.51100000000E-03 0. -1.
    9900012    2    1    2    0    0  0.23591239030E+02 -0.31117465591E+01  0.32968716329E+02  0.50528858568E+02  0.29999996103E+02 0.  0.
         12    1    1    2    0    0 -0.23591239030E+02  0.31117465591E+01 -0.32968716329E+02  0.40659141432E+02  0.00000000000E+00 0. -1.
         11    1    3    3    0    0  0.56266805514E+01  0.71366583319E+01 -0.22022935953E+01  0.93510172449E+01  0.51100000000E-03 0. -1.
        -11    1    3    3    0    0  0.13527948440E+02 -0.98901071071E+01  0.29928459274E+02  0.34300616355E+02  0.51100000000E-03 0.  1.
         12    1    3    3    0    0  0.44366100389E+01 -0.35829778386E+00  0.52425506502E+01  0.68772249679E+01  0.00000000000E+00 0. -1.
</event>
<event>
 7    1  0.5764931E-013  0.5052887E+02  0.7816164E-02  0.1300439E+00
        -11   -1    0    0    0    0  0.00000000000E+00  0.00000000000E+00  0.45593999997E+02  0.45594000000E+02  0.51100000000E-03 0. -1.
         11   -1    0    0    0    0 -0.00000000000E+00 -0.00000000000E+00 -0.45593999997E+02  0.45594000000E+02  0.51100000000E-03 0.  1.
    9900012    2    1    2    0    0  0.40473582168E+02 -0.17280729462E+01 -0.34738312192E+01  0.50528873190E+02  0.30000040547E+02 0.  0.
         12    1    1    2    0    0 -0.40473582168E+02  0.17280729462E+01  0.34738312192E+01  0.40659126810E+02  0.00000000000E+00 0. -1.
         11    1    3    3    0    0 -0.19522093737E+01  0.32951177173E+01  0.44022574209E+01  0.58351343490E+01  0.51100000000E-03 0. -1.
        -11    1    3    3    0    0  0.16503696147E+02 -0.63146310413E+01 -0.36410401319E+00  0.17674250301E+02  0.51100000000E-03 0.  1.
         12    1    3    3    0    0  0.25922095395E+02  0.12914403778E+01 -0.75119846270E+01  0.27019488540E+02  0.00000000000E+00 0. -1.
</event>
<event>
 7    1  0.5764931E-013  0.5052881E+02  0.7816164E-02  0.1300439E+00
        -11   -1    0    0    0    0  0.00000000000E+00  0.00000000000E+00  0.45593999997E+02  0.45594000000E+02  0.51100000000E-03 0. -1.
         11   -1    0    0    0    0 -0.00000000000E+00 -0.00000000000E+00 -0.45593999997E+02  0.45594000000E+02  0.51100000000E-03 0.  1.
    9900012    2    1    2    0    0  0.25681768496E+02 -0.29324463482E+02  0.11562535484E+02  0.50528811391E+02  0.29999852702E+02 0.  0.
         12    1    1    2    0    0 -0.25681768496E+02  0.29324463482E+02 -0.11562535484E+02  0.40659188609E+02  0.00000000000E+00 0. -1.
         11    1    3    3    0    0 -0.76518701723E+00 -0.37003138246E+00  0.13513134147E+01  0.15963967556E+01  0.51100000000E-03 0. -1.
        -11    1    3    3    0    0  0.15165925830E+00 -0.17903237349E+02 -0.17779840508E+01  0.17991946411E+02  0.51100000000E-03 0.  1.
        -12    1    3    3    0    0  0.26295296255E+02 -0.11051194750E+02  0.11989206121E+02  0.30940468224E+02  0.00000000000E+00 0.  1.
</event>
<event>
 7    1  0.5764931E-013  0.5052886E+02  0.7816164E-02  0.1300439E+00
        -11   -1    0    0    0    0  0.00000000000E+00  0.00000000000E+00  0.45593999997E+02  0.45594000000E+02  0.51100000000E-03 0.  1.
         11   -1    0    0    0    0 -0.00000000000E+00 -0.00000000000E+00 -0.45593999997E+02  0.45594000000E+02  0.51100000000E-03 0. -1.
    9900012    2    1    2    0    0  0.13425019808E+02  0.29108783770E+02 -0.25012265571E+02  0.50528857382E+02  0.29999992499E+02 0.  0.
         12    1    1    2    0    0 -0.13425019808E+02 -0.29108783770E+02  0.25012265571E+02  0.40659142618E+02  0.00000000000E+00 0. -1.
         11    1    3    3    0    0  0.32271514300E+01  0.15944050601E+02 -0.24245433131E+02  0.29197059507E+02  0.51100000000E-03 0. -1.
        -11    1    3    3    0    0  0.48058111296E+01  0.14461880768E+02  0.15568131900E+01  0.15318795107E+02  0.51100000000E-03 0.  1.
         12    1    3    3    0    0  0.53920572486E+01 -0.12971475993E+01 -0.23236456303E+01  0.60130027675E+01  0.00000000000E+00 0. -1.
</event>
<event>
 7    1  0.5764931E-013  0.5052886E+02  0.7816164E-02  0.1300439E+00
        -11   -1    0    0    0    0  0.00000000000E+00  0.00000000000E+00  0.45593999997E+02  0.45594000000E+02  0.51100000000E-03 0.  1.
         11   -1    0    0    0    0 -0.00000000000E+00 -0.00000000000E+00 -0.45593999997E+02  0.45594000000E+02  0.51100000000E-03 0. -1.
    9900012    2    1    2    0    0  0.12230784156E+02 -0.17022328358E+02  0.34839830260E+02  0.50528861834E+02  0.30000006032E+02 0.  0.
         12    1    1    2    0    0 -0.12230784156E+02  0.17022328358E+02 -0.34839830260E+02  0.40659138166E+02  0.00000000000E+00 0. -1.
         11    1    3    3    0    0 -0.22637767579E+01  0.88497114943E+00  0.13434265716E+02  0.13652375425E+02  0.51100000000E-03 0. -1.
        -11    1    3    3    0    0  0.12879393924E+02 -0.32470090800E+01  0.36116400348E+01  0.13764657636E+02  0.51100000000E-03 0.  1.
        -12    1    3    3    0    0  0.16151669896E+01 -0.14660290428E+02  0.17793924509E+02  0.23111828774E+02  0.00000000000E+00 0.  1.
</event>
<event>
 7    1  0.5764931E-013  0.5052886E+02  0.7816164E-02  0.1300439E+00
        -11   -1    0    0    0    0  0.00000000000E+00  0.00000000000E+00  0.45593999997E+02  0.45594000000E+02  0.51100000000E-03 0.  1.
         11   -1    0    0    0    0 -0.00000000000E+00 -0.00000000000E+00 -0.45593999997E+02  0.45594000000E+02  0.51100000000E-03 0. -1.
    9900012    2    1    2    0    0 -0.53679528494E+01 -0.23548978653E+02  0.32707746847E+02  0.50528855675E+02  0.29999987310E+02 0.  0.
         12    1    1    2    0    0  0.53679528494E+01  0.23548978653E+02 -0.32707746847E+02  0.40659144325E+02  0.00000000000E+00 0. -1.
         11    1    3    3    0    0  0.16172064467E+01 -0.64012213029E+00  0.12556467228E+02  0.12676355254E+02  0.51100000000E-03 0. -1.
        -11    1    3    3    0    0 -0.12760481338E+02 -0.21409369729E+02  0.19877256684E+02  0.31879402908E+02  0.51100000000E-03 0.  1.
        -12    1    3    3    0    0  0.57753220420E+01 -0.14994867937E+01  0.27402293534E+00  0.59730975132E+01  0.00000000000E+00 0.  1.
</event>
<event>
 7    1  0.5764931E-013  0.5052885E+02  0.7816164E-02  0.1300439E+00
        -11   -1    0    0    0    0  0.00000000000E+00  0.00000000000E+00  0.45593999997E+02  0.45594000000E+02  0.51100000000E-03 0.  1.
         11   -1    0    0    0    0 -0.00000000000E+00 -0.00000000000E+00 -0.45593999997E+02  0.45594000000E+02  0.51100000000E-03 0. -1.
    9900012    2    1    2    0    0  0.31646117116E+02 -0.25519652825E+02 -0.66101011581E+00  0.50528851667E+02  0.29999975126E+02 0.  0.
         12    1    1    2    0    0 -0.31646117116E+02  0.25519652825E+02  0.66101011581E+00  0.40659148333E+02  0.00000000000E+00 0. -1.
         11    1    3    3    0    0  0.31701335701E+02 -0.17226089565E+02 -0.85769190332E+01  0.37084719053E+02  0.51100000000E-03 0. -1.
        -11    1    3    3    0    0  0.95401909412E+00 -0.87680515360E+01  0.46032849221E+01  0.99488246796E+01  0.51100000000E-03 0.  1.
         12    1    3    3    0    0 -0.10092376789E+01  0.47448827616E+00  0.33126239952E+01  0.34953079336E+01  0.00000000000E+00 0. -1.
</event>
<event>
 7    1  0.5764931E-013  0.5052887E+02  0.7816164E-02  0.1300439E+00
        -11   -1    0    0    0    0  0.00000000000E+00  0.00000000000E+00  0.45593999997E+02  0.45594000000E+02  0.51100000000E-03 0.  1.
         11   -1    0    0    0    0 -0.00000000000E+00 -0.00000000000E+00 -0.45593999997E+02  0.45594000000E+02  0.51100000000E-03 0. -1.
    9900012    2    1    2    0    0 -0.29117860626E+02  0.11932411552E+02  0.25747474630E+02  0.50528871840E+02  0.30000036446E+02 0.  0.
         12    1    1    2    0    0  0.29117860626E+02 -0.11932411552E+02 -0.25747474630E+02  0.40659128160E+02  0.00000000000E+00 0. -1.
         11    1    3    3    0    0 -0.10342823137E+02  0.78718719087E+01 -0.17887787475E+01  0.13120216746E+02  0.51100000000E-03 0. -1.
        -11    1    3    3    0    0 -0.15087432107E+02  0.91922235846E+01  0.14255911765E+02  0.22701511018E+02  0.51100000000E-03 0.  1.
         12    1    3    3    0    0 -0.36876053823E+01 -0.51316839416E+01  0.13280341613E+02  0.14707144076E+02  0.00000000000E+00 0. -1.
</event>
<event>
 7    1  0.5764931E-013  0.5052886E+02  0.7816164E-02  0.1300439E+00
        -11   -1    0    0    0    0  0.00000000000E+00  0.00000000000E+00  0.45593999997E+02  0.45594000000E+02  0.51100000000E-03 0. -1.
         11   -1    0    0    0    0 -0.00000000000E+00 -0.00000000000E+00 -0.45593999997E+02  0.45594000000E+02  0.51100000000E-03 0.  1.
    9900012    2    1    2    0    0 -0.32139911249E+02  0.24878148113E+02 -0.11266562413E+01  0.50528862000E+02  0.30000006535E+02 0.  0.
         12    1    1    2    0    0  0.32139911249E+02 -0.24878148113E+02  0.11266562413E+01  0.40659138000E+02  0.00000000000E+00 0. -1.
         11    1    3    3    0    0 -0.14381666524E+02  0.22012828632E+02 -0.86565039874E+01  0.27682702504E+02  0.51100000000E-03 0.  1.
        -11    1    3    3    0    0 -0.13464684156E+02 -0.90668993258E+00  0.98193421302E+01  0.16689496283E+02  0.51100000000E-03 0. -1.
         12    1    3    3    0    0 -0.42935605690E+01  0.37720094138E+01 -0.22894943842E+01  0.61566632125E+01  0.00000000000E+00 0. -1.
</event>
<event>
 7    1  0.5764931E-013  0.5052886E+02  0.7816164E-02  0.1300439E+00
        -11   -1    0    0    0    0  0.00000000000E+00  0.00000000000E+00  0.45593999997E+02  0.45594000000E+02  0.51100000000E-03 0.  1.
         11   -1    0    0    0    0 -0.00000000000E+00 -0.00000000000E+00 -0.45593999997E+02  0.45594000000E+02  0.51100000000E-03 0. -1.
    9900012    2    1    2    0    0 -0.40471931434E+01 -0.29763784983E+02  0.27402612713E+02  0.50528857703E+02  0.29999993474E+02 0.  0.
         12    1    1    2    0    0  0.40471931434E+01  0.29763784983E+02 -0.27402612713E+02  0.40659142297E+02  0.00000000000E+00 0. -1.
         11    1    3    3    0    0 -0.47672419412E+01  0.18627967399E+01  0.87223396779E-01  0.51190053333E+01  0.51100000000E-03 0. -1.
        -11    1    3    3    0    0  0.68526026170E+01 -0.26885626059E+02  0.24928777804E+02  0.37299316539E+02  0.51100000000E-03 0.  1.
        -12    1    3    3    0    0 -0.61325538192E+01 -0.47409556641E+01  0.23866115120E+01  0.81105358309E+01  0.00000000000E+00 0.  1.
</event>
<event>
 7    1  0.5764931E-013  0.5052889E+02  0.7816164E-02  0.1300439E+00
        -11   -1    0    0    0    0  0.00000000000E+00  0.00000000000E+00  0.45593999997E+02  0.45594000000E+02  0.51100000000E-03 0.  1.
         11   -1    0    0    0    0 -0.00000000000E+00 -0.00000000000E+00 -0.45593999997E+02  0.45594000000E+02  0.51100000000E-03 0. -1.
    9900012    2    1    2    0    0  0.34972356318E+02  0.15785353219E+02  0.13450648352E+02  0.50528892487E+02  0.30000099204E+02 0.  0.
         12    1    1    2    0    0 -0.34972356318E+02 -0.15785353219E+02 -0.13450648352E+02  0.40659107513E+02  0.00000000000E+00 0. -1.
         11    1    3    3    0    0  0.55615552772E+01  0.80382215492E+01  0.45299216517E+00  0.97851471597E+01  0.51100000000E-03 0. -1.
        -11    1    3    3    0    0  0.24537883356E+02  0.70557241137E+00  0.18347294274E+02  0.30646839306E+02  0.51100000000E-03 0.  1.
        -12    1    3    3    0    0  0.48729176840E+01  0.70415592584E+01 -0.53496380865E+01  0.10096906021E+02  0.00000000000E+00 0.  1.
</event>
<event>
 7    1  0.5764931E-013  0.5052883E+02  0.7816164E-02  0.1300439E+00
        -11   -1    0    0    0    0  0.00000000000E+00  0.00000000000E+00  0.45593999997E+02  0.45594000000E+02  0.51100000000E-03 0.  1.
         11   -1    0    0    0    0 -0.00000000000E+00 -0.00000000000E+00 -0.45593999997E+02  0.45594000000E+02  0.51100000000E-03 0. -1.
    9900012    2    1    2    0    0  0.37552838101E+02  0.32397858802E+01  0.15246523591E+02  0.50528827067E+02  0.29999900352E+02 0.  0.
         12    1    1    2    0    0 -0.37552838101E+02 -0.32397858802E+01 -0.15246523591E+02  0.40659172933E+02  0.00000000000E+00 0. -1.
         11    1    3    3    0    0  0.13609071594E+02 -0.54942611183E+01  0.15168359010E+02  0.21106227759E+02  0.51100000000E-03 0.  1.
        -11    1    3    3    0    0  0.17306527312E+02  0.79775925466E+01 -0.64142285919E+01  0.20107217588E+02  0.51100000000E-03 0. -1.
         12    1    3    3    0    0  0.66372391955E+01  0.75645445196E+00  0.64923931732E+01  0.93153817201E+01  0.00000000000E+00 0. -1.
</event>
<event>
 7    1  0.5764931E-013  0.5052885E+02  0.7816164E-02  0.1300439E+00
        -11   -1    0    0    0    0  0.00000000000E+00  0.00000000000E+00  0.45593999997E+02  0.45594000000E+02  0.51100000000E-03 0.  1.
         11   -1    0    0    0    0 -0.00000000000E+00 -0.00000000000E+00 -0.45593999997E+02  0.45594000000E+02  0.51100000000E-03 0. -1.
    9900012    2    1    2    0    0 -0.39505751436E+02  0.56646924833E+01  0.77700049378E+01  0.50528854483E+02  0.29999983685E+02 0.  0.
         12    1    1    2    0    0  0.39505751436E+02 -0.56646924833E+01 -0.77700049378E+01  0.40659145517E+02  0.00000000000E+00 0. -1.
         11    1    3    3    0    0  0.56552769305E+00 -0.45890738337E+01  0.27767820751E+01  0.53935089854E+01  0.51100000000E-03 0. -1.
        -11    1    3    3    0    0 -0.24280974048E+02  0.30969542106E+01  0.10934652333E+02  0.26809018036E+02  0.51100000000E-03 0.  1.
         12    1    3    3    0    0 -0.15790305081E+02  0.71568121063E+01 -0.59414294707E+01  0.18326327462E+02  0.00000000000E+00 0. -1.
</event>
<event>
 7    1  0.5764931E-013  0.5052886E+02  0.7816164E-02  0.1300439E+00
        -11   -1    0    0    0    0  0.00000000000E+00  0.00000000000E+00  0.45593999997E+02  0.45594000000E+02  0.51100000000E-03 0.  1.
         11   -1    0    0    0    0 -0.00000000000E+00 -0.00000000000E+00 -0.45593999997E+02  0.45594000000E+02  0.51100000000E-03 0. -1.
    9900012    2    1    2    0    0  0.88062953823E+01 -0.83161363848E+00  0.39685302039E+02  0.50528860590E+02  0.30000002251E+02 0.  0.
         12    1    1    2    0    0 -0.88062953823E+01  0.83161363848E+00 -0.39685302039E+02  0.40659139410E+02  0.00000000000E+00 0. -1.
         11    1    3    3    0    0  0.11152094224E+02 -0.12628656406E+02  0.14503239687E+02  0.22230522483E+02  0.51100000000E-03 0. -1.
        -11    1    3    3    0    0  0.35597060856E+00  0.89769197676E+01  0.16808386750E+02  0.19058690117E+02  0.51100000000E-03 0.  1.
         12    1    3    3    0    0 -0.27017694498E+01  0.28201229996E+01  0.83736756022E+01  0.92396479903E+01  0.00000000000E+00 0. -1.
</event>
<event>
 7    1  0.5764931E-013  0.5052888E+02  0.7816164E-02  0.1300439E+00
        -11   -1    0    0    0    0  0.00000000000E+00  0.00000000000E+00  0.45593999997E+02  0.45594000000E+02  0.51100000000E-03 0.  1.
         11   -1    0    0    0    0 -0.00000000000E+00 -0.00000000000E+00 -0.45593999997E+02  0.45594000000E+02  0.51100000000E-03 0. -1.
    9900012    2    1    2    0    0 -0.35738091152E+02  0.19105549666E+02  0.33061932673E+01  0.50528879238E+02  0.30000058932E+02 0.  0.
         12    1    1    2    0    0  0.35738091152E+02 -0.19105549666E+02 -0.33061932673E+01  0.40659120762E+02  0.00000000000E+00 0. -1.
         11    1    3    3    0    0 -0.67444340368E+01  0.26899487009E+01 -0.11350274486E+02  0.13474121332E+02  0.51100000000E-03 0. -1.
        -11    1    3    3    0    0 -0.93680818363E+01  0.23791505597E+01  0.62198492603E+01  0.11493817458E+02  0.51100000000E-03 0.  1.
         12    1    3    3    0    0 -0.19625575279E+02  0.14036450405E+02  0.84366184931E+01  0.25560940448E+02  0.00000000000E+00 0. -1.
</event>
<event>
 7    1  0.5764931E-013  0.5052885E+02  0.7816164E-02  0.1300439E+00
        -11   -1    0    0    0    0  0.00000000000E+00  0.00000000000E+00  0.45593999997E+02  0.45594000000E+02  0.51100000000E-03 0. -1.
         11   -1    0    0    0    0 -0.00000000000E+00 -0.00000000000E+00 -0.45593999997E+02  0.45594000000E+02  0.51100000000E-03 0.  1.
    9900012    2    1    2    0    0 -0.22629819938E+02  0.90363939992E+01 -0.32548443279E+02  0.50528851868E+02  0.29999975738E+02 0.  0.
         12    1    1    2    0    0  0.22629819938E+02 -0.90363939992E+01  0.32548443279E+02  0.40659148132E+02  0.00000000000E+00 0. -1.
         11    1    3    3    0    0 -0.26317674771E+02  0.14036258510E+02 -0.26866792965E+02  0.40143008393E+02  0.51100000000E-03 0.  1.
        -11    1    3    3    0    0  0.13357583043E+01 -0.58797894182E+01 -0.30831681239E+01  0.67721562143E+01  0.51100000000E-03 0. -1.
         12    1    3    3    0    0  0.23520965293E+01  0.87992490713E+00 -0.25984821905E+01  0.36136872609E+01  0.00000000000E+00 0. -1.
</event>
<event>
 7    1  0.5764931E-013  0.5052883E+02  0.7816164E-02  0.1300439E+00
        -11   -1    0    0    0    0  0.00000000000E+00  0.00000000000E+00  0.45593999997E+02  0.45594000000E+02  0.51100000000E-03 0.  1.
         11   -1    0    0    0    0 -0.00000000000E+00 -0.00000000000E+00 -0.45593999997E+02  0.45594000000E+02  0.51100000000E-03 0. -1.
    9900012    2    1    2    0    0  0.18039829269E+02  0.16322796400E+02  0.32577588627E+02  0.50528826335E+02  0.29999898128E+02 0.  0.
         12    1    1    2    0    0 -0.18039829269E+02 -0.16322796400E+02 -0.32577588627E+02  0.40659173665E+02  0.00000000000E+00 0. -1.
         11    1    3    3    0    0  0.25995135578E+01  0.11076737898E+02 -0.18254817539E+01  0.11523193007E+02  0.51100000000E-03 0. -1.
        -11    1    3    3    0    0  0.91252353468E+00  0.58300095068E+00  0.11094598850E+02  0.11147318656E+02  0.51100000000E-03 0.  1.
         12    1    3    3    0    0  0.14527792177E+02  0.46630575521E+01  0.23308471531E+02  0.27858314672E+02  0.00000000000E+00 0. -1.
</event>
<event>
 7    1  0.5764931E-013  0.5052886E+02  0.7816164E-02  0.1300439E+00
        -11   -1    0    0    0    0  0.00000000000E+00  0.00000000000E+00  0.45593999997E+02  0.45594000000E+02  0.51100000000E-03 0.  1.
         11   -1    0    0    0    0 -0.00000000000E+00 -0.00000000000E+00 -0.45593999997E+02  0.45594000000E+02  0.51100000000E-03 0. -1.
    9900012    2    1    2    0    0 -0.59950839074E+01  0.11149134099E+02  0.38638338333E+02  0.50528863126E+02  0.30000009959E+02 0.  0.
         12    1    1    2    0    0  0.59950839074E+01 -0.11149134099E+02 -0.38638338333E+02  0.40659136874E+02  0.00000000000E+00 0. -1.
         11    1    3    3    0    0 -0.10601300674E+02  0.13314075884E+01  0.25673454867E+02  0.27808029546E+02  0.51100000000E-03 0. -1.
        -11    1    3    3    0    0  0.56330179104E+01  0.13457413180E+02  0.85576969517E+01  0.16913516419E+02  0.51100000000E-03 0.  1.
        -12    1    3    3    0    0 -0.10268011439E+01 -0.36396866699E+01  0.44071865138E+01  0.58073171612E+01  0.00000000000E+00 0.  1.
</event>
<event>
 7    1  0.5764931E-013  0.5052886E+02  0.7816164E-02  0.1300439E+00
        -11   -1    0    0    0    0  0.00000000000E+00  0.00000000000E+00  0.45593999997E+02  0.45594000000E+02  0.51100000000E-03 0.  1.
         11   -1    0    0    0    0 -0.00000000000E+00 -0.00000000000E+00 -0.45593999997E+02  0.45594000000E+02  0.51100000000E-03 0. -1.
    9900012    2    1    2    0    0  0.86395350868E+01  0.37093237471E+02  0.14234322293E+02  0.50528858793E+02  0.29999996786E+02 0.  0.
         12    1    1    2    0    0 -0.86395350868E+01 -0.37093237471E+02 -0.14234322293E+02  0.40659141207E+02  0.00000000000E+00 0. -1.
         11    1    3    3    0    0  0.14194107010E+02  0.71843092442E+01 -0.19294586061E+00  0.15909877482E+02  0.51100000000E-03 0. -1.
        -11    1    3    3    0    0 -0.67435953910E+01  0.21956790502E+02  0.13181199868E+02  0.26482461332E+02  0.51100000000E-03 0.  1.
        -12    1    3    3    0    0  0.11890234681E+01  0.79521377247E+01  0.12460682850E+01  0.81365199792E+01  0.00000000000E+00 0.  1.
</event>
<event>
 7    1  0.5764931E-013  0.5052883E+02  0.7816164E-02  0.1300439E+00
        -11   -1    0    0    0    0  0.00000000000E+00  0.00000000000E+00  0.45593999997E+02  0.45594000000E+02  0.51100000000E-03 0. -1.
         11   -1    0    0    0    0 -0.00000000000E+00 -0.00000000000E+00 -0.45593999997E+02  0.45594000000E+02  0.51100000000E-03 0.  1.
    9900012    2    1    2    0    0  0.36130012126E+02 -0.94024152505E+01 -0.16105434314E+02  0.50528828794E+02  0.29999905601E+02 0.  0.
         12    1    1    2    0    0 -0.36130012126E+02  0.94024152505E+01  0.16105434314E+02  0.40659171206E+02  0.00000000000E+00 0. -1.
         11    1    3    3    0    0 -0.20297835955E+01 -0.20679886619E+01  0.25094043353E+01  0.38332373953E+01  0.51100000000E-03 0. -1.
        -11    1    3    3    0    0  0.39608654769E+02 -0.55000921301E+01 -0.19087767816E+02  0.44310714579E+02  0.51100000000E-03 0.  1.
        -12    1    3    3    0    0 -0.14488590479E+01 -0.18343344585E+01  0.47292916666E+00  0.23848768193E+01  0.00000000000E+00 0.  1.
</event>
<event>
 7    1  0.5764931E-013  0.5052886E+02  0.7816164E-02  0.1300439E+00
        -11   -1    0    0    0    0  0.00000000000E+00  0.00000000000E+00  0.45593999997E+02  0.45594000000E+02  0.51100000000E-03 0.  1.
         11   -1    0    0    0    0 -0.00000000000E+00 -0.00000000000E+00 -0.45593999997E+02  0.45594000000E+02  0.51100000000E-03 0. -1.
    9900012    2    1    2    0    0 -0.33720608178E+02 -0.21443208701E+02 -0.75016807662E+01  0.50528857982E+02  0.29999994323E+02 0.  0.
         12    1    1    2    0    0  0.33720608178E+02  0.21443208701E+02  0.75016807662E+01  0.40659142018E+02  0.00000000000E+00 0. -1.
         11    1    3    3    0    0 -0.12058028209E+02 -0.23429141819E+02 -0.66642145958E+01  0.27179633683E+02  0.51100000000E-03 0. -1.
        -11    1    3    3    0    0 -0.21759237820E+02  0.17606972584E+01  0.65164117661E+00  0.21840080627E+02  0.51100000000E-03 0.  1.
        -12    1    3    3    0    0  0.96657850617E-01  0.22523585979E+00 -0.14891073470E+01  0.15091436723E+01  0.00000000000E+00 0.  1.
</event>
<event>
 7    1  0.5764931E-013  0.5052887E+02  0.7816164E-02  0.1300439E+00
        -11   -1    0    0    0    0  0.00000000000E+00  0.00000000000E+00  0.45593999997E+02  0.45594000000E+02  0.51100000000E-03 0. -1.
         11   -1    0    0    0    0 -0.00000000000E+00 -0.00000000000E+00 -0.45593999997E+02  0.45594000000E+02  0.51100000000E-03 0.  1.
    9900012    2    1    2    0    0  0.16838624527E+02  0.35514737498E+02  0.10408133456E+02  0.50528866985E+02  0.30000021687E+02 0.  0.
         12    1    1    2    0    0 -0.16838624527E+02 -0.35514737498E+02 -0.10408133456E+02  0.40659133015E+02  0.00000000000E+00 0. -1.
         11    1    3    3    0    0  0.11897433182E+02 -0.12884923794E+01  0.75237536029E-01  0.11967238190E+02  0.51100000000E-03 0. -1.
        -11    1    3    3    0    0  0.23961117105E+01  0.19619464283E+02  0.49526383874E+01  0.20376294004E+02  0.51100000000E-03 0.  1.
         12    1    3    3    0    0  0.25450796336E+01  0.17183765594E+02  0.53802575326E+01  0.18185334791E+02  0.00000000000E+00 0. -1.
</event>
<event>
 7    1  0.5764931E-013  0.5052885E+02  0.7816164E-02  0.1300439E+00
        -11   -1    0    0    0    0  0.00000000000E+00  0.00000000000E+00  0.45593999997E+02  0.45594000000E+02  0.51100000000E-03 0.  1.
         11   -1    0    0    0    0 -0.00000000000E+00 -0.00000000000E+00 -0.45593999997E+02  0.45594000000E+02  0.51100000000E-03 0. -1.
    9900012    2    1    2    0    0  0.12497935130E+02 -0.26140413917E+02  0.28524489257E+02  0.50528854539E+02  0.29999983858E+02 0.  0.
         12    1    1    2    0    0 -0.12497935130E+02  0.26140413917E+02 -0.28524489257E+02  0.40659145461E+02  0.00000000000E+00 0. -1.
         11    1    3    3    0    0 -0.51504680284E+01 -0.12988749814E+01  0.99506289757E+01  0.11279601695E+02  0.51100000000E-03 0. -1.
        -11    1    3    3    0    0  0.10342868113E+02 -0.25058621912E+02  0.16118342583E+02  0.31539030118E+02  0.51100000000E-03 0.  1.
         12    1    3    3    0    0  0.73055350454E+01  0.21708297660E+00  0.24555176980E+01  0.77102227259E+01  0.00000000000E+00 0. -1.
</event>
<event>
 7    1  0.5764931E-013  0.5052886E+02  0.7816164E-02  0.1300439E+00
        -11   -1    0    0    0    0  0.00000000000E+00  0.00000000000E+00  0.45593999997E+02  0.45594000000E+02  0.51100000000E-03 0.  1.
         11   -1    0    0    0    0 -0.00000000000E+00 -0.00000000000E+00 -0.45593999997E+02  0.45594000000E+02  0.51100000000E-03 0. -1.
    9900012    2    1    2    0    0 -0.13780220524E+02  0.45641890351E+01  0.37979457393E+02  0.50528862243E+02  0.30000007275E+02 0.  0.
         12    1    1    2    0    0  0.13780220524E+02 -0.45641890351E+01 -0.37979457393E+02  0.40659137757E+02  0.00000000000E+00 0. -1.
         11    1    3    3    0    0 -0.11743493995E+02 -0.37405741562E+01  0.29676705698E+01  0.12677090167E+02  0.51100000000E-03 0. -1.
        -11    1    3    3    0    0  0.25476547171E+01  0.93434043081E+01  0.23609711346E+02  0.25518781685E+02  0.51100000000E-03 0.  1.
        -12    1    3    3    0    0 -0.45843812454E+01 -0.10386411168E+01  0.11402075478E+02  0.12332990391E+02  0.00000000000E+00 0.  1.
</event>
<event>
 7    1  0.5764931E-013  0.5052886E+02  0.7816164E-02  0.1300439E+00
        -11   -1    0    0    0    0  0.00000000000E+00  0.00000000000E+00  0.45593999997E+02  0.45594000000E+02  0.51100000000E-03 0.  1.
         11   -1    0    0    0    0 -0.00000000000E+00 -0.00000000000E+00 -0.45593999997E+02  0.45594000000E+02  0.51100000000E-03 0. -1.
    9900012    2    1    2    0    0 -0.28650069567E+02  0.17578340430E+02  0.22876647938E+02  0.50528861306E+02  0.30000004425E+02 0.  0.
         12    1    1    2    0    0  0.28650069567E+02 -0.17578340430E+02 -0.22876647938E+02  0.40659138694E+02  0.00000000000E+00 0. -1.
         11    1    3    3    0    0 -0.95818213343E+01  0.84164328750E+01  0.64801683848E+01  0.14305251657E+02  0.51100000000E-03 0. -1.
        -11    1    3    3    0    0 -0.52460381943E+01  0.10851847664E+01 -0.64134122993E+01  0.83564585977E+01  0.51100000000E-03 0.  1.
        -12    1    3    3    0    0 -0.13822210039E+02  0.80767227886E+01  0.22809891853E+02  0.27867151051E+02  0.00000000000E+00 0.  1.
</event>
<event>
 7    1  0.5764931E-013  0.5052883E+02  0.7816164E-02  0.1300439E+00
        -11   -1    0    0    0    0  0.00000000000E+00  0.00000000000E+00  0.45593999997E+02  0.45594000000E+02  0.51100000000E-03 0.  1.
         11   -1    0    0    0    0 -0.00000000000E+00 -0.00000000000E+00 -0.45593999997E+02  0.45594000000E+02  0.51100000000E-03 0. -1.
    9900012    2    1    2    0    0 -0.62909022854E+01  0.78933568040E+01  0.39386389691E+02  0.50528828512E+02  0.29999904746E+02 0.  0.
         12    1    1    2    0    0  0.62909022854E+01 -0.78933568040E+01 -0.39386389691E+02  0.40659171488E+02  0.00000000000E+00 0. -1.
         11    1    3    3    0    0 -0.66451108458E+01  0.11891455184E+02  0.12005772004E+02  0.18157719191E+02  0.51100000000E-03 0. -1.
        -11    1    3    3    0    0  0.79113816355E+01 -0.52818502034E+01  0.16790136236E+02  0.19297579538E+02  0.51100000000E-03 0.  1.
        -12    1    3    3    0    0 -0.75571730751E+01  0.12837518235E+01  0.10590481451E+02  0.13073529783E+02  0.00000000000E+00 0.  1.
</event>
<event>
 7    1  0.5764931E-013  0.5052886E+02  0.7816164E-02  0.1300439E+00
        -11   -1    0    0    0    0  0.00000000000E+00  0.00000000000E+00  0.45593999997E+02  0.45594000000E+02  0.51100000000E-03 0.  1.
         11   -1    0    0    0    0 -0.00000000000E+00 -0.00000000000E+00 -0.45593999997E+02  0.45594000000E+02  0.51100000000E-03 0. -1.
    9900012    2    1    2    0    0 -0.25283184220E+01 -0.39771776842E+01  0.40385090250E+02  0.50528857721E+02  0.29999993528E+02 0.  0.
         12    1    1    2    0    0  0.25283184220E+01  0.39771776842E+01 -0.40385090250E+02  0.40659142279E+02  0.00000000000E+00 0. -1.
         11    1    3    3    0    0  0.22148808868E+01  0.13534328272E+00 -0.19028582441E+01  0.29231635098E+01  0.51100000000E-03 0. -1.
        -11    1    3    3    0    0 -0.99204586007E+01  0.92019340651E-02  0.38950779089E+02  0.40194262967E+02  0.51100000000E-03 0.  1.
        -12    1    3    3    0    0  0.51772592919E+01 -0.41217229010E+01  0.33371694049E+01  0.74114312440E+01  0.00000000000E+00 0.  1.
</event>
<event>
 7    1  0.5764931E-013  0.5052886E+02  0.7816164E-02  0.1300439E+00
        -11   -1    0    0    0    0  0.00000000000E+00  0.00000000000E+00  0.45593999997E+02  0.45594000000E+02  0.51100000000E-03 0.  1.
         11   -1    0    0    0    0 -0.00000000000E+00 -0.00000000000E+00 -0.45593999997E+02  0.45594000000E+02  0.51100000000E-03 0. -1.
    9900012    2    1    2    0    0 -0.27353047852E+02  0.25114472855E+02  0.16560180213E+02  0.50528861516E+02  0.30000005065E+02 0.  0.
         12    1    1    2    0    0  0.27353047852E+02 -0.25114472855E+02 -0.16560180213E+02  0.40659138484E+02  0.00000000000E+00 0. -1.
         11    1    3    3    0    0 -0.18342475750E+01  0.11431823772E+02 -0.54593848596E+01  0.12800622729E+02  0.51100000000E-03 0. -1.
        -11    1    3    3    0    0 -0.14025995368E+02  0.11716097010E+02  0.94165975189E+01  0.20558885774E+02  0.51100000000E-03 0.  1.
         12    1    3    3    0    0 -0.11492804909E+02  0.19665520729E+01  0.12602967554E+02  0.17169353013E+02  0.00000000000E+00 0. -1.
</event>
<event>
 7    1  0.5764931E-013  0.5052888E+02  0.7816164E-02  0.1300439E+00
        -11   -1    0    0    0    0  0.00000000000E+00  0.00000000000E+00  0.45593999997E+02  0.45594000000E+02  0.51100000000E-03 0.  1.
         11   -1    0    0    0    0 -0.00000000000E+00 -0.00000000000E+00 -0.45593999997E+02  0.45594000000E+02  0.51100000000E-03 0. -1.
    9900012    2    1    2    0    0 -0.15308229173E+02 -0.34533749977E+02  0.15041361395E+02  0.50528876540E+02  0.30000050732E+02 0.  0.
         12    1    1    2    0    0  0.15308229173E+02  0.34533749977E+02 -0.15041361395E+02  0.40659123460E+02  0.00000000000E+00 0. -1.
         11    1    3    3    0    0 -0.38419995379E+00 -0.64050363349E+01 -0.61401267134E+01  0.88810616693E+01  0.51100000000E-03 0. -1.
        -11    1    3    3    0    0 -0.11864119025E+02 -0.27657670052E+02  0.12783677709E+02  0.32697499125E+02  0.51100000000E-03 0.  1.
         12    1    3    3    0    0 -0.30599101945E+01 -0.47104358991E+00  0.83978103990E+01  0.89503157464E+01  0.00000000000E+00 0. -1.
</event>
<event>
 7    1  0.5764931E-013  0.5052886E+02  0.7816164E-02  0.1300439E+00
        -11   -1    0    0    0    0  0.00000000000E+00  0.00000000000E+00  0.45593999997E+02  0.45594000000E+02  0.51100000000E-03 0. -1.
         11   -1    0    0    0    0 -0.00000000000E+00 -0.00000000000E+00 -0.45593999997E+02  0.45594000000E+02  0.51100000000E-03 0.  1.
    9900012    2    1    2    0    0 -0.88465319693E+01  0.33971492611E+02 -0.20514432606E+02  0.50528863471E+02  0.30000011007E+02 0.  0.
         12    1    1    2    0    0  0.88465319693E+01 -0.33971492611E+02  0.20514432606E+02  0.40659136529E+02  0.00000000000E+00 0. -1.
         11    1    3    3    0    0 -0.72649332791E+01 -0.10738453206E+01  0.28370353321E+01  0.78728120173E+01  0.51100000000E-03 0. -1.
        -11    1    3    3    0    0 -0.17489453897E+01  0.20039042962E+02 -0.95488939768E+01  0.22266643871E+02  0.51100000000E-03 0.  1.
         12    1    3    3    0    0  0.16734669953E+00  0.15006294970E+02 -0.13802573961E+02  0.20389407583E+02  0.00000000000E+00 0. -1.
</event>
<event>
 7    1  0.5764931E-013  0.5052886E+02  0.7816164E-02  0.1300439E+00
        -11   -1    0    0    0    0  0.00000000000E+00  0.00000000000E+00  0.45593999997E+02  0.45594000000E+02  0.51100000000E-03 0.  1.
         11   -1    0    0    0    0 -0.00000000000E+00 -0.00000000000E+00 -0.45593999997E+02  0.45594000000E+02  0.51100000000E-03 0. -1.
    9900012    2    1    2    0    0  0.32327222358E+01 -0.16328160482E+01  0.40497516690E+02  0.50528862781E+02  0.30000008911E+02 0.  0.
         12    1    1    2    0    0 -0.32327222358E+01  0.16328160482E+01 -0.40497516690E+02  0.40659137219E+02  0.00000000000E+00 0. -1.
         11    1    3    3    0    0  0.47905510623E+01 -0.18994725075E+00 -0.29865723248E+00  0.48036086271E+01  0.51100000000E-03 0. -1.
        -11    1    3    3    0    0 -0.19390970915E+01  0.63776777258E+01  0.35848944872E+02  0.36463429891E+02  0.51100000000E-03 0.  1.
        -12    1    3    3    0    0  0.38126826500E+00 -0.78205465233E+01  0.49472290503E+01  0.92618242635E+01  0.00000000000E+00 0.  1.
</event>
<event>
 7    1  0.5764931E-013  0.5052886E+02  0.7816164E-02  0.1300439E+00
        -11   -1    0    0    0    0  0.00000000000E+00  0.00000000000E+00  0.45593999997E+02  0.45594000000E+02  0.51100000000E-03 0. -1.
         11   -1    0    0    0    0 -0.00000000000E+00 -0.00000000000E+00 -0.45593999997E+02  0.45594000000E+02  0.51100000000E-03 0.  1.
    9900012    2    1    2    0    0  0.18635522585E+02 -0.32138525666E+02 -0.16522656527E+02  0.50528859420E+02  0.29999998694E+02 0.  0.
         12    1    1    2    0    0 -0.18635522585E+02  0.32138525666E+02  0.16522656527E+02  0.40659140580E+02  0.00000000000E+00 0. -1.
         11    1    3    3    0    0 -0.16998793376E+01  0.16090091105E+01 -0.74363363645E+00  0.24559094703E+01  0.51100000000E-03 0. -1.
        -11    1    3    3    0    0  0.10274663455E+02 -0.33765427890E+02 -0.13249282639E+02  0.37699022804E+02  0.51100000000E-03 0.  1.
        -12    1    3    3    0    0  0.10060738468E+02  0.17893113641E-01 -0.25297402513E+01  0.10373927146E+02  0.00000000000E+00 0.  1.
</event>
<event>
 7    1  0.5764931E-013  0.5052886E+02  0.7816164E-02  0.1300439E+00
        -11   -1    0    0    0    0  0.00000000000E+00  0.00000000000E+00  0.45593999997E+02  0.45594000000E+02  0.51100000000E-03 0.  1.
         11   -1    0    0    0    0 -0.00000000000E+00 -0.00000000000E+00 -0.45593999997E+02  0.45594000000E+02  0.51100000000E-03 0. -1.
    9900012    2    1    2    0    0 -0.16719495759E+02  0.25162476254E+02  0.27211652003E+02  0.50528858907E+02  0.29999997133E+02 0.  0.
         12    1    1    2    0    0  0.16719495759E+02 -0.25162476254E+02 -0.27211652003E+02  0.40659141093E+02  0.00000000000E+00 0. -1.
         11    1    3    3    0    0  0.16408429727E+01 -0.90966767619E+00 -0.16469792465E+01  0.24964778873E+01  0.51100000000E-03 0. -1.
        -11    1    3    3    0    0 -0.20798478079E+02  0.28225503324E+02  0.27239865883E+02  0.44398941675E+02  0.51100000000E-03 0.  1.
        -12    1    3    3    0    0  0.24381393473E+01 -0.21533593935E+01  0.16187653669E+01  0.36334393441E+01  0.00000000000E+00 0.  1.
</event>
<event>
 7    1  0.5764931E-013  0.5052886E+02  0.7816164E-02  0.1300439E+00
        -11   -1    0    0    0    0  0.00000000000E+00  0.00000000000E+00  0.45593999997E+02  0.45594000000E+02  0.51100000000E-03 0. -1.
         11   -1    0    0    0    0 -0.00000000000E+00 -0.00000000000E+00 -0.45593999997E+02  0.45594000000E+02  0.51100000000E-03 0.  1.
    9900012    2    1    2    0    0  0.90286457134E+01 -0.13138821156E+02 -0.37403487447E+02  0.50528856650E+02  0.29999990272E+02 0.  0.
         12    1    1    2    0    0 -0.90286457134E+01  0.13138821156E+02  0.37403487447E+02  0.40659143350E+02  0.00000000000E+00 0. -1.
         11    1    3    3    0    0 -0.27585518566E+01  0.62360742795E+01 -0.58192961472E+01  0.89645099518E+01  0.51100000000E-03 0. -1.
        -11    1    3    3    0    0  0.11482737558E+02 -0.11176569587E+02 -0.11085187179E+02  0.19484618155E+02  0.51100000000E-03 0.  1.
         12    1    3    3    0    0  0.30446001185E+00 -0.81983258486E+01 -0.20499004120E+02  0.22079728543E+02  0.00000000000E+00 0. -1.
</event>
<event>
 7    1  0.5764931E-013  0.5052882E+02  0.7816164E-02  0.1300439E+00
        -11   -1    0    0    0    0  0.00000000000E+00  0.00000000000E+00  0.45593999997E+02  0.45594000000E+02  0.51100000000E-03 0.  1.
         11   -1    0    0    0    0 -0.00000000000E+00 -0.00000000000E+00 -0.45593999997E+02  0.45594000000E+02  0.51100000000E-03 0. -1.
    9900012    2    1    2    0    0 -0.16434626093E+02  0.13173988862E+02  0.34778121987E+02  0.50528822852E+02  0.29999887541E+02 0.  0.
         12    1    1    2    0    0  0.16434626093E+02 -0.13173988862E+02 -0.34778121987E+02  0.40659177148E+02  0.00000000000E+00 0. -1.
         11    1    3    3    0    0 -0.97866364396E-01  0.17279834197E+01 -0.52176055254E+00  0.18076888170E+01  0.51100000000E-03 0. -1.
        -11    1    3    3    0    0 -0.13835862604E+02  0.49155399330E+01  0.21475802276E+01  0.14839330441E+02  0.51100000000E-03 0.  1.
        -12    1    3    3    0    0 -0.25008971247E+01  0.65304655092E+01  0.33152302312E+02  0.33881803594E+02  0.00000000000E+00 0.  1.
</event>
<event>
 7    1  0.5764931E-013  0.5052886E+02  0.7816164E-02  0.1300439E+00
        -11   -1    0    0    0    0  0.00000000000E+00  0.00000000000E+00  0.45593999997E+02  0.45594000000E+02  0.51100000000E-03 0.  1.
         11   -1    0    0    0    0 -0.00000000000E+00 -0.00000000000E+00 -0.45593999997E+02  0.45594000000E+02  0.51100000000E-03 0. -1.
    9900012    2    1    2    0    0  0.36342212720E+02 -0.11458808116E+02  0.14181149561E+02  0.50528859432E+02  0.29999998730E+02 0.  0.
         12    1    1    2    0    0 -0.36342212720E+02  0.11458808116E+02 -0.14181149561E+02  0.40659140568E+02  0.00000000000E+00 0. -1.
         11    1    3    3    0    0  0.28523708354E+02 -0.18413346045E+01  0.29998255075E+01  0.28740066192E+02  0.51100000000E-03 0. -1.
        -11    1    3    3    0    0  0.45969875180E+01 -0.76850787526E+01  0.14322707389E+02  0.16891793182E+02  0.51100000000E-03 0.  1.
         12    1    3    3    0    0  0.32215168481E+01 -0.19323947591E+01 -0.31413833360E+01  0.48970000583E+01  0.00000000000E+00 0. -1.
</event>
<event>
 7    1  0.5764931E-013  0.5052886E+02  0.7816164E-02  0.1300439E+00
        -11   -1    0    0    0    0  0.00000000000E+00  0.00000000000E+00  0.45593999997E+02  0.45594000000E+02  0.51100000000E-03 0. -1.
         11   -1    0    0    0    0 -0.00000000000E+00 -0.00000000000E+00 -0.45593999997E+02  0.45594000000E+02  0.51100000000E-03 0.  1.
    9900012    2    1    2    0    0 -0.62906481022E+01  0.16731888368E+02 -0.36519001744E+02  0.50528857974E+02  0.29999994297E+02 0.  0.
         12    1    1    2    0    0  0.62906481022E+01 -0.16731888368E+02  0.36519001744E+02  0.40659142026E+02  0.00000000000E+00 0. -1.
         11    1    3    3    0    0  0.47051048213E+01 -0.12040262007E+01 -0.11383778190E+01  0.49883458973E+01  0.51100000000E-03 0. -1.
        -11    1    3    3    0    0 -0.10092339457E+02  0.38740888963E+00 -0.19001155240E+02  0.21518580391E+02  0.51100000000E-03 0.  1.
         12    1    3    3    0    0 -0.90341346643E+00  0.17548505679E+02 -0.16379468686E+02  0.24021931685E+02  0.00000000000E+00 0. -1.
</event>
<event>
 7    1  0.5764931E-013  0.5052886E+02  0.7816164E-02  0.1300439E+00
        -11   -1    0    0    0    0  0.00000000000E+00  0.00000000000E+00  0.45593999997E+02  0.45594000000E+02  0.51100000000E-03 0.  1.
         11   -1    0    0    0    0 -0.00000000000E+00 -0.00000000000E+00 -0.45593999997E+02  0.45594000000E+02  0.51100000000E-03 0. -1.
    9900012    2    1    2    0    0  0.25958354781E+02  0.19582975183E+02  0.24409763632E+02  0.50528860062E+02  0.30000000645E+02 0.  0.
         12    1    1    2    0    0 -0.25958354781E+02 -0.19582975183E+02 -0.24409763632E+02  0.40659139938E+02  0.00000000000E+00 0. -1.
         11    1    3    3    0    0  0.75545560601E+01  0.29581886070E+01  0.13425224893E+02  0.15686263442E+02  0.51100000000E-03 0. -1.
        -11    1    3    3    0    0  0.26376219394E+01  0.77613818937E+01 -0.58997722227E+01  0.10099673803E+02  0.51100000000E-03 0.  1.
        -12    1    3    3    0    0  0.15766176781E+02  0.88634046822E+01  0.16884310962E+02  0.24742922817E+02  0.00000000000E+00 0.  1.
</event>
<event>
 7    1  0.5764931E-013  0.5052887E+02  0.7816164E-02  0.1300439E+00
        -11   -1    0    0    0    0  0.00000000000E+00  0.00000000000E+00  0.45593999997E+02  0.45594000000E+02  0.51100000000E-03 0. -1.
         11   -1    0    0    0    0 -0.00000000000E+00 -0.00000000000E+00 -0.45593999997E+02  0.45594000000E+02  0.51100000000E-03 0.  1.
    9900012    2    1    2    0    0  0.15104807488E+02 -0.31144548523E+02 -0.21331351929E+02  0.50528872032E+02  0.30000037029E+02 0.  0.
         12    1    1    2    0    0 -0.15104807488E+02  0.31144548523E+02  0.21331351929E+02  0.40659127968E+02  0.00000000000E+00 0. -1.
         11    1    3    3    0    0  0.20914872475E+02 -0.20865530087E+02 -0.56586115856E+01  0.30080261332E+02  0.51100000000E-03 0. -1.
        -11    1    3    3    0    0 -0.48333920828E+01 -0.68506545651E+01 -0.65034412569E+01  0.10610744340E+02  0.51100000000E-03 0.  1.
         12    1    3    3    0    0 -0.97667290431E+00 -0.34283638715E+01 -0.91692990865E+01  0.98378663609E+01  0.00000000000E+00 0. -1.
</event>
<event>
 7    1  0.5764931E-013  0.5052886E+02  0.7816164E-02  0.1300439E+00
        -11   -1    0    0    0    0  0.00000000000E+00  0.00000000000E+00  0.45593999997E+02  0.45594000000E+02  0.51100000000E-03 0.  1.
         11   -1    0    0    0    0 -0.00000000000E+00 -0.00000000000E+00 -0.45593999997E+02  0.45594000000E+02  0.51100000000E-03 0. -1.
    9900012    2    1    2    0    0  0.28914006017E+02  0.17681608012E+02  0.22461233851E+02  0.50528855494E+02  0.29999986761E+02 0.  0.
         12    1    1    2    0    0 -0.28914006017E+02 -0.17681608012E+02 -0.22461233851E+02  0.40659144506E+02  0.00000000000E+00 0. -1.
         11    1    3    3    0    0  0.54970358994E+01  0.42082188969E+01  0.12659523380E+01  0.70376946188E+01  0.51100000000E-03 0. -1.
        -11    1    3    3    0    0  0.41038019913E+01  0.99497702678E+01  0.21293427003E+02  0.23858942830E+02  0.51100000000E-03 0.  1.
        -12    1    3    3    0    0  0.19313168126E+02  0.35236188469E+01 -0.98145490118E-01  0.19632218045E+02  0.00000000000E+00 0.  1.
</event>
<event>
 7    1  0.5764931E-013  0.5052886E+02  0.7816164E-02  0.1300439E+00
        -11   -1    0    0    0    0  0.00000000000E+00  0.00000000000E+00  0.45593999997E+02  0.45594000000E+02  0.51100000000E-03 0.  1.
         11   -1    0    0    0    0 -0.00000000000E+00 -0.00000000000E+00 -0.45593999997E+02  0.45594000000E+02  0.51100000000E-03 0. -1.
    9900012    2    1    2    0    0  0.28813242836E+02 -0.13400447386E+02  0.25365140821E+02  0.50528864228E+02  0.30000013306E+02 0.  0.
         12    1    1    2    0    0 -0.28813242836E+02  0.13400447386E+02 -0.25365140821E+02  0.40659135772E+02  0.00000000000E+00 0. -1.
         11    1    3    3    0    0  0.32032542704E+02 -0.11544134251E+02  0.20874142463E+02  0.39938460806E+02  0.51100000000E-03 0. -1.
        -11    1    3    3    0    0  0.28935019201E+01 -0.15578474092E+01  0.25828375165E+01  0.41797478165E+01  0.51100000000E-03 0.  1.
         12    1    3    3    0    0 -0.61128017883E+01 -0.29846572553E+00  0.19081608415E+01  0.64106556052E+01  0.00000000000E+00 0. -1.
</event>
<event>
 7    1  0.5764931E-013  0.5052885E+02  0.7816164E-02  0.1300439E+00
        -11   -1    0    0    0    0  0.00000000000E+00  0.00000000000E+00  0.45593999997E+02  0.45594000000E+02  0.51100000000E-03 0. -1.
         11   -1    0    0    0    0 -0.00000000000E+00 -0.00000000000E+00 -0.45593999997E+02  0.45594000000E+02  0.51100000000E-03 0.  1.
    9900012    2    1    2    0    0 -0.34614642830E+02  0.98018851591E+01 -0.18945072431E+02  0.50528853177E+02  0.29999979718E+02 0.  0.
         12    1    1    2    0    0  0.34614642830E+02 -0.98018851591E+01  0.18945072431E+02  0.40659146823E+02  0.00000000000E+00 0. -1.
         11    1    3    3    0    0 -0.32216498704E+02  0.12041439901E+02 -0.20081318290E+02  0.39826604276E+02  0.51100000000E-03 0. -1.
        -11    1    3    3    0    0 -0.35918879747E+00 -0.46509853424E+01 -0.29640355442E+01  0.55268606112E+01  0.51100000000E-03 0.  1.
         12    1    3    3    0    0 -0.20389553289E+01  0.24114306002E+01  0.41002814031E+01  0.51753882905E+01  0.00000000000E+00 0. -1.
</event>
<event>
 7    1  0.5764931E-013  0.5052886E+02  0.7816164E-02  0.1300439E+00
        -11   -1    0    0    0    0  0.00000000000E+00  0.00000000000E+00  0.45593999997E+02  0.45594000000E+02  0.51100000000E-03 0.  1.
         11   -1    0    0    0    0 -0.00000000000E+00 -0.00000000000E+00 -0.45593999997E+02  0.45594000000E+02  0.51100000000E-03 0. -1.
    9900012    2    1    2    0    0  0.98946579994E+01 -0.22727028451E+02  0.32229548528E+02  0.50528857395E+02  0.29999992537E+02 0.  0.
         12    1    1    2    0    0 -0.98946579994E+01  0.22727028451E+02 -0.32229548528E+02  0.40659142605E+02  0.00000000000E+00 0. -1.
         11    1    3    3    0    0 -0.68540475466E+01 -0.92755988651E+00  0.52438911854E+01  0.86796733890E+01  0.51100000000E-03 0. -1.
        -11    1    3    3    0    0  0.11100042099E+02 -0.16796001391E+02  0.84454136854E+01  0.21832123349E+02  0.51100000000E-03 0.  1.
         12    1    3    3    0    0  0.56486634474E+01 -0.50034671726E+01  0.18540243657E+02  0.20017060657E+02  0.00000000000E+00 0. -1.
</event>
<event>
 7    1  0.5764931E-013  0.5052883E+02  0.7816164E-02  0.1300439E+00
        -11   -1    0    0    0    0  0.00000000000E+00  0.00000000000E+00  0.45593999997E+02  0.45594000000E+02  0.51100000000E-03 0.  1.
         11   -1    0    0    0    0 -0.00000000000E+00 -0.00000000000E+00 -0.45593999997E+02  0.45594000000E+02  0.51100000000E-03 0. -1.
    9900012    2    1    2    0    0 -0.41616817290E+01  0.33039125903E+01  0.40310451642E+02  0.50528831971E+02  0.29999915260E+02 0.  0.
         12    1    1    2    0    0  0.41616817290E+01 -0.33039125903E+01 -0.40310451642E+02  0.40659168029E+02  0.00000000000E+00 0. -1.
         11    1    3    3    0    0 -0.11682692902E+02 -0.35415203733E+01  0.13872179636E+02  0.18478772906E+02  0.51100000000E-03 0. -1.
        -11    1    3    3    0    0  0.90265594767E+01  0.96948191544E+01  0.25430199722E+02  0.28673391020E+02  0.51100000000E-03 0.  1.
        -12    1    3    3    0    0 -0.15055483037E+01 -0.28493861908E+01  0.10080722832E+01  0.33766680452E+01  0.00000000000E+00 0.  1.
</event>
<event>
 7    1  0.5764931E-013  0.5052876E+02  0.7816164E-02  0.1300439E+00
        -11   -1    0    0    0    0  0.00000000000E+00  0.00000000000E+00  0.45593999997E+02  0.45594000000E+02  0.51100000000E-03 0.  1.
         11   -1    0    0    0    0 -0.00000000000E+00 -0.00000000000E+00 -0.45593999997E+02  0.45594000000E+02  0.51100000000E-03 0. -1.
    9900012    2    1    2    0    0 -0.21224768717E+02 -0.27334241801E+02  0.21342958252E+02  0.50528764286E+02  0.29999709522E+02 0.  0.
         12    1    1    2    0    0  0.21224768717E+02  0.27334241801E+02 -0.21342958252E+02  0.40659235714E+02  0.00000000000E+00 0. -1.
         11    1    3    3    0    0  0.68977822549E-02  0.38680607592E+01 -0.16125630122E+01  0.41907399520E+01  0.51100000000E-03 0. -1.
        -11    1    3    3    0    0 -0.19879213557E+02 -0.32676967856E+02  0.21695976908E+02  0.43973660004E+02  0.51100000000E-03 0.  1.
        -12    1    3    3    0    0 -0.13524529422E+01  0.14746652962E+01  0.12595443564E+01  0.23643643295E+01  0.00000000000E+00 0.  1.
</event>
<event>
 7    1  0.5764931E-013  0.5052886E+02  0.7816164E-02  0.1300439E+00
        -11   -1    0    0    0    0  0.00000000000E+00  0.00000000000E+00  0.45593999997E+02  0.45594000000E+02  0.51100000000E-03 0.  1.
         11   -1    0    0    0    0 -0.00000000000E+00 -0.00000000000E+00 -0.45593999997E+02  0.45594000000E+02  0.51100000000E-03 0. -1.
    9900012    2    1    2    0    0  0.81810900210E+01  0.33958758198E+02  0.20809569624E+02  0.50528859820E+02  0.29999999908E+02 0.  0.
         12    1    1    2    0    0 -0.81810900210E+01 -0.33958758198E+02 -0.20809569624E+02  0.40659140180E+02  0.00000000000E+00 0. -1.
         11    1    3    3    0    0 -0.16178333095E+01  0.18018931562E+00 -0.43838802972E+01  0.46763510912E+01  0.51100000000E-03 0. -1.
        -11    1    3    3    0    0  0.12334835780E+01  0.24009671345E+02  0.21730234377E+02  0.32406617938E+02  0.51100000000E-03 0.  1.
         12    1    3    3    0    0  0.85654397525E+01  0.97688975369E+01  0.34632155434E+01  0.13445890790E+02  0.00000000000E+00 0. -1.
</event>
<event>
 7    1  0.5764931E-013  0.5052890E+02  0.7816164E-02  0.1300439E+00
        -11   -1    0    0    0    0  0.00000000000E+00  0.00000000000E+00  0.45593999997E+02  0.45594000000E+02  0.51100000000E-03 0. -1.
         11   -1    0    0    0    0 -0.00000000000E+00 -0.00000000000E+00 -0.45593999997E+02  0.45594000000E+02  0.51100000000E-03 0.  1.
    9900012    2    1    2    0    0 -0.34880847393E+01  0.18698056552E+02 -0.35935750638E+02  0.50528902274E+02  0.30000128951E+02 0.  0.
         12    1    1    2    0    0  0.34880847393E+01 -0.18698056552E+02  0.35935750638E+02  0.40659097726E+02  0.00000000000E+00 0. -1.
         11    1    3    3    0    0  0.79499337979E+01  0.46877192488E+01 -0.11692107532E+02  0.14895688569E+02  0.51100000000E-03 0. -1.
        -11    1    3    3    0    0 -0.11351008407E+02  0.16545326853E+02 -0.12547103177E+02  0.23664805745E+02  0.51100000000E-03 0.  1.
        -12    1    3    3    0    0 -0.87010130127E-01 -0.25349895501E+01 -0.11696539929E+02  0.11968407960E+02  0.00000000000E+00 0.  1.
</event>
<event>
 7    1  0.5764931E-013  0.5052886E+02  0.7816164E-02  0.1300439E+00
        -11   -1    0    0    0    0  0.00000000000E+00  0.00000000000E+00  0.45593999997E+02  0.45594000000E+02  0.51100000000E-03 0.  1.
         11   -1    0    0    0    0 -0.00000000000E+00 -0.00000000000E+00 -0.45593999997E+02  0.45594000000E+02  0.51100000000E-03 0. -1.
    9900012    2    1    2    0    0 -0.74155504625E+01  0.38647395439E+02  0.10225186828E+02  0.50528855782E+02  0.29999987634E+02 0.  0.
         12    1    1    2    0    0  0.74155504625E+01 -0.38647395439E+02 -0.10225186828E+02  0.40659144218E+02  0.00000000000E+00 0. -1.
         11    1    3    3    0    0 -0.45027592371E+01  0.85622444932E-01 -0.66896063866E+01  0.80643044225E+01  0.51100000000E-03 0. -1.
        -11    1    3    3    0    0 -0.35026231307E+00  0.27489356411E+02  0.13290074053E+02  0.30535446094E+02  0.51100000000E-03 0.  1.
         12    1    3    3    0    0 -0.25625289124E+01  0.11072416583E+02  0.36247191622E+01  0.11929105265E+02  0.00000000000E+00 0. -1.
</event>
<event>
 7    1  0.5764931E-013  0.5052886E+02  0.7816164E-02  0.1300439E+00
        -11   -1    0    0    0    0  0.00000000000E+00  0.00000000000E+00  0.45593999997E+02  0.45594000000E+02  0.51100000000E-03 0.  1.
         11   -1    0    0    0    0 -0.00000000000E+00 -0.00000000000E+00 -0.45593999997E+02  0.45594000000E+02  0.51100000000E-03 0. -1.
    9900012    2    1    2    0    0  0.31513140754E+02 -0.19031622982E+02  0.17259353916E+02  0.50528855750E+02  0.29999987538E+02 0.  0.
         12    1    1    2    0    0 -0.31513140754E+02  0.19031622982E+02 -0.17259353916E+02  0.40659144250E+02  0.00000000000E+00 0. -1.
         11    1    3    3    0    0 -0.26903419377E+01 -0.33176438728E+01 -0.11489105182E+01  0.44231997749E+01  0.51100000000E-03 0. -1.
        -11    1    3    3    0    0  0.24572153012E+02 -0.43637296061E+01  0.18750810800E+02  0.31215793209E+02  0.51100000000E-03 0.  1.
        -12    1    3    3    0    0  0.96313296798E+01 -0.11350249503E+02 -0.34254636566E+00  0.14889862766E+02  0.00000000000E+00 0.  1.
</event>
<event>
 7    1  0.5764931E-013  0.5052886E+02  0.7816164E-02  0.1300439E+00
        -11   -1    0    0    0    0  0.00000000000E+00  0.00000000000E+00  0.45593999997E+02  0.45594000000E+02  0.51100000000E-03 0.  1.
         11   -1    0    0    0    0 -0.00000000000E+00 -0.00000000000E+00 -0.45593999997E+02  0.45594000000E+02  0.51100000000E-03 0. -1.
    9900012    2    1    2    0    0  0.75379560050E+01 -0.87030615468E+01  0.38994895512E+02  0.50528856661E+02  0.29999990308E+02 0.  0.
         12    1    1    2    0    0 -0.75379560050E+01  0.87030615468E+01 -0.38994895512E+02  0.40659143339E+02  0.00000000000E+00 0. -1.
         11    1    3    3    0    0  0.45854812945E-01 -0.67641433612E+01 -0.29600742954E+01  0.73836155215E+01  0.51100000000E-03 0. -1.
        -11    1    3    3    0    0  0.35924997459E+01  0.16226407818E+01  0.98622201994E+01  0.10620847662E+02  0.51100000000E-03 0.  1.
         12    1    3    3    0    0  0.38996014461E+01 -0.35615589674E+01  0.32092749608E+02  0.32524393478E+02  0.00000000000E+00 0. -1.
</event>
<event>
 7    1  0.5764931E-013  0.5052886E+02  0.7816164E-02  0.1300439E+00
        -11   -1    0    0    0    0  0.00000000000E+00  0.00000000000E+00  0.45593999997E+02  0.45594000000E+02  0.51100000000E-03 0.  1.
         11   -1    0    0    0    0 -0.00000000000E+00 -0.00000000000E+00 -0.45593999997E+02  0.45594000000E+02  0.51100000000E-03 0. -1.
    9900012    2    1    2    0    0 -0.95195206907E+01  0.99155412723E+01  0.38265207010E+02  0.50528864490E+02  0.30000014103E+02 0.  0.
         12    1    1    2    0    0  0.95195206907E+01 -0.99155412723E+01 -0.38265207010E+02  0.40659135510E+02  0.00000000000E+00 0. -1.
         11    1    3    3    0    0  0.10492911561E+02  0.36572925151E+01  0.94509711726E+01  0.14587591917E+02  0.51100000000E-03 0.  1.
        -11    1    3    3    0    0 -0.14228174723E+02  0.21537974511E+01  0.19349498324E+02  0.24113956230E+02  0.51100000000E-03 0. -1.
        -12    1    3    3    0    0 -0.57842575284E+01  0.41044513061E+01  0.94647375135E+01  0.11827316343E+02  0.00000000000E+00 0.  1.
</event>
<event>
 7    1  0.5764931E-013  0.5052886E+02  0.7816164E-02  0.1300439E+00
        -11   -1    0    0    0    0  0.00000000000E+00  0.00000000000E+00  0.45593999997E+02  0.45594000000E+02  0.51100000000E-03 0.  1.
         11   -1    0    0    0    0 -0.00000000000E+00 -0.00000000000E+00 -0.45593999997E+02  0.45594000000E+02  0.51100000000E-03 0. -1.
    9900012    2    1    2    0    0  0.89147881180E+01 -0.19750353592E+02  0.34403718012E+02  0.50528859241E+02  0.29999998149E+02 0.  0.
         12    1    1    2    0    0 -0.89147881180E+01  0.19750353592E+02 -0.34403718012E+02  0.40659140759E+02  0.00000000000E+00 0. -1.
         11    1    3    3    0    0 -0.52949375089E+00 -0.80295177374E+01  0.24803833584E+01  0.84205593991E+01  0.51100000000E-03 0. -1.
        -11    1    3    3    0    0  0.13863234519E+02 -0.33636581846E-01  0.10829895637E+02  0.17591959599E+02  0.51100000000E-03 0.  1.
        -12    1    3    3    0    0 -0.44189526506E+01 -0.11687199273E+02  0.21093439016E+02  0.24516340243E+02  0.00000000000E+00 0.  1.
</event>
<event>
 7    1  0.5764931E-013  0.5052886E+02  0.7816164E-02  0.1300439E+00
        -11   -1    0    0    0    0  0.00000000000E+00  0.00000000000E+00  0.45593999997E+02  0.45594000000E+02  0.51100000000E-03 0.  1.
         11   -1    0    0    0    0 -0.00000000000E+00 -0.00000000000E+00 -0.45593999997E+02  0.45594000000E+02  0.51100000000E-03 0. -1.
    9900012    2    1    2    0    0 -0.13530304758E+02 -0.58227549319E+01  0.37897128744E+02  0.50528856024E+02  0.29999988371E+02 0.  0.
         12    1    1    2    0    0  0.13530304758E+02  0.58227549319E+01 -0.37897128744E+02  0.40659143976E+02  0.00000000000E+00 0. -1.
         11    1    3    3    0    0 -0.13755632525E+02 -0.14445717872E+02  0.27527069786E+02  0.33994643140E+02  0.51100000000E-03 0. -1.
        -11    1    3    3    0    0 -0.44631291346E+01  0.24549550714E+01  0.35102855865E+01  0.61861483360E+01  0.51100000000E-03 0.  1.
         12    1    3    3    0    0  0.46884569018E+01  0.61680078682E+01  0.68597733715E+01  0.10348064548E+02  0.00000000000E+00 0. -1.
</event>
<event>
 7    1  0.5764931E-013  0.5052886E+02  0.7816164E-02  0.1300439E+00
        -11   -1    0    0    0    0  0.00000000000E+00  0.00000000000E+00  0.45593999997E+02  0.45594000000E+02  0.51100000000E-03 0. -1.
         11   -1    0    0    0    0 -0.00000000000E+00 -0.00000000000E+00 -0.45593999997E+02  0.45594000000E+02  0.51100000000E-03 0.  1.
    9900012    2    1    2    0    0  0.13307485170E+02  0.34690010849E+02 -0.16513023325E+02  0.50528856458E+02  0.29999989690E+02 0.  0.
         12    1    1    2    0    0 -0.13307485170E+02 -0.34690010849E+02  0.16513023325E+02  0.40659143542E+02  0.00000000000E+00 0. -1.
         11    1    3    3    0    0  0.20463976511E+01  0.40126025337E+01  0.45745610190E+01  0.64199167610E+01  0.51100000000E-03 0. -1.
        -11    1    3    3    0    0 -0.82063370889E+00  0.25472081877E+02 -0.15399118787E+02  0.29776387533E+02  0.51100000000E-03 0.  1.
        -12    1    3    3    0    0  0.12081721228E+02  0.52053264383E+01 -0.56884655563E+01  0.14332552164E+02  0.00000000000E+00 0.  1.
</event>
<event>
 7    1  0.5764931E-013  0.5052886E+02  0.7816164E-02  0.1300439E+00
        -11   -1    0    0    0    0  0.00000000000E+00  0.00000000000E+00  0.45593999997E+02  0.45594000000E+02  0.51100000000E-03 0. -1.
         11   -1    0    0    0    0 -0.00000000000E+00 -0.00000000000E+00 -0.45593999997E+02  0.45594000000E+02  0.51100000000E-03 0.  1.
    9900012    2    1    2    0    0 -0.20140061984E+02  0.20080563375E+02 -0.29057086153E+02  0.50528863538E+02  0.30000011209E+02 0.  0.
         12    1    1    2    0    0  0.20140061984E+02 -0.20080563375E+02  0.29057086153E+02  0.40659136462E+02  0.00000000000E+00 0. -1.
         11    1    3    3    0    0  0.33940820712E+01  0.15529126389E+01 -0.45159744833E+01  0.58587845637E+01  0.51100000000E-03 0. -1.
        -11    1    3    3    0    0 -0.15067667911E+02  0.14272306921E+02 -0.27761827032E+02  0.34661973422E+02  0.51100000000E-03 0.  1.
        -12    1    3    3    0    0 -0.84664761443E+01  0.42553438158E+01  0.32207153622E+01  0.10008105552E+02  0.00000000000E+00 0.  1.
</event>
<event>
 7    1  0.5764931E-013  0.5052886E+02  0.7816164E-02  0.1300439E+00
        -11   -1    0    0    0    0  0.00000000000E+00  0.00000000000E+00  0.45593999997E+02  0.45594000000E+02  0.51100000000E-03 0.  1.
         11   -1    0    0    0    0 -0.00000000000E+00 -0.00000000000E+00 -0.45593999997E+02  0.45594000000E+02  0.51100000000E-03 0. -1.
    9900012    2    1    2    0    0  0.15043790277E+02 -0.37090864639E+02 -0.71496785583E+01  0.50528858727E+02  0.29999996586E+02 0.  0.
         12    1    1    2    0    0 -0.15043790277E+02  0.37090864639E+02  0.71496785583E+01  0.40659141273E+02  0.00000000000E+00 0. -1.
         11    1    3    3    0    0 -0.32610148023E+01 -0.83148423740E+01 -0.59573335239E+01  0.10735951016E+02  0.51100000000E-03 0. -1.
        -11    1    3    3    0    0  0.12360748730E+02 -0.30881590222E+02  0.48732286784E+00  0.33267073927E+02  0.51100000000E-03 0.  1.
        -12    1    3    3    0    0  0.59440563499E+01  0.21055679572E+01 -0.16796679022E+01  0.65258337839E+01  0.00000000000E+00 0.  1.
</event>
<event>
 7    1  0.5764931E-013  0.5052884E+02  0.7816164E-02  0.1300439E+00
        -11   -1    0    0    0    0  0.00000000000E+00  0.00000000000E+00  0.45593999997E+02  0.45594000000E+02  0.51100000000E-03 0.  1.
         11   -1    0    0    0    0 -0.00000000000E+00 -0.00000000000E+00 -0.45593999997E+02  0.45594000000E+02  0.51100000000E-03 0. -1.
    9900012    2    1    2    0    0 -0.71555273540E+01 -0.29462989339E+02  0.27090544898E+02  0.50528844385E+02  0.29999952991E+02 0.  0.
         12    1    1    2    0    0  0.71555273540E+01  0.29462989339E+02 -0.27090544898E+02  0.40659155615E+02  0.00000000000E+00 0. -1.
         11    1    3    3    0    0  0.76499810420E+01 -0.10335114282E+02  0.66780418199E+01  0.14489066221E+02  0.51100000000E-03 0. -1.
        -11    1    3    3    0    0 -0.11126443975E+02 -0.57944333318E+01  0.18090488356E+02  0.22014517537E+02  0.51100000000E-03 0.  1.
        -12    1    3    3    0    0 -0.36790644208E+01 -0.13333441726E+02  0.23220147220E+01  0.14025260626E+02  0.00000000000E+00 0.  1.
</event>
<event>
 7    1  0.5764931E-013  0.5052886E+02  0.7816164E-02  0.1300439E+00
        -11   -1    0    0    0    0  0.00000000000E+00  0.00000000000E+00  0.45593999997E+02  0.45594000000E+02  0.51100000000E-03 0. -1.
         11   -1    0    0    0    0 -0.00000000000E+00 -0.00000000000E+00 -0.45593999997E+02  0.45594000000E+02  0.51100000000E-03 0.  1.
    9900012    2    1    2    0    0 -0.37448880477E+02 -0.11770471459E+02 -0.10592582284E+02  0.50528862690E+02  0.30000008633E+02 0.  0.
         12    1    1    2    0    0  0.37448880477E+02  0.11770471459E+02  0.10592582284E+02  0.40659137310E+02  0.00000000000E+00 0. -1.
         11    1    3    3    0    0  0.67144776003E+00  0.28125004672E+01 -0.52362262421E+01  0.59815605398E+01  0.51100000000E-03 0. -1.
        -11    1    3    3    0    0 -0.31232359491E+02 -0.17038879716E+02 -0.85133388956E+01  0.36582244884E+02  0.51100000000E-03 0.  1.
         12    1    3    3    0    0 -0.68879687457E+01  0.24559077899E+01  0.31569828540E+01  0.79650572662E+01  0.00000000000E+00 0. -1.
</event>
<event>
 7    1  0.5764931E-013  0.5052886E+02  0.7816164E-02  0.1300439E+00
        -11   -1    0    0    0    0  0.00000000000E+00  0.00000000000E+00  0.45593999997E+02  0.45594000000E+02  0.51100000000E-03 0.  1.
         11   -1    0    0    0    0 -0.00000000000E+00 -0.00000000000E+00 -0.45593999997E+02  0.45594000000E+02  0.51100000000E-03 0. -1.
    9900012    2    1    2    0    0 -0.38847876169E+02 -0.97093662428E+01  0.70524013161E+01  0.50528860314E+02  0.30000001410E+02 0.  0.
         12    1    1    2    0    0  0.38847876169E+02  0.97093662428E+01 -0.70524013161E+01  0.40659139686E+02  0.00000000000E+00 0. -1.
         11    1    3    3    0    0 -0.17605909137E+02  0.46314572787E+01 -0.75176564628E+01  0.19696029854E+02  0.51100000000E-03 0. -1.
        -11    1    3    3    0    0 -0.14336286679E+02 -0.54774736683E+01  0.52047839131E+01  0.16205604258E+02  0.51100000000E-03 0.  1.
         12    1    3    3    0    0 -0.69056803529E+01 -0.88633498532E+01  0.93652738658E+01  0.14627226201E+02  0.00000000000E+00 0. -1.
</event>
<event>
 7    1  0.5764931E-013  0.5052886E+02  0.7816164E-02  0.1300439E+00
        -11   -1    0    0    0    0  0.00000000000E+00  0.00000000000E+00  0.45593999997E+02  0.45594000000E+02  0.51100000000E-03 0. -1.
         11   -1    0    0    0    0 -0.00000000000E+00 -0.00000000000E+00 -0.45593999997E+02  0.45594000000E+02  0.51100000000E-03 0.  1.
    9900012    2    1    2    0    0 -0.15314977465E+02 -0.33081117991E+02 -0.18007125351E+02  0.50528862458E+02  0.30000007927E+02 0.  0.
         12    1    1    2    0    0  0.15314977465E+02  0.33081117991E+02  0.18007125351E+02  0.40659137542E+02  0.00000000000E+00 0. -1.
         11    1    3    3    0    0 -0.39803200553E+01 -0.29642616853E+02 -0.12058165747E+02  0.32247899824E+02  0.51100000000E-03 0. -1.
        -11    1    3    3    0    0 -0.12537200083E+02 -0.61713680508E+01 -0.61942628194E+01  0.15285158215E+02  0.51100000000E-03 0.  1.
         12    1    3    3    0    0  0.12025426724E+01  0.27328669133E+01  0.24530321534E+00  0.29958044182E+01  0.00000000000E+00 0. -1.
</event>
<event>
 7    1  0.5764931E-013  0.5052887E+02  0.7816164E-02  0.1300439E+00
        -11   -1    0    0    0    0  0.00000000000E+00  0.00000000000E+00  0.45593999997E+02  0.45594000000E+02  0.51100000000E-03 0.  1.
         11   -1    0    0    0    0 -0.00000000000E+00 -0.00000000000E+00 -0.45593999997E+02  0.45594000000E+02  0.51100000000E-03 0. -1.
    9900012    2    1    2    0    0  0.37849989548E+02 -0.10424878984E+02  0.10576615079E+02  0.50528873139E+02  0.30000040392E+02 0.  0.
         12    1    1    2    0    0 -0.37849989548E+02  0.10424878984E+02 -0.10576615079E+02  0.40659126861E+02  0.00000000000E+00 0. -1.
         11    1    3    3    0    0  0.78794067930E+01 -0.10460395687E+01 -0.10075042805E+02  0.12832994116E+02  0.51100000000E-03 0. -1.
        -11    1    3    3    0    0  0.12448570090E+02 -0.38429617107E+01  0.10277030181E+02  0.16593751884E+02  0.51100000000E-03 0.  1.
         12    1    3    3    0    0  0.17522012665E+02 -0.55358777045E+01  0.10374627703E+02  0.21102127138E+02  0.00000000000E+00 0. -1.
</event>
<event>
 7    1  0.5764931E-013  0.5052886E+02  0.7816164E-02  0.1300439E+00
        -11   -1    0    0    0    0  0.00000000000E+00  0.00000000000E+00  0.45593999997E+02  0.45594000000E+02  0.51100000000E-03 0.  1.
         11   -1    0    0    0    0 -0.00000000000E+00 -0.00000000000E+00 -0.45593999997E+02  0.45594000000E+02  0.51100000000E-03 0. -1.
    9900012    2    1    2    0    0  0.20929576236E+02 -0.34630086482E+02  0.39844525825E+01  0.50528856950E+02  0.29999991185E+02 0.  0.
         12    1    1    2    0    0 -0.20929576236E+02  0.34630086482E+02 -0.39844525825E+01  0.40659143050E+02  0.00000000000E+00 0. -1.
         11    1    3    3    0    0 -0.27348125150E+01 -0.14691629551E+01  0.11192564858E+01  0.33000567605E+01  0.51100000000E-03 0. -1.
        -11    1    3    3    0    0  0.80780626975E+01 -0.18348689276E+02 -0.97563608240E+01  0.22296099925E+02  0.51100000000E-03 0.  1.
        -12    1    3    3    0    0  0.15586326053E+02 -0.14812234252E+02  0.12621556921E+02  0.24932700264E+02  0.00000000000E+00 0.  1.
</event>
<event>
 7    1  0.5764931E-013  0.5052890E+02  0.7816164E-02  0.1300439E+00
        -11   -1    0    0    0    0  0.00000000000E+00  0.00000000000E+00  0.45593999997E+02  0.45594000000E+02  0.51100000000E-03 0. -1.
         11   -1    0    0    0    0 -0.00000000000E+00 -0.00000000000E+00 -0.45593999997E+02  0.45594000000E+02  0.51100000000E-03 0.  1.
    9900012    2    1    2    0    0 -0.89820222673E+01 -0.18670845888E+02 -0.34984075599E+02  0.50528895783E+02  0.30000109223E+02 0.  0.
         12    1    1    2    0    0  0.89820222673E+01  0.18670845888E+02  0.34984075599E+02  0.40659104217E+02  0.00000000000E+00 0. -1.
         11    1    3    3    0    0 -0.12419069443E+02 -0.77468523329E+01 -0.71552942241E+01  0.16292490374E+02  0.51100000000E-03 0. -1.
        -11    1    3    3    0    0 -0.12834877486E+01 -0.50851257603E+01 -0.25979567234E+02  0.26503655573E+02  0.51100000000E-03 0.  1.
        -12    1    3    3    0    0  0.47205349240E+01 -0.58388677951E+01 -0.18492141406E+01  0.77327498365E+01  0.00000000000E+00 0.  1.
</event>
<event>
 7    1  0.5764931E-013  0.5052885E+02  0.7816164E-02  0.1300439E+00
        -11   -1    0    0    0    0  0.00000000000E+00  0.00000000000E+00  0.45593999997E+02  0.45594000000E+02  0.51100000000E-03 0. -1.
         11   -1    0    0    0    0 -0.00000000000E+00 -0.00000000000E+00 -0.45593999997E+02  0.45594000000E+02  0.51100000000E-03 0.  1.
    9900012    2    1    2    0    0 -0.95485334072E+01  0.15373777777E+02 -0.36409319620E+02  0.50528854798E+02  0.29999984645E+02 0.  0.
         12    1    1    2    0    0  0.95485334072E+01 -0.15373777777E+02  0.36409319620E+02  0.40659145202E+02  0.00000000000E+00 0. -1.
         11    1    3    3    0    0 -0.67612305627E+01 -0.70297337790E+01 -0.20350911649E+02  0.22567476619E+02  0.51100000000E-03 0. -1.
        -11    1    3    3    0    0 -0.15381711701E+01  0.20106889976E+02 -0.13275897496E+02  0.24143372789E+02  0.51100000000E-03 0.  1.
         12    1    3    3    0    0 -0.12491316743E+01  0.22966215802E+01 -0.27825104747E+01  0.38180053908E+01  0.00000000000E+00 0. -1.
</event>
<event>
 7    1  0.5764931E-013  0.5052886E+02  0.7816164E-02  0.1300439E+00
        -11   -1    0    0    0    0  0.00000000000E+00  0.00000000000E+00  0.45593999997E+02  0.45594000000E+02  0.51100000000E-03 0. -1.
         11   -1    0    0    0    0 -0.00000000000E+00 -0.00000000000E+00 -0.45593999997E+02  0.45594000000E+02  0.51100000000E-03 0.  1.
    9900012    2    1    2    0    0  0.14568359850E+02 -0.26874433873E+02 -0.26808464181E+02  0.50528855193E+02  0.29999985843E+02 0.  0.
         12    1    1    2    0    0 -0.14568359850E+02  0.26874433873E+02  0.26808464181E+02  0.40659144807E+02  0.00000000000E+00 0. -1.
         11    1    3    3    0    0  0.38973612457E+01 -0.17654671025E+02 -0.29431406473E+02  0.34541055584E+02  0.51100000000E-03 0. -1.
        -11    1    3    3    0    0  0.66240607615E+01 -0.18614517107E+01  0.31627045471E+01  0.75727065014E+01  0.51100000000E-03 0.  1.
         12    1    3    3    0    0  0.40469378432E+01 -0.73583111374E+01 -0.53976225561E+00  0.84150931067E+01  0.00000000000E+00 0. -1.
</event>
<event>
 7    1  0.5764931E-013  0.5052886E+02  0.7816164E-02  0.1300439E+00
        -11   -1    0    0    0    0  0.00000000000E+00  0.00000000000E+00  0.45593999997E+02  0.45594000000E+02  0.51100000000E-03 0.  1.
         11   -1    0    0    0    0 -0.00000000000E+00 -0.00000000000E+00 -0.45593999997E+02  0.45594000000E+02  0.51100000000E-03 0. -1.
    9900012    2    1    2    0    0 -0.35327013038E+02  0.20007182619E+02 -0.22091532957E+01  0.50528861239E+02  0.30000004221E+02 0.  0.
         12    1    1    2    0    0  0.35327013038E+02 -0.20007182619E+02  0.22091532957E+01  0.40659138761E+02  0.00000000000E+00 0. -1.
         11    1    3    3    0    0 -0.39018245653E+00  0.74685749295E+01  0.85124183008E+01  0.11331068768E+02  0.51100000000E-03 0. -1.
        -11    1    3    3    0    0 -0.14332805771E+02  0.82292197659E+01 -0.31311816804E+01  0.16821227013E+02  0.51100000000E-03 0.  1.
         12    1    3    3    0    0 -0.20604024810E+02  0.43093879240E+01 -0.75903899161E+01  0.22376565459E+02  0.00000000000E+00 0. -1.
</event>
<event>
 7    1  0.5764931E-013  0.5052885E+02  0.7816164E-02  0.1300439E+00
        -11   -1    0    0    0    0  0.00000000000E+00  0.00000000000E+00  0.45593999997E+02  0.45594000000E+02  0.51100000000E-03 0.  1.
         11   -1    0    0    0    0 -0.00000000000E+00 -0.00000000000E+00 -0.45593999997E+02  0.45594000000E+02  0.51100000000E-03 0. -1.
    9900012    2    1    2    0    0 -0.64504289438E+01 -0.27661513801E+02  0.29092940660E+02  0.50528848810E+02  0.29999966442E+02 0.  0.
         12    1    1    2    0    0  0.64504289438E+01  0.27661513801E+02 -0.29092940660E+02  0.40659151190E+02  0.00000000000E+00 0. -1.
         11    1    3    3    0    0  0.83670427255E+01 -0.10511407338E+02  0.15144572401E+02  0.20244879887E+02  0.51100000000E-03 0. -1.
        -11    1    3    3    0    0 -0.12974264527E+02 -0.39943569983E+01  0.64505068863E+01  0.15029819267E+02  0.51100000000E-03 0.  1.
        -12    1    3    3    0    0 -0.18432071420E+01 -0.13155749465E+02  0.74978613727E+01  0.15254149655E+02  0.00000000000E+00 0.  1.
</event>
<event>
 7    1  0.5764931E-013  0.5052887E+02  0.7816164E-02  0.1300439E+00
        -11   -1    0    0    0    0  0.00000000000E+00  0.00000000000E+00  0.45593999997E+02  0.45594000000E+02  0.51100000000E-03 0. -1.
         11   -1    0    0    0    0 -0.00000000000E+00 -0.00000000000E+00 -0.45593999997E+02  0.45594000000E+02  0.51100000000E-03 0.  1.
    9900012    2    1    2    0    0  0.14445342776E+02  0.11524559819E+02  0.36217146224E+02  0.50528867108E+02  0.30000022061E+02 0.  0.
         12    1    1    2    0    0 -0.14445342776E+02 -0.11524559819E+02 -0.36217146224E+02  0.40659132892E+02  0.00000000000E+00 0. -1.
         11    1    3    3    0    0  0.47822280159E+00 -0.47843527430E+01  0.99349167201E+01  0.11037268626E+02  0.51100000000E-03 0. -1.
        -11    1    3    3    0    0  0.17870786923E+02  0.13505894368E+02  0.14284837921E+02  0.26567476406E+02  0.51100000000E-03 0.  1.
        -12    1    3    3    0    0 -0.39036669485E+01  0.28030181946E+01  0.11997391583E+02  0.12924122076E+02  0.00000000000E+00 0.  1.
</event>
<event>
 7    1  0.5764931E-013  0.5052888E+02  0.7816164E-02  0.1300439E+00
        -11   -1    0    0    0    0  0.00000000000E+00  0.00000000000E+00  0.45593999997E+02  0.45594000000E+02  0.51100000000E-03 0.  1.
         11   -1    0    0    0    0 -0.00000000000E+00 -0.00000000000E+00 -0.45593999997E+02  0.45594000000E+02  0.51100000000E-03 0. -1.
    9900012    2    1    2    0    0  0.33618305790E+02 -0.11229344494E+02  0.19921733508E+02  0.50528878908E+02  0.30000057930E+02 0.  0.
         12    1    1    2    0    0 -0.33618305790E+02  0.11229344494E+02 -0.19921733508E+02  0.40659121092E+02  0.00000000000E+00 0. -1.
         11    1    3    3    0    0  0.10475723512E+02  0.72035956662E+01 -0.80849051321E+00  0.12739161307E+02  0.51100000000E-03 0. -1.
        -11    1    3    3    0    0  0.13500907645E+02 -0.15737557718E+02  0.96942114889E+01  0.22889363618E+02  0.51100000000E-03 0.  1.
        -12    1    3    3    0    0  0.96416746330E+01 -0.26953824423E+01  0.11036012532E+02  0.14900353984E+02  0.00000000000E+00 0.  1.
</event>
<event>
 7    1  0.5764931E-013  0.5052885E+02  0.7816164E-02  0.1300439E+00
        -11   -1    0    0    0    0  0.00000000000E+00  0.00000000000E+00  0.45593999997E+02  0.45594000000E+02  0.51100000000E-03 0. -1.
         11   -1    0    0    0    0 -0.00000000000E+00 -0.00000000000E+00 -0.45593999997E+02  0.45594000000E+02  0.51100000000E-03 0.  1.
    9900012    2    1    2    0    0 -0.28694082033E+01  0.40482418122E+02  0.24711845215E+01  0.50528850558E+02  0.29999971755E+02 0.  0.
         12    1    1    2    0    0  0.28694082033E+01 -0.40482418122E+02 -0.24711845215E+01  0.40659149442E+02  0.00000000000E+00 0. -1.
         11    1    3    3    0    0 -0.16748508182E+01  0.27426488865E+01 -0.59169369252E+01  0.67333046133E+01  0.51100000000E-03 0.  1.
        -11    1    3    3    0    0  0.60356773778E+01  0.15217862003E+02  0.11401852091E+02  0.19950312196E+02  0.51100000000E-03 0. -1.
        -12    1    3    3    0    0 -0.72302347629E+01  0.22521907233E+02 -0.30137306443E+01  0.23845233749E+02  0.00000000000E+00 0.  1.
</event>
<event>
 7    1  0.5764931E-013  0.5052885E+02  0.7816164E-02  0.1300439E+00
        -11   -1    0    0    0    0  0.00000000000E+00  0.00000000000E+00  0.45593999997E+02  0.45594000000E+02  0.51100000000E-03 0.  1.
         11   -1    0    0    0    0 -0.00000000000E+00 -0.00000000000E+00 -0.45593999997E+02  0.45594000000E+02  0.51100000000E-03 0. -1.
    9900012    2    1    2    0    0  0.10466333182E+02  0.23682436335E+02  0.31349071246E+02  0.50528853562E+02  0.29999980887E+02 0.  0.
         12    1    1    2    0    0 -0.10466333182E+02 -0.23682436335E+02 -0.31349071246E+02  0.40659146438E+02  0.00000000000E+00 0. -1.
         11    1    3    3    0    0 -0.29040227632E+01  0.98323645238E+01  0.80492959426E+00  0.10283805339E+02  0.51100000000E-03 0. -1.
        -11    1    3    3    0    0  0.32853335750E+01  0.15845318505E+01  0.21828496770E+02  0.22131141619E+02  0.51100000000E-03 0.  1.
        -12    1    3    3    0    0  0.10085022370E+02  0.12265539961E+02  0.87156448822E+01  0.18113906604E+02  0.00000000000E+00 0.  1.
</event>
<event>
 7    1  0.5764931E-013  0.5052887E+02  0.7816164E-02  0.1300439E+00
        -11   -1    0    0    0    0  0.00000000000E+00  0.00000000000E+00  0.45593999997E+02  0.45594000000E+02  0.51100000000E-03 0.  1.
         11   -1    0    0    0    0 -0.00000000000E+00 -0.00000000000E+00 -0.45593999997E+02  0.45594000000E+02  0.51100000000E-03 0. -1.
    9900012    2    1    2    0    0  0.97827222609E+01 -0.38902044857E+02  0.66403694404E+01  0.50528865046E+02  0.30000015795E+02 0.  0.
         12    1    1    2    0    0 -0.97827222609E+01  0.38902044857E+02 -0.66403694404E+01  0.40659134954E+02  0.00000000000E+00 0. -1.
         11    1    3    3    0    0  0.11926971689E+01  0.23847838826E+01  0.36177157329E+01  0.44941726812E+01  0.51100000000E-03 0. -1.
        -11    1    3    3    0    0  0.86017755856E+01 -0.19983589078E+02 -0.64906204506E+01  0.22703799897E+02  0.51100000000E-03 0.  1.
        -12    1    3    3    0    0 -0.11750493563E-01 -0.21303239661E+02  0.95132741581E+01  0.23330892468E+02  0.00000000000E+00 0.  1.
</event>
<event>
 7    1  0.5764931E-013  0.5052884E+02  0.7816164E-02  0.1300439E+00
        -11   -1    0    0    0    0  0.00000000000E+00  0.00000000000E+00  0.45593999997E+02  0.45594000000E+02  0.51100000000E-03 0.  1.
         11   -1    0    0    0    0 -0.00000000000E+00 -0.00000000000E+00 -0.45593999997E+02  0.45594000000E+02  0.51100000000E-03 0. -1.
    9900012    2    1    2    0    0 -0.98592697502E+01  0.23797593855E+02  0.31458484044E+02  0.50528844922E+02  0.29999954626E+02 0.  0.
         12    1    1    2    0    0  0.98592697502E+01 -0.23797593855E+02 -0.31458484044E+02  0.40659155078E+02  0.00000000000E+00 0. -1.
         11    1    3    3    0    0 -0.62406992664E+01 -0.19092924779E+01  0.20145522146E+02  0.21176255285E+02  0.51100000000E-03 0. -1.
        -11    1    3    3    0    0 -0.68682648008E+00  0.17576741078E+02  0.10913696156E+02  0.20700780700E+02  0.51100000000E-03 0.  1.
        -12    1    3    3    0    0 -0.29317440037E+01  0.81301452545E+01  0.39926574268E+00  0.86518089378E+01  0.00000000000E+00 0.  1.
</event>
<event>
 7    1  0.5764931E-013  0.5052886E+02  0.7816164E-02  0.1300439E+00
        -11   -1    0    0    0    0  0.00000000000E+00  0.00000000000E+00  0.45593999997E+02  0.45594000000E+02  0.51100000000E-03 0.  1.
         11   -1    0    0    0    0 -0.00000000000E+00 -0.00000000000E+00 -0.45593999997E+02  0.45594000000E+02  0.51100000000E-03 0. -1.
    9900012    2    1    2    0    0 -0.31504323792E+02  0.17018707167E+02  0.19261547345E+02  0.50528855674E+02  0.29999987306E+02 0.  0.
         12    1    1    2    0    0  0.31504323792E+02 -0.17018707167E+02 -0.19261547345E+02  0.40659144326E+02  0.00000000000E+00 0. -1.
         11    1    3    3    0    0 -0.14212824094E+02  0.51390079424E+01  0.96142010855E+00  0.15143912976E+02  0.51100000000E-03 0. -1.
        -11    1    3    3    0    0 -0.13889837685E+02  0.13021431015E+02  0.22751961778E+02  0.29667103358E+02  0.51100000000E-03 0.  1.
        -12    1    3    3    0    0 -0.34016620128E+01 -0.11417317902E+01 -0.44518345418E+01  0.57178393399E+01  0.00000000000E+00 0.  1.
</event>
<event>
 7    1  0.5764931E-013  0.5052886E+02  0.7816164E-02  0.1300439E+00
        -11   -1    0    0    0    0  0.00000000000E+00  0.00000000000E+00  0.45593999997E+02  0.45594000000E+02  0.51100000000E-03 0.  1.
         11   -1    0    0    0    0 -0.00000000000E+00 -0.00000000000E+00 -0.45593999997E+02  0.45594000000E+02  0.51100000000E-03 0. -1.
    9900012    2    1    2    0    0  0.24435807679E+02 -0.12663937481E+02  0.29927936561E+02  0.50528863311E+02  0.30000010521E+02 0.  0.
         12    1    1    2    0    0 -0.24435807679E+02  0.12663937481E+02 -0.29927936561E+02  0.40659136689E+02  0.00000000000E+00 0. -1.
         11    1    3    3    0    0 -0.14609014435E+01  0.52904658589E+01 -0.83318531497E+00  0.55513475898E+01  0.51100000000E-03 0. -1.
        -11    1    3    3    0    0  0.11761951192E+02 -0.10685343454E+02  0.20964850687E+02  0.26306748662E+02  0.51100000000E-03 0.  1.
         12    1    3    3    0    0  0.14134757931E+02 -0.72690598855E+01  0.97962711886E+01  0.18670767059E+02  0.00000000000E+00 0. -1.
</event>
<event>
 7    1  0.5764931E-013  0.5052887E+02  0.7816164E-02  0.1300439E+00
        -11   -1    0    0    0    0  0.00000000000E+00  0.00000000000E+00  0.45593999997E+02  0.45594000000E+02  0.51100000000E-03 0. -1.
         11   -1    0    0    0    0 -0.00000000000E+00 -0.00000000000E+00 -0.45593999997E+02  0.45594000000E+02  0.51100000000E-03 0.  1.
    9900012    2    1    2    0    0 -0.34145148648E+02 -0.19925232121E+02 -0.95004646729E+01  0.50528869657E+02  0.30000029808E+02 0.  0.
         12    1    1    2    0    0  0.34145148648E+02  0.19925232121E+02  0.95004646729E+01  0.40659130343E+02  0.00000000000E+00 0. -1.
         11    1    3    3    0    0 -0.10795797945E+02  0.27808411789E+01 -0.93074447917E+01  0.14522770388E+02  0.51100000000E-03 0. -1.
        -11    1    3    3    0    0 -0.22346620175E+02 -0.21820161354E+02  0.41079164366E+01  0.31501838875E+02  0.51100000000E-03 0.  1.
        -12    1    3    3    0    0 -0.10027305280E+01 -0.88591194602E+00 -0.43009363177E+01  0.45042603940E+01  0.00000000000E+00 0.  1.
</event>
<event>
 7    1  0.5764931E-013  0.5052887E+02  0.7816164E-02  0.1300439E+00
        -11   -1    0    0    0    0  0.00000000000E+00  0.00000000000E+00  0.45593999997E+02  0.45594000000E+02  0.51100000000E-03 0.  1.
         11   -1    0    0    0    0 -0.00000000000E+00 -0.00000000000E+00 -0.45593999997E+02  0.45594000000E+02  0.51100000000E-03 0. -1.
    9900012    2    1    2    0    0 -0.26131851065E+01  0.35675567621E+02 -0.19328473569E+02  0.50528871234E+02  0.30000034603E+02 0.  0.
         12    1    1    2    0    0  0.26131851065E+01 -0.35675567621E+02  0.19328473569E+02  0.40659128766E+02  0.00000000000E+00 0. -1.
         11    1    3    3    0    0 -0.53272863733E+01  0.14430485172E+02 -0.22174871910E+02  0.26987845911E+02  0.51100000000E-03 0.  1.
        -11    1    3    3    0    0  0.96060203288E+00  0.27512874802E+00  0.22810312923E+01  0.24902923746E+01  0.51100000000E-03 0. -1.
         12    1    3    3    0    0  0.17534992339E+01  0.20969953701E+02  0.56536704860E+00  0.21050732949E+02  0.00000000000E+00 0. -1.
</event>
<event>
 7    1  0.5764931E-013  0.5052887E+02  0.7816164E-02  0.1300439E+00
        -11   -1    0    0    0    0  0.00000000000E+00  0.00000000000E+00  0.45593999997E+02  0.45594000000E+02  0.51100000000E-03 0.  1.
         11   -1    0    0    0    0 -0.00000000000E+00 -0.00000000000E+00 -0.45593999997E+02  0.45594000000E+02  0.51100000000E-03 0. -1.
    9900012    2    1    2    0    0  0.11707882235E+02  0.12950512468E+02  0.36720225178E+02  0.50528865519E+02  0.30000017232E+02 0.  0.
         12    1    1    2    0    0 -0.11707882235E+02 -0.12950512468E+02 -0.36720225178E+02  0.40659134481E+02  0.00000000000E+00 0. -1.
         11    1    3    3    0    0  0.34231550657E+01 -0.12216564520E+01 -0.11294760848E+01  0.38060677316E+01  0.51100000000E-03 0. -1.
        -11    1    3    3    0    0  0.29974531051E+01  0.16447631648E+02  0.37378931099E+02  0.40947451719E+02  0.51100000000E-03 0.  1.
        -12    1    3    3    0    0  0.52872740645E+01 -0.22754627282E+01  0.47077016364E+00  0.57753460683E+01  0.00000000000E+00 0.  1.
</event>
<event>
 7    1  0.5764931E-013  0.5052886E+02  0.7816164E-02  0.1300439E+00
        -11   -1    0    0    0    0  0.00000000000E+00  0.00000000000E+00  0.45593999997E+02  0.45594000000E+02  0.51100000000E-03 0. -1.
         11   -1    0    0    0    0 -0.00000000000E+00 -0.00000000000E+00 -0.45593999997E+02  0.45594000000E+02  0.51100000000E-03 0.  1.
    9900012    2    1    2    0    0  0.19529903721E+02  0.35440326699E+02 -0.39663211314E+01  0.50528860816E+02  0.30000002935E+02 0.  0.
         12    1    1    2    0    0 -0.19529903721E+02 -0.35440326699E+02  0.39663211314E+01  0.40659139184E+02  0.00000000000E+00 0. -1.
         11    1    3    3    0    0  0.81773059607E+01  0.17116496207E+02 -0.21102653146E+01  0.19086539633E+02  0.51100000000E-03 0. -1.
        -11    1    3    3    0    0  0.66533259243E+01 -0.14419658130E+01 -0.77232454520E+01  0.10295364580E+02  0.51100000000E-03 0.  1.
        -12    1    3    3    0    0  0.46992718358E+01  0.19765796305E+02  0.58671896352E+01  0.21146956603E+02  0.00000000000E+00 0.  1.
</event>
<event>
 7    1  0.5764931E-013  0.5052886E+02  0.7816164E-02  0.1300439E+00
        -11   -1    0    0    0    0  0.00000000000E+00  0.00000000000E+00  0.45593999997E+02  0.45594000000E+02  0.51100000000E-03 0. -1.
         11   -1    0    0    0    0 -0.00000000000E+00 -0.00000000000E+00 -0.45593999997E+02  0.45594000000E+02  0.51100000000E-03 0.  1.
    9900012    2    1    2    0    0  0.23581733973E+02 -0.30779238245E+02  0.12235443572E+02  0.50528858795E+02  0.29999996794E+02 0.  0.
         12    1    1    2    0    0 -0.23581733973E+02  0.30779238245E+02 -0.12235443572E+02  0.40659141205E+02  0.00000000000E+00 0. -1.
         11    1    3    3    0    0  0.16482791894E+02 -0.20527375499E+02  0.15054802522E+02  0.30326599755E+02  0.51100000000E-03 0. -1.
        -11    1    3    3    0    0  0.29502870103E+01  0.29177880648E+01  0.30997351276E+01  0.51793859440E+01  0.51100000000E-03 0.  1.
        -12    1    3    3    0    0  0.41486550696E+01 -0.13169650810E+02 -0.59190940777E+01  0.15022873096E+02  0.00000000000E+00 0.  1.
</event>
<event>
 7    1  0.5764931E-013  0.5052873E+02  0.7816164E-02  0.1300439E+00
        -11   -1    0    0    0    0  0.00000000000E+00  0.00000000000E+00  0.45593999997E+02  0.45594000000E+02  0.51100000000E-03 0. -1.
         11   -1    0    0    0    0 -0.00000000000E+00 -0.00000000000E+00 -0.45593999997E+02  0.45594000000E+02  0.51100000000E-03 0.  1.
    9900012    2    1    2    0    0 -0.20250393334E+02 -0.33992335423E+02 -0.93605194680E+01  0.50528725260E+02  0.29999590896E+02 0.  0.
         12    1    1    2    0    0  0.20250393334E+02  0.33992335423E+02  0.93605194680E+01  0.40659274740E+02  0.00000000000E+00 0. -1.
         11    1    3    3    0    0  0.59208965133E+01 -0.56655942191E+01  0.41124080355E+01  0.91688534446E+01  0.51100000000E-03 0. -1.
        -11    1    3    3    0    0 -0.22250431320E+02 -0.20670142391E+02 -0.11883267649E+02  0.32612091787E+02  0.51100000000E-03 0.  1.
        -12    1    3    3    0    0 -0.39208585275E+01 -0.76565988127E+01 -0.15896598542E+01  0.87477800283E+01  0.00000000000E+00 0.  1.
</event>
<event>
 7    1  0.6728683E-013  0.5052887E+02  0.7816164E-02  0.1300439E+00
        -11   -1    0    0    0    0  0.00000000000E+00  0.00000000000E+00  0.45593999997E+02  0.45594000000E+02  0.51100000000E-03 0.  1.
         11   -1    0    0    0    0 -0.00000000000E+00 -0.00000000000E+00 -0.45593999997E+02  0.45594000000E+02  0.51100000000E-03 0. -1.
    9900012    2    1    2    0    0 -0.10888194409E+01  0.38301603751E+02  0.13600249399E+02  0.50528866200E+02  0.30000019300E+02 0.  0.
         12    1    1    2    0    0  0.10888194409E+01 -0.38301603751E+02 -0.13600249399E+02  0.40659133800E+02  0.00000000000E+00 0. -1.
         11    1    3    3    0    0 -0.74555929375E+01  0.21207059837E+01  0.41067033313E+01  0.87720164404E+01  0.51100000000E-03 0. -1.
        -11    1    3    3    0    0  0.29223009473E+01  0.31604297823E+02  0.13781155646E+02  0.34601903631E+02  0.51100000000E-03 0.  1.
         12    1    3    3    0    0  0.34444725493E+01  0.45765999446E+01 -0.42876095785E+01  0.71549461279E+01  0.00000000000E+00 0. -1.
</event>
<event>
 7    1  0.5764931E-013  0.5052886E+02  0.7816164E-02  0.1300439E+00
        -11   -1    0    0    0    0  0.00000000000E+00  0.00000000000E+00  0.45593999997E+02  0.45594000000E+02  0.51100000000E-03 0. -1.
         11   -1    0    0    0    0 -0.00000000000E+00 -0.00000000000E+00 -0.45593999997E+02  0.45594000000E+02  0.51100000000E-03 0.  1.
    9900012    2    1    2    0    0  0.21452722480E+02  0.33836692287E+02 -0.69299876311E+01  0.50528858650E+02  0.29999996353E+02 0.  0.
         12    1    1    2    0    0 -0.21452722480E+02 -0.33836692287E+02  0.69299876311E+01  0.40659141350E+02  0.00000000000E+00 0. -1.
         11    1    3    3    0    0 -0.17758222755E+01 -0.14791876953E+01 -0.60740778275E+01  0.64989201186E+01  0.51100000000E-03 0. -1.
        -11    1    3    3    0    0  0.21232778770E+02  0.22194459446E+02  0.19763615740E+00  0.30715858847E+02  0.51100000000E-03 0.  1.
        -12    1    3    3    0    0  0.19957659862E+01  0.13121420536E+02 -0.10535459609E+01  0.13314079685E+02  0.00000000000E+00 0.  1.
</event>
<event>
 7    1  0.5764931E-013  0.5052885E+02  0.7816164E-02  0.1300439E+00
        -11   -1    0    0    0    0  0.00000000000E+00  0.00000000000E+00  0.45593999997E+02  0.45594000000E+02  0.51100000000E-03 0.  1.
         11   -1    0    0    0    0 -0.00000000000E+00 -0.00000000000E+00 -0.45593999997E+02  0.45594000000E+02  0.51100000000E-03 0. -1.
    9900012    2    1    2    0    0  0.38872366100E+02  0.11311727495E+02 -0.37617432921E+01  0.50528846815E+02  0.29999960378E+02 0.  0.
         12    1    1    2    0    0 -0.38872366100E+02 -0.11311727495E+02  0.37617432921E+01  0.40659153185E+02  0.00000000000E+00 0. -1.
         11    1    3    3    0    0  0.56113891799E+01 -0.28746711847E+01 -0.53500852387E+01  0.82689077435E+01  0.51100000000E-03 0. -1.
        -11    1    3    3    0    0  0.33110211630E+02  0.78736717408E+01  0.59981047679E+01  0.34558039324E+02  0.51100000000E-03 0.  1.
        -12    1    3    3    0    0  0.15076529082E+00  0.63127269387E+01 -0.44097628213E+01  0.77018997472E+01  0.00000000000E+00 0.  1.
</event>
<event>
 7    1  0.5764931E-013  0.5052886E+02  0.7816164E-02  0.1300439E+00
        -11   -1    0    0    0    0  0.00000000000E+00  0.00000000000E+00  0.45593999997E+02  0.45594000000E+02  0.51100000000E-03 0.  1.
         11   -1    0    0    0    0 -0.00000000000E+00 -0.00000000000E+00 -0.45593999997E+02  0.45594000000E+02  0.51100000000E-03 0. -1.
    9900012    2    1    2    0    0  0.10735546727E+02  0.25768454837E+02  0.29561806701E+02  0.50528860269E+02  0.30000001275E+02 0.  0.
         12    1    1    2    0    0 -0.10735546727E+02 -0.25768454837E+02 -0.29561806701E+02  0.40659139731E+02  0.00000000000E+00 0. -1.
         11    1    3    3    0    0  0.65136938411E+01  0.35138288443E+01 -0.21874792188E+01  0.77175297989E+01  0.51100000000E-03 0. -1.
        -11    1    3    3    0    0  0.45465325501E+01  0.59106463612E+01  0.23188858315E+02  0.24358363017E+02  0.51100000000E-03 0.  1.
         12    1    3    3    0    0 -0.32467966466E+00  0.16343979631E+02  0.85604276046E+01  0.18452967454E+02  0.00000000000E+00 0. -1.
</event>
<event>
 7    1  0.5764931E-013  0.5052886E+02  0.7816164E-02  0.1300439E+00
        -11   -1    0    0    0    0  0.00000000000E+00  0.00000000000E+00  0.45593999997E+02  0.45594000000E+02  0.51100000000E-03 0.  1.
         11   -1    0    0    0    0 -0.00000000000E+00 -0.00000000000E+00 -0.45593999997E+02  0.45594000000E+02  0.51100000000E-03 0. -1.
    9900012    2    1    2    0    0  0.86424742143E+01  0.11271927763E-02  0.39730003710E+02  0.50528861340E+02  0.30000004528E+02 0.  0.
         12    1    1    2    0    0 -0.86424742143E+01 -0.11271927763E-02 -0.39730003710E+02  0.40659138660E+02  0.00000000000E+00 0. -1.
         11    1    3    3    0    0  0.11408494807E+02 -0.11256412216E+02  0.12269031888E+02  0.20183897381E+02  0.51100000000E-03 0. -1.
        -11    1    3    3    0    0 -0.21653390505E+01  0.71662400826E+01  0.23322818982E+02  0.24494847941E+02  0.51100000000E-03 0.  1.
         12    1    3    3    0    0 -0.60068154207E+00  0.40912993266E+01  0.41381528393E+01  0.58501160173E+01  0.00000000000E+00 0. -1.
</event>
<event>
 7    1  0.5764931E-013  0.5052887E+02  0.7816164E-02  0.1300439E+00
        -11   -1    0    0    0    0  0.00000000000E+00  0.00000000000E+00  0.45593999997E+02  0.45594000000E+02  0.51100000000E-03 0. -1.
         11   -1    0    0    0    0 -0.00000000000E+00 -0.00000000000E+00 -0.45593999997E+02  0.45594000000E+02  0.51100000000E-03 0.  1.
    9900012    2    1    2    0    0 -0.13274711966E+02 -0.38226626481E+02  0.39588260800E+01  0.50528865063E+02  0.30000015844E+02 0.  0.
         12    1    1    2    0    0  0.13274711966E+02  0.38226626481E+02 -0.39588260800E+01  0.40659134937E+02  0.00000000000E+00 0. -1.
         11    1    3    3    0    0 -0.10764826237E+02 -0.70261187599E+01 -0.82083996532E+01  0.15252070478E+02  0.51100000000E-03 0. -1.
        -11    1    3    3    0    0 -0.20501158275E+01 -0.26218648553E+02  0.53774098374E+01  0.26842821083E+02  0.51100000000E-03 0.  1.
         12    1    3    3    0    0 -0.45976990208E+00 -0.49818591683E+01  0.67898158958E+01  0.84339735021E+01  0.00000000000E+00 0. -1.
</event>
<event>
 7    1  0.5764931E-013  0.5052885E+02  0.7816164E-02  0.1300439E+00
        -11   -1    0    0    0    0  0.00000000000E+00  0.00000000000E+00  0.45593999997E+02  0.45594000000E+02  0.51100000000E-03 0.  1.
         11   -1    0    0    0    0 -0.00000000000E+00 -0.00000000000E+00 -0.45593999997E+02  0.45594000000E+02  0.51100000000E-03 0. -1.
    9900012    2    1    2    0    0 -0.28505584332E+02  0.28862099492E+02  0.27526559549E+01  0.50528852936E+02  0.29999978984E+02 0.  0.
         12    1    1    2    0    0  0.28505584332E+02 -0.28862099492E+02 -0.27526559549E+01  0.40659147064E+02  0.00000000000E+00 0. -1.
         11    1    3    3    0    0  0.39463308086E+01  0.86942535442E+01 -0.62426740580E+00  0.95683479032E+01  0.51100000000E-03 0. -1.
        -11    1    3    3    0    0 -0.21603569734E+02  0.20436855526E+02  0.53697335888E+00  0.29743362784E+02  0.51100000000E-03 0.  1.
        -12    1    3    3    0    0 -0.10848345407E+02 -0.26900957842E+00  0.28399500018E+01  0.11217142249E+02  0.00000000000E+00 0.  1.
</event>
<event>
 7    1  0.5764931E-013  0.5052886E+02  0.7816164E-02  0.1300439E+00
        -11   -1    0    0    0    0  0.00000000000E+00  0.00000000000E+00  0.45593999997E+02  0.45594000000E+02  0.51100000000E-03 0.  1.
         11   -1    0    0    0    0 -0.00000000000E+00 -0.00000000000E+00 -0.45593999997E+02  0.45594000000E+02  0.51100000000E-03 0. -1.
    9900012    2    1    2    0    0  0.19724416316E+02 -0.73638512889E+01  0.34783423870E+02  0.50528862270E+02  0.30000007357E+02 0.  0.
         12    1    1    2    0    0 -0.19724416316E+02  0.73638512889E+01 -0.34783423870E+02  0.40659137730E+02  0.00000000000E+00 0. -1.
         11    1    3    3    0    0  0.12685511882E+02  0.34108821600E+01  0.13498923572E+01  0.13205246626E+02  0.51100000000E-03 0. -1.
        -11    1    3    3    0    0  0.87508902520E+01 -0.10582750495E+02  0.23307015862E+02  0.27051611355E+02  0.51100000000E-03 0.  1.
         12    1    3    3    0    0 -0.17119858186E+01 -0.19198295430E+00  0.10126515651E+02  0.10272004289E+02  0.00000000000E+00 0. -1.
</event>
<event>
 7    1  0.5764931E-013  0.5052887E+02  0.7816164E-02  0.1300439E+00
        -11   -1    0    0    0    0  0.00000000000E+00  0.00000000000E+00  0.45593999997E+02  0.45594000000E+02  0.51100000000E-03 0.  1.
         11   -1    0    0    0    0 -0.00000000000E+00 -0.00000000000E+00 -0.45593999997E+02  0.45594000000E+02  0.51100000000E-03 0. -1.
    9900012    2    1    2    0    0  0.32902377377E+02 -0.13383086665E+02  0.19786132141E+02  0.50528874692E+02  0.30000045114E+02 0.  0.
         12    1    1    2    0    0 -0.32902377377E+02  0.13383086665E+02 -0.19786132141E+02  0.40659125308E+02  0.00000000000E+00 0. -1.
         11    1    3    3    0    0  0.13589088563E+02 -0.10509732871E+02 -0.31095515115E+01  0.17458153506E+02  0.51100000000E-03 0. -1.
        -11    1    3    3    0    0  0.15521524634E+02 -0.99279201530E-03  0.23615504121E+02  0.28259684412E+02  0.51100000000E-03 0.  1.
        -12    1    3    3    0    0  0.37917641805E+01 -0.28723610023E+01 -0.71982046887E+00  0.48110367734E+01  0.00000000000E+00 0.  1.
</event>
<event>
 7    1  0.5764931E-013  0.5052887E+02  0.7816164E-02  0.1300439E+00
        -11   -1    0    0    0    0  0.00000000000E+00  0.00000000000E+00  0.45593999997E+02  0.45594000000E+02  0.51100000000E-03 0.  1.
         11   -1    0    0    0    0 -0.00000000000E+00 -0.00000000000E+00 -0.45593999997E+02  0.45594000000E+02  0.51100000000E-03 0. -1.
    9900012    2    1    2    0    0 -0.52074231602E+01 -0.40317247283E+02 -0.75326101939E+00  0.50528867119E+02  0.30000022095E+02 0.  0.
         12    1    1    2    0    0  0.52074231602E+01  0.40317247283E+02  0.75326101939E+00  0.40659132881E+02  0.00000000000E+00 0. -1.
         11    1    3    3    0    0 -0.79991399062E+01  0.73589498213E+00 -0.24021545690E+01  0.83843978614E+01  0.51100000000E-03 0. -1.
        -11    1    3    3    0    0 -0.86784524148E+00 -0.26664156692E+02  0.44173172691E+01  0.27041506977E+02  0.51100000000E-03 0.  1.
         12    1    3    3    0    0  0.36595619876E+01 -0.14388985573E+02 -0.27684237195E+01  0.15102962281E+02  0.00000000000E+00 0. -1.
</event>
<event>
 7    1  0.5764931E-013  0.5052886E+02  0.7816164E-02  0.1300439E+00
        -11   -1    0    0    0    0  0.00000000000E+00  0.00000000000E+00  0.45593999997E+02  0.45594000000E+02  0.51100000000E-03 0. -1.
         11   -1    0    0    0    0 -0.00000000000E+00 -0.00000000000E+00 -0.45593999997E+02  0.45594000000E+02  0.51100000000E-03 0.  1.
    9900012    2    1    2    0    0 -0.28157843978E+02 -0.25381238076E+02 -0.14700134396E+02  0.50528863572E+02  0.30000011315E+02 0.  0.
         12    1    1    2    0    0  0.28157843978E+02  0.25381238076E+02  0.14700134396E+02  0.40659136428E+02  0.00000000000E+00 0. -1.
         11    1    3    3    0    0 -0.46488609171E+01  0.32749452614E+01 -0.32103105739E+01  0.65301813554E+01  0.51100000000E-03 0. -1.
        -11    1    3    3    0    0 -0.42698776796E+01 -0.19644484292E+02 -0.56937515601E+00  0.20111235836E+02  0.51100000000E-03 0.  1.
        -12    1    3    3    0    0 -0.19239105381E+02 -0.90116990454E+01 -0.10920448666E+02  0.23887446381E+02  0.00000000000E+00 0.  1.
</event>
<event>
 7    1  0.5764931E-013  0.5052886E+02  0.7816164E-02  0.1300439E+00
        -11   -1    0    0    0    0  0.00000000000E+00  0.00000000000E+00  0.45593999997E+02  0.45594000000E+02  0.51100000000E-03 0.  1.
         11   -1    0    0    0    0 -0.00000000000E+00 -0.00000000000E+00 -0.45593999997E+02  0.45594000000E+02  0.51100000000E-03 0. -1.
    9900012    2    1    2    0    0 -0.11738146857E+02  0.97035225831E+01  0.37699112752E+02  0.50528861489E+02  0.30000004981E+02 0.  0.
         12    1    1    2    0    0  0.11738146857E+02 -0.97035225831E+01 -0.37699112752E+02  0.40659138511E+02  0.00000000000E+00 0. -1.
         11    1    3    3    0    0 -0.12551671439E+02  0.24885534123E+01  0.71281986390E+01  0.14647476578E+02  0.51100000000E-03 0. -1.
        -11    1    3    3    0    0  0.99654386385E+00  0.98077504167E+01  0.31587740582E+02  0.33090337309E+02  0.51100000000E-03 0.  1.
        -12    1    3    3    0    0 -0.18301928155E+00 -0.25927812459E+01 -0.10168264686E+01  0.27910476015E+01  0.00000000000E+00 0.  1.
</event>
<event>
 7    1  0.5764931E-013  0.5052884E+02  0.7816164E-02  0.1300439E+00
        -11   -1    0    0    0    0  0.00000000000E+00  0.00000000000E+00  0.45593999997E+02  0.45594000000E+02  0.51100000000E-03 0.  1.
         11   -1    0    0    0    0 -0.00000000000E+00 -0.00000000000E+00 -0.45593999997E+02  0.45594000000E+02  0.51100000000E-03 0. -1.
    9900012    2    1    2    0    0 -0.39618880407E+02 -0.77931227192E+01 -0.47726907131E+01  0.50528843306E+02  0.29999949712E+02 0.  0.
         12    1    1    2    0    0  0.39618880407E+02  0.77931227192E+01  0.47726907131E+01  0.40659156694E+02  0.00000000000E+00 0. -1.
         11    1    3    3    0    0 -0.23757020116E+02  0.42826488429E+01 -0.14145793639E+02  0.27979288123E+02  0.51100000000E-03 0. -1.
        -11    1    3    3    0    0 -0.10004220588E+02 -0.49372455593E+01  0.63296521332E+01  0.12826742364E+02  0.51100000000E-03 0.  1.
         12    1    3    3    0    0 -0.58576397031E+01 -0.71385260028E+01  0.30434507929E+01  0.97228128189E+01  0.00000000000E+00 0. -1.
</event>
<event>
 7    1  0.5764931E-013  0.5052886E+02  0.7816164E-02  0.1300439E+00
        -11   -1    0    0    0    0  0.00000000000E+00  0.00000000000E+00  0.45593999997E+02  0.45594000000E+02  0.51100000000E-03 0.  1.
         11   -1    0    0    0    0 -0.00000000000E+00 -0.00000000000E+00 -0.45593999997E+02  0.45594000000E+02  0.51100000000E-03 0. -1.
    9900012    2    1    2    0    0 -0.15432812472E+02 -0.33596166512E+02  0.16920158459E+02  0.50528857518E+02  0.29999992910E+02 0.  0.
         12    1    1    2    0    0  0.15432812472E+02  0.33596166512E+02 -0.16920158459E+02  0.40659142482E+02  0.00000000000E+00 0. -1.
         11    1    3    3    0    0  0.61663299819E+01 -0.16294339428E+02  0.91773107763E+01  0.19691423417E+02  0.51100000000E-03 0. -1.
        -11    1    3    3    0    0 -0.59297499482E+01 -0.21960909962E+01  0.64523701287E+01  0.90342587217E+01  0.51100000000E-03 0.  1.
         12    1    3    3    0    0 -0.15669392506E+02 -0.15105736088E+02  0.12904775536E+01  0.21803175379E+02  0.00000000000E+00 0. -1.
</event>
<event>
 7    1  0.5764931E-013  0.5052885E+02  0.7816164E-02  0.1300439E+00
        -11   -1    0    0    0    0  0.00000000000E+00  0.00000000000E+00  0.45593999997E+02  0.45594000000E+02  0.51100000000E-03 0. -1.
         11   -1    0    0    0    0 -0.00000000000E+00 -0.00000000000E+00 -0.45593999997E+02  0.45594000000E+02  0.51100000000E-03 0.  1.
    9900012    2    1    2    0    0  0.24841116338E+02 -0.32138612114E+02  0.17874597213E+01  0.50528850208E+02  0.29999970693E+02 0.  0.
         12    1    1    2    0    0 -0.24841116338E+02  0.32138612114E+02 -0.17874597213E+01  0.40659149792E+02  0.00000000000E+00 0. -1.
         11    1    3    3    0    0  0.45474505832E+01 -0.25918777539E+01 -0.19059280527E+01  0.55704307824E+01  0.51100000000E-03 0.  1.
        -11    1    3    3    0    0  0.48526437236E+00 -0.78606617913E-01 -0.76636461577E+01  0.76793966692E+01  0.51100000000E-03 0. -1.
        -12    1    3    3    0    0  0.19808401382E+02 -0.29468127742E+02  0.11357033932E+02  0.37279022757E+02  0.00000000000E+00 0.  1.
</event>
<event>
 7    1  0.5764931E-013  0.5052886E+02  0.7816164E-02  0.1300439E+00
        -11   -1    0    0    0    0  0.00000000000E+00  0.00000000000E+00  0.45593999997E+02  0.45594000000E+02  0.51100000000E-03 0. -1.
         11   -1    0    0    0    0 -0.00000000000E+00 -0.00000000000E+00 -0.45593999997E+02  0.45594000000E+02  0.51100000000E-03 0.  1.
    9900012    2    1    2    0    0 -0.17178176490E+02  0.31386318893E+02  0.19312561479E+02  0.50528858444E+02  0.29999995727E+02 0.  0.
         12    1    1    2    0    0  0.17178176490E+02 -0.31386318893E+02 -0.19312561479E+02  0.40659141556E+02  0.00000000000E+00 0. -1.
         11    1    3    3    0    0  0.30869789312E+01  0.58665971181E+00  0.77025383401E+01  0.83188163630E+01  0.51100000000E-03 0. -1.
        -11    1    3    3    0    0 -0.19449689037E+02  0.15009591300E+02  0.49926090934E+01  0.25069989638E+02  0.51100000000E-03 0.  1.
        -12    1    3    3    0    0 -0.81546638466E+00  0.15790067881E+02  0.66174140457E+01  0.17140052443E+02  0.00000000000E+00 0.  1.
</event>
<event>
 7    1  0.5764931E-013  0.5052884E+02  0.7816164E-02  0.1300439E+00
        -11   -1    0    0    0    0  0.00000000000E+00  0.00000000000E+00  0.45593999997E+02  0.45594000000E+02  0.51100000000E-03 0. -1.
         11   -1    0    0    0    0 -0.00000000000E+00 -0.00000000000E+00 -0.45593999997E+02  0.45594000000E+02  0.51100000000E-03 0.  1.
    9900012    2    1    2    0    0  0.13746741362E+02  0.32846384206E+02 -0.19629290565E+02  0.50528844800E+02  0.29999954253E+02 0.  0.
         12    1    1    2    0    0 -0.13746741362E+02 -0.32846384206E+02  0.19629290565E+02  0.40659155200E+02  0.00000000000E+00 0. -1.
         11    1    3    3    0    0  0.14207322205E+02  0.13236688965E+02 -0.22955996362E+02  0.30067186570E+02  0.51100000000E-03 0. -1.
        -11    1    3    3    0    0  0.20474615680E+01  0.84625774088E+01  0.22004907570E+01  0.89805052812E+01  0.51100000000E-03 0.  1.
         12    1    3    3    0    0 -0.25080424108E+01  0.11147117832E+02  0.11262150400E+01  0.11481152948E+02  0.00000000000E+00 0. -1.
</event>
<event>
 7    1  0.5764931E-013  0.5052871E+02  0.7816164E-02  0.1300439E+00
        -11   -1    0    0    0    0  0.00000000000E+00  0.00000000000E+00  0.45593999997E+02  0.45594000000E+02  0.51100000000E-03 0.  1.
         11   -1    0    0    0    0 -0.00000000000E+00 -0.00000000000E+00 -0.45593999997E+02  0.45594000000E+02  0.51100000000E-03 0. -1.
    9900012    2    1    2    0    0 -0.27264047467E+02 -0.19566422361E+02 -0.22956578693E+02  0.50528712333E+02  0.29999551605E+02 0.  0.
         12    1    1    2    0    0  0.27264047467E+02  0.19566422361E+02  0.22956578693E+02  0.40659287667E+02  0.00000000000E+00 0. -1.
         11    1    3    3    0    0 -0.14677513258E+02 -0.41847385170E+01 -0.40372840466E+00  0.15267757817E+02  0.51100000000E-03 0.  1.
        -11    1    3    3    0    0 -0.15204586669E+02 -0.64444989012E+01 -0.19289848025E+02  0.25393094710E+02  0.51100000000E-03 0. -1.
        -12    1    3    3    0    0  0.26180524600E+01 -0.89371849426E+01 -0.32630022633E+01  0.98678598060E+01  0.00000000000E+00 0.  1.
</event>
<event>
 7    1  0.5764931E-013  0.5052886E+02  0.7816164E-02  0.1300439E+00
        -11   -1    0    0    0    0  0.00000000000E+00  0.00000000000E+00  0.45593999997E+02  0.45594000000E+02  0.51100000000E-03 0. -1.
         11   -1    0    0    0    0 -0.00000000000E+00 -0.00000000000E+00 -0.45593999997E+02  0.45594000000E+02  0.51100000000E-03 0.  1.
    9900012    2    1    2    0    0 -0.31365863949E+02  0.55672779472E+01 -0.25265665675E+02  0.50528857523E+02  0.29999992926E+02 0.  0.
         12    1    1    2    0    0  0.31365863949E+02 -0.55672779472E+01  0.25265665675E+02  0.40659142477E+02  0.00000000000E+00 0. -1.
         11    1    3    3    0    0 -0.24080476387E+02 -0.84824672622E+01 -0.21751621113E+02  0.33540343099E+02  0.51100000000E-03 0. -1.
        -11    1    3    3    0    0 -0.76055965432E+01  0.10415749653E+02 -0.20560391656E+01  0.13059871245E+02  0.51100000000E-03 0.  1.
         12    1    3    3    0    0  0.32020898119E+00  0.36339955559E+01 -0.14580053960E+01  0.39286431789E+01  0.00000000000E+00 0. -1.
</event>
<event>
 7    1  0.5764931E-013  0.5052885E+02  0.7816164E-02  0.1300439E+00
        -11   -1    0    0    0    0  0.00000000000E+00  0.00000000000E+00  0.45593999997E+02  0.45594000000E+02  0.51100000000E-03 0. -1.
         11   -1    0    0    0    0 -0.00000000000E+00 -0.00000000000E+00 -0.45593999997E+02  0.45594000000E+02  0.51100000000E-03 0.  1.
    9900012    2    1    2    0    0  0.16552326718E+02 -0.12101919820E+02 -0.35110258001E+02  0.50528853428E+02  0.29999980478E+02 0.  0.
         12    1    1    2    0    0 -0.16552326718E+02  0.12101919820E+02  0.35110258001E+02  0.40659146572E+02  0.00000000000E+00 0. -1.
         11    1    3    3    0    0 -0.17945519269E+01  0.24933080014E+01 -0.17353827264E+02  0.17623629660E+02  0.51100000000E-03 0. -1.
        -11    1    3    3    0    0  0.22427060155E+01 -0.10647665169E+02 -0.49488614465E+01  0.11953816700E+02  0.51100000000E-03 0.  1.
         12    1    3    3    0    0  0.16104172630E+02 -0.39475626527E+01 -0.12807569290E+02  0.20951407067E+02  0.00000000000E+00 0. -1.
</event>
<event>
 7    1  0.5764931E-013  0.5052886E+02  0.7816164E-02  0.1300439E+00
        -11   -1    0    0    0    0  0.00000000000E+00  0.00000000000E+00  0.45593999997E+02  0.45594000000E+02  0.51100000000E-03 0.  1.
         11   -1    0    0    0    0 -0.00000000000E+00 -0.00000000000E+00 -0.45593999997E+02  0.45594000000E+02  0.51100000000E-03 0. -1.
    9900012    2    1    2    0    0 -0.37788902000E+02 -0.28016012341E+01  0.14741623781E+02  0.50528861353E+02  0.30000004569E+02 0.  0.
         12    1    1    2    0    0  0.37788902000E+02  0.28016012341E+01 -0.14741623781E+02  0.40659138647E+02  0.00000000000E+00 0. -1.
         11    1    3    3    0    0  0.39185075068E+00 -0.20178315139E+00  0.20082214570E+01  0.20560197305E+01  0.51100000000E-03 0. -1.
        -11    1    3    3    0    0 -0.16033085111E+02  0.84167483082E+01 -0.40817953977E+01  0.18562395433E+02  0.51100000000E-03 0.  1.
        -12    1    3    3    0    0 -0.22147667639E+02 -0.11016566391E+02  0.16815197721E+02  0.29910446190E+02  0.00000000000E+00 0.  1.
</event>
<event>
 7    1  0.5764931E-013  0.5052889E+02  0.7816164E-02  0.1300439E+00
        -11   -1    0    0    0    0  0.00000000000E+00  0.00000000000E+00  0.45593999997E+02  0.45594000000E+02  0.51100000000E-03 0. -1.
         11   -1    0    0    0    0 -0.00000000000E+00 -0.00000000000E+00 -0.45593999997E+02  0.45594000000E+02  0.51100000000E-03 0.  1.
    9900012    2    1    2    0    0  0.76456759186E+00 -0.17235587329E+02 -0.36817289759E+02  0.50528894508E+02  0.30000105346E+02 0.  0.
         12    1    1    2    0    0 -0.76456759186E+00  0.17235587329E+02  0.36817289759E+02  0.40659105492E+02  0.00000000000E+00 0. -1.
         11    1    3    3    0    0 -0.42213083403E+01 -0.20092742612E+00  0.34026932934E+01  0.54256923839E+01  0.51100000000E-03 0. -1.
        -11    1    3    3    0    0  0.36599729678E+01 -0.11911429234E+02 -0.15832218675E+02  0.20147870779E+02  0.51100000000E-03 0.  1.
         12    1    3    3    0    0  0.13259029644E+01 -0.51232306694E+01 -0.24387764378E+02  0.24955331345E+02  0.00000000000E+00 0. -1.
</event>
<event>
 7    1  0.5789651E-013  0.5052886E+02  0.7816164E-02  0.1300439E+00
        -11   -1    0    0    0    0  0.00000000000E+00  0.00000000000E+00  0.45593999997E+02  0.45594000000E+02  0.51100000000E-03 0. -1.
         11   -1    0    0    0    0 -0.00000000000E+00 -0.00000000000E+00 -0.45593999997E+02  0.45594000000E+02  0.51100000000E-03 0.  1.
    9900012    2    1    2    0    0  0.17869655155E+02 -0.13667763284E+02 -0.33867878306E+02  0.50528861919E+02  0.30000006290E+02 0.  0.
         12    1    1    2    0    0 -0.17869655155E+02  0.13667763284E+02  0.33867878306E+02  0.40659138081E+02  0.00000000000E+00 0. -1.
         11    1    3    3    0    0 -0.33731775032E+01  0.70824651260E+00  0.18783252457E+01  0.39253083422E+01  0.51100000000E-03 0. -1.
        -11    1    3    3    0    0  0.11723324203E+02 -0.16398764067E+02 -0.23505172197E+02  0.30965285621E+02  0.51100000000E-03 0.  1.
        -12    1    3    3    0    0  0.95195084549E+01  0.20227542705E+01 -0.12241031354E+02  0.15638267956E+02  0.00000000000E+00 0.  1.
</event>
<event>
 7    1  0.5764931E-013  0.5052889E+02  0.7816164E-02  0.1300439E+00
        -11   -1    0    0    0    0  0.00000000000E+00  0.00000000000E+00  0.45593999997E+02  0.45594000000E+02  0.51100000000E-03 0.  1.
         11   -1    0    0    0    0 -0.00000000000E+00 -0.00000000000E+00 -0.45593999997E+02  0.45594000000E+02  0.51100000000E-03 0. -1.
    9900012    2    1    2    0    0 -0.19274033679E+02 -0.17205433286E+01  0.35759121399E+02  0.50528887776E+02  0.30000084885E+02 0.  0.
         12    1    1    2    0    0  0.19274033679E+02  0.17205433286E+01 -0.35759121399E+02  0.40659112224E+02  0.00000000000E+00 0. -1.
         11    1    3    3    0    0 -0.55462673120E+01 -0.73592491471E+01  0.78900620062E+01  0.12131475913E+02  0.51100000000E-03 0.  1.
        -11    1    3    3    0    0  0.53247795743E+01  0.46853403473E+01  0.53483213636E+01  0.88831432136E+01  0.51100000000E-03 0. -1.
        -12    1    3    3    0    0 -0.19052545941E+02  0.95336547124E+00  0.22520738029E+02  0.29514268650E+02  0.00000000000E+00 0.  1.
</event>
<event>
 7    1  0.5764931E-013  0.5052886E+02  0.7816164E-02  0.1300439E+00
        -11   -1    0    0    0    0  0.00000000000E+00  0.00000000000E+00  0.45593999997E+02  0.45594000000E+02  0.51100000000E-03 0.  1.
         11   -1    0    0    0    0 -0.00000000000E+00 -0.00000000000E+00 -0.45593999997E+02  0.45594000000E+02  0.51100000000E-03 0. -1.
    9900012    2    1    2    0    0  0.19612650515E+01  0.22080066318E+02  0.34085037132E+02  0.50528860246E+02  0.30000001203E+02 0.  0.
         12    1    1    2    0    0 -0.19612650515E+01 -0.22080066318E+02 -0.34085037132E+02  0.40659139754E+02  0.00000000000E+00 0. -1.
         11    1    3    3    0    0  0.62656123171E+00 -0.31428949532E+01  0.11925626758E+02  0.12348722262E+02  0.51100000000E-03 0. -1.
        -11    1    3    3    0    0 -0.82271753014E+00  0.23612699507E+02  0.98808430146E+01  0.25609910212E+02  0.51100000000E-03 0.  1.
        -12    1    3    3    0    0  0.21574213500E+01  0.16102617649E+01  0.12278567360E+02  0.12570227772E+02  0.00000000000E+00 0.  1.
</event>
<event>
 7    1  0.5764931E-013  0.5052887E+02  0.7816164E-02  0.1300439E+00
        -11   -1    0    0    0    0  0.00000000000E+00  0.00000000000E+00  0.45593999997E+02  0.45594000000E+02  0.51100000000E-03 0. -1.
         11   -1    0    0    0    0 -0.00000000000E+00 -0.00000000000E+00 -0.45593999997E+02  0.45594000000E+02  0.51100000000E-03 0.  1.
    9900012    2    1    2    0    0 -0.12794781046E+02  0.29273588492E+02  0.25149867088E+02  0.50528865482E+02  0.30000017118E+02 0.  0.
         12    1    1    2    0    0  0.12794781046E+02 -0.29273588492E+02 -0.25149867088E+02  0.40659134518E+02  0.00000000000E+00 0. -1.
         11    1    3    3    0    0 -0.15733840402E+02  0.42029054188E+01  0.69145051079E+01  0.17692612269E+02  0.51100000000E-03 0. -1.
        -11    1    3    3    0    0  0.52356919527E+01  0.10211291278E+02  0.40614266855E+01  0.12172843824E+02  0.51100000000E-03 0.  1.
         12    1    3    3    0    0 -0.22966325967E+01  0.14859391796E+02  0.14173935295E+02  0.20663409389E+02  0.00000000000E+00 0. -1.
</event>
<event>
 7    1  0.5764931E-013  0.5052887E+02  0.7816164E-02  0.1300439E+00
        -11   -1    0    0    0    0  0.00000000000E+00  0.00000000000E+00  0.45593999997E+02  0.45594000000E+02  0.51100000000E-03 0.  1.
         11   -1    0    0    0    0 -0.00000000000E+00 -0.00000000000E+00 -0.45593999997E+02  0.45594000000E+02  0.51100000000E-03 0. -1.
    9900012    2    1    2    0    0  0.30673657022E+02  0.23926900272E+02  0.11823500845E+02  0.50528868627E+02  0.30000026679E+02 0.  0.
         12    1    1    2    0    0 -0.30673657022E+02 -0.23926900272E+02 -0.11823500845E+02  0.40659131373E+02  0.00000000000E+00 0. -1.
         11    1    3    3    0    0  0.13472458353E+02 -0.10858692165E+01  0.13436894195E+02  0.19058761027E+02  0.51100000000E-03 0. -1.
        -11    1    3    3    0    0  0.10286718815E+02  0.86896567185E+01  0.12077656245E+01  0.13519815677E+02  0.51100000000E-03 0.  1.
         12    1    3    3    0    0  0.69144798538E+01  0.16323112770E+02 -0.28211589747E+01  0.17950291923E+02  0.00000000000E+00 0. -1.
</event>
<event>
 7    1  0.5764931E-013  0.5052886E+02  0.7816164E-02  0.1300439E+00
        -11   -1    0    0    0    0  0.00000000000E+00  0.00000000000E+00  0.45593999997E+02  0.45594000000E+02  0.51100000000E-03 0.  1.
         11   -1    0    0    0    0 -0.00000000000E+00 -0.00000000000E+00 -0.45593999997E+02  0.45594000000E+02  0.51100000000E-03 0. -1.
    9900012    2    1    2    0    0  0.13913870547E+02  0.23596894593E+02  0.30045902998E+02  0.50528861851E+02  0.30000006084E+02 0.  0.
         12    1    1    2    0    0 -0.13913870547E+02 -0.23596894593E+02 -0.30045902998E+02  0.40659138149E+02  0.00000000000E+00 0. -1.
         11    1    3    3    0    0  0.95756910444E+01 -0.33062307197E+01  0.14390953247E+01  0.10232107122E+02  0.51100000000E-03 0. -1.
        -11    1    3    3    0    0  0.23583763625E+01  0.35903836113E+01  0.16476489309E+01  0.46008195796E+01  0.51100000000E-03 0.  1.
         12    1    3    3    0    0  0.19798031402E+01  0.23312741702E+02  0.26959158742E+02  0.35695935149E+02  0.00000000000E+00 0. -1.
</event>
<event>
 7    1  0.5764931E-013  0.5052884E+02  0.7816164E-02  0.1300439E+00
        -11   -1    0    0    0    0  0.00000000000E+00  0.00000000000E+00  0.45593999997E+02  0.45594000000E+02  0.51100000000E-03 0.  1.
         11   -1    0    0    0    0 -0.00000000000E+00 -0.00000000000E+00 -0.45593999997E+02  0.45594000000E+02  0.51100000000E-03 0. -1.
    9900012    2    1    2    0    0 -0.30220865672E+02 -0.27175532756E+02  0.11648682912E+01  0.50528840876E+02  0.29999942327E+02 0.  0.
         12    1    1    2    0    0  0.30220865672E+02  0.27175532756E+02 -0.11648682912E+01  0.40659159124E+02  0.00000000000E+00 0. -1.
         11    1    3    3    0    0 -0.39199195773E+01  0.33823311651E+01  0.42910300902E+01  0.67244979812E+01  0.51100000000E-03 0. -1.
        -11    1    3    3    0    0 -0.21316821973E+02 -0.29826046689E+02 -0.71569301293E+01  0.37352665357E+02  0.51100000000E-03 0.  1.
         12    1    3    3    0    0 -0.49841241212E+01 -0.73181723172E+00  0.40307683304E+01  0.64516775376E+01  0.00000000000E+00 0. -1.
</event>
<event>
 7    1  0.5764931E-013  0.5052878E+02  0.7816164E-02  0.1300439E+00
        -11   -1    0    0    0    0  0.00000000000E+00  0.00000000000E+00  0.45593999997E+02  0.45594000000E+02  0.51100000000E-03 0.  1.
         11   -1    0    0    0    0 -0.00000000000E+00 -0.00000000000E+00 -0.45593999997E+02  0.45594000000E+02  0.51100000000E-03 0. -1.
    9900012    2    1    2    0    0  0.11097337579E+02  0.11811488193E+02  0.37289541650E+02  0.50528781228E+02  0.29999761021E+02 0.  0.
         12    1    1    2    0    0 -0.11097337579E+02 -0.11811488193E+02 -0.37289541650E+02  0.40659218772E+02  0.00000000000E+00 0. -1.
         11    1    3    3    0    0  0.10761582279E+02 -0.39523017927E+01  0.25656249955E+02  0.28101165538E+02  0.51100000000E-03 0. -1.
        -11    1    3    3    0    0  0.47032230342E+01  0.13408047542E+02  0.84395250522E+01  0.16526391898E+02  0.51100000000E-03 0.  1.
         12    1    3    3    0    0 -0.43674677348E+01  0.23557424430E+01  0.31937666428E+01  0.59012237918E+01  0.00000000000E+00 0. -1.
</event>
<event>
 7    1  0.5764931E-013  0.5052887E+02  0.7816164E-02  0.1300439E+00
        -11   -1    0    0    0    0  0.00000000000E+00  0.00000000000E+00  0.45593999997E+02  0.45594000000E+02  0.51100000000E-03 0.  1.
         11   -1    0    0    0    0 -0.00000000000E+00 -0.00000000000E+00 -0.45593999997E+02  0.45594000000E+02  0.51100000000E-03 0. -1.
    9900012    2    1    2    0    0 -0.11701304804E+02  0.38028485940E+02  0.83713151836E+01  0.50528865788E+02  0.30000018049E+02 0.  0.
         12    1    1    2    0    0  0.11701304804E+02 -0.38028485940E+02 -0.83713151836E+01  0.40659134212E+02  0.00000000000E+00 0. -1.
         11    1    3    3    0    0 -0.53535155780E+01  0.89659530467E+01 -0.30220193814E+01  0.10871110545E+02  0.51100000000E-03 0. -1.
        -11    1    3    3    0    0 -0.44910803452E+01  0.20599721195E+02  0.18808455174E+02  0.28253783857E+02  0.51100000000E-03 0.  1.
        -12    1    3    3    0    0 -0.18567088810E+01  0.84628116983E+01 -0.74151206092E+01  0.11403971385E+02  0.00000000000E+00 0.  1.
</event>
<event>
 7    1  0.5764931E-013  0.5052885E+02  0.7816164E-02  0.1300439E+00
        -11   -1    0    0    0    0  0.00000000000E+00  0.00000000000E+00  0.45593999997E+02  0.45594000000E+02  0.51100000000E-03 0.  1.
         11   -1    0    0    0    0 -0.00000000000E+00 -0.00000000000E+00 -0.45593999997E+02  0.45594000000E+02  0.51100000000E-03 0. -1.
    9900012    2    1    2    0    0  0.25383464500E+02 -0.25882255175E+02  0.18410730921E+02  0.50528850772E+02  0.29999972405E+02 0.  0.
         12    1    1    2    0    0 -0.25383464500E+02  0.25882255175E+02 -0.18410730921E+02  0.40659149228E+02  0.00000000000E+00 0. -1.
         11    1    3    3    0    0 -0.85530990406E+00 -0.10155795036E+02  0.14851459488E+02  0.18012150816E+02  0.51100000000E-03 0. -1.
        -11    1    3    3    0    0  0.99178758576E+01 -0.66915682333E+00  0.26719000212E+01  0.10293254216E+02  0.51100000000E-03 0.  1.
         12    1    3    3    0    0  0.16320898546E+02 -0.15057303315E+02  0.88737141163E+00  0.22223445739E+02  0.00000000000E+00 0. -1.
</event>
<event>
 7    1  0.5764931E-013  0.5052887E+02  0.7816164E-02  0.1300439E+00
        -11   -1    0    0    0    0  0.00000000000E+00  0.00000000000E+00  0.45593999997E+02  0.45594000000E+02  0.51100000000E-03 0.  1.
         11   -1    0    0    0    0 -0.00000000000E+00 -0.00000000000E+00 -0.45593999997E+02  0.45594000000E+02  0.51100000000E-03 0. -1.
    9900012    2    1    2    0    0  0.24642745432E+02  0.26295129764E+02  0.18827271294E+02  0.50528869462E+02  0.30000029217E+02 0.  0.
         12    1    1    2    0    0 -0.24642745432E+02 -0.26295129764E+02 -0.18827271294E+02  0.40659130538E+02  0.00000000000E+00 0. -1.
         11    1    3    3    0    0  0.20902899414E+02  0.73980231390E+01  0.19008549759E+02  0.29205939713E+02  0.51100000000E-03 0. -1.
        -11    1    3    3    0    0  0.33916303900E+01  0.18684656997E+01  0.16164916879E+01  0.41961132505E+01  0.51100000000E-03 0.  1.
         12    1    3    3    0    0  0.34821562801E+00  0.17028640925E+02 -0.17977701529E+01  0.17126816499E+02  0.00000000000E+00 0. -1.
</event>
<event>
 7    1  0.5764931E-013  0.5052886E+02  0.7816164E-02  0.1300439E+00
        -11   -1    0    0    0    0  0.00000000000E+00  0.00000000000E+00  0.45593999997E+02  0.45594000000E+02  0.51100000000E-03 0.  1.
         11   -1    0    0    0    0 -0.00000000000E+00 -0.00000000000E+00 -0.45593999997E+02  0.45594000000E+02  0.51100000000E-03 0. -1.
    9900012    2    1    2    0    0 -0.22317967523E+01 -0.30877807036E+02  0.26358025195E+02  0.50528863557E+02  0.30000011267E+02 0.  0.
         12    1    1    2    0    0  0.22317967523E+01  0.30877807036E+02 -0.26358025195E+02  0.40659136443E+02  0.00000000000E+00 0. -1.
         11    1    3    3    0    0 -0.14116860160E+01 -0.10719502158E+02  0.11936193572E+02  0.16105070666E+02  0.51100000000E-03 0.  1.
        -11    1    3    3    0    0 -0.10802633663E+02 -0.52129925795E+01  0.10855843877E+01  0.12043698743E+02  0.51100000000E-03 0. -1.
        -12    1    3    3    0    0  0.99825229270E+01 -0.14945312299E+02  0.13336247236E+02  0.22380094147E+02  0.00000000000E+00 0.  1.
</event>
<event>
 7    1  0.5764931E-013  0.5052888E+02  0.7816164E-02  0.1300439E+00
        -11   -1    0    0    0    0  0.00000000000E+00  0.00000000000E+00  0.45593999997E+02  0.45594000000E+02  0.51100000000E-03 0.  1.
         11   -1    0    0    0    0 -0.00000000000E+00 -0.00000000000E+00 -0.45593999997E+02  0.45594000000E+02  0.51100000000E-03 0. -1.
    9900012    2    1    2    0    0 -0.17890520607E+02  0.28075205263E+01  0.36403453793E+02  0.50528876213E+02  0.30000049737E+02 0.  0.
         12    1    1    2    0    0  0.17890520607E+02 -0.28075205263E+01 -0.36403453793E+02  0.40659123787E+02  0.00000000000E+00 0. -1.
         11    1    3    3    0    0 -0.31947899600E+01 -0.31039715732E+01  0.29131327967E+02  0.29469909939E+02  0.51100000000E-03 0. -1.
        -11    1    3    3    0    0 -0.55158498071E+01 -0.27145621659E+01 -0.64408297983E+00  0.61812854645E+01  0.51100000000E-03 0.  1.
         12    1    3    3    0    0 -0.91798808395E+01  0.86260542655E+01  0.79162088054E+01  0.14877680809E+02  0.00000000000E+00 0. -1.
</event>
<event>
 7    1  0.5764931E-013  0.5052883E+02  0.7816164E-02  0.1300439E+00
        -11   -1    0    0    0    0  0.00000000000E+00  0.00000000000E+00  0.45593999997E+02  0.45594000000E+02  0.51100000000E-03 0. -1.
         11   -1    0    0    0    0 -0.00000000000E+00 -0.00000000000E+00 -0.45593999997E+02  0.45594000000E+02  0.51100000000E-03 0.  1.
    9900012    2    1    2    0    0 -0.95338355503E+01  0.26053521367E+02 -0.29723527909E+02  0.50528829973E+02  0.29999909186E+02 0.  0.
         12    1    1    2    0    0  0.95338355503E+01 -0.26053521367E+02  0.29723527909E+02  0.40659170027E+02  0.00000000000E+00 0. -1.
         11    1    3    3    0    0 -0.30446342984E+01  0.97492100046E+01 -0.26659376914E+02  0.28548892648E+02  0.51100000000E-03 0. -1.
        -11    1    3    3    0    0 -0.36751224654E+01  0.12976173179E+02 -0.77709142040E+01  0.15565175982E+02  0.51100000000E-03 0.  1.
         12    1    3    3    0    0 -0.28140787864E+01  0.33281381834E+01  0.47067632094E+01  0.64147613435E+01  0.00000000000E+00 0. -1.
</event>
<event>
 7    1  0.5764931E-013  0.5052886E+02  0.7816164E-02  0.1300439E+00
        -11   -1    0    0    0    0  0.00000000000E+00  0.00000000000E+00  0.45593999997E+02  0.45594000000E+02  0.51100000000E-03 0. -1.
         11   -1    0    0    0    0 -0.00000000000E+00 -0.00000000000E+00 -0.45593999997E+02  0.45594000000E+02  0.51100000000E-03 0.  1.
    9900012    2    1    2    0    0  0.21311356779E+01  0.32131825442E+02 -0.24822761886E+02  0.50528862612E+02  0.30000008395E+02 0.  0.
         12    1    1    2    0    0 -0.21311356779E+01 -0.32131825442E+02  0.24822761886E+02  0.40659137388E+02  0.00000000000E+00 0. -1.
         11    1    3    3    0    0  0.88483019166E+01  0.14145325172E+02  0.11700765065E+01  0.16725781008E+02  0.51100000000E-03 0. -1.
        -11    1    3    3    0    0  0.18038872816E+00  0.11059933512E+02 -0.92670521788E+01  0.14430278089E+02  0.51100000000E-03 0.  1.
         12    1    3    3    0    0 -0.68975549669E+01  0.69265667582E+01 -0.16725786213E+02  0.19372803515E+02  0.00000000000E+00 0. -1.
</event>
<event>
 7    1  0.5764931E-013  0.5052883E+02  0.7816164E-02  0.1300439E+00
        -11   -1    0    0    0    0  0.00000000000E+00  0.00000000000E+00  0.45593999997E+02  0.45594000000E+02  0.51100000000E-03 0. -1.
         11   -1    0    0    0    0 -0.00000000000E+00 -0.00000000000E+00 -0.45593999997E+02  0.45594000000E+02  0.51100000000E-03 0.  1.
    9900012    2    1    2    0    0  0.39283435673E+01 -0.15237153285E+02 -0.37490867763E+02  0.50528832656E+02  0.29999917342E+02 0.  0.
         12    1    1    2    0    0 -0.39283435673E+01  0.15237153285E+02  0.37490867763E+02  0.40659167344E+02  0.00000000000E+00 0. -1.
         11    1    3    3    0    0  0.10041340675E+02 -0.43262150833E+01 -0.27548134220E+02  0.29638562023E+02  0.51100000000E-03 0. -1.
        -11    1    3    3    0    0 -0.42985037539E+01 -0.14011276233E+02 -0.89131993528E+01  0.17153370490E+02  0.51100000000E-03 0.  1.
         12    1    3    3    0    0 -0.18144933537E+01  0.31003380307E+01 -0.10295341902E+01  0.37369001437E+01  0.00000000000E+00 0. -1.
</event>
<event>
 7    1  0.5764931E-013  0.5052886E+02  0.7816164E-02  0.1300439E+00
        -11   -1    0    0    0    0  0.00000000000E+00  0.00000000000E+00  0.45593999997E+02  0.45594000000E+02  0.51100000000E-03 0. -1.
         11   -1    0    0    0    0 -0.00000000000E+00 -0.00000000000E+00 -0.45593999997E+02  0.45594000000E+02  0.51100000000E-03 0.  1.
    9900012    2    1    2    0    0 -0.23711349790E+02 -0.23190049408E+02 -0.23519332409E+02  0.50528862068E+02  0.30000006741E+02 0.  0.
         12    1    1    2    0    0  0.23711349790E+02  0.23190049408E+02  0.23519332409E+02  0.40659137932E+02  0.00000000000E+00 0. -1.
         11    1    3    3    0    0  0.16596585563E+01 -0.63444397584E+01  0.11960683878E+01  0.66661054763E+01  0.51100000000E-03 0. -1.
        -11    1    3    3    0    0 -0.27590666719E+02 -0.11696184519E+02 -0.17424700162E+02  0.34665051540E+02  0.51100000000E-03 0.  1.
        -12    1    3    3    0    0  0.22196583722E+01 -0.51494251305E+01 -0.72907006350E+01  0.91977050514E+01  0.00000000000E+00 0.  1.
</event>
<event>
 7    1  0.5764931E-013  0.5052888E+02  0.7816164E-02  0.1300439E+00
        -11   -1    0    0    0    0  0.00000000000E+00  0.00000000000E+00  0.45593999997E+02  0.45594000000E+02  0.51100000000E-03 0. -1.
         11   -1    0    0    0    0 -0.00000000000E+00 -0.00000000000E+00 -0.45593999997E+02  0.45594000000E+02  0.51100000000E-03 0.  1.
    9900012    2    1    2    0    0  0.10810022799E+01 -0.36930144974E+02 -0.16975279427E+02  0.50528876972E+02  0.30000052045E+02 0.  0.
         12    1    1    2    0    0 -0.10810022799E+01  0.36930144974E+02  0.16975279427E+02  0.40659123028E+02  0.00000000000E+00 0. -1.
         11    1    3    3    0    0  0.45187031964E+01 -0.14639508133E+01  0.61546504098E+01  0.77744165369E+01  0.51100000000E-03 0. -1.
        -11    1    3    3    0    0 -0.41477960905E+01 -0.19234985628E+02 -0.13589237938E+02  0.23913516524E+02  0.51100000000E-03 0.  1.
         12    1    3    3    0    0  0.71009517400E+00 -0.16231208533E+02 -0.95406918987E+01  0.18840943912E+02  0.00000000000E+00 0. -1.
</event>
<event>
 7    1  0.5764931E-013  0.5052885E+02  0.7816164E-02  0.1300439E+00
        -11   -1    0    0    0    0  0.00000000000E+00  0.00000000000E+00  0.45593999997E+02  0.45594000000E+02  0.51100000000E-03 0.  1.
         11   -1    0    0    0    0 -0.00000000000E+00 -0.00000000000E+00 -0.45593999997E+02  0.45594000000E+02  0.51100000000E-03 0. -1.
    9900012    2    1    2    0    0  0.21002065481E+02 -0.21575194985E+02  0.27323809564E+02  0.50528851433E+02  0.29999974416E+02 0.  0.
         12    1    1    2    0    0 -0.21002065481E+02  0.21575194985E+02 -0.27323809564E+02  0.40659148567E+02  0.00000000000E+00 0. -1.
         11    1    3    3    0    0  0.23202452639E+01  0.41432778296E+01 -0.23160158533E+01  0.52833908573E+01  0.51100000000E-03 0. -1.
        -11    1    3    3    0    0  0.13239994465E+02 -0.20233830647E+02  0.28595856507E+02  0.37449010210E+02  0.51100000000E-03 0.  1.
        -12    1    3    3    0    0  0.54418257515E+01 -0.54846421673E+01  0.10439689104E+01  0.77964503654E+01  0.00000000000E+00 0.  1.
</event>
<event>
 7    1  0.5764931E-013  0.5052886E+02  0.7816164E-02  0.1300439E+00
        -11   -1    0    0    0    0  0.00000000000E+00  0.00000000000E+00  0.45593999997E+02  0.45594000000E+02  0.51100000000E-03 0.  1.
         11   -1    0    0    0    0 -0.00000000000E+00 -0.00000000000E+00 -0.45593999997E+02  0.45594000000E+02  0.51100000000E-03 0. -1.
    9900012    2    1    2    0    0 -0.32873303829E+02  0.53755603480E+01  0.23315551988E+02  0.50528859353E+02  0.29999998489E+02 0.  0.
         12    1    1    2    0    0  0.32873303829E+02 -0.53755603480E+01 -0.23315551988E+02  0.40659140647E+02  0.00000000000E+00 0. -1.
         11    1    3    3    0    0 -0.23640137037E+02  0.15433621992E+02  0.13278959098E+02  0.31199094889E+02  0.51100000000E-03 0. -1.
        -11    1    3    3    0    0 -0.50384653043E+01 -0.44782701820E+01  0.10339128724E+02  0.12342553199E+02  0.51100000000E-03 0.  1.
         12    1    3    3    0    0 -0.41947014872E+01 -0.55797914622E+01 -0.30253583339E+00  0.69872112648E+01  0.00000000000E+00 0. -1.
</event>
<event>
 7    1  0.5764931E-013  0.5052886E+02  0.7816164E-02  0.1300439E+00
        -11   -1    0    0    0    0  0.00000000000E+00  0.00000000000E+00  0.45593999997E+02  0.45594000000E+02  0.51100000000E-03 0.  1.
         11   -1    0    0    0    0 -0.00000000000E+00 -0.00000000000E+00 -0.45593999997E+02  0.45594000000E+02  0.51100000000E-03 0. -1.
    9900012    2    1    2    0    0  0.33359997809E+02  0.16131750268E+02  0.16734473661E+02  0.50528862906E+02  0.30000009288E+02 0.  0.
         12    1    1    2    0    0 -0.33359997809E+02 -0.16131750268E+02 -0.16734473661E+02  0.40659137094E+02  0.00000000000E+00 0. -1.
         11    1    3    3    0    0  0.11875491384E+02  0.14198127234E+02 -0.10210249866E+01  0.18537977367E+02  0.51100000000E-03 0.  1.
        -11    1    3    3    0    0  0.39134667380E+01  0.17980716099E+01  0.13133485188E+02  0.13821603267E+02  0.51100000000E-03 0. -1.
         12    1    3    3    0    0  0.17571039687E+02  0.13555142440E+00  0.46220134603E+01  0.18169282272E+02  0.00000000000E+00 0. -1.
</event>
<event>
 7    1  0.5764931E-013  0.5052886E+02  0.7816164E-02  0.1300439E+00
        -11   -1    0    0    0    0  0.00000000000E+00  0.00000000000E+00  0.45593999997E+02  0.45594000000E+02  0.51100000000E-03 0. -1.
         11   -1    0    0    0    0 -0.00000000000E+00 -0.00000000000E+00 -0.45593999997E+02  0.45594000000E+02  0.51100000000E-03 0.  1.
    9900012    2    1    2    0    0  0.99559250759E+01  0.13371696007E+02 -0.37084272754E+02  0.50528856085E+02  0.29999988555E+02 0.  0.
         12    1    1    2    0    0 -0.99559250759E+01 -0.13371696007E+02  0.37084272754E+02  0.40659143915E+02  0.00000000000E+00 0. -1.
         11    1    3    3    0    0  0.15187612334E+01 -0.41590731344E+01 -0.22930141491E+01  0.49862249419E+01  0.51100000000E-03 0. -1.
        -11    1    3    3    0    0  0.50472610158E+01  0.13420328071E+02 -0.48577041269E+01  0.15138604260E+02  0.51100000000E-03 0.  1.
        -12    1    3    3    0    0  0.33899028268E+01  0.41104410704E+01 -0.29933554478E+02  0.30404026882E+02  0.00000000000E+00 0.  1.
</event>
<event>
 7    1  0.5764931E-013  0.5052891E+02  0.7816164E-02  0.1300439E+00
        -11   -1    0    0    0    0  0.00000000000E+00  0.00000000000E+00  0.45593999997E+02  0.45594000000E+02  0.51100000000E-03 0.  1.
         11   -1    0    0    0    0 -0.00000000000E+00 -0.00000000000E+00 -0.45593999997E+02  0.45594000000E+02  0.51100000000E-03 0. -1.
    9900012    2    1    2    0    0 -0.16979033529E+02 -0.23044128063E+02  0.28876319757E+02  0.50528914171E+02  0.30000165113E+02 0.  0.
         12    1    1    2    0    0  0.16979033529E+02  0.23044128063E+02 -0.28876319757E+02  0.40659085829E+02  0.00000000000E+00 0. -1.
         11    1    3    3    0    0  0.20087139240E+01 -0.13291483365E+02  0.12010130402E+02  0.18026139193E+02  0.51100000000E-03 0. -1.
        -11    1    3    3    0    0 -0.33796133741E+01  0.95218061403E-01 -0.36039263078E+01  0.49415724350E+01  0.51100000000E-03 0.  1.
        -12    1    3    3    0    0 -0.15608134079E+02 -0.98478627600E+01  0.20470115663E+02  0.27561202543E+02  0.00000000000E+00 0.  1.
</event>
<event>
 7    1  0.5764931E-013  0.5052886E+02  0.7816164E-02  0.1300439E+00
        -11   -1    0    0    0    0  0.00000000000E+00  0.00000000000E+00  0.45593999997E+02  0.45594000000E+02  0.51100000000E-03 0.  1.
         11   -1    0    0    0    0 -0.00000000000E+00 -0.00000000000E+00 -0.45593999997E+02  0.45594000000E+02  0.51100000000E-03 0. -1.
    9900012    2    1    2    0    0  0.17719918886E+02  0.13282638821E+02  0.34098996177E+02  0.50528861303E+02  0.30000004416E+02 0.  0.
         12    1    1    2    0    0 -0.17719918886E+02 -0.13282638821E+02 -0.34098996177E+02  0.40659138697E+02  0.00000000000E+00 0. -1.
         11    1    3    3    0    0  0.39132739664E+01 -0.22424178366E+01 -0.56924559392E+00  0.45460083258E+01  0.51100000000E-03 0. -1.
        -11    1    3    3    0    0  0.19459969918E+02  0.14542230151E+02  0.29878897604E+02  0.38508640709E+02  0.51100000000E-03 0.  1.
        -12    1    3    3    0    0 -0.56533249985E+01  0.98282650584E+00  0.47893441668E+01  0.74742122680E+01  0.00000000000E+00 0.  1.
</event>
<event>
 7    1  0.5764931E-013  0.5052886E+02  0.7816164E-02  0.1300439E+00
        -11   -1    0    0    0    0  0.00000000000E+00  0.00000000000E+00  0.45593999997E+02  0.45594000000E+02  0.51100000000E-03 0.  1.
         11   -1    0    0    0    0 -0.00000000000E+00 -0.00000000000E+00 -0.45593999997E+02  0.45594000000E+02  0.51100000000E-03 0. -1.
    9900012    2    1    2    0    0  0.85900759303E+01  0.17448746823E+02  0.35705985583E+02  0.50528861093E+02  0.30000003778E+02 0.  0.
         12    1    1    2    0    0 -0.85900759303E+01 -0.17448746823E+02 -0.35705985583E+02  0.40659138907E+02  0.00000000000E+00 0. -1.
         11    1    3    3    0    0 -0.76804958249E+01 -0.13109278121E+01  0.98346754501E+01  0.12547086886E+02  0.51100000000E-03 0. -1.
        -11    1    3    3    0    0  0.11263756402E+02  0.14138672897E+02  0.25368075799E+02  0.31149856333E+02  0.51100000000E-03 0.  1.
         12    1    3    3    0    0  0.50068153534E+01  0.46210017382E+01  0.50323433424E+00  0.68319178744E+01  0.00000000000E+00 0. -1.
</event>
<event>
 7    1  0.5764931E-013  0.5052884E+02  0.7816164E-02  0.1300439E+00
        -11   -1    0    0    0    0  0.00000000000E+00  0.00000000000E+00  0.45593999997E+02  0.45594000000E+02  0.51100000000E-03 0.  1.
         11   -1    0    0    0    0 -0.00000000000E+00 -0.00000000000E+00 -0.45593999997E+02  0.45594000000E+02  0.51100000000E-03 0. -1.
    9900012    2    1    2    0    0  0.28643048991E+02 -0.67942722583E+01  0.28046046143E+02  0.50528842418E+02  0.29999947014E+02 0.  0.
         12    1    1    2    0    0 -0.28643048991E+02  0.67942722583E+01 -0.28046046143E+02  0.40659157582E+02  0.00000000000E+00 0. -1.
         11    1    3    3    0    0  0.89053702413E+01  0.68226300172E+01  0.10235623423E+02  0.15186240042E+02  0.51100000000E-03 0. -1.
        -11    1    3    3    0    0 -0.90330305527E-01 -0.98061567486E+01  0.28471459137E+01  0.10211518489E+02  0.51100000000E-03 0.  1.
        -12    1    3    3    0    0  0.19828009055E+02 -0.38107455269E+01  0.14963276807E+02  0.25131083887E+02  0.00000000000E+00 0.  1.
</event>
<event>
 7    1  0.5764931E-013  0.5052893E+02  0.7816164E-02  0.1300439E+00
        -11   -1    0    0    0    0  0.00000000000E+00  0.00000000000E+00  0.45593999997E+02  0.45594000000E+02  0.51100000000E-03 0.  1.
         11   -1    0    0    0    0 -0.00000000000E+00 -0.00000000000E+00 -0.45593999997E+02  0.45594000000E+02  0.51100000000E-03 0. -1.
    9900012    2    1    2    0    0 -0.36100949938E+02 -0.17399050303E+02  0.68668948744E+01  0.50528932339E+02  0.30000220336E+02 0.  0.
         12    1    1    2    0    0  0.36100949938E+02  0.17399050303E+02 -0.68668948744E+01  0.40659067661E+02  0.00000000000E+00 0. -1.
         11    1    3    3    0    0 -0.31881096003E+02 -0.14353296395E+02  0.13122196845E+01  0.34987759581E+02  0.51100000000E-03 0. -1.
        -11    1    3    3    0    0 -0.13409989955E+01 -0.48123633204E+01  0.92635484846E+01  0.10524754145E+02  0.51100000000E-03 0.  1.
         12    1    3    3    0    0 -0.28788549394E+01  0.17666094117E+01 -0.37088732947E+01  0.50164186121E+01  0.00000000000E+00 0. -1.
</event>
<event>
 7    1  0.5764931E-013  0.5052886E+02  0.7816164E-02  0.1300439E+00
        -11   -1    0    0    0    0  0.00000000000E+00  0.00000000000E+00  0.45593999997E+02  0.45594000000E+02  0.51100000000E-03 0.  1.
         11   -1    0    0    0    0 -0.00000000000E+00 -0.00000000000E+00 -0.45593999997E+02  0.45594000000E+02  0.51100000000E-03 0. -1.
    9900012    2    1    2    0    0  0.13694726447E+02 -0.27535039557E+02  0.26597769289E+02  0.50528864900E+02  0.30000015351E+02 0.  0.
         12    1    1    2    0    0 -0.13694726447E+02  0.27535039557E+02 -0.26597769289E+02  0.40659135100E+02  0.00000000000E+00 0. -1.
         11    1    3    3    0    0 -0.37229691983E+01 -0.18914845938E+02  0.11272867603E+02  0.22331803348E+02  0.51100000000E-03 0. -1.
        -11    1    3    3    0    0  0.14184162300E+02 -0.11408690903E+02  0.15522410228E+02  0.23922665148E+02  0.51100000000E-03 0.  1.
         12    1    3    3    0    0  0.32335333457E+01  0.27884972833E+01 -0.19750854160E+00  0.42743964043E+01  0.00000000000E+00 0. -1.
</event>
<event>
 7    1  0.5764931E-013  0.5052886E+02  0.7816164E-02  0.1300439E+00
        -11   -1    0    0    0    0  0.00000000000E+00  0.00000000000E+00  0.45593999997E+02  0.45594000000E+02  0.51100000000E-03 0. -1.
         11   -1    0    0    0    0 -0.00000000000E+00 -0.00000000000E+00 -0.45593999997E+02  0.45594000000E+02  0.51100000000E-03 0.  1.
    9900012    2    1    2    0    0  0.37599672808E+02 -0.14467811226E+02 -0.54875082765E+01  0.50528859527E+02  0.29999999017E+02 0.  0.
         12    1    1    2    0    0 -0.37599672808E+02  0.14467811226E+02  0.54875082765E+01  0.40659140473E+02  0.00000000000E+00 0. -1.
         11    1    3    3    0    0  0.35864403475E+02 -0.12028913565E+02 -0.12191218811E+02  0.39743880215E+02  0.51100000000E-03 0. -1.
        -11    1    3    3    0    0 -0.31716488857E+00 -0.25425852321E+01 -0.10458879647E+01  0.27675287035E+01  0.51100000000E-03 0.  1.
         12    1    3    3    0    0  0.20524342218E+01  0.10368757146E+00  0.77495984995E+01  0.80174506080E+01  0.00000000000E+00 0. -1.
</event>
<event>
 7    1  0.5764931E-013  0.5052892E+02  0.7816164E-02  0.1300439E+00
        -11   -1    0    0    0    0  0.00000000000E+00  0.00000000000E+00  0.45593999997E+02  0.45594000000E+02  0.51100000000E-03 0. -1.
         11   -1    0    0    0    0 -0.00000000000E+00 -0.00000000000E+00 -0.45593999997E+02  0.45594000000E+02  0.51100000000E-03 0.  1.
    9900012    2    1    2    0    0 -0.13548364399E+02 -0.37770207782E+02 -0.65585030255E+01  0.50528920624E+02  0.30000184728E+02 0.  0.
         12    1    1    2    0    0  0.13548364399E+02  0.37770207782E+02  0.65585030255E+01  0.40659079376E+02  0.00000000000E+00 0. -1.
         11    1    3    3    0    0 -0.58213254562E+01  0.33631820972E+01 -0.47473535671E+01  0.82301998783E+01  0.51100000000E-03 0. -1.
        -11    1    3    3    0    0 -0.91769929582E+00 -0.17299397021E+02 -0.24902824300E+01  0.17501794654E+02  0.51100000000E-03 0.  1.
         12    1    3    3    0    0 -0.68093396467E+01 -0.23833992858E+02  0.67913297155E+00  0.24796926092E+02  0.00000000000E+00 0. -1.
</event>
<event>
 7    1  0.5764931E-013  0.5052886E+02  0.7816164E-02  0.1300439E+00
        -11   -1    0    0    0    0  0.00000000000E+00  0.00000000000E+00  0.45593999997E+02  0.45594000000E+02  0.51100000000E-03 0. -1.
         11   -1    0    0    0    0 -0.00000000000E+00 -0.00000000000E+00 -0.45593999997E+02  0.45594000000E+02  0.51100000000E-03 0.  1.
    9900012    2    1    2    0    0  0.58313705930E+01 -0.17639310288E+01 -0.40200112478E+02  0.50528863524E+02  0.30000011169E+02 0.  0.
         12    1    1    2    0    0 -0.58313705930E+01  0.17639310288E+01  0.40200112478E+02  0.40659136476E+02  0.00000000000E+00 0. -1.
         11    1    3    3    0    0  0.12757471841E+01  0.97921722636E+01 -0.72166653010E+01  0.12230880052E+02  0.51100000000E-03 0. -1.
        -11    1    3    3    0    0  0.94638846670E+01 -0.39170559307E+01 -0.15172660309E+02  0.18306230121E+02  0.51100000000E-03 0.  1.
         12    1    3    3    0    0 -0.49082612580E+01 -0.76390473618E+01 -0.17810786869E+02  0.19991753351E+02  0.00000000000E+00 0. -1.
</event>
<event>
 7    1  0.5764931E-013  0.5052884E+02  0.7816164E-02  0.1300439E+00
        -11   -1    0    0    0    0  0.00000000000E+00  0.00000000000E+00  0.45593999997E+02  0.45594000000E+02  0.51100000000E-03 0.  1.
         11   -1    0    0    0    0 -0.00000000000E+00 -0.00000000000E+00 -0.45593999997E+02  0.45594000000E+02  0.51100000000E-03 0. -1.
    9900012    2    1    2    0    0  0.24810525243E+02  0.26702437267E+02  0.18016233783E+02  0.50528843608E+02  0.29999950630E+02 0.  0.
         12    1    1    2    0    0 -0.24810525243E+02 -0.26702437267E+02 -0.18016233783E+02  0.40659156392E+02  0.00000000000E+00 0. -1.
         11    1    3    3    0    0  0.50166917688E+01 -0.50794483071E+01 -0.21083306234E+01  0.74439942024E+01  0.51100000000E-03 0. -1.
        -11    1    3    3    0    0  0.20199913562E+02  0.31713158318E+02  0.19552532075E+02  0.42379976749E+02  0.51100000000E-03 0.  1.
         12    1    3    3    0    0 -0.40608008824E+00  0.68727256023E-01  0.57203233098E+00  0.70487265621E+00  0.00000000000E+00 0. -1.
</event>
<event>
 7    1  0.5764931E-013  0.5052887E+02  0.7816164E-02  0.1300439E+00
        -11   -1    0    0    0    0  0.00000000000E+00  0.00000000000E+00  0.45593999997E+02  0.45594000000E+02  0.51100000000E-03 0.  1.
         11   -1    0    0    0    0 -0.00000000000E+00 -0.00000000000E+00 -0.45593999997E+02  0.45594000000E+02  0.51100000000E-03 0. -1.
    9900012    2    1    2    0    0 -0.26437030910E+02  0.20976575522E+02  0.22676677914E+02  0.50528867628E+02  0.30000023644E+02 0.  0.
         12    1    1    2    0    0  0.26437030910E+02 -0.20976575522E+02 -0.22676677914E+02  0.40659132372E+02  0.00000000000E+00 0. -1.
         11    1    3    3    0    0  0.47497538118E+01 -0.50718987425E+00  0.63460492593E+01  0.79429052810E+01  0.51100000000E-03 0. -1.
        -11    1    3    3    0    0 -0.14169789304E+02  0.15048911184E+02  0.54076134782E+01  0.21365742218E+02  0.51100000000E-03 0.  1.
        -12    1    3    3    0    0 -0.17016995418E+02  0.64348542127E+01  0.10923015176E+02  0.21220220129E+02  0.00000000000E+00 0.  1.
</event>
<event>
 7    1  0.5764931E-013  0.5052888E+02  0.7816164E-02  0.1300439E+00
        -11   -1    0    0    0    0  0.00000000000E+00  0.00000000000E+00  0.45593999997E+02  0.45594000000E+02  0.51100000000E-03 0.  1.
         11   -1    0    0    0    0 -0.00000000000E+00 -0.00000000000E+00 -0.45593999997E+02  0.45594000000E+02  0.51100000000E-03 0. -1.
    9900012    2    1    2    0    0  0.31385481661E+02  0.36001304944E+01  0.25595993623E+02  0.50528876938E+02  0.30000051941E+02 0.  0.
         12    1    1    2    0    0 -0.31385481661E+02 -0.36001304944E+01 -0.25595993623E+02  0.40659123062E+02  0.00000000000E+00 0. -1.
         11    1    3    3    0    0  0.24917745259E+02 -0.75481348459E+01  0.20326471533E+02  0.33030800984E+02  0.51100000000E-03 0. -1.
        -11    1    3    3    0    0  0.84789379743E+01  0.11258403317E+02  0.60502468265E+01  0.15337846046E+02  0.51100000000E-03 0.  1.
         12    1    3    3    0    0 -0.20112015722E+01 -0.11013797681E+00 -0.78072473678E+00  0.21602299073E+01  0.00000000000E+00 0. -1.
</event>
<event>
 7    1  0.5764931E-013  0.5052886E+02  0.7816164E-02  0.1300439E+00
        -11   -1    0    0    0    0  0.00000000000E+00  0.00000000000E+00  0.45593999997E+02  0.45594000000E+02  0.51100000000E-03 0. -1.
         11   -1    0    0    0    0 -0.00000000000E+00 -0.00000000000E+00 -0.45593999997E+02  0.45594000000E+02  0.51100000000E-03 0.  1.
    9900012    2    1    2    0    0 -0.11473910876E+02 -0.16490418909E+02 -0.35349414359E+02  0.50528860288E+02  0.30000001332E+02 0.  0.
         12    1    1    2    0    0  0.11473910876E+02  0.16490418909E+02  0.35349414359E+02  0.40659139712E+02  0.00000000000E+00 0. -1.
         11    1    3    3    0    0  0.28510109057E+01 -0.11725579405E+02 -0.26159864031E+01  0.12347504229E+02  0.51100000000E-03 0. -1.
        -11    1    3    3    0    0 -0.13378629921E+02 -0.83240611800E+01 -0.24083941774E+02  0.28780444485E+02  0.51100000000E-03 0.  1.
         12    1    3    3    0    0 -0.94629185986E+00  0.35592216754E+01 -0.86494861817E+01  0.94009115742E+01  0.00000000000E+00 0. -1.
</event>
<event>
 7    1  0.5764931E-013  0.5052880E+02  0.7816164E-02  0.1300439E+00
        -11   -1    0    0    0    0  0.00000000000E+00  0.00000000000E+00  0.45593999997E+02  0.45594000000E+02  0.51100000000E-03 0. -1.
         11   -1    0    0    0    0 -0.00000000000E+00 -0.00000000000E+00 -0.45593999997E+02  0.45594000000E+02  0.51100000000E-03 0.  1.
    9900012    2    1    2    0    0 -0.33287809606E+02  0.17647179958E+02 -0.15286238821E+02  0.50528802687E+02  0.29999826247E+02 0.  0.
         12    1    1    2    0    0  0.33287809606E+02 -0.17647179958E+02  0.15286238821E+02  0.40659197313E+02  0.00000000000E+00 0. -1.
         11    1    3    3    0    0 -0.79322911424E+01  0.11178272396E+02 -0.50305402377E+01  0.14600731210E+02  0.51100000000E-03 0. -1.
        -11    1    3    3    0    0 -0.20936863188E+02 -0.50025409918E+01 -0.32247774589E+01  0.21766415563E+02  0.51100000000E-03 0.  1.
        -12    1    3    3    0    0 -0.44186552756E+01  0.11471448554E+02 -0.70309211246E+01  0.14161655914E+02  0.00000000000E+00 0.  1.
</event>
<event>
 7    1  0.5764931E-013  0.5052884E+02  0.7816164E-02  0.1300439E+00
        -11   -1    0    0    0    0  0.00000000000E+00  0.00000000000E+00  0.45593999997E+02  0.45594000000E+02  0.51100000000E-03 0.  1.
         11   -1    0    0    0    0 -0.00000000000E+00 -0.00000000000E+00 -0.45593999997E+02  0.45594000000E+02  0.51100000000E-03 0. -1.
    9900012    2    1    2    0    0 -0.41501097602E+01  0.38672788117E+02  0.11847336303E+02  0.50528839541E+02  0.29999938270E+02 0.  0.
         12    1    1    2    0    0  0.41501097602E+01 -0.38672788117E+02 -0.11847336303E+02  0.40659160459E+02  0.00000000000E+00 0. -1.
         11    1    3    3    0    0  0.32572217230E+01  0.24231624763E+02  0.45840177761E+01  0.24875577405E+02  0.51100000000E-03 0. -1.
        -11    1    3    3    0    0 -0.41883600257E+01  0.12822622759E+02  0.13093909147E+02  0.18799267835E+02  0.51100000000E-03 0.  1.
         12    1    3    3    0    0 -0.32189714575E+01  0.16185405947E+01 -0.58305906204E+01  0.68539943014E+01  0.00000000000E+00 0. -1.
</event>
<event>
 7    1  0.5764931E-013  0.5052887E+02  0.7816164E-02  0.1300439E+00
        -11   -1    0    0    0    0  0.00000000000E+00  0.00000000000E+00  0.45593999997E+02  0.45594000000E+02  0.51100000000E-03 0.  1.
         11   -1    0    0    0    0 -0.00000000000E+00 -0.00000000000E+00 -0.45593999997E+02  0.45594000000E+02  0.51100000000E-03 0. -1.
    9900012    2    1    2    0    0  0.25770493632E+02 -0.14538775685E+02  0.27886749269E+02  0.50528866644E+02  0.30000020652E+02 0.  0.
         12    1    1    2    0    0 -0.25770493632E+02  0.14538775685E+02 -0.27886749269E+02  0.40659133356E+02  0.00000000000E+00 0. -1.
         11    1    3    3    0    0  0.20129342895E+02  0.25436707931E+01  0.15466604040E+02  0.25512282283E+02  0.51100000000E-03 0. -1.
        -11    1    3    3    0    0  0.54343821243E+01 -0.76683188683E+01 -0.39671858955E-01  0.93987870205E+01  0.51100000000E-03 0.  1.
         12    1    3    3    0    0  0.20676861222E+00 -0.94141276102E+01  0.12459817087E+02  0.15617797341E+02  0.00000000000E+00 0. -1.
</event>
<event>
 7    1  0.5764931E-013  0.5052885E+02  0.7816164E-02  0.1300439E+00
        -11   -1    0    0    0    0  0.00000000000E+00  0.00000000000E+00  0.45593999997E+02  0.45594000000E+02  0.51100000000E-03 0.  1.
         11   -1    0    0    0    0 -0.00000000000E+00 -0.00000000000E+00 -0.45593999997E+02  0.45594000000E+02  0.51100000000E-03 0. -1.
    9900012    2    1    2    0    0 -0.71322383716E+00  0.35034900239E+02  0.20620713220E+02  0.50528846827E+02  0.29999960416E+02 0.  0.
         12    1    1    2    0    0  0.71322383716E+00 -0.35034900239E+02 -0.20620713220E+02  0.40659153173E+02  0.00000000000E+00 0. -1.
         11    1    3    3    0    0 -0.10669334800E+02  0.10776721897E+02  0.95021090824E+00  0.15194582619E+02  0.51100000000E-03 0. -1.
        -11    1    3    3    0    0  0.43139811273E+01  0.22994867600E+02  0.17242351572E+02  0.29063259575E+02  0.51100000000E-03 0.  1.
        -12    1    3    3    0    0  0.56421298353E+01  0.12633107423E+01  0.24281507393E+01  0.62710046343E+01  0.00000000000E+00 0.  1.
</event>
<event>
 7    1  0.5764931E-013  0.5052886E+02  0.7816164E-02  0.1300439E+00
        -11   -1    0    0    0    0  0.00000000000E+00  0.00000000000E+00  0.45593999997E+02  0.45594000000E+02  0.51100000000E-03 0. -1.
         11   -1    0    0    0    0 -0.00000000000E+00 -0.00000000000E+00 -0.45593999997E+02  0.45594000000E+02  0.51100000000E-03 0.  1.
    9900012    2    1    2    0    0  0.38356198150E+02  0.84870572002E+01 -0.10485112574E+02  0.50528860042E+02  0.30000000584E+02 0.  0.
         12    1    1    2    0    0 -0.38356198150E+02 -0.84870572002E+01  0.10485112574E+02  0.40659139958E+02  0.00000000000E+00 0. -1.
         11    1    3    3    0    0  0.10821064405E+02 -0.37370897155E+01  0.37643475525E+01  0.12051206875E+02  0.51100000000E-03 0. -1.
        -11    1    3    3    0    0  0.29109038960E+01  0.10207866565E+02 -0.70526635150E+01  0.12744173737E+02  0.51100000000E-03 0.  1.
        -12    1    3    3    0    0  0.24624229849E+02  0.20162803503E+01 -0.71967966119E+01  0.25733479430E+02  0.00000000000E+00 0.  1.
</event>
<event>
 7    1  0.5764931E-013  0.5052886E+02  0.7816164E-02  0.1300439E+00
        -11   -1    0    0    0    0  0.00000000000E+00  0.00000000000E+00  0.45593999997E+02  0.45594000000E+02  0.51100000000E-03 0.  1.
         11   -1    0    0    0    0 -0.00000000000E+00 -0.00000000000E+00 -0.45593999997E+02  0.45594000000E+02  0.51100000000E-03 0. -1.
    9900012    2    1    2    0    0  0.35532954991E+02  0.19654363100E+02  0.20689963248E+01  0.50528860498E+02  0.30000001970E+02 0.  0.
         12    1    1    2    0    0 -0.35532954991E+02 -0.19654363100E+02 -0.20689963248E+01  0.40659139502E+02  0.00000000000E+00 0. -1.
         11    1    3    3    0    0  0.78529338755E+01 -0.43099360067E+01  0.32182953940E+01  0.95184843509E+01  0.51100000000E-03 0. -1.
        -11    1    3    3    0    0  0.24160673695E+02  0.16365669869E+02 -0.79246837411E+01  0.30238616309E+02  0.51100000000E-03 0.  1.
        -12    1    3    3    0    0  0.35193474208E+01  0.75986292369E+01  0.67753846719E+01  0.10771759838E+02  0.00000000000E+00 0.  1.
</event>
<event>
 7    1  0.5764931E-013  0.5052886E+02  0.7816164E-02  0.1300439E+00
        -11   -1    0    0    0    0  0.00000000000E+00  0.00000000000E+00  0.45593999997E+02  0.45594000000E+02  0.51100000000E-03 0.  1.
         11   -1    0    0    0    0 -0.00000000000E+00 -0.00000000000E+00 -0.45593999997E+02  0.45594000000E+02  0.51100000000E-03 0. -1.
    9900012    2    1    2    0    0 -0.21203645640E+02 -0.81283690733E+01  0.33726858080E+02  0.50528856771E+02  0.29999990640E+02 0.  0.
         12    1    1    2    0    0  0.21203645640E+02  0.81283690733E+01 -0.33726858080E+02  0.40659143229E+02  0.00000000000E+00 0. -1.
         11    1    3    3    0    0 -0.90254497209E+00 -0.13471218714E+02  0.10441787594E+02  0.17068076912E+02  0.51100000000E-03 0. -1.
        -11    1    3    3    0    0 -0.13541544993E+02  0.36998533003E+00  0.20590441672E+02  0.24647040764E+02  0.51100000000E-03 0.  1.
        -12    1    3    3    0    0 -0.67595556754E+01  0.49728643102E+01  0.26946288137E+01  0.88137390941E+01  0.00000000000E+00 0.  1.
</event>
<event>
 7    1  0.5764931E-013  0.5052886E+02  0.7816164E-02  0.1300439E+00
        -11   -1    0    0    0    0  0.00000000000E+00  0.00000000000E+00  0.45593999997E+02  0.45594000000E+02  0.51100000000E-03 0.  1.
         11   -1    0    0    0    0 -0.00000000000E+00 -0.00000000000E+00 -0.45593999997E+02  0.45594000000E+02  0.51100000000E-03 0. -1.
    9900012    2    1    2    0    0 -0.93608312431E+01  0.21154805988E+02  0.33436728091E+02  0.50528858797E+02  0.29999996799E+02 0.  0.
         12    1    1    2    0    0  0.93608312431E+01 -0.21154805988E+02 -0.33436728091E+02  0.40659141203E+02  0.00000000000E+00 0. -1.
         11    1    3    3    0    0  0.81097360537E+01  0.73281865357E+01  0.20218957210E+02  0.22984263479E+02  0.51100000000E-03 0. -1.
        -11    1    3    3    0    0 -0.13408826344E+02  0.80738033588E+01  0.43976251484E+01  0.16257983633E+02  0.51100000000E-03 0.  1.
        -12    1    3    3    0    0 -0.40617409529E+01  0.57528160939E+01  0.88201457323E+01  0.11286611685E+02  0.00000000000E+00 0.  1.
</event>
<event>
 7    1  0.5764931E-013  0.5052886E+02  0.7816164E-02  0.1300439E+00
        -11   -1    0    0    0    0  0.00000000000E+00  0.00000000000E+00  0.45593999997E+02  0.45594000000E+02  0.51100000000E-03 0.  1.
         11   -1    0    0    0    0 -0.00000000000E+00 -0.00000000000E+00 -0.45593999997E+02  0.45594000000E+02  0.51100000000E-03 0. -1.
    9900012    2    1    2    0    0 -0.37472580447E+02  0.55270019328E+01  0.14779162910E+02  0.50528859675E+02  0.29999999467E+02 0.  0.
         12    1    1    2    0    0  0.37472580447E+02 -0.55270019328E+01 -0.14779162910E+02  0.40659140325E+02  0.00000000000E+00 0. -1.
         11    1    3    3    0    0 -0.51636057556E+01 -0.46677498921E+01  0.93588369326E+01  0.11663556166E+02  0.51100000000E-03 0.  1.
        -11    1    3    3    0    0 -0.33460692671E+02  0.11297003001E+02  0.23361388318E+01  0.35393470807E+02  0.51100000000E-03 0. -1.
         12    1    3    3    0    0  0.11517179800E+01 -0.11022511761E+01  0.30841871452E+01  0.34718327015E+01  0.00000000000E+00 0. -1.
</event>
<event>
 7    1  0.5764931E-013  0.5052883E+02  0.7816164E-02  0.1300439E+00
        -11   -1    0    0    0    0  0.00000000000E+00  0.00000000000E+00  0.45593999997E+02  0.45594000000E+02  0.51100000000E-03 0.  1.
         11   -1    0    0    0    0 -0.00000000000E+00 -0.00000000000E+00 -0.45593999997E+02  0.45594000000E+02  0.51100000000E-03 0. -1.
    9900012    2    1    2    0    0 -0.84134486733E+01 -0.39029521254E+02 -0.76862529301E+01  0.50528829669E+02  0.29999908261E+02 0.  0.
         12    1    1    2    0    0  0.84134486733E+01  0.39029521254E+02  0.76862529301E+01  0.40659170331E+02  0.00000000000E+00 0. -1.
         11    1    3    3    0    0  0.10358052292E+01  0.19800449298E+01 -0.38672732514E+01  0.44664609099E+01  0.51100000000E-03 0. -1.
        -11    1    3    3    0    0 -0.83005928312E+01 -0.38182082979E+02  0.23867987607E+01  0.39146750958E+02  0.51100000000E-03 0.  1.
        -12    1    3    3    0    0 -0.11486610713E+01 -0.28274832048E+01 -0.62057784393E+01  0.69156178009E+01  0.00000000000E+00 0.  1.
</event>
<event>
 7    1  0.5764931E-013  0.5052887E+02  0.7816164E-02  0.1300439E+00
        -11   -1    0    0    0    0  0.00000000000E+00  0.00000000000E+00  0.45593999997E+02  0.45594000000E+02  0.51100000000E-03 0. -1.
         11   -1    0    0    0    0 -0.00000000000E+00 -0.00000000000E+00 -0.45593999997E+02  0.45594000000E+02  0.51100000000E-03 0.  1.
    9900012    2    1    2    0    0  0.33980717632E+02 -0.21115810487E+02 -0.72524866135E+01  0.50528865904E+02  0.30000018402E+02 0.  0.
         12    1    1    2    0    0 -0.33980717632E+02  0.21115810487E+02  0.72524866135E+01  0.40659134096E+02  0.00000000000E+00 0. -1.
         11    1    3    3    0    0 -0.21166013008E+01 -0.90014618833E+00  0.40816746373E+01  0.46851181770E+01  0.51100000000E-03 0. -1.
        -11    1    3    3    0    0  0.20321719300E+02 -0.53953854826E+01 -0.11960511344E+02  0.24189590565E+02  0.51100000000E-03 0.  1.
         12    1    3    3    0    0  0.15775599633E+02 -0.14820278817E+02  0.62635009295E+00  0.21654157162E+02  0.00000000000E+00 0. -1.
</event>
<event>
 7    1  0.5764931E-013  0.5052887E+02  0.7816164E-02  0.1300439E+00
        -11   -1    0    0    0    0  0.00000000000E+00  0.00000000000E+00  0.45593999997E+02  0.45594000000E+02  0.51100000000E-03 0. -1.
         11   -1    0    0    0    0 -0.00000000000E+00 -0.00000000000E+00 -0.45593999997E+02  0.45594000000E+02  0.51100000000E-03 0.  1.
    9900012    2    1    2    0    0  0.28714692106E+02  0.17221000837E+02 -0.23066617449E+02  0.50528865072E+02  0.30000015872E+02 0.  0.
         12    1    1    2    0    0 -0.28714692106E+02 -0.17221000837E+02  0.23066617449E+02  0.40659134928E+02  0.00000000000E+00 0. -1.
         11    1    3    3    0    0  0.90412593771E+00  0.14116568156E+01 -0.15613944414E+02  0.15703677247E+02  0.51100000000E-03 0. -1.
        -11    1    3    3    0    0  0.71304404247E+01  0.10429588759E+02 -0.22552951785E+01  0.12833778046E+02  0.51100000000E-03 0.  1.
         12    1    3    3    0    0  0.20680125744E+02  0.53797552628E+01 -0.51973778569E+01  0.21991409779E+02  0.00000000000E+00 0. -1.
</event>
<event>
 7    1  0.5764931E-013  0.5052887E+02  0.7816164E-02  0.1300439E+00
        -11   -1    0    0    0    0  0.00000000000E+00  0.00000000000E+00  0.45593999997E+02  0.45594000000E+02  0.51100000000E-03 0.  1.
         11   -1    0    0    0    0 -0.00000000000E+00 -0.00000000000E+00 -0.45593999997E+02  0.45594000000E+02  0.51100000000E-03 0. -1.
    9900012    2    1    2    0    0 -0.98041308322E+01  0.37534995711E+02  0.12172421157E+02  0.50528871613E+02  0.30000035754E+02 0.  0.
         12    1    1    2    0    0  0.98041308322E+01 -0.37534995711E+02 -0.12172421157E+02  0.40659128387E+02  0.00000000000E+00 0. -1.
         11    1    3    3    0    0 -0.42170773636E+01 -0.16305140179E+01  0.79527165428E+00  0.45907270359E+01  0.51100000000E-03 0. -1.
        -11    1    3    3    0    0  0.57709674824E+01  0.15827177913E+02  0.10732518943E+02  0.19974748797E+02  0.51100000000E-03 0.  1.
        -12    1    3    3    0    0 -0.11358020951E+02  0.23338331816E+02  0.64463055990E+00  0.25963395780E+02  0.00000000000E+00 0.  1.
</event>
<event>
 7    1  0.5764931E-013  0.5052885E+02  0.7816164E-02  0.1300439E+00
        -11   -1    0    0    0    0  0.00000000000E+00  0.00000000000E+00  0.45593999997E+02  0.45594000000E+02  0.51100000000E-03 0.  1.
         11   -1    0    0    0    0 -0.00000000000E+00 -0.00000000000E+00 -0.45593999997E+02  0.45594000000E+02  0.51100000000E-03 0. -1.
    9900012    2    1    2    0    0 -0.33352686039E+02 -0.95820753431E+01  0.21188415492E+02  0.50528846234E+02  0.29999958613E+02 0.  0.
         12    1    1    2    0    0  0.33352686039E+02  0.95820753431E+01 -0.21188415492E+02  0.40659153766E+02  0.00000000000E+00 0. -1.
         11    1    3    3    0    0 -0.58271449722E+01 -0.78402203467E+00 -0.46365575575E+01  0.74878551884E+01  0.51100000000E-03 0.  1.
        -11    1    3    3    0    0 -0.21191697416E+02 -0.14682114640E+02  0.18976363514E+02  0.32011793173E+02  0.51100000000E-03 0. -1.
        -12    1    3    3    0    0 -0.63338436512E+01  0.58840613316E+01  0.68486095353E+01  0.11029197873E+02  0.00000000000E+00 0.  1.
</event>
<event>
 7    1  0.5764931E-013  0.5052886E+02  0.7816164E-02  0.1300439E+00
        -11   -1    0    0    0    0  0.00000000000E+00  0.00000000000E+00  0.45593999997E+02  0.45594000000E+02  0.51100000000E-03 0.  1.
         11   -1    0    0    0    0 -0.00000000000E+00 -0.00000000000E+00 -0.45593999997E+02  0.45594000000E+02  0.51100000000E-03 0. -1.
    9900012    2    1    2    0    0 -0.14564231463E+02  0.30866718106E+02  0.22097385194E+02  0.50528861333E+02  0.30000004507E+02 0.  0.
         12    1    1    2    0    0  0.14564231463E+02 -0.30866718106E+02 -0.22097385194E+02  0.40659138667E+02  0.00000000000E+00 0. -1.
         11    1    3    3    0    0 -0.35284322812E+01  0.23986897054E+02  0.23327912239E+01  0.24356990368E+02  0.51100000000E-03 0. -1.
        -11    1    3    3    0    0 -0.22634686411E+01  0.49524169973E+01  0.15098875675E+02  0.16050724947E+02  0.51100000000E-03 0.  1.
        -12    1    3    3    0    0 -0.87723305406E+01  0.19274040552E+01  0.46657182952E+01  0.10121146018E+02  0.00000000000E+00 0.  1.
</event>
<event>
 7    1  0.5764931E-013  0.5052885E+02  0.7816164E-02  0.1300439E+00
        -11   -1    0    0    0    0  0.00000000000E+00  0.00000000000E+00  0.45593999997E+02  0.45594000000E+02  0.51100000000E-03 0. -1.
         11   -1    0    0    0    0 -0.00000000000E+00 -0.00000000000E+00 -0.45593999997E+02  0.45594000000E+02  0.51100000000E-03 0.  1.
    9900012    2    1    2    0    0 -0.76154100388E+01 -0.28485771881E+02 -0.27995231817E+02  0.50528847596E+02  0.29999962753E+02 0.  0.
         12    1    1    2    0    0  0.76154100388E+01  0.28485771881E+02  0.27995231817E+02  0.40659152404E+02  0.00000000000E+00 0. -1.
         11    1    3    3    0    0 -0.55754093565E+01 -0.16555884807E+02 -0.10342192967E+02  0.20301316875E+02  0.51100000000E-03 0. -1.
        -11    1    3    3    0    0  0.72858887134E+01  0.34057412388E+00 -0.71778858936E+00  0.73290781001E+01  0.51100000000E-03 0.  1.
        -12    1    3    3    0    0 -0.93258893957E+01 -0.12270461198E+02 -0.16935250261E+02  0.22898452621E+02  0.00000000000E+00 0.  1.
</event>
<event>
 7    1  0.5764931E-013  0.5052892E+02  0.7816164E-02  0.1300439E+00
        -11   -1    0    0    0    0  0.00000000000E+00  0.00000000000E+00  0.45593999997E+02  0.45594000000E+02  0.51100000000E-03 0.  1.
         11   -1    0    0    0    0 -0.00000000000E+00 -0.00000000000E+00 -0.45593999997E+02  0.45594000000E+02  0.51100000000E-03 0. -1.
    9900012    2    1    2    0    0 -0.36077261381E+02 -0.16279708575E+02  0.93039209281E+01  0.50528921743E+02  0.30000188130E+02 0.  0.
         12    1    1    2    0    0  0.36077261381E+02  0.16279708575E+02 -0.93039209281E+01  0.40659078257E+02  0.00000000000E+00 0. -1.
         11    1    3    3    0    0 -0.26762195334E+02  0.27871461384E+01  0.10943776120E+02  0.29047366812E+02  0.51100000000E-03 0. -1.
        -11    1    3    3    0    0 -0.47848695520E+01 -0.12761794939E+02 -0.53771186731E+00  0.13639923790E+02  0.51100000000E-03 0.  1.
         12    1    3    3    0    0 -0.45301964951E+01 -0.63050597740E+01 -0.11021433245E+01  0.78416311407E+01  0.00000000000E+00 0. -1.
</event>
<event>
 7    1  0.5764931E-013  0.5052886E+02  0.7816164E-02  0.1300439E+00
        -11   -1    0    0    0    0  0.00000000000E+00  0.00000000000E+00  0.45593999997E+02  0.45594000000E+02  0.51100000000E-03 0.  1.
         11   -1    0    0    0    0 -0.00000000000E+00 -0.00000000000E+00 -0.45593999997E+02  0.45594000000E+02  0.51100000000E-03 0. -1.
    9900012    2    1    2    0    0  0.12249029810E+02  0.72402660154E+01  0.38088125453E+02  0.50528862236E+02  0.30000007251E+02 0.  0.
         12    1    1    2    0    0 -0.12249029810E+02 -0.72402660154E+01 -0.38088125453E+02  0.40659137764E+02  0.00000000000E+00 0. -1.
         11    1    3    3    0    0 -0.65395067512E+01 -0.28032002538E+01  0.90789295419E+01  0.11534731991E+02  0.51100000000E-03 0. -1.
        -11    1    3    3    0    0  0.15723299753E+02  0.13073266084E+02  0.27813657869E+02  0.34521471660E+02  0.51100000000E-03 0.  1.
         12    1    3    3    0    0  0.30652368082E+01 -0.30297998150E+01  0.11955380413E+01  0.44726585850E+01  0.00000000000E+00 0. -1.
</event>
<event>
 7    1  0.5764931E-013  0.5052886E+02  0.7816164E-02  0.1300439E+00
        -11   -1    0    0    0    0  0.00000000000E+00  0.00000000000E+00  0.45593999997E+02  0.45594000000E+02  0.51100000000E-03 0.  1.
         11   -1    0    0    0    0 -0.00000000000E+00 -0.00000000000E+00 -0.45593999997E+02  0.45594000000E+02  0.51100000000E-03 0. -1.
    9900012    2    1    2    0    0 -0.18117265532E+02 -0.29322169910E+00  0.36398414456E+02  0.50528857556E+02  0.29999993028E+02 0.  0.
         12    1    1    2    0    0  0.18117265532E+02  0.29322169910E+00 -0.36398414456E+02  0.40659142444E+02  0.00000000000E+00 0. -1.
         11    1    3    3    0    0  0.55602978179E+01  0.43015382451E+00  0.21624402254E+01  0.59814790918E+01  0.51100000000E-03 0. -1.
        -11    1    3    3    0    0 -0.19235217702E+02 -0.46879609676E+01  0.32973745414E+02  0.38460869269E+02  0.51100000000E-03 0.  1.
         12    1    3    3    0    0 -0.44423456481E+01  0.39645854440E+01  0.12622288173E+01  0.60865091955E+01  0.00000000000E+00 0. -1.
</event>
<event>
 7    1  0.5764931E-013  0.5052884E+02  0.7816164E-02  0.1300439E+00
        -11   -1    0    0    0    0  0.00000000000E+00  0.00000000000E+00  0.45593999997E+02  0.45594000000E+02  0.51100000000E-03 0.  1.
         11   -1    0    0    0    0 -0.00000000000E+00 -0.00000000000E+00 -0.45593999997E+02  0.45594000000E+02  0.51100000000E-03 0. -1.
    9900012    2    1    2    0    0 -0.45374968133E+01 -0.17504729021E+02  0.36416520847E+02  0.50528838596E+02  0.29999935397E+02 0.  0.
         12    1    1    2    0    0  0.45374968133E+01  0.17504729021E+02 -0.36416520847E+02  0.40659161404E+02  0.00000000000E+00 0. -1.
         11    1    3    3    0    0 -0.89780119187E+01 -0.19050213783E+02  0.30484222460E+02  0.37051358443E+02  0.51100000000E-03 0. -1.
        -11    1    3    3    0    0  0.43115410915E+01 -0.22172255988E+01  0.78697508694E+01  0.92432924301E+01  0.51100000000E-03 0.  1.
         12    1    3    3    0    0  0.12897401390E+00  0.37627103610E+01 -0.19374524822E+01  0.42341877235E+01  0.00000000000E+00 0. -1.
</event>
<event>
 7    1  0.5764931E-013  0.5052885E+02  0.7816164E-02  0.1300439E+00
        -11   -1    0    0    0    0  0.00000000000E+00  0.00000000000E+00  0.45593999997E+02  0.45594000000E+02  0.51100000000E-03 0.  1.
         11   -1    0    0    0    0 -0.00000000000E+00 -0.00000000000E+00 -0.45593999997E+02  0.45594000000E+02  0.51100000000E-03 0. -1.
    9900012    2    1    2    0    0  0.22914201624E+01  0.15994464224E+02  0.37310759385E+02  0.50528852713E+02  0.29999978307E+02 0.  0.
         12    1    1    2    0    0 -0.22914201624E+01 -0.15994464224E+02 -0.37310759385E+02  0.40659147287E+02  0.00000000000E+00 0. -1.
         11    1    3    3    0    0 -0.21192050635E+01  0.23924957027E+00 -0.85622102863E+00  0.22981264475E+01  0.51100000000E-03 0. -1.
        -11    1    3    3    0    0  0.13957484364E+02  0.14009683910E+02  0.26060442007E+02  0.32714358483E+02  0.51100000000E-03 0.  1.
        -12    1    3    3    0    0 -0.95468591383E+01  0.17455307436E+01  0.12106538407E+02  0.15516367783E+02  0.00000000000E+00 0.  1.
</event>
<event>
 7    1  0.5764931E-013  0.5052883E+02  0.7816164E-02  0.1300439E+00
        -11   -1    0    0    0    0  0.00000000000E+00  0.00000000000E+00  0.45593999997E+02  0.45594000000E+02  0.51100000000E-03 0. -1.
         11   -1    0    0    0    0 -0.00000000000E+00 -0.00000000000E+00 -0.45593999997E+02  0.45594000000E+02  0.51100000000E-03 0.  1.
    9900012    2    1    2    0    0 -0.40399695634E+02 -0.50418306166E+00 -0.45583451388E+01  0.50528829838E+02  0.29999908775E+02 0.  0.
         12    1    1    2    0    0  0.40399695634E+02  0.50418306166E+00  0.45583451388E+01  0.40659170162E+02  0.00000000000E+00 0. -1.
         11    1    3    3    0    0  0.31546063196E+01  0.18209352839E+01 -0.33497034754E+01  0.49485209885E+01  0.51100000000E-03 0. -1.
        -11    1    3    3    0    0 -0.18353841875E+02 -0.71176394306E+01  0.17245510009E+01  0.19761031832E+02  0.51100000000E-03 0.  1.
         12    1    3    3    0    0 -0.25200460078E+02  0.47925210850E+01 -0.29331926644E+01  0.25819277018E+02  0.00000000000E+00 0. -1.
</event>
<event>
 7    1  0.5764931E-013  0.5052887E+02  0.7816164E-02  0.1300439E+00
        -11   -1    0    0    0    0  0.00000000000E+00  0.00000000000E+00  0.45593999997E+02  0.45594000000E+02  0.51100000000E-03 0.  1.
         11   -1    0    0    0    0 -0.00000000000E+00 -0.00000000000E+00 -0.45593999997E+02  0.45594000000E+02  0.51100000000E-03 0. -1.
    9900012    2    1    2    0    0 -0.36720832020E+02 -0.62595172876E+01  0.16296137217E+02  0.50528866351E+02  0.30000019761E+02 0.  0.
         12    1    1    2    0    0  0.36720832020E+02  0.62595172876E+01 -0.16296137217E+02  0.40659133649E+02  0.00000000000E+00 0. -1.
         11    1    3    3    0    0 -0.18211798260E+02 -0.10896049143E+02 -0.44171086274E+01  0.21677276851E+02  0.51100000000E-03 0. -1.
        -11    1    3    3    0    0 -0.19824826080E+01  0.25421473443E+01  0.19824364174E+01  0.37845481661E+01  0.51100000000E-03 0.  1.
         12    1    3    3    0    0 -0.16526551151E+02  0.20943845110E+01  0.18730809427E+02  0.25067041334E+02  0.00000000000E+00 0. -1.
</event>
<event>
 7    1  0.5764931E-013  0.5052887E+02  0.7816164E-02  0.1300439E+00
        -11   -1    0    0    0    0  0.00000000000E+00  0.00000000000E+00  0.45593999997E+02  0.45594000000E+02  0.51100000000E-03 0.  1.
         11   -1    0    0    0    0 -0.00000000000E+00 -0.00000000000E+00 -0.45593999997E+02  0.45594000000E+02  0.51100000000E-03 0. -1.
    9900012    2    1    2    0    0  0.21360755190E+02 -0.36935999149E+01  0.34398255853E+02  0.50528873738E+02  0.30000042215E+02 0.  0.
         12    1    1    2    0    0 -0.21360755190E+02  0.36935999149E+01 -0.34398255853E+02  0.40659126262E+02  0.00000000000E+00 0. -1.
         11    1    3    3    0    0  0.18511910620E+02 -0.12836474216E+02  0.14356912374E+02  0.26713046218E+02  0.51100000000E-03 0. -1.
        -11    1    3    3    0    0  0.50965714297E+00  0.24498994276E+01  0.14771259615E+02  0.14981717808E+02  0.51100000000E-03 0.  1.
        -12    1    3    3    0    0  0.23391874270E+01  0.66929748730E+01  0.52700838640E+01  0.88341097120E+01  0.00000000000E+00 0.  1.
</event>
<event>
 7    1  0.5764931E-013  0.5052889E+02  0.7816164E-02  0.1300439E+00
        -11   -1    0    0    0    0  0.00000000000E+00  0.00000000000E+00  0.45593999997E+02  0.45594000000E+02  0.51100000000E-03 0.  1.
         11   -1    0    0    0    0 -0.00000000000E+00 -0.00000000000E+00 -0.45593999997E+02  0.45594000000E+02  0.51100000000E-03 0. -1.
    9900012    2    1    2    0    0 -0.24193986943E+02 -0.24599347258E+02 -0.21510140010E+02  0.50528892620E+02  0.30000099606E+02 0.  0.
         12    1    1    2    0    0  0.24193986943E+02  0.24599347258E+02  0.21510140010E+02  0.40659107380E+02  0.00000000000E+00 0. -1.
         11    1    3    3    0    0 -0.20994129688E+02 -0.14597198899E+02 -0.27508585060E+02  0.37557342150E+02  0.51100000000E-03 0. -1.
        -11    1    3    3    0    0 -0.40220218736E+01 -0.61964975994E+01  0.50969918293E+01  0.89751082678E+01  0.51100000000E-03 0.  1.
         12    1    3    3    0    0  0.82216461893E+00 -0.38056507593E+01  0.90145322091E+00  0.39964422017E+01  0.00000000000E+00 0. -1.
</event>
<event>
 7    1  0.5764931E-013  0.5052881E+02  0.7816164E-02  0.1300439E+00
        -11   -1    0    0    0    0  0.00000000000E+00  0.00000000000E+00  0.45593999997E+02  0.45594000000E+02  0.51100000000E-03 0. -1.
         11   -1    0    0    0    0 -0.00000000000E+00 -0.00000000000E+00 -0.45593999997E+02  0.45594000000E+02  0.51100000000E-03 0.  1.
    9900012    2    1    2    0    0  0.10550905138E+02 -0.31830726037E+00 -0.39265080429E+02  0.50528813341E+02  0.29999858630E+02 0.  0.
         12    1    1    2    0    0 -0.10550905138E+02  0.31830726037E+00  0.39265080429E+02  0.40659186659E+02  0.00000000000E+00 0. -1.
         11    1    3    3    0    0  0.18138072797E+02 -0.36741353229E+01 -0.22929176503E+02  0.29465846170E+02  0.51100000000E-03 0. -1.
        -11    1    3    3    0    0 -0.58499123562E+01 -0.25077133974E+01 -0.11943402178E+02  0.13533475419E+02  0.51100000000E-03 0.  1.
         12    1    3    3    0    0 -0.17372553031E+01  0.58635414599E+01 -0.43925017474E+01  0.75294917518E+01  0.00000000000E+00 0. -1.
</event>
<event>
 7    1  0.5764931E-013  0.5052886E+02  0.7816164E-02  0.1300439E+00
        -11   -1    0    0    0    0  0.00000000000E+00  0.00000000000E+00  0.45593999997E+02  0.45594000000E+02  0.51100000000E-03 0.  1.
         11   -1    0    0    0    0 -0.00000000000E+00 -0.00000000000E+00 -0.45593999997E+02  0.45594000000E+02  0.51100000000E-03 0. -1.
    9900012    2    1    2    0    0 -0.25971666039E+02  0.98965439060E+01  0.29676533345E+02  0.50528860197E+02  0.30000001055E+02 0.  0.
         12    1    1    2    0    0  0.25971666039E+02 -0.98965439060E+01 -0.29676533345E+02  0.40659139803E+02  0.00000000000E+00 0. -1.
         11    1    3    3    0    0 -0.30663199959E+01  0.23258293731E+01 -0.32611521178E+01  0.50444934321E+01  0.51100000000E-03 0. -1.
        -11    1    3    3    0    0 -0.24563911682E+02  0.22481772591E+01  0.30924355554E+02  0.39556994638E+02  0.51100000000E-03 0.  1.
        -12    1    3    3    0    0  0.16585656388E+01  0.53225372738E+01  0.20133299093E+01  0.59273721271E+01  0.00000000000E+00 0.  1.
</event>
<event>
 7    1  0.5764931E-013  0.5052886E+02  0.7816164E-02  0.1300439E+00
        -11   -1    0    0    0    0  0.00000000000E+00  0.00000000000E+00  0.45593999997E+02  0.45594000000E+02  0.51100000000E-03 0.  1.
         11   -1    0    0    0    0 -0.00000000000E+00 -0.00000000000E+00 -0.45593999997E+02  0.45594000000E+02  0.51100000000E-03 0. -1.
    9900012    2    1    2    0    0  0.17453136904E+02  0.39959683112E+01  0.36504598588E+02  0.50528862422E+02  0.30000007818E+02 0.  0.
         12    1    1    2    0    0 -0.17453136904E+02 -0.39959683112E+01 -0.36504598588E+02  0.40659137578E+02  0.00000000000E+00 0. -1.
         11    1    3    3    0    0  0.99050747991E+01  0.14291531733E+02  0.83043249730E+01  0.19269670458E+02  0.51100000000E-03 0. -1.
        -11    1    3    3    0    0  0.61643431743E+01 -0.10183056419E+02  0.26591651735E+02  0.29134338967E+02  0.51100000000E-03 0.  1.
         12    1    3    3    0    0  0.13837189301E+01 -0.11250700290E+00  0.16086218801E+01  0.21248529964E+01  0.00000000000E+00 0. -1.
</event>
<event>
 7    1  0.5764931E-013  0.5052884E+02  0.7816164E-02  0.1300439E+00
        -11   -1    0    0    0    0  0.00000000000E+00  0.00000000000E+00  0.45593999997E+02  0.45594000000E+02  0.51100000000E-03 0.  1.
         11   -1    0    0    0    0 -0.00000000000E+00 -0.00000000000E+00 -0.45593999997E+02  0.45594000000E+02  0.51100000000E-03 0. -1.
    9900012    2    1    2    0    0 -0.31405741848E+02  0.18737966176E+02  0.17768939343E+02  0.50528841095E+02  0.29999942993E+02 0.  0.
         12    1    1    2    0    0  0.31405741848E+02 -0.18737966176E+02 -0.17768939343E+02  0.40659158905E+02  0.00000000000E+00 0. -1.
         11    1    3    3    0    0  0.39402126308E+00 -0.47021050140E+01 -0.11855206173E+01  0.48652341889E+01  0.51100000000E-03 0. -1.
        -11    1    3    3    0    0 -0.15434840229E+02  0.61030885158E+01  0.27170101367E+01  0.16818564941E+02  0.51100000000E-03 0.  1.
         12    1    3    3    0    0 -0.16364922882E+02  0.17336982674E+02  0.16237449824E+02  0.28845041965E+02  0.00000000000E+00 0. -1.
</event>
<event>
 7    1  0.5764931E-013  0.5052885E+02  0.7816164E-02  0.1300439E+00
        -11   -1    0    0    0    0  0.00000000000E+00  0.00000000000E+00  0.45593999997E+02  0.45594000000E+02  0.51100000000E-03 0. -1.
         11   -1    0    0    0    0 -0.00000000000E+00 -0.00000000000E+00 -0.45593999997E+02  0.45594000000E+02  0.51100000000E-03 0.  1.
    9900012    2    1    2    0    0  0.28439367930E+02 -0.17431303705E+02 -0.23249059682E+02  0.50528846379E+02  0.29999959052E+02 0.  0.
         12    1    1    2    0    0 -0.28439367930E+02  0.17431303705E+02  0.23249059682E+02  0.40659153621E+02  0.00000000000E+00 0. -1.
         11    1    3    3    0    0  0.97620946382E+01  0.70580274691E+01 -0.66693373823E+01  0.13769324779E+02  0.51100000000E-03 0. -1.
        -11    1    3    3    0    0  0.16535795531E+02 -0.14613140598E+02 -0.14604574930E+02  0.26462615538E+02  0.51100000000E-03 0.  1.
         12    1    3    3    0    0  0.21414777603E+01 -0.98761905768E+01 -0.19751473696E+01  0.10296906061E+02  0.00000000000E+00 0. -1.
</event>
<event>
 7    1  0.5764931E-013  0.5052886E+02  0.7816164E-02  0.1300439E+00
        -11   -1    0    0    0    0  0.00000000000E+00  0.00000000000E+00  0.45593999997E+02  0.45594000000E+02  0.51100000000E-03 0.  1.
         11   -1    0    0    0    0 -0.00000000000E+00 -0.00000000000E+00 -0.45593999997E+02  0.45594000000E+02  0.51100000000E-03 0. -1.
    9900012    2    1    2    0    0  0.26263530558E+02  0.23681800136E+01  0.30948091075E+02  0.50528860128E+02  0.30000000845E+02 0.  0.
         12    1    1    2    0    0 -0.26263530558E+02 -0.23681800136E+01 -0.30948091075E+02  0.40659139872E+02  0.00000000000E+00 0. -1.
         11    1    3    3    0    0 -0.51939512204E+01  0.19979700159E+01 -0.97225274123E+00  0.56492733266E+01  0.51100000000E-03 0. -1.
        -11    1    3    3    0    0  0.18166495614E+02  0.11405395399E+01  0.17427626306E+02  0.25200090323E+02  0.51100000000E-03 0.  1.
         12    1    3    3    0    0  0.13290986165E+02 -0.77032954223E+00  0.14492717509E+02  0.19679496478E+02  0.00000000000E+00 0. -1.
</event>
<event>
 7    1  0.5764931E-013  0.5052885E+02  0.7816164E-02  0.1300439E+00
        -11   -1    0    0    0    0  0.00000000000E+00  0.00000000000E+00  0.45593999997E+02  0.45594000000E+02  0.51100000000E-03 0.  1.
         11   -1    0    0    0    0 -0.00000000000E+00 -0.00000000000E+00 -0.45593999997E+02  0.45594000000E+02  0.51100000000E-03 0. -1.
    9900012    2    1    2    0    0 -0.34334459304E+02 -0.20382646940E+02  0.76719595712E+01  0.50528851513E+02  0.29999974660E+02 0.  0.
         12    1    1    2    0    0  0.34334459304E+02  0.20382646940E+02 -0.76719595712E+01  0.40659148487E+02  0.00000000000E+00 0. -1.
         11    1    3    3    0    0  0.31507173535E+01 -0.18680734020E+01  0.10141885236E+01  0.38006968703E+01  0.51100000000E-03 0. -1.
        -11    1    3    3    0    0 -0.32921751691E+02 -0.15468889560E+02  0.12735969626E+02  0.38540020773E+02  0.51100000000E-03 0.  1.
        -12    1    3    3    0    0 -0.45634249662E+01 -0.30456839781E+01 -0.60781985779E+01  0.81881338697E+01  0.00000000000E+00 0.  1.
</event>
<event>
 7    1  0.5764931E-013  0.5052886E+02  0.7816164E-02  0.1300439E+00
        -11   -1    0    0    0    0  0.00000000000E+00  0.00000000000E+00  0.45593999997E+02  0.45594000000E+02  0.51100000000E-03 0.  1.
         11   -1    0    0    0    0 -0.00000000000E+00 -0.00000000000E+00 -0.45593999997E+02  0.45594000000E+02  0.51100000000E-03 0. -1.
    9900012    2    1    2    0    0  0.98094578400E+01  0.26070546546E+02  0.29618689841E+02  0.50528860213E+02  0.30000001104E+02 0.  0.
         12    1    1    2    0    0 -0.98094578400E+01 -0.26070546546E+02 -0.29618689841E+02  0.40659139787E+02  0.00000000000E+00 0. -1.
         11    1    3    3    0    0 -0.40517943273E+01 -0.27773271641E+01  0.97338259540E+01  0.10903116592E+02  0.51100000000E-03 0. -1.
        -11    1    3    3    0    0  0.49135873820E+01  0.13603815291E+02  0.15922137476E+02  0.21510964495E+02  0.51100000000E-03 0.  1.
         12    1    3    3    0    0  0.89476647853E+01  0.15244058419E+02  0.39627264110E+01  0.18114779127E+02  0.00000000000E+00 0. -1.
</event>
<event>
 7    1  0.5764931E-013  0.5052886E+02  0.7816164E-02  0.1300439E+00
        -11   -1    0    0    0    0  0.00000000000E+00  0.00000000000E+00  0.45593999997E+02  0.45594000000E+02  0.51100000000E-03 0. -1.
         11   -1    0    0    0    0 -0.00000000000E+00 -0.00000000000E+00 -0.45593999997E+02  0.45594000000E+02  0.51100000000E-03 0.  1.
    9900012    2    1    2    0    0  0.29175986394E+02  0.17477444925E+02 -0.22281520387E+02  0.50528863094E+02  0.30000009861E+02 0.  0.
         12    1    1    2    0    0 -0.29175986394E+02 -0.17477444925E+02  0.22281520387E+02  0.40659136906E+02  0.00000000000E+00 0. -1.
         11    1    3    3    0    0  0.37464847651E+01  0.20874160092E+01 -0.17789270936E+02  0.18298951183E+02  0.51100000000E-03 0. -1.
        -11    1    3    3    0    0  0.26577525406E+02  0.15481981476E+02 -0.42169072821E+01  0.31045755175E+02  0.51100000000E-03 0.  1.
        -12    1    3    3    0    0 -0.11480237772E+01 -0.91952560046E-01 -0.27534216918E+00  0.11841567364E+01  0.00000000000E+00 0.  1.
</event>
<event>
 7    1  0.5764931E-013  0.5052886E+02  0.7816164E-02  0.1300439E+00
        -11   -1    0    0    0    0  0.00000000000E+00  0.00000000000E+00  0.45593999997E+02  0.45594000000E+02  0.51100000000E-03 0.  1.
         11   -1    0    0    0    0 -0.00000000000E+00 -0.00000000000E+00 -0.45593999997E+02  0.45594000000E+02  0.51100000000E-03 0. -1.
    9900012    2    1    2    0    0  0.30875231909E+02 -0.23742791139E+02  0.11669005116E+02  0.50528858877E+02  0.29999997041E+02 0.  0.
         12    1    1    2    0    0 -0.30875231909E+02  0.23742791139E+02 -0.11669005116E+02  0.40659141123E+02  0.00000000000E+00 0. -1.
         11    1    3    3    0    0  0.14115194700E+02 -0.22728604135E+02  0.65458657155E+01  0.27544083313E+02  0.51100000000E-03 0.  1.
        -11    1    3    3    0    0  0.89259609518E+01  0.47844499376E+01  0.79068291012E+01  0.12848411840E+02  0.51100000000E-03 0. -1.
         12    1    3    3    0    0  0.78340762565E+01 -0.57986369421E+01 -0.27836897003E+01  0.10136363723E+02  0.00000000000E+00 0. -1.
</event>
<event>
 7    1  0.5764931E-013  0.5052879E+02  0.7816164E-02  0.1300439E+00
        -11   -1    0    0    0    0  0.00000000000E+00  0.00000000000E+00  0.45593999997E+02  0.45594000000E+02  0.51100000000E-03 0.  1.
         11   -1    0    0    0    0 -0.00000000000E+00 -0.00000000000E+00 -0.45593999997E+02  0.45594000000E+02  0.51100000000E-03 0. -1.
    9900012    2    1    2    0    0 -0.59620997717E+01  0.85087422449E+01  0.39309366702E+02  0.50528786545E+02  0.29999777182E+02 0.  0.
         12    1    1    2    0    0  0.59620997717E+01 -0.85087422449E+01 -0.39309366702E+02  0.40659213455E+02  0.00000000000E+00 0. -1.
         11    1    3    3    0    0  0.88474623367E+01 -0.32832434572E+01  0.11238524281E+02  0.14675207177E+02  0.51100000000E-03 0. -1.
        -11    1    3    3    0    0 -0.13871326583E+02  0.98443251021E+01  0.15228353786E+02  0.22830400723E+02  0.51100000000E-03 0.  1.
        -12    1    3    3    0    0 -0.93823552561E+00  0.19476606000E+01  0.12842488634E+02  0.13023178646E+02  0.00000000000E+00 0.  1.
</event>
<event>
 7    1  0.5764931E-013  0.5052886E+02  0.7816164E-02  0.1300439E+00
        -11   -1    0    0    0    0  0.00000000000E+00  0.00000000000E+00  0.45593999997E+02  0.45594000000E+02  0.51100000000E-03 0.  1.
         11   -1    0    0    0    0 -0.00000000000E+00 -0.00000000000E+00 -0.45593999997E+02  0.45594000000E+02  0.51100000000E-03 0. -1.
    9900012    2    1    2    0    0 -0.19314212266E+02  0.19997559999E+02  0.29668578770E+02  0.50528858745E+02  0.29999996642E+02 0.  0.
         12    1    1    2    0    0  0.19314212266E+02 -0.19997559999E+02 -0.29668578770E+02  0.40659141255E+02  0.00000000000E+00 0. -1.
         11    1    3    3    0    0 -0.60349094511E+01  0.14776740051E+02  0.26878536226E+02  0.31260644404E+02  0.51100000000E-03 0. -1.
        -11    1    3    3    0    0 -0.50213062162E+01 -0.23876540383E+01  0.53885339216E+01  0.77427841252E+01  0.51100000000E-03 0.  1.
         12    1    3    3    0    0 -0.82579965989E+01  0.76084739863E+01 -0.25984913782E+01  0.11525430216E+02  0.00000000000E+00 0. -1.
</event>
<event>
 7    1  0.5764931E-013  0.5052886E+02  0.7816164E-02  0.1300439E+00
        -11   -1    0    0    0    0  0.00000000000E+00  0.00000000000E+00  0.45593999997E+02  0.45594000000E+02  0.51100000000E-03 0.  1.
         11   -1    0    0    0    0 -0.00000000000E+00 -0.00000000000E+00 -0.45593999997E+02  0.45594000000E+02  0.51100000000E-03 0. -1.
    9900012    2    1    2    0    0 -0.20184881608E+02 -0.14722988014E+02  0.32077563399E+02  0.50528857176E+02  0.29999991872E+02 0.  0.
         12    1    1    2    0    0  0.20184881608E+02  0.14722988014E+02 -0.32077563399E+02  0.40659142824E+02  0.00000000000E+00 0. -1.
         11    1    3    3    0    0 -0.88142777816E+01 -0.15271986180E+02  0.87430484886E+01  0.19681614563E+02  0.51100000000E-03 0. -1.
        -11    1    3    3    0    0 -0.60337191919E+00  0.37473243354E+01  0.18030517709E+02  0.18425690393E+02  0.51100000000E-03 0.  1.
        -12    1    3    3    0    0 -0.10767231907E+02 -0.31983261696E+01  0.53039972017E+01  0.12421552220E+02  0.00000000000E+00 0.  1.
</event>
<event>
 7    1  0.5764931E-013  0.5052885E+02  0.7816164E-02  0.1300439E+00
        -11   -1    0    0    0    0  0.00000000000E+00  0.00000000000E+00  0.45593999997E+02  0.45594000000E+02  0.51100000000E-03 0.  1.
         11   -1    0    0    0    0 -0.00000000000E+00 -0.00000000000E+00 -0.45593999997E+02  0.45594000000E+02  0.51100000000E-03 0. -1.
    9900012    2    1    2    0    0  0.10682021398E+02  0.14203694051E+02  0.36569332230E+02  0.50528848932E+02  0.29999966814E+02 0.  0.
         12    1    1    2    0    0 -0.10682021398E+02 -0.14203694051E+02 -0.36569332230E+02  0.40659151068E+02  0.00000000000E+00 0. -1.
         11    1    3    3    0    0  0.43407668769E+01 -0.22432219780E+01 -0.31567470238E+01  0.58171603000E+01  0.51100000000E-03 0. -1.
        -11    1    3    3    0    0  0.14858037755E+01  0.15226491591E+02  0.26948635350E+02  0.30988426977E+02  0.51100000000E-03 0.  1.
        -12    1    3    3    0    0  0.48554507454E+01  0.12204244384E+01  0.12777443904E+02  0.13723261655E+02  0.00000000000E+00 0.  1.
</event>
<event>
 7    1  0.5764931E-013  0.5052886E+02  0.7816164E-02  0.1300439E+00
        -11   -1    0    0    0    0  0.00000000000E+00  0.00000000000E+00  0.45593999997E+02  0.45594000000E+02  0.51100000000E-03 0. -1.
         11   -1    0    0    0    0 -0.00000000000E+00 -0.00000000000E+00 -0.45593999997E+02  0.45594000000E+02  0.51100000000E-03 0.  1.
    9900012    2    1    2    0    0 -0.16556897167E+02  0.15154337959E+02 -0.33902520892E+02  0.50528859261E+02  0.29999998211E+02 0.  0.
         12    1    1    2    0    0  0.16556897167E+02 -0.15154337959E+02  0.33902520892E+02  0.40659140739E+02  0.00000000000E+00 0. -1.
         11    1    3    3    0    0 -0.28046195741E+01  0.31369258563E+01  0.41220992277E+01  0.58904920921E+01  0.51100000000E-03 0. -1.
        -11    1    3    3    0    0 -0.14954602561E+02  0.89817411402E+01 -0.37462895813E+02  0.41325299449E+02  0.51100000000E-03 0.  1.
        -12    1    3    3    0    0  0.12023249681E+01  0.30356709620E+01 -0.56172430736E+00  0.33130677198E+01  0.00000000000E+00 0.  1.
</event>
<event>
 7    1  0.5764931E-013  0.5052884E+02  0.7816164E-02  0.1300439E+00
        -11   -1    0    0    0    0  0.00000000000E+00  0.00000000000E+00  0.45593999997E+02  0.45594000000E+02  0.51100000000E-03 0.  1.
         11   -1    0    0    0    0 -0.00000000000E+00 -0.00000000000E+00 -0.45593999997E+02  0.45594000000E+02  0.51100000000E-03 0. -1.
    9900012    2    1    2    0    0  0.16728942282E+02 -0.35229702688E+02  0.11496866577E+02  0.50528838641E+02  0.29999935532E+02 0.  0.
         12    1    1    2    0    0 -0.16728942282E+02  0.35229702688E+02 -0.11496866577E+02  0.40659161359E+02  0.00000000000E+00 0. -1.
         11    1    3    3    0    0 -0.14893173906E+01 -0.70638844982E+01  0.13913346999E+02  0.15674748976E+02  0.51100000000E-03 0.  1.
        -11    1    3    3    0    0  0.82838204387E+01 -0.67320344420E+01 -0.34193934436E+01  0.11208667208E+02  0.51100000000E-03 0. -1.
        -12    1    3    3    0    0  0.99344392341E+01 -0.21433783747E+02  0.10029130218E+01  0.23645422457E+02  0.00000000000E+00 0.  1.
</event>
<event>
 7    1  0.5764931E-013  0.5052887E+02  0.7816164E-02  0.1300439E+00
        -11   -1    0    0    0    0  0.00000000000E+00  0.00000000000E+00  0.45593999997E+02  0.45594000000E+02  0.51100000000E-03 0. -1.
         11   -1    0    0    0    0 -0.00000000000E+00 -0.00000000000E+00 -0.45593999997E+02  0.45594000000E+02  0.51100000000E-03 0.  1.
    9900012    2    1    2    0    0  0.28051927494E+02 -0.28233703190E+02  0.83133995064E+01  0.50528865192E+02  0.30000016239E+02 0.  0.
         12    1    1    2    0    0 -0.28051927494E+02  0.28233703190E+02 -0.83133995064E+01  0.40659134808E+02  0.00000000000E+00 0. -1.
         11    1    3    3    0    0 -0.41861359486E+01 -0.50790619038E+01  0.48679047818E+01  0.81863973290E+01  0.51100000000E-03 0. -1.
        -11    1    3    3    0    0  0.26182206083E+02 -0.18393444201E+02  0.85270451711E+01  0.33114003149E+02  0.51100000000E-03 0.  1.
         12    1    3    3    0    0  0.60558573602E+01 -0.47611970845E+01 -0.50815504464E+01  0.92284647144E+01  0.00000000000E+00 0. -1.
</event>
<event>
 7    1  0.5764931E-013  0.5052887E+02  0.7816164E-02  0.1300439E+00
        -11   -1    0    0    0    0  0.00000000000E+00  0.00000000000E+00  0.45593999997E+02  0.45594000000E+02  0.51100000000E-03 0.  1.
         11   -1    0    0    0    0 -0.00000000000E+00 -0.00000000000E+00 -0.45593999997E+02  0.45594000000E+02  0.51100000000E-03 0. -1.
    9900012    2    1    2    0    0 -0.10813798746E+02 -0.23557841403E+02  0.31324989509E+02  0.50528866923E+02  0.30000021499E+02 0.  0.
         12    1    1    2    0    0  0.10813798746E+02  0.23557841403E+02 -0.31324989509E+02  0.40659133077E+02  0.00000000000E+00 0. -1.
         11    1    3    3    0    0 -0.46629352979E+01  0.38610854633E+01  0.32537246339E+01  0.68729666667E+01  0.51100000000E-03 0. -1.
        -11    1    3    3    0    0 -0.30603718028E+01 -0.25333079681E+02  0.30060024004E+02  0.39430138791E+02  0.51100000000E-03 0.  1.
        -12    1    3    3    0    0 -0.30904916450E+01 -0.20858471849E+01 -0.19887591291E+01  0.42257614651E+01  0.00000000000E+00 0.  1.
</event>
<event>
 7    1  0.5764931E-013  0.5052886E+02  0.7816164E-02  0.1300439E+00
        -11   -1    0    0    0    0  0.00000000000E+00  0.00000000000E+00  0.45593999997E+02  0.45594000000E+02  0.51100000000E-03 0.  1.
         11   -1    0    0    0    0 -0.00000000000E+00 -0.00000000000E+00 -0.45593999997E+02  0.45594000000E+02  0.51100000000E-03 0. -1.
    9900012    2    1    2    0    0 -0.73452997468E+01 -0.16779446372E+02  0.36299617482E+02  0.50528862303E+02  0.30000007456E+02 0.  0.
         12    1    1    2    0    0  0.73452997468E+01  0.16779446372E+02 -0.36299617482E+02  0.40659137697E+02  0.00000000000E+00 0. -1.
         11    1    3    3    0    0  0.91691343501E+01 -0.15030564706E+02  0.16353340851E+02  0.24029620417E+02  0.51100000000E-03 0. -1.
        -11    1    3    3    0    0 -0.11081074096E+02  0.68449091376E+00  0.15513256666E+02  0.19076683768E+02  0.51100000000E-03 0.  1.
         12    1    3    3    0    0 -0.54333600007E+01 -0.24333725796E+01  0.44330199656E+01  0.74225581186E+01  0.00000000000E+00 0. -1.
</event>
<event>
 7    1  0.5764931E-013  0.5052886E+02  0.7816164E-02  0.1300439E+00
        -11   -1    0    0    0    0  0.00000000000E+00  0.00000000000E+00  0.45593999997E+02  0.45594000000E+02  0.51100000000E-03 0.  1.
         11   -1    0    0    0    0 -0.00000000000E+00 -0.00000000000E+00 -0.45593999997E+02  0.45594000000E+02  0.51100000000E-03 0. -1.
    9900012    2    1    2    0    0  0.12696804332E+02  0.14151616201E+02  0.35940067534E+02  0.50528861597E+02  0.30000005311E+02 0.  0.
         12    1    1    2    0    0 -0.12696804332E+02 -0.14151616201E+02 -0.35940067534E+02  0.40659138403E+02  0.00000000000E+00 0. -1.
         11    1    3    3    0    0 -0.20862410288E+01  0.28273373076E+01  0.71435871100E+01  0.79609719847E+01  0.51100000000E-03 0. -1.
        -11    1    3    3    0    0  0.17828128214E+02  0.71881920952E+01  0.31394517399E+02  0.36812063025E+02  0.51100000000E-03 0.  1.
        -12    1    3    3    0    0 -0.30450828532E+01  0.41360867979E+01 -0.25980369750E+01  0.57558265875E+01  0.00000000000E+00 0.  1.
</event>
<event>
 7    1  0.5764931E-013  0.5052885E+02  0.7816164E-02  0.1300439E+00
        -11   -1    0    0    0    0  0.00000000000E+00  0.00000000000E+00  0.45593999997E+02  0.45594000000E+02  0.51100000000E-03 0.  1.
         11   -1    0    0    0    0 -0.00000000000E+00 -0.00000000000E+00 -0.45593999997E+02  0.45594000000E+02  0.51100000000E-03 0. -1.
    9900012    2    1    2    0    0 -0.84221493348E+01  0.38979669305E+02 -0.79258449896E+01  0.50528852968E+02  0.29999979083E+02 0.  0.
         12    1    1    2    0    0  0.84221493348E+01 -0.38979669305E+02  0.79258449896E+01  0.40659147032E+02  0.00000000000E+00 0. -1.
         11    1    3    3    0    0  0.66288009175E+01  0.50153177289E+01 -0.80282445231E+01  0.11556259079E+02  0.51100000000E-03 0. -1.
        -11    1    3    3    0    0 -0.12600061407E+02  0.19474708547E+02  0.45112786551E+01  0.23630011761E+02  0.51100000000E-03 0.  1.
        -12    1    3    3    0    0 -0.24508888449E+01  0.14489643030E+02 -0.44088791217E+01  0.15342582128E+02  0.00000000000E+00 0.  1.
</event>
<event>
 7    1  0.5764931E-013  0.5052889E+02  0.7816164E-02  0.1300439E+00
        -11   -1    0    0    0    0  0.00000000000E+00  0.00000000000E+00  0.45593999997E+02  0.45594000000E+02  0.51100000000E-03 0. -1.
         11   -1    0    0    0    0 -0.00000000000E+00 -0.00000000000E+00 -0.45593999997E+02  0.45594000000E+02  0.51100000000E-03 0.  1.
    9900012    2    1    2    0    0 -0.16039381171E+02 -0.26163942716E+01 -0.37270045856E+02  0.50528885580E+02  0.30000078207E+02 0.  0.
         12    1    1    2    0    0  0.16039381171E+02  0.26163942716E+01  0.37270045856E+02  0.40659114420E+02  0.00000000000E+00 0. -1.
         11    1    3    3    0    0 -0.15915540251E+02 -0.78965684008E+01 -0.30947238213E+02  0.35684615274E+02  0.51100000000E-03 0. -1.
        -11    1    3    3    0    0  0.29368078558E+01  0.44579478358E+01 -0.91525424083E+01  0.10595620420E+02  0.51100000000E-03 0.  1.
         12    1    3    3    0    0 -0.30606487764E+01  0.82222629344E+00  0.28297347651E+01  0.42486498857E+01  0.00000000000E+00 0. -1.
</event>
<event>
 7    1  0.5764931E-013  0.5052886E+02  0.7816164E-02  0.1300439E+00
        -11   -1    0    0    0    0  0.00000000000E+00  0.00000000000E+00  0.45593999997E+02  0.45594000000E+02  0.51100000000E-03 0.  1.
         11   -1    0    0    0    0 -0.00000000000E+00 -0.00000000000E+00 -0.45593999997E+02  0.45594000000E+02  0.51100000000E-03 0. -1.
    9900012    2    1    2    0    0  0.24050208921E+02  0.28320080149E+02  0.16514417107E+02  0.50528862513E+02  0.30000008095E+02 0.  0.
         12    1    1    2    0    0 -0.24050208921E+02 -0.28320080149E+02 -0.16514417107E+02  0.40659137487E+02  0.00000000000E+00 0. -1.
         11    1    3    3    0    0  0.15843671872E+02  0.41455484759E+00  0.84594302140E+01  0.17965404363E+02  0.51100000000E-03 0. -1.
        -11    1    3    3    0    0  0.10583907671E+02  0.16603051656E+02  0.28492186319E+01  0.19894684540E+02  0.51100000000E-03 0.  1.
         12    1    3    3    0    0 -0.23773706223E+01  0.11302473646E+02  0.52057682611E+01  0.12668773610E+02  0.00000000000E+00 0. -1.
</event>
<event>
 7    1  0.5764931E-013  0.5052886E+02  0.7816164E-02  0.1300439E+00
        -11   -1    0    0    0    0  0.00000000000E+00  0.00000000000E+00  0.45593999997E+02  0.45594000000E+02  0.51100000000E-03 0.  1.
         11   -1    0    0    0    0 -0.00000000000E+00 -0.00000000000E+00 -0.45593999997E+02  0.45594000000E+02  0.51100000000E-03 0. -1.
    9900012    2    1    2    0    0 -0.26482586758E+02  0.27151202505E+01  0.30732176123E+02  0.50528856764E+02  0.29999990621E+02 0.  0.
         12    1    1    2    0    0  0.26482586758E+02 -0.27151202505E+01 -0.30732176123E+02  0.40659143236E+02  0.00000000000E+00 0. -1.
         11    1    3    3    0    0 -0.55709467272E+01 -0.60387186557E+01 -0.26911400475E+01  0.86454499858E+01  0.51100000000E-03 0. -1.
        -11    1    3    3    0    0 -0.73694261041E+01  0.86118838612E+01  0.18797402207E+02  0.21950291906E+02  0.51100000000E-03 0.  1.
         12    1    3    3    0    0 -0.13542213927E+02  0.14195504501E+00  0.14625913964E+02  0.19933114873E+02  0.00000000000E+00 0. -1.
</event>
<event>
 7    1  0.5764931E-013  0.5052886E+02  0.7816164E-02  0.1300439E+00
        -11   -1    0    0    0    0  0.00000000000E+00  0.00000000000E+00  0.45593999997E+02  0.45594000000E+02  0.51100000000E-03 0.  1.
         11   -1    0    0    0    0 -0.00000000000E+00 -0.00000000000E+00 -0.45593999997E+02  0.45594000000E+02  0.51100000000E-03 0. -1.
    9900012    2    1    2    0    0  0.25166244157E+00 -0.26318327898E+02  0.30991101084E+02  0.50528855103E+02  0.29999985572E+02 0.  0.
         12    1    1    2    0    0 -0.25166244157E+00  0.26318327898E+02 -0.30991101084E+02  0.40659144897E+02  0.00000000000E+00 0. -1.
         11    1    3    3    0    0 -0.12860676874E+01 -0.96372141064E+01 -0.37856565211E+01  0.10433650434E+02  0.51100000000E-03 0. -1.
        -11    1    3    3    0    0 -0.19435941598E+01 -0.97121528715E+01  0.28237612151E+02  0.29924341462E+02  0.51100000000E-03 0.  1.
        -12    1    3    3    0    0  0.34813242888E+01 -0.69689609198E+01  0.65391454541E+01  0.10170863207E+02  0.00000000000E+00 0.  1.
</event>
<event>
 7    1  0.5764931E-013  0.5052896E+02  0.7816164E-02  0.1300438E+00
        -11   -1    0    0    0    0  0.00000000000E+00  0.00000000000E+00  0.45593999997E+02  0.45594000000E+02  0.51100000000E-03 0.  1.
         11   -1    0    0    0    0 -0.00000000000E+00 -0.00000000000E+00 -0.45593999997E+02  0.45594000000E+02  0.51100000000E-03 0. -1.
    9900012    2    1    2    0    0  0.11616694902E+02 -0.16051836852E+01  0.38931138191E+02  0.50528957513E+02  0.30000296856E+02 0.  0.
         12    1    1    2    0    0 -0.11616694902E+02  0.16051836852E+01 -0.38931138191E+02  0.40659042487E+02  0.00000000000E+00 0. -1.
         11    1    3    3    0    0 -0.42238403791E+01  0.45241042233E+01  0.51630149254E+01  0.80600911877E+01  0.51100000000E-03 0.  1.
        -11    1    3    3    0    0  0.46914319104E+01 -0.11922399920E+02  0.13417736691E+02  0.18552326307E+02  0.51100000000E-03 0. -1.
        -12    1    3    3    0    0  0.11149103371E+02  0.57931120118E+01  0.20350386574E+02  0.23916540018E+02  0.00000000000E+00 0.  1.
</event>
<event>
 7    1  0.5764931E-013  0.5052885E+02  0.7816164E-02  0.1300439E+00
        -11   -1    0    0    0    0  0.00000000000E+00  0.00000000000E+00  0.45593999997E+02  0.45594000000E+02  0.51100000000E-03 0. -1.
         11   -1    0    0    0    0 -0.00000000000E+00 -0.00000000000E+00 -0.45593999997E+02  0.45594000000E+02  0.51100000000E-03 0.  1.
    9900012    2    1    2    0    0 -0.14997689851E+02 -0.36190355756E+02 -0.10885478249E+02  0.50528853583E+02  0.29999980952E+02 0.  0.
         12    1    1    2    0    0  0.14997689851E+02  0.36190355756E+02  0.10885478249E+02  0.40659146417E+02  0.00000000000E+00 0. -1.
         11    1    3    3    0    0 -0.16570945581E+02 -0.68273101450E+01 -0.30158120071E+01  0.18174254417E+02  0.51100000000E-03 0. -1.
        -11    1    3    3    0    0  0.27819858133E+01 -0.84367644858E+01 -0.71119782922E+01  0.11379748483E+02  0.51100000000E-03 0.  1.
         12    1    3    3    0    0 -0.12087300826E+01 -0.20926281125E+02 -0.75768794982E+00  0.20974850683E+02  0.00000000000E+00 0. -1.
</event>
<event>
 7    1  0.5764931E-013  0.5052886E+02  0.7816164E-02  0.1300439E+00
        -11   -1    0    0    0    0  0.00000000000E+00  0.00000000000E+00  0.45593999997E+02  0.45594000000E+02  0.51100000000E-03 0.  1.
         11   -1    0    0    0    0 -0.00000000000E+00 -0.00000000000E+00 -0.45593999997E+02  0.45594000000E+02  0.51100000000E-03 0. -1.
    9900012    2    1    2    0    0 -0.31378409689E+01  0.45675843172E+01  0.40279731020E+02  0.50528860763E+02  0.30000002774E+02 0.  0.
         12    1    1    2    0    0  0.31378409689E+01 -0.45675843172E+01 -0.40279731020E+02  0.40659139237E+02  0.00000000000E+00 0. -1.
         11    1    3    3    0    0  0.36156499145E+01  0.13644333921E+02  0.16697185227E+02  0.21864051940E+02  0.51100000000E-03 0. -1.
        -11    1    3    3    0    0  0.19906845148E+01 -0.56199129443E+01  0.14110049413E+02  0.15317954858E+02  0.51100000000E-03 0.  1.
         12    1    3    3    0    0 -0.87441753982E+01 -0.34568366597E+01  0.94724963805E+01  0.13346853965E+02  0.00000000000E+00 0. -1.
</event>
<event>
 7    1  0.5764931E-013  0.5052885E+02  0.7816164E-02  0.1300439E+00
        -11   -1    0    0    0    0  0.00000000000E+00  0.00000000000E+00  0.45593999997E+02  0.45594000000E+02  0.51100000000E-03 0.  1.
         11   -1    0    0    0    0 -0.00000000000E+00 -0.00000000000E+00 -0.45593999997E+02  0.45594000000E+02  0.51100000000E-03 0. -1.
    9900012    2    1    2    0    0 -0.21272652768E+02 -0.34423967277E+02  0.39535914571E+01  0.50528853867E+02  0.29999981813E+02 0.  0.
         12    1    1    2    0    0  0.21272652768E+02  0.34423967277E+02 -0.39535914571E+01  0.40659146133E+02  0.00000000000E+00 0. -1.
         11    1    3    3    0    0 -0.83900677146E+00  0.31792650180E+01  0.29388730287E+01  0.44100604709E+01  0.51100000000E-03 0. -1.
        -11    1    3    3    0    0 -0.20388678018E+02 -0.39324051203E+02  0.15304378641E+01  0.44321794127E+02  0.51100000000E-03 0.  1.
        -12    1    3    3    0    0 -0.44967978630E-01  0.17208189083E+01 -0.51571943563E+00  0.17969992684E+01  0.00000000000E+00 0.  1.
</event>
<event>
 7    1  0.5764931E-013  0.5052887E+02  0.7816164E-02  0.1300439E+00
        -11   -1    0    0    0    0  0.00000000000E+00  0.00000000000E+00  0.45593999997E+02  0.45594000000E+02  0.51100000000E-03 0.  1.
         11   -1    0    0    0    0 -0.00000000000E+00 -0.00000000000E+00 -0.45593999997E+02  0.45594000000E+02  0.51100000000E-03 0. -1.
    9900012    2    1    2    0    0 -0.39233912129E+00  0.39629894467E+02  0.90819946839E+01  0.50528867042E+02  0.30000021861E+02 0.  0.
         12    1    1    2    0    0  0.39233912129E+00 -0.39629894467E+02 -0.90819946839E+01  0.40659132958E+02  0.00000000000E+00 0. -1.
         11    1    3    3    0    0  0.48975670421E+01  0.14410854280E+02 -0.74524965610E+01  0.16946934509E+02  0.51100000000E-03 0. -1.
        -11    1    3    3    0    0  0.29992901153E+01  0.77483553380E+01  0.10365301011E+02  0.13284284585E+02  0.51100000000E-03 0.  1.
         12    1    3    3    0    0 -0.82891962787E+01  0.17470684849E+02  0.61691902340E+01  0.20297647947E+02  0.00000000000E+00 0. -1.
</event>
<event>
 7    1  0.5764931E-013  0.5052886E+02  0.7816164E-02  0.1300439E+00
        -11   -1    0    0    0    0  0.00000000000E+00  0.00000000000E+00  0.45593999997E+02  0.45594000000E+02  0.51100000000E-03 0. -1.
         11   -1    0    0    0    0 -0.00000000000E+00 -0.00000000000E+00 -0.45593999997E+02  0.45594000000E+02  0.51100000000E-03 0.  1.
    9900012    2    1    2    0    0 -0.28116088487E+02 -0.25239009352E+02 -0.15021427572E+02  0.50528864358E+02  0.30000013701E+02 0.  0.
         12    1    1    2    0    0  0.28116088487E+02  0.25239009352E+02  0.15021427572E+02  0.40659135642E+02  0.00000000000E+00 0. -1.
         11    1    3    3    0    0 -0.19791050725E+01 -0.41607862951E+01  0.82279746849E+01  0.94301944390E+01  0.51100000000E-03 0. -1.
        -11    1    3    3    0    0 -0.16418123183E+02 -0.13625024485E+02 -0.12052933828E+02  0.24504474595E+02  0.51100000000E-03 0.  1.
         12    1    3    3    0    0 -0.97188602316E+01 -0.74531985722E+01 -0.11196468428E+02  0.16594195323E+02  0.00000000000E+00 0. -1.
</event>
<event>
 7    1  0.5764931E-013  0.5052887E+02  0.7816164E-02  0.1300439E+00
        -11   -1    0    0    0    0  0.00000000000E+00  0.00000000000E+00  0.45593999997E+02  0.45594000000E+02  0.51100000000E-03 0.  1.
         11   -1    0    0    0    0 -0.00000000000E+00 -0.00000000000E+00 -0.45593999997E+02  0.45594000000E+02  0.51100000000E-03 0. -1.
    9900012    2    1    2    0    0 -0.32181196886E+02  0.22156216646E+02  0.11253337685E+02  0.50528868453E+02  0.30000026151E+02 0.  0.
         12    1    1    2    0    0  0.32181196886E+02 -0.22156216646E+02 -0.11253337685E+02  0.40659131547E+02  0.00000000000E+00 0. -1.
         11    1    3    3    0    0 -0.11389140365E+02 -0.43624481372E+01 -0.42781809359E+01  0.12924639429E+02  0.51100000000E-03 0. -1.
        -11    1    3    3    0    0 -0.17083706372E+02  0.18056757996E+02  0.12858844244E+02  0.27986593367E+02  0.51100000000E-03 0.  1.
         12    1    3    3    0    0 -0.37083501490E+01  0.84619067872E+01  0.26726743775E+01  0.96176356569E+01  0.00000000000E+00 0. -1.
</event>
<event>
 7    1  0.5764931E-013  0.5052886E+02  0.7816164E-02  0.1300439E+00
        -11   -1    0    0    0    0  0.00000000000E+00  0.00000000000E+00  0.45593999997E+02  0.45594000000E+02  0.51100000000E-03 0. -1.
         11   -1    0    0    0    0 -0.00000000000E+00 -0.00000000000E+00 -0.45593999997E+02  0.45594000000E+02  0.51100000000E-03 0.  1.
    9900012    2    1    2    0    0  0.89343152443E+00 -0.30927906082E+02 -0.26378627656E+02  0.50528860910E+02  0.30000003223E+02 0.  0.
         12    1    1    2    0    0 -0.89343152443E+00  0.30927906082E+02  0.26378627656E+02  0.40659139090E+02  0.00000000000E+00 0. -1.
         11    1    3    3    0    0 -0.10249829963E+02 -0.96037316213E+01 -0.13690350462E+02  0.19614188012E+02  0.51100000000E-03 0. -1.
        -11    1    3    3    0    0  0.95585737262E+01 -0.18257999037E+02 -0.16031141627E+02  0.26109736932E+02  0.51100000000E-03 0.  1.
        -12    1    3    3    0    0  0.15846877608E+01 -0.30661754233E+01  0.33428644333E+01  0.48049359668E+01  0.00000000000E+00 0.  1.
</event>
<event>
 7    1  0.5764931E-013  0.5052885E+02  0.7816164E-02  0.1300439E+00
        -11   -1    0    0    0    0  0.00000000000E+00  0.00000000000E+00  0.45593999997E+02  0.45594000000E+02  0.51100000000E-03 0.  1.
         11   -1    0    0    0    0 -0.00000000000E+00 -0.00000000000E+00 -0.45593999997E+02  0.45594000000E+02  0.51100000000E-03 0. -1.
    9900012    2    1    2    0    0  0.28008989775E+02 -0.21688640030E+02  0.19956606172E+02  0.50528846732E+02  0.29999960126E+02 0.  0.
         12    1    1    2    0    0 -0.28008989775E+02  0.21688640030E+02 -0.19956606172E+02  0.40659153268E+02  0.00000000000E+00 0. -1.
         11    1    3    3    0    0  0.24675699889E+01  0.31075417862E+01 -0.23135127459E+01  0.45932623580E+01  0.51100000000E-03 0. -1.
        -11    1    3    3    0    0  0.24697458735E+02 -0.20263026830E+02  0.25010297911E+02  0.40571784853E+02  0.51100000000E-03 0.  1.
        -12    1    3    3    0    0  0.84396105020E+00 -0.45331549864E+01 -0.27401789929E+01  0.53637995207E+01  0.00000000000E+00 0.  1.
</event>
<event>
 7    1  0.5764931E-013  0.5052887E+02  0.7816164E-02  0.1300439E+00
        -11   -1    0    0    0    0  0.00000000000E+00  0.00000000000E+00  0.45593999997E+02  0.45594000000E+02  0.51100000000E-03 0. -1.
         11   -1    0    0    0    0 -0.00000000000E+00 -0.00000000000E+00 -0.45593999997E+02  0.45594000000E+02  0.51100000000E-03 0.  1.
    9900012    2    1    2    0    0 -0.33304661939E+02  0.14094630124E+01 -0.23280412497E+02  0.50528871888E+02  0.30000036589E+02 0.  0.
         12    1    1    2    0    0  0.33304661939E+02 -0.14094630124E+01  0.23280412497E+02  0.40659128112E+02  0.00000000000E+00 0. -1.
         11    1    3    3    0    0 -0.12250745372E+02 -0.69696366983E+01 -0.14837104495E+00  0.14095340084E+02  0.51100000000E-03 0. -1.
        -11    1    3    3    0    0 -0.64435930535E+01  0.26021961127E+00 -0.17732016994E+02  0.18868281125E+02  0.51100000000E-03 0.  1.
         12    1    3    3    0    0 -0.14610323514E+02  0.81188800994E+01 -0.54000244584E+01  0.17565250678E+02  0.00000000000E+00 0. -1.
</event>
<event>
 7    1  0.5764931E-013  0.5052886E+02  0.7816164E-02  0.1300439E+00
        -11   -1    0    0    0    0  0.00000000000E+00  0.00000000000E+00  0.45593999997E+02  0.45594000000E+02  0.51100000000E-03 0.  1.
         11   -1    0    0    0    0 -0.00000000000E+00 -0.00000000000E+00 -0.45593999997E+02  0.45594000000E+02  0.51100000000E-03 0. -1.
    9900012    2    1    2    0    0  0.13474400469E+02 -0.34056436458E+02  0.17656881826E+02  0.50528858248E+02  0.29999995130E+02 0.  0.
         12    1    1    2    0    0 -0.13474400469E+02  0.34056436458E+02 -0.17656881826E+02  0.40659141752E+02  0.00000000000E+00 0. -1.
         11    1    3    3    0    0 -0.17233526983E+01  0.43760263137E+01  0.28306895685E+01  0.54892945371E+01  0.51100000000E-03 0. -1.
        -11    1    3    3    0    0  0.15155642894E+02 -0.26817396508E+02  0.93009871344E+01  0.32177237746E+02  0.51100000000E-03 0.  1.
        -12    1    3    3    0    0  0.42110273270E-01 -0.11615066263E+02  0.55252051235E+01  0.12862325965E+02  0.00000000000E+00 0.  1.
</event>
<event>
 7    1  0.5764931E-013  0.5052886E+02  0.7816164E-02  0.1300439E+00
        -11   -1    0    0    0    0  0.00000000000E+00  0.00000000000E+00  0.45593999997E+02  0.45594000000E+02  0.51100000000E-03 0.  1.
         11   -1    0    0    0    0 -0.00000000000E+00 -0.00000000000E+00 -0.45593999997E+02  0.45594000000E+02  0.51100000000E-03 0. -1.
    9900012    2    1    2    0    0  0.29870152941E+02 -0.25890948969E+02  0.95183115437E+01  0.50528861668E+02  0.30000005526E+02 0.  0.
         12    1    1    2    0    0 -0.29870152941E+02  0.25890948969E+02 -0.95183115437E+01  0.40659138332E+02  0.00000000000E+00 0. -1.
         11    1    3    3    0    0 -0.16718367309E+01 -0.71343358278E+00 -0.35529037668E+01  0.39908834823E+01  0.51100000000E-03 0. -1.
        -11    1    3    3    0    0  0.29798790401E+02 -0.13253538364E+02  0.94350297603E+01  0.33950610825E+02  0.51100000000E-03 0.  1.
         12    1    3    3    0    0  0.17431992714E+01 -0.11923977022E+02  0.36361855503E+01  0.12587367361E+02  0.00000000000E+00 0. -1.
</event>
<event>
 7    1  0.5764931E-013  0.5052889E+02  0.7816164E-02  0.1300439E+00
        -11   -1    0    0    0    0  0.00000000000E+00  0.00000000000E+00  0.45593999997E+02  0.45594000000E+02  0.51100000000E-03 0. -1.
         11   -1    0    0    0    0 -0.00000000000E+00 -0.00000000000E+00 -0.45593999997E+02  0.45594000000E+02  0.51100000000E-03 0.  1.
    9900012    2    1    2    0    0 -0.18867523146E+02 -0.28765714495E+02 -0.21672880102E+02  0.50528886729E+02  0.30000081701E+02 0.  0.
         12    1    1    2    0    0  0.18867523146E+02  0.28765714495E+02  0.21672880102E+02  0.40659113271E+02  0.00000000000E+00 0. -1.
         11    1    3    3    0    0  0.52254666058E+01  0.12971351984E+01 -0.60387846545E+01  0.80904252877E+01  0.51100000000E-03 0. -1.
        -11    1    3    3    0    0 -0.12994692748E+02 -0.20671124977E+02 -0.13005105547E+02  0.27663879301E+02  0.51100000000E-03 0.  1.
         12    1    3    3    0    0 -0.11098297003E+02 -0.93917247166E+01 -0.26289899011E+01  0.14774582141E+02  0.00000000000E+00 0. -1.
</event>
<event>
 7    1  0.5764931E-013  0.5052885E+02  0.7816164E-02  0.1300439E+00
        -11   -1    0    0    0    0  0.00000000000E+00  0.00000000000E+00  0.45593999997E+02  0.45594000000E+02  0.51100000000E-03 0. -1.
         11   -1    0    0    0    0 -0.00000000000E+00 -0.00000000000E+00 -0.45593999997E+02  0.45594000000E+02  0.51100000000E-03 0.  1.
    9900012    2    1    2    0    0  0.17132719545E+02 -0.31325178153E+02 -0.19451716814E+02  0.50528854013E+02  0.29999982258E+02 0.  0.
         12    1    1    2    0    0 -0.17132719545E+02  0.31325178153E+02  0.19451716814E+02  0.40659145987E+02  0.00000000000E+00 0. -1.
         11    1    3    3    0    0 -0.73552344004E+01 -0.60214970969E+01 -0.78030232306E+00  0.95376502530E+01  0.51100000000E-03 0. -1.
        -11    1    3    3    0    0  0.21281841101E+02 -0.16476836684E+02 -0.15609064011E+02  0.31113434193E+02  0.51100000000E-03 0.  1.
        -12    1    3    3    0    0  0.32061128453E+01 -0.88268443724E+01 -0.30623504805E+01  0.98777695669E+01  0.00000000000E+00 0.  1.
</event>
<event>
 7    1  0.5764931E-013  0.5052886E+02  0.7816164E-02  0.1300439E+00
        -11   -1    0    0    0    0  0.00000000000E+00  0.00000000000E+00  0.45593999997E+02  0.45594000000E+02  0.51100000000E-03 0. -1.
         11   -1    0    0    0    0 -0.00000000000E+00 -0.00000000000E+00 -0.45593999997E+02  0.45594000000E+02  0.51100000000E-03 0.  1.
    9900012    2    1    2    0    0 -0.93865190996E+01 -0.30537308150E+02  0.25150178814E+02  0.50528862967E+02  0.30000009474E+02 0.  0.
         12    1    1    2    0    0  0.93865190996E+01  0.30537308150E+02 -0.25150178814E+02  0.40659137033E+02  0.00000000000E+00 0. -1.
         11    1    3    3    0    0  0.63874605728E+01 -0.98039187427E+01  0.29718576253E+01  0.12072630753E+02  0.51100000000E-03 0. -1.
        -11    1    3    3    0    0 -0.14328489943E+02 -0.58093779276E+01  0.65293412606E+01  0.16783527445E+02  0.51100000000E-03 0.  1.
         12    1    3    3    0    0 -0.14454897300E+01 -0.14924011480E+02  0.15648979928E+02  0.21672704769E+02  0.00000000000E+00 0. -1.
</event>
<event>
 7    1  0.5764931E-013  0.5052886E+02  0.7816164E-02  0.1300439E+00
        -11   -1    0    0    0    0  0.00000000000E+00  0.00000000000E+00  0.45593999997E+02  0.45594000000E+02  0.51100000000E-03 0. -1.
         11   -1    0    0    0    0 -0.00000000000E+00 -0.00000000000E+00 -0.45593999997E+02  0.45594000000E+02  0.51100000000E-03 0.  1.
    9900012    2    1    2    0    0  0.79460742498E+01 -0.21213171728E+01 -0.39818654048E+02  0.50528864585E+02  0.30000014392E+02 0.  0.
         12    1    1    2    0    0 -0.79460742498E+01  0.21213171728E+01  0.39818654048E+02  0.40659135415E+02  0.00000000000E+00 0. -1.
         11    1    3    3    0    0 -0.11974907189E+00  0.16117464586E+01  0.43197827019E+01  0.46122217358E+01  0.51100000000E-03 0. -1.
        -11    1    3    3    0    0  0.51492785719E+01  0.72965250913E+00 -0.34606548746E+02  0.34995152221E+02  0.51100000000E-03 0.  1.
         12    1    3    3    0    0  0.29165447497E+01 -0.44627161405E+01 -0.95318880040E+01  0.10921490629E+02  0.00000000000E+00 0. -1.
</event>
<event>
 7    1  0.5764931E-013  0.5052886E+02  0.7816164E-02  0.1300439E+00
        -11   -1    0    0    0    0  0.00000000000E+00  0.00000000000E+00  0.45593999997E+02  0.45594000000E+02  0.51100000000E-03 0. -1.
         11   -1    0    0    0    0 -0.00000000000E+00 -0.00000000000E+00 -0.45593999997E+02  0.45594000000E+02  0.51100000000E-03 0.  1.
    9900012    2    1    2    0    0 -0.32493114797E+02 -0.44766363188E+01 -0.24027540636E+02  0.50528862147E+02  0.30000006982E+02 0.  0.
         12    1    1    2    0    0  0.32493114797E+02  0.44766363188E+01  0.24027540636E+02  0.40659137853E+02  0.00000000000E+00 0. -1.
         11    1    3    3    0    0 -0.30839507728E+02 -0.95455117907E+00 -0.20285463536E+02  0.36925417208E+02  0.51100000000E-03 0.  1.
        -11    1    3    3    0    0  0.49564391928E+01  0.10137564752E+01 -0.15884119902E+01  0.53025507611E+01  0.51100000000E-03 0. -1.
         12    1    3    3    0    0 -0.66100462627E+01 -0.45358416149E+01 -0.21536651091E+01  0.83008941779E+01  0.00000000000E+00 0. -1.
</event>
<event>
 7    1  0.5764931E-013  0.5052886E+02  0.7816164E-02  0.1300439E+00
        -11   -1    0    0    0    0  0.00000000000E+00  0.00000000000E+00  0.45593999997E+02  0.45594000000E+02  0.51100000000E-03 0.  1.
         11   -1    0    0    0    0 -0.00000000000E+00 -0.00000000000E+00 -0.45593999997E+02  0.45594000000E+02  0.51100000000E-03 0. -1.
    9900012    2    1    2    0    0 -0.22573148529E+01 -0.27681915133E+02  0.29694814062E+02  0.50528857388E+02  0.29999992515E+02 0.  0.
         12    1    1    2    0    0  0.22573148529E+01  0.27681915133E+02 -0.29694814062E+02  0.40659142612E+02  0.00000000000E+00 0. -1.
         11    1    3    3    0    0 -0.76841778757E+00  0.89084385920E+00 -0.23294736256E+01  0.26096965937E+01  0.51100000000E-03 0. -1.
        -11    1    3    3    0    0 -0.30151525857E+01 -0.26062914222E+02  0.34997201590E+02  0.43739807524E+02  0.51100000000E-03 0.  1.
        -12    1    3    3    0    0  0.15262555204E+01 -0.25098447702E+01 -0.29729139022E+01  0.41793532698E+01  0.00000000000E+00 0.  1.
</event>
<event>
 7    1  0.5764931E-013  0.5052886E+02  0.7816164E-02  0.1300439E+00
        -11   -1    0    0    0    0  0.00000000000E+00  0.00000000000E+00  0.45593999997E+02  0.45594000000E+02  0.51100000000E-03 0.  1.
         11   -1    0    0    0    0 -0.00000000000E+00 -0.00000000000E+00 -0.45593999997E+02  0.45594000000E+02  0.51100000000E-03 0. -1.
    9900012    2    1    2    0    0  0.21420210322E+02 -0.21587475881E+02  0.26987432280E+02  0.50528855565E+02  0.29999986975E+02 0.  0.
         12    1    1    2    0    0 -0.21420210322E+02  0.21587475881E+02 -0.26987432280E+02  0.40659144435E+02  0.00000000000E+00 0. -1.
         11    1    3    3    0    0  0.48053025315E+01  0.27524952921E+01  0.18575761477E+01  0.58410403318E+01  0.51100000000E-03 0. -1.
        -11    1    3    3    0    0 -0.39305066719E+00 -0.13368676921E+02  0.13221200309E+01  0.13439643339E+02  0.51100000000E-03 0.  1.
        -12    1    3    3    0    0  0.17007958458E+02 -0.10971294252E+02  0.23807736101E+02  0.31248171894E+02  0.00000000000E+00 0.  1.
</event>
<event>
 7    1  0.5764931E-013  0.5052886E+02  0.7816164E-02  0.1300439E+00
        -11   -1    0    0    0    0  0.00000000000E+00  0.00000000000E+00  0.45593999997E+02  0.45594000000E+02  0.51100000000E-03 0. -1.
         11   -1    0    0    0    0 -0.00000000000E+00 -0.00000000000E+00 -0.45593999997E+02  0.45594000000E+02  0.51100000000E-03 0.  1.
    9900012    2    1    2    0    0 -0.22209026603E+02  0.20249746306E+02 -0.27383807151E+02  0.50528856106E+02  0.29999988619E+02 0.  0.
         12    1    1    2    0    0  0.22209026603E+02 -0.20249746306E+02  0.27383807151E+02  0.40659143894E+02  0.00000000000E+00 0. -1.
         11    1    3    3    0    0 -0.56356673943E+01 -0.16494003289E+01 -0.36101849977E+01  0.68930910630E+01  0.51100000000E-03 0. -1.
        -11    1    3    3    0    0 -0.16740468712E+02  0.25393906826E+02 -0.14442283455E+02  0.33670066057E+02  0.51100000000E-03 0.  1.
        -12    1    3    3    0    0  0.16710950329E+00 -0.34947601910E+01 -0.93313386982E+01  0.99656989860E+01  0.00000000000E+00 0.  1.
</event>
<event>
 7    1  0.5764931E-013  0.5052884E+02  0.7816164E-02  0.1300439E+00
        -11   -1    0    0    0    0  0.00000000000E+00  0.00000000000E+00  0.45593999997E+02  0.45594000000E+02  0.51100000000E-03 0.  1.
         11   -1    0    0    0    0 -0.00000000000E+00 -0.00000000000E+00 -0.45593999997E+02  0.45594000000E+02  0.51100000000E-03 0. -1.
    9900012    2    1    2    0    0  0.17768780750E+02  0.34433848347E+02  0.12318584173E+02  0.50528843622E+02  0.29999950673E+02 0.  0.
         12    1    1    2    0    0 -0.17768780750E+02 -0.34433848347E+02 -0.12318584173E+02  0.40659156378E+02  0.00000000000E+00 0. -1.
         11    1    3    3    0    0  0.69243977039E+01  0.20873034541E+02 -0.32367001211E+01  0.22228519574E+02  0.51100000000E-03 0. -1.
        -11    1    3    3    0    0  0.74208171401E+01  0.77590109328E+01  0.18144712771E+02  0.21083201357E+02  0.51100000000E-03 0.  1.
        -12    1    3    3    0    0  0.34235659059E+01  0.58018028734E+01 -0.25894284769E+01  0.72171226905E+01  0.00000000000E+00 0.  1.
</event>
<event>
 7    1  0.5764931E-013  0.5052886E+02  0.7816164E-02  0.1300439E+00
        -11   -1    0    0    0    0  0.00000000000E+00  0.00000000000E+00  0.45593999997E+02  0.45594000000E+02  0.51100000000E-03 0. -1.
         11   -1    0    0    0    0 -0.00000000000E+00 -0.00000000000E+00 -0.45593999997E+02  0.45594000000E+02  0.51100000000E-03 0.  1.
    9900012    2    1    2    0    0 -0.77847240448E+01 -0.37210051867E+02 -0.14421371855E+02  0.50528857675E+02  0.29999993390E+02 0.  0.
         12    1    1    2    0    0  0.77847240448E+01  0.37210051867E+02  0.14421371855E+02  0.40659142325E+02  0.00000000000E+00 0. -1.
         11    1    3    3    0    0 -0.37397640067E+01 -0.16562040264E+02 -0.16931886506E+02  0.23978652870E+02  0.51100000000E-03 0. -1.
        -11    1    3    3    0    0 -0.50919055103E+01 -0.75224686595E+01  0.81708079295E+01  0.12217902395E+02  0.51100000000E-03 0.  1.
        -12    1    3    3    0    0  0.10469454722E+01 -0.13125542943E+02 -0.56602932786E+01  0.14332302410E+02  0.00000000000E+00 0.  1.
</event>
<event>
 7    1  0.5764931E-013  0.5052886E+02  0.7816164E-02  0.1300439E+00
        -11   -1    0    0    0    0  0.00000000000E+00  0.00000000000E+00  0.45593999997E+02  0.45594000000E+02  0.51100000000E-03 0. -1.
         11   -1    0    0    0    0 -0.00000000000E+00 -0.00000000000E+00 -0.45593999997E+02  0.45594000000E+02  0.51100000000E-03 0.  1.
    9900012    2    1    2    0    0  0.72001431481E+01 -0.39296485022E+02 -0.75570971509E+01  0.50528861866E+02  0.30000006127E+02 0.  0.
         12    1    1    2    0    0 -0.72001431481E+01  0.39296485022E+02  0.75570971509E+01  0.40659138134E+02  0.00000000000E+00 0. -1.
         11    1    3    3    0    0 -0.98965504101E+01 -0.85303691030E+01  0.15386594581E+01  0.13155849659E+02  0.51100000000E-03 0. -1.
        -11    1    3    3    0    0  0.11563711731E+02 -0.23875385097E+02 -0.10292733927E+02  0.28455119302E+02  0.51100000000E-03 0.  1.
         12    1    3    3    0    0  0.55329818276E+01 -0.68907308226E+01  0.11969773181E+01  0.89178929055E+01  0.00000000000E+00 0. -1.
</event>
<event>
 7    1  0.5764931E-013  0.5052886E+02  0.7816164E-02  0.1300439E+00
        -11   -1    0    0    0    0  0.00000000000E+00  0.00000000000E+00  0.45593999997E+02  0.45594000000E+02  0.51100000000E-03 0. -1.
         11   -1    0    0    0    0 -0.00000000000E+00 -0.00000000000E+00 -0.45593999997E+02  0.45594000000E+02  0.51100000000E-03 0.  1.
    9900012    2    1    2    0    0 -0.41633067973E+01 -0.25261597699E+02 -0.31586143630E+02  0.50528856979E+02  0.29999991273E+02 0.  0.
         12    1    1    2    0    0  0.41633067973E+01  0.25261597699E+02  0.31586143630E+02  0.40659143021E+02  0.00000000000E+00 0. -1.
         11    1    3    3    0    0 -0.22959730198E+01 -0.11357284623E+02 -0.16327460762E+02  0.20021123378E+02  0.51100000000E-03 0.  1.
        -11    1    3    3    0    0  0.15112538482E+01  0.59598755549E+01 -0.48343910553E+01  0.78214667397E+01  0.51100000000E-03 0. -1.
        -12    1    3    3    0    0 -0.33785876256E+01 -0.19864188631E+02 -0.10424291813E+02  0.22686266861E+02  0.00000000000E+00 0.  1.
</event>
<event>
 7    1  0.5764931E-013  0.5052885E+02  0.7816164E-02  0.1300439E+00
        -11   -1    0    0    0    0  0.00000000000E+00  0.00000000000E+00  0.45593999997E+02  0.45594000000E+02  0.51100000000E-03 0.  1.
         11   -1    0    0    0    0 -0.00000000000E+00 -0.00000000000E+00 -0.45593999997E+02  0.45594000000E+02  0.51100000000E-03 0. -1.
    9900012    2    1    2    0    0  0.38984020802E+02  0.11391096020E+02  0.19120153992E+01  0.50528846672E+02  0.29999959945E+02 0.  0.
         12    1    1    2    0    0 -0.38984020802E+02 -0.11391096020E+02 -0.19120153992E+01  0.40659153328E+02  0.00000000000E+00 0. -1.
         11    1    3    3    0    0  0.17432214425E+02  0.14054381753E+02 -0.85038066432E+01  0.23952504543E+02  0.51100000000E-03 0. -1.
        -11    1    3    3    0    0  0.22032982186E+02 -0.12343563538E+01  0.11337100405E+02  0.24809389059E+02  0.51100000000E-03 0.  1.
        -12    1    3    3    0    0 -0.48117580895E+00 -0.14289293790E+01 -0.92127836285E+00  0.17669530699E+01  0.00000000000E+00 0.  1.
</event>
<event>
 7    1  0.5764931E-013  0.5052886E+02  0.7816164E-02  0.1300439E+00
        -11   -1    0    0    0    0  0.00000000000E+00  0.00000000000E+00  0.45593999997E+02  0.45594000000E+02  0.51100000000E-03 0. -1.
         11   -1    0    0    0    0 -0.00000000000E+00 -0.00000000000E+00 -0.45593999997E+02  0.45594000000E+02  0.51100000000E-03 0.  1.
    9900012    2    1    2    0    0  0.10554221532E+02  0.34465880335E+02 -0.18811620055E+02  0.50528861439E+02  0.30000004831E+02 0.  0.
         12    1    1    2    0    0 -0.10554221532E+02 -0.34465880335E+02  0.18811620055E+02  0.40659138561E+02  0.00000000000E+00 0. -1.
         11    1    3    3    0    0  0.12681345101E+02  0.23102251207E+02 -0.21067664695E+01  0.26438021666E+02  0.51100000000E-03 0.  1.
        -11    1    3    3    0    0  0.16989929533E+01  0.27252616115E+01 -0.13855389635E+02  0.14222708958E+02  0.51100000000E-03 0. -1.
        -12    1    3    3    0    0 -0.38261165221E+01  0.86383675163E+01 -0.28494639506E+01  0.98681308156E+01  0.00000000000E+00 0.  1.
</event>
<event>
 7    1  0.5764931E-013  0.5052886E+02  0.7816164E-02  0.1300439E+00
        -11   -1    0    0    0    0  0.00000000000E+00  0.00000000000E+00  0.45593999997E+02  0.45594000000E+02  0.51100000000E-03 0.  1.
         11   -1    0    0    0    0 -0.00000000000E+00 -0.00000000000E+00 -0.45593999997E+02  0.45594000000E+02  0.51100000000E-03 0. -1.
    9900012    2    1    2    0    0 -0.28519267534E+01  0.34795965281E+02  0.20839213000E+02  0.50528862227E+02  0.30000007224E+02 0.  0.
         12    1    1    2    0    0  0.28519267534E+01 -0.34795965281E+02 -0.20839213000E+02  0.40659137773E+02  0.00000000000E+00 0. -1.
         11    1    3    3    0    0  0.30061261641E+01  0.15414957918E+01  0.12940779261E+02  0.13374482119E+02  0.51100000000E-03 0. -1.
        -11    1    3    3    0    0  0.29377773208E+00  0.28165924085E+02  0.75564647642E+01  0.29163431638E+02  0.51100000000E-03 0.  1.
         12    1    3    3    0    0 -0.61518306496E+01  0.50885454040E+01  0.34196897414E+00  0.79909484699E+01  0.00000000000E+00 0. -1.
</event>
<event>
 7    1  0.5764931E-013  0.5052883E+02  0.7816164E-02  0.1300439E+00
        -11   -1    0    0    0    0  0.00000000000E+00  0.00000000000E+00  0.45593999997E+02  0.45594000000E+02  0.51100000000E-03 0.  1.
         11   -1    0    0    0    0 -0.00000000000E+00 -0.00000000000E+00 -0.45593999997E+02  0.45594000000E+02  0.51100000000E-03 0. -1.
    9900012    2    1    2    0    0 -0.87262324463E+01  0.24120477423E+02  0.31547165586E+02  0.50528828582E+02  0.29999904959E+02 0.  0.
         12    1    1    2    0    0  0.87262324463E+01 -0.24120477423E+02 -0.31547165586E+02  0.40659171418E+02  0.00000000000E+00 0. -1.
         11    1    3    3    0    0  0.65819710895E+01  0.12751359560E+02  0.37248460184E+01  0.14825450826E+02  0.51100000000E-03 0. -1.
        -11    1    3    3    0    0 -0.15371081543E+01  0.70696162993E+01  0.13818007898E+02  0.15597420255E+02  0.51100000000E-03 0.  1.
         12    1    3    3    0    0 -0.13771095381E+02  0.42995015638E+01  0.14004311670E+02  0.20105957501E+02  0.00000000000E+00 0. -1.
</event>
<event>
 7    1  0.5764931E-013  0.5052885E+02  0.7816164E-02  0.1300439E+00
        -11   -1    0    0    0    0  0.00000000000E+00  0.00000000000E+00  0.45593999997E+02  0.45594000000E+02  0.51100000000E-03 0. -1.
         11   -1    0    0    0    0 -0.00000000000E+00 -0.00000000000E+00 -0.45593999997E+02  0.45594000000E+02  0.51100000000E-03 0.  1.
    9900012    2    1    2    0    0  0.30464698850E+01 -0.38932147076E+02 -0.11321381307E+02  0.50528846917E+02  0.29999960690E+02 0.  0.
         12    1    1    2    0    0 -0.30464698850E+01  0.38932147076E+02  0.11321381307E+02  0.40659153083E+02  0.00000000000E+00 0. -1.
         11    1    3    3    0    0 -0.33497839139E+00 -0.53815227340E+01 -0.13207613655E+02  0.14265835278E+02  0.51100000000E-03 0. -1.
        -11    1    3    3    0    0  0.61324226182E+01 -0.92031605083E+01  0.37806092236E+01  0.11687505160E+02  0.51100000000E-03 0.  1.
         12    1    3    3    0    0 -0.27509743418E+01 -0.24347463834E+02 -0.18943768761E+01  0.24575506479E+02  0.00000000000E+00 0. -1.
</event>
<event>
 7    1  0.5764931E-013  0.5052886E+02  0.7816164E-02  0.1300439E+00
        -11   -1    0    0    0    0  0.00000000000E+00  0.00000000000E+00  0.45593999997E+02  0.45594000000E+02  0.51100000000E-03 0.  1.
         11   -1    0    0    0    0 -0.00000000000E+00 -0.00000000000E+00 -0.45593999997E+02  0.45594000000E+02  0.51100000000E-03 0. -1.
    9900012    2    1    2    0    0  0.16256194209E+02 -0.24842771030E+02  0.27780183455E+02  0.50528859387E+02  0.29999998592E+02 0.  0.
         12    1    1    2    0    0 -0.16256194209E+02  0.24842771030E+02 -0.27780183455E+02  0.40659140613E+02  0.00000000000E+00 0. -1.
         11    1    3    3    0    0 -0.69985268345E+01 -0.94570558305E+00  0.79018907018E+01  0.10597811747E+02  0.51100000000E-03 0. -1.
        -11    1    3    3    0    0  0.21653372869E+01 -0.57698714565E+01  0.81816822934E+00  0.62168723409E+01  0.51100000000E-03 0.  1.
         12    1    3    3    0    0  0.21089383757E+02 -0.18127193990E+02  0.19060124524E+02  0.33714175299E+02  0.00000000000E+00 0. -1.
</event>
<event>
 7    1  0.5764931E-013  0.5052886E+02  0.7816164E-02  0.1300439E+00
        -11   -1    0    0    0    0  0.00000000000E+00  0.00000000000E+00  0.45593999997E+02  0.45594000000E+02  0.51100000000E-03 0.  1.
         11   -1    0    0    0    0 -0.00000000000E+00 -0.00000000000E+00 -0.45593999997E+02  0.45594000000E+02  0.51100000000E-03 0. -1.
    9900012    2    1    2    0    0  0.27722640994E+02  0.24233907679E+02  0.17243519487E+02  0.50528855034E+02  0.29999985360E+02 0.  0.
         12    1    1    2    0    0 -0.27722640994E+02 -0.24233907679E+02 -0.17243519487E+02  0.40659144966E+02  0.00000000000E+00 0. -1.
         11    1    3    3    0    0  0.99803996907E+00  0.32309847038E+01  0.13117773936E+02  0.13546635717E+02  0.51100000000E-03 0.  1.
        -11    1    3    3    0    0  0.90433569706E+01  0.34563123021E+01 -0.44260577275E+01  0.10645110957E+02  0.51100000000E-03 0. -1.
         12    1    3    3    0    0  0.17681244055E+02  0.17546610673E+02  0.85518032782E+01  0.26337108360E+02  0.00000000000E+00 0. -1.
</event>
<event>
 7    1  0.5764931E-013  0.5052886E+02  0.7816164E-02  0.1300439E+00
        -11   -1    0    0    0    0  0.00000000000E+00  0.00000000000E+00  0.45593999997E+02  0.45594000000E+02  0.51100000000E-03 0.  1.
         11   -1    0    0    0    0 -0.00000000000E+00 -0.00000000000E+00 -0.45593999997E+02  0.45594000000E+02  0.51100000000E-03 0. -1.
    9900012    2    1    2    0    0  0.45280354879E+01  0.36442126681E+02  0.17453764014E+02  0.50528861044E+02  0.30000003628E+02 0.  0.
         12    1    1    2    0    0 -0.45280354879E+01 -0.36442126681E+02 -0.17453764014E+02  0.40659138956E+02  0.00000000000E+00 0. -1.
         11    1    3    3    0    0 -0.29455924322E+01  0.20683964443E+02 -0.15561989828E+01  0.20950528762E+02  0.51100000000E-03 0. -1.
        -11    1    3    3    0    0  0.56437491782E+01  0.10070792482E+01  0.11666881665E+02  0.12999316961E+02  0.51100000000E-03 0.  1.
         12    1    3    3    0    0  0.18298787419E+01  0.14751082990E+02  0.73430813319E+01  0.16579015321E+02  0.00000000000E+00 0. -1.
</event>
<event>
 7    1  0.5764931E-013  0.5052886E+02  0.7816164E-02  0.1300439E+00
        -11   -1    0    0    0    0  0.00000000000E+00  0.00000000000E+00  0.45593999997E+02  0.45594000000E+02  0.51100000000E-03 0.  1.
         11   -1    0    0    0    0 -0.00000000000E+00 -0.00000000000E+00 -0.45593999997E+02  0.45594000000E+02  0.51100000000E-03 0. -1.
    9900012    2    1    2    0    0  0.37767375241E+02 -0.48077359657E+01  0.14271544602E+02  0.50528856587E+02  0.29999990082E+02 0.  0.
         12    1    1    2    0    0 -0.37767375241E+02  0.48077359657E+01 -0.14271544602E+02  0.40659143413E+02  0.00000000000E+00 0. -1.
         11    1    3    3    0    0  0.24797273877E+02 -0.29431690664E+01  0.43871999236E+01  0.25353787869E+02  0.51100000000E-03 0. -1.
        -11    1    3    3    0    0 -0.46816858675E+01 -0.27275848944E+01  0.15503876007E+01  0.56357434196E+01  0.51100000000E-03 0.  1.
        -12    1    3    3    0    0  0.17651787232E+02  0.86301799518E+00  0.83339570778E+01  0.19539325299E+02  0.00000000000E+00 0.  1.
</event>
<event>
 7    1  0.5764931E-013  0.5052886E+02  0.7816164E-02  0.1300439E+00
        -11   -1    0    0    0    0  0.00000000000E+00  0.00000000000E+00  0.45593999997E+02  0.45594000000E+02  0.51100000000E-03 0. -1.
         11   -1    0    0    0    0 -0.00000000000E+00 -0.00000000000E+00 -0.45593999997E+02  0.45594000000E+02  0.51100000000E-03 0.  1.
    9900012    2    1    2    0    0  0.68464692709E+01 -0.19504077112E+02  0.35012608716E+02  0.50528856692E+02  0.29999990401E+02 0.  0.
         12    1    1    2    0    0 -0.68464692709E+01  0.19504077112E+02 -0.35012608716E+02  0.40659143308E+02  0.00000000000E+00 0. -1.
         11    1    3    3    0    0  0.35498561691E+01 -0.67397096301E+01  0.28080416479E+02  0.29095273750E+02  0.51100000000E-03 0. -1.
        -11    1    3    3    0    0 -0.61635372965E+01 -0.37548829912E+01  0.25375951898E+01  0.76503416846E+01  0.51100000000E-03 0.  1.
         12    1    3    3    0    0  0.94601503983E+01 -0.90094844906E+01  0.43945970471E+01  0.13783241257E+02  0.00000000000E+00 0. -1.
</event>
<event>
 7    1  0.5764931E-013  0.5052886E+02  0.7816164E-02  0.1300439E+00
        -11   -1    0    0    0    0  0.00000000000E+00  0.00000000000E+00  0.45593999997E+02  0.45594000000E+02  0.51100000000E-03 0.  1.
         11   -1    0    0    0    0 -0.00000000000E+00 -0.00000000000E+00 -0.45593999997E+02  0.45594000000E+02  0.51100000000E-03 0. -1.
    9900012    2    1    2    0    0  0.43778986532E-02 -0.14947629849E+02  0.37811823829E+02  0.50528859840E+02  0.29999999970E+02 0.  0.
         12    1    1    2    0    0 -0.43778986532E-02  0.14947629849E+02 -0.37811823829E+02  0.40659140160E+02  0.00000000000E+00 0. -1.
         11    1    3    3    0    0 -0.17610368791E+01  0.14767484795E+01 -0.87797419251E+00  0.24602593167E+01  0.51100000000E-03 0. -1.
        -11    1    3    3    0    0  0.11638036744E+02 -0.80990360948E+01  0.27671681414E+02  0.31092768250E+02  0.51100000000E-03 0.  1.
        -12    1    3    3    0    0 -0.98726219664E+01 -0.83253422338E+01  0.11018116607E+02  0.16975832273E+02  0.00000000000E+00 0.  1.
</event>
<event>
 7    1  0.5764931E-013  0.5052884E+02  0.7816164E-02  0.1300439E+00
        -11   -1    0    0    0    0  0.00000000000E+00  0.00000000000E+00  0.45593999997E+02  0.45594000000E+02  0.51100000000E-03 0.  1.
         11   -1    0    0    0    0 -0.00000000000E+00 -0.00000000000E+00 -0.45593999997E+02  0.45594000000E+02  0.51100000000E-03 0. -1.
    9900012    2    1    2    0    0  0.34185455106E+02 -0.42107215394E+01  0.21605357495E+02  0.50528843723E+02  0.29999950980E+02 0.  0.
         12    1    1    2    0    0 -0.34185455106E+02  0.42107215394E+01 -0.21605357495E+02  0.40659156277E+02  0.00000000000E+00 0. -1.
         11    1    3    3    0    0  0.33165240494E+02 -0.27160264226E+01  0.17432362149E+02  0.37565905112E+02  0.51100000000E-03 0.  1.
        -11    1    3    3    0    0 -0.36712461158E+00  0.26384722221E+01  0.71856330617E+01  0.76635265320E+01  0.51100000000E-03 0. -1.
        -12    1    3    3    0    0  0.13873392237E+01 -0.41331673389E+01 -0.30126377155E+01  0.52994120785E+01  0.00000000000E+00 0.  1.
</event>
<event>
 7    1  0.5764931E-013  0.5052887E+02  0.7816164E-02  0.1300439E+00
        -11   -1    0    0    0    0  0.00000000000E+00  0.00000000000E+00  0.45593999997E+02  0.45594000000E+02  0.51100000000E-03 0.  1.
         11   -1    0    0    0    0 -0.00000000000E+00 -0.00000000000E+00 -0.45593999997E+02  0.45594000000E+02  0.51100000000E-03 0. -1.
    9900012    2    1    2    0    0 -0.30348513577E+02 -0.11090379701E+02  0.24680683765E+02  0.50528868808E+02  0.30000027227E+02 0.  0.
         12    1    1    2    0    0  0.30348513577E+02  0.11090379701E+02 -0.24680683765E+02  0.40659131192E+02  0.00000000000E+00 0. -1.
         11    1    3    3    0    0 -0.64694682204E+01  0.36826885765E+01  0.12283228731E+01  0.75448652439E+01  0.51100000000E-03 0. -1.
        -11    1    3    3    0    0  0.31229909383E+01 -0.66966577161E+01  0.22782458837E+01  0.77323154058E+01  0.51100000000E-03 0.  1.
        -12    1    3    3    0    0 -0.27002036295E+02 -0.80764105610E+01  0.21174115008E+02  0.35251688158E+02  0.00000000000E+00 0.  1.
</event>
<event>
 7    1  0.5764931E-013  0.5052885E+02  0.7816164E-02  0.1300439E+00
        -11   -1    0    0    0    0  0.00000000000E+00  0.00000000000E+00  0.45593999997E+02  0.45594000000E+02  0.51100000000E-03 0.  1.
         11   -1    0    0    0    0 -0.00000000000E+00 -0.00000000000E+00 -0.45593999997E+02  0.45594000000E+02  0.51100000000E-03 0. -1.
    9900012    2    1    2    0    0  0.94638163192E+01  0.24189377625E+02  0.31280608983E+02  0.50528852105E+02  0.29999976458E+02 0.  0.
         12    1    1    2    0    0 -0.94638163192E+01 -0.24189377625E+02 -0.31280608983E+02  0.40659147895E+02  0.00000000000E+00 0. -1.
         11    1    3    3    0    0  0.10044959045E+02  0.10572358452E+02  0.37912138491E+01  0.15068154106E+02  0.51100000000E-03 0. -1.
        -11    1    3    3    0    0 -0.43162372507E+01  0.14257696231E+02  0.27921165777E+02  0.31646537005E+02  0.51100000000E-03 0.  1.
        -12    1    3    3    0    0  0.37350945245E+01 -0.64067705757E+00 -0.43177064262E+00  0.38141609938E+01  0.00000000000E+00 0.  1.
</event>
<event>
 7    1  0.5764931E-013  0.5052887E+02  0.7816164E-02  0.1300439E+00
        -11   -1    0    0    0    0  0.00000000000E+00  0.00000000000E+00  0.45593999997E+02  0.45594000000E+02  0.51100000000E-03 0.  1.
         11   -1    0    0    0    0 -0.00000000000E+00 -0.00000000000E+00 -0.45593999997E+02  0.45594000000E+02  0.51100000000E-03 0. -1.
    9900012    2    1    2    0    0 -0.34099293336E+02  0.10394064188E+02  0.19554187510E+02  0.50528872789E+02  0.30000039330E+02 0.  0.
         12    1    1    2    0    0  0.34099293336E+02 -0.10394064188E+02 -0.19554187510E+02  0.40659127211E+02  0.00000000000E+00 0. -1.
         11    1    3    3    0    0  0.22505906857E+01  0.89720920068E+01  0.30804710309E+01  0.97495074464E+01  0.51100000000E-03 0. -1.
        -11    1    3    3    0    0 -0.12276359018E+02  0.44105602017E+01  0.56290702518E+01  0.14207338392E+02  0.51100000000E-03 0.  1.
         12    1    3    3    0    0 -0.24073525003E+02 -0.29885880208E+01  0.10844646228E+02  0.26572026950E+02  0.00000000000E+00 0. -1.
</event>
<event>
 7    1  0.5764931E-013  0.5052888E+02  0.7816164E-02  0.1300439E+00
        -11   -1    0    0    0    0  0.00000000000E+00  0.00000000000E+00  0.45593999997E+02  0.45594000000E+02  0.51100000000E-03 0. -1.
         11   -1    0    0    0    0 -0.00000000000E+00 -0.00000000000E+00 -0.45593999997E+02  0.45594000000E+02  0.51100000000E-03 0.  1.
    9900012    2    1    2    0    0  0.24092422584E+02  0.32728874549E+02 -0.12408758964E+01  0.50528882595E+02  0.30000069134E+02 0.  0.
         12    1    1    2    0    0 -0.24092422584E+02 -0.32728874549E+02  0.12408758964E+01  0.40659117405E+02  0.00000000000E+00 0. -1.
         11    1    3    3    0    0  0.24753302853E+02  0.13865777686E+02  0.72073925945E+01  0.29273406041E+02  0.51100000000E-03 0. -1.
        -11    1    3    3    0    0 -0.92137013412E+00  0.13242653077E+01  0.32087337114E+00  0.16448591157E+01  0.51100000000E-03 0.  1.
         12    1    3    3    0    0  0.26048986465E+00  0.17538831555E+02 -0.87691418620E+01  0.19610617438E+02  0.00000000000E+00 0. -1.
</event>
<event>
 7    1  0.5764931E-013  0.5052890E+02  0.7816164E-02  0.1300439E+00
        -11   -1    0    0    0    0  0.00000000000E+00  0.00000000000E+00  0.45593999997E+02  0.45594000000E+02  0.51100000000E-03 0. -1.
         11   -1    0    0    0    0 -0.00000000000E+00 -0.00000000000E+00 -0.45593999997E+02  0.45594000000E+02  0.51100000000E-03 0.  1.
    9900012    2    1    2    0    0 -0.11488172401E+02  0.37931028204E+02 -0.90786075642E+01  0.50528903588E+02  0.30000132945E+02 0.  0.
         12    1    1    2    0    0  0.11488172401E+02 -0.37931028204E+02  0.90786075642E+01  0.40659096412E+02  0.00000000000E+00 0. -1.
         11    1    3    3    0    0 -0.59877755325E+01 -0.31335935514E+01  0.13971510908E+01  0.69010793217E+01  0.51100000000E-03 0. -1.
        -11    1    3    3    0    0  0.18629871246E+01  0.66868449199E+01 -0.35424710193E+01  0.77931840215E+01  0.51100000000E-03 0.  1.
         12    1    3    3    0    0 -0.73633839929E+01  0.34377776836E+02 -0.69332876357E+01  0.35834640244E+02  0.00000000000E+00 0. -1.
</event>
<event>
 7    1  0.5764931E-013  0.5052885E+02  0.7816164E-02  0.1300439E+00
        -11   -1    0    0    0    0  0.00000000000E+00  0.00000000000E+00  0.45593999997E+02  0.45594000000E+02  0.51100000000E-03 0.  1.
         11   -1    0    0    0    0 -0.00000000000E+00 -0.00000000000E+00 -0.45593999997E+02  0.45594000000E+02  0.51100000000E-03 0. -1.
    9900012    2    1    2    0    0 -0.29564630275E+02 -0.27869278625E+02  0.15498582591E+01  0.50528854473E+02  0.29999983655E+02 0.  0.
         12    1    1    2    0    0  0.29564630275E+02  0.27869278625E+02 -0.15498582591E+01  0.40659145527E+02  0.00000000000E+00 0. -1.
         11    1    3    3    0    0 -0.10912697980E+02  0.10438275498E+01 -0.61729972323E+01  0.12581035261E+02  0.51100000000E-03 0. -1.
        -11    1    3    3    0    0 -0.11799836982E+01 -0.11390745476E+02  0.65113842862E+01  0.13173441829E+02  0.51100000000E-03 0.  1.
         12    1    3    3    0    0 -0.17471948597E+02 -0.17522360698E+02  0.12114712052E+01  0.24774377383E+02  0.00000000000E+00 0. -1.
</event>
<event>
 7    1  0.5764931E-013  0.5052886E+02  0.7816164E-02  0.1300439E+00
        -11   -1    0    0    0    0  0.00000000000E+00  0.00000000000E+00  0.45593999997E+02  0.45594000000E+02  0.51100000000E-03 0. -1.
         11   -1    0    0    0    0 -0.00000000000E+00 -0.00000000000E+00 -0.45593999997E+02  0.45594000000E+02  0.51100000000E-03 0.  1.
    9900012    2    1    2    0    0 -0.13319238276E+01  0.38024480805E+02 -0.14336339355E+02  0.50528858499E+02  0.29999995892E+02 0.  0.
         12    1    1    2    0    0  0.13319238276E+01 -0.38024480805E+02  0.14336339355E+02  0.40659141501E+02  0.00000000000E+00 0. -1.
         11    1    3    3    0    0 -0.92874636603E+01  0.64540814990E+01 -0.59509218642E+01  0.12779891257E+02  0.51100000000E-03 0. -1.
        -11    1    3    3    0    0  0.10634714026E+02  0.31909181279E+02 -0.93017749470E+01  0.34897220659E+02  0.51100000000E-03 0.  1.
        -12    1    3    3    0    0 -0.26791741930E+01 -0.33878197377E+00  0.91635745665E+00  0.28517465824E+01  0.00000000000E+00 0.  1.
</event>
<event>
 7    1  0.5764931E-013  0.5052886E+02  0.7816164E-02  0.1300439E+00
        -11   -1    0    0    0    0  0.00000000000E+00  0.00000000000E+00  0.45593999997E+02  0.45594000000E+02  0.51100000000E-03 0.  1.
         11   -1    0    0    0    0 -0.00000000000E+00 -0.00000000000E+00 -0.45593999997E+02  0.45594000000E+02  0.51100000000E-03 0. -1.
    9900012    2    1    2    0    0 -0.24074604918E+02 -0.20316449545E+01  0.32702469725E+02  0.50528859462E+02  0.29999998822E+02 0.  0.
         12    1    1    2    0    0  0.24074604918E+02  0.20316449545E+01 -0.32702469725E+02  0.40659140538E+02  0.00000000000E+00 0. -1.
         11    1    3    3    0    0  0.40111367396E+01 -0.70187338084E+01  0.78452710383E+01  0.11264995346E+02  0.51100000000E-03 0. -1.
        -11    1    3    3    0    0 -0.16541565101E+02  0.69841828564E+01  0.19083724678E+02  0.26202876446E+02  0.51100000000E-03 0.  1.
         12    1    3    3    0    0 -0.11544176556E+02 -0.19970940025E+01  0.57734740083E+01  0.13060987671E+02  0.00000000000E+00 0. -1.
</event>
<event>
 7    1  0.5764931E-013  0.5052886E+02  0.7816164E-02  0.1300439E+00
        -11   -1    0    0    0    0  0.00000000000E+00  0.00000000000E+00  0.45593999997E+02  0.45594000000E+02  0.51100000000E-03 0.  1.
         11   -1    0    0    0    0 -0.00000000000E+00 -0.00000000000E+00 -0.45593999997E+02  0.45594000000E+02  0.51100000000E-03 0. -1.
    9900012    2    1    2    0    0  0.33416536025E+01  0.21807235442E+02  0.34153240808E+02  0.50528855591E+02  0.29999987053E+02 0.  0.
         12    1    1    2    0    0 -0.33416536025E+01 -0.21807235442E+02 -0.34153240808E+02  0.40659144409E+02  0.00000000000E+00 0. -1.
         11    1    3    3    0    0 -0.66117193425E+01  0.56248899014E+01  0.26237952544E+01  0.90685456863E+01  0.51100000000E-03 0. -1.
        -11    1    3    3    0    0  0.14191735021E+02  0.16898398822E+02  0.29106560689E+02  0.36526060574E+02  0.51100000000E-03 0.  1.
        -12    1    3    3    0    0 -0.42383620756E+01 -0.71605328199E+00  0.24228848644E+01  0.49342493302E+01  0.00000000000E+00 0.  1.
</event>
<event>
 7    1  0.5764931E-013  0.5052885E+02  0.7816164E-02  0.1300439E+00
        -11   -1    0    0    0    0  0.00000000000E+00  0.00000000000E+00  0.45593999997E+02  0.45594000000E+02  0.51100000000E-03 0. -1.
         11   -1    0    0    0    0 -0.00000000000E+00 -0.00000000000E+00 -0.45593999997E+02  0.45594000000E+02  0.51100000000E-03 0.  1.
    9900012    2    1    2    0    0 -0.39079013472E+02 -0.11098563755E+02 -0.16789726625E+01  0.50528851453E+02  0.29999974477E+02 0.  0.
         12    1    1    2    0    0  0.39079013472E+02  0.11098563755E+02  0.16789726625E+01  0.40659148547E+02  0.00000000000E+00 0. -1.
         11    1    3    3    0    0 -0.61706479590E+01 -0.68999241434E+01 -0.76108201451E+01  0.11983757047E+02  0.51100000000E-03 0. -1.
        -11    1    3    3    0    0 -0.72005917446E+01 -0.58078066313E+01  0.86233234476E+01  0.12646772192E+02  0.51100000000E-03 0.  1.
         12    1    3    3    0    0 -0.25707773768E+02  0.16091670197E+01 -0.26914759650E+01  0.25898322214E+02  0.00000000000E+00 0. -1.
</event>
<event>
 7    1  0.5764931E-013  0.5052887E+02  0.7816164E-02  0.1300439E+00
        -11   -1    0    0    0    0  0.00000000000E+00  0.00000000000E+00  0.45593999997E+02  0.45594000000E+02  0.51100000000E-03 0.  1.
         11   -1    0    0    0    0 -0.00000000000E+00 -0.00000000000E+00 -0.45593999997E+02  0.45594000000E+02  0.51100000000E-03 0. -1.
    9900012    2    1    2    0    0  0.45619069719E+01 -0.41637730016E+01  0.40187274995E+02  0.50528867295E+02  0.30000022630E+02 0.  0.
         12    1    1    2    0    0 -0.45619069719E+01  0.41637730016E+01 -0.40187274995E+02  0.40659132705E+02  0.00000000000E+00 0. -1.
         11    1    3    3    0    0  0.11350668556E+01  0.85423769868E+01  0.29529166572E+01  0.91093522491E+01  0.51100000000E-03 0. -1.
        -11    1    3    3    0    0  0.12478462883E+01 -0.14864189036E+02  0.28590807444E+02  0.32248031050E+02  0.51100000000E-03 0.  1.
         12    1    3    3    0    0  0.21789938281E+01  0.21580390476E+01  0.86435508937E+01  0.91714839959E+01  0.00000000000E+00 0. -1.
</event>
<event>
 7    1  0.5764931E-013  0.5052887E+02  0.7816164E-02  0.1300439E+00
        -11   -1    0    0    0    0  0.00000000000E+00  0.00000000000E+00  0.45593999997E+02  0.45594000000E+02  0.51100000000E-03 0.  1.
         11   -1    0    0    0    0 -0.00000000000E+00 -0.00000000000E+00 -0.45593999997E+02  0.45594000000E+02  0.51100000000E-03 0. -1.
    9900012    2    1    2    0    0  0.33277778520E+02  0.10207689919E+02 -0.21013268127E+02  0.50528869241E+02  0.30000028544E+02 0.  0.
         12    1    1    2    0    0 -0.33277778520E+02 -0.10207689919E+02  0.21013268127E+02  0.40659130759E+02  0.00000000000E+00 0. -1.
         11    1    3    3    0    0  0.30586196983E+02  0.12871878749E+02 -0.17156472147E+02  0.37356997272E+02  0.51100000000E-03 0. -1.
        -11    1    3    3    0    0  0.54856284859E+00 -0.38921406097E+01 -0.76758639862E+01  0.86237212339E+01  0.51100000000E-03 0.  1.
        -12    1    3    3    0    0  0.21430186885E+01  0.12279517801E+01  0.38190680058E+01  0.45481507348E+01  0.00000000000E+00 0.  1.
</event>
<event>
 7    1  0.5764931E-013  0.5052884E+02  0.7816164E-02  0.1300439E+00
        -11   -1    0    0    0    0  0.00000000000E+00  0.00000000000E+00  0.45593999997E+02  0.45594000000E+02  0.51100000000E-03 0.  1.
         11   -1    0    0    0    0 -0.00000000000E+00 -0.00000000000E+00 -0.45593999997E+02  0.45594000000E+02  0.51100000000E-03 0. -1.
    9900012    2    1    2    0    0 -0.36990489983E+02  0.12084110384E+02  0.11783274656E+02  0.50528835786E+02  0.29999926856E+02 0.  0.
         12    1    1    2    0    0  0.36990489983E+02 -0.12084110384E+02 -0.11783274656E+02  0.40659164214E+02  0.00000000000E+00 0. -1.
         11    1    3    3    0    0  0.13443854117E+01  0.60933695770E+01 -0.46374003071E+01  0.77744457555E+01  0.51100000000E-03 0. -1.
        -11    1    3    3    0    0 -0.10601281600E+02  0.15289066353E+01  0.11253802026E+01  0.10769921445E+02  0.51100000000E-03 0.  1.
         12    1    3    3    0    0 -0.27733593795E+02  0.44618341716E+01  0.15295294761E+02  0.31984468586E+02  0.00000000000E+00 0. -1.
</event>
<event>
 7    1  0.5764931E-013  0.5052886E+02  0.7816164E-02  0.1300439E+00
        -11   -1    0    0    0    0  0.00000000000E+00  0.00000000000E+00  0.45593999997E+02  0.45594000000E+02  0.51100000000E-03 0. -1.
         11   -1    0    0    0    0 -0.00000000000E+00 -0.00000000000E+00 -0.45593999997E+02  0.45594000000E+02  0.51100000000E-03 0.  1.
    9900012    2    1    2    0    0 -0.29758350447E+00 -0.18567340978E+02 -0.36170858754E+02  0.50528859208E+02  0.29999998050E+02 0.  0.
         12    1    1    2    0    0  0.29758350447E+00  0.18567340978E+02  0.36170858754E+02  0.40659140792E+02  0.00000000000E+00 0. -1.
         11    1    3    3    0    0 -0.65658273834E+01 -0.13178058208E+02 -0.42441107335E+01  0.15322655891E+02  0.51100000000E-03 0. -1.
        -11    1    3    3    0    0 -0.26976522848E+01  0.18648011833E+01 -0.62439284126E+01  0.70527621246E+01  0.51100000000E-03 0.  1.
         12    1    3    3    0    0  0.89658961637E+01 -0.72540839530E+01 -0.25682819607E+02  0.28153441193E+02  0.00000000000E+00 0. -1.
</event>
<event>
 7    1  0.5764931E-013  0.5052885E+02  0.7816164E-02  0.1300439E+00
        -11   -1    0    0    0    0  0.00000000000E+00  0.00000000000E+00  0.45593999997E+02  0.45594000000E+02  0.51100000000E-03 0.  1.
         11   -1    0    0    0    0 -0.00000000000E+00 -0.00000000000E+00 -0.45593999997E+02  0.45594000000E+02  0.51100000000E-03 0. -1.
    9900012    2    1    2    0    0  0.99495341246E+01 -0.39421607142E+02 -0.33137420327E+00  0.50528854069E+02  0.29999982429E+02 0.  0.
         12    1    1    2    0    0 -0.99495341246E+01  0.39421607142E+02  0.33137420327E+00  0.40659145931E+02  0.00000000000E+00 0. -1.
         11    1    3    3    0    0 -0.15500094368E+01 -0.30129370779E+01 -0.79477923016E+01  0.86398913084E+01  0.51100000000E-03 0. -1.
        -11    1    3    3    0    0  0.18679506709E+01 -0.23570481094E+02  0.99837980914E+01  0.25665795201E+02  0.51100000000E-03 0.  1.
        -12    1    3    3    0    0  0.96315928905E+01 -0.12838188970E+02 -0.23673799931E+01  0.16223167560E+02  0.00000000000E+00 0.  1.
</event>
<event>
 7    1  0.5764931E-013  0.5052886E+02  0.7816164E-02  0.1300439E+00
        -11   -1    0    0    0    0  0.00000000000E+00  0.00000000000E+00  0.45593999997E+02  0.45594000000E+02  0.51100000000E-03 0. -1.
         11   -1    0    0    0    0 -0.00000000000E+00 -0.00000000000E+00 -0.45593999997E+02  0.45594000000E+02  0.51100000000E-03 0.  1.
    9900012    2    1    2    0    0 -0.25983747860E+02 -0.10838930851E+02 -0.29334765275E+02  0.50528855535E+02  0.29999986885E+02 0.  0.
         12    1    1    2    0    0  0.25983747860E+02  0.10838930851E+02  0.29334765275E+02  0.40659144465E+02  0.00000000000E+00 0. -1.
         11    1    3    3    0    0 -0.27533110049E+02 -0.12928702613E+02 -0.26330077607E+02  0.40230541722E+02  0.51100000000E-03 0.  1.
        -11    1    3    3    0    0  0.23176357231E+01 -0.34992273671E+01 -0.10358942256E+01  0.43230897075E+01  0.51100000000E-03 0. -1.
         12    1    3    3    0    0 -0.76827353494E+00  0.55889991295E+01 -0.19687934426E+01  0.59752241057E+01  0.00000000000E+00 0. -1.
</event>
<event>
 7    1  0.5764931E-013  0.5052889E+02  0.7816164E-02  0.1300439E+00
        -11   -1    0    0    0    0  0.00000000000E+00  0.00000000000E+00  0.45593999997E+02  0.45594000000E+02  0.51100000000E-03 0. -1.
         11   -1    0    0    0    0 -0.00000000000E+00 -0.00000000000E+00 -0.45593999997E+02  0.45594000000E+02  0.51100000000E-03 0.  1.
    9900012    2    1    2    0    0  0.29961823252E+02 -0.30575961285E+01 -0.27314890093E+02  0.50528893179E+02  0.30000101307E+02 0.  0.
         12    1    1    2    0    0 -0.29961823252E+02  0.30575961285E+01  0.27314890093E+02  0.40659106821E+02  0.00000000000E+00 0. -1.
         11    1    3    3    0    0  0.12967646443E+02  0.98957199532E+01 -0.13704853877E+01  0.16369586376E+02  0.51100000000E-03 0. -1.
        -11    1    3    3    0    0  0.89586902205E+01 -0.36631716644E+01 -0.88893645988E+01  0.13141451988E+02  0.51100000000E-03 0.  1.
         12    1    3    3    0    0  0.80354865880E+01 -0.92901444173E+01 -0.17055040107E+02  0.21017854815E+02  0.00000000000E+00 0. -1.
</event>
<event>
 7    1  0.5764931E-013  0.5052886E+02  0.7816164E-02  0.1300439E+00
        -11   -1    0    0    0    0  0.00000000000E+00  0.00000000000E+00  0.45593999997E+02  0.45594000000E+02  0.51100000000E-03 0.  1.
         11   -1    0    0    0    0 -0.00000000000E+00 -0.00000000000E+00 -0.45593999997E+02  0.45594000000E+02  0.51100000000E-03 0. -1.
    9900012    2    1    2    0    0 -0.60694632692E+01 -0.13202727612E+02  0.37973873094E+02  0.50528862792E+02  0.30000008942E+02 0.  0.
         12    1    1    2    0    0  0.60694632692E+01  0.13202727612E+02 -0.37973873094E+02  0.40659137208E+02  0.00000000000E+00 0. -1.
         11    1    3    3    0    0 -0.13003850869E+02  0.27790920432E+01  0.14646419440E+02  0.19782342952E+02  0.51100000000E-03 0. -1.
        -11    1    3    3    0    0  0.67728627627E+00 -0.92590487516E+01  0.57662656217E+01  0.10928793161E+02  0.51100000000E-03 0.  1.
         12    1    3    3    0    0  0.62571013234E+01 -0.67227709035E+01  0.17561188032E+02  0.19817726678E+02  0.00000000000E+00 0. -1.
</event>
<event>
 7    1  0.5764931E-013  0.5052885E+02  0.7816164E-02  0.1300439E+00
        -11   -1    0    0    0    0  0.00000000000E+00  0.00000000000E+00  0.45593999997E+02  0.45594000000E+02  0.51100000000E-03 0.  1.
         11   -1    0    0    0    0 -0.00000000000E+00 -0.00000000000E+00 -0.45593999997E+02  0.45594000000E+02  0.51100000000E-03 0. -1.
    9900012    2    1    2    0    0  0.26918464234E+02 -0.30443637997E+02  0.13220374933E+01  0.50528848578E+02  0.29999965738E+02 0.  0.
         12    1    1    2    0    0 -0.26918464234E+02  0.30443637997E+02 -0.13220374933E+01  0.40659151422E+02  0.00000000000E+00 0. -1.
         11    1    3    3    0    0  0.15850538142E+01  0.15042470382E+01  0.67865546855E+01  0.71296900007E+01  0.51100000000E-03 0. -1.
        -11    1    3    3    0    0  0.22883023931E+02 -0.28423339455E+02 -0.50703719992E-01  0.36490020295E+02  0.51100000000E-03 0.  1.
         12    1    3    3    0    0  0.24503864885E+01 -0.35245455802E+01 -0.54138134722E+01  0.69091382821E+01  0.00000000000E+00 0. -1.
</event>
<event>
 7    1  0.5764931E-013  0.5052893E+02  0.7816164E-02  0.1300439E+00
        -11   -1    0    0    0    0  0.00000000000E+00  0.00000000000E+00  0.45593999997E+02  0.45594000000E+02  0.51100000000E-03 0.  1.
         11   -1    0    0    0    0 -0.00000000000E+00 -0.00000000000E+00 -0.45593999997E+02  0.45594000000E+02  0.51100000000E-03 0. -1.
    9900012    2    1    2    0    0  0.14683342713E+02 -0.30499678784E+02 -0.22523970462E+02  0.50528927157E+02  0.30000204584E+02 0.  0.
         12    1    1    2    0    0 -0.14683342713E+02  0.30499678784E+02  0.22523970462E+02  0.40659072843E+02  0.00000000000E+00 0. -1.
         11    1    3    3    0    0 -0.65738361798E+01 -0.35979837936E+01 -0.93916627631E+00  0.75526712528E+01  0.51100000000E-03 0. -1.
        -11    1    3    3    0    0  0.10965192729E+02 -0.87893988924E+01 -0.16226514080E+02  0.21465990402E+02  0.51100000000E-03 0.  1.
         12    1    3    3    0    0  0.10291986164E+02 -0.18112296098E+02 -0.53582901055E+01  0.21510265502E+02  0.00000000000E+00 0. -1.
</event>
<event>
 7    1  0.5764931E-013  0.5052885E+02  0.7816164E-02  0.1300439E+00
        -11   -1    0    0    0    0  0.00000000000E+00  0.00000000000E+00  0.45593999997E+02  0.45594000000E+02  0.51100000000E-03 0.  1.
         11   -1    0    0    0    0 -0.00000000000E+00 -0.00000000000E+00 -0.45593999997E+02  0.45594000000E+02  0.51100000000E-03 0. -1.
    9900012    2    1    2    0    0 -0.10355660997E+01  0.37073504164E+02  0.16662803658E+02  0.50528854240E+02  0.29999982949E+02 0.  0.
         12    1    1    2    0    0  0.10355660997E+01 -0.37073504164E+02 -0.16662803658E+02  0.40659145760E+02  0.00000000000E+00 0. -1.
         11    1    3    3    0    0 -0.33461002988E+01  0.38601542450E+01  0.33946355091E+01  0.61335738771E+01  0.51100000000E-03 0. -1.
        -11    1    3    3    0    0  0.10415750534E+02  0.45249339689E+01 -0.89324755697E+00  0.11391258845E+02  0.51100000000E-03 0.  1.
        -12    1    3    3    0    0 -0.81052163351E+01  0.28688415950E+02  0.14161415706E+02  0.33004021518E+02  0.00000000000E+00 0.  1.
</event>
<event>
 7    1  0.5764931E-013  0.5052885E+02  0.7816164E-02  0.1300439E+00
        -11   -1    0    0    0    0  0.00000000000E+00  0.00000000000E+00  0.45593999997E+02  0.45594000000E+02  0.51100000000E-03 0.  1.
         11   -1    0    0    0    0 -0.00000000000E+00 -0.00000000000E+00 -0.45593999997E+02  0.45594000000E+02  0.51100000000E-03 0. -1.
    9900012    2    1    2    0    0  0.36912298697E+02 -0.15657682119E+02  0.67443023814E+01  0.50528850734E+02  0.29999972290E+02 0.  0.
         12    1    1    2    0    0 -0.36912298697E+02  0.15657682119E+02 -0.67443023814E+01  0.40659149266E+02  0.00000000000E+00 0. -1.
         11    1    3    3    0    0  0.20307480362E+02  0.63120739693E+01  0.53366275794E+01  0.21925228177E+02  0.51100000000E-03 0. -1.
        -11    1    3    3    0    0  0.13235479345E+02 -0.11377695674E+02  0.92072192587E+00  0.17477917538E+02  0.51100000000E-03 0.  1.
         12    1    3    3    0    0  0.33693389902E+01 -0.10592060414E+02  0.48695287617E+00  0.11125705018E+02  0.00000000000E+00 0. -1.
</event>
<event>
 7    1  0.5764931E-013  0.5052886E+02  0.7816164E-02  0.1300439E+00
        -11   -1    0    0    0    0  0.00000000000E+00  0.00000000000E+00  0.45593999997E+02  0.45594000000E+02  0.51100000000E-03 0. -1.
         11   -1    0    0    0    0 -0.00000000000E+00 -0.00000000000E+00 -0.45593999997E+02  0.45594000000E+02  0.51100000000E-03 0.  1.
    9900012    2    1    2    0    0  0.20107919318E+02  0.30331341397E+02 -0.18134140638E+02  0.50528858999E+02  0.29999997414E+02 0.  0.
         12    1    1    2    0    0 -0.20107919318E+02 -0.30331341397E+02  0.18134140638E+02  0.40659141001E+02  0.00000000000E+00 0. -1.
         11    1    3    3    0    0  0.24943627489E+02  0.24047925972E+02 -0.19121773618E+02  0.39574354353E+02  0.51100000000E-03 0.  1.
        -11    1    3    3    0    0 -0.59835544855E+01  0.70505897033E+01 -0.16444685037E-01  0.92473785547E+01  0.51100000000E-03 0. -1.
        -12    1    3    3    0    0  0.11478463145E+01 -0.76717427848E+00  0.10040776650E+01  0.17071260916E+01  0.00000000000E+00 0.  1.
</event>
<event>
 7    1  0.5764931E-013  0.5052887E+02  0.7816164E-02  0.1300439E+00
        -11   -1    0    0    0    0  0.00000000000E+00  0.00000000000E+00  0.45593999997E+02  0.45594000000E+02  0.51100000000E-03 0.  1.
         11   -1    0    0    0    0 -0.00000000000E+00 -0.00000000000E+00 -0.45593999997E+02  0.45594000000E+02  0.51100000000E-03 0. -1.
    9900012    2    1    2    0    0  0.12273145003E+02  0.11957258205E+02  0.36872199284E+02  0.50528865822E+02  0.30000018153E+02 0.  0.
         12    1    1    2    0    0 -0.12273145003E+02 -0.11957258205E+02 -0.36872199284E+02  0.40659134178E+02  0.00000000000E+00 0. -1.
         11    1    3    3    0    0 -0.48180321969E+00  0.15995598728E+02  0.27295412194E+02  0.31640651702E+02  0.51100000000E-03 0. -1.
        -11    1    3    3    0    0  0.14011896645E+02 -0.37777010637E+01  0.72304761495E+01  0.16213699717E+02  0.51100000000E-03 0.  1.
         12    1    3    3    0    0 -0.12569484216E+01 -0.26063945948E+00  0.23463109401E+01  0.26745144026E+01  0.00000000000E+00 0. -1.
</event>
<event>
 7    1  0.5764931E-013  0.5052886E+02  0.7816164E-02  0.1300439E+00
        -11   -1    0    0    0    0  0.00000000000E+00  0.00000000000E+00  0.45593999997E+02  0.45594000000E+02  0.51100000000E-03 0. -1.
         11   -1    0    0    0    0 -0.00000000000E+00 -0.00000000000E+00 -0.45593999997E+02  0.45594000000E+02  0.51100000000E-03 0.  1.
    9900012    2    1    2    0    0 -0.23678950201E+02 -0.17204501424E+02 -0.28221946743E+02  0.50528857980E+02  0.29999994315E+02 0.  0.
         12    1    1    2    0    0  0.23678950201E+02  0.17204501424E+02  0.28221946743E+02  0.40659142020E+02  0.00000000000E+00 0. -1.
         11    1    3    3    0    0  0.15178021699E+01  0.30474107772E+01  0.17412496701E+01  0.38239229264E+01  0.51100000000E-03 0. -1.
        -11    1    3    3    0    0 -0.12806309792E+02 -0.19212838358E+02 -0.22293973930E+02  0.32096043403E+02  0.51100000000E-03 0.  1.
        -12    1    3    3    0    0 -0.12390442579E+02 -0.10390738430E+01 -0.76692224828E+01  0.14608891650E+02  0.00000000000E+00 0.  1.
</event>
<event>
 7    1  0.5764931E-013  0.5052886E+02  0.7816164E-02  0.1300439E+00
        -11   -1    0    0    0    0  0.00000000000E+00  0.00000000000E+00  0.45593999997E+02  0.45594000000E+02  0.51100000000E-03 0.  1.
         11   -1    0    0    0    0 -0.00000000000E+00 -0.00000000000E+00 -0.45593999997E+02  0.45594000000E+02  0.51100000000E-03 0. -1.
    9900012    2    1    2    0    0  0.11159413080E+02  0.38561427592E+02 -0.64536385062E+01  0.50528860214E+02  0.30000001105E+02 0.  0.
         12    1    1    2    0    0 -0.11159413080E+02 -0.38561427592E+02  0.64536385062E+01  0.40659139786E+02  0.00000000000E+00 0. -1.
         11    1    3    3    0    0 -0.37533144410E+01  0.69104538905E+00 -0.34166236005E+01  0.51223266307E+01  0.51100000000E-03 0. -1.
        -11    1    3    3    0    0  0.19475134609E+02  0.34207065826E+02 -0.36087989413E+01  0.39527555585E+02  0.51100000000E-03 0.  1.
        -12    1    3    3    0    0 -0.45624070884E+01  0.36633163769E+01  0.57178403562E+00  0.58789779980E+01  0.00000000000E+00 0.  1.
</event>
<event>
 7    1  0.5764931E-013  0.5052879E+02  0.7816164E-02  0.1300439E+00
        -11   -1    0    0    0    0  0.00000000000E+00  0.00000000000E+00  0.45593999997E+02  0.45594000000E+02  0.51100000000E-03 0.  1.
         11   -1    0    0    0    0 -0.00000000000E+00 -0.00000000000E+00 -0.45593999997E+02  0.45594000000E+02  0.51100000000E-03 0. -1.
    9900012    2    1    2    0    0  0.26423999565E+00 -0.15173469282E+01  0.40630029319E+02  0.50528788904E+02  0.29999784352E+02 0.  0.
         12    1    1    2    0    0 -0.26423999565E+00  0.15173469282E+01 -0.40630029319E+02  0.40659211096E+02  0.00000000000E+00 0. -1.
         11    1    3    3    0    0  0.65162786308E+01 -0.14209439269E+01  0.41759566261E+01  0.78688997225E+01  0.51100000000E-03 0. -1.
        -11    1    3    3    0    0 -0.71202581638E+01 -0.57398381340E+01  0.35756503177E+02  0.36907605420E+02  0.51100000000E-03 0.  1.
         12    1    3    3    0    0  0.86821952857E+00  0.56434351328E+01  0.69756951623E+00  0.57522837619E+01  0.00000000000E+00 0. -1.
</event>
<event>
 7    1  0.5764931E-013  0.5052886E+02  0.7816164E-02  0.1300439E+00
        -11   -1    0    0    0    0  0.00000000000E+00  0.00000000000E+00  0.45593999997E+02  0.45594000000E+02  0.51100000000E-03 0.  1.
         11   -1    0    0    0    0 -0.00000000000E+00 -0.00000000000E+00 -0.45593999997E+02  0.45594000000E+02  0.51100000000E-03 0. -1.
    9900012    2    1    2    0    0 -0.13201468341E+02 -0.10990353692E+02  0.36852395467E+02  0.50528859671E+02  0.29999999456E+02 0.  0.
         12    1    1    2    0    0  0.13201468341E+02  0.10990353692E+02 -0.36852395467E+02  0.40659140329E+02  0.00000000000E+00 0. -1.
         11    1    3    3    0    0  0.45550200702E+01 -0.75907482437E+01  0.25600683976E+02  0.27088054324E+02  0.51100000000E-03 0. -1.
        -11    1    3    3    0    0 -0.67394521274E+01  0.62622105639E+00  0.93735696946E+01  0.11561841413E+02  0.51100000000E-03 0.  1.
         12    1    3    3    0    0 -0.11017036284E+02 -0.40258265051E+01  0.18781417956E+01  0.11878963934E+02  0.00000000000E+00 0. -1.
</event>
<event>
 7    1  0.5764931E-013  0.5052886E+02  0.7816164E-02  0.1300439E+00
        -11   -1    0    0    0    0  0.00000000000E+00  0.00000000000E+00  0.45593999997E+02  0.45594000000E+02  0.51100000000E-03 0.  1.
         11   -1    0    0    0    0 -0.00000000000E+00 -0.00000000000E+00 -0.45593999997E+02  0.45594000000E+02  0.51100000000E-03 0. -1.
    9900012    2    1    2    0    0  0.30672781526E+02  0.26584128697E+02 -0.23728264335E+01  0.50528859202E+02  0.29999998032E+02 0.  0.
         12    1    1    2    0    0 -0.30672781526E+02 -0.26584128697E+02  0.23728264335E+01  0.40659140798E+02  0.00000000000E+00 0. -1.
         11    1    3    3    0    0  0.61658470456E+00  0.16306020592E+02 -0.46687104051E+01  0.16972428858E+02  0.51100000000E-03 0. -1.
        -11    1    3    3    0    0  0.26411274637E+02  0.10476063457E+02  0.52084949711E+01  0.28886532392E+02  0.51100000000E-03 0.  1.
        -12    1    3    3    0    0  0.36449221845E+01 -0.19795535191E+00 -0.29126109996E+01  0.46698979526E+01  0.00000000000E+00 0.  1.
</event>
<event>
 7    1  0.5764931E-013  0.5052885E+02  0.7816164E-02  0.1300439E+00
        -11   -1    0    0    0    0  0.00000000000E+00  0.00000000000E+00  0.45593999997E+02  0.45594000000E+02  0.51100000000E-03 0. -1.
         11   -1    0    0    0    0 -0.00000000000E+00 -0.00000000000E+00 -0.45593999997E+02  0.45594000000E+02  0.51100000000E-03 0.  1.
    9900012    2    1    2    0    0  0.39965788455E+02  0.72294643220E+01  0.19071945159E+01  0.50528846146E+02  0.29999958345E+02 0.  0.
         12    1    1    2    0    0 -0.39965788455E+02 -0.72294643220E+01 -0.19071945159E+01  0.40659153854E+02  0.00000000000E+00 0. -1.
         11    1    3    3    0    0  0.12924843371E+02  0.12195152364E+02 -0.55949744486E+01  0.18630004205E+02  0.51100000000E-03 0. -1.
        -11    1    3    3    0    0  0.28175938010E+02 -0.33639974865E+01  0.85987407999E+01  0.29650266533E+02  0.51100000000E-03 0.  1.
         12    1    3    3    0    0 -0.11349929260E+01 -0.16016905552E+01 -0.10965718354E+01  0.22485754083E+01  0.00000000000E+00 0. -1.
</event>
<event>
 7    1  0.5764931E-013  0.5052888E+02  0.7816164E-02  0.1300439E+00
        -11   -1    0    0    0    0  0.00000000000E+00  0.00000000000E+00  0.45593999997E+02  0.45594000000E+02  0.51100000000E-03 0.  1.
         11   -1    0    0    0    0 -0.00000000000E+00 -0.00000000000E+00 -0.45593999997E+02  0.45594000000E+02  0.51100000000E-03 0. -1.
    9900012    2    1    2    0    0 -0.46967260835E+00  0.40462498116E+02  0.39660940916E+01  0.50528877425E+02  0.30000053422E+02 0.  0.
         12    1    1    2    0    0  0.46967260835E+00 -0.40462498116E+02 -0.39660940916E+01  0.40659122575E+02  0.00000000000E+00 0. -1.
         11    1    3    3    0    0  0.45846099771E+01  0.17369831797E+01 -0.45945220501E+01  0.67190320983E+01  0.51100000000E-03 0. -1.
        -11    1    3    3    0    0 -0.32502449537E+01  0.40283436718E+02  0.89529734232E+01  0.41394143299E+02  0.51100000000E-03 0.  1.
        -12    1    3    3    0    0 -0.18040376318E+01 -0.15579217812E+01 -0.39235728156E+00  0.24157020283E+01  0.00000000000E+00 0.  1.
</event>
<event>
 7    1  0.5764931E-013  0.5052887E+02  0.7816164E-02  0.1300439E+00
        -11   -1    0    0    0    0  0.00000000000E+00  0.00000000000E+00  0.45593999997E+02  0.45594000000E+02  0.51100000000E-03 0.  1.
         11   -1    0    0    0    0 -0.00000000000E+00 -0.00000000000E+00 -0.45593999997E+02  0.45594000000E+02  0.51100000000E-03 0. -1.
    9900012    2    1    2    0    0  0.19566974686E+02 -0.58583179891E+01  0.35156482408E+02  0.50528872571E+02  0.30000038666E+02 0.  0.
         12    1    1    2    0    0 -0.19566974686E+02  0.58583179891E+01 -0.35156482408E+02  0.40659127429E+02  0.00000000000E+00 0. -1.
         11    1    3    3    0    0 -0.10540789132E+01  0.69291311331E+01  0.72839228608E+01  0.10108386277E+02  0.51100000000E-03 0. -1.
        -11    1    3    3    0    0  0.13237033555E+02 -0.12710398867E+02  0.95967522765E+01  0.20709199676E+02  0.51100000000E-03 0.  1.
        -12    1    3    3    0    0  0.73840200438E+01 -0.77050254897E-01  0.18275807270E+02  0.19711286618E+02  0.00000000000E+00 0.  1.
</event>
<event>
 7    1  0.5764931E-013  0.5052885E+02  0.7816164E-02  0.1300439E+00
        -11   -1    0    0    0    0  0.00000000000E+00  0.00000000000E+00  0.45593999997E+02  0.45594000000E+02  0.51100000000E-03 0.  1.
         11   -1    0    0    0    0 -0.00000000000E+00 -0.00000000000E+00 -0.45593999997E+02  0.45594000000E+02  0.51100000000E-03 0. -1.
    9900012    2    1    2    0    0 -0.72938006736E+01  0.29859579692E+02  0.26615263093E+02  0.50528852724E+02  0.29999978341E+02 0.  0.
         12    1    1    2    0    0  0.72938006736E+01 -0.29859579692E+02 -0.26615263093E+02  0.40659147276E+02  0.00000000000E+00 0. -1.
         11    1    3    3    0    0  0.94204763105E+01  0.46940716005E+01  0.32606013215E+01  0.11018675208E+02  0.51100000000E-03 0. -1.
        -11    1    3    3    0    0 -0.51360155339E+01  0.12133094963E+02  0.15630999145E+02  0.20443061988E+02  0.51100000000E-03 0.  1.
         12    1    3    3    0    0 -0.11578261450E+02  0.13032413129E+02  0.77236626269E+01  0.19067115528E+02  0.00000000000E+00 0. -1.
</event>
<event>
 7    1  0.5764931E-013  0.5052886E+02  0.7816164E-02  0.1300439E+00
        -11   -1    0    0    0    0  0.00000000000E+00  0.00000000000E+00  0.45593999997E+02  0.45594000000E+02  0.51100000000E-03 0.  1.
         11   -1    0    0    0    0 -0.00000000000E+00 -0.00000000000E+00 -0.45593999997E+02  0.45594000000E+02  0.51100000000E-03 0. -1.
    9900012    2    1    2    0    0 -0.18353177054E+02 -0.52943263262E+01  0.35892851049E+02  0.50528858892E+02  0.29999997089E+02 0.  0.
         12    1    1    2    0    0  0.18353177054E+02  0.52943263262E+01 -0.35892851049E+02  0.40659141108E+02  0.00000000000E+00 0. -1.
         11    1    3    3    0    0  0.11934560956E+01 -0.76940179570E+00 -0.12792463406E+01  0.19112268407E+01  0.51100000000E-03 0. -1.
        -11    1    3    3    0    0 -0.16675990146E+02 -0.21195804873E+01  0.40346356076E+02  0.43708233980E+02  0.51100000000E-03 0.  1.
        -12    1    3    3    0    0 -0.28706430034E+01 -0.24053440431E+01 -0.31742586863E+01  0.49093980717E+01  0.00000000000E+00 0.  1.
</event>
<event>
 7    1  0.5764931E-013  0.5052881E+02  0.7816164E-02  0.1300439E+00
        -11   -1    0    0    0    0  0.00000000000E+00  0.00000000000E+00  0.45593999997E+02  0.45594000000E+02  0.51100000000E-03 0.  1.
         11   -1    0    0    0    0 -0.00000000000E+00 -0.00000000000E+00 -0.45593999997E+02  0.45594000000E+02  0.51100000000E-03 0. -1.
    9900012    2    1    2    0    0 -0.13878633084E+01  0.33547448298E+02 -0.22930594249E+02  0.50528811562E+02  0.29999853223E+02 0.  0.
         12    1    1    2    0    0  0.13878633084E+01 -0.33547448298E+02  0.22930594249E+02  0.40659188438E+02  0.00000000000E+00 0. -1.
         11    1    3    3    0    0  0.58513896856E+01  0.24347553060E+02 -0.12044859893E+02  0.27787060863E+02  0.51100000000E-03 0. -1.
        -11    1    3    3    0    0 -0.44676264234E+01  0.94091781612E+01  0.10666470458E+01  0.10470437226E+02  0.51100000000E-03 0.  1.
         12    1    3    3    0    0 -0.27716265706E+01 -0.20928292346E+00 -0.11952381401E+02  0.12271313473E+02  0.00000000000E+00 0. -1.
</event>
<event>
 7    1  0.5764931E-013  0.5052880E+02  0.7816164E-02  0.1300439E+00
        -11   -1    0    0    0    0  0.00000000000E+00  0.00000000000E+00  0.45593999997E+02  0.45594000000E+02  0.51100000000E-03 0. -1.
         11   -1    0    0    0    0 -0.00000000000E+00 -0.00000000000E+00 -0.45593999997E+02  0.45594000000E+02  0.51100000000E-03 0.  1.
    9900012    2    1    2    0    0 -0.27357865150E+02 -0.13323401616E+02 -0.26966727043E+02  0.50528804440E+02  0.29999831575E+02 0.  0.
         12    1    1    2    0    0  0.27357865150E+02  0.13323401616E+02  0.26966727043E+02  0.40659195560E+02  0.00000000000E+00 0. -1.
         11    1    3    3    0    0  0.11832540684E+01  0.21993769626E+01  0.32141504992E+01  0.40703946868E+01  0.51100000000E-03 0. -1.
        -11    1    3    3    0    0 -0.13772465450E+02 -0.56378787322E+00 -0.81753998943E+01  0.16026098248E+02  0.51100000000E-03 0.  1.
         12    1    3    3    0    0 -0.14768653768E+02 -0.14958990705E+02 -0.22005477648E+02  0.30432311505E+02  0.00000000000E+00 0. -1.
</event>
<event>
 7    1  0.5764931E-013  0.5052886E+02  0.7816164E-02  0.1300439E+00
        -11   -1    0    0    0    0  0.00000000000E+00  0.00000000000E+00  0.45593999997E+02  0.45594000000E+02  0.51100000000E-03 0.  1.
         11   -1    0    0    0    0 -0.00000000000E+00 -0.00000000000E+00 -0.45593999997E+02  0.45594000000E+02  0.51100000000E-03 0. -1.
    9900012    2    1    2    0    0 -0.28818672314E+02 -0.24048677752E+02  0.15630438775E+02  0.50528863366E+02  0.30000010688E+02 0.  0.
         12    1    1    2    0    0  0.28818672314E+02  0.24048677752E+02 -0.15630438775E+02  0.40659136634E+02  0.00000000000E+00 0. -1.
         11    1    3    3    0    0  0.22688011674E+01 -0.34429800924E+01  0.10438001910E+02  0.11222898680E+02  0.51100000000E-03 0. -1.
        -11    1    3    3    0    0 -0.28751371343E+02 -0.14122647442E+02  0.49305333891E+01  0.32409885601E+02  0.51100000000E-03 0.  1.
        -12    1    3    3    0    0 -0.23361021378E+01 -0.64830502173E+01  0.26190347566E+00  0.68960790852E+01  0.00000000000E+00 0.  1.
</event>
<event>
 7    1  0.5764931E-013  0.5052886E+02  0.7816164E-02  0.1300439E+00
        -11   -1    0    0    0    0  0.00000000000E+00  0.00000000000E+00  0.45593999997E+02  0.45594000000E+02  0.51100000000E-03 0. -1.
         11   -1    0    0    0    0 -0.00000000000E+00 -0.00000000000E+00 -0.45593999997E+02  0.45594000000E+02  0.51100000000E-03 0.  1.
    9900012    2    1    2    0    0  0.90450720086E+01  0.23894507623E+02 -0.31629180497E+02  0.50528857349E+02  0.29999992398E+02 0.  0.
         12    1    1    2    0    0 -0.90450720086E+01 -0.23894507623E+02  0.31629180497E+02  0.40659142651E+02  0.00000000000E+00 0. -1.
         11    1    3    3    0    0 -0.59812221187E+01  0.15566192126E+02 -0.20803227652E+02  0.26661876084E+02  0.51100000000E-03 0.  1.
        -11    1    3    3    0    0  0.91774235713E+01  0.24486398967E+01  0.85991229744E+00  0.95373156691E+01  0.51100000000E-03 0. -1.
        -12    1    3    3    0    0  0.58488705560E+01  0.58796756000E+01 -0.11685865143E+02  0.14329665596E+02  0.00000000000E+00 0.  1.
</event>
<event>
 7    1  0.5764931E-013  0.5052888E+02  0.7816164E-02  0.1300439E+00
        -11   -1    0    0    0    0  0.00000000000E+00  0.00000000000E+00  0.45593999997E+02  0.45594000000E+02  0.51100000000E-03 0.  1.
         11   -1    0    0    0    0 -0.00000000000E+00 -0.00000000000E+00 -0.45593999997E+02  0.45594000000E+02  0.51100000000E-03 0. -1.
    9900012    2    1    2    0    0  0.37210728022E+02  0.87764688324E+01  0.13838322086E+02  0.50528882409E+02  0.30000068571E+02 0.  0.
         12    1    1    2    0    0 -0.37210728022E+02 -0.87764688324E+01 -0.13838322086E+02  0.40659117591E+02  0.00000000000E+00 0. -1.
         11    1    3    3    0    0 -0.70015243470E+00  0.10226728941E+02  0.19891604156E+01  0.10441884777E+02  0.51100000000E-03 0. -1.
        -11    1    3    3    0    0  0.18724844903E+02 -0.31702330726E+01  0.68149719018E+01  0.20177067098E+02  0.51100000000E-03 0.  1.
         12    1    3    3    0    0  0.19186035554E+02  0.17199729636E+01  0.50341897684E+01  0.19909930534E+02  0.00000000000E+00 0. -1.
</event>
<event>
 7    1  0.5764931E-013  0.5052886E+02  0.7816164E-02  0.1300439E+00
        -11   -1    0    0    0    0  0.00000000000E+00  0.00000000000E+00  0.45593999997E+02  0.45594000000E+02  0.51100000000E-03 0.  1.
         11   -1    0    0    0    0 -0.00000000000E+00 -0.00000000000E+00 -0.45593999997E+02  0.45594000000E+02  0.51100000000E-03 0. -1.
    9900012    2    1    2    0    0  0.26848821483E+02  0.26155578139E+02  0.15754104963E+02  0.50528864421E+02  0.30000013895E+02 0.  0.
         12    1    1    2    0    0 -0.26848821483E+02 -0.26155578139E+02 -0.15754104963E+02  0.40659135579E+02  0.00000000000E+00 0. -1.
         11    1    3    3    0    0  0.25104026911E+00 -0.84900912476E-01 -0.46848297882E+01  0.46923192333E+01  0.51100000000E-03 0. -1.
        -11    1    3    3    0    0  0.26083208387E+02  0.28076496508E+02  0.17042046313E+02  0.41941086762E+02  0.51100000000E-03 0.  1.
        -12    1    3    3    0    0  0.51457282671E+00 -0.18360174564E+01  0.33968884375E+01  0.38954584263E+01  0.00000000000E+00 0.  1.
</event>
<event>
 7    1  0.5764931E-013  0.5052886E+02  0.7816164E-02  0.1300439E+00
        -11   -1    0    0    0    0  0.00000000000E+00  0.00000000000E+00  0.45593999997E+02  0.45594000000E+02  0.51100000000E-03 0. -1.
         11   -1    0    0    0    0 -0.00000000000E+00 -0.00000000000E+00 -0.45593999997E+02  0.45594000000E+02  0.51100000000E-03 0.  1.
    9900012    2    1    2    0    0 -0.11198986184E+01  0.23744285541E+02 -0.32986665160E+02  0.50528863916E+02  0.30000012358E+02 0.  0.
         12    1    1    2    0    0  0.11198986184E+01 -0.23744285541E+02  0.32986665160E+02  0.40659136084E+02  0.00000000000E+00 0. -1.
         11    1    3    3    0    0 -0.26573969009E+01  0.58990830026E+01  0.47049888676E+01  0.79998661904E+01  0.51100000000E-03 0. -1.
        -11    1    3    3    0    0 -0.30733584366E+01  0.43459126530E+01 -0.12350213109E+02  0.13448429386E+02  0.51100000000E-03 0.  1.
         12    1    3    3    0    0  0.46108567191E+01  0.13499289885E+02 -0.25341440919E+02  0.29080568339E+02  0.00000000000E+00 0. -1.
</event>
<event>
 7    1  0.5764931E-013  0.5052886E+02  0.7816164E-02  0.1300439E+00
        -11   -1    0    0    0    0  0.00000000000E+00  0.00000000000E+00  0.45593999997E+02  0.45594000000E+02  0.51100000000E-03 0.  1.
         11   -1    0    0    0    0 -0.00000000000E+00 -0.00000000000E+00 -0.45593999997E+02  0.45594000000E+02  0.51100000000E-03 0. -1.
    9900012    2    1    2    0    0 -0.29287716407E+02 -0.28030596183E+02  0.31113844793E+01  0.50528863658E+02  0.30000011574E+02 0.  0.
         12    1    1    2    0    0  0.29287716407E+02  0.28030596183E+02 -0.31113844793E+01  0.40659136342E+02  0.00000000000E+00 0. -1.
         11    1    3    3    0    0 -0.62246675043E+01  0.29087796009E+01 -0.59622484252E+01  0.90970264839E+01  0.51100000000E-03 0. -1.
        -11    1    3    3    0    0 -0.44463304607E+00 -0.53938233922E+01  0.44368051476E+01  0.69983047598E+01  0.51100000000E-03 0.  1.
         12    1    3    3    0    0 -0.22618415856E+02 -0.25545552392E+02  0.46368277569E+01  0.34433532414E+02  0.00000000000E+00 0. -1.
</event>
<event>
 7    1  0.5764931E-013  0.5052887E+02  0.7816164E-02  0.1300439E+00
        -11   -1    0    0    0    0  0.00000000000E+00  0.00000000000E+00  0.45593999997E+02  0.45594000000E+02  0.51100000000E-03 0.  1.
         11   -1    0    0    0    0 -0.00000000000E+00 -0.00000000000E+00 -0.45593999997E+02  0.45594000000E+02  0.51100000000E-03 0. -1.
    9900012    2    1    2    0    0 -0.38158640404E+02  0.13979308041E+02  0.12893262523E+01  0.50528865073E+02  0.30000015877E+02 0.  0.
         12    1    1    2    0    0  0.38158640404E+02 -0.13979308041E+02 -0.12893262523E+01  0.40659134927E+02  0.00000000000E+00 0. -1.
         11    1    3    3    0    0 -0.17612353629E+02  0.88328912576E+01  0.13802244875E+02  0.24056536163E+02  0.51100000000E-03 0. -1.
        -11    1    3    3    0    0 -0.79467444117E+01 -0.27637175943E+01 -0.52509103090E+01  0.99177084561E+01  0.51100000000E-03 0.  1.
         12    1    3    3    0    0 -0.12599542364E+02  0.79101343776E+01 -0.72620083134E+01  0.16554620454E+02  0.00000000000E+00 0. -1.
</event>
<event>
 7    1  0.5764931E-013  0.5052886E+02  0.7816164E-02  0.1300439E+00
        -11   -1    0    0    0    0  0.00000000000E+00  0.00000000000E+00  0.45593999997E+02  0.45594000000E+02  0.51100000000E-03 0.  1.
         11   -1    0    0    0    0 -0.00000000000E+00 -0.00000000000E+00 -0.45593999997E+02  0.45594000000E+02  0.51100000000E-03 0. -1.
    9900012    2    1    2    0    0  0.11407505085E+01 -0.14004797378E+01  0.40618993942E+02  0.50528864199E+02  0.30000013220E+02 0.  0.
         12    1    1    2    0    0 -0.11407505085E+01  0.14004797378E+01 -0.40618993942E+02  0.40659135801E+02  0.00000000000E+00 0. -1.
         11    1    3    3    0    0  0.85896886621E+00  0.59175399588E+01  0.51218454870E+01  0.78732717552E+01  0.51100000000E-03 0. -1.
        -11    1    3    3    0    0  0.84932161794E+00 -0.33627355208E+01  0.37856624039E+02  0.38015172251E+02  0.51100000000E-03 0.  1.
        -12    1    3    3    0    0 -0.56753997561E+00 -0.39552841758E+01 -0.23594755840E+01  0.46404201929E+01  0.00000000000E+00 0.  1.
</event>
<event>
 7    1  0.5764931E-013  0.5052886E+02  0.7816164E-02  0.1300439E+00
        -11   -1    0    0    0    0  0.00000000000E+00  0.00000000000E+00  0.45593999997E+02  0.45594000000E+02  0.51100000000E-03 0. -1.
         11   -1    0    0    0    0 -0.00000000000E+00 -0.00000000000E+00 -0.45593999997E+02  0.45594000000E+02  0.51100000000E-03 0.  1.
    9900012    2    1    2    0    0  0.18788867032E+02  0.34346134888E+02 -0.10976657111E+02  0.50528861945E+02  0.30000006367E+02 0.  0.
         12    1    1    2    0    0 -0.18788867032E+02 -0.34346134888E+02  0.10976657111E+02  0.40659138055E+02  0.00000000000E+00 0. -1.
         11    1    3    3    0    0 -0.34454144533E+01  0.12374032583E+02 -0.52069138514E+01  0.13859996942E+02  0.51100000000E-03 0. -1.
        -11    1    3    3    0    0  0.25416981414E+02  0.18209022819E+02 -0.53688859384E+01  0.31724066459E+02  0.51100000000E-03 0.  1.
        -12    1    3    3    0    0 -0.31826999282E+01  0.37630794857E+01 -0.40085732107E+00  0.49447985440E+01  0.00000000000E+00 0.  1.
</event>
<event>
 7    1  0.5764931E-013  0.5052886E+02  0.7816164E-02  0.1300439E+00
        -11   -1    0    0    0    0  0.00000000000E+00  0.00000000000E+00  0.45593999997E+02  0.45594000000E+02  0.51100000000E-03 0. -1.
         11   -1    0    0    0    0 -0.00000000000E+00 -0.00000000000E+00 -0.45593999997E+02  0.45594000000E+02  0.51100000000E-03 0.  1.
    9900012    2    1    2    0    0  0.21244740692E+02 -0.24388654684E+02 -0.24637776645E+02  0.50528861761E+02  0.30000005808E+02 0.  0.
         12    1    1    2    0    0 -0.21244740692E+02  0.24388654684E+02  0.24637776645E+02  0.40659138239E+02  0.00000000000E+00 0. -1.
         11    1    3    3    0    0  0.89770616487E+01  0.23695337784E+01 -0.33484569234E+01  0.98698779223E+01  0.51100000000E-03 0. -1.
        -11    1    3    3    0    0  0.13564058493E+01 -0.15758994006E+02 -0.19430755909E+02  0.25054740157E+02  0.51100000000E-03 0.  1.
        -12    1    3    3    0    0  0.10911273194E+02 -0.10999194456E+02 -0.18585638122E+01  0.15604243681E+02  0.00000000000E+00 0.  1.
</event>
<event>
 7    1  0.5764931E-013  0.5052887E+02  0.7816164E-02  0.1300439E+00
        -11   -1    0    0    0    0  0.00000000000E+00  0.00000000000E+00  0.45593999997E+02  0.45594000000E+02  0.51100000000E-03 0. -1.
         11   -1    0    0    0    0 -0.00000000000E+00 -0.00000000000E+00 -0.45593999997E+02  0.45594000000E+02  0.51100000000E-03 0.  1.
    9900012    2    1    2    0    0  0.10861607364E+02 -0.38032573750E+02  0.94187733672E+01  0.50528874674E+02  0.30000045058E+02 0.  0.
         12    1    1    2    0    0 -0.10861607364E+02  0.38032573750E+02 -0.94187733672E+01  0.40659125326E+02  0.00000000000E+00 0. -1.
         11    1    3    3    0    0 -0.45909641088E+01 -0.19572578066E+02 -0.31064054641E+01  0.20342382328E+02  0.51100000000E-03 0. -1.
        -11    1    3    3    0    0  0.11377729192E+02 -0.12675633371E+02  0.15169449076E+01  0.17100453943E+02  0.51100000000E-03 0.  1.
         12    1    3    3    0    0  0.40748422803E+01 -0.57843623121E+01  0.11008233924E+02  0.13086038403E+02  0.00000000000E+00 0. -1.
</event>
<event>
 7    1  0.5764931E-013  0.5052886E+02  0.7816164E-02  0.1300439E+00
        -11   -1    0    0    0    0  0.00000000000E+00  0.00000000000E+00  0.45593999997E+02  0.45594000000E+02  0.51100000000E-03 0.  1.
         11   -1    0    0    0    0 -0.00000000000E+00 -0.00000000000E+00 -0.45593999997E+02  0.45594000000E+02  0.51100000000E-03 0. -1.
    9900012    2    1    2    0    0 -0.13207696908E+00 -0.10533322123E+02  0.39270821073E+02  0.50528859490E+02  0.29999998905E+02 0.  0.
         12    1    1    2    0    0  0.13207696908E+00  0.10533322123E+02 -0.39270821073E+02  0.40659140510E+02  0.00000000000E+00 0. -1.
         11    1    3    3    0    0  0.44089227763E+01  0.65536107693E+00 -0.35399000285E+01  0.56920111262E+01  0.51100000000E-03 0. -1.
        -11    1    3    3    0    0 -0.52788753366E+01 -0.56634567274E+01  0.25726861177E+02  0.26866571296E+02  0.51100000000E-03 0.  1.
         12    1    3    3    0    0  0.73787559120E+00 -0.55252264724E+01  0.17083859925E+02  0.17970277068E+02  0.00000000000E+00 0. -1.
</event>
<event>
 7    1  0.5764931E-013  0.5052888E+02  0.7816164E-02  0.1300439E+00
        -11   -1    0    0    0    0  0.00000000000E+00  0.00000000000E+00  0.45593999997E+02  0.45594000000E+02  0.51100000000E-03 0.  1.
         11   -1    0    0    0    0 -0.00000000000E+00 -0.00000000000E+00 -0.45593999997E+02  0.45594000000E+02  0.51100000000E-03 0. -1.
    9900012    2    1    2    0    0  0.19232013483E+02  0.45804924400E+01  0.35529040711E+02  0.50528880636E+02  0.30000063182E+02 0.  0.
         12    1    1    2    0    0 -0.19232013483E+02 -0.45804924400E+01 -0.35529040711E+02  0.40659119364E+02  0.00000000000E+00 0. -1.
         11    1    3    3    0    0  0.11134839732E+02  0.69030635049E+01  0.10633200767E+02  0.16873111759E+02  0.51100000000E-03 0. -1.
        -11    1    3    3    0    0 -0.60204755454E+01  0.20558883532E+01  0.13726894675E+02  0.15129456051E+02  0.51100000000E-03 0.  1.
        -12    1    3    3    0    0  0.14117649297E+02 -0.43784594181E+01  0.11168945269E+02  0.18526312827E+02  0.00000000000E+00 0.  1.
</event>
<event>
 7    1  0.5764931E-013  0.5052890E+02  0.7816164E-02  0.1300439E+00
        -11   -1    0    0    0    0  0.00000000000E+00  0.00000000000E+00  0.45593999997E+02  0.45594000000E+02  0.51100000000E-03 0. -1.
         11   -1    0    0    0    0 -0.00000000000E+00 -0.00000000000E+00 -0.45593999997E+02  0.45594000000E+02  0.51100000000E-03 0.  1.
    9900012    2    1    2    0    0 -0.29519381826E+02 -0.24646661199E+02 -0.13202686244E+02  0.50528896029E+02  0.30000109971E+02 0.  0.
         12    1    1    2    0    0  0.29519381826E+02  0.24646661199E+02  0.13202686244E+02  0.40659103971E+02  0.00000000000E+00 0. -1.
         11    1    3    3    0    0 -0.21623486437E+02 -0.20102171616E+02  0.38157038312E+01  0.29769650071E+02  0.51100000000E-03 0. -1.
        -11    1    3    3    0    0 -0.54110289380E+00  0.19789495270E+01 -0.31767422346E+01  0.37816299473E+01  0.51100000000E-03 0.  1.
         12    1    3    3    0    0 -0.73547924953E+01 -0.65234391100E+01 -0.13841647841E+02  0.16977616011E+02  0.00000000000E+00 0. -1.
</event>
<event>
 7    1  0.5764931E-013  0.5052886E+02  0.7816164E-02  0.1300439E+00
        -11   -1    0    0    0    0  0.00000000000E+00  0.00000000000E+00  0.45593999997E+02  0.45594000000E+02  0.51100000000E-03 0. -1.
         11   -1    0    0    0    0 -0.00000000000E+00 -0.00000000000E+00 -0.45593999997E+02  0.45594000000E+02  0.51100000000E-03 0.  1.
    9900012    2    1    2    0    0  0.21641712646E+02  0.12063189038E+02 -0.32237883826E+02  0.50528863148E+02  0.30000010023E+02 0.  0.
         12    1    1    2    0    0 -0.21641712646E+02 -0.12063189038E+02  0.32237883826E+02  0.40659136852E+02  0.00000000000E+00 0. -1.
         11    1    3    3    0    0  0.16983453151E+02  0.15206486611E+02 -0.32582251771E+02  0.39765286956E+02  0.51100000000E-03 0.  1.
        -11    1    3    3    0    0 -0.27039956520E+01 -0.17884904037E+01  0.47495185150E+00  0.32765637385E+01  0.51100000000E-03 0. -1.
         12    1    3    3    0    0  0.73622551464E+01 -0.13548071701E+01 -0.13058390674E+00  0.74870124526E+01  0.00000000000E+00 0. -1.
</event>
<event>
 7    1  0.5764931E-013  0.5052885E+02  0.7816164E-02  0.1300439E+00
        -11   -1    0    0    0    0  0.00000000000E+00  0.00000000000E+00  0.45593999997E+02  0.45594000000E+02  0.51100000000E-03 0.  1.
         11   -1    0    0    0    0 -0.00000000000E+00 -0.00000000000E+00 -0.45593999997E+02  0.45594000000E+02  0.51100000000E-03 0. -1.
    9900012    2    1    2    0    0 -0.21481931698E+02  0.16197664046E+02  0.30484892893E+02  0.50528850910E+02  0.29999972825E+02 0.  0.
         12    1    1    2    0    0  0.21481931698E+02 -0.16197664046E+02 -0.30484892893E+02  0.40659149090E+02  0.00000000000E+00 0. -1.
         11    1    3    3    0    0  0.78659527220E+00  0.83164793653E+01  0.14362966974E+02  0.16615576478E+02  0.51100000000E-03 0. -1.
        -11    1    3    3    0    0 -0.15832365190E+02  0.13831676478E+02  0.10496405387E+02  0.23497948592E+02  0.51100000000E-03 0.  1.
         12    1    3    3    0    0 -0.64361617797E+01 -0.59504917971E+01  0.56255205322E+01  0.10415325839E+02  0.00000000000E+00 0. -1.
</event>
<event>
 7    1  0.5764931E-013  0.5052886E+02  0.7816164E-02  0.1300439E+00
        -11   -1    0    0    0    0  0.00000000000E+00  0.00000000000E+00  0.45593999997E+02  0.45594000000E+02  0.51100000000E-03 0.  1.
         11   -1    0    0    0    0 -0.00000000000E+00 -0.00000000000E+00 -0.45593999997E+02  0.45594000000E+02  0.51100000000E-03 0. -1.
    9900012    2    1    2    0    0  0.31847168532E+02 -0.73412124268E+01  0.24187388713E+02  0.50528864297E+02  0.30000013516E+02 0.  0.
         12    1    1    2    0    0 -0.31847168532E+02  0.73412124268E+01 -0.24187388713E+02  0.40659135703E+02  0.00000000000E+00 0. -1.
         11    1    3    3    0    0  0.22859030771E+02 -0.11839174154E+01  0.39324864875E-01  0.22889702815E+02  0.51100000000E-03 0. -1.
        -11    1    3    3    0    0  0.86685538530E+01 -0.17961164431E+01  0.18380484054E+02  0.20401275806E+02  0.51100000000E-03 0.  1.
         12    1    3    3    0    0  0.31958390749E+00 -0.43611785682E+01  0.57675797946E+01  0.72378856764E+01  0.00000000000E+00 0. -1.
</event>
<event>
 7    1  0.5764931E-013  0.5052886E+02  0.7816164E-02  0.1300439E+00
        -11   -1    0    0    0    0  0.00000000000E+00  0.00000000000E+00  0.45593999997E+02  0.45594000000E+02  0.51100000000E-03 0.  1.
         11   -1    0    0    0    0 -0.00000000000E+00 -0.00000000000E+00 -0.45593999997E+02  0.45594000000E+02  0.51100000000E-03 0. -1.
    9900012    2    1    2    0    0 -0.56764131088E+01 -0.22708822822E+02  0.33245346365E+02  0.50528863823E+02  0.30000012075E+02 0.  0.
         12    1    1    2    0    0  0.56764131088E+01  0.22708822822E+02 -0.33245346365E+02  0.40659136177E+02  0.00000000000E+00 0. -1.
         11    1    3    3    0    0 -0.60709028202E+01 -0.46544697683E+01  0.21765715065E+02  0.23070897305E+02  0.51100000000E-03 0. -1.
        -11    1    3    3    0    0  0.50860616091E+01 -0.16359090389E+02  0.13759723155E+02  0.21973116361E+02  0.51100000000E-03 0.  1.
         12    1    3    3    0    0 -0.46915718977E+01 -0.16952626648E+01 -0.22800918552E+01  0.54848501567E+01  0.00000000000E+00 0. -1.
</event>
<event>
 7    1  0.5764931E-013  0.5052886E+02  0.7816164E-02  0.1300439E+00
        -11   -1    0    0    0    0  0.00000000000E+00  0.00000000000E+00  0.45593999997E+02  0.45594000000E+02  0.51100000000E-03 0.  1.
         11   -1    0    0    0    0 -0.00000000000E+00 -0.00000000000E+00 -0.45593999997E+02  0.45594000000E+02  0.51100000000E-03 0. -1.
    9900012    2    1    2    0    0 -0.28191042184E+02 -0.12174309060E+02  0.26649889492E+02  0.50528864859E+02  0.30000015225E+02 0.  0.
         12    1    1    2    0    0  0.28191042184E+02  0.12174309060E+02 -0.26649889492E+02  0.40659135141E+02  0.00000000000E+00 0. -1.
         11    1    3    3    0    0 -0.11856926016E+01  0.34346450363E+01  0.10234689503E+02  0.10860548925E+02  0.51100000000E-03 0. -1.
        -11    1    3    3    0    0 -0.12155264195E+02 -0.10154976526E+02 -0.13304985674E+01  0.15894786019E+02  0.51100000000E-03 0.  1.
        -12    1    3    3    0    0 -0.14850085388E+02 -0.54539775703E+01  0.17745698556E+02  0.23773529915E+02  0.00000000000E+00 0.  1.
</event>
<event>
 7    1  0.5764931E-013  0.5052886E+02  0.7816164E-02  0.1300439E+00
        -11   -1    0    0    0    0  0.00000000000E+00  0.00000000000E+00  0.45593999997E+02  0.45594000000E+02  0.51100000000E-03 0.  1.
         11   -1    0    0    0    0 -0.00000000000E+00 -0.00000000000E+00 -0.45593999997E+02  0.45594000000E+02  0.51100000000E-03 0. -1.
    9900012    2    1    2    0    0  0.74294128887E+01  0.91160582068E+01  0.38921289919E+02  0.50528862010E+02  0.30000006567E+02 0.  0.
         12    1    1    2    0    0 -0.74294128887E+01 -0.91160582068E+01 -0.38921289919E+02  0.40659137990E+02  0.00000000000E+00 0. -1.
         11    1    3    3    0    0 -0.18852098822E+01  0.12329682363E+02  0.92226520718E+01  0.15512330417E+02  0.51100000000E-03 0. -1.
        -11    1    3    3    0    0  0.10308253668E+02 -0.30379418212E+01  0.31316888527E+02  0.33109465285E+02  0.51100000000E-03 0.  1.
         12    1    3    3    0    0 -0.99363089732E+00 -0.17568233482E+00 -0.16182506796E+01  0.19070663084E+01  0.00000000000E+00 0. -1.
</event>
<event>
 7    1  0.6757335E-013  0.5052885E+02  0.7816164E-02  0.1300439E+00
        -11   -1    0    0    0    0  0.00000000000E+00  0.00000000000E+00  0.45593999997E+02  0.45594000000E+02  0.51100000000E-03 0. -1.
         11   -1    0    0    0    0 -0.00000000000E+00 -0.00000000000E+00 -0.45593999997E+02  0.45594000000E+02  0.51100000000E-03 0.  1.
    9900012    2    1    2    0    0  0.54749238366E+01  0.38005841181E+02  0.13369658817E+02  0.50528849347E+02  0.29999968076E+02 0.  0.
         12    1    1    2    0    0 -0.54749238366E+01 -0.38005841181E+02 -0.13369658817E+02  0.40659150653E+02  0.00000000000E+00 0. -1.
         11    1    3    3    0    0 -0.16723229986E+01  0.44115869674E+01 -0.61920047639E+01  0.77845800811E+01  0.51100000000E-03 0. -1.
        -11    1    3    3    0    0  0.17507535642E+01  0.30740176936E+02  0.19847915191E+02  0.36632817989E+02  0.51100000000E-03 0.  1.
        -12    1    3    3    0    0  0.53964932710E+01  0.28540772778E+01 -0.28625161039E+00  0.61114512774E+01  0.00000000000E+00 0.  1.
</event>
<event>
 7    1  0.5764931E-013  0.5052886E+02  0.7816164E-02  0.1300439E+00
        -11   -1    0    0    0    0  0.00000000000E+00  0.00000000000E+00  0.45593999997E+02  0.45594000000E+02  0.51100000000E-03 0. -1.
         11   -1    0    0    0    0 -0.00000000000E+00 -0.00000000000E+00 -0.45593999997E+02  0.45594000000E+02  0.51100000000E-03 0.  1.
    9900012    2    1    2    0    0  0.21059149851E+02 -0.34760748229E+02 -0.11696179200E+01  0.50528863069E+02  0.30000009785E+02 0.  0.
         12    1    1    2    0    0 -0.21059149851E+02  0.34760748229E+02  0.11696179200E+01  0.40659136931E+02  0.00000000000E+00 0. -1.
         11    1    3    3    0    0  0.16785515286E+02 -0.24622663723E+01  0.96136249363E+00  0.16992365851E+02  0.51100000000E-03 0.  1.
        -11    1    3    3    0    0  0.41913758331E+01 -0.32381792486E+02 -0.28797144688E+01  0.32778664885E+02  0.51100000000E-03 0. -1.
        -12    1    3    3    0    0  0.82258731573E-01  0.83310628843E-01  0.74873405514E+00  0.75783233312E+00  0.00000000000E+00 0.  1.
</event>
<event>
 7    1  0.5764931E-013  0.5052886E+02  0.7816164E-02  0.1300439E+00
        -11   -1    0    0    0    0  0.00000000000E+00  0.00000000000E+00  0.45593999997E+02  0.45594000000E+02  0.51100000000E-03 0. -1.
         11   -1    0    0    0    0 -0.00000000000E+00 -0.00000000000E+00 -0.45593999997E+02  0.45594000000E+02  0.51100000000E-03 0.  1.
    9900012    2    1    2    0    0  0.29036317258E+02 -0.20731884409E+02 -0.19499915932E+02  0.50528862375E+02  0.30000007675E+02 0.  0.
         12    1    1    2    0    0 -0.29036317258E+02  0.20731884409E+02  0.19499915932E+02  0.40659137625E+02  0.00000000000E+00 0. -1.
         11    1    3    3    0    0  0.11628694467E+02  0.11975162416E+01 -0.85168336826E+01  0.14463645336E+02  0.51100000000E-03 0. -1.
        -11    1    3    3    0    0  0.49321755608E+01 -0.21287479026E+02 -0.73808257644E+01  0.23064251739E+02  0.51100000000E-03 0.  1.
        -12    1    3    3    0    0  0.12475447230E+02 -0.64192162441E+00 -0.36022564852E+01  0.13000965300E+02  0.00000000000E+00 0.  1.
</event>
<event>
 7    1  0.5764931E-013  0.5052886E+02  0.7816164E-02  0.1300439E+00
        -11   -1    0    0    0    0  0.00000000000E+00  0.00000000000E+00  0.45593999997E+02  0.45594000000E+02  0.51100000000E-03 0. -1.
         11   -1    0    0    0    0 -0.00000000000E+00 -0.00000000000E+00 -0.45593999997E+02  0.45594000000E+02  0.51100000000E-03 0.  1.
    9900012    2    1    2    0    0 -0.17211984367E+02 -0.31250191701E+02 -0.19502278614E+02  0.50528858859E+02  0.29999996988E+02 0.  0.
         12    1    1    2    0    0  0.17211984367E+02  0.31250191701E+02  0.19502278614E+02  0.40659141141E+02  0.00000000000E+00 0. -1.
         11    1    3    3    0    0 -0.14869781195E+02 -0.63962113422E+01 -0.17060340657E+02  0.23517592052E+02  0.51100000000E-03 0. -1.
        -11    1    3    3    0    0  0.12646620732E+01 -0.22614691918E+02 -0.22494207715E+01  0.22761448872E+02  0.51100000000E-03 0.  1.
        -12    1    3    3    0    0 -0.36068652450E+01 -0.22392884409E+01 -0.19251718579E+00  0.42498179353E+01  0.00000000000E+00 0.  1.
</event>
<event>
 7    1  0.5764931E-013  0.5052885E+02  0.7816164E-02  0.1300439E+00
        -11   -1    0    0    0    0  0.00000000000E+00  0.00000000000E+00  0.45593999997E+02  0.45594000000E+02  0.51100000000E-03 0.  1.
         11   -1    0    0    0    0 -0.00000000000E+00 -0.00000000000E+00 -0.45593999997E+02  0.45594000000E+02  0.51100000000E-03 0. -1.
    9900012    2    1    2    0    0 -0.11531470899E+02  0.38652144434E+02 -0.51188913774E+01  0.50528854173E+02  0.29999982743E+02 0.  0.
         12    1    1    2    0    0  0.11531470899E+02 -0.38652144434E+02  0.51188913774E+01  0.40659145827E+02  0.00000000000E+00 0. -1.
         11    1    3    3    0    0 -0.72143277993E+01  0.18840441883E+02 -0.13873960443E+02  0.24484598313E+02  0.51100000000E-03 0. -1.
        -11    1    3    3    0    0 -0.63505714503E+01  0.65618739066E+01  0.87386355537E+01  0.12639291852E+02  0.51100000000E-03 0.  1.
        -12    1    3    3    0    0  0.20334283509E+01  0.13249828645E+02  0.16433512013E-01  0.13404964008E+02  0.00000000000E+00 0.  1.
</event>
<event>
 7    1  0.5764931E-013  0.5052886E+02  0.7816164E-02  0.1300439E+00
        -11   -1    0    0    0    0  0.00000000000E+00  0.00000000000E+00  0.45593999997E+02  0.45594000000E+02  0.51100000000E-03 0. -1.
         11   -1    0    0    0    0 -0.00000000000E+00 -0.00000000000E+00 -0.45593999997E+02  0.45594000000E+02  0.51100000000E-03 0.  1.
    9900012    2    1    2    0    0  0.36966267986E+02  0.16900806964E+02 -0.10115972810E+01  0.50528861127E+02  0.30000003881E+02 0.  0.
         12    1    1    2    0    0 -0.36966267986E+02 -0.16900806964E+02  0.10115972810E+01  0.40659138873E+02  0.00000000000E+00 0. -1.
         11    1    3    3    0    0  0.12867527066E-01  0.70491492377E+00  0.54814987058E+01  0.55266535033E+01  0.51100000000E-03 0. -1.
        -11    1    3    3    0    0  0.20928152466E+02  0.25203211470E+01 -0.10511924236E+02  0.23555044805E+02  0.51100000000E-03 0.  1.
        -12    1    3    3    0    0  0.16025247993E+02  0.13675570893E+02  0.40188282494E+01  0.21447162819E+02  0.00000000000E+00 0.  1.
</event>
<event>
 7    1  0.5764931E-013  0.5052887E+02  0.7816164E-02  0.1300439E+00
        -11   -1    0    0    0    0  0.00000000000E+00  0.00000000000E+00  0.45593999997E+02  0.45594000000E+02  0.51100000000E-03 0.  1.
         11   -1    0    0    0    0 -0.00000000000E+00 -0.00000000000E+00 -0.45593999997E+02  0.45594000000E+02  0.51100000000E-03 0. -1.
    9900012    2    1    2    0    0  0.22050280406E+02  0.20088728440E+01  0.34101535714E+02  0.50528866043E+02  0.30000018823E+02 0.  0.
         12    1    1    2    0    0 -0.22050280406E+02 -0.20088728440E+01 -0.34101535714E+02  0.40659133957E+02  0.00000000000E+00 0. -1.
         11    1    3    3    0    0  0.17040266038E+02  0.79383924067E+00  0.13038351258E+02  0.21470897773E+02  0.51100000000E-03 0. -1.
        -11    1    3    3    0    0 -0.63758608505E+01 -0.32546150642E+01  0.44548988349E+01  0.84315031098E+01  0.51100000000E-03 0.  1.
        -12    1    3    3    0    0  0.11385875219E+02  0.44696486675E+01  0.16608285621E+02  0.20626465160E+02  0.00000000000E+00 0.  1.
</event>
<event>
 7    1  0.5764931E-013  0.5052886E+02  0.7816164E-02  0.1300439E+00
        -11   -1    0    0    0    0  0.00000000000E+00  0.00000000000E+00  0.45593999997E+02  0.45594000000E+02  0.51100000000E-03 0.  1.
         11   -1    0    0    0    0 -0.00000000000E+00 -0.00000000000E+00 -0.45593999997E+02  0.45594000000E+02  0.51100000000E-03 0. -1.
    9900012    2    1    2    0    0  0.14972162436E+02 -0.10625211618E+02  0.36278165017E+02  0.50528855556E+02  0.29999986947E+02 0.  0.
         12    1    1    2    0    0 -0.14972162436E+02  0.10625211618E+02 -0.36278165017E+02  0.40659144444E+02  0.00000000000E+00 0. -1.
         11    1    3    3    0    0  0.59245792987E+01 -0.61844665745E+01 -0.31973184631E+00  0.85703264461E+01  0.51100000000E-03 0. -1.
        -11    1    3    3    0    0  0.11294535207E+02 -0.39113913646E+01  0.37590995353E+02  0.39445512291E+02  0.51100000000E-03 0.  1.
        -12    1    3    3    0    0 -0.22469520695E+01 -0.52935367918E+00 -0.99309849012E+00  0.25130168187E+01  0.00000000000E+00 0.  1.
</event>
<event>
 7    1  0.5764931E-013  0.5052886E+02  0.7816164E-02  0.1300439E+00
        -11   -1    0    0    0    0  0.00000000000E+00  0.00000000000E+00  0.45593999997E+02  0.45594000000E+02  0.51100000000E-03 0.  1.
         11   -1    0    0    0    0 -0.00000000000E+00 -0.00000000000E+00 -0.45593999997E+02  0.45594000000E+02  0.51100000000E-03 0. -1.
    9900012    2    1    2    0    0 -0.11629230504E+01 -0.38232319999E+02  0.13787782527E+02  0.50528860442E+02  0.30000001801E+02 0.  0.
         12    1    1    2    0    0  0.11629230504E+01  0.38232319999E+02 -0.13787782527E+02  0.40659139558E+02  0.00000000000E+00 0. -1.
         11    1    3    3    0    0 -0.11331536394E+02 -0.37874973542E+01 -0.19533267015E+00  0.11949351797E+02  0.51100000000E-03 0. -1.
        -11    1    3    3    0    0  0.59548100389E+01 -0.17150049501E+02  0.69109462412E+01  0.19425373579E+02  0.51100000000E-03 0.  1.
         12    1    3    3    0    0  0.42138033045E+01 -0.17294773144E+02  0.70721689562E+01  0.19154135067E+02  0.00000000000E+00 0. -1.
</event>
<event>
 7    1  0.5764931E-013  0.5052886E+02  0.7816164E-02  0.1300439E+00
        -11   -1    0    0    0    0  0.00000000000E+00  0.00000000000E+00  0.45593999997E+02  0.45594000000E+02  0.51100000000E-03 0.  1.
         11   -1    0    0    0    0 -0.00000000000E+00 -0.00000000000E+00 -0.45593999997E+02  0.45594000000E+02  0.51100000000E-03 0. -1.
    9900012    2    1    2    0    0  0.27165635945E+02  0.13244887381E+02  0.27198661227E+02  0.50528856003E+02  0.29999988307E+02 0.  0.
         12    1    1    2    0    0 -0.27165635945E+02 -0.13244887381E+02 -0.27198661227E+02  0.40659143997E+02  0.00000000000E+00 0. -1.
         11    1    3    3    0    0  0.16501667706E+02  0.95270629280E+01 -0.16172228834E+01  0.19122901851E+02  0.51100000000E-03 0. -1.
        -11    1    3    3    0    0  0.57560036889E+01  0.18762939762E+01  0.85717987641E+01  0.10494178951E+02  0.51100000000E-03 0.  1.
         12    1    3    3    0    0  0.49079645500E+01  0.18415304769E+01  0.20244085346E+02  0.20911775200E+02  0.00000000000E+00 0. -1.
</event>
<event>
 7    1  0.5764931E-013  0.5052883E+02  0.7816164E-02  0.1300439E+00
        -11   -1    0    0    0    0  0.00000000000E+00  0.00000000000E+00  0.45593999997E+02  0.45594000000E+02  0.51100000000E-03 0. -1.
         11   -1    0    0    0    0 -0.00000000000E+00 -0.00000000000E+00 -0.45593999997E+02  0.45594000000E+02  0.51100000000E-03 0.  1.
    9900012    2    1    2    0    0 -0.35135718254E+02  0.26150599333E+01 -0.20293133516E+02  0.50528825099E+02  0.29999894372E+02 0.  0.
         12    1    1    2    0    0  0.35135718254E+02 -0.26150599333E+01  0.20293133516E+02  0.40659174901E+02  0.00000000000E+00 0. -1.
         11    1    3    3    0    0 -0.17815513412E+02  0.12870885889E+02 -0.19771516918E+02  0.29562900792E+02  0.51100000000E-03 0. -1.
        -11    1    3    3    0    0 -0.12577020322E+02 -0.44986501004E+01  0.83793590058E+00  0.13383625434E+02  0.51100000000E-03 0.  1.
         12    1    3    3    0    0 -0.47431845196E+01 -0.57571758557E+01 -0.13595524992E+01  0.75822988742E+01  0.00000000000E+00 0. -1.
</event>
<event>
 7    1  0.5764931E-013  0.5052886E+02  0.7816164E-02  0.1300439E+00
        -11   -1    0    0    0    0  0.00000000000E+00  0.00000000000E+00  0.45593999997E+02  0.45594000000E+02  0.51100000000E-03 0.  1.
         11   -1    0    0    0    0 -0.00000000000E+00 -0.00000000000E+00 -0.45593999997E+02  0.45594000000E+02  0.51100000000E-03 0. -1.
    9900012    2    1    2    0    0 -0.19845570005E+02 -0.43778461066E+01  0.35215811626E+02  0.50528861128E+02  0.30000003885E+02 0.  0.
         12    1    1    2    0    0  0.19845570005E+02  0.43778461066E+01 -0.35215811626E+02  0.40659138872E+02  0.00000000000E+00 0. -1.
         11    1    3    3    0    0 -0.58544910300E+01  0.46172632091E+01  0.16746017846E+02  0.18330938293E+02  0.51100000000E-03 0.  1.
        -11    1    3    3    0    0 -0.18523236087E+02 -0.39181737055E+01  0.10260880341E+02  0.21534809634E+02  0.51100000000E-03 0. -1.
        -12    1    3    3    0    0  0.45321571126E+01 -0.50769356101E+01  0.82089134395E+01  0.10663113201E+02  0.00000000000E+00 0.  1.
</event>
<event>
 7    1  0.5764931E-013  0.5052885E+02  0.7816164E-02  0.1300439E+00
        -11   -1    0    0    0    0  0.00000000000E+00  0.00000000000E+00  0.45593999997E+02  0.45594000000E+02  0.51100000000E-03 0. -1.
         11   -1    0    0    0    0 -0.00000000000E+00 -0.00000000000E+00 -0.45593999997E+02  0.45594000000E+02  0.51100000000E-03 0.  1.
    9900012    2    1    2    0    0  0.16755169917E+02 -0.11453665353E+02 -0.35231292657E+02  0.50528854027E+02  0.29999982300E+02 0.  0.
         12    1    1    2    0    0 -0.16755169917E+02  0.11453665353E+02  0.35231292657E+02  0.40659145973E+02  0.00000000000E+00 0. -1.
         11    1    3    3    0    0 -0.25511342855E+01 -0.13360073944E+01  0.38952835757E+01  0.48442167888E+01  0.51100000000E-03 0. -1.
        -11    1    3    3    0    0  0.14878528371E+02 -0.54816813269E+01 -0.20064827055E+02  0.25573750637E+02  0.51100000000E-03 0.  1.
         12    1    3    3    0    0  0.44277758323E+01 -0.46359766313E+01 -0.19061749178E+02  0.20110886601E+02  0.00000000000E+00 0. -1.
</event>
<event>
 7    1  0.5764931E-013  0.5052888E+02  0.7816164E-02  0.1300439E+00
        -11   -1    0    0    0    0  0.00000000000E+00  0.00000000000E+00  0.45593999997E+02  0.45594000000E+02  0.51100000000E-03 0.  1.
         11   -1    0    0    0    0 -0.00000000000E+00 -0.00000000000E+00 -0.45593999997E+02  0.45594000000E+02  0.51100000000E-03 0. -1.
    9900012    2    1    2    0    0 -0.31992488589E+02  0.18149909912E+02  0.17327027237E+02  0.50528875209E+02  0.30000046686E+02 0.  0.
         12    1    1    2    0    0  0.31992488589E+02 -0.18149909912E+02 -0.17327027237E+02  0.40659124791E+02  0.00000000000E+00 0. -1.
         11    1    3    3    0    0 -0.63000857909E+00  0.61915335267E+01  0.56546350206E+01  0.84087392455E+01  0.51100000000E-03 0. -1.
        -11    1    3    3    0    0 -0.88406662804E+01  0.22436362856E+00 -0.64294315751E+01  0.10933677787E+02  0.51100000000E-03 0.  1.
        -12    1    3    3    0    0 -0.22521813729E+02  0.11734012757E+02  0.18101823791E+02  0.31186458176E+02  0.00000000000E+00 0.  1.
</event>
<event>
 7    1  0.5764931E-013  0.5052886E+02  0.7816164E-02  0.1300439E+00
        -11   -1    0    0    0    0  0.00000000000E+00  0.00000000000E+00  0.45593999997E+02  0.45594000000E+02  0.51100000000E-03 0. -1.
         11   -1    0    0    0    0 -0.00000000000E+00 -0.00000000000E+00 -0.45593999997E+02  0.45594000000E+02  0.51100000000E-03 0.  1.
    9900012    2    1    2    0    0 -0.31757357871E+02  0.21840004695E+02 -0.12947988318E+02  0.50528856065E+02  0.29999988495E+02 0.  0.
         12    1    1    2    0    0  0.31757357871E+02 -0.21840004695E+02  0.12947988318E+02  0.40659143935E+02  0.00000000000E+00 0. -1.
         11    1    3    3    0    0  0.21252734329E+01  0.75492970960E+01  0.43674616296E+01  0.89768254498E+01  0.51100000000E-03 0. -1.
        -11    1    3    3    0    0 -0.13145345101E+02  0.80906888847E+01 -0.11166524299E+02  0.19051262679E+02  0.51100000000E-03 0.  1.
         12    1    3    3    0    0 -0.20737286203E+02  0.62000187145E+01 -0.61489256484E+01  0.22500767937E+02  0.00000000000E+00 0. -1.
</event>
<event>
 7    1  0.5764931E-013  0.5052887E+02  0.7816164E-02  0.1300439E+00
        -11   -1    0    0    0    0  0.00000000000E+00  0.00000000000E+00  0.45593999997E+02  0.45594000000E+02  0.51100000000E-03 0. -1.
         11   -1    0    0    0    0 -0.00000000000E+00 -0.00000000000E+00 -0.45593999997E+02  0.45594000000E+02  0.51100000000E-03 0.  1.
    9900012    2    1    2    0    0  0.18493449977E+02  0.35952662946E+02 -0.43085454872E+01  0.50528865366E+02  0.30000016768E+02 0.  0.
         12    1    1    2    0    0 -0.18493449977E+02 -0.35952662946E+02  0.43085454872E+01  0.40659134634E+02  0.00000000000E+00 0. -1.
         11    1    3    3    0    0 -0.48446352811E+01  0.65249872261E+01  0.31120422236E+01  0.87023420049E+01  0.51100000000E-03 0. -1.
        -11    1    3    3    0    0  0.19085702702E+02  0.25905862129E+02 -0.12309799231E+02  0.34451544198E+02  0.51100000000E-03 0.  1.
         12    1    3    3    0    0  0.42523825559E+01  0.35218135905E+01  0.48892115200E+01  0.73749791630E+01  0.00000000000E+00 0. -1.
</event>
<event>
 7    1  0.5764931E-013  0.5052886E+02  0.7816164E-02  0.1300439E+00
        -11   -1    0    0    0    0  0.00000000000E+00  0.00000000000E+00  0.45593999997E+02  0.45594000000E+02  0.51100000000E-03 0.  1.
         11   -1    0    0    0    0 -0.00000000000E+00 -0.00000000000E+00 -0.45593999997E+02  0.45594000000E+02  0.51100000000E-03 0. -1.
    9900012    2    1    2    0    0 -0.20496337968E+02  0.35114720266E+02 -0.14908434414E+00  0.50528859877E+02  0.30000000081E+02 0.  0.
         12    1    1    2    0    0  0.20496337968E+02 -0.35114720266E+02  0.14908434414E+00  0.40659140123E+02  0.00000000000E+00 0. -1.
         11    1    3    3    0    0 -0.29063983234E+01  0.13254699554E+01 -0.29522651394E+01  0.43497001657E+01  0.51100000000E-03 0. -1.
        -11    1    3    3    0    0  0.56181042617E+01  0.15679709394E+02  0.89604182310E+00  0.16679906277E+02  0.51100000000E-03 0.  1.
        -12    1    3    3    0    0 -0.23208043906E+02  0.18109540916E+02  0.19071389722E+01  0.29499253434E+02  0.00000000000E+00 0.  1.
</event>
<event>
 7    1  0.5764931E-013  0.5052886E+02  0.7816164E-02  0.1300439E+00
        -11   -1    0    0    0    0  0.00000000000E+00  0.00000000000E+00  0.45593999997E+02  0.45594000000E+02  0.51100000000E-03 0. -1.
         11   -1    0    0    0    0 -0.00000000000E+00 -0.00000000000E+00 -0.45593999997E+02  0.45594000000E+02  0.51100000000E-03 0.  1.
    9900012    2    1    2    0    0 -0.36991774012E+02  0.34417349371E+01 -0.16520552214E+02  0.50528861674E+02  0.30000005545E+02 0.  0.
         12    1    1    2    0    0  0.36991774012E+02 -0.34417349371E+01  0.16520552214E+02  0.40659138326E+02  0.00000000000E+00 0. -1.
         11    1    3    3    0    0 -0.20531142652E+02  0.10544372580E+02 -0.14266387062E+01  0.23124595347E+02  0.51100000000E-03 0. -1.
        -11    1    3    3    0    0 -0.36877133790E+00  0.13344475880E+01 -0.76412658664E+01  0.77656736325E+01  0.51100000000E-03 0.  1.
         12    1    3    3    0    0 -0.16091860023E+02 -0.84370852311E+01 -0.74526476413E+01  0.19638592695E+02  0.00000000000E+00 0. -1.
</event>
<event>
 7    1  0.5764931E-013  0.5052886E+02  0.7816164E-02  0.1300439E+00
        -11   -1    0    0    0    0  0.00000000000E+00  0.00000000000E+00  0.45593999997E+02  0.45594000000E+02  0.51100000000E-03 0.  1.
         11   -1    0    0    0    0 -0.00000000000E+00 -0.00000000000E+00 -0.45593999997E+02  0.45594000000E+02  0.51100000000E-03 0. -1.
    9900012    2    1    2    0    0 -0.86598865771E+01  0.13862369072E+02  0.37229114354E+02  0.50528857518E+02  0.29999992912E+02 0.  0.
         12    1    1    2    0    0  0.86598865771E+01 -0.13862369072E+02 -0.37229114354E+02  0.40659142482E+02  0.00000000000E+00 0. -1.
         11    1    3    3    0    0 -0.40476728544E+01  0.23771513226E+01  0.65546569026E+01  0.80621356550E+01  0.51100000000E-03 0. -1.
        -11    1    3    3    0    0  0.10279983306E+02 -0.36217793411E+00  0.95727007123E+01  0.14051541866E+02  0.51100000000E-03 0.  1.
        -12    1    3    3    0    0 -0.14892197029E+02  0.11847395683E+02  0.21101756739E+02  0.28415179997E+02  0.00000000000E+00 0.  1.
</event>
<event>
 7    1  0.5764931E-013  0.5052888E+02  0.7816164E-02  0.1300439E+00
        -11   -1    0    0    0    0  0.00000000000E+00  0.00000000000E+00  0.45593999997E+02  0.45594000000E+02  0.51100000000E-03 0.  1.
         11   -1    0    0    0    0 -0.00000000000E+00 -0.00000000000E+00 -0.45593999997E+02  0.45594000000E+02  0.51100000000E-03 0. -1.
    9900012    2    1    2    0    0  0.30957103619E+02 -0.23332494073E+02  0.12264452945E+02  0.50528876175E+02  0.30000049622E+02 0.  0.
         12    1    1    2    0    0 -0.30957103619E+02  0.23332494073E+02 -0.12264452945E+02  0.40659123825E+02  0.00000000000E+00 0. -1.
         11    1    3    3    0    0  0.22996953691E+02 -0.26416757651E+02  0.11802531882E+02  0.36959501119E+02  0.51100000000E-03 0. -1.
        -11    1    3    3    0    0  0.97514648794E+01  0.13084046252E+01  0.26941946813E+01  0.10201062454E+02  0.51100000000E-03 0.  1.
         12    1    3    3    0    0 -0.17913149514E+01  0.17758589533E+01 -0.22322736180E+01  0.33683126017E+01  0.00000000000E+00 0. -1.
</event>
<event>
 7    1  0.5764931E-013  0.5052888E+02  0.7816164E-02  0.1300439E+00
        -11   -1    0    0    0    0  0.00000000000E+00  0.00000000000E+00  0.45593999997E+02  0.45594000000E+02  0.51100000000E-03 0.  1.
         11   -1    0    0    0    0 -0.00000000000E+00 -0.00000000000E+00 -0.45593999997E+02  0.45594000000E+02  0.51100000000E-03 0. -1.
    9900012    2    1    2    0    0 -0.21260362248E+02 -0.24043003920E+02  0.24961868300E+02  0.50528881595E+02  0.30000066096E+02 0.  0.
         12    1    1    2    0    0  0.21260362248E+02  0.24043003920E+02 -0.24961868300E+02  0.40659118405E+02  0.00000000000E+00 0. -1.
         11    1    3    3    0    0 -0.12944892151E+02  0.82201745403E+00  0.44612465521E+00  0.12978635251E+02  0.51100000000E-03 0.  1.
        -11    1    3    3    0    0 -0.43167638987E+01 -0.43702816877E+01  0.11231585316E+02  0.12801653079E+02  0.51100000000E-03 0. -1.
         12    1    3    3    0    0 -0.39987061979E+01 -0.20494739687E+02  0.13284158330E+02  0.24748593265E+02  0.00000000000E+00 0. -1.
</event>
<event>
 7    1  0.5764931E-013  0.5052886E+02  0.7816164E-02  0.1300439E+00
        -11   -1    0    0    0    0  0.00000000000E+00  0.00000000000E+00  0.45593999997E+02  0.45594000000E+02  0.51100000000E-03 0. -1.
         11   -1    0    0    0    0 -0.00000000000E+00 -0.00000000000E+00 -0.45593999997E+02  0.45594000000E+02  0.51100000000E-03 0.  1.
    9900012    2    1    2    0    0  0.65183666691E+01 -0.39846306729E+02 -0.47904671410E+01  0.50528857862E+02  0.29999993956E+02 0.  0.
         12    1    1    2    0    0 -0.65183666691E+01  0.39846306729E+02  0.47904671410E+01  0.40659142138E+02  0.00000000000E+00 0. -1.
         11    1    3    3    0    0 -0.51710288083E+01 -0.79265572089E+01  0.24578347259E+01  0.97780775167E+01  0.51100000000E-03 0. -1.
        -11    1    3    3    0    0  0.13899421155E+02 -0.34145678979E+02 -0.58950678522E+01  0.37334610304E+02  0.51100000000E-03 0.  1.
         12    1    3    3    0    0 -0.22100256773E+01  0.22259294580E+01 -0.13532340147E+01  0.34161700404E+01  0.00000000000E+00 0. -1.
</event>
<event>
 7    1  0.5764931E-013  0.5052886E+02  0.7816164E-02  0.1300439E+00
        -11   -1    0    0    0    0  0.00000000000E+00  0.00000000000E+00  0.45593999997E+02  0.45594000000E+02  0.51100000000E-03 0.  1.
         11   -1    0    0    0    0 -0.00000000000E+00 -0.00000000000E+00 -0.45593999997E+02  0.45594000000E+02  0.51100000000E-03 0. -1.
    9900012    2    1    2    0    0 -0.28974488051E-01 -0.18116826081E+01  0.40618749397E+02  0.50528857904E+02  0.29999994086E+02 0.  0.
         12    1    1    2    0    0  0.28974488051E-01  0.18116826081E+01 -0.40618749397E+02  0.40659142096E+02  0.00000000000E+00 0. -1.
         11    1    3    3    0    0 -0.50324492705E+01  0.49307074367E+01 -0.17134661755E+01  0.72507508633E+01  0.51100000000E-03 0. -1.
        -11    1    3    3    0    0  0.43974406681E+01 -0.34958983373E+01  0.29319865961E+02  0.29853196309E+02  0.51100000000E-03 0.  1.
         12    1    3    3    0    0  0.60603411438E+00 -0.32464917076E+01  0.13012349611E+02  0.13424910732E+02  0.00000000000E+00 0. -1.
</event>
<event>
 7    1  0.5764931E-013  0.5052885E+02  0.7816164E-02  0.1300439E+00
        -11   -1    0    0    0    0  0.00000000000E+00  0.00000000000E+00  0.45593999997E+02  0.45594000000E+02  0.51100000000E-03 0. -1.
         11   -1    0    0    0    0 -0.00000000000E+00 -0.00000000000E+00 -0.45593999997E+02  0.45594000000E+02  0.51100000000E-03 0.  1.
    9900012    2    1    2    0    0  0.18688773558E+02 -0.35067893547E+01 -0.35938813211E+02  0.50528854366E+02  0.29999983332E+02 0.  0.
         12    1    1    2    0    0 -0.18688773558E+02  0.35067893547E+01  0.35938813211E+02  0.40659145634E+02  0.00000000000E+00 0. -1.
         11    1    3    3    0    0  0.44038818521E+01 -0.45342878096E+00 -0.11564176668E+02  0.12382647346E+02  0.51100000000E-03 0.  1.
        -11    1    3    3    0    0 -0.58011452712E+01 -0.66555494604E+01 -0.58969454092E+01  0.10617136643E+02  0.51100000000E-03 0. -1.
        -12    1    3    3    0    0  0.20086036977E+02  0.36021888866E+01 -0.18477691134E+02  0.27529070377E+02  0.00000000000E+00 0.  1.
</event>
<event>
 7    1  0.5764931E-013  0.5052889E+02  0.7816164E-02  0.1300439E+00
        -11   -1    0    0    0    0  0.00000000000E+00  0.00000000000E+00  0.45593999997E+02  0.45594000000E+02  0.51100000000E-03 0.  1.
         11   -1    0    0    0    0 -0.00000000000E+00 -0.00000000000E+00 -0.45593999997E+02  0.45594000000E+02  0.51100000000E-03 0. -1.
    9900012    2    1    2    0    0 -0.29299049217E+02 -0.20117213536E+02  0.19749094704E+02  0.50528889002E+02  0.30000088611E+02 0.  0.
         12    1    1    2    0    0  0.29299049217E+02  0.20117213536E+02 -0.19749094704E+02  0.40659110998E+02  0.00000000000E+00 0. -1.
         11    1    3    3    0    0 -0.41040816303E+00 -0.13963684081E+02  0.11574569624E+02  0.18141763150E+02  0.51100000000E-03 0. -1.
        -11    1    3    3    0    0 -0.27165000517E+02 -0.76472075253E+01  0.52942595947E+01  0.28713171558E+02  0.51100000000E-03 0.  1.
        -12    1    3    3    0    0 -0.17236405373E+01  0.14936780701E+01  0.28802654861E+01  0.36739542933E+01  0.00000000000E+00 0.  1.
</event>
<event>
 7    1  0.5764931E-013  0.5052886E+02  0.7816164E-02  0.1300439E+00
        -11   -1    0    0    0    0  0.00000000000E+00  0.00000000000E+00  0.45593999997E+02  0.45594000000E+02  0.51100000000E-03 0. -1.
         11   -1    0    0    0    0 -0.00000000000E+00 -0.00000000000E+00 -0.45593999997E+02  0.45594000000E+02  0.51100000000E-03 0.  1.
    9900012    2    1    2    0    0  0.84388925423E+01  0.10099133090E+02 -0.38470227327E+02  0.50528858505E+02  0.29999995911E+02 0.  0.
         12    1    1    2    0    0 -0.84388925423E+01 -0.10099133090E+02  0.38470227327E+02  0.40659141495E+02  0.00000000000E+00 0. -1.
         11    1    3    3    0    0  0.11052792358E+02  0.32374092979E+01 -0.79818774843E+01  0.14012687334E+02  0.51100000000E-03 0. -1.
        -11    1    3    3    0    0 -0.60635078503E+01  0.18832548412E+01 -0.29743626663E+02  0.30413748595E+02  0.51100000000E-03 0.  1.
        -12    1    3    3    0    0  0.34496080345E+01  0.49784689507E+01 -0.74472317972E+00  0.61024225762E+01  0.00000000000E+00 0.  1.
</event>
<event>
 7    1  0.5764931E-013  0.5052887E+02  0.7816164E-02  0.1300439E+00
        -11   -1    0    0    0    0  0.00000000000E+00  0.00000000000E+00  0.45593999997E+02  0.45594000000E+02  0.51100000000E-03 0.  1.
         11   -1    0    0    0    0 -0.00000000000E+00 -0.00000000000E+00 -0.45593999997E+02  0.45594000000E+02  0.51100000000E-03 0. -1.
    9900012    2    1    2    0    0  0.40490258813E+01 -0.29839241339E+02  0.27320145005E+02  0.50528865019E+02  0.30000015713E+02 0.  0.
         12    1    1    2    0    0 -0.40490258813E+01  0.29839241339E+02 -0.27320145005E+02  0.40659134981E+02  0.00000000000E+00 0. -1.
         11    1    3    3    0    0 -0.74877940451E+01 -0.11854818844E+02  0.12257727625E+02  0.18624061756E+02  0.51100000000E-03 0.  1.
        -11    1    3    3    0    0  0.16289001884E+02 -0.12061946081E+02  0.12837692849E+02  0.23992258826E+02  0.51100000000E-03 0. -1.
         12    1    3    3    0    0 -0.47521819575E+01 -0.59224764145E+01  0.22247245302E+01  0.79125444373E+01  0.00000000000E+00 0. -1.
</event>
<event>
 7    1  0.5764931E-013  0.5052886E+02  0.7816164E-02  0.1300439E+00
        -11   -1    0    0    0    0  0.00000000000E+00  0.00000000000E+00  0.45593999997E+02  0.45594000000E+02  0.51100000000E-03 0. -1.
         11   -1    0    0    0    0 -0.00000000000E+00 -0.00000000000E+00 -0.45593999997E+02  0.45594000000E+02  0.51100000000E-03 0.  1.
    9900012    2    1    2    0    0 -0.18308424022E+02  0.26300322118E+02 -0.25025193944E+02  0.50528859999E+02  0.30000000452E+02 0.  0.
         12    1    1    2    0    0  0.18308424022E+02 -0.26300322118E+02  0.25025193944E+02  0.40659140001E+02  0.00000000000E+00 0. -1.
         11    1    3    3    0    0  0.32207778212E+00 -0.91604774461E+00 -0.11825022296E+01  0.15300945566E+01  0.51100000000E-03 0. -1.
        -11    1    3    3    0    0  0.58578853065E+01  0.72126078944E+01  0.17167703198E+00  0.92933312740E+01  0.51100000000E-03 0.  1.
        -12    1    3    3    0    0 -0.24488387111E+02  0.20003761968E+02 -0.24014368746E+02  0.39705434168E+02  0.00000000000E+00 0.  1.
</event>
<event>
 7    1  0.5764931E-013  0.5052886E+02  0.7816164E-02  0.1300439E+00
        -11   -1    0    0    0    0  0.00000000000E+00  0.00000000000E+00  0.45593999997E+02  0.45594000000E+02  0.51100000000E-03 0.  1.
         11   -1    0    0    0    0 -0.00000000000E+00 -0.00000000000E+00 -0.45593999997E+02  0.45594000000E+02  0.51100000000E-03 0. -1.
    9900012    2    1    2    0    0 -0.11128100388E+02 -0.10054061833E+02  0.37792157831E+02  0.50528856242E+02  0.29999989034E+02 0.  0.
         12    1    1    2    0    0  0.11128100388E+02  0.10054061833E+02 -0.37792157831E+02  0.40659143758E+02  0.00000000000E+00 0. -1.
         11    1    3    3    0    0 -0.17794871950E+02 -0.48758454875E+01  0.10106349898E+02  0.21037339315E+02  0.51100000000E-03 0. -1.
        -11    1    3    3    0    0  0.59173530180E+01 -0.26386535053E+01  0.24534088893E+02  0.25375166544E+02  0.51100000000E-03 0.  1.
         12    1    3    3    0    0  0.74941854394E+00 -0.25395628406E+01  0.31517190394E+01  0.41163503834E+01  0.00000000000E+00 0. -1.
</event>
<event>
 7    1  0.5764931E-013  0.5052888E+02  0.7816164E-02  0.1300439E+00
        -11   -1    0    0    0    0  0.00000000000E+00  0.00000000000E+00  0.45593999997E+02  0.45594000000E+02  0.51100000000E-03 0.  1.
         11   -1    0    0    0    0 -0.00000000000E+00 -0.00000000000E+00 -0.45593999997E+02  0.45594000000E+02  0.51100000000E-03 0. -1.
    9900012    2    1    2    0    0 -0.17392511847E+02 -0.24400514143E+02  0.27482346270E+02  0.50528881524E+02  0.30000065879E+02 0.  0.
         12    1    1    2    0    0  0.17392511847E+02  0.24400514143E+02 -0.27482346270E+02  0.40659118476E+02  0.00000000000E+00 0. -1.
         11    1    3    3    0    0  0.21778520125E+01 -0.46334771518E+01  0.70227984751E+00  0.51677216595E+01  0.51100000000E-03 0. -1.
        -11    1    3    3    0    0 -0.17710542158E+02 -0.39990346539E+01  0.22509737852E+02  0.28919610650E+02  0.51100000000E-03 0.  1.
        -12    1    3    3    0    0 -0.18598217011E+01 -0.15768002337E+02  0.42703285699E+01  0.16441549214E+02  0.00000000000E+00 0.  1.
</event>
<event>
 7    1  0.5764931E-013  0.5052886E+02  0.7816164E-02  0.1300439E+00
        -11   -1    0    0    0    0  0.00000000000E+00  0.00000000000E+00  0.45593999997E+02  0.45594000000E+02  0.51100000000E-03 0.  1.
         11   -1    0    0    0    0 -0.00000000000E+00 -0.00000000000E+00 -0.45593999997E+02  0.45594000000E+02  0.51100000000E-03 0. -1.
    9900012    2    1    2    0    0  0.12777083618E+02 -0.21208956094E+02  0.32250459589E+02  0.50528858001E+02  0.29999994381E+02 0.  0.
         12    1    1    2    0    0 -0.12777083618E+02  0.21208956094E+02 -0.32250459589E+02  0.40659141999E+02  0.00000000000E+00 0. -1.
         11    1    3    3    0    0  0.43797754529E+01  0.61920348513E+00 -0.42953543515E+01  0.61657047643E+01  0.51100000000E-03 0. -1.
        -11    1    3    3    0    0  0.84700487146E+01 -0.10349555736E+02  0.23022081877E+02  0.26624636775E+02  0.51100000000E-03 0.  1.
         12    1    3    3    0    0 -0.72740549702E-01 -0.11478603842E+02  0.13523732063E+02  0.17738516462E+02  0.00000000000E+00 0. -1.
</event>
<event>
 7    1  0.5764931E-013  0.5052886E+02  0.7816164E-02  0.1300439E+00
        -11   -1    0    0    0    0  0.00000000000E+00  0.00000000000E+00  0.45593999997E+02  0.45594000000E+02  0.51100000000E-03 0.  1.
         11   -1    0    0    0    0 -0.00000000000E+00 -0.00000000000E+00 -0.45593999997E+02  0.45594000000E+02  0.51100000000E-03 0. -1.
    9900012    2    1    2    0    0  0.23263683988E+02 -0.14566782603E+02  0.29996251777E+02  0.50528864879E+02  0.30000015287E+02 0.  0.
         12    1    1    2    0    0 -0.23263683988E+02  0.14566782603E+02 -0.29996251777E+02  0.40659135121E+02  0.00000000000E+00 0. -1.
         11    1    3    3    0    0 -0.39109689926E+01  0.41130293148E+01  0.71526129223E+01  0.91308575984E+01  0.51100000000E-03 0. -1.
        -11    1    3    3    0    0  0.22163786873E+02 -0.10052006540E+02  0.18219920927E+02  0.30401345412E+02  0.51100000000E-03 0.  1.
         12    1    3    3    0    0  0.50108661080E+01 -0.86278053775E+01  0.46237179279E+01  0.10996661869E+02  0.00000000000E+00 0. -1.
</event>
<event>
 7    1  0.5764931E-013  0.5052886E+02  0.7816164E-02  0.1300439E+00
        -11   -1    0    0    0    0  0.00000000000E+00  0.00000000000E+00  0.45593999997E+02  0.45594000000E+02  0.51100000000E-03 0.  1.
         11   -1    0    0    0    0 -0.00000000000E+00 -0.00000000000E+00 -0.45593999997E+02  0.45594000000E+02  0.51100000000E-03 0. -1.
    9900012    2    1    2    0    0 -0.39150929677E+02 -0.85045752898E+01  0.69312889340E+01  0.50528857588E+02  0.29999993124E+02 0.  0.
         12    1    1    2    0    0  0.39150929677E+02  0.85045752898E+01 -0.69312889340E+01  0.40659142412E+02  0.00000000000E+00 0. -1.
         11    1    3    3    0    0 -0.19592275742E+01 -0.48242967881E+01  0.17739731597E+01  0.55008538627E+01  0.51100000000E-03 0. -1.
        -11    1    3    3    0    0 -0.30306829403E+02  0.60089307638E+01 -0.23228252094E+01  0.30983974481E+02  0.51100000000E-03 0.  1.
        -12    1    3    3    0    0 -0.68848726995E+01 -0.96892092656E+01  0.74801409838E+01  0.14044029244E+02  0.00000000000E+00 0.  1.
</event>
<event>
 7    1  0.5764931E-013  0.5052879E+02  0.7816164E-02  0.1300439E+00
        -11   -1    0    0    0    0  0.00000000000E+00  0.00000000000E+00  0.45593999997E+02  0.45594000000E+02  0.51100000000E-03 0. -1.
         11   -1    0    0    0    0 -0.00000000000E+00 -0.00000000000E+00 -0.45593999997E+02  0.45594000000E+02  0.51100000000E-03 0.  1.
    9900012    2    1    2    0    0  0.21475708696E+02 -0.28766052713E+02 -0.19091344605E+02  0.50528790815E+02  0.29999790162E+02 0.  0.
         12    1    1    2    0    0 -0.21475708696E+02  0.28766052713E+02  0.19091344605E+02  0.40659209185E+02  0.00000000000E+00 0. -1.
         11    1    3    3    0    0  0.28245340282E+01  0.12359229937E+01 -0.66092133573E+01  0.72929554768E+01  0.51100000000E-03 0. -1.
        -11    1    3    3    0    0  0.23009192689E+02 -0.20036899112E+02 -0.95711536102E+01  0.31976667367E+02  0.51100000000E-03 0.  1.
        -12    1    3    3    0    0 -0.43580180209E+01 -0.99650765941E+01 -0.29109776379E+01  0.11259167971E+02  0.00000000000E+00 0.  1.
</event>
<event>
 7    1  0.5764931E-013  0.5052886E+02  0.7816164E-02  0.1300439E+00
        -11   -1    0    0    0    0  0.00000000000E+00  0.00000000000E+00  0.45593999997E+02  0.45594000000E+02  0.51100000000E-03 0.  1.
         11   -1    0    0    0    0 -0.00000000000E+00 -0.00000000000E+00 -0.45593999997E+02  0.45594000000E+02  0.51100000000E-03 0. -1.
    9900012    2    1    2    0    0 -0.25588310531E+02  0.23740694412E+02  0.20851465474E+02  0.50528858107E+02  0.29999994704E+02 0.  0.
         12    1    1    2    0    0  0.25588310531E+02 -0.23740694412E+02 -0.20851465474E+02  0.40659141893E+02  0.00000000000E+00 0. -1.
         11    1    3    3    0    0 -0.13841404504E+02  0.32601070233E+01 -0.13615666854E+01  0.14285189552E+02  0.51100000000E-03 0. -1.
        -11    1    3    3    0    0 -0.60105981250E+01  0.21844599039E+02  0.16447596209E+02  0.27997093033E+02  0.51100000000E-03 0.  1.
        -12    1    3    3    0    0 -0.57363079028E+01 -0.13640116508E+01  0.57654359512E+01  0.82465755224E+01  0.00000000000E+00 0.  1.
</event>
<event>
 7    1  0.5764931E-013  0.5052886E+02  0.7816164E-02  0.1300439E+00
        -11   -1    0    0    0    0  0.00000000000E+00  0.00000000000E+00  0.45593999997E+02  0.45594000000E+02  0.51100000000E-03 0.  1.
         11   -1    0    0    0    0 -0.00000000000E+00 -0.00000000000E+00 -0.45593999997E+02  0.45594000000E+02  0.51100000000E-03 0. -1.
    9900012    2    1    2    0    0 -0.86358167876E+01  0.15820849971E+02  0.36445705231E+02  0.50528855208E+02  0.29999985892E+02 0.  0.
         12    1    1    2    0    0  0.86358167876E+01 -0.15820849971E+02 -0.36445705231E+02  0.40659144792E+02  0.00000000000E+00 0. -1.
         11    1    3    3    0    0 -0.10667939635E+02  0.68207169268E+01  0.46508866116E+01  0.13489175734E+02  0.51100000000E-03 0. -1.
        -11    1    3    3    0    0  0.90062722960E+01  0.25242789840E+01  0.13596480339E+02  0.16503005876E+02  0.51100000000E-03 0.  1.
        -12    1    3    3    0    0 -0.69741494488E+01  0.64758540607E+01  0.18198338280E+02  0.20536673599E+02  0.00000000000E+00 0.  1.
</event>
<event>
 7    1  0.5764931E-013  0.5052886E+02  0.7816164E-02  0.1300439E+00
        -11   -1    0    0    0    0  0.00000000000E+00  0.00000000000E+00  0.45593999997E+02  0.45594000000E+02  0.51100000000E-03 0.  1.
         11   -1    0    0    0    0 -0.00000000000E+00 -0.00000000000E+00 -0.45593999997E+02  0.45594000000E+02  0.51100000000E-03 0. -1.
    9900012    2    1    2    0    0 -0.35069195701E+02  0.10298700611E+02 -0.17811630187E+02  0.50528857224E+02  0.29999992018E+02 0.  0.
         12    1    1    2    0    0  0.35069195701E+02 -0.10298700611E+02  0.17811630187E+02  0.40659142776E+02  0.00000000000E+00 0. -1.
         11    1    3    3    0    0 -0.89966328457E+01  0.60056947428E+01  0.80830304515E+01  0.13503449687E+02  0.51100000000E-03 0. -1.
        -11    1    3    3    0    0 -0.12801182880E+02  0.16797669468E+01 -0.11811753432E+02  0.17498840520E+02  0.51100000000E-03 0.  1.
         12    1    3    3    0    0 -0.13271379974E+02  0.26132389214E+01 -0.14082907206E+02  0.19526567017E+02  0.00000000000E+00 0. -1.
</event>
<event>
 7    1  0.5764931E-013  0.5052886E+02  0.7816164E-02  0.1300439E+00
        -11   -1    0    0    0    0  0.00000000000E+00  0.00000000000E+00  0.45593999997E+02  0.45594000000E+02  0.51100000000E-03 0.  1.
         11   -1    0    0    0    0 -0.00000000000E+00 -0.00000000000E+00 -0.45593999997E+02  0.45594000000E+02  0.51100000000E-03 0. -1.
    9900012    2    1    2    0    0  0.74426277632E+00 -0.23025479661E+02  0.33502815083E+02  0.50528864997E+02  0.30000015645E+02 0.  0.
         12    1    1    2    0    0 -0.74426277632E+00  0.23025479661E+02 -0.33502815083E+02  0.40659135003E+02  0.00000000000E+00 0. -1.
         11    1    3    3    0    0 -0.13106615447E+01 -0.60558179724E+01  0.44212562648E+00  0.62117823795E+01  0.51100000000E-03 0. -1.
        -11    1    3    3    0    0  0.76193398756E+01 -0.26620902741E+01  0.26358154180E+02  0.27566163258E+02  0.51100000000E-03 0.  1.
        -12    1    3    3    0    0 -0.55644155546E+01 -0.14307571414E+02  0.67025352773E+01  0.16750919359E+02  0.00000000000E+00 0.  1.
</event>
<event>
 7    1  0.5764931E-013  0.5052886E+02  0.7816164E-02  0.1300439E+00
        -11   -1    0    0    0    0  0.00000000000E+00  0.00000000000E+00  0.45593999997E+02  0.45594000000E+02  0.51100000000E-03 0.  1.
         11   -1    0    0    0    0 -0.00000000000E+00 -0.00000000000E+00 -0.45593999997E+02  0.45594000000E+02  0.51100000000E-03 0. -1.
    9900012    2    1    2    0    0  0.13913024433E+00  0.40658625281E+02  0.15018228058E+00  0.50528859309E+02  0.29999998356E+02 0.  0.
         12    1    1    2    0    0 -0.13913024433E+00 -0.40658625281E+02 -0.15018228058E+00  0.40659140691E+02  0.00000000000E+00 0. -1.
         11    1    3    3    0    0  0.62021781377E+01  0.30343698306E+02 -0.25851382383E+01  0.31078770576E+02  0.51100000000E-03 0. -1.
        -11    1    3    3    0    0 -0.41068914933E+01  0.11666555401E+02  0.72578947014E+01  0.14340575596E+02  0.51100000000E-03 0.  1.
         12    1    3    3    0    0 -0.19561564001E+01 -0.13516284257E+01 -0.45225741826E+01  0.51095131372E+01  0.00000000000E+00 0. -1.
</event>
<event>
 7    1  0.5764931E-013  0.5052886E+02  0.7816164E-02  0.1300439E+00
        -11   -1    0    0    0    0  0.00000000000E+00  0.00000000000E+00  0.45593999997E+02  0.45594000000E+02  0.51100000000E-03 0.  1.
         11   -1    0    0    0    0 -0.00000000000E+00 -0.00000000000E+00 -0.45593999997E+02  0.45594000000E+02  0.51100000000E-03 0. -1.
    9900012    2    1    2    0    0 -0.24364221443E+02 -0.15816628868E+01  0.32512288315E+02  0.50528857910E+02  0.29999994103E+02 0.  0.
         12    1    1    2    0    0  0.24364221443E+02  0.15816628868E+01 -0.32512288315E+02  0.40659142090E+02  0.00000000000E+00 0. -1.
         11    1    3    3    0    0 -0.11398763642E+01  0.76553636565E+01 -0.28808602286E+00  0.77451213455E+01  0.51100000000E-03 0. -1.
        -11    1    3    3    0    0 -0.17726186267E+02 -0.10874774788E+02  0.20452284764E+02  0.29168036592E+02  0.51100000000E-03 0.  1.
        -12    1    3    3    0    0 -0.54981588118E+01  0.16377482442E+01  0.12348089573E+02  0.13615699973E+02  0.00000000000E+00 0.  1.
</event>
<event>
 7    1  0.5764931E-013  0.5052886E+02  0.7816164E-02  0.1300439E+00
        -11   -1    0    0    0    0  0.00000000000E+00  0.00000000000E+00  0.45593999997E+02  0.45594000000E+02  0.51100000000E-03 0.  1.
         11   -1    0    0    0    0 -0.00000000000E+00 -0.00000000000E+00 -0.45593999997E+02  0.45594000000E+02  0.51100000000E-03 0. -1.
    9900012    2    1    2    0    0 -0.98527410697E+01  0.32413951587E+02  0.22481660627E+02  0.50528857995E+02  0.29999994361E+02 0.  0.
         12    1    1    2    0    0  0.98527410697E+01 -0.32413951587E+02 -0.22481660627E+02  0.40659142005E+02  0.00000000000E+00 0. -1.
         11    1    3    3    0    0 -0.59538538614E+00 -0.39245345734E+00  0.14501842307E+02  0.14519364105E+02  0.51100000000E-03 0. -1.
        -11    1    3    3    0    0 -0.96849707582E+01  0.21632524755E+02  0.73275715241E+01  0.24808427813E+02  0.51100000000E-03 0.  1.
         12    1    3    3    0    0  0.42761507464E+00  0.11173880289E+02  0.65224679624E+00  0.11201066077E+02  0.00000000000E+00 0. -1.
</event>
<event>
 7    1  0.5764931E-013  0.5052885E+02  0.7816164E-02  0.1300439E+00
        -11   -1    0    0    0    0  0.00000000000E+00  0.00000000000E+00  0.45593999997E+02  0.45594000000E+02  0.51100000000E-03 0. -1.
         11   -1    0    0    0    0 -0.00000000000E+00 -0.00000000000E+00 -0.45593999997E+02  0.45594000000E+02  0.51100000000E-03 0.  1.
    9900012    2    1    2    0    0 -0.46658639605E+01 -0.36251236233E+02 -0.17811337177E+02  0.50528854080E+02  0.29999982462E+02 0.  0.
         12    1    1    2    0    0  0.46658639605E+01  0.36251236233E+02  0.17811337177E+02  0.40659145920E+02  0.00000000000E+00 0. -1.
         11    1    3    3    0    0 -0.76948444919E+01 -0.21407491074E+02  0.20916095060E+01  0.22844389605E+02  0.51100000000E-03 0. -1.
        -11    1    3    3    0    0 -0.31703347433E+01 -0.79607313628E+01 -0.14818457049E+02  0.17117562203E+02  0.51100000000E-03 0.  1.
         12    1    3    3    0    0  0.61993152747E+01 -0.68830137963E+01 -0.50844896340E+01  0.10566902272E+02  0.00000000000E+00 0. -1.
</event>
<event>
 7    1  0.5764931E-013  0.5052882E+02  0.7816164E-02  0.1300439E+00
        -11   -1    0    0    0    0  0.00000000000E+00  0.00000000000E+00  0.45593999997E+02  0.45594000000E+02  0.51100000000E-03 0. -1.
         11   -1    0    0    0    0 -0.00000000000E+00 -0.00000000000E+00 -0.45593999997E+02  0.45594000000E+02  0.51100000000E-03 0.  1.
    9900012    2    1    2    0    0 -0.40626388327E+02 -0.15633205817E+01  0.47089993020E+00  0.50528817194E+02  0.29999870342E+02 0.  0.
         12    1    1    2    0    0  0.40626388327E+02  0.15633205817E+01 -0.47089993020E+00  0.40659182806E+02  0.00000000000E+00 0. -1.
         11    1    3    3    0    0 -0.31091378130E+01 -0.67821547716E+01  0.26459241997E+01  0.79161402475E+01  0.51100000000E-03 0. -1.
        -11    1    3    3    0    0 -0.28990529577E+02  0.11562296786E+02 -0.50167076910E+01  0.31611783695E+02  0.51100000000E-03 0.  1.
        -12    1    3    3    0    0 -0.85267209373E+01 -0.63434625958E+01  0.28416834215E+01  0.11000893251E+02  0.00000000000E+00 0.  1.
</event>
<event>
 7    1  0.5764931E-013  0.5052882E+02  0.7816164E-02  0.1300439E+00
        -11   -1    0    0    0    0  0.00000000000E+00  0.00000000000E+00  0.45593999997E+02  0.45594000000E+02  0.51100000000E-03 0. -1.
         11   -1    0    0    0    0 -0.00000000000E+00 -0.00000000000E+00 -0.45593999997E+02  0.45594000000E+02  0.51100000000E-03 0.  1.
    9900012    2    1    2    0    0  0.32266618897E+01  0.10176475119E+02 -0.39232599661E+02  0.50528820606E+02  0.29999880714E+02 0.  0.
         12    1    1    2    0    0 -0.32266618897E+01 -0.10176475119E+02  0.39232599661E+02  0.40659179394E+02  0.00000000000E+00 0. -1.
         11    1    3    3    0    0  0.11657718266E+01  0.38792809292E+01 -0.23323792131E+00  0.40573691807E+01  0.51100000000E-03 0. -1.
        -11    1    3    3    0    0 -0.12164048184E+01 -0.32413878628E+01 -0.35688503062E+02  0.35856038362E+02  0.51100000000E-03 0.  1.
        -12    1    3    3    0    0  0.32772948815E+01  0.95385820530E+01 -0.33108586780E+01  0.10615413063E+02  0.00000000000E+00 0.  1.
</event>
<event>
 7    1  0.5764931E-013  0.5052887E+02  0.7816164E-02  0.1300439E+00
        -11   -1    0    0    0    0  0.00000000000E+00  0.00000000000E+00  0.45593999997E+02  0.45594000000E+02  0.51100000000E-03 0.  1.
         11   -1    0    0    0    0 -0.00000000000E+00 -0.00000000000E+00 -0.45593999997E+02  0.45594000000E+02  0.51100000000E-03 0. -1.
    9900012    2    1    2    0    0 -0.14196888893E+02 -0.71288246958E+01  0.37427174010E+02  0.50528866338E+02  0.30000019721E+02 0.  0.
         12    1    1    2    0    0  0.14196888893E+02  0.71288246958E+01 -0.37427174010E+02  0.40659133662E+02  0.00000000000E+00 0. -1.
         11    1    3    3    0    0 -0.97610658699E+01  0.97529089824E+01  0.73848975633E+01  0.15650378680E+02  0.51100000000E-03 0. -1.
        -11    1    3    3    0    0 -0.35766264911E+01 -0.13058913586E+02  0.20552408584E+02  0.24611561917E+02  0.51100000000E-03 0.  1.
         12    1    3    3    0    0 -0.85919653246E+00 -0.38228200919E+01  0.94898678625E+01  0.10266925742E+02  0.00000000000E+00 0. -1.
</event>
<event>
 7    1  0.5764931E-013  0.5052888E+02  0.7816164E-02  0.1300439E+00
        -11   -1    0    0    0    0  0.00000000000E+00  0.00000000000E+00  0.45593999997E+02  0.45594000000E+02  0.51100000000E-03 0. -1.
         11   -1    0    0    0    0 -0.00000000000E+00 -0.00000000000E+00 -0.45593999997E+02  0.45594000000E+02  0.51100000000E-03 0.  1.
    9900012    2    1    2    0    0 -0.15376534969E+02  0.32629591941E+02 -0.18762627528E+02  0.50528876920E+02  0.30000051887E+02 0.  0.
         12    1    1    2    0    0  0.15376534969E+02 -0.32629591941E+02  0.18762627528E+02  0.40659123080E+02  0.00000000000E+00 0. -1.
         11    1    3    3    0    0 -0.10894834454E+02  0.79910101849E+01 -0.17526948495E+02  0.22130241421E+02  0.51100000000E-03 0. -1.
        -11    1    3    3    0    0 -0.50900338490E+01  0.10034086265E+02  0.52395496219E+01  0.12411454881E+02  0.51100000000E-03 0.  1.
        -12    1    3    3    0    0  0.60833333401E+00  0.14604495491E+02 -0.64752286549E+01  0.15987180619E+02  0.00000000000E+00 0.  1.
</event>
<event>
 7    1  0.5764931E-013  0.5052886E+02  0.7816164E-02  0.1300439E+00
        -11   -1    0    0    0    0  0.00000000000E+00  0.00000000000E+00  0.45593999997E+02  0.45594000000E+02  0.51100000000E-03 0.  1.
         11   -1    0    0    0    0 -0.00000000000E+00 -0.00000000000E+00 -0.45593999997E+02  0.45594000000E+02  0.51100000000E-03 0. -1.
    9900012    2    1    2    0    0 -0.64010075751E+01 -0.21132843700E+01  0.40096465699E+02  0.50528862893E+02  0.30000009248E+02 0.  0.
         12    1    1    2    0    0  0.64010075751E+01  0.21132843700E+01 -0.40096465699E+02  0.40659137107E+02  0.00000000000E+00 0. -1.
         11    1    3    3    0    0  0.66774456808E+00 -0.19320330731E+01 -0.39948219450E+01  0.44874533130E+01  0.51100000000E-03 0. -1.
        -11    1    3    3    0    0 -0.83564105827E+01  0.29711764171E+01  0.38385234476E+02  0.39396493665E+02  0.51100000000E-03 0.  1.
        -12    1    3    3    0    0  0.12876584396E+01 -0.31524277140E+01  0.57060531680E+01  0.66449159141E+01  0.00000000000E+00 0.  1.
</event>
<event>
 7    1  0.5764931E-013  0.5052885E+02  0.7816164E-02  0.1300439E+00
        -11   -1    0    0    0    0  0.00000000000E+00  0.00000000000E+00  0.45593999997E+02  0.45594000000E+02  0.51100000000E-03 0. -1.
         11   -1    0    0    0    0 -0.00000000000E+00 -0.00000000000E+00 -0.45593999997E+02  0.45594000000E+02  0.51100000000E-03 0.  1.
    9900012    2    1    2    0    0 -0.18895470049E+02 -0.32743274606E+02 -0.14966806686E+02  0.50528854379E+02  0.29999983369E+02 0.  0.
         12    1    1    2    0    0  0.18895470049E+02  0.32743274606E+02  0.14966806686E+02  0.40659145621E+02  0.00000000000E+00 0. -1.
         11    1    3    3    0    0 -0.14516121109E+02 -0.33374949224E+01 -0.31011037389E+00  0.14898080853E+02  0.51100000000E-03 0. -1.
        -11    1    3    3    0    0 -0.42054253550E+01 -0.17721899270E+02 -0.18711918555E+01  0.18309906482E+02  0.51100000000E-03 0.  1.
         12    1    3    3    0    0 -0.17392358492E+00 -0.11683880414E+02 -0.12785504457E+02  0.17320867044E+02  0.00000000000E+00 0. -1.
</event>
<event>
 7    1  0.5764931E-013  0.5052889E+02  0.7816164E-02  0.1300439E+00
        -11   -1    0    0    0    0  0.00000000000E+00  0.00000000000E+00  0.45593999997E+02  0.45594000000E+02  0.51100000000E-03 0. -1.
         11   -1    0    0    0    0 -0.00000000000E+00 -0.00000000000E+00 -0.45593999997E+02  0.45594000000E+02  0.51100000000E-03 0.  1.
    9900012    2    1    2    0    0 -0.55529718558E+01 -0.15005330424E+02 -0.37378707492E+02  0.50528890180E+02  0.30000092192E+02 0.  0.
         12    1    1    2    0    0  0.55529718558E+01  0.15005330424E+02  0.37378707492E+02  0.40659109820E+02  0.00000000000E+00 0. -1.
         11    1    3    3    0    0 -0.29726491126E+01  0.68573523521E+01 -0.43617827375E+01  0.86536161770E+01  0.51100000000E-03 0. -1.
        -11    1    3    3    0    0 -0.63603731098E+00 -0.16722041842E+02 -0.13209617769E+02  0.21319597292E+02  0.51100000000E-03 0.  1.
         12    1    3    3    0    0 -0.19442854322E+01 -0.51406409337E+01 -0.19807306986E+02  0.20555676712E+02  0.00000000000E+00 0. -1.
</event>
<event>
 7    1  0.5764931E-013  0.5052886E+02  0.7816164E-02  0.1300439E+00
        -11   -1    0    0    0    0  0.00000000000E+00  0.00000000000E+00  0.45593999997E+02  0.45594000000E+02  0.51100000000E-03 0. -1.
         11   -1    0    0    0    0 -0.00000000000E+00 -0.00000000000E+00 -0.45593999997E+02  0.45594000000E+02  0.51100000000E-03 0.  1.
    9900012    2    1    2    0    0  0.10852879133E+02  0.87486381742E+01 -0.38194791472E+02  0.50528858949E+02  0.29999997262E+02 0.  0.
         12    1    1    2    0    0 -0.10852879133E+02 -0.87486381742E+01  0.38194791472E+02  0.40659141051E+02  0.00000000000E+00 0. -1.
         11    1    3    3    0    0  0.34832402361E+01  0.68896378671E+01 -0.20291222680E+02  0.21710223182E+02  0.51100000000E-03 0. -1.
        -11    1    3    3    0    0 -0.74895876239E+00 -0.72514276334E+01 -0.16983417851E+00  0.72919809283E+01  0.51100000000E-03 0.  1.
        -12    1    3    3    0    0  0.81185976595E+01  0.91104279405E+01 -0.17733734614E+02  0.21526654839E+02  0.00000000000E+00 0.  1.
</event>
<event>
 7    1  0.5764931E-013  0.5052886E+02  0.7816164E-02  0.1300439E+00
        -11   -1    0    0    0    0  0.00000000000E+00  0.00000000000E+00  0.45593999997E+02  0.45594000000E+02  0.51100000000E-03 0.  1.
         11   -1    0    0    0    0 -0.00000000000E+00 -0.00000000000E+00 -0.45593999997E+02  0.45594000000E+02  0.51100000000E-03 0. -1.
    9900012    2    1    2    0    0  0.24646910263E+02  0.17569404389E+01  0.32289448936E+02  0.50528861571E+02  0.30000005230E+02 0.  0.
         12    1    1    2    0    0 -0.24646910263E+02 -0.17569404389E+01 -0.32289448936E+02  0.40659138429E+02  0.00000000000E+00 0. -1.
         11    1    3    3    0    0  0.13362111400E+01 -0.18184019925E+01 -0.64855369126E+00  0.23479071891E+01  0.51100000000E-03 0. -1.
        -11    1    3    3    0    0  0.27719373468E+02  0.11659691303E+00  0.32265067007E+02  0.42537181495E+02  0.51100000000E-03 0.  1.
        -12    1    3    3    0    0 -0.44086743455E+01  0.34587455184E+01  0.67293562043E+00  0.56437728865E+01  0.00000000000E+00 0.  1.
</event>
<event>
 7    1  0.5764931E-013  0.5052884E+02  0.7816164E-02  0.1300439E+00
        -11   -1    0    0    0    0  0.00000000000E+00  0.00000000000E+00  0.45593999997E+02  0.45594000000E+02  0.51100000000E-03 0. -1.
         11   -1    0    0    0    0 -0.00000000000E+00 -0.00000000000E+00 -0.45593999997E+02  0.45594000000E+02  0.51100000000E-03 0.  1.
    9900012    2    1    2    0    0  0.33874166675E+02 -0.92176520600E+01 -0.20512029866E+02  0.50528835637E+02  0.29999926403E+02 0.  0.
         12    1    1    2    0    0 -0.33874166675E+02  0.92176520600E+01  0.20512029866E+02  0.40659164363E+02  0.00000000000E+00 0. -1.
         11    1    3    3    0    0  0.11439154121E+02  0.74689088483E+01 -0.44559080600E+01  0.14369897817E+02  0.51100000000E-03 0. -1.
        -11    1    3    3    0    0  0.88658037953E+01 -0.16155116414E+02 -0.64460562319E+01  0.19522855951E+02  0.51100000000E-03 0.  1.
        -12    1    3    3    0    0  0.13569208759E+02 -0.53144449428E+00 -0.96100655744E+01  0.16636081869E+02  0.00000000000E+00 0.  1.
</event>
<event>
 7    1  0.5764931E-013  0.5052887E+02  0.7816164E-02  0.1300439E+00
        -11   -1    0    0    0    0  0.00000000000E+00  0.00000000000E+00  0.45593999997E+02  0.45594000000E+02  0.51100000000E-03 0.  1.
         11   -1    0    0    0    0 -0.00000000000E+00 -0.00000000000E+00 -0.45593999997E+02  0.45594000000E+02  0.51100000000E-03 0. -1.
    9900012    2    1    2    0    0  0.31346626580E+02  0.70358705525E+01  0.24920890229E+02  0.50528865206E+02  0.30000016279E+02 0.  0.
         12    1    1    2    0    0 -0.31346626580E+02 -0.70358705525E+01 -0.24920890229E+02  0.40659134794E+02  0.00000000000E+00 0. -1.
         11    1    3    3    0    0  0.14837236312E+01  0.17257122876E+01 -0.40342630908E+01  0.46319323894E+01  0.51100000000E-03 0. -1.
        -11    1    3    3    0    0  0.29971993182E+02  0.15334099717E+01  0.19697543918E+02  0.35897979861E+02  0.51100000000E-03 0.  1.
        -12    1    3    3    0    0 -0.10909023318E+00  0.37767482932E+01  0.92576094024E+01  0.99989529551E+01  0.00000000000E+00 0.  1.
</event>
<event>
 7    1  0.5764931E-013  0.5052888E+02  0.7816164E-02  0.1300439E+00
        -11   -1    0    0    0    0  0.00000000000E+00  0.00000000000E+00  0.45593999997E+02  0.45594000000E+02  0.51100000000E-03 0.  1.
         11   -1    0    0    0    0 -0.00000000000E+00 -0.00000000000E+00 -0.45593999997E+02  0.45594000000E+02  0.51100000000E-03 0. -1.
    9900012    2    1    2    0    0 -0.36805553517E+02 -0.72016620125E+01  0.15705145824E+02  0.50528876660E+02  0.30000051097E+02 0.  0.
         12    1    1    2    0    0  0.36805553517E+02  0.72016620125E+01 -0.15705145824E+02  0.40659123340E+02  0.00000000000E+00 0. -1.
         11    1    3    3    0    0 -0.19281194884E+02 -0.44237164960E+01 -0.67296369020E+01  0.20895496091E+02  0.51100000000E-03 0. -1.
        -11    1    3    3    0    0 -0.12433992178E+02  0.12501862067E+01  0.11881377213E+02  0.17243382841E+02  0.51100000000E-03 0.  1.
         12    1    3    3    0    0 -0.50903664547E+01 -0.40281317232E+01  0.10553405512E+02  0.12389997729E+02  0.00000000000E+00 0. -1.
</event>
<event>
 7    1  0.5764931E-013  0.5052886E+02  0.7816164E-02  0.1300439E+00
        -11   -1    0    0    0    0  0.00000000000E+00  0.00000000000E+00  0.45593999997E+02  0.45594000000E+02  0.51100000000E-03 0.  1.
         11   -1    0    0    0    0 -0.00000000000E+00 -0.00000000000E+00 -0.45593999997E+02  0.45594000000E+02  0.51100000000E-03 0. -1.
    9900012    2    1    2    0    0 -0.10610038430E+02  0.34410291494E+02  0.18881866143E+02  0.50528856560E+02  0.29999990000E+02 0.  0.
         12    1    1    2    0    0  0.10610038430E+02 -0.34410291494E+02 -0.18881866143E+02  0.40659143440E+02  0.00000000000E+00 0. -1.
         11    1    3    3    0    0 -0.18260715884E+02  0.13570091553E+02  0.10817625398E+02  0.25191707939E+02  0.51100000000E-03 0. -1.
        -11    1    3    3    0    0 -0.16266477716E+01  0.28200977476E+01  0.30431796758E+01  0.44564421997E+01  0.51100000000E-03 0.  1.
         12    1    3    3    0    0  0.92773252252E+01  0.18020102194E+02  0.50210610689E+01  0.20880706422E+02  0.00000000000E+00 0. -1.
</event>
<event>
 7    1  0.5764931E-013  0.5052885E+02  0.7816164E-02  0.1300439E+00
        -11   -1    0    0    0    0  0.00000000000E+00  0.00000000000E+00  0.45593999997E+02  0.45594000000E+02  0.51100000000E-03 0.  1.
         11   -1    0    0    0    0 -0.00000000000E+00 -0.00000000000E+00 -0.45593999997E+02  0.45594000000E+02  0.51100000000E-03 0. -1.
    9900012    2    1    2    0    0 -0.15050762657E+02  0.91210990349E+01  0.36653054919E+02  0.50528851717E+02  0.29999975279E+02 0.  0.
         12    1    1    2    0    0  0.15050762657E+02 -0.91210990349E+01 -0.36653054919E+02  0.40659148283E+02  0.00000000000E+00 0. -1.
         11    1    3    3    0    0 -0.97006324774E+01 -0.11632819854E+01  0.37712159954E+01  0.10472705753E+02  0.51100000000E-03 0. -1.
        -11    1    3    3    0    0 -0.10493319186E+02  0.69551075198E+01  0.31287753015E+02  0.33725461556E+02  0.51100000000E-03 0.  1.
        -12    1    3    3    0    0  0.51431890065E+01  0.33292735005E+01  0.15940859091E+01  0.63306844088E+01  0.00000000000E+00 0.  1.
</event>
<event>
 7    1  0.5764931E-013  0.5052886E+02  0.7816164E-02  0.1300439E+00
        -11   -1    0    0    0    0  0.00000000000E+00  0.00000000000E+00  0.45593999997E+02  0.45594000000E+02  0.51100000000E-03 0.  1.
         11   -1    0    0    0    0 -0.00000000000E+00 -0.00000000000E+00 -0.45593999997E+02  0.45594000000E+02  0.51100000000E-03 0. -1.
    9900012    2    1    2    0    0  0.29308768866E+02  0.17259704735E+02  0.22276992822E+02  0.50528858971E+02  0.29999997328E+02 0.  0.
         12    1    1    2    0    0 -0.29308768866E+02 -0.17259704735E+02 -0.22276992822E+02  0.40659141029E+02  0.00000000000E+00 0. -1.
         11    1    3    3    0    0  0.24326399330E+02  0.39038159802E+01  0.74975516702E+01  0.25753189411E+02  0.51100000000E-03 0. -1.
        -11    1    3    3    0    0  0.88248903699E+01  0.13113790338E+02  0.10287781038E+02  0.18859709065E+02  0.51100000000E-03 0.  1.
         12    1    3    3    0    0 -0.38425208330E+01  0.24209841751E+00  0.44916601136E+01  0.59159604944E+01  0.00000000000E+00 0. -1.
</event>
<event>
 7    1  0.5764931E-013  0.5052886E+02  0.7816164E-02  0.1300439E+00
        -11   -1    0    0    0    0  0.00000000000E+00  0.00000000000E+00  0.45593999997E+02  0.45594000000E+02  0.51100000000E-03 0.  1.
         11   -1    0    0    0    0 -0.00000000000E+00 -0.00000000000E+00 -0.45593999997E+02  0.45594000000E+02  0.51100000000E-03 0. -1.
    9900012    2    1    2    0    0 -0.11553786261E+02  0.23592011062E+02  0.31033732744E+02  0.50528861655E+02  0.30000005487E+02 0.  0.
         12    1    1    2    0    0  0.11553786261E+02 -0.23592011062E+02 -0.31033732744E+02  0.40659138345E+02  0.00000000000E+00 0. -1.
         11    1    3    3    0    0  0.55030333616E+01  0.18500327672E+02  0.17404982601E+02  0.25989977294E+02  0.51100000000E-03 0.  1.
        -11    1    3    3    0    0 -0.10267828558E+02  0.34227305642E+01  0.13809368903E+02  0.17545428396E+02  0.51100000000E-03 0. -1.
        -12    1    3    3    0    0 -0.67889910641E+01  0.16689528257E+01 -0.18061875970E+00  0.69934559653E+01  0.00000000000E+00 0.  1.
</event>
<event>
 7    1  0.5764931E-013  0.5052886E+02  0.7816164E-02  0.1300439E+00
        -11   -1    0    0    0    0  0.00000000000E+00  0.00000000000E+00  0.45593999997E+02  0.45594000000E+02  0.51100000000E-03 0.  1.
         11   -1    0    0    0    0 -0.00000000000E+00 -0.00000000000E+00 -0.45593999997E+02  0.45594000000E+02  0.51100000000E-03 0. -1.
    9900012    2    1    2    0    0 -0.24619765651E+02  0.30013236256E+02  0.12092900489E+02  0.50528862607E+02  0.30000008381E+02 0.  0.
         12    1    1    2    0    0  0.24619765651E+02 -0.30013236256E+02 -0.12092900489E+02  0.40659137393E+02  0.00000000000E+00 0. -1.
         11    1    3    3    0    0 -0.12895924464E+02  0.20482763158E+02  0.26674028950E+00  0.24205776274E+02  0.51100000000E-03 0. -1.
        -11    1    3    3    0    0 -0.22050770353E+01 -0.23594907424E+01 -0.34678444661E+01  0.47387241740E+01  0.51100000000E-03 0.  1.
        -12    1    3    3    0    0 -0.95187641517E+01  0.11889963840E+02  0.15294004666E+02  0.21584362159E+02  0.00000000000E+00 0.  1.
</event>
<event>
 7    1  0.5764931E-013  0.5052887E+02  0.7816164E-02  0.1300439E+00
        -11   -1    0    0    0    0  0.00000000000E+00  0.00000000000E+00  0.45593999997E+02  0.45594000000E+02  0.51100000000E-03 0.  1.
         11   -1    0    0    0    0 -0.00000000000E+00 -0.00000000000E+00 -0.45593999997E+02  0.45594000000E+02  0.51100000000E-03 0. -1.
    9900012    2    1    2    0    0  0.34569207656E+02 -0.18902050077E+02  0.10042272554E+02  0.50528869991E+02  0.30000030825E+02 0.  0.
         12    1    1    2    0    0 -0.34569207656E+02  0.18902050077E+02 -0.10042272554E+02  0.40659130009E+02  0.00000000000E+00 0. -1.
         11    1    3    3    0    0  0.46305603288E+01 -0.83935441151E+01 -0.44618953361E+01  0.10573655093E+02  0.51100000000E-03 0. -1.
        -11    1    3    3    0    0  0.17441568074E+02  0.40860077960E+01  0.55232716443E+01  0.18745940534E+02  0.51100000000E-03 0.  1.
        -12    1    3    3    0    0  0.12497079253E+02 -0.14594513758E+02  0.89808962457E+01  0.21209274364E+02  0.00000000000E+00 0.  1.
</event>
<event>
 7    1  0.5764931E-013  0.5052887E+02  0.7816164E-02  0.1300439E+00
        -11   -1    0    0    0    0  0.00000000000E+00  0.00000000000E+00  0.45593999997E+02  0.45594000000E+02  0.51100000000E-03 0. -1.
         11   -1    0    0    0    0 -0.00000000000E+00 -0.00000000000E+00 -0.45593999997E+02  0.45594000000E+02  0.51100000000E-03 0.  1.
    9900012    2    1    2    0    0 -0.26443730776E+02  0.23269653428E+01 -0.30797392457E+02  0.50528867604E+02  0.30000023569E+02 0.  0.
         12    1    1    2    0    0  0.26443730776E+02 -0.23269653428E+01  0.30797392457E+02  0.40659132396E+02  0.00000000000E+00 0. -1.
         11    1    3    3    0    0 -0.16214547767E+02 -0.80057391709E+01 -0.10334939977E+02  0.20828211722E+02  0.51100000000E-03 0. -1.
        -11    1    3    3    0    0 -0.50511032738E+01  0.11622200454E+02 -0.20797238121E+02  0.24353938109E+02  0.51100000000E-03 0.  1.
        -12    1    3    3    0    0 -0.51780797349E+01 -0.12894959408E+01  0.33478564027E+00  0.53467177732E+01  0.00000000000E+00 0.  1.
</event>
<event>
 7    1  0.5764931E-013  0.5052886E+02  0.7816164E-02  0.1300439E+00
        -11   -1    0    0    0    0  0.00000000000E+00  0.00000000000E+00  0.45593999997E+02  0.45594000000E+02  0.51100000000E-03 0. -1.
         11   -1    0    0    0    0 -0.00000000000E+00 -0.00000000000E+00 -0.45593999997E+02  0.45594000000E+02  0.51100000000E-03 0.  1.
    9900012    2    1    2    0    0 -0.96499401497E+01  0.21401504143E+02 -0.33196686616E+02  0.50528859247E+02  0.29999998168E+02 0.  0.
         12    1    1    2    0    0  0.96499401497E+01 -0.21401504143E+02  0.33196686616E+02  0.40659140753E+02  0.00000000000E+00 0. -1.
         11    1    3    3    0    0  0.34615286516E+01  0.91592141506E+01 -0.30697198786E+02  0.32220977609E+02  0.51100000000E-03 0. -1.
        -11    1    3    3    0    0 -0.83088873532E+01  0.93977319398E+01 -0.20175374125E+01  0.12705330855E+02  0.51100000000E-03 0.  1.
         12    1    3    3    0    0 -0.48025814481E+01  0.28445580527E+01 -0.48195041678E+00  0.56025507838E+01  0.00000000000E+00 0. -1.
</event>
<event>
 7    1  0.5764931E-013  0.5052882E+02  0.7816164E-02  0.1300439E+00
        -11   -1    0    0    0    0  0.00000000000E+00  0.00000000000E+00  0.45593999997E+02  0.45594000000E+02  0.51100000000E-03 0. -1.
         11   -1    0    0    0    0 -0.00000000000E+00 -0.00000000000E+00 -0.45593999997E+02  0.45594000000E+02  0.51100000000E-03 0.  1.
    9900012    2    1    2    0    0  0.93872911594E+01 -0.29393973153E+02 -0.26477197447E+02  0.50528820499E+02  0.29999880389E+02 0.  0.
         12    1    1    2    0    0 -0.93872911594E+01  0.29393973153E+02  0.26477197447E+02  0.40659179501E+02  0.00000000000E+00 0. -1.
         11    1    3    3    0    0  0.92699155317E+01 -0.96672838090E+01 -0.19336196667E+02  0.23521824165E+02  0.51100000000E-03 0. -1.
        -11    1    3    3    0    0 -0.58559657664E+01 -0.19001267280E+02 -0.66668780573E+01  0.20971117199E+02  0.51100000000E-03 0.  1.
         12    1    3    3    0    0  0.59733413940E+01 -0.72542206375E+00 -0.47412272266E+00  0.60358791354E+01  0.00000000000E+00 0. -1.
</event>
<event>
 7    1  0.5764931E-013  0.5052883E+02  0.7816164E-02  0.1300439E+00
        -11   -1    0    0    0    0  0.00000000000E+00  0.00000000000E+00  0.45593999997E+02  0.45594000000E+02  0.51100000000E-03 0.  1.
         11   -1    0    0    0    0 -0.00000000000E+00 -0.00000000000E+00 -0.45593999997E+02  0.45594000000E+02  0.51100000000E-03 0. -1.
    9900012    2    1    2    0    0 -0.15228423073E+01  0.28175565078E+02  0.29274328463E+02  0.50528833467E+02  0.29999919807E+02 0.  0.
         12    1    1    2    0    0  0.15228423073E+01 -0.28175565078E+02 -0.29274328463E+02  0.40659166533E+02  0.00000000000E+00 0. -1.
         11    1    3    3    0    0  0.19893040989E+01 -0.30132595282E+01 -0.20728183212E+01  0.41633688085E+01  0.51100000000E-03 0. -1.
        -11    1    3    3    0    0 -0.86296394235E+01  0.20766148531E+02  0.21998177548E+02  0.31458280580E+02  0.51100000000E-03 0.  1.
         12    1    3    3    0    0  0.51174930174E+01  0.10422676075E+02  0.93489692371E+01  0.14907184079E+02  0.00000000000E+00 0. -1.
</event>
<event>
 7    1  0.5764931E-013  0.5052886E+02  0.7816164E-02  0.1300439E+00
        -11   -1    0    0    0    0  0.00000000000E+00  0.00000000000E+00  0.45593999997E+02  0.45594000000E+02  0.51100000000E-03 0.  1.
         11   -1    0    0    0    0 -0.00000000000E+00 -0.00000000000E+00 -0.45593999997E+02  0.45594000000E+02  0.51100000000E-03 0. -1.
    9900012    2    1    2    0    0 -0.21438321307E+02 -0.34362653060E+02  0.35738272656E+01  0.50528858505E+02  0.29999995912E+02 0.  0.
         12    1    1    2    0    0  0.21438321307E+02  0.34362653060E+02 -0.35738272656E+01  0.40659141495E+02  0.00000000000E+00 0. -1.
         11    1    3    3    0    0 -0.13905983543E+02 -0.58970707657E+01 -0.48651012191E+01  0.15868869904E+02  0.51100000000E-03 0. -1.
        -11    1    3    3    0    0 -0.11794071065E+02 -0.26321678372E+02  0.74057563704E+01  0.29778785944E+02  0.51100000000E-03 0.  1.
         12    1    3    3    0    0  0.42617333015E+01 -0.21439039225E+01  0.10331721144E+01  0.48812026571E+01  0.00000000000E+00 0. -1.
</event>
<event>
 7    1  0.5764931E-013  0.5052885E+02  0.7816164E-02  0.1300439E+00
        -11   -1    0    0    0    0  0.00000000000E+00  0.00000000000E+00  0.45593999997E+02  0.45594000000E+02  0.51100000000E-03 0.  1.
         11   -1    0    0    0    0 -0.00000000000E+00 -0.00000000000E+00 -0.45593999997E+02  0.45594000000E+02  0.51100000000E-03 0. -1.
    9900012    2    1    2    0    0  0.15063292402E+02 -0.24346933663E+02  0.28870234771E+02  0.50528850814E+02  0.29999972534E+02 0.  0.
         12    1    1    2    0    0 -0.15063292402E+02  0.24346933663E+02 -0.28870234771E+02  0.40659149186E+02  0.00000000000E+00 0. -1.
         11    1    3    3    0    0  0.88789649693E+01 -0.47861438728E+01  0.83811343684E+01  0.13114366384E+02  0.51100000000E-03 0. -1.
        -11    1    3    3    0    0  0.60038001886E+00 -0.13497207341E+02 -0.18187270450E+01  0.13632418366E+02  0.51100000000E-03 0.  1.
        -12    1    3    3    0    0  0.55839474143E+01 -0.60635824495E+01  0.22307827447E+02  0.23782066064E+02  0.00000000000E+00 0.  1.
</event>
<event>
 7    1  0.5764931E-013  0.5052887E+02  0.7816164E-02  0.1300439E+00
        -11   -1    0    0    0    0  0.00000000000E+00  0.00000000000E+00  0.45593999997E+02  0.45594000000E+02  0.51100000000E-03 0.  1.
         11   -1    0    0    0    0 -0.00000000000E+00 -0.00000000000E+00 -0.45593999997E+02  0.45594000000E+02  0.51100000000E-03 0. -1.
    9900012    2    1    2    0    0 -0.20340693321E+02 -0.14411639968E+02  0.32120482144E+02  0.50528873786E+02  0.30000042360E+02 0.  0.
         12    1    1    2    0    0  0.20340693321E+02  0.14411639968E+02 -0.32120482144E+02  0.40659126214E+02  0.00000000000E+00 0. -1.
         11    1    3    3    0    0 -0.71988781455E+01 -0.17804334362E+01 -0.21247691240E+01  0.77141709772E+01  0.51100000000E-03 0. -1.
        -11    1    3    3    0    0 -0.15835798139E+02 -0.10516322873E+02  0.34489183072E+02  0.39381077927E+02  0.51100000000E-03 0.  1.
        -12    1    3    3    0    0  0.26939829642E+01 -0.21148836593E+01 -0.24393180399E+00  0.34336248817E+01  0.00000000000E+00 0.  1.
</event>
<event>
 7    1  0.5764931E-013  0.5052886E+02  0.7816164E-02  0.1300439E+00
        -11   -1    0    0    0    0  0.00000000000E+00  0.00000000000E+00  0.45593999997E+02  0.45594000000E+02  0.51100000000E-03 0. -1.
         11   -1    0    0    0    0 -0.00000000000E+00 -0.00000000000E+00 -0.45593999997E+02  0.45594000000E+02  0.51100000000E-03 0.  1.
    9900012    2    1    2    0    0 -0.10809789491E+01 -0.32780376526E+02  0.24030074010E+02  0.50528855179E+02  0.29999985801E+02 0.  0.
         12    1    1    2    0    0  0.10809789491E+01  0.32780376526E+02 -0.24030074010E+02  0.40659144821E+02  0.00000000000E+00 0. -1.
         11    1    3    3    0    0 -0.47339725778E+00  0.21423989655E+01 -0.43124387808E+01  0.48385025360E+01  0.51100000000E-03 0. -1.
        -11    1    3    3    0    0  0.13833582036E+01 -0.28025676018E+02  0.18910597493E+02  0.33837300336E+02  0.51100000000E-03 0.  1.
         12    1    3    3    0    0 -0.19909398950E+01 -0.68970994733E+01  0.94319152974E+01  0.11853052307E+02  0.00000000000E+00 0. -1.
</event>
<event>
 7    1  0.5764931E-013  0.5052887E+02  0.7816164E-02  0.1300439E+00
        -11   -1    0    0    0    0  0.00000000000E+00  0.00000000000E+00  0.45593999997E+02  0.45594000000E+02  0.51100000000E-03 0.  1.
         11   -1    0    0    0    0 -0.00000000000E+00 -0.00000000000E+00 -0.45593999997E+02  0.45594000000E+02  0.51100000000E-03 0. -1.
    9900012    2    1    2    0    0  0.14191453610E+01 -0.17752709626E+02  0.36551231918E+02  0.50528865389E+02  0.30000016837E+02 0.  0.
         12    1    1    2    0    0 -0.14191453610E+01  0.17752709626E+02 -0.36551231918E+02  0.40659134611E+02  0.00000000000E+00 0. -1.
         11    1    3    3    0    0 -0.33351930451E+01 -0.11409053118E+02  0.12790348058E+01  0.11955163570E+02  0.51100000000E-03 0. -1.
        -11    1    3    3    0    0  0.54009296677E+01 -0.52354361179E+01  0.36210912657E+02  0.36983915806E+02  0.51100000000E-03 0.  1.
        -12    1    3    3    0    0 -0.64659126159E+00 -0.11082203904E+01 -0.93871554535E+00  0.15897860134E+01  0.00000000000E+00 0.  1.
</event>
<event>
 7    1  0.5764931E-013  0.5052887E+02  0.7816164E-02  0.1300439E+00
        -11   -1    0    0    0    0  0.00000000000E+00  0.00000000000E+00  0.45593999997E+02  0.45594000000E+02  0.51100000000E-03 0. -1.
         11   -1    0    0    0    0 -0.00000000000E+00 -0.00000000000E+00 -0.45593999997E+02  0.45594000000E+02  0.51100000000E-03 0.  1.
    9900012    2    1    2    0    0 -0.30980807829E+02 -0.18199807063E+02 -0.19029497698E+02  0.50528865559E+02  0.30000017352E+02 0.  0.
         12    1    1    2    0    0  0.30980807829E+02  0.18199807063E+02  0.19029497698E+02  0.40659134441E+02  0.00000000000E+00 0. -1.
         11    1    3    3    0    0 -0.14028253255E+02 -0.21674162075E+01  0.39913951601E+01  0.14745196438E+02  0.51100000000E-03 0. -1.
        -11    1    3    3    0    0 -0.44188083639E+00 -0.91022637974E+01 -0.10665715092E+02  0.14028682889E+02  0.51100000000E-03 0.  1.
        -12    1    3    3    0    0 -0.16510673737E+02 -0.69301270586E+01 -0.12355177765E+02  0.21754986231E+02  0.00000000000E+00 0.  1.
</event>
<event>
 7    1  0.5764931E-013  0.5052886E+02  0.7816164E-02  0.1300439E+00
        -11   -1    0    0    0    0  0.00000000000E+00  0.00000000000E+00  0.45593999997E+02  0.45594000000E+02  0.51100000000E-03 0. -1.
         11   -1    0    0    0    0 -0.00000000000E+00 -0.00000000000E+00 -0.45593999997E+02  0.45594000000E+02  0.51100000000E-03 0.  1.
    9900012    2    1    2    0    0  0.16426113823E+02 -0.35544606143E+02 -0.10951239406E+02  0.50528857292E+02  0.29999992226E+02 0.  0.
         12    1    1    2    0    0 -0.16426113823E+02  0.35544606143E+02  0.10951239406E+02  0.40659142708E+02  0.00000000000E+00 0. -1.
         11    1    3    3    0    0  0.85786821321E+00 -0.15763529113E+02  0.11264167480E+01  0.15826989699E+02  0.51100000000E-03 0. -1.
        -11    1    3    3    0    0  0.12479907502E+02 -0.10499199054E+02 -0.17163741791E+02  0.23676471540E+02  0.51100000000E-03 0.  1.
        -12    1    3    3    0    0  0.30883381076E+01 -0.92818779764E+01  0.50860856378E+01  0.11025396054E+02  0.00000000000E+00 0.  1.
</event>
<event>
 7    1  0.5764931E-013  0.5052885E+02  0.7816164E-02  0.1300439E+00
        -11   -1    0    0    0    0  0.00000000000E+00  0.00000000000E+00  0.45593999997E+02  0.45594000000E+02  0.51100000000E-03 0.  1.
         11   -1    0    0    0    0 -0.00000000000E+00 -0.00000000000E+00 -0.45593999997E+02  0.45594000000E+02  0.51100000000E-03 0. -1.
    9900012    2    1    2    0    0  0.94106847600E+01 -0.26638455728E+02  0.29240350826E+02  0.50528850628E+02  0.29999971967E+02 0.  0.
         12    1    1    2    0    0 -0.94106847600E+01  0.26638455728E+02 -0.29240350826E+02  0.40659149372E+02  0.00000000000E+00 0. -1.
         11    1    3    3    0    0 -0.59725451362E+01 -0.43561716096E+01 -0.19940133707E+01  0.76566060419E+01  0.51100000000E-03 0. -1.
        -11    1    3    3    0    0  0.71744499849E+01 -0.18032238236E+02  0.16474400203E+02  0.25456633923E+02  0.51100000000E-03 0.  1.
         12    1    3    3    0    0  0.82087799113E+01 -0.42500458824E+01  0.14759963994E+02  0.17415610662E+02  0.00000000000E+00 0. -1.
</event>
<event>
 7    1  0.5764931E-013  0.5052887E+02  0.7816164E-02  0.1300439E+00
        -11   -1    0    0    0    0  0.00000000000E+00  0.00000000000E+00  0.45593999997E+02  0.45594000000E+02  0.51100000000E-03 0. -1.
         11   -1    0    0    0    0 -0.00000000000E+00 -0.00000000000E+00 -0.45593999997E+02  0.45594000000E+02  0.51100000000E-03 0.  1.
    9900012    2    1    2    0    0 -0.23542546974E+02 -0.72941019159E+01 -0.32337435923E+02  0.50528865690E+02  0.30000017751E+02 0.  0.
         12    1    1    2    0    0  0.23542546974E+02  0.72941019159E+01  0.32337435923E+02  0.40659134310E+02  0.00000000000E+00 0. -1.
         11    1    3    3    0    0 -0.64954470410E+01 -0.31866812361E+01  0.17786115037E+01  0.74504515773E+01  0.51100000000E-03 0.  1.
        -11    1    3    3    0    0 -0.45830810489E+01 -0.39366034519E+01 -0.28969132268E+02  0.29592433210E+02  0.51100000000E-03 0. -1.
        -12    1    3    3    0    0 -0.12464018884E+02 -0.17081722787E+00 -0.51469151584E+01  0.13485980903E+02  0.00000000000E+00 0.  1.
</event>
<event>
 7    1  0.5764931E-013  0.5052887E+02  0.7816164E-02  0.1300439E+00
        -11   -1    0    0    0    0  0.00000000000E+00  0.00000000000E+00  0.45593999997E+02  0.45594000000E+02  0.51100000000E-03 0. -1.
         11   -1    0    0    0    0 -0.00000000000E+00 -0.00000000000E+00 -0.45593999997E+02  0.45594000000E+02  0.51100000000E-03 0.  1.
    9900012    2    1    2    0    0  0.21660571364E+01  0.28748710111E+02 -0.28670274439E+02  0.50528870976E+02  0.30000033819E+02 0.  0.
         12    1    1    2    0    0 -0.21660571364E+01 -0.28748710111E+02  0.28670274439E+02  0.40659129024E+02  0.00000000000E+00 0. -1.
         11    1    3    3    0    0  0.16958729069E+01  0.87650998502E-01 -0.66998851789E+00  0.18255280029E+01  0.51100000000E-03 0. -1.
        -11    1    3    3    0    0  0.38061727409E+01  0.44348481032E+01 -0.23015172796E+02  0.23745589226E+02  0.51100000000E-03 0.  1.
        -12    1    3    3    0    0 -0.33359885115E+01  0.24226211009E+02 -0.49851131259E+01  0.24957753747E+02  0.00000000000E+00 0.  1.
</event>
<event>
 7    1  0.5764931E-013  0.5052886E+02  0.7816164E-02  0.1300439E+00
        -11   -1    0    0    0    0  0.00000000000E+00  0.00000000000E+00  0.45593999997E+02  0.45594000000E+02  0.51100000000E-03 0.  1.
         11   -1    0    0    0    0 -0.00000000000E+00 -0.00000000000E+00 -0.45593999997E+02  0.45594000000E+02  0.51100000000E-03 0. -1.
    9900012    2    1    2    0    0  0.16679835627E+02  0.82282858792E+01  0.36155832598E+02  0.50528857905E+02  0.29999994087E+02 0.  0.
         12    1    1    2    0    0 -0.16679835627E+02 -0.82282858792E+01 -0.36155832598E+02  0.40659142095E+02  0.00000000000E+00 0. -1.
         11    1    3    3    0    0  0.11543101912E+02 -0.99871896830E+01  0.15414006957E+02  0.21692827622E+02  0.51100000000E-03 0. -1.
        -11    1    3    3    0    0  0.39145817240E+01  0.14789156625E+02  0.19902245364E+02  0.25102638796E+02  0.51100000000E-03 0.  1.
        -12    1    3    3    0    0  0.12221519909E+01  0.34263189369E+01  0.83958027790E+00  0.37333914862E+01  0.00000000000E+00 0.  1.
</event>
<event>
 7    1  0.5764931E-013  0.5052887E+02  0.7816164E-02  0.1300439E+00
        -11   -1    0    0    0    0  0.00000000000E+00  0.00000000000E+00  0.45593999997E+02  0.45594000000E+02  0.51100000000E-03 0. -1.
         11   -1    0    0    0    0 -0.00000000000E+00 -0.00000000000E+00 -0.45593999997E+02  0.45594000000E+02  0.51100000000E-03 0.  1.
    9900012    2    1    2    0    0  0.39757280814E+02 -0.59275417990E+01  0.61145699943E+01  0.50528867007E+02  0.30000021755E+02 0.  0.
         12    1    1    2    0    0 -0.39757280814E+02  0.59275417990E+01 -0.61145699943E+01  0.40659132993E+02  0.00000000000E+00 0. -1.
         11    1    3    3    0    0  0.52133875784E+01  0.47639045545E+01  0.11547705655E+02  0.13536015027E+02  0.51100000000E-03 0. -1.
        -11    1    3    3    0    0  0.27528782249E+02 -0.62437093322E+01 -0.33240805994E+01  0.28423006006E+02  0.51100000000E-03 0.  1.
         12    1    3    3    0    0  0.70151109865E+01 -0.44477370213E+01 -0.21090550615E+01  0.85698459739E+01  0.00000000000E+00 0. -1.
</event>
<event>
 7    1  0.5764931E-013  0.5052898E+02  0.7816164E-02  0.1300438E+00
        -11   -1    0    0    0    0  0.00000000000E+00  0.00000000000E+00  0.45593999997E+02  0.45594000000E+02  0.51100000000E-03 0.  1.
         11   -1    0    0    0    0 -0.00000000000E+00 -0.00000000000E+00 -0.45593999997E+02  0.45594000000E+02  0.51100000000E-03 0. -1.
    9900012    2    1    2    0    0  0.35737340766E+02 -0.14383372788E+02 -0.13004497896E+02  0.50528980049E+02  0.30000365356E+02 0.  0.
         12    1    1    2    0    0 -0.35737340766E+02  0.14383372788E+02  0.13004497896E+02  0.40659019951E+02  0.00000000000E+00 0. -1.
         11    1    3    3    0    0  0.13404455010E+02 -0.85810086531E+01 -0.12162431666E+02  0.20030922792E+02  0.51100000000E-03 0. -1.
        -11    1    3    3    0    0  0.11127931273E+02  0.66710365889E+01  0.29544584613E+01  0.13306479949E+02  0.51100000000E-03 0.  1.
        -12    1    3    3    0    0  0.11204954483E+02 -0.12473400724E+02 -0.37965246913E+01  0.17191577308E+02  0.00000000000E+00 0.  1.
</event>
<event>
 7    1  0.5764931E-013  0.5052886E+02  0.7816164E-02  0.1300439E+00
        -11   -1    0    0    0    0  0.00000000000E+00  0.00000000000E+00  0.45593999997E+02  0.45594000000E+02  0.51100000000E-03 0.  1.
         11   -1    0    0    0    0 -0.00000000000E+00 -0.00000000000E+00 -0.45593999997E+02  0.45594000000E+02  0.51100000000E-03 0. -1.
    9900012    2    1    2    0    0 -0.13663684541E+02  0.25942893637E+02  0.28167985076E+02  0.50528863404E+02  0.30000010802E+02 0.  0.
         12    1    1    2    0    0  0.13663684541E+02 -0.25942893637E+02 -0.28167985076E+02  0.40659136596E+02  0.00000000000E+00 0. -1.
         11    1    3    3    0    0 -0.21249202793E+02  0.23068957741E+02  0.26613974215E+02  0.41134037662E+02  0.51100000000E-03 0.  1.
        -11    1    3    3    0    0  0.61828667772E+01  0.40383139968E+01  0.16588113401E+01  0.75688491096E+01  0.51100000000E-03 0. -1.
        -12    1    3    3    0    0  0.14026514751E+01 -0.11643781006E+01 -0.10480047867E+00  0.18259766324E+01  0.00000000000E+00 0.  1.
</event>
<event>
 7    1  0.5764931E-013  0.5052886E+02  0.7816164E-02  0.1300439E+00
        -11   -1    0    0    0    0  0.00000000000E+00  0.00000000000E+00  0.45593999997E+02  0.45594000000E+02  0.51100000000E-03 0.  1.
         11   -1    0    0    0    0 -0.00000000000E+00 -0.00000000000E+00 -0.45593999997E+02  0.45594000000E+02  0.51100000000E-03 0. -1.
    9900012    2    1    2    0    0  0.39704049813E+02  0.38395821039E+01 -0.78747447606E+01  0.50528861207E+02  0.30000004126E+02 0.  0.
         12    1    1    2    0    0 -0.39704049813E+02 -0.38395821039E+01  0.78747447606E+01  0.40659138793E+02  0.00000000000E+00 0. -1.
         11    1    3    3    0    0 -0.16933218467E+00  0.34444630624E+01  0.59983395034E+01  0.69190372333E+01  0.51100000000E-03 0. -1.
        -11    1    3    3    0    0  0.28519459933E+02  0.20380116946E+01 -0.48195298406E+01  0.28995533357E+02  0.51100000000E-03 0.  1.
         12    1    3    3    0    0  0.11353922066E+02 -0.16428926532E+01 -0.90535544234E+01  0.14614290617E+02  0.00000000000E+00 0. -1.
</event>
<event>
 7    1  0.5764931E-013  0.5052887E+02  0.7816164E-02  0.1300439E+00
        -11   -1    0    0    0    0  0.00000000000E+00  0.00000000000E+00  0.45593999997E+02  0.45594000000E+02  0.51100000000E-03 0. -1.
         11   -1    0    0    0    0 -0.00000000000E+00 -0.00000000000E+00 -0.45593999997E+02  0.45594000000E+02  0.51100000000E-03 0.  1.
    9900012    2    1    2    0    0  0.25070893342E+02  0.12608237875E+02 -0.29421893172E+02  0.50528866302E+02  0.30000019612E+02 0.  0.
         12    1    1    2    0    0 -0.25070893342E+02 -0.12608237875E+02  0.29421893172E+02  0.40659133698E+02  0.00000000000E+00 0. -1.
         11    1    3    3    0    0  0.11397939823E+00 -0.31092525403E+01  0.27459784014E+01  0.41498000318E+01  0.51100000000E-03 0. -1.
        -11    1    3    3    0    0  0.10049133421E+02  0.15500867481E+02 -0.18735800757E+02  0.26311446282E+02  0.51100000000E-03 0.  1.
        -12    1    3    3    0    0  0.14907780522E+02  0.21662293434E+00 -0.13432070816E+02  0.20067619988E+02  0.00000000000E+00 0.  1.
</event>
<event>
 7    1  0.5764931E-013  0.5052885E+02  0.7816164E-02  0.1300439E+00
        -11   -1    0    0    0    0  0.00000000000E+00  0.00000000000E+00  0.45593999997E+02  0.45594000000E+02  0.51100000000E-03 0. -1.
         11   -1    0    0    0    0 -0.00000000000E+00 -0.00000000000E+00 -0.45593999997E+02  0.45594000000E+02  0.51100000000E-03 0.  1.
    9900012    2    1    2    0    0  0.14663024233E+02 -0.32875716370E+02 -0.18903680142E+02  0.50528854296E+02  0.29999983118E+02 0.  0.
         12    1    1    2    0    0 -0.14663024233E+02  0.32875716370E+02  0.18903680142E+02  0.40659145704E+02  0.00000000000E+00 0. -1.
         11    1    3    3    0    0 -0.88192322033E+01 -0.89431620707E+01 -0.68286391209E+01  0.14296479181E+02  0.51100000000E-03 0.  1.
        -11    1    3    3    0    0  0.12913489196E+02 -0.12858268777E+02 -0.99924959409E+01  0.20783244563E+02  0.51100000000E-03 0. -1.
        -12    1    3    3    0    0  0.10568767240E+02 -0.11074285522E+02 -0.20825450802E+01  0.15449130552E+02  0.00000000000E+00 0.  1.
</event>
<event>
 7    1  0.5764931E-013  0.5052886E+02  0.7816164E-02  0.1300439E+00
        -11   -1    0    0    0    0  0.00000000000E+00  0.00000000000E+00  0.45593999997E+02  0.45594000000E+02  0.51100000000E-03 0.  1.
         11   -1    0    0    0    0 -0.00000000000E+00 -0.00000000000E+00 -0.45593999997E+02  0.45594000000E+02  0.51100000000E-03 0. -1.
    9900012    2    1    2    0    0 -0.10581398552E+02  0.24213796840E+02  0.30901324862E+02  0.50528857966E+02  0.29999994274E+02 0.  0.
         12    1    1    2    0    0  0.10581398552E+02 -0.24213796840E+02 -0.30901324862E+02  0.40659142034E+02  0.00000000000E+00 0. -1.
         11    1    3    3    0    0 -0.64500372075E+01 -0.25225012094E+01  0.15377587592E+01  0.70944129138E+01  0.51100000000E-03 0. -1.
        -11    1    3    3    0    0 -0.13868158925E+01  0.22049997985E+02  0.30717214938E+02  0.37837454503E+02  0.51100000000E-03 0.  1.
        -12    1    3    3    0    0 -0.27445454525E+01  0.46863000647E+01 -0.13536488357E+01  0.55969905492E+01  0.00000000000E+00 0.  1.
</event>
<event>
 7    1  0.5764931E-013  0.5052889E+02  0.7816164E-02  0.1300439E+00
        -11   -1    0    0    0    0  0.00000000000E+00  0.00000000000E+00  0.45593999997E+02  0.45594000000E+02  0.51100000000E-03 0.  1.
         11   -1    0    0    0    0 -0.00000000000E+00 -0.00000000000E+00 -0.45593999997E+02  0.45594000000E+02  0.51100000000E-03 0. -1.
    9900012    2    1    2    0    0  0.41389399340E+01  0.31155254758E+02  0.25795012845E+02  0.50528887731E+02  0.30000084747E+02 0.  0.
         12    1    1    2    0    0 -0.41389399340E+01 -0.31155254758E+02 -0.25795012845E+02  0.40659112269E+02  0.00000000000E+00 0. -1.
         11    1    3    3    0    0 -0.67473675277E+01  0.11855876565E+02  0.17036363302E+02  0.21824904410E+02  0.51100000000E-03 0. -1.
        -11    1    3    3    0    0  0.76961312528E+01  0.38313024141E+01 -0.29003578539E+01  0.90731135995E+01  0.51100000000E-03 0.  1.
        -12    1    3    3    0    0  0.31901762089E+01  0.15468075779E+02  0.11659007397E+02  0.19630869722E+02  0.00000000000E+00 0.  1.
</event>
<event>
 7    1  0.5764931E-013  0.5052888E+02  0.7816164E-02  0.1300439E+00
        -11   -1    0    0    0    0  0.00000000000E+00  0.00000000000E+00  0.45593999997E+02  0.45594000000E+02  0.51100000000E-03 0.  1.
         11   -1    0    0    0    0 -0.00000000000E+00 -0.00000000000E+00 -0.45593999997E+02  0.45594000000E+02  0.51100000000E-03 0. -1.
    9900012    2    1    2    0    0 -0.20707025819E+01  0.33160263426E+02  0.23436583119E+02  0.50528876695E+02  0.30000051202E+02 0.  0.
         12    1    1    2    0    0  0.20707025819E+01 -0.33160263426E+02 -0.23436583119E+02  0.40659123305E+02  0.00000000000E+00 0. -1.
         11    1    3    3    0    0  0.12058814819E+01  0.23515534889E+02  0.24127086149E+02  0.33712769355E+02  0.51100000000E-03 0. -1.
        -11    1    3    3    0    0 -0.11752213333E+01  0.12623975803E+02 -0.22039281588E+01  0.12868691070E+02  0.51100000000E-03 0.  1.
         12    1    3    3    0    0 -0.21013627306E+01 -0.29792472656E+01  0.15134251284E+01  0.39474162707E+01  0.00000000000E+00 0. -1.
</event>
<event>
 7    1  0.5764931E-013  0.5052886E+02  0.7816164E-02  0.1300439E+00
        -11   -1    0    0    0    0  0.00000000000E+00  0.00000000000E+00  0.45593999997E+02  0.45594000000E+02  0.51100000000E-03 0.  1.
         11   -1    0    0    0    0 -0.00000000000E+00 -0.00000000000E+00 -0.45593999997E+02  0.45594000000E+02  0.51100000000E-03 0. -1.
    9900012    2    1    2    0    0 -0.94969993002E+00  0.17568088657E+02  0.36655502438E+02  0.50528861692E+02  0.30000005598E+02 0.  0.
         12    1    1    2    0    0  0.94969993002E+00 -0.17568088657E+02 -0.36655502438E+02  0.40659138308E+02  0.00000000000E+00 0. -1.
         11    1    3    3    0    0  0.27327291031E+01  0.37307391457E+01 -0.26138680061E+01  0.53121115518E+01  0.51100000000E-03 0. -1.
        -11    1    3    3    0    0 -0.25736793540E+01  0.17726118153E+02  0.27952453893E+02  0.33199077835E+02  0.51100000000E-03 0.  1.
        -12    1    3    3    0    0 -0.11087496792E+01 -0.38887686422E+01  0.11316916551E+02  0.12017672305E+02  0.00000000000E+00 0.  1.
</event>
<event>
 7    1  0.5764931E-013  0.5052886E+02  0.7816164E-02  0.1300439E+00
        -11   -1    0    0    0    0  0.00000000000E+00  0.00000000000E+00  0.45593999997E+02  0.45594000000E+02  0.51100000000E-03 0.  1.
         11   -1    0    0    0    0 -0.00000000000E+00 -0.00000000000E+00 -0.45593999997E+02  0.45594000000E+02  0.51100000000E-03 0. -1.
    9900012    2    1    2    0    0  0.27168979691E+02 -0.10170920168E+02  0.28487978325E+02  0.50528856089E+02  0.29999988569E+02 0.  0.
         12    1    1    2    0    0 -0.27168979691E+02  0.10170920168E+02 -0.28487978325E+02  0.40659143911E+02  0.00000000000E+00 0. -1.
         11    1    3    3    0    0  0.24041585989E+02 -0.89799374576E+01  0.31045720461E+02  0.40279944052E+02  0.51100000000E-03 0. -1.
        -11    1    3    3    0    0  0.33996446440E+01 -0.50268781878E+01 -0.13348411240E+01  0.62136051619E+01  0.51100000000E-03 0.  1.
         12    1    3    3    0    0 -0.27225094208E+00  0.38358954777E+01 -0.12229010125E+01  0.40353068752E+01  0.00000000000E+00 0. -1.
</event>
<event>
 7    1  0.5764931E-013  0.5052886E+02  0.7816164E-02  0.1300439E+00
        -11   -1    0    0    0    0  0.00000000000E+00  0.00000000000E+00  0.45593999997E+02  0.45594000000E+02  0.51100000000E-03 0. -1.
         11   -1    0    0    0    0 -0.00000000000E+00 -0.00000000000E+00 -0.45593999997E+02  0.45594000000E+02  0.51100000000E-03 0.  1.
    9900012    2    1    2    0    0  0.29688332145E+02 -0.26843553132E+02 -0.71548789864E+01  0.50528859532E+02  0.29999999033E+02 0.  0.
         12    1    1    2    0    0 -0.29688332145E+02  0.26843553132E+02  0.71548789864E+01  0.40659140468E+02  0.00000000000E+00 0. -1.
         11    1    3    3    0    0  0.42631021133E+01 -0.12982979787E+02  0.81221719033E+00  0.13689101534E+02  0.51100000000E-03 0. -1.
        -11    1    3    3    0    0  0.22138347976E+01  0.47791459930E+01 -0.43894950710E+01  0.68563086404E+01  0.51100000000E-03 0.  1.
        -12    1    3    3    0    0  0.23211395234E+02 -0.18639719338E+02 -0.35776011058E+01  0.29983449358E+02  0.00000000000E+00 0.  1.
</event>
<event>
 7    1  0.5764931E-013  0.5052887E+02  0.7816164E-02  0.1300439E+00
        -11   -1    0    0    0    0  0.00000000000E+00  0.00000000000E+00  0.45593999997E+02  0.45594000000E+02  0.51100000000E-03 0.  1.
         11   -1    0    0    0    0 -0.00000000000E+00 -0.00000000000E+00 -0.45593999997E+02  0.45594000000E+02  0.51100000000E-03 0. -1.
    9900012    2    1    2    0    0  0.42015009346E+00 -0.42163947188E+01  0.40437733316E+02  0.50528870813E+02  0.30000033323E+02 0.  0.
         12    1    1    2    0    0 -0.42015009346E+00  0.42163947188E+01 -0.40437733316E+02  0.40659129187E+02  0.00000000000E+00 0. -1.
         11    1    3    3    0    0 -0.26383496487E+01  0.17139440206E+01 -0.26200151550E+01  0.40942609404E+01  0.51100000000E-03 0. -1.
        -11    1    3    3    0    0  0.72983880575E+01  0.23455033709E+01  0.24601480507E+02  0.25768210991E+02  0.51100000000E-03 0.  1.
         12    1    3    3    0    0 -0.42398883154E+01 -0.82758421103E+01  0.18456267964E+02  0.20666398881E+02  0.00000000000E+00 0. -1.
</event>
<event>
 7    1  0.5764931E-013  0.5052886E+02  0.7816164E-02  0.1300439E+00
        -11   -1    0    0    0    0  0.00000000000E+00  0.00000000000E+00  0.45593999997E+02  0.45594000000E+02  0.51100000000E-03 0. -1.
         11   -1    0    0    0    0 -0.00000000000E+00 -0.00000000000E+00 -0.45593999997E+02  0.45594000000E+02  0.51100000000E-03 0.  1.
    9900012    2    1    2    0    0  0.37527668992E+02 -0.69361483408E-01 -0.15647201838E+02  0.50528859867E+02  0.30000000051E+02 0.  0.
         12    1    1    2    0    0 -0.37527668992E+02  0.69361483408E-01  0.15647201838E+02  0.40659140133E+02  0.00000000000E+00 0. -1.
         11    1    3    3    0    0  0.96217890456E+00 -0.59712705852E+00 -0.61532343259E+01  0.62565679010E+01  0.51100000000E-03 0. -1.
        -11    1    3    3    0    0  0.22959453685E+02  0.11316192501E+02 -0.31695123295E+01  0.25792218495E+02  0.51100000000E-03 0.  1.
        -12    1    3    3    0    0  0.13606036403E+02 -0.10788426926E+02 -0.63244551824E+01  0.18480073471E+02  0.00000000000E+00 0.  1.
</event>
<event>
 7    1  0.5764931E-013  0.5052888E+02  0.7816164E-02  0.1300439E+00
        -11   -1    0    0    0    0  0.00000000000E+00  0.00000000000E+00  0.45593999997E+02  0.45594000000E+02  0.51100000000E-03 0. -1.
         11   -1    0    0    0    0 -0.00000000000E+00 -0.00000000000E+00 -0.45593999997E+02  0.45594000000E+02  0.51100000000E-03 0.  1.
    9900012    2    1    2    0    0  0.81840543001E+01  0.11273002374E+02 -0.38198234005E+02  0.50528875459E+02  0.30000047447E+02 0.  0.
         12    1    1    2    0    0 -0.81840543001E+01 -0.11273002374E+02  0.38198234005E+02  0.40659124541E+02  0.00000000000E+00 0. -1.
         11    1    3    3    0    0 -0.48947999700E+00  0.86532613183E+01 -0.75124775505E+01  0.11469779480E+02  0.51100000000E-03 0. -1.
        -11    1    3    3    0    0  0.63625209996E+01 -0.82751265449E+01 -0.61535578819E+01  0.12117164176E+02  0.51100000000E-03 0.  1.
        -12    1    3    3    0    0  0.23110132975E+01  0.10894867601E+02 -0.24532198572E+02  0.26941931803E+02  0.00000000000E+00 0.  1.
</event>
<event>
 7    1  0.5764931E-013  0.5052888E+02  0.7816164E-02  0.1300439E+00
        -11   -1    0    0    0    0  0.00000000000E+00  0.00000000000E+00  0.45593999997E+02  0.45594000000E+02  0.51100000000E-03 0.  1.
         11   -1    0    0    0    0 -0.00000000000E+00 -0.00000000000E+00 -0.45593999997E+02  0.45594000000E+02  0.51100000000E-03 0. -1.
    9900012    2    1    2    0    0  0.26225094573E+02  0.29214701491E+02 -0.10578743236E+02  0.50528878304E+02  0.30000056094E+02 0.  0.
         12    1    1    2    0    0 -0.26225094573E+02 -0.29214701491E+02  0.10578743236E+02  0.40659121696E+02  0.00000000000E+00 0. -1.
         11    1    3    3    0    0 -0.22694327934E+01  0.66460979235E+00 -0.23027744901E+01  0.33007274946E+01  0.51100000000E-03 0. -1.
        -11    1    3    3    0    0  0.29206956490E+02  0.16568031319E+02 -0.18904707459E+01  0.33632125254E+02  0.51100000000E-03 0.  1.
        -12    1    3    3    0    0 -0.71242912313E+00  0.11982060380E+02 -0.63854980004E+01  0.13596025556E+02  0.00000000000E+00 0.  1.
</event>
<event>
 7    1  0.5764931E-013  0.5052885E+02  0.7816164E-02  0.1300439E+00
        -11   -1    0    0    0    0  0.00000000000E+00  0.00000000000E+00  0.45593999997E+02  0.45594000000E+02  0.51100000000E-03 0. -1.
         11   -1    0    0    0    0 -0.00000000000E+00 -0.00000000000E+00 -0.45593999997E+02  0.45594000000E+02  0.51100000000E-03 0.  1.
    9900012    2    1    2    0    0  0.21561166471E+02  0.14351947348E+02  0.31341730454E+02  0.50528851459E+02  0.29999974494E+02 0.  0.
         12    1    1    2    0    0 -0.21561166471E+02 -0.14351947348E+02 -0.31341730454E+02  0.40659148541E+02  0.00000000000E+00 0. -1.
         11    1    3    3    0    0  0.65512553811E+01 -0.90077164325E+00  0.24098649890E+02  0.24989503064E+02  0.51100000000E-03 0. -1.
        -11    1    3    3    0    0  0.74338261831E+01  0.48079189464E-01  0.13297485931E+01  0.75519742393E+01  0.51100000000E-03 0.  1.
         12    1    3    3    0    0  0.75760849067E+01  0.15204639802E+02  0.59133319709E+01  0.17987374155E+02  0.00000000000E+00 0. -1.
</event>
<event>
 7    1  0.5764931E-013  0.5052885E+02  0.7816164E-02  0.1300439E+00
        -11   -1    0    0    0    0  0.00000000000E+00  0.00000000000E+00  0.45593999997E+02  0.45594000000E+02  0.51100000000E-03 0.  1.
         11   -1    0    0    0    0 -0.00000000000E+00 -0.00000000000E+00 -0.45593999997E+02  0.45594000000E+02  0.51100000000E-03 0. -1.
    9900012    2    1    2    0    0 -0.36224474822E+02  0.52783573498E+01 -0.17694424774E+02  0.50528852191E+02  0.29999976720E+02 0.  0.
         12    1    1    2    0    0  0.36224474822E+02 -0.52783573498E+01  0.17694424774E+02  0.40659147809E+02  0.00000000000E+00 0. -1.
         11    1    3    3    0    0 -0.21810943626E+02  0.15436862649E+02 -0.51682223020E+01  0.27216254562E+02  0.51100000000E-03 0. -1.
        -11    1    3    3    0    0 -0.49735709470E+01 -0.87993392938E+01 -0.59680261273E+01  0.11738062706E+02  0.51100000000E-03 0.  1.
         12    1    3    3    0    0 -0.94399602488E+01 -0.13591660058E+01 -0.65581763446E+01  0.11574534924E+02  0.00000000000E+00 0. -1.
</event>
<event>
 7    1  0.5764931E-013  0.5052886E+02  0.7816164E-02  0.1300439E+00
        -11   -1    0    0    0    0  0.00000000000E+00  0.00000000000E+00  0.45593999997E+02  0.45594000000E+02  0.51100000000E-03 0.  1.
         11   -1    0    0    0    0 -0.00000000000E+00 -0.00000000000E+00 -0.45593999997E+02  0.45594000000E+02  0.51100000000E-03 0. -1.
    9900012    2    1    2    0    0  0.12286506076E+02 -0.38465517282E+02 -0.47551307293E+01  0.50528861795E+02  0.30000005913E+02 0.  0.
         12    1    1    2    0    0 -0.12286506076E+02  0.38465517282E+02  0.47551307293E+01  0.40659138205E+02  0.00000000000E+00 0. -1.
         11    1    3    3    0    0  0.34156040580E+01 -0.44685635010E+01  0.32270812981E+01  0.64844787616E+01  0.51100000000E-03 0.  1.
        -11    1    3    3    0    0 -0.80982580570E+01 -0.18773064982E+02 -0.25039195989E+01  0.20598042771E+02  0.51100000000E-03 0. -1.
        -12    1    3    3    0    0  0.16969160075E+02 -0.15223888799E+02 -0.54782924285E+01  0.23446340263E+02  0.00000000000E+00 0.  1.
</event>
<event>
 7    1  0.5764931E-013  0.5052886E+02  0.7816164E-02  0.1300439E+00
        -11   -1    0    0    0    0  0.00000000000E+00  0.00000000000E+00  0.45593999997E+02  0.45594000000E+02  0.51100000000E-03 0.  1.
         11   -1    0    0    0    0 -0.00000000000E+00 -0.00000000000E+00 -0.45593999997E+02  0.45594000000E+02  0.51100000000E-03 0. -1.
    9900012    2    1    2    0    0 -0.98788124093E+01 -0.45800090110E+01  0.39173945588E+02  0.50528862896E+02  0.30000009258E+02 0.  0.
         12    1    1    2    0    0  0.98788124093E+01  0.45800090110E+01 -0.39173945588E+02  0.40659137104E+02  0.00000000000E+00 0. -1.
         11    1    3    3    0    0 -0.11547010783E+02  0.27155675642E+01  0.16140431977E+02  0.20030509476E+02  0.51100000000E-03 0. -1.
        -11    1    3    3    0    0 -0.75206698615E+00 -0.12398352897E+02  0.89066686777E+01  0.15284420385E+02  0.51100000000E-03 0.  1.
         12    1    3    3    0    0  0.24202653595E+01  0.51027763221E+01  0.14126844933E+02  0.15213933034E+02  0.00000000000E+00 0. -1.
</event>
<event>
 7    1  0.5764931E-013  0.5052885E+02  0.7816164E-02  0.1300439E+00
        -11   -1    0    0    0    0  0.00000000000E+00  0.00000000000E+00  0.45593999997E+02  0.45594000000E+02  0.51100000000E-03 0.  1.
         11   -1    0    0    0    0 -0.00000000000E+00 -0.00000000000E+00 -0.45593999997E+02  0.45594000000E+02  0.51100000000E-03 0. -1.
    9900012    2    1    2    0    0  0.99769858926E+01 -0.33340047506E+02  0.21025393281E+02  0.50528853701E+02  0.29999981308E+02 0.  0.
         12    1    1    2    0    0 -0.99769858926E+01  0.33340047506E+02 -0.21025393281E+02  0.40659146299E+02  0.00000000000E+00 0. -1.
         11    1    3    3    0    0  0.59014820583E+01  0.89713054512E+00  0.12747650626E+02  0.14076041008E+02  0.51100000000E-03 0. -1.
        -11    1    3    3    0    0  0.27273770567E+01 -0.30245515010E+02  0.98953913825E+01  0.31939764162E+02  0.51100000000E-03 0.  1.
         12    1    3    3    0    0  0.13481267776E+01 -0.39916630404E+01 -0.16176487278E+01  0.45130485310E+01  0.00000000000E+00 0. -1.
</event>
<event>
 7    1  0.5764931E-013  0.5052889E+02  0.7816164E-02  0.1300439E+00
        -11   -1    0    0    0    0  0.00000000000E+00  0.00000000000E+00  0.45593999997E+02  0.45594000000E+02  0.51100000000E-03 0.  1.
         11   -1    0    0    0    0 -0.00000000000E+00 -0.00000000000E+00 -0.45593999997E+02  0.45594000000E+02  0.51100000000E-03 0. -1.
    9900012    2    1    2    0    0  0.30799380779E+02  0.26543122518E+02 -0.15386747921E+00  0.50528894199E+02  0.30000104406E+02 0.  0.
         12    1    1    2    0    0 -0.30799380779E+02 -0.26543122518E+02  0.15386747921E+00  0.40659105801E+02  0.00000000000E+00 0. -1.
         11    1    3    3    0    0  0.21843934979E+02  0.27597828422E+02  0.39861570453E+01  0.35421562320E+02  0.51100000000E-03 0. -1.
        -11    1    3    3    0    0  0.94705224699E+01 -0.47005979690E+01 -0.17478851948E+01  0.10716413581E+02  0.51100000000E-03 0.  1.
        -12    1    3    3    0    0 -0.51507666940E+00  0.36458920650E+01 -0.23921393297E+01  0.43909182978E+01  0.00000000000E+00 0.  1.
</event>
<event>
 7    1  0.5764931E-013  0.5052886E+02  0.7816164E-02  0.1300439E+00
        -11   -1    0    0    0    0  0.00000000000E+00  0.00000000000E+00  0.45593999997E+02  0.45594000000E+02  0.51100000000E-03 0.  1.
         11   -1    0    0    0    0 -0.00000000000E+00 -0.00000000000E+00 -0.45593999997E+02  0.45594000000E+02  0.51100000000E-03 0. -1.
    9900012    2    1    2    0    0  0.31327416356E+02 -0.25761596647E+02 -0.28458321198E+01  0.50528860341E+02  0.30000001494E+02 0.  0.
         12    1    1    2    0    0 -0.31327416356E+02  0.25761596647E+02  0.28458321198E+01  0.40659139659E+02  0.00000000000E+00 0. -1.
         11    1    3    3    0    0  0.17934575273E+02 -0.65634211478E+01  0.97190895758E+01  0.21428676810E+02  0.51100000000E-03 0. -1.
        -11    1    3    3    0    0  0.10826222664E+02 -0.52274751987E+01 -0.63406189739E+01  0.13591800593E+02  0.51100000000E-03 0.  1.
         12    1    3    3    0    0  0.25666184187E+01 -0.13970700301E+02 -0.62243027216E+01  0.15508382938E+02  0.00000000000E+00 0. -1.
</event>
<event>
 7    1  0.5764931E-013  0.5052886E+02  0.7816164E-02  0.1300439E+00
        -11   -1    0    0    0    0  0.00000000000E+00  0.00000000000E+00  0.45593999997E+02  0.45594000000E+02  0.51100000000E-03 0.  1.
         11   -1    0    0    0    0 -0.00000000000E+00 -0.00000000000E+00 -0.45593999997E+02  0.45594000000E+02  0.51100000000E-03 0. -1.
    9900012    2    1    2    0    0 -0.20185824771E+02 -0.33524561538E+02  0.11036402514E+02  0.50528856767E+02  0.29999990629E+02 0.  0.
         12    1    1    2    0    0  0.20185824771E+02  0.33524561538E+02 -0.11036402514E+02  0.40659143233E+02  0.00000000000E+00 0. -1.
         11    1    3    3    0    0 -0.11556631947E+02 -0.19863069913E+01 -0.47598598676E+01  0.12655331827E+02  0.51100000000E-03 0. -1.
        -11    1    3    3    0    0 -0.29416306368E+01 -0.34343351497E+01  0.61237980186E+01  0.76124077109E+01  0.51100000000E-03 0.  1.
         12    1    3    3    0    0 -0.56875621866E+01 -0.28103919397E+02  0.96724643627E+01  0.30261117229E+02  0.00000000000E+00 0. -1.
</event>
<event>
 7    1  0.5764931E-013  0.5052886E+02  0.7816164E-02  0.1300439E+00
        -11   -1    0    0    0    0  0.00000000000E+00  0.00000000000E+00  0.45593999997E+02  0.45594000000E+02  0.51100000000E-03 0.  1.
         11   -1    0    0    0    0 -0.00000000000E+00 -0.00000000000E+00 -0.45593999997E+02  0.45594000000E+02  0.51100000000E-03 0. -1.
    9900012    2    1    2    0    0 -0.88023014420E+01  0.21328880409E+02  0.33477816818E+02  0.50528857497E+02  0.29999992849E+02 0.  0.
         12    1    1    2    0    0  0.88023014420E+01 -0.21328880409E+02 -0.33477816818E+02  0.40659142503E+02  0.00000000000E+00 0. -1.
         11    1    3    3    0    0  0.48744527592E+01  0.13501902821E+02  0.22781279134E+01  0.14534494712E+02  0.51100000000E-03 0. -1.
        -11    1    3    3    0    0 -0.16853690606E+01 -0.17114756757E+01  0.64822676823E+01  0.69129886753E+01  0.51100000000E-03 0.  1.
         12    1    3    3    0    0 -0.11991385141E+02  0.95384532631E+01  0.24717421222E+02  0.29081374110E+02  0.00000000000E+00 0. -1.
</event>
<event>
 7    1  0.5764931E-013  0.5052886E+02  0.7816164E-02  0.1300439E+00
        -11   -1    0    0    0    0  0.00000000000E+00  0.00000000000E+00  0.45593999997E+02  0.45594000000E+02  0.51100000000E-03 0.  1.
         11   -1    0    0    0    0 -0.00000000000E+00 -0.00000000000E+00 -0.45593999997E+02  0.45594000000E+02  0.51100000000E-03 0. -1.
    9900012    2    1    2    0    0 -0.34167376838E+02 -0.14724255245E+02  0.16399776411E+02  0.50528855901E+02  0.29999987998E+02 0.  0.
         12    1    1    2    0    0  0.34167376838E+02  0.14724255245E+02 -0.16399776411E+02  0.40659144099E+02  0.00000000000E+00 0. -1.
         11    1    3    3    0    0 -0.24070860150E+02  0.58502736097E+01  0.69129443725E+01  0.25718102765E+02  0.51100000000E-03 0. -1.
        -11    1    3    3    0    0 -0.36256632843E+01 -0.68087615313E+01  0.31028541487E+01  0.83145879014E+01  0.51100000000E-03 0.  1.
         12    1    3    3    0    0 -0.64708534036E+01 -0.13765767323E+02  0.63839778902E+01  0.16496165235E+02  0.00000000000E+00 0. -1.
</event>
<event>
 7    1  0.5764931E-013  0.5052887E+02  0.7816164E-02  0.1300439E+00
        -11   -1    0    0    0    0  0.00000000000E+00  0.00000000000E+00  0.45593999997E+02  0.45594000000E+02  0.51100000000E-03 0.  1.
         11   -1    0    0    0    0 -0.00000000000E+00 -0.00000000000E+00 -0.45593999997E+02  0.45594000000E+02  0.51100000000E-03 0. -1.
    9900012    2    1    2    0    0 -0.22302617035E+02 -0.14943011248E+02  0.30536285665E+02  0.50528867520E+02  0.30000023315E+02 0.  0.
         12    1    1    2    0    0  0.22302617035E+02  0.14943011248E+02 -0.30536285665E+02  0.40659132480E+02  0.00000000000E+00 0. -1.
         11    1    3    3    0    0 -0.24148121248E+01  0.48505543577E+01 -0.24128208214E+01  0.59313488982E+01  0.51100000000E-03 0.  1.
        -11    1    3    3    0    0 -0.11173284409E+02 -0.17856890150E+02  0.21790354124E+02  0.30307265522E+02  0.51100000000E-03 0. -1.
        -12    1    3    3    0    0 -0.87145205012E+01 -0.19366754559E+01  0.11158752362E+02  0.14290253100E+02  0.00000000000E+00 0.  1.
</event>
<event>
 7    1  0.5764931E-013  0.5052886E+02  0.7816164E-02  0.1300439E+00
        -11   -1    0    0    0    0  0.00000000000E+00  0.00000000000E+00  0.45593999997E+02  0.45594000000E+02  0.51100000000E-03 0.  1.
         11   -1    0    0    0    0 -0.00000000000E+00 -0.00000000000E+00 -0.45593999997E+02  0.45594000000E+02  0.51100000000E-03 0. -1.
    9900012    2    1    2    0    0 -0.25455148771E+02 -0.59190610399E+01  0.31147479859E+02  0.50528863461E+02  0.30000010975E+02 0.  0.
         12    1    1    2    0    0  0.25455148771E+02  0.59190610399E+01 -0.31147479859E+02  0.40659136539E+02  0.00000000000E+00 0. -1.
         11    1    3    3    0    0 -0.11503011421E+02 -0.11998626106E+01  0.15347464400E+01  0.11666807144E+02  0.51100000000E-03 0. -1.
        -11    1    3    3    0    0 -0.81132847139E+01  0.74988779616E+01  0.17488849424E+02  0.20686188966E+02  0.51100000000E-03 0.  1.
        -12    1    3    3    0    0 -0.58388526368E+01 -0.12218076391E+02  0.12123883996E+02  0.18175867351E+02  0.00000000000E+00 0.  1.
</event>
<event>
 7    1  0.5764931E-013  0.5052886E+02  0.7816164E-02  0.1300439E+00
        -11   -1    0    0    0    0  0.00000000000E+00  0.00000000000E+00  0.45593999997E+02  0.45594000000E+02  0.51100000000E-03 0.  1.
         11   -1    0    0    0    0 -0.00000000000E+00 -0.00000000000E+00 -0.45593999997E+02  0.45594000000E+02  0.51100000000E-03 0. -1.
    9900012    2    1    2    0    0 -0.25089938794E+02 -0.25308865599E+02  0.19573510577E+02  0.50528855605E+02  0.29999987098E+02 0.  0.
         12    1    1    2    0    0  0.25089938794E+02  0.25308865599E+02 -0.19573510577E+02  0.40659144395E+02  0.00000000000E+00 0. -1.
         11    1    3    3    0    0  0.51850677060E+01 -0.60763755303E+00  0.79458953473E+01  0.95074393841E+01  0.51100000000E-03 0. -1.
        -11    1    3    3    0    0 -0.10806035081E+02 -0.11495487944E+02  0.55387055986E+01  0.16721061486E+02  0.51100000000E-03 0.  1.
         12    1    3    3    0    0 -0.19468971419E+02 -0.13205740101E+02  0.60889096312E+01  0.24300354735E+02  0.00000000000E+00 0. -1.
</event>
<event>
 7    1  0.5764931E-013  0.5052887E+02  0.7816164E-02  0.1300439E+00
        -11   -1    0    0    0    0  0.00000000000E+00  0.00000000000E+00  0.45593999997E+02  0.45594000000E+02  0.51100000000E-03 0.  1.
         11   -1    0    0    0    0 -0.00000000000E+00 -0.00000000000E+00 -0.45593999997E+02  0.45594000000E+02  0.51100000000E-03 0. -1.
    9900012    2    1    2    0    0  0.17907010363E+02 -0.21844526869E+02  0.29245863457E+02  0.50528869370E+02  0.30000028936E+02 0.  0.
         12    1    1    2    0    0 -0.17907010363E+02  0.21844526869E+02 -0.29245863457E+02  0.40659130630E+02  0.00000000000E+00 0. -1.
         11    1    3    3    0    0  0.33338735884E+01 -0.20102970497E+01 -0.48617521057E+01  0.62283738753E+01  0.51100000000E-03 0. -1.
        -11    1    3    3    0    0  0.10560848632E+02 -0.17821767812E+02  0.33995899339E+02  0.39810401956E+02  0.51100000000E-03 0.  1.
        -12    1    3    3    0    0  0.40122881427E+01 -0.20124620070E+01  0.11171622403E+00  0.44900935385E+01  0.00000000000E+00 0.  1.
</event>
<event>
 7    1  0.5764931E-013  0.5052885E+02  0.7816164E-02  0.1300439E+00
        -11   -1    0    0    0    0  0.00000000000E+00  0.00000000000E+00  0.45593999997E+02  0.45594000000E+02  0.51100000000E-03 0.  1.
         11   -1    0    0    0    0 -0.00000000000E+00 -0.00000000000E+00 -0.45593999997E+02  0.45594000000E+02  0.51100000000E-03 0. -1.
    9900012    2    1    2    0    0 -0.58538360716E+01  0.26557818425E+01  0.40147796927E+02  0.50528853771E+02  0.29999981523E+02 0.  0.
         12    1    1    2    0    0  0.58538360716E+01 -0.26557818425E+01 -0.40147796927E+02  0.40659146229E+02  0.00000000000E+00 0. -1.
         11    1    3    3    0    0  0.18060626435E+01  0.43586859696E+01 -0.28725341209E+01  0.55237177870E+01  0.51100000000E-03 0. -1.
        -11    1    3    3    0    0 -0.31668357579E+01 -0.29749038220E+01  0.37602158412E+02  0.37852360811E+02  0.51100000000E-03 0.  1.
         12    1    3    3    0    0 -0.44930629573E+01  0.12719996950E+01  0.54181726356E+01  0.71527751727E+01  0.00000000000E+00 0. -1.
</event>
<event>
 7    1  0.5764931E-013  0.5052886E+02  0.7816164E-02  0.1300439E+00
        -11   -1    0    0    0    0  0.00000000000E+00  0.00000000000E+00  0.45593999997E+02  0.45594000000E+02  0.51100000000E-03 0. -1.
         11   -1    0    0    0    0 -0.00000000000E+00 -0.00000000000E+00 -0.45593999997E+02  0.45594000000E+02  0.51100000000E-03 0.  1.
    9900012    2    1    2    0    0  0.13708439303E+02  0.28892868198E+02 -0.25108691087E+02  0.50528861926E+02  0.30000006310E+02 0.  0.
         12    1    1    2    0    0 -0.13708439303E+02 -0.28892868198E+02  0.25108691087E+02  0.40659138074E+02  0.00000000000E+00 0. -1.
         11    1    3    3    0    0 -0.22446753051E+01 -0.21472510616E+01  0.30540821906E+01  0.43562222894E+01  0.51100000000E-03 0. -1.
        -11    1    3    3    0    0  0.78810797108E+01  0.22938458132E+02 -0.14131862357E+02  0.28071227491E+02  0.51100000000E-03 0.  1.
         12    1    3    3    0    0  0.80720348972E+01  0.81016611271E+01 -0.14030910921E+02  0.18101412146E+02  0.00000000000E+00 0. -1.
</event>
<event>
 7    1  0.5764931E-013  0.5052885E+02  0.7816164E-02  0.1300439E+00
        -11   -1    0    0    0    0  0.00000000000E+00  0.00000000000E+00  0.45593999997E+02  0.45594000000E+02  0.51100000000E-03 0. -1.
         11   -1    0    0    0    0 -0.00000000000E+00 -0.00000000000E+00 -0.45593999997E+02  0.45594000000E+02  0.51100000000E-03 0.  1.
    9900012    2    1    2    0    0  0.13228235179E+02  0.28927372158E+02  0.25325628642E+02  0.50528849345E+02  0.29999968068E+02 0.  0.
         12    1    1    2    0    0 -0.13228235179E+02 -0.28927372158E+02 -0.25325628642E+02  0.40659150655E+02  0.00000000000E+00 0. -1.
         11    1    3    3    0    0  0.63377299139E+01  0.72502686722E+01 -0.47263603467E+01  0.10727147742E+02  0.51100000000E-03 0. -1.
        -11    1    3    3    0    0  0.79804378003E+01  0.21458714058E+02  0.22265025225E+02  0.31935797235E+02  0.51100000000E-03 0.  1.
         12    1    3    3    0    0 -0.10899325356E+01  0.21838942823E+00  0.77869637634E+01  0.78659043681E+01  0.00000000000E+00 0. -1.
</event>
<event>
 7    1  0.5764931E-013  0.5052886E+02  0.7816164E-02  0.1300439E+00
        -11   -1    0    0    0    0  0.00000000000E+00  0.00000000000E+00  0.45593999997E+02  0.45594000000E+02  0.51100000000E-03 0.  1.
         11   -1    0    0    0    0 -0.00000000000E+00 -0.00000000000E+00 -0.45593999997E+02  0.45594000000E+02  0.51100000000E-03 0. -1.
    9900012    2    1    2    0    0 -0.14307941617E+02 -0.37581102981E+02  0.60090908040E+01  0.50528859984E+02  0.30000000406E+02 0.  0.
         12    1    1    2    0    0  0.14307941617E+02  0.37581102981E+02 -0.60090908040E+01  0.40659140016E+02  0.00000000000E+00 0. -1.
         11    1    3    3    0    0  0.34941924044E+01  0.20893788026E+00  0.55229958195E+01  0.65388468922E+01  0.51100000000E-03 0. -1.
        -11    1    3    3    0    0 -0.19904625185E+01 -0.20178098842E+02 -0.74475141181E+00  0.20289708447E+02  0.51100000000E-03 0.  1.
         12    1    3    3    0    0 -0.15811671503E+02 -0.17611942019E+02  0.12308463963E+01  0.23700304645E+02  0.00000000000E+00 0. -1.
</event>
<event>
 7    1  0.5764931E-013  0.5052889E+02  0.7816164E-02  0.1300439E+00
        -11   -1    0    0    0    0  0.00000000000E+00  0.00000000000E+00  0.45593999997E+02  0.45594000000E+02  0.51100000000E-03 0. -1.
         11   -1    0    0    0    0 -0.00000000000E+00 -0.00000000000E+00 -0.45593999997E+02  0.45594000000E+02  0.51100000000E-03 0.  1.
    9900012    2    1    2    0    0 -0.38451091999E+01 -0.35556632929E+02 -0.19341781846E+02  0.50528886200E+02  0.30000080093E+02 0.  0.
         12    1    1    2    0    0  0.38451091999E+01  0.35556632929E+02  0.19341781846E+02  0.40659113800E+02  0.00000000000E+00 0. -1.
         11    1    3    3    0    0 -0.42183986573E+01 -0.17017328612E+01 -0.53860802472E+01  0.70498682720E+01  0.51100000000E-03 0. -1.
        -11    1    3    3    0    0 -0.60364250707E+01 -0.17895422343E+02  0.32361492291E+01  0.19161347306E+02  0.51100000000E-03 0.  1.
        -12    1    3    3    0    0  0.64097145281E+01 -0.15959477725E+02 -0.17191850828E+02  0.24317670622E+02  0.00000000000E+00 0.  1.
</event>
<event>
 7    1  0.5764931E-013  0.5052887E+02  0.7816164E-02  0.1300439E+00
        -11   -1    0    0    0    0  0.00000000000E+00  0.00000000000E+00  0.45593999997E+02  0.45594000000E+02  0.51100000000E-03 0. -1.
         11   -1    0    0    0    0 -0.00000000000E+00 -0.00000000000E+00 -0.45593999997E+02  0.45594000000E+02  0.51100000000E-03 0.  1.
    9900012    2    1    2    0    0  0.30357003022E+02  0.16401995131E+02 -0.21507948590E+02  0.50528869054E+02  0.30000027976E+02 0.  0.
         12    1    1    2    0    0 -0.30357003022E+02 -0.16401995131E+02  0.21507948590E+02  0.40659130946E+02  0.00000000000E+00 0. -1.
         11    1    3    3    0    0  0.40383004500E+01  0.64929079843E+00 -0.52046950003E+01  0.66195392116E+01  0.51100000000E-03 0. -1.
        -11    1    3    3    0    0  0.15493648705E+02  0.22068643232E+02 -0.16038337938E+02  0.31373658511E+02  0.51100000000E-03 0.  1.
        -12    1    3    3    0    0  0.10825053868E+02 -0.63159388996E+01 -0.26491565097E+00  0.12535671331E+02  0.00000000000E+00 0.  1.
</event>
<event>
 7    1  0.5764931E-013  0.5052885E+02  0.7816164E-02  0.1300439E+00
        -11   -1    0    0    0    0  0.00000000000E+00  0.00000000000E+00  0.45593999997E+02  0.45594000000E+02  0.51100000000E-03 0.  1.
         11   -1    0    0    0    0 -0.00000000000E+00 -0.00000000000E+00 -0.45593999997E+02  0.45594000000E+02  0.51100000000E-03 0. -1.
    9900012    2    1    2    0    0  0.27763619210E+02  0.19077948079E+02  0.22767948666E+02  0.50528854154E+02  0.29999982685E+02 0.  0.
         12    1    1    2    0    0 -0.27763619210E+02 -0.19077948079E+02 -0.22767948666E+02  0.40659145846E+02  0.00000000000E+00 0. -1.
         11    1    3    3    0    0 -0.11351335348E+01 -0.67197890407E+00  0.33903405353E+00  0.13619941776E+01  0.51100000000E-03 0. -1.
        -11    1    3    3    0    0  0.30129760433E+02  0.18987638885E+02  0.10470265234E+02  0.37120874835E+02  0.51100000000E-03 0.  1.
        -12    1    3    3    0    0 -0.12310076888E+01  0.76228809808E+00  0.11958649378E+02  0.12045985141E+02  0.00000000000E+00 0.  1.
</event>
<event>
 7    1  0.5764931E-013  0.5052882E+02  0.7816164E-02  0.1300439E+00
        -11   -1    0    0    0    0  0.00000000000E+00  0.00000000000E+00  0.45593999997E+02  0.45594000000E+02  0.51100000000E-03 0.  1.
         11   -1    0    0    0    0 -0.00000000000E+00 -0.00000000000E+00 -0.45593999997E+02  0.45594000000E+02  0.51100000000E-03 0. -1.
    9900012    2    1    2    0    0 -0.16335882096E+02  0.27612721114E+02  0.24976892836E+02  0.50528824075E+02  0.29999891258E+02 0.  0.
         12    1    1    2    0    0  0.16335882096E+02 -0.27612721114E+02 -0.24976892836E+02  0.40659175925E+02  0.00000000000E+00 0. -1.
         11    1    3    3    0    0 -0.64275218290E+01  0.23801683807E+02  0.10811723446E+02  0.26920745774E+02  0.51100000000E-03 0. -1.
        -11    1    3    3    0    0  0.74352021846E+00  0.37855020460E+01  0.12175331328E+02  0.12771904371E+02  0.51100000000E-03 0.  1.
         12    1    3    3    0    0 -0.10651880486E+02  0.25535261548E-01  0.19898380620E+01  0.10836173930E+02  0.00000000000E+00 0. -1.
</event>
<event>
 7    1  0.5764931E-013  0.5052885E+02  0.7816164E-02  0.1300439E+00
        -11   -1    0    0    0    0  0.00000000000E+00  0.00000000000E+00  0.45593999997E+02  0.45594000000E+02  0.51100000000E-03 0.  1.
         11   -1    0    0    0    0 -0.00000000000E+00 -0.00000000000E+00 -0.45593999997E+02  0.45594000000E+02  0.51100000000E-03 0. -1.
    9900012    2    1    2    0    0 -0.20427399704E+01 -0.18740825445E+02  0.36024641196E+02  0.50528854679E+02  0.29999984282E+02 0.  0.
         12    1    1    2    0    0  0.20427399704E+01  0.18740825445E+02 -0.36024641196E+02  0.40659145321E+02  0.00000000000E+00 0. -1.
         11    1    3    3    0    0 -0.34496356956E+01 -0.79553430768E+01  0.35526283432E+02  0.36569171232E+02  0.51100000000E-03 0. -1.
        -11    1    3    3    0    0  0.18188456488E+01  0.29503734736E+00 -0.18657714926E+01  0.26222795531E+01  0.51100000000E-03 0.  1.
         12    1    3    3    0    0 -0.41194992364E+00 -0.11080519715E+02  0.23641292570E+01  0.11337403894E+02  0.00000000000E+00 0. -1.
</event>
<event>
 7    1  0.5764931E-013  0.5052879E+02  0.7816164E-02  0.1300439E+00
        -11   -1    0    0    0    0  0.00000000000E+00  0.00000000000E+00  0.45593999997E+02  0.45594000000E+02  0.51100000000E-03 0.  1.
         11   -1    0    0    0    0 -0.00000000000E+00 -0.00000000000E+00 -0.45593999997E+02  0.45594000000E+02  0.51100000000E-03 0. -1.
    9900012    2    1    2    0    0 -0.30771516215E+02  0.24764889179E+02 -0.96428874246E+01  0.50528791645E+02  0.29999792683E+02 0.  0.
         12    1    1    2    0    0  0.30771516215E+02 -0.24764889179E+02  0.96428874246E+01  0.40659208355E+02  0.00000000000E+00 0. -1.
         11    1    3    3    0    0 -0.14378901590E+02 -0.31480957067E+01 -0.51256207112E+01  0.15586382052E+02  0.51100000000E-03 0. -1.
        -11    1    3    3    0    0 -0.69497983345E+01  0.13447349073E+02  0.40361604278E+01  0.15665933909E+02  0.51100000000E-03 0.  1.
         12    1    3    3    0    0 -0.94428162896E+01  0.14465635812E+02 -0.85534271412E+01  0.19276475684E+02  0.00000000000E+00 0. -1.
</event>
<event>
 7    1  0.5764931E-013  0.5052887E+02  0.7816164E-02  0.1300439E+00
        -11   -1    0    0    0    0  0.00000000000E+00  0.00000000000E+00  0.45593999997E+02  0.45594000000E+02  0.51100000000E-03 0. -1.
         11   -1    0    0    0    0 -0.00000000000E+00 -0.00000000000E+00 -0.45593999997E+02  0.45594000000E+02  0.51100000000E-03 0.  1.
    9900012    2    1    2    0    0 -0.86209473156E+01 -0.30663408964E+02 -0.25270530646E+02  0.50528866942E+02  0.30000021556E+02 0.  0.
         12    1    1    2    0    0  0.86209473156E+01  0.30663408964E+02  0.25270530646E+02  0.40659133058E+02  0.00000000000E+00 0. -1.
         11    1    3    3    0    0 -0.57527803068E+01 -0.14180116756E+02 -0.26973873205E+02  0.31012256100E+02  0.51100000000E-03 0. -1.
        -11    1    3    3    0    0 -0.57174440885E+00 -0.92178715241E+01 -0.39336893436E+01  0.10038424140E+02  0.51100000000E-03 0.  1.
         12    1    3    3    0    0 -0.22964226000E+01 -0.72654206847E+01  0.56370319030E+01  0.94781867020E+01  0.00000000000E+00 0. -1.
</event>
<event>
 7    1  0.5764931E-013  0.5052886E+02  0.7816164E-02  0.1300439E+00
        -11   -1    0    0    0    0  0.00000000000E+00  0.00000000000E+00  0.45593999997E+02  0.45594000000E+02  0.51100000000E-03 0.  1.
         11   -1    0    0    0    0 -0.00000000000E+00 -0.00000000000E+00 -0.45593999997E+02  0.45594000000E+02  0.51100000000E-03 0. -1.
    9900012    2    1    2    0    0  0.26656642370E+02  0.25638078029E+02  0.16890182029E+02  0.50528857406E+02  0.29999992572E+02 0.  0.
         12    1    1    2    0    0 -0.26656642370E+02 -0.25638078029E+02 -0.16890182029E+02  0.40659142594E+02  0.00000000000E+00 0. -1.
         11    1    3    3    0    0  0.62466993261E+01  0.49504933431E+01 -0.54423564133E+01  0.96513149571E+01  0.51100000000E-03 0. -1.
        -11    1    3    3    0    0  0.20974639985E+02  0.23267028290E+02  0.21850471910E+02  0.38193366582E+02  0.51100000000E-03 0.  1.
         12    1    3    3    0    0 -0.56469694048E+00 -0.25794436042E+01  0.48206653238E+00  0.26841758668E+01  0.00000000000E+00 0. -1.
</event>
<event>
 7    1  0.5764931E-013  0.5052886E+02  0.7816164E-02  0.1300439E+00
        -11   -1    0    0    0    0  0.00000000000E+00  0.00000000000E+00  0.45593999997E+02  0.45594000000E+02  0.51100000000E-03 0.  1.
         11   -1    0    0    0    0 -0.00000000000E+00 -0.00000000000E+00 -0.45593999997E+02  0.45594000000E+02  0.51100000000E-03 0. -1.
    9900012    2    1    2    0    0  0.62323062246E+01  0.30352931716E+02  0.26325345510E+02  0.50528856861E+02  0.29999990914E+02 0.  0.
         12    1    1    2    0    0 -0.62323062246E+01 -0.30352931716E+02 -0.26325345510E+02  0.40659143139E+02  0.00000000000E+00 0. -1.
         11    1    3    3    0    0 -0.40475835518E+01  0.11746921938E+01  0.15065932768E+02  0.15644333313E+02  0.51100000000E-03 0. -1.
        -11    1    3    3    0    0  0.70132463117E+01  0.17946025726E+02  0.94810706696E+00  0.19291043789E+02  0.51100000000E-03 0.  1.
         12    1    3    3    0    0  0.32666434647E+01  0.11232213795E+02  0.10311305675E+02  0.15593479759E+02  0.00000000000E+00 0. -1.
</event>
<event>
 7    1  0.5764931E-013  0.5052886E+02  0.7816164E-02  0.1300439E+00
        -11   -1    0    0    0    0  0.00000000000E+00  0.00000000000E+00  0.45593999997E+02  0.45594000000E+02  0.51100000000E-03 0.  1.
         11   -1    0    0    0    0 -0.00000000000E+00 -0.00000000000E+00 -0.45593999997E+02  0.45594000000E+02  0.51100000000E-03 0. -1.
    9900012    2    1    2    0    0 -0.18606003989E+02  0.23866574135E+02  0.27154531996E+02  0.50528863840E+02  0.30000012128E+02 0.  0.
         12    1    1    2    0    0  0.18606003989E+02 -0.23866574135E+02 -0.27154531996E+02  0.40659136160E+02  0.00000000000E+00 0. -1.
         11    1    3    3    0    0 -0.83984493426E+00 -0.44509058491E+01 -0.63413821133E+00  0.45736237190E+01  0.51100000000E-03 0. -1.
        -11    1    3    3    0    0 -0.73321994413E+01  0.21013065134E+02  0.23855648186E+02  0.32625174415E+02  0.51100000000E-03 0.  1.
         12    1    3    3    0    0 -0.10433959613E+02  0.73044148496E+01  0.39330220217E+01  0.13330065706E+02  0.00000000000E+00 0. -1.
</event>
<event>
 7    1  0.5764931E-013  0.5052886E+02  0.7816164E-02  0.1300439E+00
        -11   -1    0    0    0    0  0.00000000000E+00  0.00000000000E+00  0.45593999997E+02  0.45594000000E+02  0.51100000000E-03 0. -1.
         11   -1    0    0    0    0 -0.00000000000E+00 -0.00000000000E+00 -0.45593999997E+02  0.45594000000E+02  0.51100000000E-03 0.  1.
    9900012    2    1    2    0    0 -0.24827683231E+02  0.32197259806E+02  0.29736948793E+00  0.50528858073E+02  0.29999994599E+02 0.  0.
         12    1    1    2    0    0  0.24827683231E+02 -0.32197259806E+02 -0.29736948793E+00  0.40659141927E+02  0.00000000000E+00 0. -1.
         11    1    3    3    0    0 -0.15225074020E+02  0.35293589065E+02  0.28091712020E+01  0.38540001961E+02  0.51100000000E-03 0. -1.
        -11    1    3    3    0    0 -0.31612420567E+01 -0.50939945424E+00 -0.37572481999E+01  0.49365831747E+01  0.51100000000E-03 0.  1.
         12    1    3    3    0    0 -0.64413671546E+01 -0.25869298053E+01  0.12454464858E+01  0.70522729376E+01  0.00000000000E+00 0. -1.
</event>
<event>
 7    1  0.5764931E-013  0.5052886E+02  0.7816164E-02  0.1300439E+00
        -11   -1    0    0    0    0  0.00000000000E+00  0.00000000000E+00  0.45593999997E+02  0.45594000000E+02  0.51100000000E-03 0.  1.
         11   -1    0    0    0    0 -0.00000000000E+00 -0.00000000000E+00 -0.45593999997E+02  0.45594000000E+02  0.51100000000E-03 0. -1.
    9900012    2    1    2    0    0  0.17269841653E+02  0.12750502104E+02  0.34530324328E+02  0.50528855483E+02  0.29999986727E+02 0.  0.
         12    1    1    2    0    0 -0.17269841653E+02 -0.12750502104E+02 -0.34530324328E+02  0.40659144517E+02  0.00000000000E+00 0. -1.
         11    1    3    3    0    0  0.61692663445E+01 -0.56425618655E+01  0.23783414457E+02  0.25210100261E+02  0.51100000000E-03 0. -1.
        -11    1    3    3    0    0  0.89172371314E+01  0.10904021558E+02  0.10401732250E+02  0.17510306629E+02  0.51100000000E-03 0.  1.
         12    1    3    3    0    0  0.21833381776E+01  0.74890424118E+01  0.34517762057E+00  0.78084485933E+01  0.00000000000E+00 0. -1.
</event>
<event>
 7    1  0.5764931E-013  0.5052886E+02  0.7816164E-02  0.1300439E+00
        -11   -1    0    0    0    0  0.00000000000E+00  0.00000000000E+00  0.45593999997E+02  0.45594000000E+02  0.51100000000E-03 0.  1.
         11   -1    0    0    0    0 -0.00000000000E+00 -0.00000000000E+00 -0.45593999997E+02  0.45594000000E+02  0.51100000000E-03 0. -1.
    9900012    2    1    2    0    0 -0.24429095172E+02 -0.30503803504E+02  0.11220633392E+02  0.50528864091E+02  0.30000012891E+02 0.  0.
         12    1    1    2    0    0  0.24429095172E+02  0.30503803504E+02 -0.11220633392E+02  0.40659135909E+02  0.00000000000E+00 0. -1.
         11    1    3    3    0    0 -0.87194174907E+01 -0.33686359956E+01 -0.23020654090E+01  0.96268091939E+01  0.51100000000E-03 0. -1.
        -11    1    3    3    0    0 -0.16697091796E+02 -0.25699112392E+02  0.18383826102E+02  0.35737967410E+02  0.51100000000E-03 0.  1.
        -12    1    3    3    0    0  0.98741411489E+00 -0.14360551171E+01 -0.48611273015E+01  0.51640874872E+01  0.00000000000E+00 0.  1.
</event>
<event>
 7    1  0.5764931E-013  0.5052886E+02  0.7816164E-02  0.1300439E+00
        -11   -1    0    0    0    0  0.00000000000E+00  0.00000000000E+00  0.45593999997E+02  0.45594000000E+02  0.51100000000E-03 0. -1.
         11   -1    0    0    0    0 -0.00000000000E+00 -0.00000000000E+00 -0.45593999997E+02  0.45594000000E+02  0.51100000000E-03 0.  1.
    9900012    2    1    2    0    0  0.30197444058E+02  0.63203751047E+01  0.26482689681E+02  0.50528860537E+02  0.30000002090E+02 0.  0.
         12    1    1    2    0    0 -0.30197444058E+02 -0.63203751047E+01 -0.26482689681E+02  0.40659139463E+02  0.00000000000E+00 0. -1.
         11    1    3    3    0    0  0.16661164879E+02 -0.80539049967E+01  0.96864748687E+01  0.20887498569E+02  0.51100000000E-03 0. -1.
        -11    1    3    3    0    0  0.56444277188E+01  0.13282358672E+02  0.16133991722E+02  0.21646854398E+02  0.51100000000E-03 0.  1.
        -12    1    3    3    0    0  0.78918514604E+01  0.10919214296E+01  0.66222308989E+00  0.79945075710E+01  0.00000000000E+00 0.  1.
</event>
<event>
 7    1  0.5764931E-013  0.5052887E+02  0.7816164E-02  0.1300439E+00
        -11   -1    0    0    0    0  0.00000000000E+00  0.00000000000E+00  0.45593999997E+02  0.45594000000E+02  0.51100000000E-03 0.  1.
         11   -1    0    0    0    0 -0.00000000000E+00 -0.00000000000E+00 -0.45593999997E+02  0.45594000000E+02  0.51100000000E-03 0. -1.
    9900012    2    1    2    0    0  0.38289790988E+02  0.12828648117E+02  0.47415963403E+01  0.50528867664E+02  0.30000023753E+02 0.  0.
         12    1    1    2    0    0 -0.38289790988E+02 -0.12828648117E+02 -0.47415963403E+01  0.40659132336E+02  0.00000000000E+00 0. -1.
         11    1    3    3    0    0  0.73542256128E+01  0.14091296309E+02  0.43233166150E+01  0.16472411264E+02  0.51100000000E-03 0. -1.
        -11    1    3    3    0    0  0.20849565065E+02 -0.19150157428E+01  0.69053492661E+01  0.22046666357E+02  0.51100000000E-03 0.  1.
        -12    1    3    3    0    0  0.10086000310E+02  0.65236755167E+00 -0.64870695408E+01  0.12009790044E+02  0.00000000000E+00 0.  1.
</event>
<event>
 7    1  0.5764931E-013  0.5052896E+02  0.7816164E-02  0.1300438E+00
        -11   -1    0    0    0    0  0.00000000000E+00  0.00000000000E+00  0.45593999997E+02  0.45594000000E+02  0.51100000000E-03 0.  1.
         11   -1    0    0    0    0 -0.00000000000E+00 -0.00000000000E+00 -0.45593999997E+02  0.45594000000E+02  0.51100000000E-03 0. -1.
    9900012    2    1    2    0    0  0.28219052756E+02  0.28979028095E+02  0.41301619854E+01  0.50528963540E+02  0.30000315175E+02 0.  0.
         12    1    1    2    0    0 -0.28219052756E+02 -0.28979028095E+02 -0.41301619854E+01  0.40659036460E+02  0.00000000000E+00 0. -1.
         11    1    3    3    0    0  0.44258754266E+01  0.16819582290E+02  0.37196809157E+01  0.17785464517E+02  0.51100000000E-03 0. -1.
        -11    1    3    3    0    0  0.26544571399E+02  0.10903043824E+02 -0.21550169059E+01  0.28777330201E+02  0.51100000000E-03 0.  1.
        -12    1    3    3    0    0 -0.27513940691E+01  0.12564019810E+01  0.25654979757E+01  0.39661688220E+01  0.00000000000E+00 0.  1.
</event>
<event>
 7    1  0.5764931E-013  0.5052888E+02  0.7816164E-02  0.1300439E+00
        -11   -1    0    0    0    0  0.00000000000E+00  0.00000000000E+00  0.45593999997E+02  0.45594000000E+02  0.51100000000E-03 0.  1.
         11   -1    0    0    0    0 -0.00000000000E+00 -0.00000000000E+00 -0.45593999997E+02  0.45594000000E+02  0.51100000000E-03 0. -1.
    9900012    2    1    2    0    0 -0.36955951077E+02 -0.15772327555E+02 -0.62173231011E+01  0.50528883642E+02  0.30000072317E+02 0.  0.
         12    1    1    2    0    0  0.36955951077E+02  0.15772327555E+02  0.62173231011E+01  0.40659116358E+02  0.00000000000E+00 0. -1.
         11    1    3    3    0    0 -0.29023349778E+02 -0.62512091391E+01  0.11882271932E+01  0.29712696481E+02  0.51100000000E-03 0.  1.
        -11    1    3    3    0    0 -0.33373473771E+01 -0.11786918324E+02 -0.92717266000E+01  0.15363406051E+02  0.51100000000E-03 0. -1.
         12    1    3    3    0    0 -0.45952539216E+01  0.22657999076E+01  0.18661763057E+01  0.54527811096E+01  0.00000000000E+00 0. -1.
</event>
<event>
 7    1  0.5764931E-013  0.5052883E+02  0.7816164E-02  0.1300439E+00
        -11   -1    0    0    0    0  0.00000000000E+00  0.00000000000E+00  0.45593999997E+02  0.45594000000E+02  0.51100000000E-03 0.  1.
         11   -1    0    0    0    0 -0.00000000000E+00 -0.00000000000E+00 -0.45593999997E+02  0.45594000000E+02  0.51100000000E-03 0. -1.
    9900012    2    1    2    0    0  0.23642255124E+02 -0.33036031568E+02 -0.16829951553E+01  0.50528830286E+02  0.29999910138E+02 0.  0.
         12    1    1    2    0    0 -0.23642255124E+02  0.33036031568E+02  0.16829951553E+01  0.40659169714E+02  0.00000000000E+00 0. -1.
         11    1    3    3    0    0  0.10467452223E+02 -0.28456345018E+01  0.52154166011E+01  0.12036019373E+02  0.51100000000E-03 0.  1.
        -11    1    3    3    0    0  0.86425826895E+01 -0.31497734352E+02 -0.80456821513E+01  0.33638289291E+02  0.51100000000E-03 0. -1.
        -12    1    3    3    0    0  0.45322202113E+01  0.13073372862E+01  0.11472703949E+01  0.48545216224E+01  0.00000000000E+00 0.  1.
</event>
<event>
 7    1  0.5764931E-013  0.5052885E+02  0.7816164E-02  0.1300439E+00
        -11   -1    0    0    0    0  0.00000000000E+00  0.00000000000E+00  0.45593999997E+02  0.45594000000E+02  0.51100000000E-03 0.  1.
         11   -1    0    0    0    0 -0.00000000000E+00 -0.00000000000E+00 -0.45593999997E+02  0.45594000000E+02  0.51100000000E-03 0. -1.
    9900012    2    1    2    0    0 -0.16490372754E+02  0.36888468293E+02  0.45249494327E+01  0.50528847845E+02  0.29999963510E+02 0.  0.
         12    1    1    2    0    0  0.16490372754E+02 -0.36888468293E+02 -0.45249494327E+01  0.40659152155E+02  0.00000000000E+00 0. -1.
         11    1    3    3    0    0 -0.10364735592E+02  0.12384485518E+02 -0.20968239002E+01  0.16284959201E+02  0.51100000000E-03 0. -1.
        -11    1    3    3    0    0  0.13824701893E+01  0.22386126151E+02  0.11334204280E+02  0.25129943390E+02  0.51100000000E-03 0.  1.
        -12    1    3    3    0    0 -0.75081073509E+01  0.21178566246E+01 -0.47124309468E+01  0.91139452546E+01  0.00000000000E+00 0.  1.
</event>
<event>
 7    1  0.5764931E-013  0.5052886E+02  0.7816164E-02  0.1300439E+00
        -11   -1    0    0    0    0  0.00000000000E+00  0.00000000000E+00  0.45593999997E+02  0.45594000000E+02  0.51100000000E-03 0.  1.
         11   -1    0    0    0    0 -0.00000000000E+00 -0.00000000000E+00 -0.45593999997E+02  0.45594000000E+02  0.51100000000E-03 0. -1.
    9900012    2    1    2    0    0 -0.77589686476E+01 -0.22255731965E+02  0.33130744080E+02  0.50528863228E+02  0.30000010267E+02 0.  0.
         12    1    1    2    0    0  0.77589686476E+01  0.22255731965E+02 -0.33130744080E+02  0.40659136772E+02  0.00000000000E+00 0. -1.
         11    1    3    3    0    0  0.17335485050E+01 -0.11248390398E+02 -0.64256722608E-02  0.11381191437E+02  0.51100000000E-03 0. -1.
        -11    1    3    3    0    0 -0.10373986622E+02 -0.61527686110E+00  0.17444309834E+02  0.20305223710E+02  0.51100000000E-03 0.  1.
         12    1    3    3    0    0  0.88146946970E+00 -0.10392064705E+02  0.15692859919E+02  0.18842448081E+02  0.00000000000E+00 0. -1.
</event>
<event>
 7    1  0.5764931E-013  0.5052886E+02  0.7816164E-02  0.1300439E+00
        -11   -1    0    0    0    0  0.00000000000E+00  0.00000000000E+00  0.45593999997E+02  0.45594000000E+02  0.51100000000E-03 0. -1.
         11   -1    0    0    0    0 -0.00000000000E+00 -0.00000000000E+00 -0.45593999997E+02  0.45594000000E+02  0.51100000000E-03 0.  1.
    9900012    2    1    2    0    0 -0.38339152772E+01  0.13158832136E+02 -0.38279392153E+02  0.50528860398E+02  0.30000001666E+02 0.  0.
         12    1    1    2    0    0  0.38339152772E+01 -0.13158832136E+02  0.38279392153E+02  0.40659139602E+02  0.00000000000E+00 0. -1.
         11    1    3    3    0    0  0.44133863895E+00 -0.11898659064E+01  0.21619197290E+01  0.25068820964E+01  0.51100000000E-03 0. -1.
        -11    1    3    3    0    0 -0.85944795231E+01  0.46980302514E+01 -0.34564229196E+02  0.35925234956E+02  0.51100000000E-03 0.  1.
        -12    1    3    3    0    0  0.43192256069E+01  0.96506677914E+01 -0.58770826865E+01  0.12096743346E+02  0.00000000000E+00 0.  1.
</event>
<event>
 7    1  0.5764931E-013  0.5052886E+02  0.7816164E-02  0.1300439E+00
        -11   -1    0    0    0    0  0.00000000000E+00  0.00000000000E+00  0.45593999997E+02  0.45594000000E+02  0.51100000000E-03 0.  1.
         11   -1    0    0    0    0 -0.00000000000E+00 -0.00000000000E+00 -0.45593999997E+02  0.45594000000E+02  0.51100000000E-03 0. -1.
    9900012    2    1    2    0    0  0.12490914634E+02 -0.28444466596E+02  0.26230798944E+02  0.50528862754E+02  0.30000008828E+02 0.  0.
         12    1    1    2    0    0 -0.12490914634E+02  0.28444466596E+02 -0.26230798944E+02  0.40659137246E+02  0.00000000000E+00 0. -1.
         11    1    3    3    0    0  0.17059241998E+02 -0.63465608717E+01  0.76640411576E+01  0.19749280988E+02  0.51100000000E-03 0. -1.
        -11    1    3    3    0    0 -0.26201893154E+01 -0.79694454756E+01  0.12995195373E+02  0.15467790931E+02  0.51100000000E-03 0.  1.
         12    1    3    3    0    0 -0.19481380478E+01 -0.14128460248E+02  0.55715624131E+01  0.15311790835E+02  0.00000000000E+00 0. -1.
</event>
<event>
 7    1  0.5764931E-013  0.5052889E+02  0.7816164E-02  0.1300439E+00
        -11   -1    0    0    0    0  0.00000000000E+00  0.00000000000E+00  0.45593999997E+02  0.45594000000E+02  0.51100000000E-03 0.  1.
         11   -1    0    0    0    0 -0.00000000000E+00 -0.00000000000E+00 -0.45593999997E+02  0.45594000000E+02  0.51100000000E-03 0. -1.
    9900012    2    1    2    0    0 -0.79077795979E+01  0.21162764528E+02  0.33804849957E+02  0.50528887107E+02  0.30000082851E+02 0.  0.
         12    1    1    2    0    0  0.79077795979E+01 -0.21162764528E+02 -0.33804849957E+02  0.40659112893E+02  0.00000000000E+00 0. -1.
         11    1    3    3    0    0  0.27671107669E+01  0.12367288397E+01 -0.47700371938E+01  0.56515179651E+01  0.51100000000E-03 0. -1.
        -11    1    3    3    0    0 -0.20987232762E+01  0.35960915999E+01  0.10392432656E+02  0.11195497798E+02  0.51100000000E-03 0.  1.
         12    1    3    3    0    0 -0.85761670887E+01  0.16329944089E+02  0.28182454495E+02  0.33681871344E+02  0.00000000000E+00 0. -1.
</event>
<event>
 7    1  0.5764931E-013  0.5052886E+02  0.7816164E-02  0.1300439E+00
        -11   -1    0    0    0    0  0.00000000000E+00  0.00000000000E+00  0.45593999997E+02  0.45594000000E+02  0.51100000000E-03 0.  1.
         11   -1    0    0    0    0 -0.00000000000E+00 -0.00000000000E+00 -0.45593999997E+02  0.45594000000E+02  0.51100000000E-03 0. -1.
    9900012    2    1    2    0    0 -0.35436206404E+02  0.16491653135E+02  0.11201158929E+02  0.50528864387E+02  0.30000013791E+02 0.  0.
         12    1    1    2    0    0  0.35436206404E+02 -0.16491653135E+02 -0.11201158929E+02  0.40659135613E+02  0.00000000000E+00 0. -1.
         11    1    3    3    0    0 -0.16528539552E+02  0.19990621629E+02  0.11261171730E+01  0.25963160689E+02  0.51100000000E-03 0.  1.
        -11    1    3    3    0    0 -0.10573823234E+02 -0.45550593234E+01  0.85512958085E-01  0.11513540548E+02  0.51100000000E-03 0. -1.
         12    1    3    3    0    0 -0.83338436182E+01  0.10560908293E+01  0.99895287980E+01  0.13052163150E+02  0.00000000000E+00 0. -1.
</event>
<event>
 7    1  0.5764931E-013  0.5052886E+02  0.7816164E-02  0.1300439E+00
        -11   -1    0    0    0    0  0.00000000000E+00  0.00000000000E+00  0.45593999997E+02  0.45594000000E+02  0.51100000000E-03 0. -1.
         11   -1    0    0    0    0 -0.00000000000E+00 -0.00000000000E+00 -0.45593999997E+02  0.45594000000E+02  0.51100000000E-03 0.  1.
    9900012    2    1    2    0    0  0.31775703053E+02  0.15445275431E+02 -0.20122469380E+02  0.50528860663E+02  0.30000002471E+02 0.  0.
         12    1    1    2    0    0 -0.31775703053E+02 -0.15445275431E+02  0.20122469380E+02  0.40659139337E+02  0.00000000000E+00 0. -1.
         11    1    3    3    0    0  0.27286855460E+01 -0.68164169381E+00 -0.30192832935E+01  0.41263097406E+01  0.51100000000E-03 0. -1.
        -11    1    3    3    0    0  0.15293494912E+02  0.14443596515E+02 -0.23154008894E+02  0.31282848256E+02  0.51100000000E-03 0.  1.
        -12    1    3    3    0    0  0.13753522595E+02  0.16833206104E+01  0.60508228075E+01  0.15119702666E+02  0.00000000000E+00 0.  1.
</event>
<event>
 7    1  0.5764931E-013  0.5052886E+02  0.7816164E-02  0.1300439E+00
        -11   -1    0    0    0    0  0.00000000000E+00  0.00000000000E+00  0.45593999997E+02  0.45594000000E+02  0.51100000000E-03 0. -1.
         11   -1    0    0    0    0 -0.00000000000E+00 -0.00000000000E+00 -0.45593999997E+02  0.45594000000E+02  0.51100000000E-03 0.  1.
    9900012    2    1    2    0    0  0.49589860718E+01 -0.37254497216E+02 -0.15513764135E+02  0.50528856093E+02  0.29999988579E+02 0.  0.
         12    1    1    2    0    0 -0.49589860718E+01  0.37254497216E+02  0.15513764135E+02  0.40659143907E+02  0.00000000000E+00 0. -1.
         11    1    3    3    0    0  0.47920637166E+00 -0.26642493983E+02 -0.82582361284E+01  0.27897143019E+02  0.51100000000E-03 0. -1.
        -11    1    3    3    0    0  0.96410802735E+00  0.47407162239E+01  0.86016431427E+00  0.49136318047E+01  0.51100000000E-03 0.  1.
        -12    1    3    3    0    0  0.35156716728E+01 -0.15352719456E+02 -0.81156923204E+01  0.17718081269E+02  0.00000000000E+00 0.  1.
</event>
<event>
 7    1  0.5764931E-013  0.5052884E+02  0.7816164E-02  0.1300439E+00
        -11   -1    0    0    0    0  0.00000000000E+00  0.00000000000E+00  0.45593999997E+02  0.45594000000E+02  0.51100000000E-03 0. -1.
         11   -1    0    0    0    0 -0.00000000000E+00 -0.00000000000E+00 -0.45593999997E+02  0.45594000000E+02  0.51100000000E-03 0.  1.
    9900012    2    1    2    0    0 -0.12137376298E+02 -0.38613562158E+02  0.38528089342E+01  0.50528840852E+02  0.29999942255E+02 0.  0.
         12    1    1    2    0    0  0.12137376298E+02  0.38613562158E+02 -0.38528089342E+01  0.40659159148E+02  0.00000000000E+00 0. -1.
         11    1    3    3    0    0 -0.68880856318E+00 -0.47927185845E+01  0.11283254297E+02  0.12278291268E+02  0.51100000000E-03 0. -1.
        -11    1    3    3    0    0 -0.10267650519E+01 -0.14131205098E+02 -0.73745875776E+01  0.15972781417E+02  0.51100000000E-03 0.  1.
         12    1    3    3    0    0 -0.10421802683E+02 -0.19689638475E+02 -0.55857784751E-01  0.22277768168E+02  0.00000000000E+00 0. -1.
</event>
<event>
 7    1  0.5764931E-013  0.5052882E+02  0.7816164E-02  0.1300439E+00
        -11   -1    0    0    0    0  0.00000000000E+00  0.00000000000E+00  0.45593999997E+02  0.45594000000E+02  0.51100000000E-03 0. -1.
         11   -1    0    0    0    0 -0.00000000000E+00 -0.00000000000E+00 -0.45593999997E+02  0.45594000000E+02  0.51100000000E-03 0.  1.
    9900012    2    1    2    0    0  0.36167888394E+02 -0.15960851196E+02  0.95028222304E+01  0.50528824502E+02  0.29999892557E+02 0.  0.
         12    1    1    2    0    0 -0.36167888394E+02  0.15960851196E+02 -0.95028222304E+01  0.40659175498E+02  0.00000000000E+00 0. -1.
         11    1    3    3    0    0 -0.44457662643E+01  0.52425210763E+00  0.65620376039E+00  0.45244095289E+01  0.51100000000E-03 0. -1.
        -11    1    3    3    0    0  0.32007703487E+02 -0.16384353746E+02  0.41400897660E+01  0.36195033827E+02  0.51100000000E-03 0.  1.
         12    1    3    3    0    0  0.86059511714E+01 -0.10074955727E+00  0.47065287040E+01  0.98093811466E+01  0.00000000000E+00 0. -1.
</event>
<event>
 7    1  0.5764931E-013  0.5052886E+02  0.7816164E-02  0.1300439E+00
        -11   -1    0    0    0    0  0.00000000000E+00  0.00000000000E+00  0.45593999997E+02  0.45594000000E+02  0.51100000000E-03 0. -1.
         11   -1    0    0    0    0 -0.00000000000E+00 -0.00000000000E+00 -0.45593999997E+02  0.45594000000E+02  0.51100000000E-03 0.  1.
    9900012    2    1    2    0    0  0.25329621506E+02 -0.30395967265E+02  0.93627636498E+01  0.50528857181E+02  0.29999991887E+02 0.  0.
         12    1    1    2    0    0 -0.25329621506E+02  0.30395967265E+02 -0.93627636498E+01  0.40659142819E+02  0.00000000000E+00 0. -1.
         11    1    3    3    0    0  0.25009787885E+01 -0.55511662705E+01 -0.45953200102E+01  0.76280605740E+01  0.51100000000E-03 0. -1.
        -11    1    3    3    0    0  0.20733352456E+02 -0.24999917102E+02  0.18867084187E+02  0.37561078594E+02  0.51100000000E-03 0.  1.
        -12    1    3    3    0    0  0.20952902620E+01  0.15511610714E+00 -0.49090005269E+01  0.53397180133E+01  0.00000000000E+00 0.  1.
</event>
<event>
 7    1  0.5764931E-013  0.5052885E+02  0.7816164E-02  0.1300439E+00
        -11   -1    0    0    0    0  0.00000000000E+00  0.00000000000E+00  0.45593999997E+02  0.45594000000E+02  0.51100000000E-03 0. -1.
         11   -1    0    0    0    0 -0.00000000000E+00 -0.00000000000E+00 -0.45593999997E+02  0.45594000000E+02  0.51100000000E-03 0.  1.
    9900012    2    1    2    0    0 -0.16518770946E+02 -0.14415206254E+02 -0.34241762911E+02  0.50528852294E+02  0.29999977032E+02 0.  0.
         12    1    1    2    0    0  0.16518770946E+02  0.14415206254E+02  0.34241762911E+02  0.40659147706E+02  0.00000000000E+00 0. -1.
         11    1    3    3    0    0 -0.18980706244E+02 -0.52570740920E+01 -0.14976211004E+02  0.24742492474E+02  0.51100000000E-03 0. -1.
        -11    1    3    3    0    0  0.44118539558E+01 -0.11356512781E+02 -0.19327641582E+02  0.22847156655E+02  0.51100000000E-03 0.  1.
        -12    1    3    3    0    0 -0.19499186579E+01  0.21983806181E+01  0.62089674432E-01  0.29392031645E+01  0.00000000000E+00 0.  1.
</event>
<event>
 7    1  0.5764931E-013  0.5052886E+02  0.7816164E-02  0.1300439E+00
        -11   -1    0    0    0    0  0.00000000000E+00  0.00000000000E+00  0.45593999997E+02  0.45594000000E+02  0.51100000000E-03 0.  1.
         11   -1    0    0    0    0 -0.00000000000E+00 -0.00000000000E+00 -0.45593999997E+02  0.45594000000E+02  0.51100000000E-03 0. -1.
    9900012    2    1    2    0    0  0.10394252710E+02 -0.39165627416E+02 -0.33435014779E+01  0.50528857579E+02  0.29999993096E+02 0.  0.
         12    1    1    2    0    0 -0.10394252710E+02  0.39165627416E+02  0.33435014779E+01  0.40659142421E+02  0.00000000000E+00 0. -1.
         11    1    3    3    0    0  0.71936523084E+01 -0.63124626961E+01  0.90771193198E+01  0.13190523653E+02  0.51100000000E-03 0. -1.
        -11    1    3    3    0    0  0.22814563885E+01 -0.23941303687E+02 -0.28326375982E+01  0.24216005069E+02  0.51100000000E-03 0.  1.
        -12    1    3    3    0    0  0.91914401287E+00 -0.89118610330E+01 -0.95879831995E+01  0.13122328857E+02  0.00000000000E+00 0.  1.
</event>
<event>
 7    1  0.5764931E-013  0.5052886E+02  0.7816164E-02  0.1300439E+00
        -11   -1    0    0    0    0  0.00000000000E+00  0.00000000000E+00  0.45593999997E+02  0.45594000000E+02  0.51100000000E-03 0. -1.
         11   -1    0    0    0    0 -0.00000000000E+00 -0.00000000000E+00 -0.45593999997E+02  0.45594000000E+02  0.51100000000E-03 0.  1.
    9900012    2    1    2    0    0 -0.27537213545E+02 -0.26195515522E+02 -0.14445167844E+02  0.50528855428E+02  0.29999986559E+02 0.  0.
         12    1    1    2    0    0  0.27537213545E+02  0.26195515522E+02  0.14445167844E+02  0.40659144572E+02  0.00000000000E+00 0. -1.
         11    1    3    3    0    0 -0.25030318925E+01 -0.85743736111E+01 -0.95709674216E+01  0.13091541892E+02  0.51100000000E-03 0.  1.
        -11    1    3    3    0    0 -0.36422297166E+01  0.19271601918E+01  0.53100548545E+01  0.67213441016E+01  0.51100000000E-03 0. -1.
        -12    1    3    3    0    0 -0.21391951936E+02 -0.19548302103E+02 -0.10184255277E+02  0.30715969434E+02  0.00000000000E+00 0.  1.
</event>
<event>
 7    1  0.5764931E-013  0.5052886E+02  0.7816164E-02  0.1300439E+00
        -11   -1    0    0    0    0  0.00000000000E+00  0.00000000000E+00  0.45593999997E+02  0.45594000000E+02  0.51100000000E-03 0.  1.
         11   -1    0    0    0    0 -0.00000000000E+00 -0.00000000000E+00 -0.45593999997E+02  0.45594000000E+02  0.51100000000E-03 0. -1.
    9900012    2    1    2    0    0 -0.17951463246E+02 -0.35135368507E+02  0.98191733074E+01  0.50528864283E+02  0.30000013474E+02 0.  0.
         12    1    1    2    0    0  0.17951463246E+02  0.35135368507E+02 -0.98191733074E+01  0.40659135717E+02  0.00000000000E+00 0. -1.
         11    1    3    3    0    0 -0.98973645000E+01  0.22228697859E+00  0.19526327246E+01  0.10090590189E+02  0.51100000000E-03 0. -1.
        -11    1    3    3    0    0  0.13647161666E+00 -0.25203859611E+02 -0.54994786972E-03  0.25204229097E+02  0.51100000000E-03 0.  1.
         12    1    3    3    0    0 -0.81905703631E+01 -0.10153795875E+02  0.78670905307E+01  0.15234044996E+02  0.00000000000E+00 0. -1.
</event>
<event>
 7    1  0.5764931E-013  0.5052887E+02  0.7816164E-02  0.1300439E+00
        -11   -1    0    0    0    0  0.00000000000E+00  0.00000000000E+00  0.45593999997E+02  0.45594000000E+02  0.51100000000E-03 0. -1.
         11   -1    0    0    0    0 -0.00000000000E+00 -0.00000000000E+00 -0.45593999997E+02  0.45594000000E+02  0.51100000000E-03 0.  1.
    9900012    2    1    2    0    0 -0.24469756411E+02  0.11349648516E+02 -0.30423367863E+02  0.50528870492E+02  0.30000032347E+02 0.  0.
         12    1    1    2    0    0  0.24469756411E+02 -0.11349648516E+02  0.30423367863E+02  0.40659129508E+02  0.00000000000E+00 0. -1.
         11    1    3    3    0    0 -0.54185763964E+01  0.18140897483E+02 -0.96769667517E+01  0.21262568458E+02  0.51100000000E-03 0. -1.
        -11    1    3    3    0    0 -0.10707570018E+02 -0.32571434246E+01 -0.86113095286E+01  0.14121462071E+02  0.51100000000E-03 0.  1.
         12    1    3    3    0    0 -0.83436099967E+01 -0.35341055431E+01 -0.12135091583E+02  0.15144839962E+02  0.00000000000E+00 0. -1.
</event>
<event>
 7    1  0.5764931E-013  0.5052885E+02  0.7816164E-02  0.1300439E+00
        -11   -1    0    0    0    0  0.00000000000E+00  0.00000000000E+00  0.45593999997E+02  0.45594000000E+02  0.51100000000E-03 0.  1.
         11   -1    0    0    0    0 -0.00000000000E+00 -0.00000000000E+00 -0.45593999997E+02  0.45594000000E+02  0.51100000000E-03 0. -1.
    9900012    2    1    2    0    0  0.23690322027E+02 -0.24610331493E+02  0.22051454148E+02  0.50528850919E+02  0.29999972854E+02 0.  0.
         12    1    1    2    0    0 -0.23690322027E+02  0.24610331493E+02 -0.22051454148E+02  0.40659149081E+02  0.00000000000E+00 0. -1.
         11    1    3    3    0    0 -0.26182699303E+01 -0.58867642355E+00  0.27802302717E+01  0.38641374179E+01  0.51100000000E-03 0. -1.
        -11    1    3    3    0    0  0.17673432351E+02 -0.48956913563E+01  0.24797440756E+00  0.18340651474E+02  0.51100000000E-03 0.  1.
        -12    1    3    3    0    0  0.86351596068E+01 -0.19125963713E+02  0.19023249468E+02  0.28324062027E+02  0.00000000000E+00 0.  1.
</event>
<event>
 7    1  0.5764931E-013  0.5052886E+02  0.7816164E-02  0.1300439E+00
        -11   -1    0    0    0    0  0.00000000000E+00  0.00000000000E+00  0.45593999997E+02  0.45594000000E+02  0.51100000000E-03 0.  1.
         11   -1    0    0    0    0 -0.00000000000E+00 -0.00000000000E+00 -0.45593999997E+02  0.45594000000E+02  0.51100000000E-03 0. -1.
    9900012    2    1    2    0    0 -0.22065005536E+02 -0.21184737274E+02 -0.26786337466E+02  0.50528862804E+02  0.30000008979E+02 0.  0.
         12    1    1    2    0    0  0.22065005536E+02  0.21184737274E+02  0.26786337466E+02  0.40659137196E+02  0.00000000000E+00 0. -1.
         11    1    3    3    0    0 -0.88020681658E+01 -0.12041394351E+02  0.16141485976E+01  0.15002568375E+02  0.51100000000E-03 0. -1.
        -11    1    3    3    0    0 -0.12651474177E+02 -0.48765141085E+00 -0.16471672035E+02  0.20775311854E+02  0.51100000000E-03 0.  1.
        -12    1    3    3    0    0 -0.61146319382E+00 -0.86556915124E+01 -0.11928814029E+02  0.14750982575E+02  0.00000000000E+00 0.  1.
</event>
<event>
 7    1  0.5764931E-013  0.5052886E+02  0.7816164E-02  0.1300439E+00
        -11   -1    0    0    0    0  0.00000000000E+00  0.00000000000E+00  0.45593999997E+02  0.45594000000E+02  0.51100000000E-03 0.  1.
         11   -1    0    0    0    0 -0.00000000000E+00 -0.00000000000E+00 -0.45593999997E+02  0.45594000000E+02  0.51100000000E-03 0. -1.
    9900012    2    1    2    0    0  0.75483297982E+01  0.32227969372E+02  0.23612421446E+02  0.50528859095E+02  0.29999997706E+02 0.  0.
         12    1    1    2    0    0 -0.75483297982E+01 -0.32227969372E+02 -0.23612421446E+02  0.40659140905E+02  0.00000000000E+00 0. -1.
         11    1    3    3    0    0 -0.40294921336E+01  0.99649558372E+01  0.19065682288E+02  0.21886922878E+02  0.51100000000E-03 0. -1.
        -11    1    3    3    0    0  0.12920661582E+02  0.11158836905E+02  0.22017111671E+01  0.17213676804E+02  0.51100000000E-03 0.  1.
        -12    1    3    3    0    0 -0.13428396503E+01  0.11104176629E+02  0.23450279911E+01  0.11428259413E+02  0.00000000000E+00 0.  1.
</event>
<event>
 7    1  0.5764931E-013  0.5052886E+02  0.7816164E-02  0.1300439E+00
        -11   -1    0    0    0    0  0.00000000000E+00  0.00000000000E+00  0.45593999997E+02  0.45594000000E+02  0.51100000000E-03 0.  1.
         11   -1    0    0    0    0 -0.00000000000E+00 -0.00000000000E+00 -0.45593999997E+02  0.45594000000E+02  0.51100000000E-03 0. -1.
    9900012    2    1    2    0    0  0.15027425974E+02 -0.34832503531E+02  0.14630063408E+02  0.50528860942E+02  0.30000003320E+02 0.  0.
         12    1    1    2    0    0 -0.15027425974E+02  0.34832503531E+02 -0.14630063408E+02  0.40659139058E+02  0.00000000000E+00 0. -1.
         11    1    3    3    0    0  0.13067210631E+02 -0.22580994859E+02  0.71435345666E+01  0.27049647112E+02  0.51100000000E-03 0. -1.
        -11    1    3    3    0    0 -0.22915083376E+01  0.25394900460E+01 -0.32467740455E+01  0.47160960676E+01  0.51100000000E-03 0.  1.
        -12    1    3    3    0    0  0.42517236803E+01 -0.14790998717E+02  0.10733302887E+02  0.18763117763E+02  0.00000000000E+00 0.  1.
</event>
<event>
 7    1  0.5764931E-013  0.5052886E+02  0.7816164E-02  0.1300439E+00
        -11   -1    0    0    0    0  0.00000000000E+00  0.00000000000E+00  0.45593999997E+02  0.45594000000E+02  0.51100000000E-03 0.  1.
         11   -1    0    0    0    0 -0.00000000000E+00 -0.00000000000E+00 -0.45593999997E+02  0.45594000000E+02  0.51100000000E-03 0. -1.
    9900012    2    1    2    0    0  0.39578531984E+01 -0.51837435564E+01  0.40132653887E+02  0.50528859488E+02  0.29999998899E+02 0.  0.
         12    1    1    2    0    0 -0.39578531984E+01  0.51837435564E+01 -0.40132653887E+02  0.40659140512E+02  0.00000000000E+00 0. -1.
         11    1    3    3    0    0 -0.62293702231E+01 -0.34392566177E+01  0.46056288342E+00  0.71306141313E+01  0.51100000000E-03 0. -1.
        -11    1    3    3    0    0  0.12711073604E+02 -0.47955715910E+01  0.29314630959E+02  0.32309696494E+02  0.51100000000E-03 0.  1.
         12    1    3    3    0    0 -0.25238501821E+01  0.30510846522E+01  0.10357460044E+02  0.11088548862E+02  0.00000000000E+00 0. -1.
</event>
<event>
 7    1  0.5764931E-013  0.5052885E+02  0.7816164E-02  0.1300439E+00
        -11   -1    0    0    0    0  0.00000000000E+00  0.00000000000E+00  0.45593999997E+02  0.45594000000E+02  0.51100000000E-03 0.  1.
         11   -1    0    0    0    0 -0.00000000000E+00 -0.00000000000E+00 -0.45593999997E+02  0.45594000000E+02  0.51100000000E-03 0. -1.
    9900012    2    1    2    0    0 -0.48382016163E+01 -0.32293158937E+02  0.24226226738E+02  0.50528851325E+02  0.29999974087E+02 0.  0.
         12    1    1    2    0    0  0.48382016163E+01  0.32293158937E+02 -0.24226226738E+02  0.40659148675E+02  0.00000000000E+00 0. -1.
         11    1    3    3    0    0  0.37039159817E+01 -0.61294130935E+00 -0.16918047034E+01  0.41178749451E+01  0.51100000000E-03 0. -1.
        -11    1    3    3    0    0 -0.12137492232E+02 -0.32088106223E+02  0.20723113345E+02  0.40080078663E+02  0.51100000000E-03 0.  1.
        -12    1    3    3    0    0  0.35953746340E+01  0.40788859567E+00  0.51949180965E+01  0.63308977163E+01  0.00000000000E+00 0.  1.
</event>
<event>
 7    1  0.5764931E-013  0.5052885E+02  0.7816164E-02  0.1300439E+00
        -11   -1    0    0    0    0  0.00000000000E+00  0.00000000000E+00  0.45593999997E+02  0.45594000000E+02  0.51100000000E-03 0.  1.
         11   -1    0    0    0    0 -0.00000000000E+00 -0.00000000000E+00 -0.45593999997E+02  0.45594000000E+02  0.51100000000E-03 0. -1.
    9900012    2    1    2    0    0  0.80559133382E+00 -0.38992363723E+02  0.11494037180E+02  0.50528852237E+02  0.29999976861E+02 0.  0.
         12    1    1    2    0    0 -0.80559133382E+00  0.38992363723E+02 -0.11494037180E+02  0.40659147763E+02  0.00000000000E+00 0. -1.
         11    1    3    3    0    0 -0.65472260826E+01 -0.19722515423E+01 -0.32086405236E+01  0.75532324070E+01  0.51100000000E-03 0. -1.
        -11    1    3    3    0    0  0.31881031537E+01 -0.30278324245E+02  0.16806851604E+02  0.34776589566E+02  0.51100000000E-03 0.  1.
         12    1    3    3    0    0  0.41647142627E+01 -0.67417879361E+01 -0.21041739006E+01  0.81990302639E+01  0.00000000000E+00 0. -1.
</event>
<event>
 7    1  0.5764931E-013  0.5052891E+02  0.7816164E-02  0.1300439E+00
        -11   -1    0    0    0    0  0.00000000000E+00  0.00000000000E+00  0.45593999997E+02  0.45594000000E+02  0.51100000000E-03 0.  1.
         11   -1    0    0    0    0 -0.00000000000E+00 -0.00000000000E+00 -0.45593999997E+02  0.45594000000E+02  0.51100000000E-03 0. -1.
    9900012    2    1    2    0    0 -0.22073354293E+02 -0.26991943711E+02  0.20913235618E+02  0.50528912220E+02  0.30000159183E+02 0.  0.
         12    1    1    2    0    0  0.22073354293E+02  0.26991943711E+02 -0.20913235618E+02  0.40659087780E+02  0.00000000000E+00 0. -1.
         11    1    3    3    0    0 -0.11173886705E+02 -0.12763590006E+02  0.55766254195E+01  0.17856755732E+02  0.51100000000E-03 0. -1.
        -11    1    3    3    0    0 -0.42096036836E+01  0.51167109345E+01  0.91335393021E+01  0.11283750901E+02  0.51100000000E-03 0.  1.
        -12    1    3    3    0    0 -0.66898639047E+01 -0.19345064640E+02  0.62030708966E+01  0.21388405587E+02  0.00000000000E+00 0.  1.
</event>
<event>
 7    1  0.5764931E-013  0.5052886E+02  0.7816164E-02  0.1300439E+00
        -11   -1    0    0    0    0  0.00000000000E+00  0.00000000000E+00  0.45593999997E+02  0.45594000000E+02  0.51100000000E-03 0.  1.
         11   -1    0    0    0    0 -0.00000000000E+00 -0.00000000000E+00 -0.45593999997E+02  0.45594000000E+02  0.51100000000E-03 0. -1.
    9900012    2    1    2    0    0 -0.34168450512E+02  0.11688433220E+02  0.18683233558E+02  0.50528859604E+02  0.29999999253E+02 0.  0.
         12    1    1    2    0    0  0.34168450512E+02 -0.11688433220E+02 -0.18683233558E+02  0.40659140396E+02  0.00000000000E+00 0. -1.
         11    1    3    3    0    0 -0.91236988925E+01 -0.12490043311E+01 -0.21566867905E+01  0.94579697331E+01  0.51100000000E-03 0. -1.
        -11    1    3    3    0    0 -0.72675757574E+01  0.12115829192E+02  0.18261661445E+02  0.23088942232E+02  0.51100000000E-03 0.  1.
        -12    1    3    3    0    0 -0.17777175862E+02  0.82160835910E+00  0.25782589040E+01  0.17981947639E+02  0.00000000000E+00 0.  1.
</event>
<event>
 7    1  0.5764931E-013  0.5052886E+02  0.7816164E-02  0.1300439E+00
        -11   -1    0    0    0    0  0.00000000000E+00  0.00000000000E+00  0.45593999997E+02  0.45594000000E+02  0.51100000000E-03 0.  1.
         11   -1    0    0    0    0 -0.00000000000E+00 -0.00000000000E+00 -0.45593999997E+02  0.45594000000E+02  0.51100000000E-03 0. -1.
    9900012    2    1    2    0    0  0.39768781948E+01  0.18552365802E+02  0.35960533200E+02  0.50528858530E+02  0.29999995988E+02 0.  0.
         12    1    1    2    0    0 -0.39768781948E+01 -0.18552365802E+02 -0.35960533200E+02  0.40659141470E+02  0.00000000000E+00 0. -1.
         11    1    3    3    0    0  0.40899342012E+01 -0.27644536537E+01  0.10440967503E+01  0.50457808175E+01  0.51100000000E-03 0. -1.
        -11    1    3    3    0    0 -0.99100424613E+01  0.93737904832E+01  0.14936767268E+02  0.20228294696E+02  0.51100000000E-03 0.  1.
        -12    1    3    3    0    0  0.97969864549E+01  0.11943028972E+02  0.19979669182E+02  0.25254783017E+02  0.00000000000E+00 0.  1.
</event>
<event>
 7    1  0.5764931E-013  0.5052886E+02  0.7816164E-02  0.1300439E+00
        -11   -1    0    0    0    0  0.00000000000E+00  0.00000000000E+00  0.45593999997E+02  0.45594000000E+02  0.51100000000E-03 0.  1.
         11   -1    0    0    0    0 -0.00000000000E+00 -0.00000000000E+00 -0.45593999997E+02  0.45594000000E+02  0.51100000000E-03 0. -1.
    9900012    2    1    2    0    0 -0.28368741220E+02  0.29129071589E+01  0.28980946919E+02  0.50528858459E+02  0.29999995773E+02 0.  0.
         12    1    1    2    0    0  0.28368741220E+02 -0.29129071589E+01 -0.28980946919E+02  0.40659141541E+02  0.00000000000E+00 0. -1.
         11    1    3    3    0    0  0.50283065512E-02 -0.72149360660E+01  0.95175398018E+00  0.72774421070E+01  0.51100000000E-03 0. -1.
        -11    1    3    3    0    0 -0.21802498492E+02  0.19753809274E+01  0.22569009289E+02  0.31442189027E+02  0.51100000000E-03 0.  1.
         12    1    3    3    0    0 -0.65712710350E+01  0.81524622975E+01  0.54601836498E+01  0.11809227325E+02  0.00000000000E+00 0. -1.
</event>
<event>
 7    1  0.5764931E-013  0.5052887E+02  0.7816164E-02  0.1300439E+00
        -11   -1    0    0    0    0  0.00000000000E+00  0.00000000000E+00  0.45593999997E+02  0.45594000000E+02  0.51100000000E-03 0. -1.
         11   -1    0    0    0    0 -0.00000000000E+00 -0.00000000000E+00 -0.45593999997E+02  0.45594000000E+02  0.51100000000E-03 0.  1.
    9900012    2    1    2    0    0  0.21726725565E+02 -0.34015710495E+02  0.49036038177E+01  0.50528874399E+02  0.30000044222E+02 0.  0.
         12    1    1    2    0    0 -0.21726725565E+02  0.34015710495E+02 -0.49036038177E+01  0.40659125601E+02  0.00000000000E+00 0. -1.
         11    1    3    3    0    0  0.58851462653E+01 -0.15426315768E+01 -0.67990363070E+01  0.91236809299E+01  0.51100000000E-03 0. -1.
        -11    1    3    3    0    0  0.19300521902E+02 -0.28368087215E+02  0.10729655038E+02  0.35949742911E+02  0.51100000000E-03 0.  1.
        -12    1    3    3    0    0 -0.34589426016E+01 -0.41049917034E+01  0.97298508624E+00  0.54554505574E+01  0.00000000000E+00 0.  1.
</event>
<event>
 7    1  0.5764931E-013  0.5052886E+02  0.7816164E-02  0.1300439E+00
        -11   -1    0    0    0    0  0.00000000000E+00  0.00000000000E+00  0.45593999997E+02  0.45594000000E+02  0.51100000000E-03 0.  1.
         11   -1    0    0    0    0 -0.00000000000E+00 -0.00000000000E+00 -0.45593999997E+02  0.45594000000E+02  0.51100000000E-03 0. -1.
    9900012    2    1    2    0    0  0.11179980265E+02  0.99199553033E+01  0.37812276315E+02  0.50528859428E+02  0.29999998717E+02 0.  0.
         12    1    1    2    0    0 -0.11179980265E+02 -0.99199553033E+01 -0.37812276315E+02  0.40659140572E+02  0.00000000000E+00 0. -1.
         11    1    3    3    0    0  0.16492187019E+01  0.97073861297E+01  0.76897010769E+01  0.12493389080E+02  0.51100000000E-03 0. -1.
        -11    1    3    3    0    0  0.13356468810E+02 -0.52985761242E+01  0.12033368827E+02  0.18742255297E+02  0.51100000000E-03 0.  1.
        -12    1    3    3    0    0 -0.38257072468E+01  0.55111452977E+01  0.18089206411E+02  0.19293215051E+02  0.00000000000E+00 0.  1.
</event>
<event>
 7    1  0.5764931E-013  0.5052886E+02  0.7816164E-02  0.1300439E+00
        -11   -1    0    0    0    0  0.00000000000E+00  0.00000000000E+00  0.45593999997E+02  0.45594000000E+02  0.51100000000E-03 0.  1.
         11   -1    0    0    0    0 -0.00000000000E+00 -0.00000000000E+00 -0.45593999997E+02  0.45594000000E+02  0.51100000000E-03 0. -1.
    9900012    2    1    2    0    0 -0.66705434323E+01 -0.53336561532E+01  0.39751998543E+02  0.50528862948E+02  0.30000009418E+02 0.  0.
         12    1    1    2    0    0  0.66705434323E+01  0.53336561532E+01 -0.39751998543E+02  0.40659137052E+02  0.00000000000E+00 0. -1.
         11    1    3    3    0    0  0.41733943271E+01 -0.11255014545E+01 -0.12708097545E+01  0.45054335448E+01  0.51100000000E-03 0. -1.
        -11    1    3    3    0    0 -0.11880758022E+02 -0.84722669799E+01  0.37970648357E+02  0.40678026696E+02  0.51100000000E-03 0.  1.
        -12    1    3    3    0    0  0.10368202625E+01  0.42641122812E+01  0.30521599398E+01  0.53454027072E+01  0.00000000000E+00 0.  1.
</event>
<event>
 7    1  0.5764931E-013  0.5052886E+02  0.7816164E-02  0.1300439E+00
        -11   -1    0    0    0    0  0.00000000000E+00  0.00000000000E+00  0.45593999997E+02  0.45594000000E+02  0.51100000000E-03 0. -1.
         11   -1    0    0    0    0 -0.00000000000E+00 -0.00000000000E+00 -0.45593999997E+02  0.45594000000E+02  0.51100000000E-03 0.  1.
    9900012    2    1    2    0    0  0.43261346299E+01  0.15051792136E+02 -0.37521911351E+02  0.50528859346E+02  0.29999998468E+02 0.  0.
         12    1    1    2    0    0 -0.43261346299E+01 -0.15051792136E+02  0.37521911351E+02  0.40659140654E+02  0.00000000000E+00 0. -1.
         11    1    3    3    0    0  0.29473586583E+01  0.21726111474E+02 -0.21565896228E+02  0.30753840788E+02  0.51100000000E-03 0. -1.
        -11    1    3    3    0    0  0.53364999106E+00 -0.71021021936E+01 -0.48223795682E+01  0.86011617147E+01  0.51100000000E-03 0.  1.
         12    1    3    3    0    0  0.84512598061E+00  0.42778285509E+00 -0.11133635554E+02  0.11173856843E+02  0.00000000000E+00 0. -1.
</event>
<event>
 7    1  0.5764931E-013  0.5052886E+02  0.7816164E-02  0.1300439E+00
        -11   -1    0    0    0    0  0.00000000000E+00  0.00000000000E+00  0.45593999997E+02  0.45594000000E+02  0.51100000000E-03 0. -1.
         11   -1    0    0    0    0 -0.00000000000E+00 -0.00000000000E+00 -0.45593999997E+02  0.45594000000E+02  0.51100000000E-03 0.  1.
    9900012    2    1    2    0    0 -0.33460082474E+02 -0.10534463166E+02 -0.20557561615E+02  0.50528863598E+02  0.30000011392E+02 0.  0.
         12    1    1    2    0    0  0.33460082474E+02  0.10534463166E+02  0.20557561615E+02  0.40659136402E+02  0.00000000000E+00 0. -1.
         11    1    3    3    0    0 -0.16998223660E+02 -0.20379346617E+00  0.53626593757E+01  0.17825242080E+02  0.51100000000E-03 0. -1.
        -11    1    3    3    0    0 -0.70213313041E+01 -0.61872801486E+01 -0.15045563355E+02  0.17718648533E+02  0.51100000000E-03 0.  1.
         12    1    3    3    0    0 -0.94405275103E+01 -0.41433895508E+01 -0.10874657636E+02  0.14984972984E+02  0.00000000000E+00 0. -1.
</event>
<event>
 7    1  0.5764931E-013  0.5052885E+02  0.7816164E-02  0.1300439E+00
        -11   -1    0    0    0    0  0.00000000000E+00  0.00000000000E+00  0.45593999997E+02  0.45594000000E+02  0.51100000000E-03 0. -1.
         11   -1    0    0    0    0 -0.00000000000E+00 -0.00000000000E+00 -0.45593999997E+02  0.45594000000E+02  0.51100000000E-03 0.  1.
    9900012    2    1    2    0    0 -0.22981136258E+02 -0.24277096737E+02 -0.23144251040E+02  0.50528850896E+02  0.29999972782E+02 0.  0.
         12    1    1    2    0    0  0.22981136258E+02  0.24277096737E+02  0.23144251040E+02  0.40659149104E+02  0.00000000000E+00 0. -1.
         11    1    3    3    0    0  0.13950447776E+01 -0.28047997705E+01  0.11296691029E+01  0.33300456795E+01  0.51100000000E-03 0.  1.
        -11    1    3    3    0    0 -0.23063090429E+02 -0.25694351719E+02 -0.16526206356E+02  0.38278209822E+02  0.51100000000E-03 0. -1.
        -12    1    3    3    0    0 -0.13130906070E+01  0.42220547521E+01 -0.77477137867E+01  0.89205953945E+01  0.00000000000E+00 0.  1.
</event>
<event>
 7    1  0.5764931E-013  0.5052887E+02  0.7816164E-02  0.1300439E+00
        -11   -1    0    0    0    0  0.00000000000E+00  0.00000000000E+00  0.45593999997E+02  0.45594000000E+02  0.51100000000E-03 0. -1.
         11   -1    0    0    0    0 -0.00000000000E+00 -0.00000000000E+00 -0.45593999997E+02  0.45594000000E+02  0.51100000000E-03 0.  1.
    9900012    2    1    2    0    0  0.14532948853E+02  0.35956072125E+02 -0.12211428931E+02  0.50528871608E+02  0.30000035740E+02 0.  0.
         12    1    1    2    0    0 -0.14532948853E+02 -0.35956072125E+02  0.12211428931E+02  0.40659128392E+02  0.00000000000E+00 0. -1.
         11    1    3    3    0    0  0.69181900465E+01  0.35719655564E+01 -0.52946271170E+01  0.94155917512E+01  0.51100000000E-03 0.  1.
        -11    1    3    3    0    0 -0.12200936722E+01  0.31200584216E+02 -0.77162435607E+01  0.32163729556E+02  0.51100000000E-03 0. -1.
        -12    1    3    3    0    0  0.88348524792E+01  0.11835223531E+01  0.79944174633E+00  0.89495503013E+01  0.00000000000E+00 0.  1.
</event>
<event>
 7    1  0.5764931E-013  0.5052888E+02  0.7816164E-02  0.1300439E+00
        -11   -1    0    0    0    0  0.00000000000E+00  0.00000000000E+00  0.45593999997E+02  0.45594000000E+02  0.51100000000E-03 0. -1.
         11   -1    0    0    0    0 -0.00000000000E+00 -0.00000000000E+00 -0.45593999997E+02  0.45594000000E+02  0.51100000000E-03 0.  1.
    9900012    2    1    2    0    0  0.24790750123E+02  0.32023227429E+02 -0.36187497687E+01  0.50528883722E+02  0.30000072561E+02 0.  0.
         12    1    1    2    0    0 -0.24790750123E+02 -0.32023227429E+02  0.36187497687E+01  0.40659116278E+02  0.00000000000E+00 0. -1.
         11    1    3    3    0    0  0.67427564287E+01  0.20104118629E+02  0.74636769182E+01  0.22479920452E+02  0.51100000000E-03 0. -1.
        -11    1    3    3    0    0  0.50390374779E+01  0.19955344209E+01 -0.10335188829E+02  0.11670055043E+02  0.51100000000E-03 0.  1.
        -12    1    3    3    0    0  0.13008956216E+02  0.99235743785E+01 -0.74723785832E+00  0.16378908227E+02  0.00000000000E+00 0.  1.
</event>
<event>
 7    1  0.5764931E-013  0.5052875E+02  0.7816164E-02  0.1300439E+00
        -11   -1    0    0    0    0  0.00000000000E+00  0.00000000000E+00  0.45593999997E+02  0.45594000000E+02  0.51100000000E-03 0. -1.
         11   -1    0    0    0    0 -0.00000000000E+00 -0.00000000000E+00 -0.45593999997E+02  0.45594000000E+02  0.51100000000E-03 0.  1.
    9900012    2    1    2    0    0 -0.68349723193E+01 -0.18727183886E+02 -0.35436565629E+02  0.50528752018E+02  0.29999672231E+02 0.  0.
         12    1    1    2    0    0  0.68349723193E+01  0.18727183886E+02  0.35436565629E+02  0.40659247982E+02  0.00000000000E+00 0. -1.
         11    1    3    3    0    0 -0.54656088861E+01  0.18082518270E+01  0.21222358295E+01  0.61356776596E+01  0.51100000000E-03 0. -1.
        -11    1    3    3    0    0 -0.38177737138E+01 -0.10742998305E+02 -0.10448973677E+02  0.15465072256E+02  0.51100000000E-03 0.  1.
         12    1    3    3    0    0  0.24484102805E+01 -0.97924374076E+01 -0.27109827782E+02  0.28928002102E+02  0.00000000000E+00 0. -1.
</event>
<event>
 7    1  0.5764931E-013  0.5052885E+02  0.7816164E-02  0.1300439E+00
        -11   -1    0    0    0    0  0.00000000000E+00  0.00000000000E+00  0.45593999997E+02  0.45594000000E+02  0.51100000000E-03 0.  1.
         11   -1    0    0    0    0 -0.00000000000E+00 -0.00000000000E+00 -0.45593999997E+02  0.45594000000E+02  0.51100000000E-03 0. -1.
    9900012    2    1    2    0    0 -0.26168053498E+02 -0.16051117438E+02  0.26660095623E+02  0.50528854737E+02  0.29999984460E+02 0.  0.
         12    1    1    2    0    0  0.26168053498E+02  0.16051117438E+02 -0.26660095623E+02  0.40659145263E+02  0.00000000000E+00 0. -1.
         11    1    3    3    0    0 -0.14165021365E+02  0.61306318142E+01  0.14936968503E+02  0.21478954934E+02  0.51100000000E-03 0. -1.
        -11    1    3    3    0    0 -0.30135159993E+01 -0.13914675105E+02  0.48794963075E+01  0.15050214166E+02  0.51100000000E-03 0.  1.
         12    1    3    3    0    0 -0.89895161339E+01 -0.82670741466E+01  0.68436308121E+01  0.13999685638E+02  0.00000000000E+00 0. -1.
</event>
<event>
 7    1  0.5764931E-013  0.5052886E+02  0.7816164E-02  0.1300439E+00
        -11   -1    0    0    0    0  0.00000000000E+00  0.00000000000E+00  0.45593999997E+02  0.45594000000E+02  0.51100000000E-03 0.  1.
         11   -1    0    0    0    0 -0.00000000000E+00 -0.00000000000E+00 -0.45593999997E+02  0.45594000000E+02  0.51100000000E-03 0. -1.
    9900012    2    1    2    0    0  0.33093856227E+02  0.23611196079E+02  0.68859595626E+00  0.50528855092E+02  0.29999985537E+02 0.  0.
         12    1    1    2    0    0 -0.33093856227E+02 -0.23611196079E+02 -0.68859595626E+00  0.40659144908E+02  0.00000000000E+00 0. -1.
         11    1    3    3    0    0  0.58925219241E+00  0.89404935253E+00  0.30186995812E+01  0.32029813945E+01  0.51100000000E-03 0. -1.
        -11    1    3    3    0    0  0.24747050846E+02  0.83911479248E+01 -0.11590757647E+02  0.28586247606E+02  0.51100000000E-03 0.  1.
        -12    1    3    3    0    0  0.77575531888E+01  0.14325998802E+02  0.92606540221E+01  0.18739626092E+02  0.00000000000E+00 0.  1.
</event>
<event>
 7    1  0.5764931E-013  0.5052897E+02  0.7816164E-02  0.1300438E+00
        -11   -1    0    0    0    0  0.00000000000E+00  0.00000000000E+00  0.45593999997E+02  0.45594000000E+02  0.51100000000E-03 0.  1.
         11   -1    0    0    0    0 -0.00000000000E+00 -0.00000000000E+00 -0.45593999997E+02  0.45594000000E+02  0.51100000000E-03 0. -1.
    9900012    2    1    2    0    0 -0.62500533366E+01  0.18125085880E+02  0.35854910410E+02  0.50528972646E+02  0.30000342854E+02 0.  0.
         12    1    1    2    0    0  0.62500533366E+01 -0.18125085880E+02 -0.35854910410E+02  0.40659027354E+02  0.00000000000E+00 0. -1.
         11    1    3    3    0    0  0.81289014707E+01  0.94027956737E+01  0.65746449460E+01  0.14061207702E+02  0.51100000000E-03 0. -1.
        -11    1    3    3    0    0 -0.30935729098E+01 -0.33186130500E+01  0.10669350592E+02  0.11593896163E+02  0.51100000000E-03 0.  1.
         12    1    3    3    0    0 -0.11285381898E+02  0.12040903256E+02  0.18610914872E+02  0.24873868782E+02  0.00000000000E+00 0. -1.
</event>
<event>
 7    1  0.5764931E-013  0.5052886E+02  0.7816164E-02  0.1300439E+00
        -11   -1    0    0    0    0  0.00000000000E+00  0.00000000000E+00  0.45593999997E+02  0.45594000000E+02  0.51100000000E-03 0.  1.
         11   -1    0    0    0    0 -0.00000000000E+00 -0.00000000000E+00 -0.45593999997E+02  0.45594000000E+02  0.51100000000E-03 0. -1.
    9900012    2    1    2    0    0  0.27434142027E+02  0.33097857930E+01  0.29825801466E+02  0.50528864940E+02  0.30000015471E+02 0.  0.
         12    1    1    2    0    0 -0.27434142027E+02 -0.33097857930E+01 -0.29825801466E+02  0.40659135060E+02  0.00000000000E+00 0. -1.
         11    1    3    3    0    0  0.77996818855E+01  0.47883664323E+01 -0.20123060882E+00  0.91544516288E+01  0.51100000000E-03 0. -1.
        -11    1    3    3    0    0  0.10483752068E+02 -0.89205841618E+01  0.25028354495E+02  0.28564040474E+02  0.51100000000E-03 0.  1.
        -12    1    3    3    0    0  0.91507080735E+01  0.74420035224E+01  0.49986775794E+01  0.12810372837E+02  0.00000000000E+00 0.  1.
</event>
<event>
 7    1  0.5764931E-013  0.5052885E+02  0.7816164E-02  0.1300439E+00
        -11   -1    0    0    0    0  0.00000000000E+00  0.00000000000E+00  0.45593999997E+02  0.45594000000E+02  0.51100000000E-03 0.  1.
         11   -1    0    0    0    0 -0.00000000000E+00 -0.00000000000E+00 -0.45593999997E+02  0.45594000000E+02  0.51100000000E-03 0. -1.
    9900012    2    1    2    0    0 -0.34247020804E+01 -0.14815369875E+02  0.37708655489E+02  0.50528850136E+02  0.29999970475E+02 0.  0.
         12    1    1    2    0    0  0.34247020804E+01  0.14815369875E+02 -0.37708655489E+02  0.40659149864E+02  0.00000000000E+00 0. -1.
         11    1    3    3    0    0  0.45645093243E+01 -0.48877957140E+01 -0.27143193485E+01  0.72175357360E+01  0.51100000000E-03 0. -1.
        -11    1    3    3    0    0 -0.38324310792E+01 -0.19344358082E+01  0.42786322061E+01  0.60610447688E+01  0.51100000000E-03 0.  1.
         12    1    3    3    0    0 -0.41567803255E+01 -0.79931383529E+01  0.36144342631E+02  0.37250269632E+02  0.00000000000E+00 0. -1.
</event>
<event>
 7    1  0.5764931E-013  0.5052884E+02  0.7816164E-02  0.1300439E+00
        -11   -1    0    0    0    0  0.00000000000E+00  0.00000000000E+00  0.45593999997E+02  0.45594000000E+02  0.51100000000E-03 0.  1.
         11   -1    0    0    0    0 -0.00000000000E+00 -0.00000000000E+00 -0.45593999997E+02  0.45594000000E+02  0.51100000000E-03 0. -1.
    9900012    2    1    2    0    0 -0.43586862359E+01  0.58096231296E+00  0.40420683521E+02  0.50528839664E+02  0.29999938643E+02 0.  0.
         12    1    1    2    0    0  0.43586862359E+01 -0.58096231296E+00 -0.40420683521E+02  0.40659160336E+02  0.00000000000E+00 0. -1.
         11    1    3    3    0    0  0.85576740503E+01  0.75830088268E+01  0.21084662635E+02  0.23985387358E+02  0.51100000000E-03 0. -1.
        -11    1    3    3    0    0 -0.11234770022E+02 -0.25512265676E+01  0.18377266096E+02  0.21689922173E+02  0.51100000000E-03 0.  1.
         12    1    3    3    0    0 -0.16815902643E+01 -0.44508199462E+01  0.95875479080E+00  0.48535301338E+01  0.00000000000E+00 0. -1.
</event>
<event>
 7    1  0.5764931E-013  0.5052884E+02  0.7816164E-02  0.1300439E+00
        -11   -1    0    0    0    0  0.00000000000E+00  0.00000000000E+00  0.45593999997E+02  0.45594000000E+02  0.51100000000E-03 0. -1.
         11   -1    0    0    0    0 -0.00000000000E+00 -0.00000000000E+00 -0.45593999997E+02  0.45594000000E+02  0.51100000000E-03 0.  1.
    9900012    2    1    2    0    0 -0.90325178267E+01 -0.17312267972E+02 -0.35663234836E+02  0.50528839660E+02  0.29999938630E+02 0.  0.
         12    1    1    2    0    0  0.90325178267E+01  0.17312267972E+02  0.35663234836E+02  0.40659160340E+02  0.00000000000E+00 0. -1.
         11    1    3    3    0    0  0.15507532917E+01 -0.21613368266E+02 -0.27596988236E+02  0.35087551689E+02  0.51100000000E-03 0. -1.
        -11    1    3    3    0    0 -0.67723865331E+01  0.47290321117E+01 -0.81522025032E+01  0.11605488787E+02  0.51100000000E-03 0.  1.
        -12    1    3    3    0    0 -0.38108845852E+01 -0.42793181765E+00  0.85955903874E-01  0.38357991840E+01  0.00000000000E+00 0.  1.
</event>
<event>
 7    1  0.5764931E-013  0.5052886E+02  0.7816164E-02  0.1300439E+00
        -11   -1    0    0    0    0  0.00000000000E+00  0.00000000000E+00  0.45593999997E+02  0.45594000000E+02  0.51100000000E-03 0. -1.
         11   -1    0    0    0    0 -0.00000000000E+00 -0.00000000000E+00 -0.45593999997E+02  0.45594000000E+02  0.51100000000E-03 0.  1.
    9900012    2    1    2    0    0 -0.32771456723E+02 -0.19977120697E+02 -0.13420593027E+02  0.50528855342E+02  0.29999986299E+02 0.  0.
         12    1    1    2    0    0  0.32771456723E+02  0.19977120697E+02  0.13420593027E+02  0.40659144658E+02  0.00000000000E+00 0. -1.
         11    1    3    3    0    0 -0.12029212371E+02  0.28921531343E+01 -0.14726304066E+02  0.19233578235E+02  0.51100000000E-03 0. -1.
        -11    1    3    3    0    0 -0.77582614228E+01 -0.12179566177E+02  0.98003481044E+00  0.14473870286E+02  0.51100000000E-03 0.  1.
         12    1    3    3    0    0 -0.12983982929E+02 -0.10689707655E+02  0.32567622855E+00  0.16821406821E+02  0.00000000000E+00 0. -1.
</event>
<event>
 7    1  0.5764931E-013  0.5052886E+02  0.7816164E-02  0.1300439E+00
        -11   -1    0    0    0    0  0.00000000000E+00  0.00000000000E+00  0.45593999997E+02  0.45594000000E+02  0.51100000000E-03 0.  1.
         11   -1    0    0    0    0 -0.00000000000E+00 -0.00000000000E+00 -0.45593999997E+02  0.45594000000E+02  0.51100000000E-03 0. -1.
    9900012    2    1    2    0    0  0.44519866438E+01  0.32654966237E+02 -0.23811738614E+02  0.50528857106E+02  0.29999991660E+02 0.  0.
         12    1    1    2    0    0 -0.44519866438E+01 -0.32654966237E+02  0.23811738614E+02  0.40659142894E+02  0.00000000000E+00 0. -1.
         11    1    3    3    0    0  0.39698897944E+01  0.18031521024E+02  0.16878395562E+01  0.18540349998E+02  0.51100000000E-03 0. -1.
        -11    1    3    3    0    0 -0.36558800734E+01  0.14681682531E+02 -0.20893091159E+02  0.25796095043E+02  0.51100000000E-03 0.  1.
         12    1    3    3    0    0  0.41379769228E+01 -0.58237317061E-01 -0.46064870109E+01  0.61924120648E+01  0.00000000000E+00 0. -1.
</event>
<event>
 7    1  0.5764931E-013  0.5052886E+02  0.7816164E-02  0.1300439E+00
        -11   -1    0    0    0    0  0.00000000000E+00  0.00000000000E+00  0.45593999997E+02  0.45594000000E+02  0.51100000000E-03 0.  1.
         11   -1    0    0    0    0 -0.00000000000E+00 -0.00000000000E+00 -0.45593999997E+02  0.45594000000E+02  0.51100000000E-03 0. -1.
    9900012    2    1    2    0    0  0.10652159211E+02  0.26968747961E+02  0.28502340994E+02  0.50528864439E+02  0.30000013948E+02 0.  0.
         12    1    1    2    0    0 -0.10652159211E+02 -0.26968747961E+02 -0.28502340994E+02  0.40659135561E+02  0.00000000000E+00 0. -1.
         11    1    3    3    0    0  0.70795293729E+01  0.81358550551E+01  0.17126563828E+02  0.20239344417E+02  0.51100000000E-03 0. -1.
        -11    1    3    3    0    0  0.51340634212E+01  0.60972028204E+01 -0.50577859341E+01  0.94401106064E+01  0.51100000000E-03 0.  1.
        -12    1    3    3    0    0 -0.15614335833E+01  0.12735690086E+02  0.16433563101E+02  0.20849409416E+02  0.00000000000E+00 0.  1.
</event>
<event>
 7    1  0.5764931E-013  0.5052889E+02  0.7816164E-02  0.1300439E+00
        -11   -1    0    0    0    0  0.00000000000E+00  0.00000000000E+00  0.45593999997E+02  0.45594000000E+02  0.51100000000E-03 0.  1.
         11   -1    0    0    0    0 -0.00000000000E+00 -0.00000000000E+00 -0.45593999997E+02  0.45594000000E+02  0.51100000000E-03 0. -1.
    9900012    2    1    2    0    0  0.28844595728E+02 -0.18640012525E+02  0.21764698780E+02  0.50528894222E+02  0.30000104477E+02 0.  0.
         12    1    1    2    0    0 -0.28844595728E+02  0.18640012525E+02 -0.21764698780E+02  0.40659105778E+02  0.00000000000E+00 0. -1.
         11    1    3    3    0    0  0.91119919843E+01  0.18785667717E+01  0.15161171761E+02  0.17788157310E+02  0.51100000000E-03 0. -1.
        -11    1    3    3    0    0  0.91673392737E+01 -0.14841220613E+02  0.10214644480E+02  0.20214868309E+02  0.51100000000E-03 0.  1.
         12    1    3    3    0    0  0.10565264470E+02 -0.56773586836E+01 -0.36111174610E+01  0.12525868603E+02  0.00000000000E+00 0. -1.
</event>
<event>
 7    1  0.5764931E-013  0.5052890E+02  0.7816164E-02  0.1300439E+00
        -11   -1    0    0    0    0  0.00000000000E+00  0.00000000000E+00  0.45593999997E+02  0.45594000000E+02  0.51100000000E-03 0.  1.
         11   -1    0    0    0    0 -0.00000000000E+00 -0.00000000000E+00 -0.45593999997E+02  0.45594000000E+02  0.51100000000E-03 0. -1.
    9900012    2    1    2    0    0 -0.24265016028E+02 -0.29592674513E+02  0.13734820379E+02  0.50528896733E+02  0.30000112108E+02 0.  0.
         12    1    1    2    0    0  0.24265016028E+02  0.29592674513E+02 -0.13734820379E+02  0.40659103267E+02  0.00000000000E+00 0. -1.
         11    1    3    3    0    0 -0.70486420428E+01  0.25334554778E+01 -0.19787967529E+01  0.77470890117E+01  0.51100000000E-03 0. -1.
        -11    1    3    3    0    0 -0.81458448520E+01 -0.28967484828E+02  0.10620815360E+02  0.31910369549E+02  0.51100000000E-03 0.  1.
        -12    1    3    3    0    0 -0.90705291334E+01 -0.31586451626E+01  0.50928017721E+01  0.10871438171E+02  0.00000000000E+00 0.  1.
</event>
<event>
 7    1  0.5764931E-013  0.5052887E+02  0.7816164E-02  0.1300439E+00
        -11   -1    0    0    0    0  0.00000000000E+00  0.00000000000E+00  0.45593999997E+02  0.45594000000E+02  0.51100000000E-03 0. -1.
         11   -1    0    0    0    0 -0.00000000000E+00 -0.00000000000E+00 -0.45593999997E+02  0.45594000000E+02  0.51100000000E-03 0.  1.
    9900012    2    1    2    0    0  0.39525680365E+02  0.63718596509E+01 -0.70911785231E+01  0.50528870440E+02  0.30000032190E+02 0.  0.
         12    1    1    2    0    0 -0.39525680365E+02 -0.63718596509E+01  0.70911785231E+01  0.40659129560E+02  0.00000000000E+00 0. -1.
         11    1    3    3    0    0  0.31790834627E+01 -0.40465337103E+01  0.43381778744E+00  0.51642235491E+01  0.51100000000E-03 0. -1.
        -11    1    3    3    0    0  0.28055670780E+02  0.60680477801E+01 -0.15890162170E+02  0.32809131669E+02  0.51100000000E-03 0.  1.
        -12    1    3    3    0    0  0.82909261219E+01  0.43503455812E+01  0.83651658597E+01  0.12555515222E+02  0.00000000000E+00 0.  1.
</event>
<event>
 7    1  0.5764931E-013  0.5052886E+02  0.7816164E-02  0.1300439E+00
        -11   -1    0    0    0    0  0.00000000000E+00  0.00000000000E+00  0.45593999997E+02  0.45594000000E+02  0.51100000000E-03 0.  1.
         11   -1    0    0    0    0 -0.00000000000E+00 -0.00000000000E+00 -0.45593999997E+02  0.45594000000E+02  0.51100000000E-03 0. -1.
    9900012    2    1    2    0    0 -0.26799310230E+02  0.30534095083E+02 -0.16223606812E+01  0.50528855328E+02  0.29999986254E+02 0.  0.
         12    1    1    2    0    0  0.26799310230E+02 -0.30534095083E+02  0.16223606812E+01  0.40659144672E+02  0.00000000000E+00 0. -1.
         11    1    3    3    0    0  0.34528342604E+00  0.42412932568E+01  0.26035284421E+01  0.49886019830E+01  0.51100000000E-03 0. -1.
        -11    1    3    3    0    0 -0.23693790832E+02  0.27239211446E+02 -0.11117353732E+02  0.37775202427E+02  0.51100000000E-03 0.  1.
        -12    1    3    3    0    0 -0.34508028234E+01 -0.94640961941E+00  0.68914646086E+01  0.77650509171E+01  0.00000000000E+00 0.  1.
</event>
<event>
 7    1  0.5764931E-013  0.5052876E+02  0.7816164E-02  0.1300439E+00
        -11   -1    0    0    0    0  0.00000000000E+00  0.00000000000E+00  0.45593999997E+02  0.45594000000E+02  0.51100000000E-03 0.  1.
         11   -1    0    0    0    0 -0.00000000000E+00 -0.00000000000E+00 -0.45593999997E+02  0.45594000000E+02  0.51100000000E-03 0. -1.
    9900012    2    1    2    0    0  0.17375422007E+02  0.25038648884E+02  0.26913471326E+02  0.50528755459E+02  0.29999682691E+02 0.  0.
         12    1    1    2    0    0 -0.17375422007E+02 -0.25038648884E+02 -0.26913471326E+02  0.40659244541E+02  0.00000000000E+00 0. -1.
         11    1    3    3    0    0  0.96921278685E+01 -0.42475708002E+01  0.10186481991E+02  0.14688213504E+02  0.51100000000E-03 0. -1.
        -11    1    3    3    0    0  0.14159724381E+01  0.21656207126E+01  0.50118824917E+01  0.56403774154E+01  0.51100000000E-03 0.  1.
         12    1    3    3    0    0  0.62673217002E+01  0.27120598972E+02  0.11715106843E+02  0.30200164540E+02  0.00000000000E+00 0. -1.
</event>
<event>
 7    1  0.5764931E-013  0.5052886E+02  0.7816164E-02  0.1300439E+00
        -11   -1    0    0    0    0  0.00000000000E+00  0.00000000000E+00  0.45593999997E+02  0.45594000000E+02  0.51100000000E-03 0.  1.
         11   -1    0    0    0    0 -0.00000000000E+00 -0.00000000000E+00 -0.45593999997E+02  0.45594000000E+02  0.51100000000E-03 0. -1.
    9900012    2    1    2    0    0 -0.17019561857E+02  0.35697470397E+02  0.94440945854E+01  0.50528858333E+02  0.29999995388E+02 0.  0.
         12    1    1    2    0    0  0.17019561857E+02 -0.35697470397E+02 -0.94440945854E+01  0.40659141667E+02  0.00000000000E+00 0. -1.
         11    1    3    3    0    0 -0.86151903801E+01  0.19898390444E+02 -0.44399264272E+01  0.22133241843E+02  0.51100000000E-03 0. -1.
        -11    1    3    3    0    0 -0.11433161899E+01  0.10360310042E+02  0.15985319911E+02  0.19083334326E+02  0.51100000000E-03 0.  1.
        -12    1    3    3    0    0 -0.72610552875E+01  0.54387699115E+01 -0.21012988985E+01  0.93122821638E+01  0.00000000000E+00 0.  1.
</event>
<event>
 7    1  0.5764931E-013  0.5052886E+02  0.7816164E-02  0.1300439E+00
        -11   -1    0    0    0    0  0.00000000000E+00  0.00000000000E+00  0.45593999997E+02  0.45594000000E+02  0.51100000000E-03 0.  1.
         11   -1    0    0    0    0 -0.00000000000E+00 -0.00000000000E+00 -0.45593999997E+02  0.45594000000E+02  0.51100000000E-03 0. -1.
    9900012    2    1    2    0    0  0.16241958742E+02 -0.40799698227E+01  0.37050210918E+02  0.50528861955E+02  0.30000006398E+02 0.  0.
         12    1    1    2    0    0 -0.16241958742E+02  0.40799698227E+01 -0.37050210918E+02  0.40659138045E+02  0.00000000000E+00 0. -1.
         11    1    3    3    0    0 -0.51851512180E+01 -0.10260586480E+01  0.12305620440E+01  0.54270500927E+01  0.51100000000E-03 0. -1.
        -11    1    3    3    0    0  0.81435458089E+01  0.68126140936E+01  0.16990636569E+02  0.20035238467E+02  0.51100000000E-03 0.  1.
        -12    1    3    3    0    0  0.13283564151E+02 -0.98665252683E+01  0.18829012304E+02  0.25066573395E+02  0.00000000000E+00 0.  1.
</event>
<event>
 7    1  0.5764931E-013  0.5052885E+02  0.7816164E-02  0.1300439E+00
        -11   -1    0    0    0    0  0.00000000000E+00  0.00000000000E+00  0.45593999997E+02  0.45594000000E+02  0.51100000000E-03 0.  1.
         11   -1    0    0    0    0 -0.00000000000E+00 -0.00000000000E+00 -0.45593999997E+02  0.45594000000E+02  0.51100000000E-03 0. -1.
    9900012    2    1    2    0    0 -0.70456930520E+01 -0.38089416889E+02  0.12358030744E+02  0.50528851049E+02  0.29999973249E+02 0.  0.
         12    1    1    2    0    0  0.70456930520E+01  0.38089416889E+02 -0.12358030744E+02  0.40659148951E+02  0.00000000000E+00 0. -1.
         11    1    3    3    0    0  0.80520393278E+01 -0.76169732034E+01 -0.33565363056E+00  0.11089016266E+02  0.51100000000E-03 0. -1.
        -11    1    3    3    0    0 -0.54151711889E+01 -0.66792685521E+01  0.10625448728E+02  0.13668828345E+02  0.51100000000E-03 0.  1.
        -12    1    3    3    0    0 -0.96825611909E+01 -0.23793175134E+02  0.20682356459E+01  0.25771006438E+02  0.00000000000E+00 0.  1.
</event>
<event>
 7    1  0.5764931E-013  0.5052872E+02  0.7816164E-02  0.1300439E+00
        -11   -1    0    0    0    0  0.00000000000E+00  0.00000000000E+00  0.45593999997E+02  0.45594000000E+02  0.51100000000E-03 0.  1.
         11   -1    0    0    0    0 -0.00000000000E+00 -0.00000000000E+00 -0.45593999997E+02  0.45594000000E+02  0.51100000000E-03 0. -1.
    9900012    2    1    2    0    0 -0.18443281730E+02  0.13170321515E+00  0.36235409747E+02  0.50528721769E+02  0.29999580286E+02 0.  0.
         12    1    1    2    0    0  0.18443281730E+02 -0.13170321515E+00 -0.36235409747E+02  0.40659278231E+02  0.00000000000E+00 0. -1.
         11    1    3    3    0    0  0.61314146211E+01  0.58712097822E+01  0.62259299242E+01  0.10527466611E+02  0.51100000000E-03 0.  1.
        -11    1    3    3    0    0 -0.22144540366E+02 -0.36746297753E+01  0.28966320586E+02  0.36646027077E+02  0.51100000000E-03 0. -1.
        -12    1    3    3    0    0 -0.24301559851E+01 -0.20648767918E+01  0.10431592374E+01  0.33552280804E+01  0.00000000000E+00 0.  1.
</event>
<event>
 7    1  0.5764931E-013  0.5052880E+02  0.7816164E-02  0.1300439E+00
        -11   -1    0    0    0    0  0.00000000000E+00  0.00000000000E+00  0.45593999997E+02  0.45594000000E+02  0.51100000000E-03 0.  1.
         11   -1    0    0    0    0 -0.00000000000E+00 -0.00000000000E+00 -0.45593999997E+02  0.45594000000E+02  0.51100000000E-03 0. -1.
    9900012    2    1    2    0    0  0.35046161833E+02  0.17423382352E+02 -0.11016473203E+02  0.50528801857E+02  0.29999823725E+02 0.  0.
         12    1    1    2    0    0 -0.35046161833E+02 -0.17423382352E+02  0.11016473203E+02  0.40659198143E+02  0.00000000000E+00 0. -1.
         11    1    3    3    0    0  0.16157380203E+02  0.18849845832E+02 -0.15858727452E+02  0.29459749822E+02  0.51100000000E-03 0. -1.
        -11    1    3    3    0    0  0.12282007807E+02  0.25617092873E+01  0.45514856043E+01  0.13346388714E+02  0.51100000000E-03 0.  1.
         12    1    3    3    0    0  0.66067738232E+01 -0.39881727672E+01  0.29076864479E+00  0.77226633215E+01  0.00000000000E+00 0. -1.
</event>
<event>
 7    1  0.5764931E-013  0.5052886E+02  0.7816164E-02  0.1300439E+00
        -11   -1    0    0    0    0  0.00000000000E+00  0.00000000000E+00  0.45593999997E+02  0.45594000000E+02  0.51100000000E-03 0.  1.
         11   -1    0    0    0    0 -0.00000000000E+00 -0.00000000000E+00 -0.45593999997E+02  0.45594000000E+02  0.51100000000E-03 0. -1.
    9900012    2    1    2    0    0 -0.20562453530E+02  0.13568814759E+02  0.32345613656E+02  0.50528856478E+02  0.29999989751E+02 0.  0.
         12    1    1    2    0    0  0.20562453530E+02 -0.13568814759E+02 -0.32345613656E+02  0.40659143522E+02  0.00000000000E+00 0. -1.
         11    1    3    3    0    0  0.22401720010E+01 -0.64605301716E+01  0.15563306300E+01  0.70127730594E+01  0.51100000000E-03 0. -1.
        -11    1    3    3    0    0 -0.12391695310E+02  0.86919655651E+01  0.17884113801E+02  0.23429594634E+02  0.51100000000E-03 0.  1.
         12    1    3    3    0    0 -0.10410930221E+02  0.11337379366E+02  0.12905169225E+02  0.20086488784E+02  0.00000000000E+00 0. -1.
</event>
<event>
 7    1  0.5764931E-013  0.5052886E+02  0.7816164E-02  0.1300439E+00
        -11   -1    0    0    0    0  0.00000000000E+00  0.00000000000E+00  0.45593999997E+02  0.45594000000E+02  0.51100000000E-03 0.  1.
         11   -1    0    0    0    0 -0.00000000000E+00 -0.00000000000E+00 -0.45593999997E+02  0.45594000000E+02  0.51100000000E-03 0. -1.
    9900012    2    1    2    0    0  0.16810068740E+02  0.31970555731E+02  0.18667372284E+02  0.50528860403E+02  0.30000001680E+02 0.  0.
         12    1    1    2    0    0 -0.16810068740E+02 -0.31970555731E+02 -0.18667372284E+02  0.40659139597E+02  0.00000000000E+00 0. -1.
         11    1    3    3    0    0  0.37505564061E+00  0.90610323426E+01  0.31009901173E+00  0.90740914424E+01  0.51100000000E-03 0. -1.
        -11    1    3    3    0    0  0.18337827465E+02  0.18601400749E+02  0.23027797740E+02  0.34821939851E+02  0.51100000000E-03 0.  1.
        -12    1    3    3    0    0 -0.19028143659E+01  0.43081226396E+01 -0.46705244677E+01  0.66328291092E+01  0.00000000000E+00 0.  1.
</event>
<event>
 7    1  0.5764931E-013  0.5052886E+02  0.7816164E-02  0.1300439E+00
        -11   -1    0    0    0    0  0.00000000000E+00  0.00000000000E+00  0.45593999997E+02  0.45594000000E+02  0.51100000000E-03 0. -1.
         11   -1    0    0    0    0 -0.00000000000E+00 -0.00000000000E+00 -0.45593999997E+02  0.45594000000E+02  0.51100000000E-03 0.  1.
    9900012    2    1    2    0    0 -0.12559978491E+02 -0.17331058115E+02 -0.34569453544E+02  0.50528858919E+02  0.29999997171E+02 0.  0.
         12    1    1    2    0    0  0.12559978491E+02  0.17331058115E+02  0.34569453544E+02  0.40659141081E+02  0.00000000000E+00 0. -1.
         11    1    3    3    0    0 -0.36337113962E-01 -0.65438949306E+01  0.33324014846E+01  0.73436218015E+01  0.51100000000E-03 0. -1.
        -11    1    3    3    0    0 -0.33551257319E+01 -0.10513431393E+02 -0.25266914502E+02  0.27571834851E+02  0.51100000000E-03 0.  1.
         12    1    3    3    0    0 -0.91685156453E+01 -0.27373179149E+00 -0.12634940527E+02  0.15613402267E+02  0.00000000000E+00 0. -1.
</event>
<event>
 7    1  0.5764931E-013  0.5052887E+02  0.7816164E-02  0.1300439E+00
        -11   -1    0    0    0    0  0.00000000000E+00  0.00000000000E+00  0.45593999997E+02  0.45594000000E+02  0.51100000000E-03 0. -1.
         11   -1    0    0    0    0 -0.00000000000E+00 -0.00000000000E+00 -0.45593999997E+02  0.45594000000E+02  0.51100000000E-03 0.  1.
    9900012    2    1    2    0    0 -0.17247995448E+02 -0.35591039495E+02 -0.94313025571E+01  0.50528869325E+02  0.30000028801E+02 0.  0.
         12    1    1    2    0    0  0.17247995448E+02  0.35591039495E+02  0.94313025571E+01  0.40659130675E+02  0.00000000000E+00 0. -1.
         11    1    3    3    0    0 -0.41078210808E+01 -0.17048246271E+02  0.91486623847E+01  0.19779153638E+02  0.51100000000E-03 0. -1.
        -11    1    3    3    0    0 -0.68685786736E+01 -0.16460616603E+02 -0.14470821017E+02  0.22968106868E+02  0.51100000000E-03 0.  1.
         12    1    3    3    0    0 -0.62715956930E+01 -0.20821766216E+01 -0.41091439246E+01  0.77816088191E+01  0.00000000000E+00 0. -1.
</event>
<event>
 7    1  0.5764931E-013  0.5052892E+02  0.7816164E-02  0.1300439E+00
        -11   -1    0    0    0    0  0.00000000000E+00  0.00000000000E+00  0.45593999997E+02  0.45594000000E+02  0.51100000000E-03 0.  1.
         11   -1    0    0    0    0 -0.00000000000E+00 -0.00000000000E+00 -0.45593999997E+02  0.45594000000E+02  0.51100000000E-03 0. -1.
    9900012    2    1    2    0    0 -0.27067803431E+02 -0.26428680976E+02  0.14900335060E+02  0.50528915583E+02  0.30000169406E+02 0.  0.
         12    1    1    2    0    0  0.27067803431E+02  0.26428680976E+02 -0.14900335060E+02  0.40659084417E+02  0.00000000000E+00 0. -1.
         11    1    3    3    0    0  0.37483237902E+01 -0.44407662204E+01  0.26038437011E+01  0.63679147404E+01  0.51100000000E-03 0. -1.
        -11    1    3    3    0    0 -0.22020231048E+02 -0.13905850289E+02  0.17240638232E+02  0.31233041072E+02  0.51100000000E-03 0.  1.
        -12    1    3    3    0    0 -0.87958961726E+01 -0.80820644669E+01 -0.49441468734E+01  0.12927959771E+02  0.00000000000E+00 0.  1.
</event>
<event>
 7    1  0.5764931E-013  0.5052887E+02  0.7816164E-02  0.1300439E+00
        -11   -1    0    0    0    0  0.00000000000E+00  0.00000000000E+00  0.45593999997E+02  0.45594000000E+02  0.51100000000E-03 0. -1.
         11   -1    0    0    0    0 -0.00000000000E+00 -0.00000000000E+00 -0.45593999997E+02  0.45594000000E+02  0.51100000000E-03 0.  1.
    9900012    2    1    2    0    0  0.25183749027E+02 -0.17476571208E+02 -0.26711661047E+02  0.50528873200E+02  0.30000040578E+02 0.  0.
         12    1    1    2    0    0 -0.25183749027E+02  0.17476571208E+02  0.26711661047E+02  0.40659126800E+02  0.00000000000E+00 0. -1.
         11    1    3    3    0    0 -0.19389432175E+01 -0.10187948162E+01 -0.12645914960E+02  0.12834196863E+02  0.51100000000E-03 0. -1.
        -11    1    3    3    0    0  0.28689955333E+02 -0.16869854089E+02 -0.12883791893E+02  0.35688900344E+02  0.51100000000E-03 0.  1.
        -12    1    3    3    0    0 -0.15672630882E+01  0.41207769679E+00 -0.11819541934E+01  0.20057759922E+01  0.00000000000E+00 0.  1.
</event>
<event>
 7    1  0.5764931E-013  0.5052886E+02  0.7816164E-02  0.1300439E+00
        -11   -1    0    0    0    0  0.00000000000E+00  0.00000000000E+00  0.45593999997E+02  0.45594000000E+02  0.51100000000E-03 0. -1.
         11   -1    0    0    0    0 -0.00000000000E+00 -0.00000000000E+00 -0.45593999997E+02  0.45594000000E+02  0.51100000000E-03 0.  1.
    9900012    2    1    2    0    0  0.61781012367E+00 -0.36887526668E+02  0.17090777830E+02  0.50528855889E+02  0.29999987960E+02 0.  0.
         12    1    1    2    0    0 -0.61781012367E+00  0.36887526668E+02 -0.17090777830E+02  0.40659144111E+02  0.00000000000E+00 0. -1.
         11    1    3    3    0    0 -0.86285602471E+00 -0.55686084499E+01  0.81942250263E+01  0.99448099343E+01  0.51100000000E-03 0. -1.
        -11    1    3    3    0    0  0.15934779051E+01 -0.22764435044E+02 -0.58297502059E+01  0.23553018117E+02  0.51100000000E-03 0.  1.
        -12    1    3    3    0    0 -0.11281175669E+00 -0.85544831737E+01  0.14726303010E+02  0.17031027837E+02  0.00000000000E+00 0.  1.
</event>
<event>
 7    1  0.5764931E-013  0.5052886E+02  0.7816164E-02  0.1300439E+00
        -11   -1    0    0    0    0  0.00000000000E+00  0.00000000000E+00  0.45593999997E+02  0.45594000000E+02  0.51100000000E-03 0. -1.
         11   -1    0    0    0    0 -0.00000000000E+00 -0.00000000000E+00 -0.45593999997E+02  0.45594000000E+02  0.51100000000E-03 0.  1.
    9900012    2    1    2    0    0  0.28726811738E+02 -0.28569782872E+02 -0.34209921603E+01  0.50528863347E+02  0.30000010629E+02 0.  0.
         12    1    1    2    0    0 -0.28726811738E+02  0.28569782872E+02  0.34209921603E+01  0.40659136653E+02  0.00000000000E+00 0. -1.
         11    1    3    3    0    0  0.49333391548E+01  0.20375943127E+01 -0.66271370822E+01  0.85093226503E+01  0.51100000000E-03 0. -1.
        -11    1    3    3    0    0  0.16343555886E+02 -0.19383988346E+02  0.95963588036E+01  0.27109793909E+02  0.51100000000E-03 0.  1.
        -12    1    3    3    0    0  0.74499166971E+01 -0.11223388839E+02 -0.63902138817E+01  0.14909746788E+02  0.00000000000E+00 0.  1.
</event>
<event>
 7    1  0.5764931E-013  0.5052887E+02  0.7816164E-02  0.1300439E+00
        -11   -1    0    0    0    0  0.00000000000E+00  0.00000000000E+00  0.45593999997E+02  0.45594000000E+02  0.51100000000E-03 0.  1.
         11   -1    0    0    0    0 -0.00000000000E+00 -0.00000000000E+00 -0.45593999997E+02  0.45594000000E+02  0.51100000000E-03 0. -1.
    9900012    2    1    2    0    0  0.25328004120E+02  0.11530389201E+02  0.29642991658E+02  0.50528872829E+02  0.30000039452E+02 0.  0.
         12    1    1    2    0    0 -0.25328004120E+02 -0.11530389201E+02 -0.29642991658E+02  0.40659127171E+02  0.00000000000E+00 0. -1.
         11    1    3    3    0    0  0.24180516749E+01  0.25382702949E+01  0.21369368624E+02  0.21655015715E+02  0.51100000000E-03 0. -1.
        -11    1    3    3    0    0  0.12049497389E+02  0.11342641342E+02  0.51546261560E+01  0.17332514850E+02  0.51100000000E-03 0.  1.
        -12    1    3    3    0    0  0.10860455055E+02 -0.23505224363E+01  0.31189968789E+01  0.11541342264E+02  0.00000000000E+00 0.  1.
</event>
<event>
 7    1  0.5764931E-013  0.5052885E+02  0.7816164E-02  0.1300439E+00
        -11   -1    0    0    0    0  0.00000000000E+00  0.00000000000E+00  0.45593999997E+02  0.45594000000E+02  0.51100000000E-03 0. -1.
         11   -1    0    0    0    0 -0.00000000000E+00 -0.00000000000E+00 -0.45593999997E+02  0.45594000000E+02  0.51100000000E-03 0.  1.
    9900012    2    1    2    0    0  0.38943432015E+02  0.93784286198E+00 -0.11648848790E+02  0.50528854357E+02  0.29999983302E+02 0.  0.
         12    1    1    2    0    0 -0.38943432015E+02 -0.93784286198E+00  0.11648848790E+02  0.40659145643E+02  0.00000000000E+00 0. -1.
         11    1    3    3    0    0  0.39194214788E+01 -0.84430586407E+01 -0.54164571500E+01  0.10769638446E+02  0.51100000000E-03 0. -1.
        -11    1    3    3    0    0  0.35441973111E+02  0.61417319151E+01 -0.61500376774E+01  0.36492153850E+02  0.51100000000E-03 0.  1.
        -12    1    3    3    0    0 -0.41796257523E+00  0.32391695876E+01 -0.82353963082E-01  0.32670620605E+01  0.00000000000E+00 0.  1.
</event>
<event>
 7    1  0.5764931E-013  0.5052882E+02  0.7816164E-02  0.1300439E+00
        -11   -1    0    0    0    0  0.00000000000E+00  0.00000000000E+00  0.45593999997E+02  0.45594000000E+02  0.51100000000E-03 0.  1.
         11   -1    0    0    0    0 -0.00000000000E+00 -0.00000000000E+00 -0.45593999997E+02  0.45594000000E+02  0.51100000000E-03 0. -1.
    9900012    2    1    2    0    0 -0.21996413488E+02 -0.34195290594E+02 -0.93894884692E-01  0.50528819962E+02  0.29999878757E+02 0.  0.
         12    1    1    2    0    0  0.21996413488E+02  0.34195290594E+02  0.93894884692E-01  0.40659180038E+02  0.00000000000E+00 0. -1.
         11    1    3    3    0    0 -0.12561301337E+02 -0.16827220604E+02 -0.44830244081E+01  0.21471822295E+02  0.51100000000E-03 0. -1.
        -11    1    3    3    0    0 -0.11746110386E+02 -0.92455975359E+00  0.40147832859E+01  0.12447666650E+02  0.51100000000E-03 0.  1.
        -12    1    3    3    0    0  0.23109982361E+01 -0.16443510236E+02  0.37434623754E+00  0.16609331017E+02  0.00000000000E+00 0.  1.
</event>
<event>
 7    1  0.5764931E-013  0.5052887E+02  0.7816164E-02  0.1300439E+00
        -11   -1    0    0    0    0  0.00000000000E+00  0.00000000000E+00  0.45593999997E+02  0.45594000000E+02  0.51100000000E-03 0. -1.
         11   -1    0    0    0    0 -0.00000000000E+00 -0.00000000000E+00 -0.45593999997E+02  0.45594000000E+02  0.51100000000E-03 0.  1.
    9900012    2    1    2    0    0  0.14402088962E+01 -0.24318700463E+01 -0.40560774351E+02  0.50528872986E+02  0.30000039930E+02 0.  0.
         12    1    1    2    0    0 -0.14402088962E+01  0.24318700463E+01  0.40560774351E+02  0.40659127014E+02  0.00000000000E+00 0. -1.
         11    1    3    3    0    0 -0.13346060539E+01  0.74490429911E+01 -0.15536152924E+02  0.17281245984E+02  0.51100000000E-03 0. -1.
        -11    1    3    3    0    0 -0.42080059358E+01 -0.12594807245E+02 -0.10590566612E+02  0.16985187221E+02  0.51100000000E-03 0.  1.
        -12    1    3    3    0    0  0.69828208858E+01  0.27138942074E+01 -0.14434054814E+02  0.16262439782E+02  0.00000000000E+00 0.  1.
</event>
<event>
 7    1  0.5764931E-013  0.5052887E+02  0.7816164E-02  0.1300439E+00
        -11   -1    0    0    0    0  0.00000000000E+00  0.00000000000E+00  0.45593999997E+02  0.45594000000E+02  0.51100000000E-03 0.  1.
         11   -1    0    0    0    0 -0.00000000000E+00 -0.00000000000E+00 -0.45593999997E+02  0.45594000000E+02  0.51100000000E-03 0. -1.
    9900012    2    1    2    0    0  0.13648750892E+02 -0.29344351602E+02  0.24612711957E+02  0.50528868655E+02  0.30000026763E+02 0.  0.
         12    1    1    2    0    0 -0.13648750892E+02  0.29344351602E+02 -0.24612711957E+02  0.40659131345E+02  0.00000000000E+00 0. -1.
         11    1    3    3    0    0  0.10943289236E+02 -0.19642847891E+02 -0.52425244400E-01  0.22485546496E+02  0.51100000000E-03 0. -1.
        -11    1    3    3    0    0  0.36411085419E+01 -0.17490234906E+01  0.32642071034E+01  0.51934384429E+01  0.51100000000E-03 0.  1.
         12    1    3    3    0    0 -0.93564688557E+00 -0.79524802200E+01  0.21400930098E+02  0.22849883716E+02  0.00000000000E+00 0. -1.
</event>
<event>
 7    1  0.5764931E-013  0.5052886E+02  0.7816164E-02  0.1300439E+00
        -11   -1    0    0    0    0  0.00000000000E+00  0.00000000000E+00  0.45593999997E+02  0.45594000000E+02  0.51100000000E-03 0.  1.
         11   -1    0    0    0    0 -0.00000000000E+00 -0.00000000000E+00 -0.45593999997E+02  0.45594000000E+02  0.51100000000E-03 0. -1.
    9900012    2    1    2    0    0  0.23539564939E+02 -0.30858520649E+01  0.33008065553E+02  0.50528855984E+02  0.29999988250E+02 0.  0.
         12    1    1    2    0    0 -0.23539564939E+02  0.30858520649E+01 -0.33008065553E+02  0.40659144016E+02  0.00000000000E+00 0. -1.
         11    1    3    3    0    0 -0.32659880526E+01 -0.33844932171E+01  0.68686580474E+01  0.83246583070E+01  0.51100000000E-03 0. -1.
        -11    1    3    3    0    0  0.19837698357E+02 -0.42570475018E+01  0.27067552027E+02  0.33827638146E+02  0.51100000000E-03 0.  1.
         12    1    3    3    0    0  0.69678546347E+01  0.45556886540E+01 -0.92814452151E+00  0.83765595309E+01  0.00000000000E+00 0. -1.
</event>
<event>
 7    1  0.5764931E-013  0.5052887E+02  0.7816164E-02  0.1300439E+00
        -11   -1    0    0    0    0  0.00000000000E+00  0.00000000000E+00  0.45593999997E+02  0.45594000000E+02  0.51100000000E-03 0.  1.
         11   -1    0    0    0    0 -0.00000000000E+00 -0.00000000000E+00 -0.45593999997E+02  0.45594000000E+02  0.51100000000E-03 0. -1.
    9900012    2    1    2    0    0 -0.64669104284E+01  0.29705254403E+02  0.26998916935E+02  0.50528873284E+02  0.30000040834E+02 0.  0.
         12    1    1    2    0    0  0.64669104284E+01 -0.29705254403E+02 -0.26998916935E+02  0.40659126716E+02  0.00000000000E+00 0. -1.
         11    1    3    3    0    0 -0.42108529070E+01  0.11782525434E+01 -0.26651362742E+01  0.51207922123E+01  0.51100000000E-03 0. -1.
        -11    1    3    3    0    0  0.60792439098E+01  0.21810336383E+02  0.14647430014E+02  0.26966556806E+02  0.51100000000E-03 0.  1.
        -12    1    3    3    0    0 -0.83353014312E+01  0.67166654768E+01  0.15016623195E+02  0.18441524266E+02  0.00000000000E+00 0.  1.
</event>
<event>
 7    1  0.5764931E-013  0.5052885E+02  0.7816164E-02  0.1300439E+00
        -11   -1    0    0    0    0  0.00000000000E+00  0.00000000000E+00  0.45593999997E+02  0.45594000000E+02  0.51100000000E-03 0.  1.
         11   -1    0    0    0    0 -0.00000000000E+00 -0.00000000000E+00 -0.45593999997E+02  0.45594000000E+02  0.51100000000E-03 0. -1.
    9900012    2    1    2    0    0  0.33760502491E+02 -0.22492630133E+02  0.27343107931E+01  0.50528851039E+02  0.29999973217E+02 0.  0.
         12    1    1    2    0    0 -0.33760502491E+02  0.22492630133E+02 -0.27343107931E+01  0.40659148961E+02  0.00000000000E+00 0. -1.
         11    1    3    3    0    0  0.15637364354E+02 -0.42562306183E+01 -0.10792782778E+02  0.19471179301E+02  0.51100000000E-03 0. -1.
        -11    1    3    3    0    0  0.11883944655E+02 -0.14495071995E+02  0.41646845422E+01  0.19201037740E+02  0.51100000000E-03 0.  1.
         12    1    3    3    0    0  0.62391934818E+01 -0.37413275197E+01  0.93624090292E+01  0.11856633997E+02  0.00000000000E+00 0. -1.
</event>
<event>
 7    1  0.5764931E-013  0.5052886E+02  0.7816164E-02  0.1300439E+00
        -11   -1    0    0    0    0  0.00000000000E+00  0.00000000000E+00  0.45593999997E+02  0.45594000000E+02  0.51100000000E-03 0.  1.
         11   -1    0    0    0    0 -0.00000000000E+00 -0.00000000000E+00 -0.45593999997E+02  0.45594000000E+02  0.51100000000E-03 0. -1.
    9900012    2    1    2    0    0 -0.22873583842E+02 -0.23164029238E+02  0.24359657515E+02  0.50528855856E+02  0.29999987859E+02 0.  0.
         12    1    1    2    0    0  0.22873583842E+02  0.23164029238E+02 -0.24359657515E+02  0.40659144144E+02  0.00000000000E+00 0. -1.
         11    1    3    3    0    0 -0.13473996007E+02 -0.22489584317E+02  0.60494032131E+01  0.26905859039E+02  0.51100000000E-03 0. -1.
        -11    1    3    3    0    0  0.19476916243E+01 -0.27249106601E+01  0.49215626432E+01  0.59531856918E+01  0.51100000000E-03 0.  1.
         12    1    3    3    0    0 -0.11347279459E+02  0.20504657387E+01  0.13388691658E+02  0.17669811125E+02  0.00000000000E+00 0. -1.
</event>
<event>
 7    1  0.5764931E-013  0.5052886E+02  0.7816164E-02  0.1300439E+00
        -11   -1    0    0    0    0  0.00000000000E+00  0.00000000000E+00  0.45593999997E+02  0.45594000000E+02  0.51100000000E-03 0.  1.
         11   -1    0    0    0    0 -0.00000000000E+00 -0.00000000000E+00 -0.45593999997E+02  0.45594000000E+02  0.51100000000E-03 0. -1.
    9900012    2    1    2    0    0 -0.36351103872E+02 -0.13469256727E+02  0.12261398194E+02  0.50528861849E+02  0.30000006077E+02 0.  0.
         12    1    1    2    0    0  0.36351103872E+02  0.13469256727E+02 -0.12261398194E+02  0.40659138151E+02  0.00000000000E+00 0. -1.
         11    1    3    3    0    0 -0.35631446851E+01 -0.65003548465E+01 -0.73519673264E+01  0.10440404063E+02  0.51100000000E-03 0. -1.
        -11    1    3    3    0    0 -0.21372055057E+02  0.27176424915E+00  0.10765383340E+02  0.23931821324E+02  0.51100000000E-03 0.  1.
         12    1    3    3    0    0 -0.11415904130E+02 -0.72406661294E+01  0.88479821804E+01  0.16156636462E+02  0.00000000000E+00 0. -1.
</event>
<event>
 7    1  0.5764931E-013  0.5052886E+02  0.7816164E-02  0.1300439E+00
        -11   -1    0    0    0    0  0.00000000000E+00  0.00000000000E+00  0.45593999997E+02  0.45594000000E+02  0.51100000000E-03 0.  1.
         11   -1    0    0    0    0 -0.00000000000E+00 -0.00000000000E+00 -0.45593999997E+02  0.45594000000E+02  0.51100000000E-03 0. -1.
    9900012    2    1    2    0    0 -0.79409653469E+01  0.27656956331E+02  0.28726283518E+02  0.50528861680E+02  0.30000005564E+02 0.  0.
         12    1    1    2    0    0  0.79409653469E+01 -0.27656956331E+02 -0.28726283518E+02  0.40659138320E+02  0.00000000000E+00 0. -1.
         11    1    3    3    0    0 -0.17010389158E+00  0.21294820442E+02  0.30894533591E+01  0.21518434778E+02  0.51100000000E-03 0. -1.
        -11    1    3    3    0    0 -0.58512685592E+01  0.77745317201E+01  0.24516787976E+02  0.26377141242E+02  0.51100000000E-03 0.  1.
         12    1    3    3    0    0 -0.19195928961E+01 -0.14123958315E+01  0.11200421837E+01  0.26332856596E+01  0.00000000000E+00 0. -1.
</event>
<event>
 7    1  0.5764931E-013  0.5052886E+02  0.7816164E-02  0.1300439E+00
        -11   -1    0    0    0    0  0.00000000000E+00  0.00000000000E+00  0.45593999997E+02  0.45594000000E+02  0.51100000000E-03 0.  1.
         11   -1    0    0    0    0 -0.00000000000E+00 -0.00000000000E+00 -0.45593999997E+02  0.45594000000E+02  0.51100000000E-03 0. -1.
    9900012    2    1    2    0    0  0.26274415498E+02  0.30125552359E+02  0.74344965324E+01  0.50528861379E+02  0.30000004647E+02 0.  0.
         12    1    1    2    0    0 -0.26274415498E+02 -0.30125552359E+02 -0.74344965324E+01  0.40659138621E+02  0.00000000000E+00 0. -1.
         11    1    3    3    0    0  0.11462874815E+02  0.17252295493E+02 -0.98999993151E+01  0.22957551819E+02  0.51100000000E-03 0. -1.
        -11    1    3    3    0    0  0.12824619954E+01  0.52134203750E+01  0.73210076604E+01  0.90786350406E+01  0.51100000000E-03 0.  1.
         12    1    3    3    0    0  0.13529078688E+02  0.76598364915E+01  0.10013488187E+02  0.18492674520E+02  0.00000000000E+00 0. -1.
</event>
<event>
 7    1  0.5764931E-013  0.5052896E+02  0.7816164E-02  0.1300438E+00
        -11   -1    0    0    0    0  0.00000000000E+00  0.00000000000E+00  0.45593999997E+02  0.45594000000E+02  0.51100000000E-03 0.  1.
         11   -1    0    0    0    0 -0.00000000000E+00 -0.00000000000E+00 -0.45593999997E+02  0.45594000000E+02  0.51100000000E-03 0. -1.
    9900012    2    1    2    0    0  0.16819732079E+02 -0.33714764529E+02  0.15282960243E+02  0.50528959084E+02  0.30000301630E+02 0.  0.
         12    1    1    2    0    0 -0.16819732079E+02  0.33714764529E+02 -0.15282960243E+02  0.40659040916E+02  0.00000000000E+00 0. -1.
         11    1    3    3    0    0 -0.51100401814E+00 -0.15922574088E+01 -0.61882582420E+01  0.64102222343E+01  0.51100000000E-03 0. -1.
        -11    1    3    3    0    0  0.11509419810E+02 -0.28010444893E+02  0.21237705882E+02  0.36987726598E+02  0.51100000000E-03 0.  1.
        -12    1    3    3    0    0  0.58213162870E+01 -0.41120622267E+01  0.23351260251E+00  0.71310102514E+01  0.00000000000E+00 0.  1.
</event>
<event>
 7    1  0.5764931E-013  0.5052873E+02  0.7816164E-02  0.1300439E+00
        -11   -1    0    0    0    0  0.00000000000E+00  0.00000000000E+00  0.45593999997E+02  0.45594000000E+02  0.51100000000E-03 0. -1.
         11   -1    0    0    0    0 -0.00000000000E+00 -0.00000000000E+00 -0.45593999997E+02  0.45594000000E+02  0.51100000000E-03 0.  1.
    9900012    2    1    2    0    0 -0.16766524710E+02  0.34003040707E+02  0.14691941095E+02  0.50528729700E+02  0.29999604393E+02 0.  0.
         12    1    1    2    0    0  0.16766524710E+02 -0.34003040707E+02 -0.14691941095E+02  0.40659270300E+02  0.00000000000E+00 0. -1.
         11    1    3    3    0    0 -0.12509050825E+02  0.32372869753E+01 -0.26645778710E+01  0.13193041916E+02  0.51100000000E-03 0. -1.
        -11    1    3    3    0    0 -0.49622157717E+01  0.17689974250E+02  0.43532030584E+01  0.18881449930E+02  0.51100000000E-03 0.  1.
         12    1    3    3    0    0  0.70474188630E+00  0.13075779482E+02  0.13003315908E+02  0.18454237855E+02  0.00000000000E+00 0. -1.
</event>
<event>
 7    1  0.5764931E-013  0.5052885E+02  0.7816164E-02  0.1300439E+00
        -11   -1    0    0    0    0  0.00000000000E+00  0.00000000000E+00  0.45593999997E+02  0.45594000000E+02  0.51100000000E-03 0.  1.
         11   -1    0    0    0    0 -0.00000000000E+00 -0.00000000000E+00 -0.45593999997E+02  0.45594000000E+02  0.51100000000E-03 0. -1.
    9900012    2    1    2    0    0 -0.20256573870E+02 -0.12848108311E+02  0.32829311050E+02  0.50528851753E+02  0.29999975389E+02 0.  0.
         12    1    1    2    0    0  0.20256573870E+02  0.12848108311E+02 -0.32829311050E+02  0.40659148247E+02  0.00000000000E+00 0. -1.
         11    1    3    3    0    0 -0.16053453385E+02 -0.17293223832E+02  0.23003679731E+02  0.32953577007E+02  0.51100000000E-03 0. -1.
        -11    1    3    3    0    0  0.28163246054E+01 -0.18889079644E+00  0.86296753106E+01  0.90795737920E+01  0.51100000000E-03 0.  1.
         12    1    3    3    0    0 -0.70194450911E+01  0.46340063175E+01  0.11959560079E+01  0.84957009546E+01  0.00000000000E+00 0. -1.
</event>
<event>
 7    1  0.5764931E-013  0.5052887E+02  0.7816164E-02  0.1300439E+00
        -11   -1    0    0    0    0  0.00000000000E+00  0.00000000000E+00  0.45593999997E+02  0.45594000000E+02  0.51100000000E-03 0. -1.
         11   -1    0    0    0    0 -0.00000000000E+00 -0.00000000000E+00 -0.45593999997E+02  0.45594000000E+02  0.51100000000E-03 0.  1.
    9900012    2    1    2    0    0  0.39351399226E+02 -0.80295180618E+01 -0.63371049900E+01  0.50528872107E+02  0.30000037256E+02 0.  0.
         12    1    1    2    0    0 -0.39351399226E+02  0.80295180618E+01  0.63371049900E+01  0.40659127893E+02  0.00000000000E+00 0. -1.
         11    1    3    3    0    0  0.15683665992E+02 -0.12624658346E+02  0.60452737384E+01  0.21021529729E+02  0.51100000000E-03 0. -1.
        -11    1    3    3    0    0  0.24803507123E+02  0.33016147530E+01 -0.11172343880E+02  0.27403209549E+02  0.51100000000E-03 0.  1.
        -12    1    3    3    0    0 -0.11357738886E+01  0.12935255315E+01 -0.12100348482E+01  0.21041328286E+01  0.00000000000E+00 0.  1.
</event>
<event>
 7    1  0.5764931E-013  0.5052886E+02  0.7816164E-02  0.1300439E+00
        -11   -1    0    0    0    0  0.00000000000E+00  0.00000000000E+00  0.45593999997E+02  0.45594000000E+02  0.51100000000E-03 0. -1.
         11   -1    0    0    0    0 -0.00000000000E+00 -0.00000000000E+00 -0.45593999997E+02  0.45594000000E+02  0.51100000000E-03 0.  1.
    9900012    2    1    2    0    0  0.21520175873E+02 -0.10740578624E+02 -0.32782429750E+02  0.50528859587E+02  0.29999999202E+02 0.  0.
         12    1    1    2    0    0 -0.21520175873E+02  0.10740578624E+02  0.32782429750E+02  0.40659140413E+02  0.00000000000E+00 0. -1.
         11    1    3    3    0    0  0.14425706618E+02 -0.68753328105E+01 -0.36649910746E+01  0.16395224077E+02  0.51100000000E-03 0. -1.
        -11    1    3    3    0    0  0.67181988850E+01 -0.56468095895E+01 -0.30569725424E+02  0.31804540047E+02  0.51100000000E-03 0.  1.
        -12    1    3    3    0    0  0.37627036970E+00  0.17815637760E+01  0.14522867489E+01  0.23290954639E+01  0.00000000000E+00 0.  1.
</event>
<event>
 7    1  0.5764931E-013  0.5052886E+02  0.7816164E-02  0.1300439E+00
        -11   -1    0    0    0    0  0.00000000000E+00  0.00000000000E+00  0.45593999997E+02  0.45594000000E+02  0.51100000000E-03 0.  1.
         11   -1    0    0    0    0 -0.00000000000E+00 -0.00000000000E+00 -0.45593999997E+02  0.45594000000E+02  0.51100000000E-03 0. -1.
    9900012    2    1    2    0    0  0.92041298606E+01  0.20870731179E+02  0.33658022745E+02  0.50528856852E+02  0.29999990888E+02 0.  0.
         12    1    1    2    0    0 -0.92041298606E+01 -0.20870731179E+02 -0.33658022745E+02  0.40659143148E+02  0.00000000000E+00 0. -1.
         11    1    3    3    0    0 -0.97926611609E-01 -0.28978464936E+01  0.60729560181E+01  0.67296284430E+01  0.51100000000E-03 0. -1.
        -11    1    3    3    0    0  0.14016824967E+02  0.24324276707E+02  0.27112147105E+02  0.39028327410E+02  0.51100000000E-03 0.  1.
        -12    1    3    3    0    0 -0.47147684952E+01 -0.55569903423E+00  0.47291962098E+00  0.47709009996E+01  0.00000000000E+00 0.  1.
</event>
<event>
 7    1  0.5764931E-013  0.5052891E+02  0.7816164E-02  0.1300439E+00
        -11   -1    0    0    0    0  0.00000000000E+00  0.00000000000E+00  0.45593999997E+02  0.45594000000E+02  0.51100000000E-03 0. -1.
         11   -1    0    0    0    0 -0.00000000000E+00 -0.00000000000E+00 -0.45593999997E+02  0.45594000000E+02  0.51100000000E-03 0.  1.
    9900012    2    1    2    0    0 -0.35749206670E+02  0.90140902849E+01  0.17143562811E+02  0.50528913107E+02  0.30000161878E+02 0.  0.
         12    1    1    2    0    0  0.35749206670E+02 -0.90140902849E+01 -0.17143562811E+02  0.40659086893E+02  0.00000000000E+00 0. -1.
         11    1    3    3    0    0 -0.95085953222E+01  0.15735598840E+02  0.11800109619E+02  0.21846396571E+02  0.51100000000E-03 0. -1.
        -11    1    3    3    0    0 -0.15160326724E+02 -0.31653939077E+01  0.68760670459E+01  0.16945073717E+02  0.51100000000E-03 0.  1.
         12    1    3    3    0    0 -0.11080284623E+02 -0.35561146472E+01 -0.15326138542E+01  0.11737442819E+02  0.00000000000E+00 0. -1.
</event>
<event>
 7    1  0.5764931E-013  0.5052886E+02  0.7816164E-02  0.1300439E+00
        -11   -1    0    0    0    0  0.00000000000E+00  0.00000000000E+00  0.45593999997E+02  0.45594000000E+02  0.51100000000E-03 0. -1.
         11   -1    0    0    0    0 -0.00000000000E+00 -0.00000000000E+00 -0.45593999997E+02  0.45594000000E+02  0.51100000000E-03 0.  1.
    9900012    2    1    2    0    0 -0.19935706489E+01  0.18174897429E+02 -0.36316168358E+02  0.50528864437E+02  0.30000013944E+02 0.  0.
         12    1    1    2    0    0  0.19935706489E+01 -0.18174897429E+02  0.36316168358E+02  0.40659135563E+02  0.00000000000E+00 0. -1.
         11    1    3    3    0    0  0.10037174743E+02  0.14646319228E+01 -0.21921902489E+01  0.10377654929E+02  0.51100000000E-03 0. -1.
        -11    1    3    3    0    0 -0.71960350000E+01  0.12394218611E+02 -0.26645099708E+02  0.30254932051E+02  0.51100000000E-03 0.  1.
         12    1    3    3    0    0 -0.48347103914E+01  0.43160468956E+01 -0.74788784005E+01  0.98962774569E+01  0.00000000000E+00 0. -1.
</event>
<event>
 7    1  0.5764931E-013  0.5052886E+02  0.7816164E-02  0.1300439E+00
        -11   -1    0    0    0    0  0.00000000000E+00  0.00000000000E+00  0.45593999997E+02  0.45594000000E+02  0.51100000000E-03 0.  1.
         11   -1    0    0    0    0 -0.00000000000E+00 -0.00000000000E+00 -0.45593999997E+02  0.45594000000E+02  0.51100000000E-03 0. -1.
    9900012    2    1    2    0    0  0.36048935465E+02 -0.53116770423E+01  0.18039566950E+02  0.50528860352E+02  0.30000001525E+02 0.  0.
         12    1    1    2    0    0 -0.36048935465E+02  0.53116770423E+01 -0.18039566950E+02  0.40659139648E+02  0.00000000000E+00 0. -1.
         11    1    3    3    0    0 -0.76533885355E+00 -0.72367245070E+00 -0.17081312556E+01  0.20067780207E+01  0.51100000000E-03 0. -1.
        -11    1    3    3    0    0  0.29355188555E+02 -0.12421766093E+02  0.20128267950E+02  0.37698468655E+02  0.51100000000E-03 0.  1.
        -12    1    3    3    0    0  0.74590857640E+01  0.78337615010E+01 -0.38056974459E+00  0.10823613677E+02  0.00000000000E+00 0.  1.
</event>
<event>
 7    1  0.5764931E-013  0.5052885E+02  0.7816164E-02  0.1300439E+00
        -11   -1    0    0    0    0  0.00000000000E+00  0.00000000000E+00  0.45593999997E+02  0.45594000000E+02  0.51100000000E-03 0. -1.
         11   -1    0    0    0    0 -0.00000000000E+00 -0.00000000000E+00 -0.45593999997E+02  0.45594000000E+02  0.51100000000E-03 0.  1.
    9900012    2    1    2    0    0  0.37093875410E+02 -0.16334878700E+02 -0.32221626079E+01  0.50528853588E+02  0.29999980966E+02 0.  0.
         12    1    1    2    0    0 -0.37093875410E+02  0.16334878700E+02  0.32221626079E+01  0.40659146412E+02  0.00000000000E+00 0. -1.
         11    1    3    3    0    0 -0.11978856217E+00  0.27034505318E+01  0.16547024333E+01  0.31719133786E+01  0.51100000000E-03 0. -1.
        -11    1    3    3    0    0  0.36545143372E+02 -0.20894946465E+02 -0.96383193827E-03  0.42096867972E+02  0.51100000000E-03 0.  1.
        -12    1    3    3    0    0  0.66852060063E+00  0.18566172335E+01 -0.48759012093E+01  0.52600722379E+01  0.00000000000E+00 0.  1.
</event>
<event>
 7    1  0.5764931E-013  0.5052886E+02  0.7816164E-02  0.1300439E+00
        -11   -1    0    0    0    0  0.00000000000E+00  0.00000000000E+00  0.45593999997E+02  0.45594000000E+02  0.51100000000E-03 0. -1.
         11   -1    0    0    0    0 -0.00000000000E+00 -0.00000000000E+00 -0.45593999997E+02  0.45594000000E+02  0.51100000000E-03 0.  1.
    9900012    2    1    2    0    0  0.38736668229E+01 -0.28014694501E+02  0.29211939036E+02  0.50528858533E+02  0.29999995996E+02 0.  0.
         12    1    1    2    0    0 -0.38736668229E+01  0.28014694501E+02 -0.29211939036E+02  0.40659141467E+02  0.00000000000E+00 0. -1.
         11    1    3    3    0    0  0.96271016432E+01 -0.42072951200E+01  0.17390352327E+02  0.20317646827E+02  0.51100000000E-03 0. -1.
        -11    1    3    3    0    0  0.30691246636E+01 -0.10769795983E+02  0.12936489730E+01  0.11273045712E+02  0.51100000000E-03 0.  1.
         12    1    3    3    0    0 -0.88225594838E+01 -0.13037603398E+02  0.10527937736E+02  0.18938165993E+02  0.00000000000E+00 0. -1.
</event>
<event>
 7    1  0.5764931E-013  0.5052886E+02  0.7816164E-02  0.1300439E+00
        -11   -1    0    0    0    0  0.00000000000E+00  0.00000000000E+00  0.45593999997E+02  0.45594000000E+02  0.51100000000E-03 0. -1.
         11   -1    0    0    0    0 -0.00000000000E+00 -0.00000000000E+00 -0.45593999997E+02  0.45594000000E+02  0.51100000000E-03 0.  1.
    9900012    2    1    2    0    0 -0.32293562827E+02 -0.15243206677E+02 -0.19440570083E+02  0.50528864311E+02  0.30000013559E+02 0.  0.
         12    1    1    2    0    0  0.32293562827E+02  0.15243206677E+02  0.19440570083E+02  0.40659135689E+02  0.00000000000E+00 0. -1.
         11    1    3    3    0    0 -0.87350325281E+01  0.45371858939E+01 -0.14875923053E+01  0.99548872536E+01  0.51100000000E-03 0. -1.
        -11    1    3    3    0    0 -0.38542130320E+01 -0.12453311270E+02 -0.14097164551E+02  0.19200780409E+02  0.51100000000E-03 0.  1.
        -12    1    3    3    0    0 -0.19704317266E+02 -0.73270813012E+01 -0.38558132269E+01  0.21373196648E+02  0.00000000000E+00 0.  1.
</event>
<event>
 7    1  0.5764931E-013  0.5052887E+02  0.7816164E-02  0.1300439E+00
        -11   -1    0    0    0    0  0.00000000000E+00  0.00000000000E+00  0.45593999997E+02  0.45594000000E+02  0.51100000000E-03 0.  1.
         11   -1    0    0    0    0 -0.00000000000E+00 -0.00000000000E+00 -0.45593999997E+02  0.45594000000E+02  0.51100000000E-03 0. -1.
    9900012    2    1    2    0    0  0.17640494312E+01  0.25101622630E+02  0.31936839392E+02  0.50528867700E+02  0.30000023860E+02 0.  0.
         12    1    1    2    0    0 -0.17640494312E+01 -0.25101622630E+02 -0.31936839392E+02  0.40659132300E+02  0.00000000000E+00 0. -1.
         11    1    3    3    0    0  0.56935949551E+01 -0.39239564570E+01  0.37450774983E+01  0.78638453392E+01  0.51100000000E-03 0. -1.
        -11    1    3    3    0    0  0.31515920396E+01  0.20820021429E+02  0.20382647543E+02  0.29306281678E+02  0.51100000000E-03 0.  1.
         12    1    3    3    0    0 -0.70811375634E+01  0.82055576573E+01  0.78091143513E+01  0.13358740682E+02  0.00000000000E+00 0. -1.
</event>
<event>
 7    1  0.5764931E-013  0.5052886E+02  0.7816164E-02  0.1300439E+00
        -11   -1    0    0    0    0  0.00000000000E+00  0.00000000000E+00  0.45593999997E+02  0.45594000000E+02  0.51100000000E-03 0.  1.
         11   -1    0    0    0    0 -0.00000000000E+00 -0.00000000000E+00 -0.45593999997E+02  0.45594000000E+02  0.51100000000E-03 0. -1.
    9900012    2    1    2    0    0 -0.77331890261E+01 -0.48215740112E+01  0.39624691483E+02  0.50528856335E+02  0.29999989315E+02 0.  0.
         12    1    1    2    0    0  0.77331890261E+01  0.48215740112E+01 -0.39624691483E+02  0.40659143665E+02  0.00000000000E+00 0. -1.
         11    1    3    3    0    0  0.14576657261E+01 -0.43969388028E+00  0.93467526723E+01  0.94699475107E+01  0.51100000000E-03 0. -1.
        -11    1    3    3    0    0 -0.13002044226E+02 -0.37278400826E+01  0.34570520225E+01  0.13960700365E+02  0.51100000000E-03 0.  1.
        -12    1    3    3    0    0  0.38111894733E+01 -0.65404004828E+00  0.26820886788E+02  0.27098208459E+02  0.00000000000E+00 0.  1.
</event>
<event>
 7    1  0.5764931E-013  0.5052886E+02  0.7816164E-02  0.1300439E+00
        -11   -1    0    0    0    0  0.00000000000E+00  0.00000000000E+00  0.45593999997E+02  0.45594000000E+02  0.51100000000E-03 0.  1.
         11   -1    0    0    0    0 -0.00000000000E+00 -0.00000000000E+00 -0.45593999997E+02  0.45594000000E+02  0.51100000000E-03 0. -1.
    9900012    2    1    2    0    0  0.23329861479E+02 -0.73871690790E+01  0.32470184431E+02  0.50528861044E+02  0.30000003630E+02 0.  0.
         12    1    1    2    0    0 -0.23329861479E+02  0.73871690790E+01 -0.32470184431E+02  0.40659138956E+02  0.00000000000E+00 0. -1.
         11    1    3    3    0    0  0.24236150850E+01  0.10407776726E+02  0.11966279938E+02  0.16043303347E+02  0.51100000000E-03 0. -1.
        -11    1    3    3    0    0  0.11686946103E+02 -0.11281880285E+02  0.14086241995E+02  0.21500877791E+02  0.51100000000E-03 0.  1.
         12    1    3    3    0    0  0.92193002916E+01 -0.65130655205E+01  0.64176624973E+01  0.12984679906E+02  0.00000000000E+00 0. -1.
</event>
<event>
 7    1  0.5764931E-013  0.5052886E+02  0.7816164E-02  0.1300439E+00
        -11   -1    0    0    0    0  0.00000000000E+00  0.00000000000E+00  0.45593999997E+02  0.45594000000E+02  0.51100000000E-03 0.  1.
         11   -1    0    0    0    0 -0.00000000000E+00 -0.00000000000E+00 -0.45593999997E+02  0.45594000000E+02  0.51100000000E-03 0. -1.
    9900012    2    1    2    0    0  0.35370243723E+02  0.20016000045E+02 -0.12129678779E+01  0.50528859700E+02  0.29999999544E+02 0.  0.
         12    1    1    2    0    0 -0.35370243723E+02 -0.20016000045E+02  0.12129678779E+01  0.40659140300E+02  0.00000000000E+00 0. -1.
         11    1    3    3    0    0  0.25721850427E+02  0.46519009376E+00  0.28683538484E+01  0.25885467839E+02  0.51100000000E-03 0.  1.
        -11    1    3    3    0    0 -0.48015653403E+00  0.14714665128E+01 -0.35955097274E+01  0.39145184195E+01  0.51100000000E-03 0. -1.
         12    1    3    3    0    0  0.10128549831E+02  0.18079343439E+02 -0.48581199889E+00  0.20728873441E+02  0.00000000000E+00 0. -1.
</event>
<event>
 7    1  0.5764931E-013  0.5052892E+02  0.7816164E-02  0.1300439E+00
        -11   -1    0    0    0    0  0.00000000000E+00  0.00000000000E+00  0.45593999997E+02  0.45594000000E+02  0.51100000000E-03 0.  1.
         11   -1    0    0    0    0 -0.00000000000E+00 -0.00000000000E+00 -0.45593999997E+02  0.45594000000E+02  0.51100000000E-03 0. -1.
    9900012    2    1    2    0    0  0.33750833482E+02 -0.21432989500E+02  0.73938295685E+01  0.50528923334E+02  0.30000192964E+02 0.  0.
         12    1    1    2    0    0 -0.33750833482E+02  0.21432989500E+02 -0.73938295685E+01  0.40659076666E+02  0.00000000000E+00 0. -1.
         11    1    3    3    0    0  0.16389063186E+02 -0.75202662740E+01 -0.37412891106E+01  0.18416108205E+02  0.51100000000E-03 0. -1.
        -11    1    3    3    0    0  0.16735318468E+00 -0.12876386689E+02  0.53037232079E+01  0.13926909972E+02  0.51100000000E-03 0.  1.
        -12    1    3    3    0    0  0.17194417112E+02 -0.10363365380E+01  0.58313954712E+01  0.18185905157E+02  0.00000000000E+00 0.  1.
</event>
<event>
 7    1  0.5764931E-013  0.5052884E+02  0.7816164E-02  0.1300439E+00
        -11   -1    0    0    0    0  0.00000000000E+00  0.00000000000E+00  0.45593999997E+02  0.45594000000E+02  0.51100000000E-03 0.  1.
         11   -1    0    0    0    0 -0.00000000000E+00 -0.00000000000E+00 -0.45593999997E+02  0.45594000000E+02  0.51100000000E-03 0. -1.
    9900012    2    1    2    0    0 -0.17244836804E+02  0.28243914009E+02  0.23623384918E+02  0.50528838795E+02  0.29999936001E+02 0.  0.
         12    1    1    2    0    0  0.17244836804E+02 -0.28243914009E+02 -0.23623384918E+02  0.40659161205E+02  0.00000000000E+00 0. -1.
         11    1    3    3    0    0 -0.90647228719E+01  0.11817582430E+01 -0.80102601607E+00  0.91764588066E+01  0.51100000000E-03 0. -1.
        -11    1    3    3    0    0 -0.13051188223E+02  0.20725001039E+02  0.22199254646E+02  0.33055500135E+02  0.51100000000E-03 0.  1.
        -12    1    3    3    0    0  0.48710742915E+01  0.63371547270E+01  0.22251562880E+01  0.82968798529E+01  0.00000000000E+00 0.  1.
</event>
<event>
 7    1  0.5764931E-013  0.5052884E+02  0.7816164E-02  0.1300439E+00
        -11   -1    0    0    0    0  0.00000000000E+00  0.00000000000E+00  0.45593999997E+02  0.45594000000E+02  0.51100000000E-03 0. -1.
         11   -1    0    0    0    0 -0.00000000000E+00 -0.00000000000E+00 -0.45593999997E+02  0.45594000000E+02  0.51100000000E-03 0.  1.
    9900012    2    1    2    0    0 -0.22539808998E+01 -0.32850641832E+02 -0.23852082658E+02  0.50528844256E+02  0.29999952601E+02 0.  0.
         12    1    1    2    0    0  0.22539808998E+01  0.32850641832E+02  0.23852082658E+02  0.40659155744E+02  0.00000000000E+00 0. -1.
         11    1    3    3    0    0 -0.37308097173E+01 -0.14098340009E+02  0.10195577320E+01  0.14619221265E+02  0.51100000000E-03 0. -1.
        -11    1    3    3    0    0 -0.35947554571E+01 -0.11077237627E+02 -0.23990991628E+02  0.26668242158E+02  0.51100000000E-03 0.  1.
        -12    1    3    3    0    0  0.50715842747E+01 -0.76750641957E+01 -0.88064876212E+00  0.92413808333E+01  0.00000000000E+00 0.  1.
</event>
<event>
 7    1  0.5764931E-013  0.5052886E+02  0.7816164E-02  0.1300439E+00
        -11   -1    0    0    0    0  0.00000000000E+00  0.00000000000E+00  0.45593999997E+02  0.45594000000E+02  0.51100000000E-03 0. -1.
         11   -1    0    0    0    0 -0.00000000000E+00 -0.00000000000E+00 -0.45593999997E+02  0.45594000000E+02  0.51100000000E-03 0.  1.
    9900012    2    1    2    0    0  0.40605998288E+02 -0.12159947044E+00  0.20745650031E+01  0.50528859535E+02  0.29999999041E+02 0.  0.
         12    1    1    2    0    0 -0.40605998288E+02  0.12159947044E+00 -0.20745650031E+01  0.40659140465E+02  0.00000000000E+00 0. -1.
         11    1    3    3    0    0  0.13328271857E+02  0.88758875515E+01 -0.73207683871E+01  0.17607324060E+02  0.51100000000E-03 0. -1.
        -11    1    3    3    0    0  0.18453805739E+02 -0.10943011447E+02  0.10377546225E+02  0.23832455008E+02  0.51100000000E-03 0.  1.
        -12    1    3    3    0    0  0.88239206920E+01  0.19455244249E+01 -0.98221283526E+00  0.90890804661E+01  0.00000000000E+00 0.  1.
</event>
<event>
 7    1  0.5764931E-013  0.5052887E+02  0.7816164E-02  0.1300439E+00
        -11   -1    0    0    0    0  0.00000000000E+00  0.00000000000E+00  0.45593999997E+02  0.45594000000E+02  0.51100000000E-03 0.  1.
         11   -1    0    0    0    0 -0.00000000000E+00 -0.00000000000E+00 -0.45593999997E+02  0.45594000000E+02  0.51100000000E-03 0. -1.
    9900012    2    1    2    0    0 -0.21077820827E+02 -0.21300510502E+02  0.27480505365E+02  0.50528874904E+02  0.30000045757E+02 0.  0.
         12    1    1    2    0    0  0.21077820827E+02  0.21300510502E+02 -0.27480505365E+02  0.40659125096E+02  0.00000000000E+00 0. -1.
         11    1    3    3    0    0 -0.18642059619E+02 -0.18879077402E+02  0.12497514862E+02  0.29328038263E+02  0.51100000000E-03 0. -1.
        -11    1    3    3    0    0 -0.37465565541E+00 -0.17561854980E+01  0.17663590046E+02  0.17754632295E+02  0.51100000000E-03 0.  1.
         12    1    3    3    0    0 -0.20611055531E+01 -0.66524760222E+00 -0.26805995437E+01  0.34462043449E+01  0.00000000000E+00 0. -1.
</event>
<event>
 7    1  0.5764931E-013  0.5052887E+02  0.7816164E-02  0.1300439E+00
        -11   -1    0    0    0    0  0.00000000000E+00  0.00000000000E+00  0.45593999997E+02  0.45594000000E+02  0.51100000000E-03 0.  1.
         11   -1    0    0    0    0 -0.00000000000E+00 -0.00000000000E+00 -0.45593999997E+02  0.45594000000E+02  0.51100000000E-03 0. -1.
    9900012    2    1    2    0    0 -0.92372551940E+01 -0.39405859208E+02 -0.38751127765E+01  0.50528866678E+02  0.30000020755E+02 0.  0.
         12    1    1    2    0    0  0.92372551940E+01  0.39405859208E+02  0.38751127765E+01  0.40659133322E+02  0.00000000000E+00 0. -1.
         11    1    3    3    0    0  0.94456799328E+00 -0.12237049527E+02 -0.10653556371E+02  0.16252256872E+02  0.51100000000E-03 0. -1.
        -11    1    3    3    0    0 -0.60762777210E+01 -0.15681767988E+02  0.12350476492E+02  0.20865600111E+02  0.51100000000E-03 0.  1.
        -12    1    3    3    0    0 -0.41055454663E+01 -0.11487041693E+02 -0.55720328968E+01  0.13411009695E+02  0.00000000000E+00 0.  1.
</event>
<event>
 7    1  0.5764931E-013  0.5052884E+02  0.7816164E-02  0.1300439E+00
        -11   -1    0    0    0    0  0.00000000000E+00  0.00000000000E+00  0.45593999997E+02  0.45594000000E+02  0.51100000000E-03 0.  1.
         11   -1    0    0    0    0 -0.00000000000E+00 -0.00000000000E+00 -0.45593999997E+02  0.45594000000E+02  0.51100000000E-03 0. -1.
    9900012    2    1    2    0    0  0.92962399469E+01  0.30860300906E+02  0.24786864423E+02  0.50528844855E+02  0.29999954423E+02 0.  0.
         12    1    1    2    0    0 -0.92962399469E+01 -0.30860300906E+02 -0.24786864423E+02  0.40659155145E+02  0.00000000000E+00 0. -1.
         11    1    3    3    0    0 -0.69663841325E+01  0.70070860973E+01  0.12757928608E+01  0.99628013702E+01  0.51100000000E-03 0. -1.
        -11    1    3    3    0    0  0.13170805342E+02  0.25936773408E+02  0.19142161777E+02  0.34822531298E+02  0.51100000000E-03 0.  1.
        -12    1    3    3    0    0  0.30918187370E+01 -0.20835585999E+01  0.43689097848E+01  0.57435121876E+01  0.00000000000E+00 0.  1.
</event>
<event>
 7    1  0.5764931E-013  0.5052891E+02  0.7816164E-02  0.1300439E+00
        -11   -1    0    0    0    0  0.00000000000E+00  0.00000000000E+00  0.45593999997E+02  0.45594000000E+02  0.51100000000E-03 0.  1.
         11   -1    0    0    0    0 -0.00000000000E+00 -0.00000000000E+00 -0.45593999997E+02  0.45594000000E+02  0.51100000000E-03 0. -1.
    9900012    2    1    2    0    0 -0.77844007843E+01 -0.13458066088E+02  0.37569202472E+02  0.50528912297E+02  0.30000159418E+02 0.  0.
         12    1    1    2    0    0  0.77844007843E+01  0.13458066088E+02 -0.37569202472E+02  0.40659087703E+02  0.00000000000E+00 0. -1.
         11    1    3    3    0    0  0.37565539356E+01 -0.33322032041E+01  0.15389388496E+00  0.50238390951E+01  0.51100000000E-03 0. -1.
        -11    1    3    3    0    0 -0.16102350927E+02 -0.29966522313E+01  0.18064057724E+02  0.24383925273E+02  0.51100000000E-03 0.  1.
        -12    1    3    3    0    0  0.45613962070E+01 -0.71292106529E+01  0.19351250863E+02  0.21121147929E+02  0.00000000000E+00 0.  1.
</event>
<event>
 7    1  0.5764931E-013  0.5052886E+02  0.7816164E-02  0.1300439E+00
        -11   -1    0    0    0    0  0.00000000000E+00  0.00000000000E+00  0.45593999997E+02  0.45594000000E+02  0.51100000000E-03 0.  1.
         11   -1    0    0    0    0 -0.00000000000E+00 -0.00000000000E+00 -0.45593999997E+02  0.45594000000E+02  0.51100000000E-03 0. -1.
    9900012    2    1    2    0    0  0.63495389332E+01 -0.22697455459E+02  0.33131166803E+02  0.50528863970E+02  0.30000012524E+02 0.  0.
         12    1    1    2    0    0 -0.63495389332E+01  0.22697455459E+02 -0.33131166803E+02  0.40659136030E+02  0.00000000000E+00 0. -1.
         11    1    3    3    0    0 -0.13150648704E+01  0.66952517848E+01  0.32105479674E+01  0.75407831547E+01  0.51100000000E-03 0. -1.
        -11    1    3    3    0    0  0.59589293081E+01 -0.27807821275E+02  0.26658354709E+02  0.38980144158E+02  0.51100000000E-03 0.  1.
         12    1    3    3    0    0  0.17056744955E+01 -0.15848859687E+01  0.32622641263E+01  0.40079366572E+01  0.00000000000E+00 0. -1.
</event>
<event>
 7    1  0.5764931E-013  0.5052886E+02  0.7816164E-02  0.1300439E+00
        -11   -1    0    0    0    0  0.00000000000E+00  0.00000000000E+00  0.45593999997E+02  0.45594000000E+02  0.51100000000E-03 0.  1.
         11   -1    0    0    0    0 -0.00000000000E+00 -0.00000000000E+00 -0.45593999997E+02  0.45594000000E+02  0.51100000000E-03 0. -1.
    9900012    2    1    2    0    0  0.37275837298E+02 -0.11209443035E+02 -0.11748455134E+02  0.50528857640E+02  0.29999993282E+02 0.  0.
         12    1    1    2    0    0 -0.37275837298E+02  0.11209443035E+02  0.11748455134E+02  0.40659142360E+02  0.00000000000E+00 0. -1.
         11    1    3    3    0    0  0.31844683060E+02 -0.53262100537E+01 -0.81505554728E+01  0.33299908521E+02  0.51100000000E-03 0.  1.
        -11    1    3    3    0    0  0.67092329559E+01 -0.10274218014E+02 -0.24330222843E+01  0.12509714639E+02  0.51100000000E-03 0. -1.
        -12    1    3    3    0    0 -0.12780787179E+01  0.43909850333E+01 -0.11648773772E+01  0.47192344798E+01  0.00000000000E+00 0.  1.
</event>
<event>
 7    1  0.5764931E-013  0.5052887E+02  0.7816164E-02  0.1300439E+00
        -11   -1    0    0    0    0  0.00000000000E+00  0.00000000000E+00  0.45593999997E+02  0.45594000000E+02  0.51100000000E-03 0.  1.
         11   -1    0    0    0    0 -0.00000000000E+00 -0.00000000000E+00 -0.45593999997E+02  0.45594000000E+02  0.51100000000E-03 0. -1.
    9900012    2    1    2    0    0 -0.16519585203E+02 -0.28006843630E+02  0.24410760961E+02  0.50528865281E+02  0.30000016509E+02 0.  0.
         12    1    1    2    0    0  0.16519585203E+02  0.28006843630E+02 -0.24410760961E+02  0.40659134719E+02  0.00000000000E+00 0. -1.
         11    1    3    3    0    0  0.40628427709E+00 -0.29933980561E+01 -0.53600904065E+01  0.61527285218E+01  0.51100000000E-03 0. -1.
        -11    1    3    3    0    0 -0.13300378216E+02 -0.25932029420E+02  0.25829373708E+02  0.38942608502E+02  0.51100000000E-03 0.  1.
         12    1    3    3    0    0 -0.36254912640E+01  0.91858384588E+00  0.39414776594E+01  0.54335282577E+01  0.00000000000E+00 0. -1.
</event>
<event>
 7    1  0.5764931E-013  0.5052887E+02  0.7816164E-02  0.1300439E+00
        -11   -1    0    0    0    0  0.00000000000E+00  0.00000000000E+00  0.45593999997E+02  0.45594000000E+02  0.51100000000E-03 0.  1.
         11   -1    0    0    0    0 -0.00000000000E+00 -0.00000000000E+00 -0.45593999997E+02  0.45594000000E+02  0.51100000000E-03 0. -1.
    9900012    2    1    2    0    0 -0.17498850836E+01 -0.61699600674E+01  0.40150151527E+02  0.50528866061E+02  0.30000018878E+02 0.  0.
         12    1    1    2    0    0  0.17498850836E+01  0.61699600674E+01 -0.40150151527E+02  0.40659133939E+02  0.00000000000E+00 0. -1.
         11    1    3    3    0    0 -0.94979106581E+01  0.40954477650E+01  0.33145572047E+02  0.34721923130E+02  0.51100000000E-03 0. -1.
        -11    1    3    3    0    0  0.80600793085E+01 -0.64733175828E+01  0.55511949017E+01  0.11733903191E+02  0.51100000000E-03 0.  1.
         12    1    3    3    0    0 -0.31205373394E+00 -0.37920902495E+01  0.14533845785E+01  0.40730397403E+01  0.00000000000E+00 0. -1.
</event>
<event>
 7    1  0.5764931E-013  0.5052886E+02  0.7816164E-02  0.1300439E+00
        -11   -1    0    0    0    0  0.00000000000E+00  0.00000000000E+00  0.45593999997E+02  0.45594000000E+02  0.51100000000E-03 0.  1.
         11   -1    0    0    0    0 -0.00000000000E+00 -0.00000000000E+00 -0.45593999997E+02  0.45594000000E+02  0.51100000000E-03 0. -1.
    9900012    2    1    2    0    0 -0.81885194695E+01 -0.39203817861E+02  0.70124413220E+01  0.50528861799E+02  0.30000005923E+02 0.  0.
         12    1    1    2    0    0  0.81885194695E+01  0.39203817861E+02 -0.70124413220E+01  0.40659138201E+02  0.00000000000E+00 0. -1.
         11    1    3    3    0    0 -0.12325232154E+01 -0.29576587958E+02 -0.32909523026E+01  0.29784627512E+02  0.51100000000E-03 0. -1.
        -11    1    3    3    0    0 -0.62262272642E+01 -0.85021963486E+01  0.13588512972E+02  0.17195956901E+02  0.51100000000E-03 0.  1.
         12    1    3    3    0    0 -0.72976898987E+00 -0.11250335542E+01 -0.32851193474E+01  0.35482773853E+01  0.00000000000E+00 0. -1.
</event>
<event>
 7    1  0.5764931E-013  0.5052886E+02  0.7816164E-02  0.1300439E+00
        -11   -1    0    0    0    0  0.00000000000E+00  0.00000000000E+00  0.45593999997E+02  0.45594000000E+02  0.51100000000E-03 0.  1.
         11   -1    0    0    0    0 -0.00000000000E+00 -0.00000000000E+00 -0.45593999997E+02  0.45594000000E+02  0.51100000000E-03 0. -1.
    9900012    2    1    2    0    0  0.76714646357E+01  0.39399813865E+02  0.64783192239E+01  0.50528864222E+02  0.30000013290E+02 0.  0.
         12    1    1    2    0    0 -0.76714646357E+01 -0.39399813865E+02 -0.64783192239E+01  0.40659135778E+02  0.00000000000E+00 0. -1.
         11    1    3    3    0    0  0.11676707279E+02  0.13688145392E+02 -0.76323655318E+01  0.19543894725E+02  0.51100000000E-03 0. -1.
        -11    1    3    3    0    0 -0.57700138714E+01  0.16151034802E+02  0.55370350272E+01  0.18022423322E+02  0.51100000000E-03 0.  1.
         12    1    3    3    0    0  0.17647712282E+01  0.95606336713E+01  0.85736497285E+01  0.12962546176E+02  0.00000000000E+00 0. -1.
</event>
<event>
 7    1  0.5764931E-013  0.5052886E+02  0.7816164E-02  0.1300439E+00
        -11   -1    0    0    0    0  0.00000000000E+00  0.00000000000E+00  0.45593999997E+02  0.45594000000E+02  0.51100000000E-03 0. -1.
         11   -1    0    0    0    0 -0.00000000000E+00 -0.00000000000E+00 -0.45593999997E+02  0.45594000000E+02  0.51100000000E-03 0.  1.
    9900012    2    1    2    0    0  0.39406157638E+02 -0.82039562211E+01  0.57459314675E+01  0.50528857291E+02  0.29999992220E+02 0.  0.
         12    1    1    2    0    0 -0.39406157638E+02  0.82039562211E+01 -0.57459314675E+01  0.40659142709E+02  0.00000000000E+00 0. -1.
         11    1    3    3    0    0  0.39408351303E+01 -0.17700635590E+01  0.84792405458E+01  0.95163452555E+01  0.51100000000E-03 0. -1.
        -11    1    3    3    0    0  0.32400448466E+02 -0.65194544120E-01 -0.64360143507E+01  0.33033552520E+02  0.51100000000E-03 0.  1.
        -12    1    3    3    0    0  0.30648740417E+01 -0.63686981180E+01  0.37027052724E+01  0.79789595151E+01  0.00000000000E+00 0.  1.
</event>
<event>
 7    1  0.5764931E-013  0.5052886E+02  0.7816164E-02  0.1300439E+00
        -11   -1    0    0    0    0  0.00000000000E+00  0.00000000000E+00  0.45593999997E+02  0.45594000000E+02  0.51100000000E-03 0. -1.
         11   -1    0    0    0    0 -0.00000000000E+00 -0.00000000000E+00 -0.45593999997E+02  0.45594000000E+02  0.51100000000E-03 0.  1.
    9900012    2    1    2    0    0  0.24201917134E+02  0.15069162392E+02 -0.28988846801E+02  0.50528859736E+02  0.29999999654E+02 0.  0.
         12    1    1    2    0    0 -0.24201917134E+02 -0.15069162392E+02  0.28988846801E+02  0.40659140264E+02  0.00000000000E+00 0. -1.
         11    1    3    3    0    0  0.20081378857E+00  0.31187895763E+00  0.52584961010E+00  0.64351591702E+00  0.51100000000E-03 0. -1.
        -11    1    3    3    0    0  0.60512141039E+01  0.15157735307E+02 -0.12090803460E+01  0.16365696054E+02  0.51100000000E-03 0.  1.
        -12    1    3    3    0    0  0.17949889241E+02 -0.40045187328E+00 -0.28305616065E+02  0.33519647765E+02  0.00000000000E+00 0.  1.
</event>
<event>
 7    1  0.5764931E-013  0.5052887E+02  0.7816164E-02  0.1300439E+00
        -11   -1    0    0    0    0  0.00000000000E+00  0.00000000000E+00  0.45593999997E+02  0.45594000000E+02  0.51100000000E-03 0. -1.
         11   -1    0    0    0    0 -0.00000000000E+00 -0.00000000000E+00 -0.45593999997E+02  0.45594000000E+02  0.51100000000E-03 0.  1.
    9900012    2    1    2    0    0  0.37429296062E+02 -0.15486723001E+02  0.35176809963E+01  0.50528869751E+02  0.30000030095E+02 0.  0.
         12    1    1    2    0    0 -0.37429296062E+02  0.15486723001E+02 -0.35176809963E+01  0.40659130249E+02  0.00000000000E+00 0. -1.
         11    1    3    3    0    0  0.34270677540E+01 -0.80765893199E+01  0.10457204008E+02  0.13650245579E+02  0.51100000000E-03 0. -1.
        -11    1    3    3    0    0  0.23504660297E+02 -0.48741912534E+01  0.67964300257E-01  0.24004820671E+02  0.51100000000E-03 0.  1.
         12    1    3    3    0    0  0.10497568011E+02 -0.25359424278E+01 -0.70074873121E+01  0.12873803501E+02  0.00000000000E+00 0. -1.
</event>
<event>
 7    1  0.5764931E-013  0.5052886E+02  0.7816164E-02  0.1300439E+00
        -11   -1    0    0    0    0  0.00000000000E+00  0.00000000000E+00  0.45593999997E+02  0.45594000000E+02  0.51100000000E-03 0.  1.
         11   -1    0    0    0    0 -0.00000000000E+00 -0.00000000000E+00 -0.45593999997E+02  0.45594000000E+02  0.51100000000E-03 0. -1.
    9900012    2    1    2    0    0  0.37171326388E+02 -0.90972832511E+01  0.13736736292E+02  0.50528855986E+02  0.29999988254E+02 0.  0.
         12    1    1    2    0    0 -0.37171326388E+02  0.90972832511E+01 -0.13736736292E+02  0.40659144014E+02  0.00000000000E+00 0. -1.
         11    1    3    3    0    0 -0.16868278763E+01  0.11875221111E+01 -0.21708867194E+01  0.29947197628E+01  0.51100000000E-03 0. -1.
        -11    1    3    3    0    0  0.23949569684E+02  0.20207362066E+01  0.28429394601E+01  0.24202222375E+02  0.51100000000E-03 0.  1.
         12    1    3    3    0    0  0.14908584581E+02 -0.12305541569E+02  0.13064683551E+02  0.23331913848E+02  0.00000000000E+00 0. -1.
</event>
<event>
 7    1  0.5764931E-013  0.5052886E+02  0.7816164E-02  0.1300439E+00
        -11   -1    0    0    0    0  0.00000000000E+00  0.00000000000E+00  0.45593999997E+02  0.45594000000E+02  0.51100000000E-03 0.  1.
         11   -1    0    0    0    0 -0.00000000000E+00 -0.00000000000E+00 -0.45593999997E+02  0.45594000000E+02  0.51100000000E-03 0. -1.
    9900012    2    1    2    0    0 -0.20127967207E+02  0.44159086060E+01  0.35050400699E+02  0.50528857094E+02  0.29999991624E+02 0.  0.
         12    1    1    2    0    0  0.20127967207E+02 -0.44159086060E+01 -0.35050400699E+02  0.40659142906E+02  0.00000000000E+00 0. -1.
         11    1    3    3    0    0 -0.18824591128E+00 -0.61065763294E+01  0.31204680946E+01  0.68602501689E+01  0.51100000000E-03 0. -1.
        -11    1    3    3    0    0 -0.23744538727E+02  0.10425441011E+02  0.28659255134E+02  0.38650302000E+02  0.51100000000E-03 0.  1.
        -12    1    3    3    0    0  0.38048174315E+01  0.97043924873E-01  0.32706774701E+01  0.50183049253E+01  0.00000000000E+00 0.  1.
</event>
<event>
 7    1  0.5764931E-013  0.5052887E+02  0.7816164E-02  0.1300439E+00
        -11   -1    0    0    0    0  0.00000000000E+00  0.00000000000E+00  0.45593999997E+02  0.45594000000E+02  0.51100000000E-03 0. -1.
         11   -1    0    0    0    0 -0.00000000000E+00 -0.00000000000E+00 -0.45593999997E+02  0.45594000000E+02  0.51100000000E-03 0.  1.
    9900012    2    1    2    0    0  0.35256621470E+02  0.19044734344E+02 -0.68872251964E+01  0.50528866529E+02  0.30000020301E+02 0.  0.
         12    1    1    2    0    0 -0.35256621470E+02 -0.19044734344E+02  0.68872251964E+01  0.40659133471E+02  0.00000000000E+00 0. -1.
         11    1    3    3    0    0 -0.44226553942E+01  0.11157054235E+01 -0.14662389637E+00  0.45635707681E+01  0.51100000000E-03 0. -1.
        -11    1    3    3    0    0  0.40470969114E+02  0.17903702457E+02 -0.56442958126E+01  0.44612778193E+02  0.51100000000E-03 0.  1.
        -12    1    3    3    0    0 -0.79169224949E+00  0.25326464080E-01 -0.10963054874E+01  0.13525175672E+01  0.00000000000E+00 0.  1.
</event>
<event>
 7    1  0.5764931E-013  0.5052885E+02  0.7816164E-02  0.1300439E+00
        -11   -1    0    0    0    0  0.00000000000E+00  0.00000000000E+00  0.45593999997E+02  0.45594000000E+02  0.51100000000E-03 0.  1.
         11   -1    0    0    0    0 -0.00000000000E+00 -0.00000000000E+00 -0.45593999997E+02  0.45594000000E+02  0.51100000000E-03 0. -1.
    9900012    2    1    2    0    0  0.16381902637E+02  0.28920339718E+02  0.23418227413E+02  0.50528853937E+02  0.29999982026E+02 0.  0.
         12    1    1    2    0    0 -0.16381902637E+02 -0.28920339718E+02 -0.23418227413E+02  0.40659146063E+02  0.00000000000E+00 0. -1.
         11    1    3    3    0    0  0.86625178436E+01  0.31005919142E+01 -0.20621434440E+01  0.94289618439E+01  0.51100000000E-03 0. -1.
        -11    1    3    3    0    0  0.37069567301E+01  0.81046576692E+01  0.20364694653E+02  0.22229435276E+02  0.51100000000E-03 0.  1.
        -12    1    3    3    0    0  0.40124280632E+01  0.17715090135E+02  0.51156762045E+01  0.18870456817E+02  0.00000000000E+00 0.  1.
</event>
<event>
 7    1  0.5764931E-013  0.5052885E+02  0.7816164E-02  0.1300439E+00
        -11   -1    0    0    0    0  0.00000000000E+00  0.00000000000E+00  0.45593999997E+02  0.45594000000E+02  0.51100000000E-03 0. -1.
         11   -1    0    0    0    0 -0.00000000000E+00 -0.00000000000E+00 -0.45593999997E+02  0.45594000000E+02  0.51100000000E-03 0.  1.
    9900012    2    1    2    0    0  0.25407312822E+01  0.38287207368E+02 -0.13446224183E+02  0.50528849637E+02  0.29999968956E+02 0.  0.
         12    1    1    2    0    0 -0.25407312822E+01 -0.38287207368E+02  0.13446224183E+02  0.40659150363E+02  0.00000000000E+00 0. -1.
         11    1    3    3    0    0  0.77081280286E+01  0.64839336287E+01 -0.12594973331E+02  0.16127305617E+02  0.51100000000E-03 0. -1.
        -11    1    3    3    0    0 -0.84262173962E+01  0.15240814337E+02  0.85163516106E+00  0.17435849390E+02  0.51100000000E-03 0.  1.
         12    1    3    3    0    0  0.32588206498E+01  0.16562459403E+02 -0.17028860129E+01  0.16965694630E+02  0.00000000000E+00 0. -1.
</event>
<event>
 7    1  0.5764931E-013  0.5052886E+02  0.7816164E-02  0.1300439E+00
        -11   -1    0    0    0    0  0.00000000000E+00  0.00000000000E+00  0.45593999997E+02  0.45594000000E+02  0.51100000000E-03 0.  1.
         11   -1    0    0    0    0 -0.00000000000E+00 -0.00000000000E+00 -0.45593999997E+02  0.45594000000E+02  0.51100000000E-03 0. -1.
    9900012    2    1    2    0    0  0.13870348104E+02  0.24696463518E+02  0.29169575114E+02  0.50528856143E+02  0.29999988733E+02 0.  0.
         12    1    1    2    0    0 -0.13870348104E+02 -0.24696463518E+02 -0.29169575114E+02  0.40659143857E+02  0.00000000000E+00 0. -1.
         11    1    3    3    0    0  0.33583653800E+01  0.52531823080E+01  0.41311371743E-01  0.62350821388E+01  0.51100000000E-03 0. -1.
        -11    1    3    3    0    0  0.77727207938E+01  0.29245205787E-02  0.22123460441E+02  0.23449151354E+02  0.51100000000E-03 0.  1.
        -12    1    3    3    0    0  0.27392619301E+01  0.19440356689E+02  0.70048033014E+01  0.20844622650E+02  0.00000000000E+00 0.  1.
</event>
<event>
 7    1  0.5764931E-013  0.5052886E+02  0.7816164E-02  0.1300439E+00
        -11   -1    0    0    0    0  0.00000000000E+00  0.00000000000E+00  0.45593999997E+02  0.45594000000E+02  0.51100000000E-03 0.  1.
         11   -1    0    0    0    0 -0.00000000000E+00 -0.00000000000E+00 -0.45593999997E+02  0.45594000000E+02  0.51100000000E-03 0. -1.
    9900012    2    1    2    0    0  0.38020844229E+02 -0.67278972022E+00  0.14391967765E+02  0.50528856157E+02  0.29999988776E+02 0.  0.
         12    1    1    2    0    0 -0.38020844229E+02  0.67278972022E+00 -0.14391967765E+02  0.40659143843E+02  0.00000000000E+00 0. -1.
         11    1    3    3    0    0  0.17895817993E+02 -0.13489047707E+02  0.70582895229E+01  0.23495407231E+02  0.51100000000E-03 0. -1.
        -11    1    3    3    0    0  0.13169654929E+02  0.13682216596E+02  0.48834045589E+01  0.19608429368E+02  0.51100000000E-03 0.  1.
         12    1    3    3    0    0  0.69553713065E+01 -0.86595860900E+00  0.24502736836E+01  0.74250195588E+01  0.00000000000E+00 0. -1.
</event>
<event>
 7    1  0.5764931E-013  0.5052887E+02  0.7816164E-02  0.1300439E+00
        -11   -1    0    0    0    0  0.00000000000E+00  0.00000000000E+00  0.45593999997E+02  0.45594000000E+02  0.51100000000E-03 0. -1.
         11   -1    0    0    0    0 -0.00000000000E+00 -0.00000000000E+00 -0.45593999997E+02  0.45594000000E+02  0.51100000000E-03 0.  1.
    9900012    2    1    2    0    0 -0.10287964541E+02 -0.37280935606E+02 -0.12548101306E+02  0.50528865474E+02  0.30000017094E+02 0.  0.
         12    1    1    2    0    0  0.10287964541E+02  0.37280935606E+02  0.12548101306E+02  0.40659134526E+02  0.00000000000E+00 0. -1.
         11    1    3    3    0    0  0.28517688551E-03  0.26912237667E+01 -0.22994148486E+00  0.27010292096E+01  0.51100000000E-03 0. -1.
        -11    1    3    3    0    0 -0.87052952255E+01 -0.42410907046E+02 -0.11277892643E+02  0.44739893431E+02  0.51100000000E-03 0.  1.
        -12    1    3    3    0    0 -0.15829544921E+01  0.24387476738E+01 -0.10402671783E+01  0.30879428335E+01  0.00000000000E+00 0.  1.
</event>
<event>
 7    1  0.5764931E-013  0.5052887E+02  0.7816164E-02  0.1300439E+00
        -11   -1    0    0    0    0  0.00000000000E+00  0.00000000000E+00  0.45593999997E+02  0.45594000000E+02  0.51100000000E-03 0.  1.
         11   -1    0    0    0    0 -0.00000000000E+00 -0.00000000000E+00 -0.45593999997E+02  0.45594000000E+02  0.51100000000E-03 0. -1.
    9900012    2    1    2    0    0  0.14574639382E+02 -0.35276024603E+02  0.14012384297E+02  0.50528868939E+02  0.30000027627E+02 0.  0.
         12    1    1    2    0    0 -0.14574639382E+02  0.35276024603E+02 -0.14012384297E+02  0.40659131061E+02  0.00000000000E+00 0. -1.
         11    1    3    3    0    0  0.15291872670E+02 -0.12500705004E+02 -0.11559793804E+01  0.19784976218E+02  0.51100000000E-03 0. -1.
        -11    1    3    3    0    0  0.55356027169E+01 -0.17296397823E+02  0.12364432310E+02  0.21970149332E+02  0.51100000000E-03 0.  1.
         12    1    3    3    0    0 -0.62528360050E+01 -0.54789217768E+01  0.28039313680E+01  0.87737433892E+01  0.00000000000E+00 0. -1.
</event>
<event>
 7    1  0.5764931E-013  0.5052886E+02  0.7816164E-02  0.1300439E+00
        -11   -1    0    0    0    0  0.00000000000E+00  0.00000000000E+00  0.45593999997E+02  0.45594000000E+02  0.51100000000E-03 0.  1.
         11   -1    0    0    0    0 -0.00000000000E+00 -0.00000000000E+00 -0.45593999997E+02  0.45594000000E+02  0.51100000000E-03 0. -1.
    9900012    2    1    2    0    0  0.71579408216E+01 -0.37452106004E+02  0.14116280953E+02  0.50528858975E+02  0.29999997341E+02 0.  0.
         12    1    1    2    0    0 -0.71579408216E+01  0.37452106004E+02 -0.14116280953E+02  0.40659141025E+02  0.00000000000E+00 0. -1.
         11    1    3    3    0    0  0.54094484112E+01 -0.56999548315E+01 -0.27829574142E+01  0.83364542478E+01  0.51100000000E-03 0. -1.
        -11    1    3    3    0    0 -0.96037753567E+01 -0.20134511721E+02  0.82054191096E+01  0.23768886519E+02  0.51100000000E-03 0.  1.
        -12    1    3    3    0    0  0.11352267767E+02 -0.11617639451E+02  0.86938192572E+01  0.18423518208E+02  0.00000000000E+00 0.  1.
</event>
<event>
 7    1  0.5764931E-013  0.5052885E+02  0.7816164E-02  0.1300439E+00
        -11   -1    0    0    0    0  0.00000000000E+00  0.00000000000E+00  0.45593999997E+02  0.45594000000E+02  0.51100000000E-03 0. -1.
         11   -1    0    0    0    0 -0.00000000000E+00 -0.00000000000E+00 -0.45593999997E+02  0.45594000000E+02  0.51100000000E-03 0.  1.
    9900012    2    1    2    0    0  0.35478701026E+02 -0.73958163120E+00 -0.19846436433E+02  0.50528852855E+02  0.29999978737E+02 0.  0.
         12    1    1    2    0    0 -0.35478701026E+02  0.73958163120E+00  0.19846436433E+02  0.40659147145E+02  0.00000000000E+00 0. -1.
         11    1    3    3    0    0  0.21219088380E+01 -0.74496137717E+01  0.48798782298E+00  0.77612740476E+01  0.51100000000E-03 0. -1.
        -11    1    3    3    0    0  0.25011278102E+02  0.11065450345E+02 -0.10905407000E+02  0.29443779067E+02  0.51100000000E-03 0.  1.
         12    1    3    3    0    0  0.83455140860E+01 -0.43554182048E+01 -0.94290172559E+01  0.13323799740E+02  0.00000000000E+00 0. -1.
</event>
<event>
 7    1  0.5764931E-013  0.5052888E+02  0.7816164E-02  0.1300439E+00
        -11   -1    0    0    0    0  0.00000000000E+00  0.00000000000E+00  0.45593999997E+02  0.45594000000E+02  0.51100000000E-03 0. -1.
         11   -1    0    0    0    0 -0.00000000000E+00 -0.00000000000E+00 -0.45593999997E+02  0.45594000000E+02  0.51100000000E-03 0.  1.
    9900012    2    1    2    0    0  0.11249361194E+02 -0.35386117558E+02 -0.16566197541E+02  0.50528876250E+02  0.30000049851E+02 0.  0.
         12    1    1    2    0    0 -0.11249361194E+02  0.35386117558E+02  0.16566197541E+02  0.40659123750E+02  0.00000000000E+00 0. -1.
         11    1    3    3    0    0  0.12213572981E+02 -0.11715886103E+02  0.26509882482E+01  0.17130706088E+02  0.51100000000E-03 0. -1.
        -11    1    3    3    0    0 -0.31775808968E+01 -0.11547081911E+02 -0.17126496325E+02  0.20898540562E+02  0.51100000000E-03 0.  1.
        -12    1    3    3    0    0  0.22133691099E+01 -0.12123149544E+02 -0.20906894642E+01  0.12499629600E+02  0.00000000000E+00 0.  1.
</event>
<event>
 7    1  0.5764931E-013  0.5052887E+02  0.7816164E-02  0.1300439E+00
        -11   -1    0    0    0    0  0.00000000000E+00  0.00000000000E+00  0.45593999997E+02  0.45594000000E+02  0.51100000000E-03 0. -1.
         11   -1    0    0    0    0 -0.00000000000E+00 -0.00000000000E+00 -0.45593999997E+02  0.45594000000E+02  0.51100000000E-03 0.  1.
    9900012    2    1    2    0    0 -0.24188555228E+01  0.38358220298E+02  0.13265040417E+02  0.50528865433E+02  0.30000016969E+02 0.  0.
         12    1    1    2    0    0  0.24188555228E+01 -0.38358220298E+02 -0.13265040417E+02  0.40659134567E+02  0.00000000000E+00 0. -1.
         11    1    3    3    0    0 -0.22234460266E+01  0.24177301505E+02 -0.58640829494E+01  0.24977451619E+02  0.51100000000E-03 0.  1.
        -11    1    3    3    0    0 -0.35603956055E+00  0.81686785354E+01  0.17506805365E+02  0.19322067890E+02  0.51100000000E-03 0. -1.
        -12    1    3    3    0    0  0.16063006435E+00  0.60122402580E+01  0.16223180017E+01  0.62293459237E+01  0.00000000000E+00 0.  1.
</event>
<event>
 7    1  0.5764931E-013  0.5052885E+02  0.7816164E-02  0.1300439E+00
        -11   -1    0    0    0    0  0.00000000000E+00  0.00000000000E+00  0.45593999997E+02  0.45594000000E+02  0.51100000000E-03 0.  1.
         11   -1    0    0    0    0 -0.00000000000E+00 -0.00000000000E+00 -0.45593999997E+02  0.45594000000E+02  0.51100000000E-03 0. -1.
    9900012    2    1    2    0    0  0.37199951418E+02  0.16269054594E+02  0.21558386169E+01  0.50528853882E+02  0.29999981861E+02 0.  0.
         12    1    1    2    0    0 -0.37199951418E+02 -0.16269054594E+02 -0.21558386169E+01  0.40659146118E+02  0.00000000000E+00 0. -1.
         11    1    3    3    0    0  0.23307039864E+02  0.16191470435E+02 -0.63096943863E-01  0.28379319998E+02  0.51100000000E-03 0. -1.
        -11    1    3    3    0    0  0.16995303486E+01 -0.73846134523E+01  0.20616623278E+01  0.78531121895E+01  0.51100000000E-03 0.  1.
        -12    1    3    3    0    0  0.12193381205E+02  0.74621976114E+01  0.15727323301E+00  0.14296421695E+02  0.00000000000E+00 0.  1.
</event>
<event>
 7    1  0.5764931E-013  0.5052888E+02  0.7816164E-02  0.1300439E+00
        -11   -1    0    0    0    0  0.00000000000E+00  0.00000000000E+00  0.45593999997E+02  0.45594000000E+02  0.51100000000E-03 0. -1.
         11   -1    0    0    0    0 -0.00000000000E+00 -0.00000000000E+00 -0.45593999997E+02  0.45594000000E+02  0.51100000000E-03 0.  1.
    9900012    2    1    2    0    0  0.23417185210E+02 -0.33001485223E+02 -0.39625100142E+01  0.50528879551E+02  0.30000059883E+02 0.  0.
         12    1    1    2    0    0 -0.23417185210E+02  0.33001485223E+02  0.39625100142E+01  0.40659120449E+02  0.00000000000E+00 0. -1.
         11    1    3    3    0    0  0.12470794060E+02 -0.24379982437E+02  0.10922377614E+02  0.29482241793E+02  0.51100000000E-03 0. -1.
        -11    1    3    3    0    0  0.38019699952E+01 -0.48787989708E+01 -0.35390101413E+01  0.71261664507E+01  0.51100000000E-03 0.  1.
         12    1    3    3    0    0  0.71444211545E+01 -0.37427038149E+01 -0.11345877487E+02  0.13920471308E+02  0.00000000000E+00 0. -1.
</event>
<event>
 7    1  0.5764931E-013  0.5052886E+02  0.7816164E-02  0.1300439E+00
        -11   -1    0    0    0    0  0.00000000000E+00  0.00000000000E+00  0.45593999997E+02  0.45594000000E+02  0.51100000000E-03 0. -1.
         11   -1    0    0    0    0 -0.00000000000E+00 -0.00000000000E+00 -0.45593999997E+02  0.45594000000E+02  0.51100000000E-03 0.  1.
    9900012    2    1    2    0    0  0.76984417478E+01  0.34908934322E+02 -0.19371787178E+02  0.50528857863E+02  0.29999993961E+02 0.  0.
         12    1    1    2    0    0 -0.76984417478E+01 -0.34908934322E+02  0.19371787178E+02  0.40659142137E+02  0.00000000000E+00 0. -1.
         11    1    3    3    0    0 -0.70675803354E+01  0.16568986774E+02  0.24744898371E+01  0.18182549731E+02  0.51100000000E-03 0. -1.
        -11    1    3    3    0    0  0.67655361426E+01  0.10651878402E+02 -0.98722876623E+01  0.16021768215E+02  0.51100000000E-03 0.  1.
         12    1    3    3    0    0  0.80004859407E+01  0.76880691464E+01 -0.11973989353E+02  0.16324539917E+02  0.00000000000E+00 0. -1.
</event>
<event>
 7    1  0.5764931E-013  0.5052886E+02  0.7816164E-02  0.1300439E+00
        -11   -1    0    0    0    0  0.00000000000E+00  0.00000000000E+00  0.45593999997E+02  0.45594000000E+02  0.51100000000E-03 0. -1.
         11   -1    0    0    0    0 -0.00000000000E+00 -0.00000000000E+00 -0.45593999997E+02  0.45594000000E+02  0.51100000000E-03 0.  1.
    9900012    2    1    2    0    0  0.26569968692E+02  0.30124313519E+02 -0.63030527529E+01  0.50528856191E+02  0.29999988878E+02 0.  0.
         12    1    1    2    0    0 -0.26569968692E+02 -0.30124313519E+02  0.63030527529E+01  0.40659143809E+02  0.00000000000E+00 0. -1.
         11    1    3    3    0    0  0.14081687089E+02  0.43690779679E+01 -0.91530431119E+01  0.17353989514E+02  0.51100000000E-03 0. -1.
        -11    1    3    3    0    0  0.44197400400E-01  0.17601304344E+02 -0.15251972728E+01  0.17667317142E+02  0.51100000000E-03 0.  1.
         12    1    3    3    0    0  0.12444084203E+02  0.81539312066E+01  0.43751876318E+01  0.15507549535E+02  0.00000000000E+00 0. -1.
</event>
<event>
 7    1  0.5764931E-013  0.5052885E+02  0.7816164E-02  0.1300439E+00
        -11   -1    0    0    0    0  0.00000000000E+00  0.00000000000E+00  0.45593999997E+02  0.45594000000E+02  0.51100000000E-03 0.  1.
         11   -1    0    0    0    0 -0.00000000000E+00 -0.00000000000E+00 -0.45593999997E+02  0.45594000000E+02  0.51100000000E-03 0. -1.
    9900012    2    1    2    0    0  0.54367818659E+01 -0.23830481326E+02  0.32491780369E+02  0.50528853073E+02  0.29999979401E+02 0.  0.
         12    1    1    2    0    0 -0.54367818659E+01  0.23830481326E+02 -0.32491780369E+02  0.40659146927E+02  0.00000000000E+00 0. -1.
         11    1    3    3    0    0 -0.94518094748E+01 -0.61115600534E+00  0.43050492908E+01  0.10404021514E+02  0.51100000000E-03 0. -1.
        -11    1    3    3    0    0  0.62887564347E+01 -0.16137827166E+02  0.18746092021E+02  0.25522419350E+02  0.51100000000E-03 0.  1.
         12    1    3    3    0    0  0.85998349060E+01 -0.70814981545E+01  0.94406390570E+01  0.14602412209E+02  0.00000000000E+00 0. -1.
</event>
<event>
 7    1  0.5764931E-013  0.5052886E+02  0.7816164E-02  0.1300439E+00
        -11   -1    0    0    0    0  0.00000000000E+00  0.00000000000E+00  0.45593999997E+02  0.45594000000E+02  0.51100000000E-03 0.  1.
         11   -1    0    0    0    0 -0.00000000000E+00 -0.00000000000E+00 -0.45593999997E+02  0.45594000000E+02  0.51100000000E-03 0. -1.
    9900012    2    1    2    0    0  0.21472688409E+02  0.17396703545E+01  0.34482792091E+02  0.50528858951E+02  0.29999997268E+02 0.  0.
         12    1    1    2    0    0 -0.21472688409E+02 -0.17396703545E+01 -0.34482792091E+02  0.40659141049E+02  0.00000000000E+00 0. -1.
         11    1    3    3    0    0  0.23052267078E+02 -0.40453958029E+01  0.20900599456E+02  0.31378452838E+02  0.51100000000E-03 0.  1.
        -11    1    3    3    0    0  0.42178309960E+01  0.41273562039E+01  0.22534092038E+01  0.63168837923E+01  0.51100000000E-03 0. -1.
         12    1    3    3    0    0 -0.57974096655E+01  0.16577099535E+01  0.11328783431E+02  0.12833522320E+02  0.00000000000E+00 0. -1.
</event>
<event>
 7    1  0.5764931E-013  0.5052886E+02  0.7816164E-02  0.1300439E+00
        -11   -1    0    0    0    0  0.00000000000E+00  0.00000000000E+00  0.45593999997E+02  0.45594000000E+02  0.51100000000E-03 0.  1.
         11   -1    0    0    0    0 -0.00000000000E+00 -0.00000000000E+00 -0.45593999997E+02  0.45594000000E+02  0.51100000000E-03 0. -1.
    9900012    2    1    2    0    0  0.20762996076E+02  0.18538237180E+02  0.29637773830E+02  0.50528857346E+02  0.29999992388E+02 0.  0.
         12    1    1    2    0    0 -0.20762996076E+02 -0.18538237180E+02 -0.29637773830E+02  0.40659142654E+02  0.00000000000E+00 0. -1.
         11    1    3    3    0    0 -0.35302238804E+00  0.72812530699E+00 -0.14554898245E+01  0.16653054253E+01  0.51100000000E-03 0. -1.
        -11    1    3    3    0    0  0.69324064748E+01 -0.29516817604E+01  0.20016648922E+02  0.21387774991E+02  0.51100000000E-03 0.  1.
        -12    1    3    3    0    0  0.14183611989E+02  0.20761793633E+02  0.11076614733E+02  0.27475776929E+02  0.00000000000E+00 0.  1.
</event>
<event>
 7    1  0.5784872E-013  0.5052883E+02  0.7816164E-02  0.1300439E+00
        -11   -1    0    0    0    0  0.00000000000E+00  0.00000000000E+00  0.45593999997E+02  0.45594000000E+02  0.51100000000E-03 0.  1.
         11   -1    0    0    0    0 -0.00000000000E+00 -0.00000000000E+00 -0.45593999997E+02  0.45594000000E+02  0.51100000000E-03 0. -1.
    9900012    2    1    2    0    0  0.39478776643E+02  0.12894385075E+01  0.96401102846E+01  0.50528829039E+02  0.29999906347E+02 0.  0.
         12    1    1    2    0    0 -0.39478776643E+02 -0.12894385075E+01 -0.96401102846E+01  0.40659170961E+02  0.00000000000E+00 0. -1.
         11    1    3    3    0    0 -0.11829185437E+01  0.29442502358E+01  0.58632271095E+01  0.66667336928E+01  0.51100000000E-03 0. -1.
        -11    1    3    3    0    0  0.23856325491E+02 -0.83303895609E+01 -0.52632643348E+00  0.25274427312E+02  0.51100000000E-03 0.  1.
        -12    1    3    3    0    0  0.16805369696E+02  0.66755778326E+01  0.43032096086E+01  0.18587668034E+02  0.00000000000E+00 0.  1.
</event>
<event>
 7    1  0.5764931E-013  0.5052887E+02  0.7816164E-02  0.1300439E+00
        -11   -1    0    0    0    0  0.00000000000E+00  0.00000000000E+00  0.45593999997E+02  0.45594000000E+02  0.51100000000E-03 0.  1.
         11   -1    0    0    0    0 -0.00000000000E+00 -0.00000000000E+00 -0.45593999997E+02  0.45594000000E+02  0.51100000000E-03 0. -1.
    9900012    2    1    2    0    0 -0.22759414715E+02  0.29604956454E+02  0.16084799004E+02  0.50528866170E+02  0.30000019211E+02 0.  0.
         12    1    1    2    0    0  0.22759414715E+02 -0.29604956454E+02 -0.16084799004E+02  0.40659133830E+02  0.00000000000E+00 0. -1.
         11    1    3    3    0    0  0.12854821090E+01  0.31430927616E+01 -0.53567211465E+01  0.63423937171E+01  0.51100000000E-03 0. -1.
        -11    1    3    3    0    0 -0.20648014919E+02  0.20325758230E+02  0.97827810287E+01  0.30580709159E+02  0.51100000000E-03 0.  1.
         12    1    3    3    0    0 -0.33968819047E+01  0.61361054622E+01  0.11658739122E+02  0.13605763294E+02  0.00000000000E+00 0. -1.
</event>
<event>
 7    1  0.5764931E-013  0.5052884E+02  0.7816164E-02  0.1300439E+00
        -11   -1    0    0    0    0  0.00000000000E+00  0.00000000000E+00  0.45593999997E+02  0.45594000000E+02  0.51100000000E-03 0.  1.
         11   -1    0    0    0    0 -0.00000000000E+00 -0.00000000000E+00 -0.45593999997E+02  0.45594000000E+02  0.51100000000E-03 0. -1.
    9900012    2    1    2    0    0  0.11553329640E+02  0.38968741114E+02 -0.10605531807E+01  0.50528843800E+02  0.29999951216E+02 0.  0.
         12    1    1    2    0    0 -0.11553329640E+02 -0.38968741114E+02  0.10605531807E+01  0.40659156200E+02  0.00000000000E+00 0. -1.
         11    1    3    3    0    0 -0.30066158350E+00 -0.11630072353E+01  0.17650265436E+01  0.21350180743E+01  0.51100000000E-03 0. -1.
        -11    1    3    3    0    0 -0.47468912671E+00  0.30188565258E+02  0.52017225626E+01  0.30637113441E+02  0.51100000000E-03 0.  1.
        -12    1    3    3    0    0  0.12328680351E+02  0.99431830918E+01 -0.80273022869E+01  0.17756712285E+02  0.00000000000E+00 0.  1.
</event>
<event>
 7    1  0.5764931E-013  0.5052886E+02  0.7816164E-02  0.1300439E+00
        -11   -1    0    0    0    0  0.00000000000E+00  0.00000000000E+00  0.45593999997E+02  0.45594000000E+02  0.51100000000E-03 0. -1.
         11   -1    0    0    0    0 -0.00000000000E+00 -0.00000000000E+00 -0.45593999997E+02  0.45594000000E+02  0.51100000000E-03 0.  1.
    9900012    2    1    2    0    0  0.18426247910E+02  0.34929584075E+02 -0.96728074876E+01  0.50528860063E+02  0.30000000648E+02 0.  0.
         12    1    1    2    0    0 -0.18426247910E+02 -0.34929584075E+02  0.96728074876E+01  0.40659139937E+02  0.00000000000E+00 0. -1.
         11    1    3    3    0    0 -0.54691842713E+00 -0.50768998243E-01  0.97468568792E+00  0.11187983323E+01  0.51100000000E-03 0. -1.
        -11    1    3    3    0    0 -0.48064771702E+01  0.13732934997E+01  0.32453396675E+01  0.59598982913E+01  0.51100000000E-03 0.  1.
        -12    1    3    3    0    0  0.23779643507E+02  0.33607059574E+02 -0.13892832843E+02  0.43450163440E+02  0.00000000000E+00 0.  1.
</event>
<event>
 7    1  0.5764931E-013  0.5052886E+02  0.7816164E-02  0.1300439E+00
        -11   -1    0    0    0    0  0.00000000000E+00  0.00000000000E+00  0.45593999997E+02  0.45594000000E+02  0.51100000000E-03 0.  1.
         11   -1    0    0    0    0 -0.00000000000E+00 -0.00000000000E+00 -0.45593999997E+02  0.45594000000E+02  0.51100000000E-03 0. -1.
    9900012    2    1    2    0    0 -0.28091017232E+01  0.12534019533E+02  0.38576847773E+02  0.50528857335E+02  0.29999992355E+02 0.  0.
         12    1    1    2    0    0  0.28091017232E+01 -0.12534019533E+02 -0.38576847773E+02  0.40659142665E+02  0.00000000000E+00 0. -1.
         11    1    3    3    0    0 -0.32328093124E+01  0.85457919257E+01  0.15590272787E+02  0.18070368605E+02  0.51100000000E-03 0. -1.
        -11    1    3    3    0    0 -0.49568091394E+01  0.25245282148E+00 -0.29052069401E+01  0.57509926880E+01  0.51100000000E-03 0.  1.
        -12    1    3    3    0    0  0.53805167286E+01  0.37357747862E+01  0.25891781926E+02  0.26707496042E+02  0.00000000000E+00 0.  1.
</event>
<event>
 7    1  0.5764931E-013  0.5052887E+02  0.7816164E-02  0.1300439E+00
        -11   -1    0    0    0    0  0.00000000000E+00  0.00000000000E+00  0.45593999997E+02  0.45594000000E+02  0.51100000000E-03 0.  1.
         11   -1    0    0    0    0 -0.00000000000E+00 -0.00000000000E+00 -0.45593999997E+02  0.45594000000E+02  0.51100000000E-03 0. -1.
    9900012    2    1    2    0    0  0.35885475578E+02 -0.96054176151E+01  0.16526742010E+02  0.50528873024E+02  0.30000040043E+02 0.  0.
         12    1    1    2    0    0 -0.35885475578E+02  0.96054176151E+01 -0.16526742010E+02  0.40659126976E+02  0.00000000000E+00 0. -1.
         11    1    3    3    0    0  0.37124246781E+02 -0.51293631871E+01  0.48199923269E+01  0.37785610913E+02  0.51100000000E-03 0. -1.
        -11    1    3    3    0    0 -0.65065817292E+00 -0.54522784250E+00  0.38009574939E+01  0.38945997984E+01  0.51100000000E-03 0.  1.
         12    1    3    3    0    0 -0.58811303030E+00 -0.39308265855E+01  0.79057921893E+01  0.88486623126E+01  0.00000000000E+00 0. -1.
</event>
<event>
 7    1  0.5764931E-013  0.5052886E+02  0.7816164E-02  0.1300439E+00
        -11   -1    0    0    0    0  0.00000000000E+00  0.00000000000E+00  0.45593999997E+02  0.45594000000E+02  0.51100000000E-03 0.  1.
         11   -1    0    0    0    0 -0.00000000000E+00 -0.00000000000E+00 -0.45593999997E+02  0.45594000000E+02  0.51100000000E-03 0. -1.
    9900012    2    1    2    0    0  0.16985593293E+02  0.22089744938E+02  0.29609092072E+02  0.50528861491E+02  0.30000004989E+02 0.  0.
         12    1    1    2    0    0 -0.16985593293E+02 -0.22089744938E+02 -0.29609092072E+02  0.40659138509E+02  0.00000000000E+00 0. -1.
         11    1    3    3    0    0  0.12820684756E+01  0.35007714338E+01 -0.10229556788E+01  0.38659460408E+01  0.51100000000E-03 0. -1.
        -11    1    3    3    0    0  0.57422775176E+01 -0.38407960833E+01  0.17530418330E+02  0.18842532546E+02  0.51100000000E-03 0.  1.
        -12    1    3    3    0    0  0.99612473001E+01  0.22429769587E+02  0.13101629420E+02  0.27820382905E+02  0.00000000000E+00 0.  1.
</event>
<event>
 7    1  0.5764931E-013  0.5052886E+02  0.7816164E-02  0.1300439E+00
        -11   -1    0    0    0    0  0.00000000000E+00  0.00000000000E+00  0.45593999997E+02  0.45594000000E+02  0.51100000000E-03 0.  1.
         11   -1    0    0    0    0 -0.00000000000E+00 -0.00000000000E+00 -0.45593999997E+02  0.45594000000E+02  0.51100000000E-03 0. -1.
    9900012    2    1    2    0    0  0.21780888140E+02 -0.25048236628E+02 -0.23480726238E+02  0.50528858949E+02  0.29999997262E+02 0.  0.
         12    1    1    2    0    0 -0.21780888140E+02  0.25048236628E+02  0.23480726238E+02  0.40659141051E+02  0.00000000000E+00 0. -1.
         11    1    3    3    0    0  0.13684175985E+02 -0.12497383752E+02 -0.19351945449E+02  0.26794384971E+02  0.51100000000E-03 0. -1.
        -11    1    3    3    0    0 -0.12029676594E+01 -0.24904938619E+01  0.60597315475E+01  0.66610838123E+01  0.51100000000E-03 0.  1.
         12    1    3    3    0    0  0.92996798140E+01 -0.10060359014E+02 -0.10188512336E+02  0.17073390166E+02  0.00000000000E+00 0. -1.
</event>
<event>
 7    1  0.5764931E-013  0.5052882E+02  0.7816164E-02  0.1300439E+00
        -11   -1    0    0    0    0  0.00000000000E+00  0.00000000000E+00  0.45593999997E+02  0.45594000000E+02  0.51100000000E-03 0.  1.
         11   -1    0    0    0    0 -0.00000000000E+00 -0.00000000000E+00 -0.45593999997E+02  0.45594000000E+02  0.51100000000E-03 0. -1.
    9900012    2    1    2    0    0 -0.19056717194E+02 -0.35855268955E+02  0.21000455323E+01  0.50528819324E+02  0.29999876816E+02 0.  0.
         12    1    1    2    0    0  0.19056717194E+02  0.35855268955E+02 -0.21000455323E+01  0.40659180676E+02  0.00000000000E+00 0. -1.
         11    1    3    3    0    0 -0.18076926010E+01 -0.11440660887E+01  0.57047970457E+01  0.60927292200E+01  0.51100000000E-03 0. -1.
        -11    1    3    3    0    0 -0.85588340166E+01 -0.33377868557E+02 -0.67232527298E+01  0.35107518805E+02  0.51100000000E-03 0.  1.
        -12    1    3    3    0    0 -0.86901905765E+01 -0.13333343090E+01  0.31185012163E+01  0.93285712985E+01  0.00000000000E+00 0.  1.
</event>
<event>
 7    1  0.5764931E-013  0.5052886E+02  0.7816164E-02  0.1300439E+00
        -11   -1    0    0    0    0  0.00000000000E+00  0.00000000000E+00  0.45593999997E+02  0.45594000000E+02  0.51100000000E-03 0.  1.
         11   -1    0    0    0    0 -0.00000000000E+00 -0.00000000000E+00 -0.45593999997E+02  0.45594000000E+02  0.51100000000E-03 0. -1.
    9900012    2    1    2    0    0  0.19891610529E+02  0.35068318899E+02 -0.52633298997E+01  0.50528858328E+02  0.29999995375E+02 0.  0.
         12    1    1    2    0    0 -0.19891610529E+02 -0.35068318899E+02  0.52633298997E+01  0.40659141672E+02  0.00000000000E+00 0. -1.
         11    1    3    3    0    0 -0.52222482568E+01  0.30657979610E+01 -0.34732917133E+01  0.69810278312E+01  0.51100000000E-03 0. -1.
        -11    1    3    3    0    0  0.17911067013E+02  0.27228939043E+02  0.44432208347E+01  0.32893215935E+02  0.51100000000E-03 0.  1.
        -12    1    3    3    0    0  0.72027917727E+01  0.47735818957E+01 -0.62332590211E+01  0.10654614562E+02  0.00000000000E+00 0.  1.
</event>
<event>
 7    1  0.5764931E-013  0.5052886E+02  0.7816164E-02  0.1300439E+00
        -11   -1    0    0    0    0  0.00000000000E+00  0.00000000000E+00  0.45593999997E+02  0.45594000000E+02  0.51100000000E-03 0. -1.
         11   -1    0    0    0    0 -0.00000000000E+00 -0.00000000000E+00 -0.45593999997E+02  0.45594000000E+02  0.51100000000E-03 0.  1.
    9900012    2    1    2    0    0  0.92564017336E+01  0.39494701108E+02 -0.27664610652E+01  0.50528859632E+02  0.29999999336E+02 0.  0.
         12    1    1    2    0    0 -0.92564017336E+01 -0.39494701108E+02  0.27664610652E+01  0.40659140368E+02  0.00000000000E+00 0. -1.
         11    1    3    3    0    0  0.68099913174E+00  0.26320263206E+01 -0.71340250149E+01  0.76345029664E+01  0.51100000000E-03 0. -1.
        -11    1    3    3    0    0  0.11319304147E+02  0.38017264982E+02  0.44561414551E+01  0.39916115543E+02  0.51100000000E-03 0.  1.
         12    1    3    3    0    0 -0.27439015454E+01 -0.11545901946E+01 -0.88577505431E-01  0.29782411223E+01  0.00000000000E+00 0. -1.
</event>
<event>
 7    1  0.5764931E-013  0.5052885E+02  0.7816164E-02  0.1300439E+00
        -11   -1    0    0    0    0  0.00000000000E+00  0.00000000000E+00  0.45593999997E+02  0.45594000000E+02  0.51100000000E-03 0. -1.
         11   -1    0    0    0    0 -0.00000000000E+00 -0.00000000000E+00 -0.45593999997E+02  0.45594000000E+02  0.51100000000E-03 0.  1.
    9900012    2    1    2    0    0  0.12631946239E+02 -0.30459528771E+02 -0.23786915013E+02  0.50528852388E+02  0.29999977317E+02 0.  0.
         12    1    1    2    0    0 -0.12631946239E+02  0.30459528771E+02  0.23786915013E+02  0.40659147612E+02  0.00000000000E+00 0. -1.
         11    1    3    3    0    0  0.49502202553E+01 -0.12164501530E+01  0.44062634182E+01  0.67379217213E+01  0.51100000000E-03 0. -1.
        -11    1    3    3    0    0  0.69735312112E+01 -0.28652504543E+02 -0.29808957082E+02  0.41930538713E+02  0.51100000000E-03 0.  1.
        -12    1    3    3    0    0  0.70819477216E+00 -0.59057407502E+00  0.16157786507E+01  0.18603919537E+01  0.00000000000E+00 0.  1.
</event>
<event>
 7    1  0.5764931E-013  0.5052885E+02  0.7816164E-02  0.1300439E+00
        -11   -1    0    0    0    0  0.00000000000E+00  0.00000000000E+00  0.45593999997E+02  0.45594000000E+02  0.51100000000E-03 0. -1.
         11   -1    0    0    0    0 -0.00000000000E+00 -0.00000000000E+00 -0.45593999997E+02  0.45594000000E+02  0.51100000000E-03 0.  1.
    9900012    2    1    2    0    0 -0.95244442941E+01  0.28827267131E+02 -0.27045144283E+02  0.50528853444E+02  0.29999980529E+02 0.  0.
         12    1    1    2    0    0  0.95244442941E+01 -0.28827267131E+02  0.27045144283E+02  0.40659146556E+02  0.00000000000E+00 0. -1.
         11    1    3    3    0    0 -0.62830779135E+01  0.10498609013E+02 -0.22130118958E+02  0.25287151375E+02  0.51100000000E-03 0.  1.
        -11    1    3    3    0    0 -0.90095941378E+01  0.16242607742E+02 -0.43875288564E+01  0.19085216858E+02  0.51100000000E-03 0. -1.
        -12    1    3    3    0    0  0.57682277572E+01  0.20860503757E+01 -0.52749646805E+00  0.61564852109E+01  0.00000000000E+00 0.  1.
</event>
<event>
 7    1  0.5764931E-013  0.5052886E+02  0.7816164E-02  0.1300439E+00
        -11   -1    0    0    0    0  0.00000000000E+00  0.00000000000E+00  0.45593999997E+02  0.45594000000E+02  0.51100000000E-03 0. -1.
         11   -1    0    0    0    0 -0.00000000000E+00 -0.00000000000E+00 -0.45593999997E+02  0.45594000000E+02  0.51100000000E-03 0.  1.
    9900012    2    1    2    0    0  0.34406469586E+01  0.36381047218E+02 -0.17825463586E+02  0.50528858344E+02  0.29999995421E+02 0.  0.
         12    1    1    2    0    0 -0.34406469586E+01 -0.36381047218E+02  0.17825463586E+02  0.40659141656E+02  0.00000000000E+00 0. -1.
         11    1    3    3    0    0  0.20897457824E+01  0.11399268448E+01  0.77194357683E+00  0.25024723362E+01  0.51100000000E-03 0. -1.
        -11    1    3    3    0    0  0.28687986527E+01  0.90194532735E+01 -0.19574534970E+02  0.21742653072E+02  0.51100000000E-03 0.  1.
        -12    1    3    3    0    0 -0.15178974765E+01  0.26221667100E+02  0.97712780785E+00  0.26283732935E+02  0.00000000000E+00 0.  1.
</event>
<event>
 7    1  0.5764931E-013  0.5052887E+02  0.7816164E-02  0.1300439E+00
        -11   -1    0    0    0    0  0.00000000000E+00  0.00000000000E+00  0.45593999997E+02  0.45594000000E+02  0.51100000000E-03 0.  1.
         11   -1    0    0    0    0 -0.00000000000E+00 -0.00000000000E+00 -0.45593999997E+02  0.45594000000E+02  0.51100000000E-03 0. -1.
    9900012    2    1    2    0    0 -0.89642847068E+00 -0.37917601857E+02  0.14649816925E+02  0.50528865103E+02  0.30000015968E+02 0.  0.
         12    1    1    2    0    0  0.89642847068E+00  0.37917601857E+02 -0.14649816925E+02  0.40659134897E+02  0.00000000000E+00 0. -1.
         11    1    3    3    0    0 -0.98047060367E-01 -0.18923332326E+02  0.17940360379E+02  0.26076016765E+02  0.51100000000E-03 0.  1.
        -11    1    3    3    0    0 -0.66596193015E+01 -0.82101292457E+01 -0.56004535749E+01  0.11963353709E+02  0.51100000000E-03 0. -1.
         12    1    3    3    0    0  0.58612378911E+01 -0.10784140286E+02  0.23099101216E+01  0.12489494629E+02  0.00000000000E+00 0. -1.
</event>
<event>
 7    1  0.5764931E-013  0.5052886E+02  0.7816164E-02  0.1300439E+00
        -11   -1    0    0    0    0  0.00000000000E+00  0.00000000000E+00  0.45593999997E+02  0.45594000000E+02  0.51100000000E-03 0.  1.
         11   -1    0    0    0    0 -0.00000000000E+00 -0.00000000000E+00 -0.45593999997E+02  0.45594000000E+02  0.51100000000E-03 0. -1.
    9900012    2    1    2    0    0  0.10469587754E+02 -0.23845036109E+02  0.31224471582E+02  0.50528860310E+02  0.30000001397E+02 0.  0.
         12    1    1    2    0    0 -0.10469587754E+02  0.23845036109E+02 -0.31224471582E+02  0.40659139690E+02  0.00000000000E+00 0. -1.
         11    1    3    3    0    0  0.12854112463E+02 -0.22587533755E+00  0.20377658157E+02  0.24094152384E+02  0.51100000000E-03 0. -1.
        -11    1    3    3    0    0 -0.74741575864E-01 -0.10298020868E+02  0.67282882163E+01  0.12301409784E+02  0.51100000000E-03 0.  1.
         12    1    3    3    0    0 -0.23097831331E+01 -0.13321139904E+02  0.41185252089E+01  0.14133298142E+02  0.00000000000E+00 0. -1.
</event>
<event>
 7    1  0.5764931E-013  0.5052885E+02  0.7816164E-02  0.1300439E+00
        -11   -1    0    0    0    0  0.00000000000E+00  0.00000000000E+00  0.45593999997E+02  0.45594000000E+02  0.51100000000E-03 0.  1.
         11   -1    0    0    0    0 -0.00000000000E+00 -0.00000000000E+00 -0.45593999997E+02  0.45594000000E+02  0.51100000000E-03 0. -1.
    9900012    2    1    2    0    0 -0.16663125231E+01 -0.30685394559E+02  0.26623238239E+02  0.50528845422E+02  0.29999956144E+02 0.  0.
         12    1    1    2    0    0  0.16663125231E+01  0.30685394559E+02 -0.26623238239E+02  0.40659154578E+02  0.00000000000E+00 0. -1.
         11    1    3    3    0    0  0.73865474107E+01 -0.11333376475E+02  0.10738653491E+02  0.17272092637E+02  0.51100000000E-03 0. -1.
        -11    1    3    3    0    0 -0.88189206047E+01 -0.69270745297E+01  0.17438282624E+02  0.20732858542E+02  0.51100000000E-03 0.  1.
        -12    1    3    3    0    0 -0.23393932902E+00 -0.12424943554E+02 -0.15536978765E+01  0.12523894243E+02  0.00000000000E+00 0.  1.
</event>
<event>
 7    1  0.5764931E-013  0.5052885E+02  0.7816164E-02  0.1300439E+00
        -11   -1    0    0    0    0  0.00000000000E+00  0.00000000000E+00  0.45593999997E+02  0.45594000000E+02  0.51100000000E-03 0.  1.
         11   -1    0    0    0    0 -0.00000000000E+00 -0.00000000000E+00 -0.45593999997E+02  0.45594000000E+02  0.51100000000E-03 0. -1.
    9900012    2    1    2    0    0  0.45158190980E+01 -0.12877116290E+01  0.40387072561E+02  0.50528850312E+02  0.29999971007E+02 0.  0.
         12    1    1    2    0    0 -0.45158190980E+01  0.12877116290E+01 -0.40387072561E+02  0.40659149688E+02  0.00000000000E+00 0. -1.
         11    1    3    3    0    0 -0.41947504592E+01 -0.10587511186E+02  0.31323509327E+02  0.33329469863E+02  0.51100000000E-03 0. -1.
        -11    1    3    3    0    0 -0.85241186902E+00  0.20940869851E+01  0.13843620577E+00  0.22651647048E+01  0.51100000000E-03 0.  1.
         12    1    3    3    0    0  0.95629814262E+01  0.72057125718E+01  0.89251270281E+01  0.14934215744E+02  0.00000000000E+00 0. -1.
</event>
<event>
 7    1  0.5764931E-013  0.5052887E+02  0.7816164E-02  0.1300439E+00
        -11   -1    0    0    0    0  0.00000000000E+00  0.00000000000E+00  0.45593999997E+02  0.45594000000E+02  0.51100000000E-03 0.  1.
         11   -1    0    0    0    0 -0.00000000000E+00 -0.00000000000E+00 -0.45593999997E+02  0.45594000000E+02  0.51100000000E-03 0. -1.
    9900012    2    1    2    0    0 -0.29641272067E+01  0.22217395429E+02  0.33922946130E+02  0.50528868383E+02  0.30000025936E+02 0.  0.
         12    1    1    2    0    0  0.29641272067E+01 -0.22217395429E+02 -0.33922946130E+02  0.40659131617E+02  0.00000000000E+00 0. -1.
         11    1    3    3    0    0 -0.45177668229E+01 -0.33054638945E+01 -0.12271486022E+01  0.57308116857E+01  0.51100000000E-03 0. -1.
        -11    1    3    3    0    0  0.35739567405E+01  0.19108331453E+02  0.31832944918E+02  0.37299301336E+02  0.51100000000E-03 0.  1.
         12    1    3    3    0    0 -0.20203171243E+01  0.64145278704E+01  0.33171498138E+01  0.74987553614E+01  0.00000000000E+00 0. -1.
</event>
<event>
 7    1  0.5764931E-013  0.5052885E+02  0.7816164E-02  0.1300439E+00
        -11   -1    0    0    0    0  0.00000000000E+00  0.00000000000E+00  0.45593999997E+02  0.45594000000E+02  0.51100000000E-03 0. -1.
         11   -1    0    0    0    0 -0.00000000000E+00 -0.00000000000E+00 -0.45593999997E+02  0.45594000000E+02  0.51100000000E-03 0.  1.
    9900012    2    1    2    0    0 -0.24305330705E+02  0.25311792519E+02 -0.20536083622E+02  0.50528847627E+02  0.29999962846E+02 0.  0.
         12    1    1    2    0    0  0.24305330705E+02 -0.25311792519E+02  0.20536083622E+02  0.40659152373E+02  0.00000000000E+00 0. -1.
         11    1    3    3    0    0 -0.23121686521E+02  0.27072472680E+02 -0.11091957525E+02  0.37290249215E+02  0.51100000000E-03 0. -1.
        -11    1    3    3    0    0  0.25053438390E+01  0.19558737916E+01 -0.64894009192E+01  0.72259611535E+01  0.51100000000E-03 0.  1.
         12    1    3    3    0    0 -0.36889880233E+01 -0.37165539523E+01 -0.29547251777E+01  0.60126372577E+01  0.00000000000E+00 0. -1.
</event>
<event>
 7    1  0.5764931E-013  0.5052886E+02  0.7816164E-02  0.1300439E+00
        -11   -1    0    0    0    0  0.00000000000E+00  0.00000000000E+00  0.45593999997E+02  0.45594000000E+02  0.51100000000E-03 0.  1.
         11   -1    0    0    0    0 -0.00000000000E+00 -0.00000000000E+00 -0.45593999997E+02  0.45594000000E+02  0.51100000000E-03 0. -1.
    9900012    2    1    2    0    0 -0.28322372483E+02  0.15944815553E+02  0.24428909625E+02  0.50528861401E+02  0.30000004715E+02 0.  0.
         12    1    1    2    0    0  0.28322372483E+02 -0.15944815553E+02 -0.24428909625E+02  0.40659138599E+02  0.00000000000E+00 0. -1.
         11    1    3    3    0    0 -0.18326798427E+02  0.14020994489E+02  0.22035855233E+02  0.31906719404E+02  0.51100000000E-03 0. -1.
        -11    1    3    3    0    0 -0.95510667042E+01 -0.54542816160E+01  0.22651338362E+01  0.11229554519E+02  0.51100000000E-03 0.  1.
         12    1    3    3    0    0 -0.44450735192E+00  0.73781026805E+01  0.12792055622E+00  0.73925874780E+01  0.00000000000E+00 0. -1.
</event>
<event>
 7    1  0.5764931E-013  0.5052886E+02  0.7816164E-02  0.1300439E+00
        -11   -1    0    0    0    0  0.00000000000E+00  0.00000000000E+00  0.45593999997E+02  0.45594000000E+02  0.51100000000E-03 0.  1.
         11   -1    0    0    0    0 -0.00000000000E+00 -0.00000000000E+00 -0.45593999997E+02  0.45594000000E+02  0.51100000000E-03 0. -1.
    9900012    2    1    2    0    0 -0.10878670511E+02 -0.34230943914E+02  0.19054201961E+02  0.50528860736E+02  0.30000002693E+02 0.  0.
         12    1    1    2    0    0  0.10878670511E+02  0.34230943914E+02 -0.19054201961E+02  0.40659139264E+02  0.00000000000E+00 0. -1.
         11    1    3    3    0    0 -0.66720895352E+01 -0.66210860399E+01  0.17887291261E+02  0.20206700572E+02  0.51100000000E-03 0. -1.
        -11    1    3    3    0    0 -0.51690831631E+00 -0.57295912890E+01  0.52173208652E+01  0.77663278207E+01  0.51100000000E-03 0.  1.
         12    1    3    3    0    0 -0.36896726593E+01 -0.21880266585E+02 -0.40504101653E+01  0.22555832343E+02  0.00000000000E+00 0. -1.
</event>
<event>
 7    1  0.5764931E-013  0.5052885E+02  0.7816164E-02  0.1300439E+00
        -11   -1    0    0    0    0  0.00000000000E+00  0.00000000000E+00  0.45593999997E+02  0.45594000000E+02  0.51100000000E-03 0. -1.
         11   -1    0    0    0    0 -0.00000000000E+00 -0.00000000000E+00 -0.45593999997E+02  0.45594000000E+02  0.51100000000E-03 0.  1.
    9900012    2    1    2    0    0  0.19769124697E+02 -0.11459214075E+02 -0.33630863418E+02  0.50528845400E+02  0.29999956079E+02 0.  0.
         12    1    1    2    0    0 -0.19769124697E+02  0.11459214075E+02  0.33630863418E+02  0.40659154600E+02  0.00000000000E+00 0. -1.
         11    1    3    3    0    0  0.22141597240E+01 -0.85423674059E+01  0.33535453537E+01  0.94403819245E+01  0.51100000000E-03 0. -1.
        -11    1    3    3    0    0  0.11360264706E+02 -0.99130785298E+00 -0.24217015610E+02  0.26767557804E+02  0.51100000000E-03 0.  1.
         12    1    3    3    0    0  0.61947002668E+01 -0.19255388166E+01 -0.12767393161E+02  0.14320905672E+02  0.00000000000E+00 0. -1.
</event>
<event>
 7    1  0.5764931E-013  0.5052886E+02  0.7816164E-02  0.1300439E+00
        -11   -1    0    0    0    0  0.00000000000E+00  0.00000000000E+00  0.45593999997E+02  0.45594000000E+02  0.51100000000E-03 0.  1.
         11   -1    0    0    0    0 -0.00000000000E+00 -0.00000000000E+00 -0.45593999997E+02  0.45594000000E+02  0.51100000000E-03 0. -1.
    9900012    2    1    2    0    0 -0.29857247035E+02 -0.26249611827E+02 -0.85245551683E+01  0.50528863728E+02  0.30000011788E+02 0.  0.
         12    1    1    2    0    0  0.29857247035E+02  0.26249611827E+02  0.85245551683E+01  0.40659136272E+02  0.00000000000E+00 0. -1.
         11    1    3    3    0    0 -0.10445199357E+02 -0.24711520239E-01 -0.82016385406E+01  0.13280424514E+02  0.51100000000E-03 0. -1.
        -11    1    3    3    0    0 -0.39877028988E+01 -0.57811059187E+01  0.76900252550E+01  0.10414386623E+02  0.51100000000E-03 0.  1.
        -12    1    3    3    0    0 -0.15424344779E+02 -0.20443794388E+02 -0.80129418827E+01  0.26834052591E+02  0.00000000000E+00 0.  1.
</event>
<event>
 7    1  0.5764931E-013  0.5052887E+02  0.7816164E-02  0.1300439E+00
        -11   -1    0    0    0    0  0.00000000000E+00  0.00000000000E+00  0.45593999997E+02  0.45594000000E+02  0.51100000000E-03 0. -1.
         11   -1    0    0    0    0 -0.00000000000E+00 -0.00000000000E+00 -0.45593999997E+02  0.45594000000E+02  0.51100000000E-03 0.  1.
    9900012    2    1    2    0    0  0.39820007891E+02  0.11802130713E+01 -0.81325647973E+01  0.50528873823E+02  0.30000042472E+02 0.  0.
         12    1    1    2    0    0 -0.39820007891E+02 -0.11802130713E+01  0.81325647973E+01  0.40659126177E+02  0.00000000000E+00 0. -1.
         11    1    3    3    0    0  0.11742480732E+02 -0.22400242380E+01  0.85119747585E+01  0.14675056282E+02  0.51100000000E-03 0. -1.
        -11    1    3    3    0    0  0.73437634910E+01 -0.77831751059E+00 -0.12163548212E+02  0.14229847003E+02  0.51100000000E-03 0.  1.
        -12    1    3    3    0    0  0.20733763668E+02  0.41985548198E+01 -0.44809913434E+01  0.21623970538E+02  0.00000000000E+00 0.  1.
</event>
<event>
 7    1  0.5764931E-013  0.5052886E+02  0.7816164E-02  0.1300439E+00
        -11   -1    0    0    0    0  0.00000000000E+00  0.00000000000E+00  0.45593999997E+02  0.45594000000E+02  0.51100000000E-03 0.  1.
         11   -1    0    0    0    0 -0.00000000000E+00 -0.00000000000E+00 -0.45593999997E+02  0.45594000000E+02  0.51100000000E-03 0. -1.
    9900012    2    1    2    0    0  0.58760996458E+01  0.12624998219E+02  0.38200086124E+02  0.50528859490E+02  0.29999998906E+02 0.  0.
         12    1    1    2    0    0 -0.58760996458E+01 -0.12624998219E+02 -0.38200086124E+02  0.40659140510E+02  0.00000000000E+00 0. -1.
         11    1    3    3    0    0  0.85026347139E+01  0.39883497880E+00  0.34374581153E+02  0.35412790008E+02  0.51100000000E-03 0. -1.
        -11    1    3    3    0    0 -0.23564604995E+01  0.53134118816E-01  0.12913426354E-01  0.23570948937E+01  0.51100000000E-03 0.  1.
         12    1    3    3    0    0 -0.27007456860E+00  0.12173029122E+02  0.38125915448E+01  0.12758974589E+02  0.00000000000E+00 0. -1.
</event>
<event>
 7    1  0.5764931E-013  0.5052885E+02  0.7816164E-02  0.1300439E+00
        -11   -1    0    0    0    0  0.00000000000E+00  0.00000000000E+00  0.45593999997E+02  0.45594000000E+02  0.51100000000E-03 0. -1.
         11   -1    0    0    0    0 -0.00000000000E+00 -0.00000000000E+00 -0.45593999997E+02  0.45594000000E+02  0.51100000000E-03 0.  1.
    9900012    2    1    2    0    0 -0.12524231041E+02  0.38002743020E+02  0.72181228982E+01  0.50528854185E+02  0.29999982781E+02 0.  0.
         12    1    1    2    0    0  0.12524231041E+02 -0.38002743020E+02 -0.72181228982E+01  0.40659145815E+02  0.00000000000E+00 0. -1.
         11    1    3    3    0    0  0.68419859391E+01  0.21098551865E+01  0.30419291526E+01  0.77793054787E+01  0.51100000000E-03 0. -1.
        -11    1    3    3    0    0 -0.15288663631E+02  0.24541640753E+02 -0.23967373514E+01  0.29013440277E+02  0.51100000000E-03 0.  1.
        -12    1    3    3    0    0 -0.40775533493E+01  0.11351247080E+02  0.65729310970E+01  0.13736108430E+02  0.00000000000E+00 0.  1.
</event>
<event>
 7    1  0.5764931E-013  0.5052887E+02  0.7816164E-02  0.1300439E+00
        -11   -1    0    0    0    0  0.00000000000E+00  0.00000000000E+00  0.45593999997E+02  0.45594000000E+02  0.51100000000E-03 0.  1.
         11   -1    0    0    0    0 -0.00000000000E+00 -0.00000000000E+00 -0.45593999997E+02  0.45594000000E+02  0.51100000000E-03 0. -1.
    9900012    2    1    2    0    0 -0.15402623225E+01 -0.35426565213E+02  0.19893482642E+02  0.50528873319E+02  0.30000040941E+02 0.  0.
         12    1    1    2    0    0  0.15402623225E+01  0.35426565213E+02 -0.19893482642E+02  0.40659126681E+02  0.00000000000E+00 0. -1.
         11    1    3    3    0    0 -0.53317154212E+00 -0.23551674530E+02  0.67697458787E+01  0.24511122059E+02  0.51100000000E-03 0.  1.
        -11    1    3    3    0    0  0.66101953035E+01 -0.19832420884E+01  0.11521993010E+02  0.13430720544E+02  0.51100000000E-03 0. -1.
        -12    1    3    3    0    0 -0.76172860838E+01 -0.98916485949E+01  0.16017437528E+01  0.12587030717E+02  0.00000000000E+00 0.  1.
</event>
<event>
 7    1  0.5764931E-013  0.5052887E+02  0.7816164E-02  0.1300439E+00
        -11   -1    0    0    0    0  0.00000000000E+00  0.00000000000E+00  0.45593999997E+02  0.45594000000E+02  0.51100000000E-03 0.  1.
         11   -1    0    0    0    0 -0.00000000000E+00 -0.00000000000E+00 -0.45593999997E+02  0.45594000000E+02  0.51100000000E-03 0. -1.
    9900012    2    1    2    0    0  0.12152566507E+02 -0.36490525540E+02 -0.13187921298E+02  0.50528873164E+02  0.30000040469E+02 0.  0.
         12    1    1    2    0    0 -0.12152566507E+02  0.36490525540E+02  0.13187921298E+02  0.40659126836E+02  0.00000000000E+00 0. -1.
         11    1    3    3    0    0 -0.88305578872E+01 -0.15777046576E+02 -0.89313830171E+00  0.18102255316E+02  0.51100000000E-03 0. -1.
        -11    1    3    3    0    0  0.10259446564E+02 -0.12343724372E+02 -0.41770101956E+01  0.16585270260E+02  0.51100000000E-03 0.  1.
         12    1    3    3    0    0  0.10723677830E+02 -0.83697545925E+01 -0.81177728010E+01  0.15841347587E+02  0.00000000000E+00 0. -1.
</event>
<event>
 7    1  0.5764931E-013  0.5052886E+02  0.7816164E-02  0.1300439E+00
        -11   -1    0    0    0    0  0.00000000000E+00  0.00000000000E+00  0.45593999997E+02  0.45594000000E+02  0.51100000000E-03 0.  1.
         11   -1    0    0    0    0 -0.00000000000E+00 -0.00000000000E+00 -0.45593999997E+02  0.45594000000E+02  0.51100000000E-03 0. -1.
    9900012    2    1    2    0    0  0.33041633632E+02 -0.21010463535E+02 -0.10953378073E+02  0.50528860532E+02  0.30000002074E+02 0.  0.
         12    1    1    2    0    0 -0.33041633632E+02  0.21010463535E+02  0.10953378073E+02  0.40659139468E+02  0.00000000000E+00 0. -1.
         11    1    3    3    0    0  0.20215189818E+02 -0.56241749443E+01 -0.19165713228E+02  0.28418476507E+02  0.51100000000E-03 0. -1.
        -11    1    3    3    0    0  0.11524866377E+02 -0.11629603432E+02  0.77286006477E+01  0.18105288985E+02  0.51100000000E-03 0.  1.
        -12    1    3    3    0    0  0.13015774369E+01 -0.37566851589E+01  0.48373450752E+00  0.40050950402E+01  0.00000000000E+00 0.  1.
</event>
<event>
 7    1  0.5764931E-013  0.5052886E+02  0.7816164E-02  0.1300439E+00
        -11   -1    0    0    0    0  0.00000000000E+00  0.00000000000E+00  0.45593999997E+02  0.45594000000E+02  0.51100000000E-03 0.  1.
         11   -1    0    0    0    0 -0.00000000000E+00 -0.00000000000E+00 -0.45593999997E+02  0.45594000000E+02  0.51100000000E-03 0. -1.
    9900012    2    1    2    0    0 -0.12383477767E+02 -0.38529265965E+02  0.39128853545E+01  0.50528861677E+02  0.30000005552E+02 0.  0.
         12    1    1    2    0    0  0.12383477767E+02  0.38529265965E+02 -0.39128853545E+01  0.40659138323E+02  0.00000000000E+00 0. -1.
         11    1    3    3    0    0 -0.42565031701E+01 -0.50104223793E+01  0.11359250819E+01  0.66717672103E+01  0.51100000000E-03 0. -1.
        -11    1    3    3    0    0  0.95021007275E+01 -0.97291436560E+01 -0.23668768164E+01  0.13803921930E+02  0.51100000000E-03 0.  1.
        -12    1    3    3    0    0 -0.17629075324E+02 -0.23789699930E+02  0.51438370891E+01  0.30053172537E+02  0.00000000000E+00 0.  1.
</event>
<event>
 7    1  0.5764931E-013  0.5052883E+02  0.7816164E-02  0.1300439E+00
        -11   -1    0    0    0    0  0.00000000000E+00  0.00000000000E+00  0.45593999997E+02  0.45594000000E+02  0.51100000000E-03 0. -1.
         11   -1    0    0    0    0 -0.00000000000E+00 -0.00000000000E+00 -0.45593999997E+02  0.45594000000E+02  0.51100000000E-03 0.  1.
    9900012    2    1    2    0    0 -0.75790981720E+01 -0.16622870220E+02 -0.36323624078E+02  0.50528828714E+02  0.29999905359E+02 0.  0.
         12    1    1    2    0    0  0.75790981720E+01  0.16622870220E+02  0.36323624078E+02  0.40659171286E+02  0.00000000000E+00 0. -1.
         11    1    3    3    0    0 -0.35504892346E+00  0.64566109329E+01 -0.13959714078E+02  0.15384651503E+02  0.51100000000E-03 0. -1.
        -11    1    3    3    0    0 -0.93095954026E+01 -0.10842586613E+02 -0.89221609620E+01  0.16847409519E+02  0.51100000000E-03 0.  1.
         12    1    3    3    0    0  0.20855461540E+01 -0.12236894540E+02 -0.13441749039E+02  0.18296767692E+02  0.00000000000E+00 0. -1.
</event>
<event>
 7    1  0.5764931E-013  0.5052887E+02  0.7816164E-02  0.1300439E+00
        -11   -1    0    0    0    0  0.00000000000E+00  0.00000000000E+00  0.45593999997E+02  0.45594000000E+02  0.51100000000E-03 0.  1.
         11   -1    0    0    0    0 -0.00000000000E+00 -0.00000000000E+00 -0.45593999997E+02  0.45594000000E+02  0.51100000000E-03 0. -1.
    9900012    2    1    2    0    0 -0.36282760623E+02  0.66651647301E+01  0.17096835853E+02  0.50528868977E+02  0.30000027744E+02 0.  0.
         12    1    1    2    0    0  0.36282760623E+02 -0.66651647301E+01 -0.17096835853E+02  0.40659131023E+02  0.00000000000E+00 0. -1.
         11    1    3    3    0    0 -0.44357929181E+01  0.83945879608E+01  0.11948063210E+02  0.15261113346E+02  0.51100000000E-03 0. -1.
        -11    1    3    3    0    0 -0.25760000939E+02 -0.11704614410E+01 -0.19975651877E+01  0.25863833732E+02  0.51100000000E-03 0.  1.
        -12    1    3    3    0    0 -0.60869667661E+01 -0.55896178965E+00  0.71463378306E+01  0.94039218990E+01  0.00000000000E+00 0.  1.
</event>
<event>
 7    1  0.5764931E-013  0.5052886E+02  0.7816164E-02  0.1300439E+00
        -11   -1    0    0    0    0  0.00000000000E+00  0.00000000000E+00  0.45593999997E+02  0.45594000000E+02  0.51100000000E-03 0.  1.
         11   -1    0    0    0    0 -0.00000000000E+00 -0.00000000000E+00 -0.45593999997E+02  0.45594000000E+02  0.51100000000E-03 0. -1.
    9900012    2    1    2    0    0  0.24145502404E+01  0.30596180525E+02 -0.26668505785E+02  0.50528861834E+02  0.30000006031E+02 0.  0.
         12    1    1    2    0    0 -0.24145502404E+01 -0.30596180525E+02  0.26668505785E+02  0.40659138166E+02  0.00000000000E+00 0. -1.
         11    1    3    3    0    0  0.44779181349E+01  0.15136412383E+01 -0.83224722855E+01  0.95711235403E+01  0.51100000000E-03 0. -1.
        -11    1    3    3    0    0 -0.94639048280E+01  0.20080367078E+02 -0.41369560882E+01  0.22580988520E+02  0.51100000000E-03 0.  1.
        -12    1    3    3    0    0  0.74005369335E+01  0.90021722088E+01 -0.14209077411E+02  0.18376749774E+02  0.00000000000E+00 0.  1.
</event>
<event>
 7    1  0.5764931E-013  0.5052886E+02  0.7816164E-02  0.1300439E+00
        -11   -1    0    0    0    0  0.00000000000E+00  0.00000000000E+00  0.45593999997E+02  0.45594000000E+02  0.51100000000E-03 0. -1.
         11   -1    0    0    0    0 -0.00000000000E+00 -0.00000000000E+00 -0.45593999997E+02  0.45594000000E+02  0.51100000000E-03 0.  1.
    9900012    2    1    2    0    0 -0.44966208392E+01  0.18718339846E+02 -0.35812983202E+02  0.50528860666E+02  0.30000002479E+02 0.  0.
         12    1    1    2    0    0  0.44966208392E+01 -0.18718339846E+02  0.35812983202E+02  0.40659139334E+02  0.00000000000E+00 0. -1.
         11    1    3    3    0    0 -0.99137474383E+01  0.85190681925E+01 -0.22859524743E+02  0.26332770133E+02  0.51100000000E-03 0. -1.
        -11    1    3    3    0    0  0.42598640224E+01 -0.27751717991E+01 -0.94118823530E+01  0.10697268329E+02  0.51100000000E-03 0.  1.
         12    1    3    3    0    0  0.11572625767E+01  0.12974443453E+02 -0.35415761065E+01  0.13498822204E+02  0.00000000000E+00 0. -1.
</event>
<event>
 7    1  0.5764931E-013  0.5052886E+02  0.7816164E-02  0.1300439E+00
        -11   -1    0    0    0    0  0.00000000000E+00  0.00000000000E+00  0.45593999997E+02  0.45594000000E+02  0.51100000000E-03 0.  1.
         11   -1    0    0    0    0 -0.00000000000E+00 -0.00000000000E+00 -0.45593999997E+02  0.45594000000E+02  0.51100000000E-03 0. -1.
    9900012    2    1    2    0    0  0.98811017628E+01  0.30512115193E+02  0.24990801291E+02  0.50528862100E+02  0.30000006838E+02 0.  0.
         12    1    1    2    0    0 -0.98811017628E+01 -0.30512115193E+02 -0.24990801291E+02  0.40659137900E+02  0.00000000000E+00 0. -1.
         11    1    3    3    0    0  0.15939276282E+01  0.76737018754E+01 -0.58984514360E+01  0.98090792311E+01  0.51100000000E-03 0. -1.
        -11    1    3    3    0    0  0.10472059190E+02  0.20026432739E+02  0.24005373247E+02  0.32969379383E+02  0.51100000000E-03 0.  1.
        -12    1    3    3    0    0 -0.21848850558E+01  0.28119805792E+01  0.68838794801E+01  0.77504034850E+01  0.00000000000E+00 0.  1.
</event>
<event>
 7    1  0.5764931E-013  0.5052889E+02  0.7816164E-02  0.1300439E+00
        -11   -1    0    0    0    0  0.00000000000E+00  0.00000000000E+00  0.45593999997E+02  0.45594000000E+02  0.51100000000E-03 0. -1.
         11   -1    0    0    0    0 -0.00000000000E+00 -0.00000000000E+00 -0.45593999997E+02  0.45594000000E+02  0.51100000000E-03 0.  1.
    9900012    2    1    2    0    0 -0.12072714909E+02 -0.11888596375E+02 -0.36960437841E+02  0.50528891126E+02  0.30000095067E+02 0.  0.
         12    1    1    2    0    0  0.12072714909E+02  0.11888596375E+02  0.36960437841E+02  0.40659108874E+02  0.00000000000E+00 0. -1.
         11    1    3    3    0    0 -0.11887462830E+02 -0.16053838654E+02 -0.32520053367E+02  0.38165316444E+02  0.51100000000E-03 0. -1.
        -11    1    3    3    0    0 -0.12602469134E+01  0.43747131846E+01 -0.76887745760E+01  0.89355241856E+01  0.51100000000E-03 0.  1.
         12    1    3    3    0    0  0.10749948339E+01 -0.20947090535E+00  0.32483901017E+01  0.34280504964E+01  0.00000000000E+00 0. -1.
</event>
<event>
 7    1  0.5764931E-013  0.5052886E+02  0.7816164E-02  0.1300439E+00
        -11   -1    0    0    0    0  0.00000000000E+00  0.00000000000E+00  0.45593999997E+02  0.45594000000E+02  0.51100000000E-03 0.  1.
         11   -1    0    0    0    0 -0.00000000000E+00 -0.00000000000E+00 -0.45593999997E+02  0.45594000000E+02  0.51100000000E-03 0. -1.
    9900012    2    1    2    0    0 -0.22215931422E+02 -0.10705634993E+02  0.32326575161E+02  0.50528859684E+02  0.29999999496E+02 0.  0.
         12    1    1    2    0    0  0.22215931422E+02  0.10705634993E+02 -0.32326575161E+02  0.40659140316E+02  0.00000000000E+00 0. -1.
         11    1    3    3    0    0  0.53407266425E+01 -0.36109065292E+01  0.16967886748E+01  0.66664157611E+01  0.51100000000E-03 0. -1.
        -11    1    3    3    0    0 -0.11378509966E+02 -0.58022130040E+01  0.22105904109E+02  0.25530514322E+02  0.51100000000E-03 0.  1.
         12    1    3    3    0    0 -0.16178148099E+02 -0.12925154602E+01  0.85238823776E+01  0.18331929601E+02  0.00000000000E+00 0. -1.
</event>
<event>
 7    1  0.5764931E-013  0.5052886E+02  0.7816164E-02  0.1300439E+00
        -11   -1    0    0    0    0  0.00000000000E+00  0.00000000000E+00  0.45593999997E+02  0.45594000000E+02  0.51100000000E-03 0. -1.
         11   -1    0    0    0    0 -0.00000000000E+00 -0.00000000000E+00 -0.45593999997E+02  0.45594000000E+02  0.51100000000E-03 0.  1.
    9900012    2    1    2    0    0  0.31445222260E+02  0.22015790481E+02 -0.13404046858E+02  0.50528861966E+02  0.30000006432E+02 0.  0.
         12    1    1    2    0    0 -0.31445222260E+02 -0.22015790481E+02  0.13404046858E+02  0.40659138034E+02  0.00000000000E+00 0. -1.
         11    1    3    3    0    0  0.12479689721E+02  0.74471892558E+01  0.82627615399E+01  0.16717551013E+02  0.51100000000E-03 0. -1.
        -11    1    3    3    0    0  0.37284783137E+01  0.75940050401E+01 -0.36729200779E+01  0.92228414951E+01  0.51100000000E-03 0.  1.
         12    1    3    3    0    0  0.15237054225E+02  0.69745961854E+01 -0.17993888320E+02  0.24588469458E+02  0.00000000000E+00 0. -1.
</event>
<event>
 7    1  0.5764931E-013  0.5052885E+02  0.7816164E-02  0.1300439E+00
        -11   -1    0    0    0    0  0.00000000000E+00  0.00000000000E+00  0.45593999997E+02  0.45594000000E+02  0.51100000000E-03 0.  1.
         11   -1    0    0    0    0 -0.00000000000E+00 -0.00000000000E+00 -0.45593999997E+02  0.45594000000E+02  0.51100000000E-03 0. -1.
    9900012    2    1    2    0    0 -0.26228882809E+02 -0.27669919188E+02 -0.14127543359E+02  0.50528853395E+02  0.29999980380E+02 0.  0.
         12    1    1    2    0    0  0.26228882809E+02  0.27669919188E+02  0.14127543359E+02  0.40659146605E+02  0.00000000000E+00 0. -1.
         11    1    3    3    0    0 -0.49291807202E+01 -0.19330903971E+02 -0.99040148408E+01  0.22272633009E+02  0.51100000000E-03 0. -1.
        -11    1    3    3    0    0 -0.19837429784E+02 -0.23100967637E+01 -0.73852957273E+01  0.21293256226E+02  0.51100000000E-03 0.  1.
        -12    1    3    3    0    0 -0.14622723053E+01 -0.60289184527E+01  0.31617672092E+01  0.69629641597E+01  0.00000000000E+00 0.  1.
</event>
<event>
 7    1  0.5764931E-013  0.5052885E+02  0.7816164E-02  0.1300439E+00
        -11   -1    0    0    0    0  0.00000000000E+00  0.00000000000E+00  0.45593999997E+02  0.45594000000E+02  0.51100000000E-03 0. -1.
         11   -1    0    0    0    0 -0.00000000000E+00 -0.00000000000E+00 -0.45593999997E+02  0.45594000000E+02  0.51100000000E-03 0.  1.
    9900012    2    1    2    0    0 -0.15525120643E+02 -0.27871981365E+02 -0.25204952538E+02  0.50528851599E+02  0.29999974921E+02 0.  0.
         12    1    1    2    0    0  0.15525120643E+02  0.27871981365E+02  0.25204952538E+02  0.40659148401E+02  0.00000000000E+00 0. -1.
         11    1    3    3    0    0  0.60514206441E+00  0.36343031746E+01  0.22407222457E+01  0.43122143878E+01  0.51100000000E-03 0. -1.
        -11    1    3    3    0    0 -0.12536555182E+02 -0.13796096113E+02 -0.10259140731E+02  0.21277862970E+02  0.51100000000E-03 0.  1.
         12    1    3    3    0    0 -0.35937075259E+01 -0.17710188427E+02 -0.17186534053E+02  0.24938774241E+02  0.00000000000E+00 0. -1.
</event>
<event>
 7    1  0.5764931E-013  0.5052887E+02  0.7816164E-02  0.1300439E+00
        -11   -1    0    0    0    0  0.00000000000E+00  0.00000000000E+00  0.45593999997E+02  0.45594000000E+02  0.51100000000E-03 0.  1.
         11   -1    0    0    0    0 -0.00000000000E+00 -0.00000000000E+00 -0.45593999997E+02  0.45594000000E+02  0.51100000000E-03 0. -1.
    9900012    2    1    2    0    0  0.86013614327E+01 -0.36544515435E+02  0.15610254104E+02  0.50528867446E+02  0.30000023088E+02 0.  0.
         12    1    1    2    0    0 -0.86013614327E+01  0.36544515435E+02 -0.15610254104E+02  0.40659132554E+02  0.00000000000E+00 0. -1.
         11    1    3    3    0    0  0.29006755684E+01  0.31839543022E+01  0.36802974093E+01  0.56653396221E+01  0.51100000000E-03 0. -1.
        -11    1    3    3    0    0  0.93567535266E+01 -0.27925289009E+02  0.29702485639E+01  0.29600557083E+02  0.51100000000E-03 0.  1.
        -12    1    3    3    0    0 -0.36560676624E+01 -0.11803180728E+02  0.89597081309E+01  0.15262970741E+02  0.00000000000E+00 0.  1.
</event>
<event>
 7    1  0.5764931E-013  0.5052887E+02  0.7816164E-02  0.1300439E+00
        -11   -1    0    0    0    0  0.00000000000E+00  0.00000000000E+00  0.45593999997E+02  0.45594000000E+02  0.51100000000E-03 0.  1.
         11   -1    0    0    0    0 -0.00000000000E+00 -0.00000000000E+00 -0.45593999997E+02  0.45594000000E+02  0.51100000000E-03 0. -1.
    9900012    2    1    2    0    0 -0.24988688803E+02 -0.78859108219E+01  0.31089268344E+02  0.50528871089E+02  0.30000034163E+02 0.  0.
         12    1    1    2    0    0  0.24988688803E+02  0.78859108219E+01 -0.31089268344E+02  0.40659128911E+02  0.00000000000E+00 0. -1.
         11    1    3    3    0    0 -0.26780374667E+02 -0.28825149491E+01  0.13024227312E+02  0.29918687422E+02  0.51100000000E-03 0. -1.
        -11    1    3    3    0    0  0.13353001331E+01 -0.51351072121E+01  0.18910317304E+02  0.19640581797E+02  0.51100000000E-03 0.  1.
         12    1    3    3    0    0  0.45638573042E+00  0.13171133934E+00 -0.84527627156E+00  0.96960187041E+00  0.00000000000E+00 0. -1.
</event>
<event>
 7    1  0.5764931E-013  0.5052886E+02  0.7816164E-02  0.1300439E+00
        -11   -1    0    0    0    0  0.00000000000E+00  0.00000000000E+00  0.45593999997E+02  0.45594000000E+02  0.51100000000E-03 0.  1.
         11   -1    0    0    0    0 -0.00000000000E+00 -0.00000000000E+00 -0.45593999997E+02  0.45594000000E+02  0.51100000000E-03 0. -1.
    9900012    2    1    2    0    0 -0.29999427109E+02 -0.13020874777E+02  0.24158996328E+02  0.50528856989E+02  0.29999991304E+02 0.  0.
         12    1    1    2    0    0  0.29999427109E+02  0.13020874777E+02 -0.24158996328E+02  0.40659143011E+02  0.00000000000E+00 0. -1.
         11    1    3    3    0    0  0.13172239598E+01  0.50091842018E+01  0.45462109842E+01  0.68916645233E+01  0.51100000000E-03 0. -1.
        -11    1    3    3    0    0 -0.30920694071E+02 -0.19981358557E+02  0.17598881386E+02  0.40805203564E+02  0.51100000000E-03 0.  1.
        -12    1    3    3    0    0 -0.39595699730E+00  0.19512995780E+01  0.20139039578E+01  0.28319889015E+01  0.00000000000E+00 0.  1.
</event>
<event>
 7    1  0.5764931E-013  0.5052886E+02  0.7816164E-02  0.1300439E+00
        -11   -1    0    0    0    0  0.00000000000E+00  0.00000000000E+00  0.45593999997E+02  0.45594000000E+02  0.51100000000E-03 0.  1.
         11   -1    0    0    0    0 -0.00000000000E+00 -0.00000000000E+00 -0.45593999997E+02  0.45594000000E+02  0.51100000000E-03 0. -1.
    9900012    2    1    2    0    0 -0.28521562904E+02  0.57813864172E+01  0.28394746065E+02  0.50528861009E+02  0.30000003524E+02 0.  0.
         12    1    1    2    0    0  0.28521562904E+02 -0.57813864172E+01 -0.28394746065E+02  0.40659138991E+02  0.00000000000E+00 0. -1.
         11    1    3    3    0    0 -0.17002942308E+02  0.16946688651E+02  0.14932464207E+02  0.28271342220E+02  0.51100000000E-03 0. -1.
        -11    1    3    3    0    0 -0.96032921936E+01 -0.74239749496E+01  0.13363443231E+02  0.18053261208E+02  0.51100000000E-03 0.  1.
         12    1    3    3    0    0 -0.19153284026E+01 -0.37413272839E+01  0.98838626583E-01  0.42042575812E+01  0.00000000000E+00 0. -1.
</event>
<event>
 7    1  0.5764931E-013  0.5052882E+02  0.7816164E-02  0.1300439E+00
        -11   -1    0    0    0    0  0.00000000000E+00  0.00000000000E+00  0.45593999997E+02  0.45594000000E+02  0.51100000000E-03 0.  1.
         11   -1    0    0    0    0 -0.00000000000E+00 -0.00000000000E+00 -0.45593999997E+02  0.45594000000E+02  0.51100000000E-03 0. -1.
    9900012    2    1    2    0    0 -0.87108256358E+01  0.70074459071E+00  0.39708931876E+02  0.50528821492E+02  0.29999883407E+02 0.  0.
         12    1    1    2    0    0  0.87108256358E+01 -0.70074459071E+00 -0.39708931876E+02  0.40659178508E+02  0.00000000000E+00 0. -1.
         11    1    3    3    0    0 -0.29269790486E+01 -0.55541303334E+01  0.84598112740E+00  0.63349233965E+01  0.51100000000E-03 0. -1.
        -11    1    3    3    0    0 -0.72302419138E+01  0.11736820885E+02  0.18591978208E+02  0.23144999818E+02  0.51100000000E-03 0.  1.
         12    1    3    3    0    0  0.14463953266E+01 -0.54819459613E+01  0.20270972541E+02  0.21048898278E+02  0.00000000000E+00 0. -1.
</event>
<event>
 7    1  0.5764931E-013  0.5052886E+02  0.7816164E-02  0.1300439E+00
        -11   -1    0    0    0    0  0.00000000000E+00  0.00000000000E+00  0.45593999997E+02  0.45594000000E+02  0.51100000000E-03 0. -1.
         11   -1    0    0    0    0 -0.00000000000E+00 -0.00000000000E+00 -0.45593999997E+02  0.45594000000E+02  0.51100000000E-03 0.  1.
    9900012    2    1    2    0    0 -0.28092451384E+02 -0.93037995611E+01 -0.27882238791E+02  0.50528858949E+02  0.29999997261E+02 0.  0.
         12    1    1    2    0    0  0.28092451384E+02  0.93037995611E+01  0.27882238791E+02  0.40659141051E+02  0.00000000000E+00 0. -1.
         11    1    3    3    0    0 -0.45217992933E+01  0.84725064497E+00  0.45954739039E+01  0.65025289824E+01  0.51100000000E-03 0. -1.
        -11    1    3    3    0    0 -0.14372377463E+02 -0.93875171644E+01 -0.10336475892E+02  0.20038299494E+02  0.51100000000E-03 0.  1.
         12    1    3    3    0    0 -0.91982746276E+01 -0.76353304165E+00 -0.22141236802E+02  0.23988030473E+02  0.00000000000E+00 0. -1.
</event>
<event>
 7    1  0.5764931E-013  0.5052882E+02  0.7816164E-02  0.1300439E+00
        -11   -1    0    0    0    0  0.00000000000E+00  0.00000000000E+00  0.45593999997E+02  0.45594000000E+02  0.51100000000E-03 0.  1.
         11   -1    0    0    0    0 -0.00000000000E+00 -0.00000000000E+00 -0.45593999997E+02  0.45594000000E+02  0.51100000000E-03 0. -1.
    9900012    2    1    2    0    0  0.22917900585E+02 -0.10457752878E+02 -0.31915109976E+02  0.50528818905E+02  0.29999875545E+02 0.  0.
         12    1    1    2    0    0 -0.22917900585E+02  0.10457752878E+02  0.31915109976E+02  0.40659181095E+02  0.00000000000E+00 0. -1.
         11    1    3    3    0    0  0.15056632202E+01 -0.23449240232E+01 -0.37045849450E+01  0.46356919961E+01  0.51100000000E-03 0.  1.
        -11    1    3    3    0    0  0.17937885544E+02 -0.45257975765E+01 -0.33717358061E+02  0.38459209773E+02  0.51100000000E-03 0. -1.
        -12    1    3    3    0    0  0.34743518206E+01 -0.35870312783E+01  0.55068330299E+01  0.74339171360E+01  0.00000000000E+00 0.  1.
</event>
<event>
 7    1  0.5764931E-013  0.5052886E+02  0.7816164E-02  0.1300439E+00
        -11   -1    0    0    0    0  0.00000000000E+00  0.00000000000E+00  0.45593999997E+02  0.45594000000E+02  0.51100000000E-03 0.  1.
         11   -1    0    0    0    0 -0.00000000000E+00 -0.00000000000E+00 -0.45593999997E+02  0.45594000000E+02  0.51100000000E-03 0. -1.
    9900012    2    1    2    0    0 -0.12513011579E+02 -0.20895648289E+02  0.32557059392E+02  0.50528859670E+02  0.29999999451E+02 0.  0.
         12    1    1    2    0    0  0.12513011579E+02  0.20895648289E+02 -0.32557059392E+02  0.40659140330E+02  0.00000000000E+00 0. -1.
         11    1    3    3    0    0  0.80215672948E+01 -0.10849312070E+02  0.71046274923E+01  0.15248896561E+02  0.51100000000E-03 0. -1.
        -11    1    3    3    0    0 -0.14041977495E+02 -0.86843167287E+01  0.12434252417E+02  0.20668941009E+02  0.51100000000E-03 0.  1.
         12    1    3    3    0    0 -0.64926013786E+01 -0.13620194902E+01  0.13018179483E+02  0.14611022100E+02  0.00000000000E+00 0. -1.
</event>
<event>
 7    1  0.5764931E-013  0.5052886E+02  0.7816164E-02  0.1300439E+00
        -11   -1    0    0    0    0  0.00000000000E+00  0.00000000000E+00  0.45593999997E+02  0.45594000000E+02  0.51100000000E-03 0.  1.
         11   -1    0    0    0    0 -0.00000000000E+00 -0.00000000000E+00 -0.45593999997E+02  0.45594000000E+02  0.51100000000E-03 0. -1.
    9900012    2    1    2    0    0  0.23289522930E+02 -0.23345888878E+02  0.23785145794E+02  0.50528861221E+02  0.30000004167E+02 0.  0.
         12    1    1    2    0    0 -0.23289522930E+02  0.23345888878E+02 -0.23785145794E+02  0.40659138779E+02  0.00000000000E+00 0. -1.
         11    1    3    3    0    0  0.89130806790E+01 -0.25833757238E+02  0.16068680950E+02  0.31702184908E+02  0.51100000000E-03 0.  1.
        -11    1    3    3    0    0  0.10916522897E+02  0.46516477856E+00  0.95683617669E+00  0.10968244443E+02  0.51100000000E-03 0. -1.
        -12    1    3    3    0    0  0.34599193542E+01  0.20227035821E+01  0.67596286677E+01  0.78584318693E+01  0.00000000000E+00 0.  1.
</event>
<event>
 7    1  0.5764931E-013  0.5052887E+02  0.7816164E-02  0.1300439E+00
        -11   -1    0    0    0    0  0.00000000000E+00  0.00000000000E+00  0.45593999997E+02  0.45594000000E+02  0.51100000000E-03 0. -1.
         11   -1    0    0    0    0 -0.00000000000E+00 -0.00000000000E+00 -0.45593999997E+02  0.45594000000E+02  0.51100000000E-03 0.  1.
    9900012    2    1    2    0    0 -0.89742741730E+01 -0.32892217027E+02 -0.22152404116E+02  0.50528873768E+02  0.30000042304E+02 0.  0.
         12    1    1    2    0    0  0.89742741730E+01  0.32892217027E+02  0.22152404116E+02  0.40659126232E+02  0.00000000000E+00 0. -1.
         11    1    3    3    0    0  0.20488583501E+01 -0.10656730391E+02 -0.18864237846E+02  0.21762885675E+02  0.51100000000E-03 0.  1.
        -11    1    3    3    0    0 -0.11969959438E+02 -0.23493854103E+02 -0.15389095628E+01  0.26412295479E+02  0.51100000000E-03 0. -1.
         12    1    3    3    0    0  0.94682691492E+00  0.12583674674E+01 -0.17492567071E+01  0.23536926131E+01  0.00000000000E+00 0. -1.
</event>
<event>
 7    1  0.5764931E-013  0.5052885E+02  0.7816164E-02  0.1300439E+00
        -11   -1    0    0    0    0  0.00000000000E+00  0.00000000000E+00  0.45593999997E+02  0.45594000000E+02  0.51100000000E-03 0. -1.
         11   -1    0    0    0    0 -0.00000000000E+00 -0.00000000000E+00 -0.45593999997E+02  0.45594000000E+02  0.51100000000E-03 0.  1.
    9900012    2    1    2    0    0 -0.36411632932E+02  0.14767118032E+02  0.10454274073E+02  0.50528848088E+02  0.29999964249E+02 0.  0.
         12    1    1    2    0    0  0.36411632932E+02 -0.14767118032E+02 -0.10454274073E+02  0.40659151912E+02  0.00000000000E+00 0. -1.
         11    1    3    3    0    0 -0.90421727370E+01  0.18106239391E+02  0.53561640026E+01  0.20935264167E+02  0.51100000000E-03 0. -1.
        -11    1    3    3    0    0 -0.20303085992E+02  0.14071172706E+01  0.16814654559E+01  0.20421131363E+02  0.51100000000E-03 0.  1.
         12    1    3    3    0    0 -0.70663742038E+01 -0.47462386288E+01  0.34166446145E+01  0.91724525581E+01  0.00000000000E+00 0. -1.
</event>
<event>
 7    1  0.5764931E-013  0.5052886E+02  0.7816164E-02  0.1300439E+00
        -11   -1    0    0    0    0  0.00000000000E+00  0.00000000000E+00  0.45593999997E+02  0.45594000000E+02  0.51100000000E-03 0. -1.
         11   -1    0    0    0    0 -0.00000000000E+00 -0.00000000000E+00 -0.45593999997E+02  0.45594000000E+02  0.51100000000E-03 0.  1.
    9900012    2    1    2    0    0 -0.26941429697E+02  0.30640295756E+01 -0.30297467034E+02  0.50528863019E+02  0.30000009633E+02 0.  0.
         12    1    1    2    0    0  0.26941429697E+02 -0.30640295756E+01  0.30297467034E+02  0.40659136981E+02  0.00000000000E+00 0. -1.
         11    1    3    3    0    0 -0.16225687487E+02  0.94091597574E+01 -0.62148501208E+01  0.19759291081E+02  0.51100000000E-03 0. -1.
        -11    1    3    3    0    0  0.23264045169E+01  0.80223215830E-01 -0.10894069887E+02  0.11139988901E+02  0.51100000000E-03 0.  1.
        -12    1    3    3    0    0 -0.13042146728E+02 -0.64253533976E+01 -0.13188547026E+02  0.19629583037E+02  0.00000000000E+00 0.  1.
</event>
<event>
 7    1  0.5764931E-013  0.5052888E+02  0.7816164E-02  0.1300439E+00
        -11   -1    0    0    0    0  0.00000000000E+00  0.00000000000E+00  0.45593999997E+02  0.45594000000E+02  0.51100000000E-03 0.  1.
         11   -1    0    0    0    0 -0.00000000000E+00 -0.00000000000E+00 -0.45593999997E+02  0.45594000000E+02  0.51100000000E-03 0. -1.
    9900012    2    1    2    0    0  0.37319439833E+02  0.41870902194E+01  0.15584993060E+02  0.50528876514E+02  0.30000050652E+02 0.  0.
         12    1    1    2    0    0 -0.37319439833E+02 -0.41870902194E+01 -0.15584993060E+02  0.40659123486E+02  0.00000000000E+00 0. -1.
         11    1    3    3    0    0  0.72914789246E+01 -0.81699551523E+01  0.12701428230E+02  0.16770215009E+02  0.51100000000E-03 0. -1.
        -11    1    3    3    0    0  0.24607844755E+01  0.18244992943E+01  0.29428011237E+01  0.42478625948E+01  0.51100000000E-03 0.  1.
         12    1    3    3    0    0  0.27567176433E+02  0.10532546077E+02 -0.59236294472E-01  0.29510798910E+02  0.00000000000E+00 0. -1.
</event>
<event>
 7    1  0.5764931E-013  0.5052885E+02  0.7816164E-02  0.1300439E+00
        -11   -1    0    0    0    0  0.00000000000E+00  0.00000000000E+00  0.45593999997E+02  0.45594000000E+02  0.51100000000E-03 0.  1.
         11   -1    0    0    0    0 -0.00000000000E+00 -0.00000000000E+00 -0.45593999997E+02  0.45594000000E+02  0.51100000000E-03 0. -1.
    9900012    2    1    2    0    0  0.17597688565E+02 -0.29183796306E+02  0.22176422517E+02  0.50528851887E+02  0.29999975796E+02 0.  0.
         12    1    1    2    0    0 -0.17597688565E+02  0.29183796306E+02 -0.22176422517E+02  0.40659148113E+02  0.00000000000E+00 0. -1.
         11    1    3    3    0    0  0.76816787333E+01  0.26469062886E+01  0.63488627525E+01  0.10311273422E+02  0.51100000000E-03 0. -1.
        -11    1    3    3    0    0  0.88459863868E+01 -0.21824834189E+02  0.18336844529E+02  0.29846519563E+02  0.51100000000E-03 0.  1.
         12    1    3    3    0    0  0.10700234448E+01 -0.10005868406E+02 -0.25092847643E+01  0.10371058902E+02  0.00000000000E+00 0. -1.
</event>
<event>
 7    1  0.5764931E-013  0.5052886E+02  0.7816164E-02  0.1300439E+00
        -11   -1    0    0    0    0  0.00000000000E+00  0.00000000000E+00  0.45593999997E+02  0.45594000000E+02  0.51100000000E-03 0.  1.
         11   -1    0    0    0    0 -0.00000000000E+00 -0.00000000000E+00 -0.45593999997E+02  0.45594000000E+02  0.51100000000E-03 0. -1.
    9900012    2    1    2    0    0  0.41997070445E+01  0.15054817596E+02  0.37535059240E+02  0.50528859032E+02  0.29999997515E+02 0.  0.
         12    1    1    2    0    0 -0.41997070445E+01 -0.15054817596E+02 -0.37535059240E+02  0.40659140968E+02  0.00000000000E+00 0. -1.
         11    1    3    3    0    0  0.70155210692E+01  0.17210081895E+01 -0.22582144052E+01  0.75682849855E+01  0.51100000000E-03 0. -1.
        -11    1    3    3    0    0  0.30428102169E+01  0.49790767430E+01  0.11765379403E+02  0.13132937676E+02  0.51100000000E-03 0.  1.
         12    1    3    3    0    0 -0.58586242416E+01  0.83547326632E+01  0.28027894242E+02  0.29827636371E+02  0.00000000000E+00 0. -1.
</event>
<event>
 7    1  0.5764931E-013  0.5052885E+02  0.7816164E-02  0.1300439E+00
        -11   -1    0    0    0    0  0.00000000000E+00  0.00000000000E+00  0.45593999997E+02  0.45594000000E+02  0.51100000000E-03 0.  1.
         11   -1    0    0    0    0 -0.00000000000E+00 -0.00000000000E+00 -0.45593999997E+02  0.45594000000E+02  0.51100000000E-03 0. -1.
    9900012    2    1    2    0    0 -0.77939570996E+01 -0.21025285471E+01  0.39849713953E+02  0.50528854711E+02  0.29999984378E+02 0.  0.
         12    1    1    2    0    0  0.77939570996E+01  0.21025285471E+01 -0.39849713953E+02  0.40659145289E+02  0.00000000000E+00 0. -1.
         11    1    3    3    0    0  0.29266088417E+01  0.80003989552E+01  0.62851730921E+01  0.10586539747E+02  0.51100000000E-03 0. -1.
        -11    1    3    3    0    0 -0.14413591884E+02 -0.10572019835E+02  0.26655181164E+02  0.32093892215E+02  0.51100000000E-03 0.  1.
        -12    1    3    3    0    0  0.36930259422E+01  0.46909233221E+00  0.69093596969E+01  0.78484227490E+01  0.00000000000E+00 0.  1.
</event>
<event>
 7    1  0.5764931E-013  0.5052886E+02  0.7816164E-02  0.1300439E+00
        -11   -1    0    0    0    0  0.00000000000E+00  0.00000000000E+00  0.45593999997E+02  0.45594000000E+02  0.51100000000E-03 0.  1.
         11   -1    0    0    0    0 -0.00000000000E+00 -0.00000000000E+00 -0.45593999997E+02  0.45594000000E+02  0.51100000000E-03 0. -1.
    9900012    2    1    2    0    0  0.15779399516E+02 -0.29103394792E+02  0.23604425742E+02  0.50528856476E+02  0.29999989743E+02 0.  0.
         12    1    1    2    0    0 -0.15779399516E+02  0.29103394792E+02 -0.23604425742E+02  0.40659143524E+02  0.00000000000E+00 0. -1.
         11    1    3    3    0    0 -0.67445148086E+01 -0.35281234681E+01 -0.94143161314E+00  0.76695781470E+01  0.51100000000E-03 0. -1.
        -11    1    3    3    0    0  0.50496789595E+01 -0.11080512194E+02  0.11076082979E+02  0.16460760082E+02  0.51100000000E-03 0.  1.
         12    1    3    3    0    0  0.17474235365E+02 -0.14494759130E+02  0.13469774377E+02  0.26398518246E+02  0.00000000000E+00 0. -1.
</event>
<event>
 7    1  0.5764931E-013  0.5052886E+02  0.7816164E-02  0.1300439E+00
        -11   -1    0    0    0    0  0.00000000000E+00  0.00000000000E+00  0.45593999997E+02  0.45594000000E+02  0.51100000000E-03 0.  1.
         11   -1    0    0    0    0 -0.00000000000E+00 -0.00000000000E+00 -0.45593999997E+02  0.45594000000E+02  0.51100000000E-03 0. -1.
    9900012    2    1    2    0    0  0.31462914151E+02  0.14929712843E+02  0.20984613743E+02  0.50528864417E+02  0.30000013881E+02 0.  0.
         12    1    1    2    0    0 -0.31462914151E+02 -0.14929712843E+02 -0.20984613743E+02  0.40659135583E+02  0.00000000000E+00 0. -1.
         11    1    3    3    0    0  0.22740416458E+02  0.11844261661E+01  0.48889857402E+01  0.23290160752E+02  0.51100000000E-03 0. -1.
        -11    1    3    3    0    0  0.76548179851E+01  0.15322005864E+02  0.79670223571E+01  0.18890038316E+02  0.51100000000E-03 0.  1.
         12    1    3    3    0    0  0.10676797083E+01 -0.15767191879E+01  0.81286056455E+01  0.83486653483E+01  0.00000000000E+00 0. -1.
</event>
<event>
 7    1  0.5764931E-013  0.5052886E+02  0.7816164E-02  0.1300439E+00
        -11   -1    0    0    0    0  0.00000000000E+00  0.00000000000E+00  0.45593999997E+02  0.45594000000E+02  0.51100000000E-03 0. -1.
         11   -1    0    0    0    0 -0.00000000000E+00 -0.00000000000E+00 -0.45593999997E+02  0.45594000000E+02  0.51100000000E-03 0.  1.
    9900012    2    1    2    0    0 -0.16681888944E+02  0.36412842953E+02  0.69989172088E+01  0.50528863354E+02  0.30000010651E+02 0.  0.
         12    1    1    2    0    0  0.16681888944E+02 -0.36412842953E+02 -0.69989172088E+01  0.40659136646E+02  0.00000000000E+00 0. -1.
         11    1    3    3    0    0 -0.82974543908E+01  0.57041341492E+01  0.14598866047E+02  0.17734480141E+02  0.51100000000E-03 0. -1.
        -11    1    3    3    0    0 -0.49598725672E+01  0.18581995140E+02 -0.35409868822E+01  0.19555803937E+02  0.51100000000E-03 0.  1.
         12    1    3    3    0    0 -0.34245619862E+01  0.12126713664E+02 -0.40589619557E+01  0.13238579276E+02  0.00000000000E+00 0. -1.
</event>
<event>
 7    1  0.5764931E-013  0.5052886E+02  0.7816164E-02  0.1300439E+00
        -11   -1    0    0    0    0  0.00000000000E+00  0.00000000000E+00  0.45593999997E+02  0.45594000000E+02  0.51100000000E-03 0. -1.
         11   -1    0    0    0    0 -0.00000000000E+00 -0.00000000000E+00 -0.45593999997E+02  0.45594000000E+02  0.51100000000E-03 0.  1.
    9900012    2    1    2    0    0  0.19757904637E+02  0.81916917518E+01 -0.34578708168E+02  0.50528859970E+02  0.30000000365E+02 0.  0.
         12    1    1    2    0    0 -0.19757904637E+02 -0.81916917518E+01  0.34578708168E+02  0.40659140030E+02  0.00000000000E+00 0. -1.
         11    1    3    3    0    0  0.14723623925E+02 -0.56003148273E+01 -0.85101453053E+01  0.17904502255E+02  0.51100000000E-03 0. -1.
        -11    1    3    3    0    0  0.43461623980E+01  0.13731317712E+02 -0.27495312108E+02  0.31039175277E+02  0.51100000000E-03 0.  1.
        -12    1    3    3    0    0  0.68811831445E+00  0.60688866880E-01  0.14267492449E+01  0.15851824378E+01  0.00000000000E+00 0.  1.
</event>
<event>
 7    1  0.5764931E-013  0.5052886E+02  0.7816164E-02  0.1300439E+00
        -11   -1    0    0    0    0  0.00000000000E+00  0.00000000000E+00  0.45593999997E+02  0.45594000000E+02  0.51100000000E-03 0.  1.
         11   -1    0    0    0    0 -0.00000000000E+00 -0.00000000000E+00 -0.45593999997E+02  0.45594000000E+02  0.51100000000E-03 0. -1.
    9900012    2    1    2    0    0  0.40278549384E+02  0.39018323460E+01 -0.39471385313E+01  0.50528859100E+02  0.29999997721E+02 0.  0.
         12    1    1    2    0    0 -0.40278549384E+02 -0.39018323460E+01  0.39471385313E+01  0.40659140900E+02  0.00000000000E+00 0. -1.
         11    1    3    3    0    0  0.15236546645E+02 -0.70500802489E+01 -0.10198064081E+02  0.19643230296E+02  0.51100000000E-03 0. -1.
        -11    1    3    3    0    0  0.22286156947E+02  0.13284706221E+02  0.31681174398E+01  0.26137964328E+02  0.51100000000E-03 0.  1.
         12    1    3    3    0    0  0.27558457916E+01 -0.23327936265E+01  0.30828081104E+01  0.47476644759E+01  0.00000000000E+00 0. -1.
</event>
<event>
 7    1  0.5764931E-013  0.5052885E+02  0.7816164E-02  0.1300439E+00
        -11   -1    0    0    0    0  0.00000000000E+00  0.00000000000E+00  0.45593999997E+02  0.45594000000E+02  0.51100000000E-03 0.  1.
         11   -1    0    0    0    0 -0.00000000000E+00 -0.00000000000E+00 -0.45593999997E+02  0.45594000000E+02  0.51100000000E-03 0. -1.
    9900012    2    1    2    0    0  0.34346247644E+02 -0.13370189675E+02  0.17167994709E+02  0.50528846769E+02  0.29999960238E+02 0.  0.
         12    1    1    2    0    0 -0.34346247644E+02  0.13370189675E+02 -0.17167994709E+02  0.40659153231E+02  0.00000000000E+00 0. -1.
         11    1    3    3    0    0  0.17966399899E+02  0.17768062954E+00  0.13516022569E+02  0.22483459745E+02  0.51100000000E-03 0. -1.
        -11    1    3    3    0    0  0.10541112300E+02 -0.15271463623E+02 -0.32538253777E+01  0.18839321367E+02  0.51100000000E-03 0.  1.
        -12    1    3    3    0    0  0.58387354442E+01  0.17235933190E+01  0.69057975175E+01  0.92060656564E+01  0.00000000000E+00 0.  1.
</event>
<event>
 7    1  0.5764931E-013  0.5052886E+02  0.7816164E-02  0.1300439E+00
        -11   -1    0    0    0    0  0.00000000000E+00  0.00000000000E+00  0.45593999997E+02  0.45594000000E+02  0.51100000000E-03 0. -1.
         11   -1    0    0    0    0 -0.00000000000E+00 -0.00000000000E+00 -0.45593999997E+02  0.45594000000E+02  0.51100000000E-03 0.  1.
    9900012    2    1    2    0    0  0.26915082681E+01  0.14058198331E+02 -0.38056383975E+02  0.50528861810E+02  0.30000005958E+02 0.  0.
         12    1    1    2    0    0 -0.26915082681E+01 -0.14058198331E+02  0.38056383975E+02  0.40659138190E+02  0.00000000000E+00 0. -1.
         11    1    3    3    0    0  0.11743164426E+02  0.20457126491E+01 -0.23457794108E+02  0.26312638706E+02  0.51100000000E-03 0. -1.
        -11    1    3    3    0    0 -0.54463154233E+01 -0.14441362185E+00 -0.86195147254E+01  0.10197021200E+02  0.51100000000E-03 0.  1.
         12    1    3    3    0    0 -0.36053407349E+01  0.12156899304E+02 -0.59790751417E+01  0.14019201905E+02  0.00000000000E+00 0. -1.
</event>
<event>
 7    1  0.5764931E-013  0.5052886E+02  0.7816164E-02  0.1300439E+00
        -11   -1    0    0    0    0  0.00000000000E+00  0.00000000000E+00  0.45593999997E+02  0.45594000000E+02  0.51100000000E-03 0.  1.
         11   -1    0    0    0    0 -0.00000000000E+00 -0.00000000000E+00 -0.45593999997E+02  0.45594000000E+02  0.51100000000E-03 0. -1.
    9900012    2    1    2    0    0 -0.31443118159E+02  0.25614758154E+02 -0.28948165081E+01  0.50528862313E+02  0.30000007486E+02 0.  0.
         12    1    1    2    0    0  0.31443118159E+02 -0.25614758154E+02  0.28948165081E+01  0.40659137687E+02  0.00000000000E+00 0. -1.
         11    1    3    3    0    0  0.30445066077E+01  0.78067894351E+01 -0.46015779710E+00  0.83920633475E+01  0.51100000000E-03 0. -1.
        -11    1    3    3    0    0 -0.22072536487E+02  0.16913090963E+02  0.40514524845E+01  0.28100956930E+02  0.51100000000E-03 0.  1.
         12    1    3    3    0    0 -0.12415088280E+02  0.89487775544E+00 -0.64861111955E+01  0.14035842035E+02  0.00000000000E+00 0. -1.
</event>
<event>
 7    1  0.5764931E-013  0.5052886E+02  0.7816164E-02  0.1300439E+00
        -11   -1    0    0    0    0  0.00000000000E+00  0.00000000000E+00  0.45593999997E+02  0.45594000000E+02  0.51100000000E-03 0. -1.
         11   -1    0    0    0    0 -0.00000000000E+00 -0.00000000000E+00 -0.45593999997E+02  0.45594000000E+02  0.51100000000E-03 0.  1.
    9900012    2    1    2    0    0 -0.39177803135E+02 -0.55027863679E+01  0.93800375899E+01  0.50528855623E+02  0.29999987151E+02 0.  0.
         12    1    1    2    0    0  0.39177803135E+02  0.55027863679E+01 -0.93800375899E+01  0.40659144377E+02  0.00000000000E+00 0. -1.
         11    1    3    3    0    0  0.63347612998E+00 -0.11467520473E+01 -0.57938319434E+01  0.59401027865E+01  0.51100000000E-03 0. -1.
        -11    1    3    3    0    0 -0.33195013872E+02 -0.71606682369E+00  0.16241427575E+02  0.36962219463E+02  0.51100000000E-03 0.  1.
        -12    1    3    3    0    0 -0.66162653927E+01 -0.36399674969E+01 -0.10675580418E+01  0.76265333735E+01  0.00000000000E+00 0.  1.
</event>
<event>
 7    1  0.5764931E-013  0.5052885E+02  0.7816164E-02  0.1300439E+00
        -11   -1    0    0    0    0  0.00000000000E+00  0.00000000000E+00  0.45593999997E+02  0.45594000000E+02  0.51100000000E-03 0. -1.
         11   -1    0    0    0    0 -0.00000000000E+00 -0.00000000000E+00 -0.45593999997E+02  0.45594000000E+02  0.51100000000E-03 0.  1.
    9900012    2    1    2    0    0 -0.22463447243E+01  0.14086995715E+02 -0.38074623381E+02  0.50528850249E+02  0.29999970816E+02 0.  0.
         12    1    1    2    0    0  0.22463447243E+01 -0.14086995715E+02  0.38074623381E+02  0.40659149751E+02  0.00000000000E+00 0. -1.
         11    1    3    3    0    0  0.15449557548E+01  0.12910206254E+02 -0.71815892212E+01  0.14853805499E+02  0.51100000000E-03 0. -1.
        -11    1    3    3    0    0 -0.40605543645E+01  0.51230175002E+01 -0.31036079452E+02  0.31717055949E+02  0.51100000000E-03 0.  1.
         12    1    3    3    0    0  0.26925388537E+00 -0.39462280393E+01  0.14304529197E+00  0.39579888010E+01  0.00000000000E+00 0. -1.
</event>
<event>
 7    1  0.5764931E-013  0.5052886E+02  0.7816164E-02  0.1300439E+00
        -11   -1    0    0    0    0  0.00000000000E+00  0.00000000000E+00  0.45593999997E+02  0.45594000000E+02  0.51100000000E-03 0.  1.
         11   -1    0    0    0    0 -0.00000000000E+00 -0.00000000000E+00 -0.45593999997E+02  0.45594000000E+02  0.51100000000E-03 0. -1.
    9900012    2    1    2    0    0 -0.28196424586E+01 -0.26683397557E+02  0.30548511574E+02  0.50528860213E+02  0.30000001105E+02 0.  0.
         12    1    1    2    0    0  0.28196424586E+01  0.26683397557E+02 -0.30548511574E+02  0.40659139787E+02  0.00000000000E+00 0. -1.
         11    1    3    3    0    0 -0.12011728542E+01  0.15227312635E+01  0.99862682473E+00  0.21814633902E+01  0.51100000000E-03 0. -1.
        -11    1    3    3    0    0  0.11318117764E+02 -0.16359203728E+02  0.20665699170E+02  0.28684393994E+02  0.51100000000E-03 0.  1.
        -12    1    3    3    0    0 -0.12936587368E+02 -0.11846925092E+02  0.88841855797E+01  0.19663002830E+02  0.00000000000E+00 0.  1.
</event>
<event>
 7    1  0.5764931E-013  0.5052886E+02  0.7816164E-02  0.1300439E+00
        -11   -1    0    0    0    0  0.00000000000E+00  0.00000000000E+00  0.45593999997E+02  0.45594000000E+02  0.51100000000E-03 0.  1.
         11   -1    0    0    0    0 -0.00000000000E+00 -0.00000000000E+00 -0.45593999997E+02  0.45594000000E+02  0.51100000000E-03 0. -1.
    9900012    2    1    2    0    0 -0.64972760131E+01 -0.38827326012E+02  0.10168068126E+02  0.50528862648E+02  0.30000008504E+02 0.  0.
         12    1    1    2    0    0  0.64972760131E+01  0.38827326012E+02 -0.10168068126E+02  0.40659137352E+02  0.00000000000E+00 0. -1.
         11    1    3    3    0    0  0.23459961093E+01 -0.10881080019E+01  0.95519889152E+01  0.98958662716E+01  0.51100000000E-03 0.  1.
        -11    1    3    3    0    0 -0.46936740759E+01 -0.29717442994E+02 -0.42328535331E+01  0.30382133627E+02  0.51100000000E-03 0. -1.
         12    1    3    3    0    0 -0.41495980465E+01 -0.80217750159E+01  0.48489327435E+01  0.10250862749E+02  0.00000000000E+00 0. -1.
</event>
<event>
 7    1  0.5764931E-013  0.5052887E+02  0.7816164E-02  0.1300439E+00
        -11   -1    0    0    0    0  0.00000000000E+00  0.00000000000E+00  0.45593999997E+02  0.45594000000E+02  0.51100000000E-03 0. -1.
         11   -1    0    0    0    0 -0.00000000000E+00 -0.00000000000E+00 -0.45593999997E+02  0.45594000000E+02  0.51100000000E-03 0.  1.
    9900012    2    1    2    0    0 -0.17840274549E+02  0.78265549148E+01 -0.35688019091E+02  0.50528867392E+02  0.30000022925E+02 0.  0.
         12    1    1    2    0    0  0.17840274549E+02 -0.78265549148E+01  0.35688019091E+02  0.40659132608E+02  0.00000000000E+00 0. -1.
         11    1    3    3    0    0  0.64660257830E+01  0.14162797863E+01 -0.22950954911E+01  0.70059118917E+01  0.51100000000E-03 0. -1.
        -11    1    3    3    0    0 -0.15047624100E+02  0.98794165183E+01 -0.20660070192E+02  0.27402050332E+02  0.51100000000E-03 0.  1.
         12    1    3    3    0    0 -0.92586762321E+01 -0.34691413898E+01 -0.12732853408E+02  0.16120905169E+02  0.00000000000E+00 0. -1.
</event>
<event>
 7    1  0.5764931E-013  0.5052886E+02  0.7816164E-02  0.1300439E+00
        -11   -1    0    0    0    0  0.00000000000E+00  0.00000000000E+00  0.45593999997E+02  0.45594000000E+02  0.51100000000E-03 0.  1.
         11   -1    0    0    0    0 -0.00000000000E+00 -0.00000000000E+00 -0.45593999997E+02  0.45594000000E+02  0.51100000000E-03 0. -1.
    9900012    2    1    2    0    0  0.16490723736E+02 -0.18090219307E+02  0.32464831809E+02  0.50528864393E+02  0.30000013808E+02 0.  0.
         12    1    1    2    0    0 -0.16490723736E+02  0.18090219307E+02 -0.32464831809E+02  0.40659135607E+02  0.00000000000E+00 0. -1.
         11    1    3    3    0    0  0.24967364052E+01 -0.29685038161E+01 -0.57230747964E+01  0.69137032746E+01  0.51100000000E-03 0. -1.
        -11    1    3    3    0    0  0.11966767968E+02 -0.14603440999E+02  0.35504791851E+02  0.40212613310E+02  0.51100000000E-03 0.  1.
         12    1    3    3    0    0  0.20272193633E+01 -0.51827449153E+00  0.26831147553E+01  0.34025478080E+01  0.00000000000E+00 0. -1.
</event>
<event>
 7    1  0.5764931E-013  0.5052888E+02  0.7816164E-02  0.1300439E+00
        -11   -1    0    0    0    0  0.00000000000E+00  0.00000000000E+00  0.45593999997E+02  0.45594000000E+02  0.51100000000E-03 0.  1.
         11   -1    0    0    0    0 -0.00000000000E+00 -0.00000000000E+00 -0.45593999997E+02  0.45594000000E+02  0.51100000000E-03 0. -1.
    9900012    2    1    2    0    0 -0.20255444045E+02  0.26970638085E+02  0.22703878203E+02  0.50528875346E+02  0.30000047101E+02 0.  0.
         12    1    1    2    0    0  0.20255444045E+02 -0.26970638085E+02 -0.22703878203E+02  0.40659124654E+02  0.00000000000E+00 0. -1.
         11    1    3    3    0    0  0.26841194894E+01  0.48418789607E+01  0.41990404994E+01  0.69483977059E+01  0.51100000000E-03 0. -1.
        -11    1    3    3    0    0 -0.26870420891E+02  0.13808162613E+02  0.15040275167E+02  0.33747514738E+02  0.51100000000E-03 0.  1.
        -12    1    3    3    0    0  0.39308573566E+01  0.83205965117E+01  0.34645625365E+01  0.98329629023E+01  0.00000000000E+00 0.  1.
</event>
<event>
 7    1  0.5764931E-013  0.5052884E+02  0.7816164E-02  0.1300439E+00
        -11   -1    0    0    0    0  0.00000000000E+00  0.00000000000E+00  0.45593999997E+02  0.45594000000E+02  0.51100000000E-03 0. -1.
         11   -1    0    0    0    0 -0.00000000000E+00 -0.00000000000E+00 -0.45593999997E+02  0.45594000000E+02  0.51100000000E-03 0.  1.
    9900012    2    1    2    0    0 -0.38118870781E+02 -0.14083272050E+02 -0.13342454820E+01  0.50528842701E+02  0.29999947874E+02 0.  0.
         12    1    1    2    0    0  0.38118870781E+02  0.14083272050E+02  0.13342454820E+01  0.40659157299E+02  0.00000000000E+00 0. -1.
         11    1    3    3    0    0 -0.67594072855E+01  0.67362329749E+01  0.20865518775E+01  0.97683222992E+01  0.51100000000E-03 0.  1.
        -11    1    3    3    0    0 -0.21328750573E+02 -0.18251494938E+02 -0.83575718655E+01  0.29289617209E+02  0.51100000000E-03 0. -1.
         12    1    3    3    0    0 -0.10030712922E+02 -0.25680100866E+01  0.49367745060E+01  0.11470903193E+02  0.00000000000E+00 0. -1.
</event>
<event>
 7    1  0.5764931E-013  0.5052889E+02  0.7816164E-02  0.1300439E+00
        -11   -1    0    0    0    0  0.00000000000E+00  0.00000000000E+00  0.45593999997E+02  0.45594000000E+02  0.51100000000E-03 0. -1.
         11   -1    0    0    0    0 -0.00000000000E+00 -0.00000000000E+00 -0.45593999997E+02  0.45594000000E+02  0.51100000000E-03 0.  1.
    9900012    2    1    2    0    0 -0.37086395281E+02  0.16356060597E+02  0.32002562768E+01  0.50528891876E+02  0.30000097347E+02 0.  0.
         12    1    1    2    0    0  0.37086395281E+02 -0.16356060597E+02 -0.32002562768E+01  0.40659108124E+02  0.00000000000E+00 0. -1.
         11    1    3    3    0    0 -0.20881422470E+02 -0.43395178486E+01 -0.11438004011E+01  0.21358218539E+02  0.51100000000E-03 0. -1.
        -11    1    3    3    0    0 -0.12360291569E+02  0.19308392606E+02  0.73743393038E+01  0.24082601876E+02  0.51100000000E-03 0.  1.
         12    1    3    3    0    0 -0.38446812419E+01  0.13871858400E+01 -0.30302826258E+01  0.50880714616E+01  0.00000000000E+00 0. -1.
</event>
<event>
 7    1  0.5764931E-013  0.5052886E+02  0.7816164E-02  0.1300439E+00
        -11   -1    0    0    0    0  0.00000000000E+00  0.00000000000E+00  0.45593999997E+02  0.45594000000E+02  0.51100000000E-03 0. -1.
         11   -1    0    0    0    0 -0.00000000000E+00 -0.00000000000E+00 -0.45593999997E+02  0.45594000000E+02  0.51100000000E-03 0.  1.
    9900012    2    1    2    0    0 -0.25717308938E+02 -0.10192521559E+02 -0.29797625203E+02  0.50528856595E+02  0.29999990105E+02 0.  0.
         12    1    1    2    0    0  0.25717308938E+02  0.10192521559E+02  0.29797625203E+02  0.40659143405E+02  0.00000000000E+00 0. -1.
         11    1    3    3    0    0 -0.43390164394E+01 -0.55658593407E+01  0.51520913461E+01  0.87378429467E+01  0.51100000000E-03 0. -1.
        -11    1    3    3    0    0 -0.66753100365E+01 -0.44523265060E+01 -0.98858848462E+01  0.12732387634E+02  0.51100000000E-03 0.  1.
         12    1    3    3    0    0 -0.14702982462E+02 -0.17433571259E+00 -0.25063831703E+02  0.29058626014E+02  0.00000000000E+00 0. -1.
</event>
<event>
 7    1  0.5764931E-013  0.5052886E+02  0.7816164E-02  0.1300439E+00
        -11   -1    0    0    0    0  0.00000000000E+00  0.00000000000E+00  0.45593999997E+02  0.45594000000E+02  0.51100000000E-03 0.  1.
         11   -1    0    0    0    0 -0.00000000000E+00 -0.00000000000E+00 -0.45593999997E+02  0.45594000000E+02  0.51100000000E-03 0. -1.
    9900012    2    1    2    0    0 -0.23876518901E+02 -0.27314759203E+02  0.18357051649E+02  0.50528861170E+02  0.30000004012E+02 0.  0.
         12    1    1    2    0    0  0.23876518901E+02  0.27314759203E+02 -0.18357051649E+02  0.40659138830E+02  0.00000000000E+00 0. -1.
         11    1    3    3    0    0 -0.10704322323E+02 -0.70192020494E+01 -0.18030643467E+01  0.12926823086E+02  0.51100000000E-03 0. -1.
        -11    1    3    3    0    0 -0.12144943157E+02 -0.19076727860E+02  0.24282484918E+02  0.33182228137E+02  0.51100000000E-03 0.  1.
        -12    1    3    3    0    0 -0.10272534211E+01 -0.12188292938E+01 -0.41223689215E+01  0.44198099465E+01  0.00000000000E+00 0.  1.
</event>
<event>
 7    1  0.5764931E-013  0.5052884E+02  0.7816164E-02  0.1300439E+00
        -11   -1    0    0    0    0  0.00000000000E+00  0.00000000000E+00  0.45593999997E+02  0.45594000000E+02  0.51100000000E-03 0.  1.
         11   -1    0    0    0    0 -0.00000000000E+00 -0.00000000000E+00 -0.45593999997E+02  0.45594000000E+02  0.51100000000E-03 0. -1.
    9900012    2    1    2    0    0  0.21989817931E+02  0.26555122596E+02  0.21550884529E+02  0.50528840482E+02  0.29999941129E+02 0.  0.
         12    1    1    2    0    0 -0.21989817931E+02 -0.26555122596E+02 -0.21550884529E+02  0.40659159518E+02  0.00000000000E+00 0. -1.
         11    1    3    3    0    0  0.22392475934E+01  0.21418140269E+01 -0.25801664746E+01  0.40322272267E+01  0.51100000000E-03 0. -1.
        -11    1    3    3    0    0 -0.73841753928E+00  0.12805475513E+02  0.18106627731E+02  0.22189534281E+02  0.51100000000E-03 0.  1.
        -12    1    3    3    0    0  0.20488987877E+02  0.11607833056E+02  0.60244232729E+01  0.24307078974E+02  0.00000000000E+00 0.  1.
</event>
<event>
 7    1  0.5764931E-013  0.5052886E+02  0.7816164E-02  0.1300439E+00
        -11   -1    0    0    0    0  0.00000000000E+00  0.00000000000E+00  0.45593999997E+02  0.45594000000E+02  0.51100000000E-03 0. -1.
         11   -1    0    0    0    0 -0.00000000000E+00 -0.00000000000E+00 -0.45593999997E+02  0.45594000000E+02  0.51100000000E-03 0.  1.
    9900012    2    1    2    0    0 -0.16352209026E+02  0.37076028667E+02 -0.33374622382E+01  0.50528864545E+02  0.30000014271E+02 0.  0.
         12    1    1    2    0    0  0.16352209026E+02 -0.37076028667E+02  0.33374622382E+01  0.40659135455E+02  0.00000000000E+00 0. -1.
         11    1    3    3    0    0 -0.47488235295E+01  0.58768327403E+01  0.11184570564E+02  0.13497522251E+02  0.51100000000E-03 0. -1.
        -11    1    3    3    0    0 -0.95927965486E+01  0.29710699363E+02 -0.11912448747E+02  0.33416370803E+02  0.51100000000E-03 0.  1.
         12    1    3    3    0    0 -0.20105889479E+01  0.14884965636E+01 -0.26095840549E+01  0.36149714905E+01  0.00000000000E+00 0. -1.
</event>
<event>
 7    1  0.5764931E-013  0.5052888E+02  0.7816164E-02  0.1300439E+00
        -11   -1    0    0    0    0  0.00000000000E+00  0.00000000000E+00  0.45593999997E+02  0.45594000000E+02  0.51100000000E-03 0.  1.
         11   -1    0    0    0    0 -0.00000000000E+00 -0.00000000000E+00 -0.45593999997E+02  0.45594000000E+02  0.51100000000E-03 0. -1.
    9900012    2    1    2    0    0 -0.12662232189E+02  0.28288579637E+02  0.26317076587E+02  0.50528875784E+02  0.30000048434E+02 0.  0.
         12    1    1    2    0    0  0.12662232189E+02 -0.28288579637E+02 -0.26317076587E+02  0.40659124216E+02  0.00000000000E+00 0. -1.
         11    1    3    3    0    0 -0.49071034086E+01 -0.25832285665E+01 -0.20713524472E+01  0.59197326723E+01  0.51100000000E-03 0. -1.
        -11    1    3    3    0    0 -0.89626777464E+01  0.23399726430E+02  0.14929604228E+02  0.29167959683E+02  0.51100000000E-03 0.  1.
        -12    1    3    3    0    0  0.12075489661E+01  0.74720817737E+01  0.13458824806E+02  0.15441183429E+02  0.00000000000E+00 0.  1.
</event>
<event>
 7    1  0.5764931E-013  0.5052887E+02  0.7816164E-02  0.1300439E+00
        -11   -1    0    0    0    0  0.00000000000E+00  0.00000000000E+00  0.45593999997E+02  0.45594000000E+02  0.51100000000E-03 0. -1.
         11   -1    0    0    0    0 -0.00000000000E+00 -0.00000000000E+00 -0.45593999997E+02  0.45594000000E+02  0.51100000000E-03 0.  1.
    9900012    2    1    2    0    0 -0.10986399065E+02 -0.21534439270E+02 -0.32691466961E+02  0.50528867555E+02  0.30000023421E+02 0.  0.
         12    1    1    2    0    0  0.10986399065E+02  0.21534439270E+02  0.32691466961E+02  0.40659132445E+02  0.00000000000E+00 0. -1.
         11    1    3    3    0    0 -0.59224441569E+01  0.44229218903E+01 -0.35191346060E+01  0.81866898974E+01  0.51100000000E-03 0. -1.
        -11    1    3    3    0    0 -0.92258997299E+01 -0.23208218328E+02 -0.27335972851E+02  0.37026936624E+02  0.51100000000E-03 0.  1.
        -12    1    3    3    0    0  0.41619448223E+01 -0.27491428320E+01 -0.18363595044E+01  0.53152410335E+01  0.00000000000E+00 0.  1.
</event>
<event>
 7    1  0.5764931E-013  0.5052886E+02  0.7816164E-02  0.1300439E+00
        -11   -1    0    0    0    0  0.00000000000E+00  0.00000000000E+00  0.45593999997E+02  0.45594000000E+02  0.51100000000E-03 0. -1.
         11   -1    0    0    0    0 -0.00000000000E+00 -0.00000000000E+00 -0.45593999997E+02  0.45594000000E+02  0.51100000000E-03 0.  1.
    9900012    2    1    2    0    0  0.53216617660E+00 -0.39956066518E+02 -0.75096631810E+01  0.50528862116E+02  0.30000006887E+02 0.  0.
         12    1    1    2    0    0 -0.53216617660E+00  0.39956066518E+02  0.75096631810E+01  0.40659137884E+02  0.00000000000E+00 0. -1.
         11    1    3    3    0    0 -0.83945011796E+01 -0.94885031385E+01 -0.89971921493E+01  0.15538623127E+02  0.51100000000E-03 0. -1.
        -11    1    3    3    0    0  0.11255719097E+02 -0.16903117551E+02 -0.29691469000E+01  0.20523704074E+02  0.51100000000E-03 0.  1.
         12    1    3    3    0    0 -0.23290517410E+01 -0.13564445828E+02  0.44566758683E+01  0.14466534914E+02  0.00000000000E+00 0. -1.
</event>
<event>
 7    1  0.5764931E-013  0.5052885E+02  0.7816164E-02  0.1300439E+00
        -11   -1    0    0    0    0  0.00000000000E+00  0.00000000000E+00  0.45593999997E+02  0.45594000000E+02  0.51100000000E-03 0.  1.
         11   -1    0    0    0    0 -0.00000000000E+00 -0.00000000000E+00 -0.45593999997E+02  0.45594000000E+02  0.51100000000E-03 0. -1.
    9900012    2    1    2    0    0  0.26653447469E+02  0.68741053616E+01  0.29925019843E+02  0.50528850979E+02  0.29999973035E+02 0.  0.
         12    1    1    2    0    0 -0.26653447469E+02 -0.68741053616E+01 -0.29925019843E+02  0.40659149021E+02  0.00000000000E+00 0. -1.
         11    1    3    3    0    0  0.22723528164E+01 -0.21609625209E+01 -0.51410806624E+01  0.60219645447E+01  0.51100000000E-03 0. -1.
        -11    1    3    3    0    0  0.38611562617E+01 -0.13683423266E+01  0.79703949506E+01  0.89614777983E+01  0.51100000000E-03 0.  1.
         12    1    3    3    0    0  0.20519938391E+02  0.10403410209E+02  0.27095705555E+02  0.35545408636E+02  0.00000000000E+00 0. -1.
</event>
<event>
 7    1  0.5764931E-013  0.5052887E+02  0.7816164E-02  0.1300439E+00
        -11   -1    0    0    0    0  0.00000000000E+00  0.00000000000E+00  0.45593999997E+02  0.45594000000E+02  0.51100000000E-03 0.  1.
         11   -1    0    0    0    0 -0.00000000000E+00 -0.00000000000E+00 -0.45593999997E+02  0.45594000000E+02  0.51100000000E-03 0. -1.
    9900012    2    1    2    0    0  0.25600009543E+02  0.27629315188E+01  0.31466981447E+02  0.50528865718E+02  0.30000017835E+02 0.  0.
         12    1    1    2    0    0 -0.25600009543E+02 -0.27629315188E+01 -0.31466981447E+02  0.40659134282E+02  0.00000000000E+00 0. -1.
         11    1    3    3    0    0  0.28528352288E+01  0.68233116872E+01  0.25499291073E+02  0.26550143063E+02  0.51100000000E-03 0. -1.
        -11    1    3    3    0    0  0.89986048826E+01 -0.26224701769E+01  0.29876802758E+01  0.98376050619E+01  0.51100000000E-03 0.  1.
         12    1    3    3    0    0  0.13748569432E+02 -0.14379099915E+01  0.29800100986E+01  0.14141117592E+02  0.00000000000E+00 0. -1.
</event>
<event>
 7    1  0.5764931E-013  0.5052885E+02  0.7816164E-02  0.1300439E+00
        -11   -1    0    0    0    0  0.00000000000E+00  0.00000000000E+00  0.45593999997E+02  0.45594000000E+02  0.51100000000E-03 0.  1.
         11   -1    0    0    0    0 -0.00000000000E+00 -0.00000000000E+00 -0.45593999997E+02  0.45594000000E+02  0.51100000000E-03 0. -1.
    9900012    2    1    2    0    0  0.24316428661E+02  0.19067490538E+02  0.26425524643E+02  0.50528852802E+02  0.29999978577E+02 0.  0.
         12    1    1    2    0    0 -0.24316428661E+02 -0.19067490538E+02 -0.26425524643E+02  0.40659147198E+02  0.00000000000E+00 0. -1.
         11    1    3    3    0    0  0.18090213855E+02  0.17474450564E+02  0.63292124896E+01  0.25935905437E+02  0.51100000000E-03 0. -1.
        -11    1    3    3    0    0  0.92491967769E+01 -0.10150192286E+01  0.96293878433E+01  0.13390407595E+02  0.51100000000E-03 0.  1.
         12    1    3    3    0    0 -0.30229819707E+01  0.26080592019E+01  0.10466924310E+02  0.11202539770E+02  0.00000000000E+00 0. -1.
</event>
<event>
 7    1  0.5764931E-013  0.5052886E+02  0.7816164E-02  0.1300439E+00
        -11   -1    0    0    0    0  0.00000000000E+00  0.00000000000E+00  0.45593999997E+02  0.45594000000E+02  0.51100000000E-03 0. -1.
         11   -1    0    0    0    0 -0.00000000000E+00 -0.00000000000E+00 -0.45593999997E+02  0.45594000000E+02  0.51100000000E-03 0.  1.
    9900012    2    1    2    0    0 -0.17398709858E+02  0.33196551995E+02  0.15761966233E+02  0.50528858978E+02  0.29999997349E+02 0.  0.
         12    1    1    2    0    0  0.17398709858E+02 -0.33196551995E+02 -0.15761966233E+02  0.40659141022E+02  0.00000000000E+00 0. -1.
         11    1    3    3    0    0 -0.63773752563E+01  0.68699167027E+01  0.42002231575E+01  0.10271735272E+02  0.51100000000E-03 0. -1.
        -11    1    3    3    0    0  0.85134689615E+01  0.82635042123E+01  0.48503625094E+01  0.12817592300E+02  0.51100000000E-03 0.  1.
        -12    1    3    3    0    0 -0.19534803564E+02  0.18063131080E+02  0.67113805664E+01  0.27439531406E+02  0.00000000000E+00 0.  1.
</event>
<event>
 7    1  0.5764931E-013  0.5052886E+02  0.7816164E-02  0.1300439E+00
        -11   -1    0    0    0    0  0.00000000000E+00  0.00000000000E+00  0.45593999997E+02  0.45594000000E+02  0.51100000000E-03 0.  1.
         11   -1    0    0    0    0 -0.00000000000E+00 -0.00000000000E+00 -0.45593999997E+02  0.45594000000E+02  0.51100000000E-03 0. -1.
    9900012    2    1    2    0    0 -0.74335332183E+01 -0.22310073934E+02  0.33168793758E+02  0.50528859646E+02  0.29999999379E+02 0.  0.
         12    1    1    2    0    0  0.74335332183E+01  0.22310073934E+02 -0.33168793758E+02  0.40659140354E+02  0.00000000000E+00 0. -1.
         11    1    3    3    0    0 -0.87266426232E+00 -0.25145014978E+01 -0.29975956325E+01  0.40087205608E+01  0.51100000000E-03 0. -1.
        -11    1    3    3    0    0  0.43910151734E+01 -0.17348494716E+02  0.24415741713E+02  0.30271764514E+02  0.51100000000E-03 0.  1.
        -12    1    3    3    0    0 -0.10951884129E+02 -0.24470777201E+01  0.11750647677E+02  0.16248374571E+02  0.00000000000E+00 0.  1.
</event>
<event>
 7    1  0.5764931E-013  0.5052892E+02  0.7816164E-02  0.1300439E+00
        -11   -1    0    0    0    0  0.00000000000E+00  0.00000000000E+00  0.45593999997E+02  0.45594000000E+02  0.51100000000E-03 0.  1.
         11   -1    0    0    0    0 -0.00000000000E+00 -0.00000000000E+00 -0.45593999997E+02  0.45594000000E+02  0.51100000000E-03 0. -1.
    9900012    2    1    2    0    0  0.68905368832E+01 -0.40069752500E+02 -0.31010822361E+00  0.50528920681E+02  0.30000184901E+02 0.  0.
         12    1    1    2    0    0 -0.68905368832E+01  0.40069752500E+02  0.31010822361E+00  0.40659079319E+02  0.00000000000E+00 0. -1.
         11    1    3    3    0    0  0.76739249419E+01 -0.13201270156E+02  0.86197432743E+00  0.15293974557E+02  0.51100000000E-03 0. -1.
        -11    1    3    3    0    0 -0.44232654379E+01  0.19093392661E+01 -0.37618406455E+01  0.61124707665E+01  0.51100000000E-03 0.  1.
        -12    1    3    3    0    0  0.36398773793E+01 -0.28777821610E+02  0.25897580945E+01  0.29122475357E+02  0.00000000000E+00 0.  1.
</event>
<event>
 7    1  0.5764931E-013  0.5052884E+02  0.7816164E-02  0.1300439E+00
        -11   -1    0    0    0    0  0.00000000000E+00  0.00000000000E+00  0.45593999997E+02  0.45594000000E+02  0.51100000000E-03 0.  1.
         11   -1    0    0    0    0 -0.00000000000E+00 -0.00000000000E+00 -0.45593999997E+02  0.45594000000E+02  0.51100000000E-03 0. -1.
    9900012    2    1    2    0    0  0.11304283842E+01 -0.18809590238E+02  0.36029003731E+02  0.50528835436E+02  0.29999925790E+02 0.  0.
         12    1    1    2    0    0 -0.11304283842E+01  0.18809590238E+02 -0.36029003731E+02  0.40659164564E+02  0.00000000000E+00 0. -1.
         11    1    3    3    0    0  0.83315330204E+01  0.21365510243E+01  0.54933250672E+01  0.10205680443E+02  0.51100000000E-03 0. -1.
        -11    1    3    3    0    0 -0.80379477297E+01 -0.36616838559E+01  0.12726783475E+02  0.15491531566E+02  0.51100000000E-03 0.  1.
         12    1    3    3    0    0  0.83684309348E+00 -0.17284457406E+02  0.17808895188E+02  0.24831623427E+02  0.00000000000E+00 0. -1.
</event>
<event>
 7    1  0.5764931E-013  0.5052886E+02  0.7816164E-02  0.1300439E+00
        -11   -1    0    0    0    0  0.00000000000E+00  0.00000000000E+00  0.45593999997E+02  0.45594000000E+02  0.51100000000E-03 0.  1.
         11   -1    0    0    0    0 -0.00000000000E+00 -0.00000000000E+00 -0.45593999997E+02  0.45594000000E+02  0.51100000000E-03 0. -1.
    9900012    2    1    2    0    0 -0.27909106407E+02 -0.29551440163E+02 -0.97956431274E+00  0.50528863482E+02  0.30000011040E+02 0.  0.
         12    1    1    2    0    0  0.27909106407E+02  0.29551440163E+02  0.97956431274E+00  0.40659136518E+02  0.00000000000E+00 0. -1.
         11    1    3    3    0    0  0.14350215357E+01  0.40045831082E+01 -0.30510004025E+01  0.52349380508E+01  0.51100000000E-03 0. -1.
        -11    1    3    3    0    0 -0.11801001886E+02 -0.88301731386E+01  0.26295753196E+01  0.14971648867E+02  0.51100000000E-03 0.  1.
         12    1    3    3    0    0 -0.17543126056E+02 -0.24725850133E+02 -0.55813922988E+00  0.30322276564E+02  0.00000000000E+00 0. -1.
</event>
<event>
 7    1  0.5764931E-013  0.5052886E+02  0.7816164E-02  0.1300439E+00
        -11   -1    0    0    0    0  0.00000000000E+00  0.00000000000E+00  0.45593999997E+02  0.45594000000E+02  0.51100000000E-03 0.  1.
         11   -1    0    0    0    0 -0.00000000000E+00 -0.00000000000E+00 -0.45593999997E+02  0.45594000000E+02  0.51100000000E-03 0. -1.
    9900012    2    1    2    0    0  0.39750915317E+01  0.13421231357E+02  0.38173749555E+02  0.50528856392E+02  0.29999989490E+02 0.  0.
         12    1    1    2    0    0 -0.39750915317E+01 -0.13421231357E+02 -0.38173749555E+02  0.40659143608E+02  0.00000000000E+00 0. -1.
         11    1    3    3    0    0  0.62345631549E+01 -0.26025416928E+01  0.22816673569E+01  0.71308489805E+01  0.51100000000E-03 0. -1.
        -11    1    3    3    0    0 -0.81481836278E+01  0.15027335550E+02  0.19394654538E+02  0.25852781960E+02  0.51100000000E-03 0.  1.
        -12    1    3    3    0    0  0.58887120046E+01  0.99643750051E+00  0.16497427660E+02  0.17545225452E+02  0.00000000000E+00 0.  1.
</event>
<event>
 7    1  0.5764931E-013  0.5052886E+02  0.7816164E-02  0.1300439E+00
        -11   -1    0    0    0    0  0.00000000000E+00  0.00000000000E+00  0.45593999997E+02  0.45594000000E+02  0.51100000000E-03 0.  1.
         11   -1    0    0    0    0 -0.00000000000E+00 -0.00000000000E+00 -0.45593999997E+02  0.45594000000E+02  0.51100000000E-03 0. -1.
    9900012    2    1    2    0    0  0.25924371163E+02  0.18490295794E+02  0.25282435164E+02  0.50528860971E+02  0.30000003407E+02 0.  0.
         12    1    1    2    0    0 -0.25924371163E+02 -0.18490295794E+02 -0.25282435164E+02  0.40659139029E+02  0.00000000000E+00 0. -1.
         11    1    3    3    0    0  0.12776465368E+02  0.32156992504E+01  0.45839450366E+01  0.13949600042E+02  0.51100000000E-03 0. -1.
        -11    1    3    3    0    0  0.66721267084E+01  0.17407377196E+02  0.22793976922E+02  0.29446552257E+02  0.51100000000E-03 0.  1.
        -12    1    3    3    0    0  0.64757790867E+01 -0.21327806521E+01 -0.20954867943E+01  0.71327086716E+01  0.00000000000E+00 0.  1.
</event>
<event>
 7    1  0.5764931E-013  0.5052886E+02  0.7816164E-02  0.1300439E+00
        -11   -1    0    0    0    0  0.00000000000E+00  0.00000000000E+00  0.45593999997E+02  0.45594000000E+02  0.51100000000E-03 0. -1.
         11   -1    0    0    0    0 -0.00000000000E+00 -0.00000000000E+00 -0.45593999997E+02  0.45594000000E+02  0.51100000000E-03 0.  1.
    9900012    2    1    2    0    0 -0.29230514325E+02 -0.25838746951E+02 -0.11449973399E+02  0.50528859545E+02  0.29999999072E+02 0.  0.
         12    1    1    2    0    0  0.29230514325E+02  0.25838746951E+02  0.11449973399E+02  0.40659140455E+02  0.00000000000E+00 0. -1.
         11    1    3    3    0    0  0.20248637230E+00 -0.16240497344E+01  0.53313353545E+01  0.55768875902E+01  0.51100000000E-03 0. -1.
        -11    1    3    3    0    0 -0.21685175471E+02 -0.75543620796E+01 -0.63567904623E+01  0.23826959665E+02  0.51100000000E-03 0.  1.
        -12    1    3    3    0    0 -0.77478252262E+01 -0.16660335137E+02 -0.10424518291E+02  0.21125012289E+02  0.00000000000E+00 0.  1.
</event>
<event>
 7    1  0.5764931E-013  0.5052887E+02  0.7816164E-02  0.1300439E+00
        -11   -1    0    0    0    0  0.00000000000E+00  0.00000000000E+00  0.45593999997E+02  0.45594000000E+02  0.51100000000E-03 0.  1.
         11   -1    0    0    0    0 -0.00000000000E+00 -0.00000000000E+00 -0.45593999997E+02  0.45594000000E+02  0.51100000000E-03 0. -1.
    9900012    2    1    2    0    0 -0.24372924221E+02 -0.46842559345E+01  0.32205324787E+02  0.50528872693E+02  0.30000039037E+02 0.  0.
         12    1    1    2    0    0  0.24372924221E+02  0.46842559345E+01 -0.32205324787E+02  0.40659127307E+02  0.00000000000E+00 0. -1.
         11    1    3    3    0    0 -0.16392218154E+02 -0.74144890529E+01  0.21808594996E+02  0.28271793008E+02  0.51100000000E-03 0.  1.
        -11    1    3    3    0    0 -0.71706128320E+01  0.24410732916E+01 -0.34925937696E+01  0.83411473253E+01  0.51100000000E-03 0. -1.
         12    1    3    3    0    0 -0.81009323497E+00  0.28915982681E+00  0.13889323561E+02  0.13915932359E+02  0.00000000000E+00 0. -1.
</event>
<event>
 7    1  0.5764931E-013  0.5052887E+02  0.7816164E-02  0.1300439E+00
        -11   -1    0    0    0    0  0.00000000000E+00  0.00000000000E+00  0.45593999997E+02  0.45594000000E+02  0.51100000000E-03 0.  1.
         11   -1    0    0    0    0 -0.00000000000E+00 -0.00000000000E+00 -0.45593999997E+02  0.45594000000E+02  0.51100000000E-03 0. -1.
    9900012    2    1    2    0    0 -0.21862349344E+02  0.29193554158E+02  0.17970510442E+02  0.50528866109E+02  0.30000019025E+02 0.  0.
         12    1    1    2    0    0  0.21862349344E+02 -0.29193554158E+02 -0.17970510442E+02  0.40659133891E+02  0.00000000000E+00 0. -1.
         11    1    3    3    0    0 -0.37912141849E+01  0.18316734512E+02  0.25566879758E+01  0.18878896203E+02  0.51100000000E-03 0. -1.
        -11    1    3    3    0    0 -0.18196823802E+02  0.40182737608E+01  0.52012611322E+01  0.19347455598E+02  0.51100000000E-03 0.  1.
         12    1    3    3    0    0  0.12568864257E+00  0.68585458849E+01  0.10212561334E+02  0.12302514308E+02  0.00000000000E+00 0. -1.
</event>
<event>
 7    1  0.5764931E-013  0.5052888E+02  0.7816164E-02  0.1300439E+00
        -11   -1    0    0    0    0  0.00000000000E+00  0.00000000000E+00  0.45593999997E+02  0.45594000000E+02  0.51100000000E-03 0. -1.
         11   -1    0    0    0    0 -0.00000000000E+00 -0.00000000000E+00 -0.45593999997E+02  0.45594000000E+02  0.51100000000E-03 0.  1.
    9900012    2    1    2    0    0 -0.37290816476E+02 -0.13780747837E+02  0.85235223209E+01  0.50528875106E+02  0.30000046372E+02 0.  0.
         12    1    1    2    0    0  0.37290816476E+02  0.13780747837E+02 -0.85235223209E+01  0.40659124894E+02  0.00000000000E+00 0. -1.
         11    1    3    3    0    0 -0.25625285722E+02  0.17971919586E+00 -0.21597431420E+01  0.25716766087E+02  0.51100000000E-03 0. -1.
        -11    1    3    3    0    0  0.11064631945E+01 -0.73553196119E+01  0.10675126293E+01  0.75142911089E+01  0.51100000000E-03 0.  1.
         12    1    3    3    0    0 -0.12771993949E+02 -0.66051474206E+01  0.96157528335E+01  0.17297817910E+02  0.00000000000E+00 0. -1.
</event>
<event>
 7    1  0.5764931E-013  0.5052887E+02  0.7816164E-02  0.1300439E+00
        -11   -1    0    0    0    0  0.00000000000E+00  0.00000000000E+00  0.45593999997E+02  0.45594000000E+02  0.51100000000E-03 0. -1.
         11   -1    0    0    0    0 -0.00000000000E+00 -0.00000000000E+00 -0.45593999997E+02  0.45594000000E+02  0.51100000000E-03 0.  1.
    9900012    2    1    2    0    0 -0.34135925316E+02  0.16072201605E+02 -0.15152166933E+02  0.50528865425E+02  0.30000016945E+02 0.  0.
         12    1    1    2    0    0  0.34135925316E+02 -0.16072201605E+02  0.15152166933E+02  0.40659134575E+02  0.00000000000E+00 0. -1.
         11    1    3    3    0    0  0.37648477887E+01  0.20397176160E+01 -0.10838549741E+01  0.44169297811E+01  0.51100000000E-03 0. -1.
        -11    1    3    3    0    0 -0.34994351646E+02  0.62588009188E+01 -0.10412552984E+02  0.37043197702E+02  0.51100000000E-03 0.  1.
        -12    1    3    3    0    0 -0.29064214589E+01  0.77736830705E+01 -0.36557589746E+01  0.90687379418E+01  0.00000000000E+00 0.  1.
</event>
<event>
 7    1  0.5764931E-013  0.5052887E+02  0.7816164E-02  0.1300439E+00
        -11   -1    0    0    0    0  0.00000000000E+00  0.00000000000E+00  0.45593999997E+02  0.45594000000E+02  0.51100000000E-03 0.  1.
         11   -1    0    0    0    0 -0.00000000000E+00 -0.00000000000E+00 -0.45593999997E+02  0.45594000000E+02  0.51100000000E-03 0. -1.
    9900012    2    1    2    0    0 -0.17300604342E+01 -0.35571299301E+02  0.19617713187E+02  0.50528866785E+02  0.30000021080E+02 0.  0.
         12    1    1    2    0    0  0.17300604342E+01  0.35571299301E+02 -0.19617713187E+02  0.40659133215E+02  0.00000000000E+00 0. -1.
         11    1    3    3    0    0  0.98785777085E+01 -0.71002682738E+01  0.60706462405E+01  0.13596060207E+02  0.51100000000E-03 0. -1.
        -11    1    3    3    0    0 -0.66870105723E+01 -0.27487898999E+02  0.14554159228E+02  0.31813900309E+02  0.51100000000E-03 0.  1.
         12    1    3    3    0    0 -0.49216275704E+01 -0.98313202844E+00 -0.10070922818E+01  0.51189062691E+01  0.00000000000E+00 0. -1.
</event>
<event>
 7    1  0.5764931E-013  0.5052886E+02  0.7816164E-02  0.1300439E+00
        -11   -1    0    0    0    0  0.00000000000E+00  0.00000000000E+00  0.45593999997E+02  0.45594000000E+02  0.51100000000E-03 0.  1.
         11   -1    0    0    0    0 -0.00000000000E+00 -0.00000000000E+00 -0.45593999997E+02  0.45594000000E+02  0.51100000000E-03 0. -1.
    9900012    2    1    2    0    0  0.10634985234E+02 -0.35474223348E+00  0.39242026836E+02  0.50528862981E+02  0.30000009516E+02 0.  0.
         12    1    1    2    0    0 -0.10634985234E+02  0.35474223348E+00 -0.39242026836E+02  0.40659137019E+02  0.00000000000E+00 0. -1.
         11    1    3    3    0    0 -0.75190533748E+00  0.10758237355E+01  0.12426780271E+02  0.12495904390E+02  0.51100000000E-03 0. -1.
        -11    1    3    3    0    0  0.75601744741E+01  0.65665913693E+01  0.23865624065E+00  0.10016652003E+02  0.51100000000E-03 0.  1.
        -12    1    3    3    0    0  0.38267160979E+01 -0.79971573384E+01  0.26576590324E+02  0.28016306588E+02  0.00000000000E+00 0.  1.
</event>
<event>
 7    1  0.5764931E-013  0.5052886E+02  0.7816164E-02  0.1300439E+00
        -11   -1    0    0    0    0  0.00000000000E+00  0.00000000000E+00  0.45593999997E+02  0.45594000000E+02  0.51100000000E-03 0.  1.
         11   -1    0    0    0    0 -0.00000000000E+00 -0.00000000000E+00 -0.45593999997E+02  0.45594000000E+02  0.51100000000E-03 0. -1.
    9900012    2    1    2    0    0  0.20882092655E+02  0.30987411730E+02  0.16027601573E+02  0.50528862139E+02  0.30000006958E+02 0.  0.
         12    1    1    2    0    0 -0.20882092655E+02 -0.30987411730E+02 -0.16027601573E+02  0.40659137861E+02  0.00000000000E+00 0. -1.
         11    1    3    3    0    0  0.25556172636E+01  0.88656188682E+01 -0.59341556083E+01  0.10970167754E+02  0.51100000000E-03 0. -1.
        -11    1    3    3    0    0  0.18534144519E+02  0.10927083306E+02  0.12387467869E+02  0.24826699803E+02  0.51100000000E-03 0.  1.
         12    1    3    3    0    0 -0.20766912790E+00  0.11194709556E+02  0.95742893126E+01  0.14731994582E+02  0.00000000000E+00 0. -1.
</event>
<event>
 7    1  0.5764931E-013  0.5052885E+02  0.7816164E-02  0.1300439E+00
        -11   -1    0    0    0    0  0.00000000000E+00  0.00000000000E+00  0.45593999997E+02  0.45594000000E+02  0.51100000000E-03 0.  1.
         11   -1    0    0    0    0 -0.00000000000E+00 -0.00000000000E+00 -0.45593999997E+02  0.45594000000E+02  0.51100000000E-03 0. -1.
    9900012    2    1    2    0    0  0.64237284915E+01 -0.29396640485E+02  0.27344823555E+02  0.50528854229E+02  0.29999982915E+02 0.  0.
         12    1    1    2    0    0 -0.64237284915E+01  0.29396640485E+02 -0.27344823555E+02  0.40659145771E+02  0.00000000000E+00 0. -1.
         11    1    3    3    0    0  0.23305375399E+01  0.11916151589E+01  0.17062951895E+02  0.17262551363E+02  0.51100000000E-03 0. -1.
        -11    1    3    3    0    0  0.38148432098E+01 -0.15422919371E+02  0.20811874491E+01  0.16023445700E+02  0.51100000000E-03 0.  1.
        -12    1    3    3    0    0  0.27834774178E+00 -0.15165336272E+02  0.82006842107E+01  0.17242857166E+02  0.00000000000E+00 0.  1.
</event>
<event>
 7    1  0.5764931E-013  0.5052886E+02  0.7816164E-02  0.1300439E+00
        -11   -1    0    0    0    0  0.00000000000E+00  0.00000000000E+00  0.45593999997E+02  0.45594000000E+02  0.51100000000E-03 0.  1.
         11   -1    0    0    0    0 -0.00000000000E+00 -0.00000000000E+00 -0.45593999997E+02  0.45594000000E+02  0.51100000000E-03 0. -1.
    9900012    2    1    2    0    0 -0.13045033860E+02  0.12089735651E+02  0.36562701809E+02  0.50528858591E+02  0.29999996174E+02 0.  0.
         12    1    1    2    0    0  0.13045033860E+02 -0.12089735651E+02 -0.36562701809E+02  0.40659141409E+02  0.00000000000E+00 0. -1.
         11    1    3    3    0    0 -0.14701889988E+01 -0.16861457734E+01 -0.80589287131E+00  0.23778155611E+01  0.51100000000E-03 0. -1.
        -11    1    3    3    0    0 -0.60526578842E+01  0.20571401252E+02  0.24159735089E+02  0.32303405653E+02  0.51100000000E-03 0.  1.
        -12    1    3    3    0    0 -0.55221869765E+01 -0.67955198279E+01  0.13208859592E+02  0.15847637377E+02  0.00000000000E+00 0.  1.
</event>
<event>
 7    1  0.5764931E-013  0.5052886E+02  0.7816164E-02  0.1300439E+00
        -11   -1    0    0    0    0  0.00000000000E+00  0.00000000000E+00  0.45593999997E+02  0.45594000000E+02  0.51100000000E-03 0. -1.
         11   -1    0    0    0    0 -0.00000000000E+00 -0.00000000000E+00 -0.45593999997E+02  0.45594000000E+02  0.51100000000E-03 0.  1.
    9900012    2    1    2    0    0 -0.34600572462E+02 -0.19218512678E+02 -0.93067120904E+01  0.50528859156E+02  0.29999997890E+02 0.  0.
         12    1    1    2    0    0  0.34600572462E+02  0.19218512678E+02  0.93067120904E+01  0.40659140844E+02  0.00000000000E+00 0. -1.
         11    1    3    3    0    0 -0.26439297484E+02 -0.73837333610E+01  0.38257862514E+01  0.27716287819E+02  0.51100000000E-03 0. -1.
        -11    1    3    3    0    0 -0.10897368558E+02 -0.68602961533E+01 -0.10170780030E+02  0.16409176442E+02  0.51100000000E-03 0.  1.
         12    1    3    3    0    0  0.27360935798E+01 -0.49744831634E+01 -0.29617183114E+01  0.64033948946E+01  0.00000000000E+00 0. -1.
</event>
<event>
 7    1  0.5764931E-013  0.5052885E+02  0.7816164E-02  0.1300439E+00
        -11   -1    0    0    0    0  0.00000000000E+00  0.00000000000E+00  0.45593999997E+02  0.45594000000E+02  0.51100000000E-03 0.  1.
         11   -1    0    0    0    0 -0.00000000000E+00 -0.00000000000E+00 -0.45593999997E+02  0.45594000000E+02  0.51100000000E-03 0. -1.
    9900012    2    1    2    0    0  0.33156321015E+02 -0.62022087902E+01  0.22701482273E+02  0.50528852020E+02  0.29999976199E+02 0.  0.
         12    1    1    2    0    0 -0.33156321015E+02  0.62022087902E+01 -0.22701482273E+02  0.40659147980E+02  0.00000000000E+00 0. -1.
         11    1    3    3    0    0  0.92479570415E+01 -0.15310590240E+02  0.96485924606E+01  0.20323243335E+02  0.51100000000E-03 0. -1.
        -11    1    3    3    0    0  0.78252137328E+01  0.21840097264E+01 -0.38469426386E+00  0.81333792723E+01  0.51100000000E-03 0.  1.
         12    1    3    3    0    0  0.16083150241E+02  0.69243717232E+01  0.13437584076E+02  0.22072229412E+02  0.00000000000E+00 0. -1.
</event>
<event>
 7    1  0.5764931E-013  0.5052882E+02  0.7816164E-02  0.1300439E+00
        -11   -1    0    0    0    0  0.00000000000E+00  0.00000000000E+00  0.45593999997E+02  0.45594000000E+02  0.51100000000E-03 0. -1.
         11   -1    0    0    0    0 -0.00000000000E+00 -0.00000000000E+00 -0.45593999997E+02  0.45594000000E+02  0.51100000000E-03 0.  1.
    9900012    2    1    2    0    0  0.99716361691E+01 -0.14143347787E+02 -0.36792674046E+02  0.50528822955E+02  0.29999887855E+02 0.  0.
         12    1    1    2    0    0 -0.99716361691E+01  0.14143347787E+02  0.36792674046E+02  0.40659177045E+02  0.00000000000E+00 0. -1.
         11    1    3    3    0    0  0.12835844612E+01 -0.11999406239E+02 -0.34696656517E+01  0.12556747953E+02  0.51100000000E-03 0. -1.
        -11    1    3    3    0    0  0.55917947410E+01  0.63874923239E+01 -0.11153634780E+02  0.14016839718E+02  0.51100000000E-03 0.  1.
         12    1    3    3    0    0  0.30962569669E+01 -0.85314338719E+01 -0.22169373614E+02  0.23955235285E+02  0.00000000000E+00 0. -1.
</event>
<event>
 7    1  0.5764931E-013  0.5052886E+02  0.7816164E-02  0.1300439E+00
        -11   -1    0    0    0    0  0.00000000000E+00  0.00000000000E+00  0.45593999997E+02  0.45594000000E+02  0.51100000000E-03 0.  1.
         11   -1    0    0    0    0 -0.00000000000E+00 -0.00000000000E+00 -0.45593999997E+02  0.45594000000E+02  0.51100000000E-03 0. -1.
    9900012    2    1    2    0    0  0.24926122184E+02  0.31049259316E+02  0.82339434032E+01  0.50528857176E+02  0.29999991872E+02 0.  0.
         12    1    1    2    0    0 -0.24926122184E+02 -0.31049259316E+02 -0.82339434032E+01  0.40659142824E+02  0.00000000000E+00 0. -1.
         11    1    3    3    0    0  0.51052963402E+01  0.11481606708E+02  0.12187541331E+02  0.17505070902E+02  0.51100000000E-03 0. -1.
        -11    1    3    3    0    0  0.11165572874E+02  0.20986149071E+02 -0.46622930817E+01  0.24224480335E+02  0.51100000000E-03 0.  1.
        -12    1    3    3    0    0  0.86552529699E+01 -0.14184964635E+01  0.70869515430E+00  0.87993059392E+01  0.00000000000E+00 0.  1.
</event>
<event>
 7    1  0.5764931E-013  0.5052886E+02  0.7816164E-02  0.1300439E+00
        -11   -1    0    0    0    0  0.00000000000E+00  0.00000000000E+00  0.45593999997E+02  0.45594000000E+02  0.51100000000E-03 0. -1.
         11   -1    0    0    0    0 -0.00000000000E+00 -0.00000000000E+00 -0.45593999997E+02  0.45594000000E+02  0.51100000000E-03 0.  1.
    9900012    2    1    2    0    0  0.27067292630E+02  0.23313362726E+02 -0.19416856852E+02  0.50528861520E+02  0.30000005076E+02 0.  0.
         12    1    1    2    0    0 -0.27067292630E+02 -0.23313362726E+02  0.19416856852E+02  0.40659138480E+02  0.00000000000E+00 0. -1.
         11    1    3    3    0    0  0.63287577130E+01  0.21244607575E+02 -0.14725025227E+02  0.26612269602E+02  0.51100000000E-03 0. -1.
        -11    1    3    3    0    0  0.18119508296E+02  0.27476179690E+01 -0.76930731693E+01  0.19875848672E+02  0.51100000000E-03 0.  1.
         12    1    3    3    0    0  0.26190266216E+01 -0.67886281744E+00  0.30012415444E+01  0.40407432456E+01  0.00000000000E+00 0. -1.
</event>
<event>
 7    1  0.5764931E-013  0.5052877E+02  0.7816164E-02  0.1300439E+00
        -11   -1    0    0    0    0  0.00000000000E+00  0.00000000000E+00  0.45593999997E+02  0.45594000000E+02  0.51100000000E-03 0.  1.
         11   -1    0    0    0    0 -0.00000000000E+00 -0.00000000000E+00 -0.45593999997E+02  0.45594000000E+02  0.51100000000E-03 0. -1.
    9900012    2    1    2    0    0  0.20822222080E+02  0.13753650562E+02  0.32100541765E+02  0.50528774506E+02  0.29999740588E+02 0.  0.
         12    1    1    2    0    0 -0.20822222080E+02 -0.13753650562E+02 -0.32100541765E+02  0.40659225494E+02  0.00000000000E+00 0. -1.
         11    1    3    3    0    0 -0.49593510013E+01  0.10815144105E+02  0.15780677477E+02  0.19763407759E+02  0.51100000000E-03 0. -1.
        -11    1    3    3    0    0  0.11071240029E+02 -0.36587972694E-01  0.70311514064E+01  0.13115288209E+02  0.51100000000E-03 0.  1.
         12    1    3    3    0    0  0.14710333053E+02  0.29750944300E+01  0.92887128816E+01  0.17650078538E+02  0.00000000000E+00 0. -1.
</event>
<event>
 7    1  0.5764931E-013  0.5052886E+02  0.7816164E-02  0.1300439E+00
        -11   -1    0    0    0    0  0.00000000000E+00  0.00000000000E+00  0.45593999997E+02  0.45594000000E+02  0.51100000000E-03 0. -1.
         11   -1    0    0    0    0 -0.00000000000E+00 -0.00000000000E+00 -0.45593999997E+02  0.45594000000E+02  0.51100000000E-03 0.  1.
    9900012    2    1    2    0    0  0.16155783893E+01 -0.39799189349E+02  0.81596692525E+01  0.50528858732E+02  0.29999996601E+02 0.  0.
         12    1    1    2    0    0 -0.16155783893E+01  0.39799189349E+02 -0.81596692525E+01  0.40659141268E+02  0.00000000000E+00 0. -1.
         11    1    3    3    0    0  0.77541985340E+01 -0.15748675344E+02 -0.55308592483E+01  0.18404857356E+02  0.51100000000E-03 0. -1.
        -11    1    3    3    0    0 -0.45751480916E+01 -0.21053372629E+02  0.16961412482E+02  0.27420174922E+02  0.51100000000E-03 0.  1.
        -12    1    3    3    0    0 -0.15634720531E+01 -0.29971413758E+01 -0.32708839814E+01  0.47038264538E+01  0.00000000000E+00 0.  1.
</event>
<event>
 7    1  0.5764931E-013  0.5052881E+02  0.7816164E-02  0.1300439E+00
        -11   -1    0    0    0    0  0.00000000000E+00  0.00000000000E+00  0.45593999997E+02  0.45594000000E+02  0.51100000000E-03 0. -1.
         11   -1    0    0    0    0 -0.00000000000E+00 -0.00000000000E+00 -0.45593999997E+02  0.45594000000E+02  0.51100000000E-03 0.  1.
    9900012    2    1    2    0    0 -0.39427963602E+01  0.36774338171E+02 -0.16890011679E+02  0.50528805645E+02  0.29999835239E+02 0.  0.
         12    1    1    2    0    0  0.39427963602E+01 -0.36774338171E+02  0.16890011679E+02  0.40659194355E+02  0.00000000000E+00 0. -1.
         11    1    3    3    0    0 -0.10255196104E+02  0.14976384801E+02 -0.38882826685E+01  0.18562863228E+02  0.51100000000E-03 0. -1.
        -11    1    3    3    0    0  0.18193910590E+01  0.15427816938E+02 -0.17146581432E+02  0.23137263761E+02  0.51100000000E-03 0.  1.
        -12    1    3    3    0    0  0.44930086850E+01  0.63701364319E+01  0.41448524220E+01  0.88286786556E+01  0.00000000000E+00 0.  1.
</event>
<event>
 7    1  0.5764931E-013  0.5052887E+02  0.7816164E-02  0.1300439E+00
        -11   -1    0    0    0    0  0.00000000000E+00  0.00000000000E+00  0.45593999997E+02  0.45594000000E+02  0.51100000000E-03 0. -1.
         11   -1    0    0    0    0 -0.00000000000E+00 -0.00000000000E+00 -0.45593999997E+02  0.45594000000E+02  0.51100000000E-03 0.  1.
    9900012    2    1    2    0    0  0.26604836629E+02  0.30675493756E+02 -0.20885261168E+01  0.50528865840E+02  0.30000018208E+02 0.  0.
         12    1    1    2    0    0 -0.26604836629E+02 -0.30675493756E+02  0.20885261168E+01  0.40659134160E+02  0.00000000000E+00 0. -1.
         11    1    3    3    0    0  0.53906202669E+01  0.86153687368E+01  0.35501085613E+01  0.10765065554E+02  0.51100000000E-03 0. -1.
        -11    1    3    3    0    0  0.12589929488E+02  0.17801788286E+02 -0.14902196137E+02  0.26409949652E+02  0.51100000000E-03 0.  1.
        -12    1    3    3    0    0  0.86242868748E+01  0.42583367341E+01  0.92635614589E+01  0.13353850634E+02  0.00000000000E+00 0.  1.
</event>
<event>
 7    1  0.5764931E-013  0.5052886E+02  0.7816164E-02  0.1300439E+00
        -11   -1    0    0    0    0  0.00000000000E+00  0.00000000000E+00  0.45593999997E+02  0.45594000000E+02  0.51100000000E-03 0.  1.
         11   -1    0    0    0    0 -0.00000000000E+00 -0.00000000000E+00 -0.45593999997E+02  0.45594000000E+02  0.51100000000E-03 0. -1.
    9900012    2    1    2    0    0 -0.11079977758E+02 -0.25146976683E+02  0.29967143222E+02  0.50528855686E+02  0.29999987344E+02 0.  0.
         12    1    1    2    0    0  0.11079977758E+02  0.25146976683E+02 -0.29967143222E+02  0.40659144314E+02  0.00000000000E+00 0. -1.
         11    1    3    3    0    0 -0.80913791400E+01 -0.37145358831E+01  0.19976669072E+02  0.21870882485E+02  0.51100000000E-03 0. -1.
        -11    1    3    3    0    0 -0.30283798308E+01 -0.11482061944E+02 -0.30448272812E+01  0.12258866356E+02  0.51100000000E-03 0.  1.
         12    1    3    3    0    0  0.39781212741E-01 -0.99503788558E+01  0.13035301432E+02  0.16399106846E+02  0.00000000000E+00 0. -1.
</event>
<event>
 7    1  0.5764931E-013  0.5052887E+02  0.7816164E-02  0.1300439E+00
        -11   -1    0    0    0    0  0.00000000000E+00  0.00000000000E+00  0.45593999997E+02  0.45594000000E+02  0.51100000000E-03 0.  1.
         11   -1    0    0    0    0 -0.00000000000E+00 -0.00000000000E+00 -0.45593999997E+02  0.45594000000E+02  0.51100000000E-03 0. -1.
    9900012    2    1    2    0    0  0.19011877056E+02  0.23168324908E+02  0.27476207595E+02  0.50528871479E+02  0.30000035349E+02 0.  0.
         12    1    1    2    0    0 -0.19011877056E+02 -0.23168324908E+02 -0.27476207595E+02  0.40659128521E+02  0.00000000000E+00 0. -1.
         11    1    3    3    0    0  0.15056096734E+02  0.79309355944E+01  0.61738834198E+00  0.17028416159E+02  0.51100000000E-03 0. -1.
        -11    1    3    3    0    0 -0.28640001434E+01  0.11717256817E+02  0.19079045321E+02  0.22572252319E+02  0.51100000000E-03 0.  1.
         12    1    3    3    0    0  0.68197804652E+01  0.35201324967E+01  0.77797739321E+01  0.10928203001E+02  0.00000000000E+00 0. -1.
</event>
<event>
 7    1  0.5764931E-013  0.5052886E+02  0.7816164E-02  0.1300439E+00
        -11   -1    0    0    0    0  0.00000000000E+00  0.00000000000E+00  0.45593999997E+02  0.45594000000E+02  0.51100000000E-03 0.  1.
         11   -1    0    0    0    0 -0.00000000000E+00 -0.00000000000E+00 -0.45593999997E+02  0.45594000000E+02  0.51100000000E-03 0. -1.
    9900012    2    1    2    0    0  0.78180714873E+01  0.40456564091E+01  0.39694787788E+02  0.50528858899E+02  0.29999997109E+02 0.  0.
         12    1    1    2    0    0 -0.78180714873E+01 -0.40456564091E+01 -0.39694787788E+02  0.40659141101E+02  0.00000000000E+00 0. -1.
         11    1    3    3    0    0  0.73373619568E+01 -0.15726799213E+01 -0.12437492757E+01  0.76063864707E+01  0.51100000000E-03 0. -1.
        -11    1    3    3    0    0 -0.19064769033E+01  0.69687623877E+01  0.13193178298E+02  0.15041883435E+02  0.51100000000E-03 0.  1.
         12    1    3    3    0    0  0.23871864338E+01 -0.13504260573E+01  0.27745358765E+02  0.27880588993E+02  0.00000000000E+00 0. -1.
</event>
<event>
 7    1  0.5764931E-013  0.5052887E+02  0.7816164E-02  0.1300439E+00
        -11   -1    0    0    0    0  0.00000000000E+00  0.00000000000E+00  0.45593999997E+02  0.45594000000E+02  0.51100000000E-03 0. -1.
         11   -1    0    0    0    0 -0.00000000000E+00 -0.00000000000E+00 -0.45593999997E+02  0.45594000000E+02  0.51100000000E-03 0.  1.
    9900012    2    1    2    0    0  0.40019268694E+01 -0.34979180093E+02 -0.20337322643E+02  0.50528866329E+02  0.30000019692E+02 0.  0.
         12    1    1    2    0    0 -0.40019268694E+01  0.34979180093E+02  0.20337322643E+02  0.40659133671E+02  0.00000000000E+00 0. -1.
         11    1    3    3    0    0 -0.77950365765E+01 -0.38561333436E+00 -0.56965117542E+01  0.96623775179E+01  0.51100000000E-03 0. -1.
        -11    1    3    3    0    0  0.63389559061E+01 -0.53676030986E+01 -0.19026755643E+01  0.85213672359E+01  0.51100000000E-03 0.  1.
        -12    1    3    3    0    0  0.54580075398E+01 -0.29225963660E+02 -0.12738135324E+02  0.32345121575E+02  0.00000000000E+00 0.  1.
</event>
<event>
 7    1  0.5764931E-013  0.5052885E+02  0.7816164E-02  0.1300439E+00
        -11   -1    0    0    0    0  0.00000000000E+00  0.00000000000E+00  0.45593999997E+02  0.45594000000E+02  0.51100000000E-03 0.  1.
         11   -1    0    0    0    0 -0.00000000000E+00 -0.00000000000E+00 -0.45593999997E+02  0.45594000000E+02  0.51100000000E-03 0. -1.
    9900012    2    1    2    0    0 -0.37452233850E+01  0.33349433959E+01  0.40348701817E+02  0.50528852394E+02  0.29999977338E+02 0.  0.
         12    1    1    2    0    0  0.37452233850E+01 -0.33349433959E+01 -0.40348701817E+02  0.40659147606E+02  0.00000000000E+00 0. -1.
         11    1    3    3    0    0  0.16995379775E+01  0.93305771614E+01  0.33360716976E+01  0.10053729364E+02  0.51100000000E-03 0. -1.
        -11    1    3    3    0    0  0.12323158590E+01 -0.18770472829E+00  0.27326984113E+02  0.27355399767E+02  0.51100000000E-03 0.  1.
        -12    1    3    3    0    0 -0.66770772215E+01 -0.58079290371E+01  0.96856460065E+01  0.13119723263E+02  0.00000000000E+00 0.  1.
</event>
<event>
 7    1  0.5764931E-013  0.5052885E+02  0.7816164E-02  0.1300439E+00
        -11   -1    0    0    0    0  0.00000000000E+00  0.00000000000E+00  0.45593999997E+02  0.45594000000E+02  0.51100000000E-03 0. -1.
         11   -1    0    0    0    0 -0.00000000000E+00 -0.00000000000E+00 -0.45593999997E+02  0.45594000000E+02  0.51100000000E-03 0.  1.
    9900012    2    1    2    0    0 -0.19051777469E+02  0.23729164522E+02  0.26965214763E+02  0.50528852434E+02  0.29999977457E+02 0.  0.
         12    1    1    2    0    0  0.19051777469E+02 -0.23729164522E+02 -0.26965214763E+02  0.40659147566E+02  0.00000000000E+00 0. -1.
         11    1    3    3    0    0  0.29077468385E+01  0.98038711328E+01  0.16094669329E+02  0.19068541159E+02  0.51100000000E-03 0. -1.
        -11    1    3    3    0    0 -0.23467846250E+02  0.10369272759E+02  0.92889851808E+01  0.27286386187E+02  0.51100000000E-03 0.  1.
        -12    1    3    3    0    0  0.15083219430E+01  0.35560206301E+01  0.15815602531E+01  0.41739250879E+01  0.00000000000E+00 0.  1.
</event>
<event>
 7    1  0.5764931E-013  0.5052884E+02  0.7816164E-02  0.1300439E+00
        -11   -1    0    0    0    0  0.00000000000E+00  0.00000000000E+00  0.45593999997E+02  0.45594000000E+02  0.51100000000E-03 0. -1.
         11   -1    0    0    0    0 -0.00000000000E+00 -0.00000000000E+00 -0.45593999997E+02  0.45594000000E+02  0.51100000000E-03 0.  1.
    9900012    2    1    2    0    0 -0.15814238855E+02  0.19147592512E+02 -0.32193890051E+02  0.50528843514E+02  0.29999950344E+02 0.  0.
         12    1    1    2    0    0  0.15814238855E+02 -0.19147592512E+02  0.32193890051E+02  0.40659156486E+02  0.00000000000E+00 0. -1.
         11    1    3    3    0    0 -0.22591016226E+02  0.12944968591E+02 -0.27626235150E+02  0.37962285162E+02  0.51100000000E-03 0. -1.
        -11    1    3    3    0    0  0.62038512074E+00  0.36997591920E+01  0.10159786262E+01  0.38865548506E+01  0.51100000000E-03 0.  1.
         12    1    3    3    0    0  0.61563922508E+01  0.25028647290E+01 -0.55836335280E+01  0.86800035007E+01  0.00000000000E+00 0. -1.
</event>
<event>
 7    1  0.5764931E-013  0.5052889E+02  0.7816164E-02  0.1300439E+00
        -11   -1    0    0    0    0  0.00000000000E+00  0.00000000000E+00  0.45593999997E+02  0.45594000000E+02  0.51100000000E-03 0. -1.
         11   -1    0    0    0    0 -0.00000000000E+00 -0.00000000000E+00 -0.45593999997E+02  0.45594000000E+02  0.51100000000E-03 0.  1.
    9900012    2    1    2    0    0  0.31828337615E+02 -0.39795694156E+01 -0.24985663630E+02  0.50528887429E+02  0.30000083829E+02 0.  0.
         12    1    1    2    0    0 -0.31828337615E+02  0.39795694156E+01  0.24985663630E+02  0.40659112571E+02  0.00000000000E+00 0. -1.
         11    1    3    3    0    0  0.86699843188E+00 -0.73473325536E+01  0.10424413143E+01  0.74713898365E+01  0.51100000000E-03 0. -1.
        -11    1    3    3    0    0  0.18397610708E+02  0.87596329715E+01 -0.12986917569E+02  0.24163262978E+02  0.51100000000E-03 0.  1.
        -12    1    3    3    0    0  0.12563728475E+02 -0.53918698334E+01 -0.13041187375E+02  0.18894234614E+02  0.00000000000E+00 0.  1.
</event>
<event>
 7    1  0.5764931E-013  0.5052886E+02  0.7816164E-02  0.1300439E+00
        -11   -1    0    0    0    0  0.00000000000E+00  0.00000000000E+00  0.45593999997E+02  0.45594000000E+02  0.51100000000E-03 0.  1.
         11   -1    0    0    0    0 -0.00000000000E+00 -0.00000000000E+00 -0.45593999997E+02  0.45594000000E+02  0.51100000000E-03 0. -1.
    9900012    2    1    2    0    0 -0.86004135623E+01  0.30680070186E+02  0.25257307328E+02  0.50528863345E+02  0.30000010622E+02 0.  0.
         12    1    1    2    0    0  0.86004135623E+01 -0.30680070186E+02 -0.25257307328E+02  0.40659136655E+02  0.00000000000E+00 0. -1.
         11    1    3    3    0    0 -0.11362299219E+02  0.19190979135E+02  0.19725250484E+01  0.22389425607E+02  0.51100000000E-03 0. -1.
        -11    1    3    3    0    0  0.15630900877E+01  0.12712776767E+02  0.23103972245E+02  0.26416878648E+02  0.51100000000E-03 0.  1.
        -12    1    3    3    0    0  0.11987955687E+01 -0.12236857162E+01  0.18081003549E+00  0.17225590894E+01  0.00000000000E+00 0.  1.
</event>
<event>
 7    1  0.5764931E-013  0.5052885E+02  0.7816164E-02  0.1300439E+00
        -11   -1    0    0    0    0  0.00000000000E+00  0.00000000000E+00  0.45593999997E+02  0.45594000000E+02  0.51100000000E-03 0.  1.
         11   -1    0    0    0    0 -0.00000000000E+00 -0.00000000000E+00 -0.45593999997E+02  0.45594000000E+02  0.51100000000E-03 0. -1.
    9900012    2    1    2    0    0 -0.26013326799E+01 -0.14025210670E+02  0.38074834992E+02  0.50528849422E+02  0.29999968303E+02 0.  0.
         12    1    1    2    0    0  0.26013326799E+01  0.14025210670E+02 -0.38074834992E+02  0.40659150578E+02  0.00000000000E+00 0. -1.
         11    1    3    3    0    0 -0.15782921412E+01  0.71384651178E+01  0.16771795782E+02  0.18295951036E+02  0.51100000000E-03 0. -1.
        -11    1    3    3    0    0 -0.92471464679E+00 -0.19014493667E+02  0.11596777447E+02  0.22291059060E+02  0.51100000000E-03 0.  1.
        -12    1    3    3    0    0 -0.98325891864E-01 -0.21491821212E+01  0.97062617630E+01  0.99418393260E+01  0.00000000000E+00 0.  1.
</event>
<event>
 7    1  0.5764931E-013  0.5052881E+02  0.7816164E-02  0.1300439E+00
        -11   -1    0    0    0    0  0.00000000000E+00  0.00000000000E+00  0.45593999997E+02  0.45594000000E+02  0.51100000000E-03 0.  1.
         11   -1    0    0    0    0 -0.00000000000E+00 -0.00000000000E+00 -0.45593999997E+02  0.45594000000E+02  0.51100000000E-03 0. -1.
    9900012    2    1    2    0    0  0.11810111417E+01  0.23444800338E+02  0.33198136138E+02  0.50528810470E+02  0.29999849903E+02 0.  0.
         12    1    1    2    0    0 -0.11810111417E+01 -0.23444800338E+02 -0.33198136138E+02  0.40659189530E+02  0.00000000000E+00 0. -1.
         11    1    3    3    0    0 -0.31471601136E+01  0.20084624974E-02 -0.28076162964E+01  0.42175028564E+01  0.51100000000E-03 0. -1.
        -11    1    3    3    0    0  0.67164965257E+01  0.25002169223E+02  0.29757028354E+02  0.39442369708E+02  0.51100000000E-03 0.  1.
        -12    1    3    3    0    0 -0.23883252704E+01 -0.15593773477E+01  0.62487240807E+01  0.68689379053E+01  0.00000000000E+00 0.  1.
</event>
<event>
 7    1  0.5764931E-013  0.5052886E+02  0.7816164E-02  0.1300439E+00
        -11   -1    0    0    0    0  0.00000000000E+00  0.00000000000E+00  0.45593999997E+02  0.45594000000E+02  0.51100000000E-03 0.  1.
         11   -1    0    0    0    0 -0.00000000000E+00 -0.00000000000E+00 -0.45593999997E+02  0.45594000000E+02  0.51100000000E-03 0. -1.
    9900012    2    1    2    0    0 -0.99598734300E+01  0.37412398674E+02  0.12420917536E+02  0.50528857785E+02  0.29999993722E+02 0.  0.
         12    1    1    2    0    0  0.99598734300E+01 -0.37412398674E+02 -0.12420917536E+02  0.40659142215E+02  0.00000000000E+00 0. -1.
         11    1    3    3    0    0  0.61662521816E+00  0.29693060991E+02  0.17550439437E+02  0.34497478493E+02  0.51100000000E-03 0.  1.
        -11    1    3    3    0    0 -0.36651424080E+01  0.61860022575E+01 -0.53280525662E+01  0.89491919864E+01  0.51100000000E-03 0. -1.
        -12    1    3    3    0    0 -0.69113562402E+01  0.15333354250E+01  0.19853066520E+00  0.70821873055E+01  0.00000000000E+00 0.  1.
</event>
<event>
 7    1  0.5764931E-013  0.5052886E+02  0.7816164E-02  0.1300439E+00
        -11   -1    0    0    0    0  0.00000000000E+00  0.00000000000E+00  0.45593999997E+02  0.45594000000E+02  0.51100000000E-03 0.  1.
         11   -1    0    0    0    0 -0.00000000000E+00 -0.00000000000E+00 -0.45593999997E+02  0.45594000000E+02  0.51100000000E-03 0. -1.
    9900012    2    1    2    0    0 -0.48356609203E+01  0.40312923734E+02  0.21564781580E+01  0.50528857921E+02  0.29999994137E+02 0.  0.
         12    1    1    2    0    0  0.48356609203E+01 -0.40312923734E+02 -0.21564781580E+01  0.40659142079E+02  0.00000000000E+00 0. -1.
         11    1    3    3    0    0 -0.85735302019E+00 -0.41448843498E+01  0.39973588257E+01  0.58218552298E+01  0.51100000000E-03 0. -1.
        -11    1    3    3    0    0 -0.22773171640E+01  0.18904617934E+02 -0.14137003897E+01  0.19093697959E+02  0.51100000000E-03 0.  1.
         12    1    3    3    0    0 -0.17009907361E+01  0.25553190150E+02 -0.42718027794E+00  0.25613304732E+02  0.00000000000E+00 0. -1.
</event>
<event>
 7    1  0.5764931E-013  0.5052887E+02  0.7816164E-02  0.1300439E+00
        -11   -1    0    0    0    0  0.00000000000E+00  0.00000000000E+00  0.45593999997E+02  0.45594000000E+02  0.51100000000E-03 0.  1.
         11   -1    0    0    0    0 -0.00000000000E+00 -0.00000000000E+00 -0.45593999997E+02  0.45594000000E+02  0.51100000000E-03 0. -1.
    9900012    2    1    2    0    0  0.26045596587E+02 -0.17179499317E+02  0.26070220575E+02  0.50528871883E+02  0.30000036577E+02 0.  0.
         12    1    1    2    0    0 -0.26045596587E+02  0.17179499317E+02 -0.26070220575E+02  0.40659128117E+02  0.00000000000E+00 0. -1.
         11    1    3    3    0    0  0.70804261155E+00 -0.35702906175E+01  0.34049324133E+01  0.49841613571E+01  0.51100000000E-03 0. -1.
        -11    1    3    3    0    0  0.27703139129E+02 -0.17117156958E+02  0.13128540428E+02  0.35111530213E+02  0.51100000000E-03 0.  1.
        -12    1    3    3    0    0 -0.23655851528E+01  0.35079482583E+01  0.95367477340E+01  0.10433180313E+02  0.00000000000E+00 0.  1.
</event>
<event>
 7    1  0.5764931E-013  0.5052886E+02  0.7816164E-02  0.1300439E+00
        -11   -1    0    0    0    0  0.00000000000E+00  0.00000000000E+00  0.45593999997E+02  0.45594000000E+02  0.51100000000E-03 0.  1.
         11   -1    0    0    0    0 -0.00000000000E+00 -0.00000000000E+00 -0.45593999997E+02  0.45594000000E+02  0.51100000000E-03 0. -1.
    9900012    2    1    2    0    0  0.17312789259E+02 -0.19759732772E+02  0.31032020599E+02  0.50528855720E+02  0.29999987446E+02 0.  0.
         12    1    1    2    0    0 -0.17312789259E+02  0.19759732772E+02 -0.31032020599E+02  0.40659144280E+02  0.00000000000E+00 0. -1.
         11    1    3    3    0    0  0.78669688174E+01  0.12103162642E+00 -0.12276355521E+01  0.79630984132E+01  0.51100000000E-03 0. -1.
        -11    1    3    3    0    0  0.11957519776E+02 -0.14185212917E+02  0.31130150300E+02  0.36239326741E+02  0.51100000000E-03 0.  1.
        -12    1    3    3    0    0 -0.25116993347E+01 -0.56955514819E+01  0.11295058509E+01  0.63264305654E+01  0.00000000000E+00 0.  1.
</event>
<event>
 7    1  0.5764931E-013  0.5052885E+02  0.7816164E-02  0.1300439E+00
        -11   -1    0    0    0    0  0.00000000000E+00  0.00000000000E+00  0.45593999997E+02  0.45594000000E+02  0.51100000000E-03 0.  1.
         11   -1    0    0    0    0 -0.00000000000E+00 -0.00000000000E+00 -0.45593999997E+02  0.45594000000E+02  0.51100000000E-03 0. -1.
    9900012    2    1    2    0    0  0.32653702641E+02  0.24158283268E+02 -0.18108364769E+01  0.50528854960E+02  0.29999985136E+02 0.  0.
         12    1    1    2    0    0 -0.32653702641E+02 -0.24158283268E+02  0.18108364769E+01  0.40659145040E+02  0.00000000000E+00 0. -1.
         11    1    3    3    0    0  0.82495646002E+01  0.50486841590E+01 -0.22867626110E+01  0.99385014630E+01  0.51100000000E-03 0. -1.
        -11    1    3    3    0    0  0.99132176553E+01 -0.57646685371E+01 -0.22078564710E+01  0.11678095653E+02  0.51100000000E-03 0.  1.
        -12    1    3    3    0    0  0.14490920385E+02  0.24874267646E+02  0.26837826050E+01  0.28912257844E+02  0.00000000000E+00 0.  1.
</event>
<event>
 7    1  0.5764931E-013  0.5052881E+02  0.7816164E-02  0.1300439E+00
        -11   -1    0    0    0    0  0.00000000000E+00  0.00000000000E+00  0.45593999997E+02  0.45594000000E+02  0.51100000000E-03 0.  1.
         11   -1    0    0    0    0 -0.00000000000E+00 -0.00000000000E+00 -0.45593999997E+02  0.45594000000E+02  0.51100000000E-03 0. -1.
    9900012    2    1    2    0    0 -0.12478418371E+02  0.72767941599E+01  0.38006670222E+02  0.50528811129E+02  0.29999851908E+02 0.  0.
         12    1    1    2    0    0  0.12478418371E+02 -0.72767941599E+01 -0.38006670222E+02  0.40659188871E+02  0.00000000000E+00 0. -1.
         11    1    3    3    0    0 -0.12713564751E+02  0.39427679589E+00  0.14238791903E+01  0.12799125559E+02  0.51100000000E-03 0. -1.
        -11    1    3    3    0    0  0.14737693417E+01  0.72924271284E+01  0.25285708875E+02  0.26357514356E+02  0.51100000000E-03 0.  1.
         12    1    3    3    0    0 -0.12386229620E+01 -0.40990976438E+00  0.11297082157E+02  0.11372171214E+02  0.00000000000E+00 0. -1.
</event>
<event>
 7    1  0.5764931E-013  0.5052885E+02  0.7816164E-02  0.1300439E+00
        -11   -1    0    0    0    0  0.00000000000E+00  0.00000000000E+00  0.45593999997E+02  0.45594000000E+02  0.51100000000E-03 0.  1.
         11   -1    0    0    0    0 -0.00000000000E+00 -0.00000000000E+00 -0.45593999997E+02  0.45594000000E+02  0.51100000000E-03 0. -1.
    9900012    2    1    2    0    0  0.56247083308E+01 -0.35714347090E+02  0.18601459207E+02  0.50528853225E+02  0.29999979862E+02 0.  0.
         12    1    1    2    0    0 -0.56247083308E+01  0.35714347090E+02 -0.18601459207E+02  0.40659146775E+02  0.00000000000E+00 0. -1.
         11    1    3    3    0    0  0.25040414378E+01 -0.28115328407E+01 -0.16286334760E+01  0.41021199028E+01  0.51100000000E-03 0. -1.
        -11    1    3    3    0    0 -0.84279050101E+01 -0.26856546974E+02  0.10054224791E+02  0.29889649289E+02  0.51100000000E-03 0.  1.
        -12    1    3    3    0    0  0.11548571903E+02 -0.60462672758E+01  0.10175867891E+02  0.16537084033E+02  0.00000000000E+00 0.  1.
</event>
<event>
 7    1  0.5764931E-013  0.5052884E+02  0.7816164E-02  0.1300439E+00
        -11   -1    0    0    0    0  0.00000000000E+00  0.00000000000E+00  0.45593999997E+02  0.45594000000E+02  0.51100000000E-03 0.  1.
         11   -1    0    0    0    0 -0.00000000000E+00 -0.00000000000E+00 -0.45593999997E+02  0.45594000000E+02  0.51100000000E-03 0. -1.
    9900012    2    1    2    0    0  0.14601456849E+02 -0.12899266600E+02  0.35687161876E+02  0.50528841822E+02  0.29999945203E+02 0.  0.
         12    1    1    2    0    0 -0.14601456849E+02  0.12899266600E+02 -0.35687161876E+02  0.40659158178E+02  0.00000000000E+00 0. -1.
         11    1    3    3    0    0  0.10873234575E+02 -0.56443147982E-01  0.31954713247E+01  0.11333201366E+02  0.51100000000E-03 0. -1.
        -11    1    3    3    0    0  0.73197144704E+01 -0.15504478858E+02  0.28172496864E+02  0.32979640150E+02  0.51100000000E-03 0.  1.
         12    1    3    3    0    0 -0.35914921969E+01  0.26616554063E+01  0.43191936879E+01  0.62160003069E+01  0.00000000000E+00 0. -1.
</event>
<event>
 7    1  0.5764931E-013  0.5052884E+02  0.7816164E-02  0.1300439E+00
        -11   -1    0    0    0    0  0.00000000000E+00  0.00000000000E+00  0.45593999997E+02  0.45594000000E+02  0.51100000000E-03 0.  1.
         11   -1    0    0    0    0 -0.00000000000E+00 -0.00000000000E+00 -0.45593999997E+02  0.45594000000E+02  0.51100000000E-03 0. -1.
    9900012    2    1    2    0    0 -0.40700126660E+01 -0.14223719792E+02  0.37871994232E+02  0.50528841684E+02  0.29999944782E+02 0.  0.
         12    1    1    2    0    0  0.40700126660E+01  0.14223719792E+02 -0.37871994232E+02  0.40659158316E+02  0.00000000000E+00 0. -1.
         11    1    3    3    0    0 -0.53448099715E+00  0.57638697739E+01  0.96745401052E+00  0.58688867965E+01  0.51100000000E-03 0. -1.
        -11    1    3    3    0    0 -0.35241601973E+01 -0.95652052715E+01  0.31104726827E+02  0.32732505071E+02  0.51100000000E-03 0.  1.
        -12    1    3    3    0    0 -0.11371471473E-01 -0.10422384295E+02  0.57998133944E+01  0.11927449816E+02  0.00000000000E+00 0.  1.
</event>
<event>
 7    1  0.5764931E-013  0.5052885E+02  0.7816164E-02  0.1300439E+00
        -11   -1    0    0    0    0  0.00000000000E+00  0.00000000000E+00  0.45593999997E+02  0.45594000000E+02  0.51100000000E-03 0. -1.
         11   -1    0    0    0    0 -0.00000000000E+00 -0.00000000000E+00 -0.45593999997E+02  0.45594000000E+02  0.51100000000E-03 0.  1.
    9900012    2    1    2    0    0 -0.13327610104E+02  0.25521977519E+02  0.28708362298E+02  0.50528848590E+02  0.29999965773E+02 0.  0.
         12    1    1    2    0    0  0.13327610104E+02 -0.25521977519E+02 -0.28708362298E+02  0.40659151410E+02  0.00000000000E+00 0. -1.
         11    1    3    3    0    0  0.23882354144E+01 -0.12487475233E+01 -0.74982841208E+00  0.27973704939E+01  0.51100000000E-03 0. -1.
        -11    1    3    3    0    0 -0.94475929456E+01  0.21560958658E+02  0.81389632484E+01  0.24907321689E+02  0.51100000000E-03 0.  1.
        -12    1    3    3    0    0 -0.62682525728E+01  0.52097663845E+01  0.21319227462E+02  0.22824156407E+02  0.00000000000E+00 0.  1.
</event>
<event>
 7    1  0.7074873E-013  0.5052887E+02  0.7816164E-02  0.1300439E+00
        -11   -1    0    0    0    0  0.00000000000E+00  0.00000000000E+00  0.45593999997E+02  0.45594000000E+02  0.51100000000E-03 0.  1.
         11   -1    0    0    0    0 -0.00000000000E+00 -0.00000000000E+00 -0.45593999997E+02  0.45594000000E+02  0.51100000000E-03 0. -1.
    9900012    2    1    2    0    0  0.16615003626E+02 -0.30292318204E+02  0.21435529393E+02  0.50528870545E+02  0.30000032509E+02 0.  0.
         12    1    1    2    0    0 -0.16615003626E+02  0.30292318204E+02 -0.21435529393E+02  0.40659129455E+02  0.00000000000E+00 0. -1.
         11    1    3    3    0    0  0.34874773769E+01  0.30175097379E+01 -0.20949493749E+01  0.50652420097E+01  0.51100000000E-03 0. -1.
        -11    1    3    3    0    0  0.38315370445E+01 -0.17908516959E+02  0.20023750931E+02  0.27135700791E+02  0.51100000000E-03 0.  1.
        -12    1    3    3    0    0  0.92959892045E+01 -0.15401310983E+02  0.35067278361E+01  0.18327927744E+02  0.00000000000E+00 0.  1.
</event>
<event>
 7    1  0.5764931E-013  0.5052886E+02  0.7816164E-02  0.1300439E+00
        -11   -1    0    0    0    0  0.00000000000E+00  0.00000000000E+00  0.45593999997E+02  0.45594000000E+02  0.51100000000E-03 0.  1.
         11   -1    0    0    0    0 -0.00000000000E+00 -0.00000000000E+00 -0.45593999997E+02  0.45594000000E+02  0.51100000000E-03 0. -1.
    9900012    2    1    2    0    0 -0.19929812629E+02 -0.14084242046E+02  0.32520796630E+02  0.50528861804E+02  0.30000005939E+02 0.  0.
         12    1    1    2    0    0  0.19929812629E+02  0.14084242046E+02 -0.32520796630E+02  0.40659138196E+02  0.00000000000E+00 0. -1.
         11    1    3    3    0    0  0.62862738586E+00 -0.78121261178E+01  0.73237333008E+01  0.10726675002E+02  0.51100000000E-03 0. -1.
        -11    1    3    3    0    0 -0.36943412003E+01  0.78547413736E+01  0.88330952875E+01  0.12384211383E+02  0.51100000000E-03 0.  1.
        -12    1    3    3    0    0 -0.16864098814E+02 -0.14126857302E+02  0.16363968041E+02  0.27417975419E+02  0.00000000000E+00 0.  1.
</event>
<event>
 7    1  0.5764931E-013  0.5052887E+02  0.7816164E-02  0.1300439E+00
        -11   -1    0    0    0    0  0.00000000000E+00  0.00000000000E+00  0.45593999997E+02  0.45594000000E+02  0.51100000000E-03 0.  1.
         11   -1    0    0    0    0 -0.00000000000E+00 -0.00000000000E+00 -0.45593999997E+02  0.45594000000E+02  0.51100000000E-03 0. -1.
    9900012    2    1    2    0    0  0.19769096991E+02 -0.32641573185E+02  0.14031241484E+02  0.50528865314E+02  0.30000016610E+02 0.  0.
         12    1    1    2    0    0 -0.19769096991E+02  0.32641573185E+02 -0.14031241484E+02  0.40659134686E+02  0.00000000000E+00 0. -1.
         11    1    3    3    0    0  0.17482203194E+02 -0.35326300982E+01  0.47609635791E+01  0.18460056294E+02  0.51100000000E-03 0. -1.
        -11    1    3    3    0    0 -0.34491262801E+01 -0.14543309640E+02  0.32449955497E+01  0.15294911695E+02  0.51100000000E-03 0.  1.
         12    1    3    3    0    0  0.57360200773E+01 -0.14565633447E+02  0.60252823547E+01  0.16773897325E+02  0.00000000000E+00 0. -1.
</event>
<event>
 7    1  0.5764931E-013  0.5052886E+02  0.7816164E-02  0.1300439E+00
        -11   -1    0    0    0    0  0.00000000000E+00  0.00000000000E+00  0.45593999997E+02  0.45594000000E+02  0.51100000000E-03 0.  1.
         11   -1    0    0    0    0 -0.00000000000E+00 -0.00000000000E+00 -0.45593999997E+02  0.45594000000E+02  0.51100000000E-03 0. -1.
    9900012    2    1    2    0    0 -0.17763137941E+02  0.31806363487E+02  0.18055243449E+02  0.50528860267E+02  0.30000001269E+02 0.  0.
         12    1    1    2    0    0  0.17763137941E+02 -0.31806363487E+02 -0.18055243449E+02  0.40659139733E+02  0.00000000000E+00 0. -1.
         11    1    3    3    0    0 -0.36997844277E+00 -0.13186782699E+01 -0.50700102378E+00  0.14604268989E+01  0.51100000000E-03 0. -1.
        -11    1    3    3    0    0 -0.19228186305E+02  0.19336500435E+02  0.21651164286E+02  0.34819481800E+02  0.51100000000E-03 0.  1.
        -12    1    3    3    0    0  0.18350268067E+01  0.13788541322E+02 -0.30889198132E+01  0.14248951568E+02  0.00000000000E+00 0.  1.
</event>
<event>
 7    1  0.5764931E-013  0.5052888E+02  0.7816164E-02  0.1300439E+00
        -11   -1    0    0    0    0  0.00000000000E+00  0.00000000000E+00  0.45593999997E+02  0.45594000000E+02  0.51100000000E-03 0. -1.
         11   -1    0    0    0    0 -0.00000000000E+00 -0.00000000000E+00 -0.45593999997E+02  0.45594000000E+02  0.51100000000E-03 0.  1.
    9900012    2    1    2    0    0 -0.12346330998E+01  0.86224140846E+01 -0.39715153833E+02  0.50528883095E+02  0.30000070655E+02 0.  0.
         12    1    1    2    0    0  0.12346330998E+01 -0.86224140846E+01  0.39715153833E+02  0.40659116905E+02  0.00000000000E+00 0. -1.
         11    1    3    3    0    0 -0.14835565875E+01 -0.13957053555E+01  0.19538815723E+01  0.28225143130E+01  0.51100000000E-03 0. -1.
        -11    1    3    3    0    0  0.10526452374E+02  0.63143015431E+01 -0.20845252532E+02  0.24190931296E+02  0.51100000000E-03 0.  1.
        -12    1    3    3    0    0 -0.10277528887E+02  0.37038178969E+01 -0.20823782873E+02  0.23515437486E+02  0.00000000000E+00 0.  1.
</event>
<event>
 7    1  0.5764931E-013  0.5052886E+02  0.7816164E-02  0.1300439E+00
        -11   -1    0    0    0    0  0.00000000000E+00  0.00000000000E+00  0.45593999997E+02  0.45594000000E+02  0.51100000000E-03 0.  1.
         11   -1    0    0    0    0 -0.00000000000E+00 -0.00000000000E+00 -0.45593999997E+02  0.45594000000E+02  0.51100000000E-03 0. -1.
    9900012    2    1    2    0    0  0.95828334092E+01 -0.20739367613E+02  0.33633519237E+02  0.50528859805E+02  0.29999999863E+02 0.  0.
         12    1    1    2    0    0 -0.95828334092E+01  0.20739367613E+02 -0.33633519237E+02  0.40659140195E+02  0.00000000000E+00 0. -1.
         11    1    3    3    0    0 -0.93988882432E+01 -0.20157562205E+01  0.38581151893E+01  0.10357964396E+02  0.51100000000E-03 0. -1.
        -11    1    3    3    0    0  0.10112561779E+02 -0.11874926883E+02  0.15127021414E+02  0.21727967492E+02  0.51100000000E-03 0.  1.
         12    1    3    3    0    0  0.88691598729E+01 -0.68486845094E+01  0.14648382634E+02  0.18442927917E+02  0.00000000000E+00 0. -1.
</event>
<event>
 7    1  0.5764931E-013  0.5052882E+02  0.7816164E-02  0.1300439E+00
        -11   -1    0    0    0    0  0.00000000000E+00  0.00000000000E+00  0.45593999997E+02  0.45594000000E+02  0.51100000000E-03 0.  1.
         11   -1    0    0    0    0 -0.00000000000E+00 -0.00000000000E+00 -0.45593999997E+02  0.45594000000E+02  0.51100000000E-03 0. -1.
    9900012    2    1    2    0    0 -0.16700138651E+02  0.74352711832E+01  0.36317916433E+02  0.50528819701E+02  0.29999877963E+02 0.  0.
         12    1    1    2    0    0  0.16700138651E+02 -0.74352711832E+01 -0.36317916433E+02  0.40659180299E+02  0.00000000000E+00 0. -1.
         11    1    3    3    0    0 -0.45609374806E+01 -0.84872064699E+01  0.16502334096E+02  0.19109208650E+02  0.51100000000E-03 0. -1.
        -11    1    3    3    0    0 -0.39666029479E+00  0.79865256508E+01  0.12983847468E+01  0.81010946527E+01  0.51100000000E-03 0.  1.
        -12    1    3    3    0    0 -0.11742540875E+02  0.79359520024E+01  0.18517197591E+02  0.23318516398E+02  0.00000000000E+00 0.  1.
</event>
<event>
 7    1  0.5764931E-013  0.5052880E+02  0.7816164E-02  0.1300439E+00
        -11   -1    0    0    0    0  0.00000000000E+00  0.00000000000E+00  0.45593999997E+02  0.45594000000E+02  0.51100000000E-03 0.  1.
         11   -1    0    0    0    0 -0.00000000000E+00 -0.00000000000E+00 -0.45593999997E+02  0.45594000000E+02  0.51100000000E-03 0. -1.
    9900012    2    1    2    0    0 -0.85827725136E+01 -0.38770615039E+02  0.87376000490E+01  0.50528803880E+02  0.29999829872E+02 0.  0.
         12    1    1    2    0    0  0.85827725136E+01  0.38770615039E+02 -0.87376000490E+01  0.40659196120E+02  0.00000000000E+00 0. -1.
         11    1    3    3    0    0 -0.60159803563E+01 -0.13060829925E+01  0.92352489566E+01  0.11098995269E+02  0.51100000000E-03 0. -1.
        -11    1    3    3    0    0 -0.37211121093E+01 -0.31404384297E+02  0.38858547835E+01  0.31861919215E+02  0.51100000000E-03 0.  1.
        -12    1    3    3    0    0  0.11543199519E+01 -0.60601477500E+01 -0.43835036910E+01  0.75678893961E+01  0.00000000000E+00 0.  1.
</event>
<event>
 7    1  0.5764931E-013  0.5052885E+02  0.7816164E-02  0.1300439E+00
        -11   -1    0    0    0    0  0.00000000000E+00  0.00000000000E+00  0.45593999997E+02  0.45594000000E+02  0.51100000000E-03 0. -1.
         11   -1    0    0    0    0 -0.00000000000E+00 -0.00000000000E+00 -0.45593999997E+02  0.45594000000E+02  0.51100000000E-03 0.  1.
    9900012    2    1    2    0    0 -0.13565413242E+02 -0.82429296616E+01 -0.37432602988E+02  0.50528854752E+02  0.29999984505E+02 0.  0.
         12    1    1    2    0    0  0.13565413242E+02  0.82429296616E+01  0.37432602988E+02  0.40659145248E+02  0.00000000000E+00 0. -1.
         11    1    3    3    0    0 -0.31913367635E+01  0.22003399936E+01  0.15843500976E+01  0.41876356000E+01  0.51100000000E-03 0. -1.
        -11    1    3    3    0    0 -0.15792486999E+02 -0.10843685255E+02 -0.33547229144E+02  0.38631654624E+02  0.51100000000E-03 0.  1.
        -12    1    3    3    0    0  0.54184105198E+01  0.40041560017E+00 -0.54697239414E+01  0.77095645279E+01  0.00000000000E+00 0.  1.
</event>
<event>
 7    1  0.5764931E-013  0.5052886E+02  0.7816164E-02  0.1300439E+00
        -11   -1    0    0    0    0  0.00000000000E+00  0.00000000000E+00  0.45593999997E+02  0.45594000000E+02  0.51100000000E-03 0.  1.
         11   -1    0    0    0    0 -0.00000000000E+00 -0.00000000000E+00 -0.45593999997E+02  0.45594000000E+02  0.51100000000E-03 0. -1.
    9900012    2    1    2    0    0  0.80139162654E+01  0.36225551150E+02 -0.16632862529E+02  0.50528861717E+02  0.30000005676E+02 0.  0.
         12    1    1    2    0    0 -0.80139162654E+01 -0.36225551150E+02  0.16632862529E+02  0.40659138283E+02  0.00000000000E+00 0. -1.
         11    1    3    3    0    0 -0.29826463724E+01  0.19890208554E+02 -0.20883251065E+02  0.28993563959E+02  0.51100000000E-03 0. -1.
        -11    1    3    3    0    0  0.41096544443E+01  0.10591075233E+02 -0.52978376102E+00  0.11372809914E+02  0.51100000000E-03 0.  1.
         12    1    3    3    0    0  0.68869081935E+01  0.57442673623E+01  0.47801722977E+01  0.10162487845E+02  0.00000000000E+00 0. -1.
</event>
<event>
 7    1  0.5764931E-013  0.5052886E+02  0.7816164E-02  0.1300439E+00
        -11   -1    0    0    0    0  0.00000000000E+00  0.00000000000E+00  0.45593999997E+02  0.45594000000E+02  0.51100000000E-03 0.  1.
         11   -1    0    0    0    0 -0.00000000000E+00 -0.00000000000E+00 -0.45593999997E+02  0.45594000000E+02  0.51100000000E-03 0. -1.
    9900012    2    1    2    0    0  0.23195495962E+02  0.28361452798E+02  0.17628462128E+02  0.50528859395E+02  0.29999998617E+02 0.  0.
         12    1    1    2    0    0 -0.23195495962E+02 -0.28361452798E+02 -0.17628462128E+02  0.40659140605E+02  0.00000000000E+00 0. -1.
         11    1    3    3    0    0 -0.19670682409E+01  0.18517441854E+02  0.58910281146E+01  0.19531237103E+02  0.51100000000E-03 0. -1.
        -11    1    3    3    0    0  0.18309277206E+02  0.10722047037E+02  0.60913288791E+01  0.22074786799E+02  0.51100000000E-03 0.  1.
         12    1    3    3    0    0  0.68532869973E+01 -0.87803609252E+00  0.56461051340E+01  0.89228354928E+01  0.00000000000E+00 0. -1.
</event>
<event>
 7    1  0.5764931E-013  0.5052886E+02  0.7816164E-02  0.1300439E+00
        -11   -1    0    0    0    0  0.00000000000E+00  0.00000000000E+00  0.45593999997E+02  0.45594000000E+02  0.51100000000E-03 0. -1.
         11   -1    0    0    0    0 -0.00000000000E+00 -0.00000000000E+00 -0.45593999997E+02  0.45594000000E+02  0.51100000000E-03 0.  1.
    9900012    2    1    2    0    0 -0.16645252460E+02  0.66274676469E+01 -0.36499016892E+02  0.50528855998E+02  0.29999988291E+02 0.  0.
         12    1    1    2    0    0  0.16645252460E+02 -0.66274676469E+01  0.36499016892E+02  0.40659144002E+02  0.00000000000E+00 0. -1.
         11    1    3    3    0    0 -0.54722810413E+01  0.57791399111E+00 -0.63927264774E+01  0.84348560421E+01  0.51100000000E-03 0. -1.
        -11    1    3    3    0    0  0.56831142700E+01  0.97814073077E+01 -0.71966621897E+01  0.13407671821E+02  0.51100000000E-03 0.  1.
        -12    1    3    3    0    0 -0.16856085689E+02 -0.37318536519E+01 -0.22909628225E+02  0.28686328135E+02  0.00000000000E+00 0.  1.
</event>
<event>
 7    1  0.5764931E-013  0.5052885E+02  0.7816164E-02  0.1300439E+00
        -11   -1    0    0    0    0  0.00000000000E+00  0.00000000000E+00  0.45593999997E+02  0.45594000000E+02  0.51100000000E-03 0.  1.
         11   -1    0    0    0    0 -0.00000000000E+00 -0.00000000000E+00 -0.45593999997E+02  0.45594000000E+02  0.51100000000E-03 0. -1.
    9900012    2    1    2    0    0  0.92116609573E+01  0.38538445799E+02 -0.91159051990E+01  0.50528853061E+02  0.29999979366E+02 0.  0.
         12    1    1    2    0    0 -0.92116609573E+01 -0.38538445799E+02  0.91159051990E+01  0.40659146939E+02  0.00000000000E+00 0. -1.
         11    1    3    3    0    0 -0.30631277955E-01 -0.18888291998E+01  0.37500884494E+01  0.41990210360E+01  0.51100000000E-03 0.  1.
        -11    1    3    3    0    0  0.49448713719E+01  0.37399343207E+02 -0.15077926021E+02  0.40626425865E+02  0.51100000000E-03 0. -1.
         12    1    3    3    0    0  0.42974208634E+01  0.30279317915E+01  0.22119323727E+01  0.57034061606E+01  0.00000000000E+00 0. -1.
</event>
<event>
 7    1  0.5764931E-013  0.5052887E+02  0.7816164E-02  0.1300439E+00
        -11   -1    0    0    0    0  0.00000000000E+00  0.00000000000E+00  0.45593999997E+02  0.45594000000E+02  0.51100000000E-03 0.  1.
         11   -1    0    0    0    0 -0.00000000000E+00 -0.00000000000E+00 -0.45593999997E+02  0.45594000000E+02  0.51100000000E-03 0. -1.
    9900012    2    1    2    0    0 -0.26565950611E+02  0.30591459847E+02  0.34026456881E+01  0.50528866400E+02  0.30000019909E+02 0.  0.
         12    1    1    2    0    0  0.26565950611E+02 -0.30591459847E+02 -0.34026456881E+01  0.40659133600E+02  0.00000000000E+00 0. -1.
         11    1    3    3    0    0 -0.67007781870E+01  0.25312064951E+02  0.81317922320E+01  0.27417642232E+02  0.51100000000E-03 0. -1.
        -11    1    3    3    0    0 -0.13950000654E+02  0.68208282829E+01 -0.24505636801E+00  0.15530172877E+02  0.51100000000E-03 0.  1.
         12    1    3    3    0    0 -0.59151717704E+01 -0.15414333875E+01 -0.44840901759E+01  0.75810512904E+01  0.00000000000E+00 0. -1.
</event>
<event>
 7    1  0.5764931E-013  0.5052886E+02  0.7816164E-02  0.1300439E+00
        -11   -1    0    0    0    0  0.00000000000E+00  0.00000000000E+00  0.45593999997E+02  0.45594000000E+02  0.51100000000E-03 0.  1.
         11   -1    0    0    0    0 -0.00000000000E+00 -0.00000000000E+00 -0.45593999997E+02  0.45594000000E+02  0.51100000000E-03 0. -1.
    9900012    2    1    2    0    0  0.10723932092E+02  0.34494564387E+02  0.18662481401E+02  0.50528857070E+02  0.29999991550E+02 0.  0.
         12    1    1    2    0    0 -0.10723932092E+02 -0.34494564387E+02 -0.18662481401E+02  0.40659142930E+02  0.00000000000E+00 0. -1.
         11    1    3    3    0    0  0.10920734187E+02  0.23415592996E+02  0.36295093960E+01  0.26090721900E+02  0.51100000000E-03 0. -1.
        -11    1    3    3    0    0 -0.41472096221E-01 -0.40927734742E+01  0.33336385718E+01  0.52787935207E+01  0.51100000000E-03 0.  1.
        -12    1    3    3    0    0 -0.15532999876E+00  0.15171744865E+02  0.11699333433E+02  0.19159341649E+02  0.00000000000E+00 0.  1.
</event>
<event>
 7    1  0.5764931E-013  0.5052886E+02  0.7816164E-02  0.1300439E+00
        -11   -1    0    0    0    0  0.00000000000E+00  0.00000000000E+00  0.45593999997E+02  0.45594000000E+02  0.51100000000E-03 0.  1.
         11   -1    0    0    0    0 -0.00000000000E+00 -0.00000000000E+00 -0.45593999997E+02  0.45594000000E+02  0.51100000000E-03 0. -1.
    9900012    2    1    2    0    0 -0.14020469582E+02  0.30021536278E+02  0.23564785909E+02  0.50528863970E+02  0.30000012523E+02 0.  0.
         12    1    1    2    0    0  0.14020469582E+02 -0.30021536278E+02 -0.23564785909E+02  0.40659136030E+02  0.00000000000E+00 0. -1.
         11    1    3    3    0    0 -0.46559848704E+01  0.23330633586E+01  0.18309618207E+01  0.55203080709E+01  0.51100000000E-03 0. -1.
        -11    1    3    3    0    0  0.52924744622E+01  0.17140317395E+02  0.16719673916E+01  0.18016554652E+02  0.51100000000E-03 0.  1.
        -12    1    3    3    0    0 -0.14656959174E+02  0.10548155524E+02  0.20061856696E+02  0.26992001247E+02  0.00000000000E+00 0.  1.
</event>
<event>
 7    1  0.5764931E-013  0.5052886E+02  0.7816164E-02  0.1300439E+00
        -11   -1    0    0    0    0  0.00000000000E+00  0.00000000000E+00  0.45593999997E+02  0.45594000000E+02  0.51100000000E-03 0.  1.
         11   -1    0    0    0    0 -0.00000000000E+00 -0.00000000000E+00 -0.45593999997E+02  0.45594000000E+02  0.51100000000E-03 0. -1.
    9900012    2    1    2    0    0  0.14465733110E+02 -0.37736941630E+02  0.44532413017E+01  0.50528861346E+02  0.30000004547E+02 0.  0.
         12    1    1    2    0    0 -0.14465733110E+02  0.37736941630E+02 -0.44532413017E+01  0.40659138654E+02  0.00000000000E+00 0. -1.
         11    1    3    3    0    0  0.42130380255E+01 -0.37627557111E+02  0.56117933427E-02  0.37862683149E+02  0.51100000000E-03 0. -1.
        -11    1    3    3    0    0  0.46360456806E+01  0.92737807887E+00  0.50562269016E+01  0.69223103365E+01  0.51100000000E-03 0.  1.
         12    1    3    3    0    0  0.56166494035E+01 -0.10367625984E+01 -0.60859739329E+00  0.57438678601E+01  0.00000000000E+00 0. -1.
</event>
<event>
 7    1  0.5764931E-013  0.5052886E+02  0.7816164E-02  0.1300439E+00
        -11   -1    0    0    0    0  0.00000000000E+00  0.00000000000E+00  0.45593999997E+02  0.45594000000E+02  0.51100000000E-03 0.  1.
         11   -1    0    0    0    0 -0.00000000000E+00 -0.00000000000E+00 -0.45593999997E+02  0.45594000000E+02  0.51100000000E-03 0. -1.
    9900012    2    1    2    0    0  0.38061342670E+02 -0.11399040891E+02  0.86349157162E+01  0.50528859471E+02  0.29999998849E+02 0.  0.
         12    1    1    2    0    0 -0.38061342670E+02  0.11399040891E+02 -0.86349157162E+01  0.40659140529E+02  0.00000000000E+00 0. -1.
         11    1    3    3    0    0  0.75962323139E+01  0.29918906617E+01  0.11558292189E+02  0.14150910702E+02  0.51100000000E-03 0. -1.
        -11    1    3    3    0    0  0.28231954361E+02 -0.82725303100E+01 -0.42691834115E+01  0.29727158156E+02  0.51100000000E-03 0.  1.
         12    1    3    3    0    0  0.22331559950E+01 -0.61184012431E+01  0.13458069388E+01  0.66507906136E+01  0.00000000000E+00 0. -1.
</event>
<event>
 7    1  0.5764931E-013  0.5052885E+02  0.7816164E-02  0.1300439E+00
        -11   -1    0    0    0    0  0.00000000000E+00  0.00000000000E+00  0.45593999997E+02  0.45594000000E+02  0.51100000000E-03 0. -1.
         11   -1    0    0    0    0 -0.00000000000E+00 -0.00000000000E+00 -0.45593999997E+02  0.45594000000E+02  0.51100000000E-03 0.  1.
    9900012    2    1    2    0    0  0.25764388900E+02  0.79760519033E+01 -0.30426058379E+02  0.50528853824E+02  0.29999981682E+02 0.  0.
         12    1    1    2    0    0 -0.25764388900E+02 -0.79760519033E+01  0.30426058379E+02  0.40659146176E+02  0.00000000000E+00 0. -1.
         11    1    3    3    0    0 -0.13122628833E+01  0.15229132063E+01 -0.29681466447E+01  0.35848561023E+01  0.51100000000E-03 0. -1.
        -11    1    3    3    0    0  0.19015105118E+02  0.12006271534E+02 -0.58722435034E+01  0.23242375585E+02  0.51100000000E-03 0.  1.
        -12    1    3    3    0    0  0.80615466649E+01 -0.55531328374E+01 -0.21585668230E+02  0.23701622136E+02  0.00000000000E+00 0.  1.
</event>
<event>
 7    1  0.5764931E-013  0.5052886E+02  0.7816164E-02  0.1300439E+00
        -11   -1    0    0    0    0  0.00000000000E+00  0.00000000000E+00  0.45593999997E+02  0.45594000000E+02  0.51100000000E-03 0.  1.
         11   -1    0    0    0    0 -0.00000000000E+00 -0.00000000000E+00 -0.45593999997E+02  0.45594000000E+02  0.51100000000E-03 0. -1.
    9900012    2    1    2    0    0  0.37550271301E+02  0.15491391670E+02  0.17774595764E+01  0.50528862611E+02  0.30000008393E+02 0.  0.
         12    1    1    2    0    0 -0.37550271301E+02 -0.15491391670E+02 -0.17774595764E+01  0.40659137389E+02  0.00000000000E+00 0. -1.
         11    1    3    3    0    0  0.50406669498E+01  0.68269455227E+01  0.90891867346E+01  0.12434983885E+02  0.51100000000E-03 0. -1.
        -11    1    3    3    0    0  0.34067726942E+02  0.70428453141E+01 -0.55302882144E+01  0.35224931187E+02  0.51100000000E-03 0.  1.
        -12    1    3    3    0    0 -0.15581225912E+01  0.16216008331E+01 -0.17814389438E+01  0.28689475390E+01  0.00000000000E+00 0.  1.
</event>
<event>
 7    1  0.5764931E-013  0.5052879E+02  0.7816164E-02  0.1300439E+00
        -11   -1    0    0    0    0  0.00000000000E+00  0.00000000000E+00  0.45593999997E+02  0.45594000000E+02  0.51100000000E-03 0.  1.
         11   -1    0    0    0    0 -0.00000000000E+00 -0.00000000000E+00 -0.45593999997E+02  0.45594000000E+02  0.51100000000E-03 0. -1.
    9900012    2    1    2    0    0  0.19089588114E+02  0.73800389252E+01  0.35132519551E+02  0.50528790971E+02  0.29999790633E+02 0.  0.
         12    1    1    2    0    0 -0.19089588114E+02 -0.73800389252E+01 -0.35132519551E+02  0.40659209029E+02  0.00000000000E+00 0. -1.
         11    1    3    3    0    0  0.10634046199E+02  0.16519050852E+02  0.13583203822E+02  0.23884417639E+02  0.51100000000E-03 0. -1.
        -11    1    3    3    0    0  0.25541432408E+01  0.16902461782E+01  0.65134404256E+01  0.71976028146E+01  0.51100000000E-03 0.  1.
         12    1    3    3    0    0  0.59013986741E+01 -0.10829258105E+02  0.15035875303E+02  0.19446770517E+02  0.00000000000E+00 0. -1.
</event>
<event>
 7    1  0.5764931E-013  0.5052886E+02  0.7816164E-02  0.1300439E+00
        -11   -1    0    0    0    0  0.00000000000E+00  0.00000000000E+00  0.45593999997E+02  0.45594000000E+02  0.51100000000E-03 0.  1.
         11   -1    0    0    0    0 -0.00000000000E+00 -0.00000000000E+00 -0.45593999997E+02  0.45594000000E+02  0.51100000000E-03 0. -1.
    9900012    2    1    2    0    0 -0.17547922045E+02  0.17574898770E+01  0.36635326078E+02  0.50528862582E+02  0.30000008303E+02 0.  0.
         12    1    1    2    0    0  0.17547922045E+02 -0.17574898770E+01 -0.36635326078E+02  0.40659137418E+02  0.00000000000E+00 0. -1.
         11    1    3    3    0    0 -0.56283300043E+00  0.55003284958E+01  0.36051477258E+01  0.66005670161E+01  0.51100000000E-03 0. -1.
        -11    1    3    3    0    0 -0.19758711290E+02 -0.65321243949E+01  0.34012535864E+02  0.39873900199E+02  0.51100000000E-03 0.  1.
        -12    1    3    3    0    0  0.27736222463E+01  0.27892857762E+01 -0.98235751130E+00  0.40543953663E+01  0.00000000000E+00 0.  1.
</event>
<event>
 7    1  0.5764931E-013  0.5052885E+02  0.7816164E-02  0.1300439E+00
        -11   -1    0    0    0    0  0.00000000000E+00  0.00000000000E+00  0.45593999997E+02  0.45594000000E+02  0.51100000000E-03 0.  1.
         11   -1    0    0    0    0 -0.00000000000E+00 -0.00000000000E+00 -0.45593999997E+02  0.45594000000E+02  0.51100000000E-03 0. -1.
    9900012    2    1    2    0    0  0.23477239513E+02 -0.15692620713E+02  0.29252819661E+02  0.50528848778E+02  0.29999966346E+02 0.  0.
         12    1    1    2    0    0 -0.23477239513E+02  0.15692620713E+02 -0.29252819661E+02  0.40659151222E+02  0.00000000000E+00 0. -1.
         11    1    3    3    0    0  0.12210519959E+02 -0.64152885840E+01 -0.73099032472E+00  0.13812569363E+02  0.51100000000E-03 0. -1.
        -11    1    3    3    0    0  0.10410419512E+02 -0.61201239846E+01  0.31017639964E+02  0.33285533512E+02  0.51100000000E-03 0.  1.
        -12    1    3    3    0    0  0.85630004187E+00 -0.31572081441E+01 -0.10338299784E+01  0.34307459030E+01  0.00000000000E+00 0.  1.
</event>
<event>
 7    1  0.5764931E-013  0.5052885E+02  0.7816164E-02  0.1300439E+00
        -11   -1    0    0    0    0  0.00000000000E+00  0.00000000000E+00  0.45593999997E+02  0.45594000000E+02  0.51100000000E-03 0. -1.
         11   -1    0    0    0    0 -0.00000000000E+00 -0.00000000000E+00 -0.45593999997E+02  0.45594000000E+02  0.51100000000E-03 0.  1.
    9900012    2    1    2    0    0  0.18523581195E+02  0.34017787757E+02  0.12362592640E+02  0.50528848005E+02  0.29999963996E+02 0.  0.
         12    1    1    2    0    0 -0.18523581195E+02 -0.34017787757E+02 -0.12362592640E+02  0.40659151995E+02  0.00000000000E+00 0. -1.
         11    1    3    3    0    0 -0.34292160679E+00  0.12474340919E+02  0.14956853832E+01  0.12568367102E+02  0.51100000000E-03 0. -1.
        -11    1    3    3    0    0  0.15796112084E+02  0.90832276035E+01 -0.36512087414E+01  0.18583689252E+02  0.51100000000E-03 0.  1.
        -12    1    3    3    0    0  0.30703907174E+01  0.12460219234E+02  0.14518115999E+02  0.19376791651E+02  0.00000000000E+00 0.  1.
</event>
<event>
 7    1  0.5764931E-013  0.5052882E+02  0.7816164E-02  0.1300439E+00
        -11   -1    0    0    0    0  0.00000000000E+00  0.00000000000E+00  0.45593999997E+02  0.45594000000E+02  0.51100000000E-03 0. -1.
         11   -1    0    0    0    0 -0.00000000000E+00 -0.00000000000E+00 -0.45593999997E+02  0.45594000000E+02  0.51100000000E-03 0.  1.
    9900012    2    1    2    0    0  0.20849875493E+02 -0.98749039273E+01 -0.33480407016E+02  0.50528822812E+02  0.29999887419E+02 0.  0.
         12    1    1    2    0    0 -0.20849875493E+02  0.98749039273E+01  0.33480407016E+02  0.40659177188E+02  0.00000000000E+00 0. -1.
         11    1    3    3    0    0 -0.70679348232E+01  0.66781570912E+00 -0.37998129765E+01  0.80523449630E+01  0.51100000000E-03 0. -1.
        -11    1    3    3    0    0  0.20378228475E+02 -0.10043602851E+02 -0.23791296788E+02  0.32896382128E+02  0.51100000000E-03 0.  1.
         12    1    3    3    0    0  0.75395818409E+01 -0.49911678587E+00 -0.58892972518E+01  0.95800957209E+01  0.00000000000E+00 0. -1.
</event>
<event>
 7    1  0.5764931E-013  0.5052887E+02  0.7816164E-02  0.1300439E+00
        -11   -1    0    0    0    0  0.00000000000E+00  0.00000000000E+00  0.45593999997E+02  0.45594000000E+02  0.51100000000E-03 0. -1.
         11   -1    0    0    0    0 -0.00000000000E+00 -0.00000000000E+00 -0.45593999997E+02  0.45594000000E+02  0.51100000000E-03 0.  1.
    9900012    2    1    2    0    0  0.28877868969E+02 -0.48960432075E+01 -0.28200401638E+02  0.50528865629E+02  0.30000017565E+02 0.  0.
         12    1    1    2    0    0 -0.28877868969E+02  0.48960432075E+01  0.28200401638E+02  0.40659134371E+02  0.00000000000E+00 0. -1.
         11    1    3    3    0    0  0.84022707335E+01 -0.82374732309E+01 -0.73147303587E+01  0.13854941328E+02  0.51100000000E-03 0. -1.
        -11    1    3    3    0    0  0.36458531736E+01  0.64132964768E+01  0.24193076674E+01  0.77637405234E+01  0.51100000000E-03 0.  1.
        -12    1    3    3    0    0  0.16829745062E+02 -0.30718664534E+01 -0.23304978947E+02  0.28910183778E+02  0.00000000000E+00 0.  1.
</event>
<event>
 7    1  0.5764931E-013  0.5052885E+02  0.7816164E-02  0.1300439E+00
        -11   -1    0    0    0    0  0.00000000000E+00  0.00000000000E+00  0.45593999997E+02  0.45594000000E+02  0.51100000000E-03 0.  1.
         11   -1    0    0    0    0 -0.00000000000E+00 -0.00000000000E+00 -0.45593999997E+02  0.45594000000E+02  0.51100000000E-03 0. -1.
    9900012    2    1    2    0    0 -0.26150747849E+02 -0.21507685254E+01  0.31059278638E+02  0.50528853331E+02  0.29999980186E+02 0.  0.
         12    1    1    2    0    0  0.26150747849E+02  0.21507685254E+01 -0.31059278638E+02  0.40659146669E+02  0.00000000000E+00 0. -1.
         11    1    3    3    0    0 -0.35492324171E+01  0.62444785812E+01 -0.19069564027E+01  0.74314901927E+01  0.51100000000E-03 0. -1.
        -11    1    3    3    0    0 -0.24449623915E+02 -0.71178233530E+01  0.30943939206E+02  0.40074616564E+02  0.51100000000E-03 0.  1.
         12    1    3    3    0    0  0.18481084837E+01 -0.12774237536E+01  0.20222958343E+01  0.30227465748E+01  0.00000000000E+00 0. -1.
</event>
<event>
 7    1  0.5764931E-013  0.5052886E+02  0.7816164E-02  0.1300439E+00
        -11   -1    0    0    0    0  0.00000000000E+00  0.00000000000E+00  0.45593999997E+02  0.45594000000E+02  0.51100000000E-03 0. -1.
         11   -1    0    0    0    0 -0.00000000000E+00 -0.00000000000E+00 -0.45593999997E+02  0.45594000000E+02  0.51100000000E-03 0.  1.
    9900012    2    1    2    0    0  0.18107694924E+02  0.34379307592E+02 -0.11972469359E+02  0.50528862915E+02  0.30000009316E+02 0.  0.
         12    1    1    2    0    0 -0.18107694924E+02 -0.34379307592E+02  0.11972469359E+02  0.40659137085E+02  0.00000000000E+00 0. -1.
         11    1    3    3    0    0  0.23471537421E+02  0.17087919795E+02 -0.45370816414E+01  0.29385288529E+02  0.51100000000E-03 0. -1.
        -11    1    3    3    0    0 -0.56886025364E+01  0.16375613853E+02 -0.88213908735E+01  0.19450909107E+02  0.51100000000E-03 0.  1.
         12    1    3    3    0    0  0.32476003927E+00  0.91577394393E+00  0.13860031561E+01  0.16926652794E+01  0.00000000000E+00 0. -1.
</event>
<event>
 7    1  0.5764931E-013  0.5052886E+02  0.7816164E-02  0.1300439E+00
        -11   -1    0    0    0    0  0.00000000000E+00  0.00000000000E+00  0.45593999997E+02  0.45594000000E+02  0.51100000000E-03 0.  1.
         11   -1    0    0    0    0 -0.00000000000E+00 -0.00000000000E+00 -0.45593999997E+02  0.45594000000E+02  0.51100000000E-03 0. -1.
    9900012    2    1    2    0    0  0.21602109626E+02  0.28559339055E+02  0.19258205776E+02  0.50528862315E+02  0.30000007493E+02 0.  0.
         12    1    1    2    0    0 -0.21602109626E+02 -0.28559339055E+02 -0.19258205776E+02  0.40659137685E+02  0.00000000000E+00 0. -1.
         11    1    3    3    0    0  0.15371629396E+01  0.42179447781E+01 -0.34721606634E+01  0.56753702952E+01  0.51100000000E-03 0. -1.
        -11    1    3    3    0    0  0.23004099819E+02  0.24486814500E+02  0.15408402460E+02  0.36962299164E+02  0.51100000000E-03 0.  1.
        -12    1    3    3    0    0 -0.29391531325E+01 -0.14542022332E+00  0.73219639794E+01  0.78911928562E+01  0.00000000000E+00 0.  1.
</event>
<event>
 7    1  0.5764931E-013  0.5052887E+02  0.7816164E-02  0.1300439E+00
        -11   -1    0    0    0    0  0.00000000000E+00  0.00000000000E+00  0.45593999997E+02  0.45594000000E+02  0.51100000000E-03 0.  1.
         11   -1    0    0    0    0 -0.00000000000E+00 -0.00000000000E+00 -0.45593999997E+02  0.45594000000E+02  0.51100000000E-03 0. -1.
    9900012    2    1    2    0    0  0.99157251873E+01  0.16544154115E+00  0.39431158579E+02  0.50528865187E+02  0.30000016221E+02 0.  0.
         12    1    1    2    0    0 -0.99157251873E+01 -0.16544154115E+00 -0.39431158579E+02  0.40659134813E+02  0.00000000000E+00 0. -1.
         11    1    3    3    0    0  0.13120506138E+02 -0.92739865990E+01  0.33619280617E+02  0.37261381325E+02  0.51100000000E-03 0.  1.
        -11    1    3    3    0    0 -0.34190343297E+01  0.13042891298E+01  0.92316132454E+00  0.37740154973E+01  0.51100000000E-03 0. -1.
        -12    1    3    3    0    0  0.21425337886E+00  0.81351390103E+01  0.48887166376E+01  0.94934683646E+01  0.00000000000E+00 0.  1.
</event>
<event>
 7    1  0.5764931E-013  0.5052886E+02  0.7816164E-02  0.1300439E+00
        -11   -1    0    0    0    0  0.00000000000E+00  0.00000000000E+00  0.45593999997E+02  0.45594000000E+02  0.51100000000E-03 0.  1.
         11   -1    0    0    0    0 -0.00000000000E+00 -0.00000000000E+00 -0.45593999997E+02  0.45594000000E+02  0.51100000000E-03 0. -1.
    9900012    2    1    2    0    0  0.28211856084E+02  0.25993991138E+02  0.13474765787E+02  0.50528859429E+02  0.29999998719E+02 0.  0.
         12    1    1    2    0    0 -0.28211856084E+02 -0.25993991138E+02 -0.13474765787E+02  0.40659140571E+02  0.00000000000E+00 0. -1.
         11    1    3    3    0    0  0.27649714574E+02  0.17594062037E+02  0.16402761128E+02  0.36648442093E+02  0.51100000000E-03 0. -1.
        -11    1    3    3    0    0  0.22626755492E+01 -0.17306120737E+01 -0.21685033840E+01  0.35801013922E+01  0.51100000000E-03 0.  1.
         12    1    3    3    0    0 -0.17005340388E+01  0.10130541174E+02 -0.75949195672E+00  0.10300315943E+02  0.00000000000E+00 0. -1.
</event>
<event>
 7    1  0.5764931E-013  0.5052886E+02  0.7816164E-02  0.1300439E+00
        -11   -1    0    0    0    0  0.00000000000E+00  0.00000000000E+00  0.45593999997E+02  0.45594000000E+02  0.51100000000E-03 0. -1.
         11   -1    0    0    0    0 -0.00000000000E+00 -0.00000000000E+00 -0.45593999997E+02  0.45594000000E+02  0.51100000000E-03 0.  1.
    9900012    2    1    2    0    0 -0.11557603623E+02  0.25036452227E+02 -0.29879153674E+02  0.50528856307E+02  0.29999989230E+02 0.  0.
         12    1    1    2    0    0  0.11557603623E+02 -0.25036452227E+02  0.29879153674E+02  0.40659143693E+02  0.00000000000E+00 0. -1.
         11    1    3    3    0    0  0.35092144192E+01  0.49550970701E+00 -0.22463398763E+01  0.41959693529E+01  0.51100000000E-03 0. -1.
        -11    1    3    3    0    0 -0.52176483175E+01  0.25457853422E+02 -0.25083340795E+02  0.36117864563E+02  0.51100000000E-03 0.  1.
        -12    1    3    3    0    0 -0.98491697244E+01 -0.91691090280E+00 -0.25494730022E+01  0.10215022391E+02  0.00000000000E+00 0.  1.
</event>
<event>
 7    1  0.5764931E-013  0.5052885E+02  0.7816164E-02  0.1300439E+00
        -11   -1    0    0    0    0  0.00000000000E+00  0.00000000000E+00  0.45593999997E+02  0.45594000000E+02  0.51100000000E-03 0.  1.
         11   -1    0    0    0    0 -0.00000000000E+00 -0.00000000000E+00 -0.45593999997E+02  0.45594000000E+02  0.51100000000E-03 0. -1.
    9900012    2    1    2    0    0  0.22314514031E+02 -0.12708388487E+02  0.31523413719E+02  0.50528852360E+02  0.29999977232E+02 0.  0.
         12    1    1    2    0    0 -0.22314514031E+02  0.12708388487E+02 -0.31523413719E+02  0.40659147640E+02  0.00000000000E+00 0. -1.
         11    1    3    3    0    0  0.11810684550E+02  0.69099079784E+01  0.46333339698E+01  0.14446691031E+02  0.51100000000E-03 0. -1.
        -11    1    3    3    0    0  0.25560848821E+01 -0.10719699225E+02  0.75517724229E+01  0.13359445661E+02  0.51100000000E-03 0.  1.
         12    1    3    3    0    0  0.79477445990E+01 -0.88985972406E+01  0.19338307326E+02  0.22722715667E+02  0.00000000000E+00 0. -1.
</event>
<event>
 7    1  0.5764931E-013  0.5052889E+02  0.7816164E-02  0.1300439E+00
        -11   -1    0    0    0    0  0.00000000000E+00  0.00000000000E+00  0.45593999997E+02  0.45594000000E+02  0.51100000000E-03 0.  1.
         11   -1    0    0    0    0 -0.00000000000E+00 -0.00000000000E+00 -0.45593999997E+02  0.45594000000E+02  0.51100000000E-03 0. -1.
    9900012    2    1    2    0    0 -0.57415610270E+01  0.40297977162E+01  0.40049453809E+02  0.50528886101E+02  0.30000079792E+02 0.  0.
         12    1    1    2    0    0  0.57415610270E+01 -0.40297977162E+01 -0.40049453809E+02  0.40659113899E+02  0.00000000000E+00 0. -1.
         11    1    3    3    0    0 -0.48451359405E+01  0.75347550223E+01  0.36643027157E+02  0.37722132959E+02  0.51100000000E-03 0. -1.
        -11    1    3    3    0    0  0.30411545868E+01 -0.55981574850E+01  0.49711134263E+01  0.80808389048E+01  0.51100000000E-03 0.  1.
         12    1    3    3    0    0 -0.39375796733E+01  0.20932001789E+01 -0.15646867739E+01  0.47259142368E+01  0.00000000000E+00 0. -1.
</event>
<event>
 7    1  0.5764931E-013  0.5052887E+02  0.7816164E-02  0.1300439E+00
        -11   -1    0    0    0    0  0.00000000000E+00  0.00000000000E+00  0.45593999997E+02  0.45594000000E+02  0.51100000000E-03 0. -1.
         11   -1    0    0    0    0 -0.00000000000E+00 -0.00000000000E+00 -0.45593999997E+02  0.45594000000E+02  0.51100000000E-03 0.  1.
    9900012    2    1    2    0    0  0.26913177874E+02 -0.29976959396E+02 -0.54980014030E+01  0.50528865020E+02  0.30000015714E+02 0.  0.
         12    1    1    2    0    0 -0.26913177874E+02  0.29976959396E+02  0.54980014030E+01  0.40659134980E+02  0.00000000000E+00 0. -1.
         11    1    3    3    0    0 -0.15522493286E+01 -0.82822515168E+01  0.70148569889E+01  0.10964186564E+02  0.51100000000E-03 0. -1.
        -11    1    3    3    0    0  0.86218979549E+01 -0.13103780895E+02 -0.74066270421E+01  0.17346593974E+02  0.51100000000E-03 0.  1.
         12    1    3    3    0    0  0.19843529248E+02 -0.85909269839E+01 -0.51062313498E+01  0.22218084482E+02  0.00000000000E+00 0. -1.
</event>
<event>
 7    1  0.5764931E-013  0.5052886E+02  0.7816164E-02  0.1300439E+00
        -11   -1    0    0    0    0  0.00000000000E+00  0.00000000000E+00  0.45593999997E+02  0.45594000000E+02  0.51100000000E-03 0. -1.
         11   -1    0    0    0    0 -0.00000000000E+00 -0.00000000000E+00 -0.45593999997E+02  0.45594000000E+02  0.51100000000E-03 0.  1.
    9900012    2    1    2    0    0  0.39319279587E+02 -0.67694029521E+01  0.78316844855E+01  0.50528857788E+02  0.29999993732E+02 0.  0.
         12    1    1    2    0    0 -0.39319279587E+02  0.67694029521E+01 -0.78316844855E+01  0.40659142212E+02  0.00000000000E+00 0. -1.
         11    1    3    3    0    0  0.23924079320E+02  0.79238517317E+01  0.34770696802E+01  0.25440892504E+02  0.51100000000E-03 0. -1.
        -11    1    3    3    0    0  0.17243919687E+02 -0.13393980902E+02  0.55537455402E+01  0.22529881943E+02  0.51100000000E-03 0.  1.
         12    1    3    3    0    0 -0.18487194211E+01 -0.12992737821E+01 -0.11991307349E+01  0.25580833408E+01  0.00000000000E+00 0. -1.
</event>
<event>
 7    1  0.5764931E-013  0.5052886E+02  0.7816164E-02  0.1300439E+00
        -11   -1    0    0    0    0  0.00000000000E+00  0.00000000000E+00  0.45593999997E+02  0.45594000000E+02  0.51100000000E-03 0. -1.
         11   -1    0    0    0    0 -0.00000000000E+00 -0.00000000000E+00 -0.45593999997E+02  0.45594000000E+02  0.51100000000E-03 0.  1.
    9900012    2    1    2    0    0 -0.19017798930E+02  0.20029606155E+01 -0.35881431592E+02  0.50528860062E+02  0.30000000646E+02 0.  0.
         12    1    1    2    0    0  0.19017798930E+02 -0.20029606155E+01  0.35881431592E+02  0.40659139938E+02  0.00000000000E+00 0. -1.
         11    1    3    3    0    0 -0.34412177885E+01 -0.82997540372E+01 -0.40365548643E+01  0.98499579887E+01  0.51100000000E-03 0. -1.
        -11    1    3    3    0    0 -0.65691436234E+01  0.14022367048E+02 -0.21109839178E+02  0.26180254696E+02  0.51100000000E-03 0.  1.
        -12    1    3    3    0    0 -0.90074375181E+01 -0.37196523953E+01 -0.10735037550E+02  0.14498647378E+02  0.00000000000E+00 0.  1.
</event>
<event>
 7    1  0.5764931E-013  0.5052885E+02  0.7816164E-02  0.1300439E+00
        -11   -1    0    0    0    0  0.00000000000E+00  0.00000000000E+00  0.45593999997E+02  0.45594000000E+02  0.51100000000E-03 0.  1.
         11   -1    0    0    0    0 -0.00000000000E+00 -0.00000000000E+00 -0.45593999997E+02  0.45594000000E+02  0.51100000000E-03 0. -1.
    9900012    2    1    2    0    0  0.18675337380E+02 -0.12770056567E+02  0.33783481802E+02  0.50528853259E+02  0.29999979967E+02 0.  0.
         12    1    1    2    0    0 -0.18675337380E+02  0.12770056567E+02 -0.33783481802E+02  0.40659146741E+02  0.00000000000E+00 0. -1.
         11    1    3    3    0    0  0.14556105428E+01 -0.10796721455E+02  0.22915188943E+01  0.11132791893E+02  0.51100000000E-03 0. -1.
        -11    1    3    3    0    0  0.60841995230E+01  0.43722274013E+01  0.22566672488E+02  0.23777900743E+02  0.51100000000E-03 0.  1.
        -12    1    3    3    0    0  0.11135527314E+02 -0.63455625137E+01  0.89252904200E+01  0.15618160623E+02  0.00000000000E+00 0.  1.
</event>
<event>
 7    1  0.5764931E-013  0.5052885E+02  0.7816164E-02  0.1300439E+00
        -11   -1    0    0    0    0  0.00000000000E+00  0.00000000000E+00  0.45593999997E+02  0.45594000000E+02  0.51100000000E-03 0.  1.
         11   -1    0    0    0    0 -0.00000000000E+00 -0.00000000000E+00 -0.45593999997E+02  0.45594000000E+02  0.51100000000E-03 0. -1.
    9900012    2    1    2    0    0 -0.25958156642E+02  0.29087054004E+02  0.11544861996E+02  0.50528850410E+02  0.29999971306E+02 0.  0.
         12    1    1    2    0    0  0.25958156642E+02 -0.29087054004E+02 -0.11544861996E+02  0.40659149590E+02  0.00000000000E+00 0. -1.
         11    1    3    3    0    0 -0.18378612117E+02  0.58066501609E+01  0.33932488494E+01  0.19570506061E+02  0.51100000000E-03 0. -1.
        -11    1    3    3    0    0 -0.77078904576E+01  0.25353643879E+02  0.46752638289E+01  0.26908677511E+02  0.51100000000E-03 0.  1.
        -12    1    3    3    0    0  0.12834593265E+00 -0.20732400358E+01  0.34763493178E+01  0.40496668386E+01  0.00000000000E+00 0.  1.
</event>
<event>
 7    1  0.5764931E-013  0.5052894E+02  0.7816164E-02  0.1300439E+00
        -11   -1    0    0    0    0  0.00000000000E+00  0.00000000000E+00  0.45593999997E+02  0.45594000000E+02  0.51100000000E-03 0. -1.
         11   -1    0    0    0    0 -0.00000000000E+00 -0.00000000000E+00 -0.45593999997E+02  0.45594000000E+02  0.51100000000E-03 0.  1.
    9900012    2    1    2    0    0 -0.28024556736E+02  0.74941664420E+01 -0.28488961296E+02  0.50528939182E+02  0.30000241136E+02 0.  0.
         12    1    1    2    0    0  0.28024556736E+02 -0.74941664420E+01  0.28488961296E+02  0.40659060818E+02  0.00000000000E+00 0. -1.
         11    1    3    3    0    0 -0.19663081102E+02 -0.83970942449E+01 -0.12482286981E+02  0.24757936883E+02  0.51100000000E-03 0. -1.
        -11    1    3    3    0    0 -0.15655175848E+01 -0.93015901296E+00 -0.45888503892E+00  0.18779288692E+01  0.51100000000E-03 0.  1.
         12    1    3    3    0    0 -0.67959580493E+01  0.16821419700E+02 -0.15547789276E+02  0.23893073429E+02  0.00000000000E+00 0. -1.
</event>
<event>
 7    1  0.5764931E-013  0.5052884E+02  0.7816164E-02  0.1300439E+00
        -11   -1    0    0    0    0  0.00000000000E+00  0.00000000000E+00  0.45593999997E+02  0.45594000000E+02  0.51100000000E-03 0.  1.
         11   -1    0    0    0    0 -0.00000000000E+00 -0.00000000000E+00 -0.45593999997E+02  0.45594000000E+02  0.51100000000E-03 0. -1.
    9900012    2    1    2    0    0  0.11735681972E+02 -0.16345358682E+02  0.35330868857E+02  0.50528840196E+02  0.29999940259E+02 0.  0.
         12    1    1    2    0    0 -0.11735681972E+02  0.16345358682E+02 -0.35330868857E+02  0.40659159804E+02  0.00000000000E+00 0. -1.
         11    1    3    3    0    0  0.74626883220E+01 -0.11659974444E+02  0.58326879497E+00  0.13855934605E+02  0.51100000000E-03 0. -1.
        -11    1    3    3    0    0  0.31511703438E+01 -0.78017354204E+01  0.24865911578E+02  0.26250914440E+02  0.51100000000E-03 0.  1.
         12    1    3    3    0    0  0.11218233058E+01  0.31163511831E+01  0.98816884848E+01  0.10421991150E+02  0.00000000000E+00 0. -1.
</event>
<event>
 7    1  0.5764931E-013  0.5052885E+02  0.7816164E-02  0.1300439E+00
        -11   -1    0    0    0    0  0.00000000000E+00  0.00000000000E+00  0.45593999997E+02  0.45594000000E+02  0.51100000000E-03 0.  1.
         11   -1    0    0    0    0 -0.00000000000E+00 -0.00000000000E+00 -0.45593999997E+02  0.45594000000E+02  0.51100000000E-03 0. -1.
    9900012    2    1    2    0    0  0.57409704559E+01  0.45577605261E+01  0.39992926299E+02  0.50528854943E+02  0.29999985085E+02 0.  0.
         12    1    1    2    0    0 -0.57409704559E+01 -0.45577605261E+01 -0.39992926299E+02  0.40659145057E+02  0.00000000000E+00 0. -1.
         11    1    3    3    0    0  0.92398096070E+00 -0.54481935930E+01  0.61507555418E+01  0.82685154798E+01  0.51100000000E-03 0. -1.
        -11    1    3    3    0    0  0.98320024898E+01  0.74190475337E+01  0.34449134492E+02  0.36584879483E+02  0.51100000000E-03 0.  1.
        -12    1    3    3    0    0 -0.50150129946E+01  0.25869065854E+01 -0.60696373451E+00  0.56754599807E+01  0.00000000000E+00 0.  1.
</event>
<event>
 7    1  0.5764931E-013  0.5052886E+02  0.7816164E-02  0.1300439E+00
        -11   -1    0    0    0    0  0.00000000000E+00  0.00000000000E+00  0.45593999997E+02  0.45594000000E+02  0.51100000000E-03 0.  1.
         11   -1    0    0    0    0 -0.00000000000E+00 -0.00000000000E+00 -0.45593999997E+02  0.45594000000E+02  0.51100000000E-03 0. -1.
    9900012    2    1    2    0    0 -0.17724025564E+02 -0.19544194954E+02  0.30936209183E+02  0.50528859856E+02  0.30000000019E+02 0.  0.
         12    1    1    2    0    0  0.17724025564E+02  0.19544194954E+02 -0.30936209183E+02  0.40659140144E+02  0.00000000000E+00 0. -1.
         11    1    3    3    0    0  0.66271457277E-01 -0.63431893242E+01  0.24794574564E+02  0.25593189930E+02  0.51100000000E-03 0. -1.
        -11    1    3    3    0    0 -0.98409170546E+01 -0.14618141590E+01  0.18187368051E+01  0.10113770461E+02  0.51100000000E-03 0.  1.
        -12    1    3    3    0    0 -0.79493799663E+01 -0.11739191471E+02  0.43228978144E+01  0.14821899465E+02  0.00000000000E+00 0.  1.
</event>
<event>
 7    1  0.5764931E-013  0.5052886E+02  0.7816164E-02  0.1300439E+00
        -11   -1    0    0    0    0  0.00000000000E+00  0.00000000000E+00  0.45593999997E+02  0.45594000000E+02  0.51100000000E-03 0. -1.
         11   -1    0    0    0    0 -0.00000000000E+00 -0.00000000000E+00 -0.45593999997E+02  0.45594000000E+02  0.51100000000E-03 0.  1.
    9900012    2    1    2    0    0 -0.18284186437E+02 -0.35001375938E+02  0.96828566176E+01  0.50528861993E+02  0.30000006514E+02 0.  0.
         12    1    1    2    0    0  0.18284186437E+02  0.35001375938E+02 -0.96828566176E+01  0.40659138007E+02  0.00000000000E+00 0. -1.
         11    1    3    3    0    0 -0.25380100410E+02 -0.23518241586E+02  0.11532488011E+02  0.36472667357E+02  0.51100000000E-03 0. -1.
        -11    1    3    3    0    0  0.24953145773E+01 -0.70601443513E+01 -0.32744839131E+00  0.74952955786E+01  0.51100000000E-03 0.  1.
         12    1    3    3    0    0  0.46005993963E+01 -0.44229900003E+01 -0.15221830022E+01  0.65608990573E+01  0.00000000000E+00 0. -1.
</event>
<event>
 7    1  0.5764931E-013  0.5052886E+02  0.7816164E-02  0.1300439E+00
        -11   -1    0    0    0    0  0.00000000000E+00  0.00000000000E+00  0.45593999997E+02  0.45594000000E+02  0.51100000000E-03 0.  1.
         11   -1    0    0    0    0 -0.00000000000E+00 -0.00000000000E+00 -0.45593999997E+02  0.45594000000E+02  0.51100000000E-03 0. -1.
    9900012    2    1    2    0    0  0.17180717618E+02 -0.36829026112E+02  0.12695054165E+01  0.50528857532E+02  0.29999992954E+02 0.  0.
         12    1    1    2    0    0 -0.17180717618E+02  0.36829026112E+02 -0.12695054165E+01  0.40659142468E+02  0.00000000000E+00 0. -1.
         11    1    3    3    0    0  0.20949953509E+01 -0.20007620756E+02  0.71560315511E+00  0.20129728810E+02  0.51100000000E-03 0. -1.
        -11    1    3    3    0    0  0.64418260417E+01 -0.34037044308E+01 -0.91679965033E+01  0.11710443491E+02  0.51100000000E-03 0.  1.
        -12    1    3    3    0    0  0.86438962252E+01 -0.13417700925E+02  0.97218987647E+01  0.18688685231E+02  0.00000000000E+00 0.  1.
</event>
<event>
 7    1  0.5764931E-013  0.5052885E+02  0.7816164E-02  0.1300439E+00
        -11   -1    0    0    0    0  0.00000000000E+00  0.00000000000E+00  0.45593999997E+02  0.45594000000E+02  0.51100000000E-03 0.  1.
         11   -1    0    0    0    0 -0.00000000000E+00 -0.00000000000E+00 -0.45593999997E+02  0.45594000000E+02  0.51100000000E-03 0. -1.
    9900012    2    1    2    0    0 -0.38919489796E+02 -0.10462997399E+02  0.53819903096E+01  0.50528845801E+02  0.29999957295E+02 0.  0.
         12    1    1    2    0    0  0.38919489796E+02  0.10462997399E+02 -0.53819903096E+01  0.40659154199E+02  0.00000000000E+00 0. -1.
         11    1    3    3    0    0  0.46781696383E+00 -0.30987092906E+01  0.48424448253E+01  0.57680260164E+01  0.51100000000E-03 0. -1.
        -11    1    3    3    0    0 -0.20312974255E+02  0.33111842529E+01 -0.68435646822E+01  0.21689058119E+02  0.51100000000E-03 0.  1.
        -12    1    3    3    0    0 -0.19074332504E+02 -0.10675472361E+02  0.73831101665E+01  0.23071761665E+02  0.00000000000E+00 0.  1.
</event>
<event>
 7    1  0.5764931E-013  0.5052886E+02  0.7816164E-02  0.1300439E+00
        -11   -1    0    0    0    0  0.00000000000E+00  0.00000000000E+00  0.45593999997E+02  0.45594000000E+02  0.51100000000E-03 0.  1.
         11   -1    0    0    0    0 -0.00000000000E+00 -0.00000000000E+00 -0.45593999997E+02  0.45594000000E+02  0.51100000000E-03 0. -1.
    9900012    2    1    2    0    0  0.16276953130E+02  0.18809050915E+02  0.32162809351E+02  0.50528857057E+02  0.29999991510E+02 0.  0.
         12    1    1    2    0    0 -0.16276953130E+02 -0.18809050915E+02 -0.32162809351E+02  0.40659142943E+02  0.00000000000E+00 0. -1.
         11    1    3    3    0    0  0.47322191409E+01 -0.64192754517E+01  0.12866922202E+02  0.15137988061E+02  0.51100000000E-03 0. -1.
        -11    1    3    3    0    0  0.13549742236E+02  0.22465940506E+02  0.17467451955E+02  0.31518659165E+02  0.51100000000E-03 0.  1.
        -12    1    3    3    0    0 -0.20050082472E+01  0.27623858609E+01  0.18284351941E+01  0.38722098310E+01  0.00000000000E+00 0.  1.
</event>
<event>
 7    1  0.5764931E-013  0.5052886E+02  0.7816164E-02  0.1300439E+00
        -11   -1    0    0    0    0  0.00000000000E+00  0.00000000000E+00  0.45593999997E+02  0.45594000000E+02  0.51100000000E-03 0.  1.
         11   -1    0    0    0    0 -0.00000000000E+00 -0.00000000000E+00 -0.45593999997E+02  0.45594000000E+02  0.51100000000E-03 0. -1.
    9900012    2    1    2    0    0  0.14048913276E+02 -0.37954700262E+02 -0.39031645724E+01  0.50528856749E+02  0.29999990574E+02 0.  0.
         12    1    1    2    0    0 -0.14048913276E+02  0.37954700262E+02  0.39031645724E+01  0.40659143251E+02  0.00000000000E+00 0. -1.
         11    1    3    3    0    0  0.14809418843E+02 -0.24799695130E+02 -0.12108716940E+02  0.31320357457E+02  0.51100000000E-03 0. -1.
        -11    1    3    3    0    0  0.30132190961E+01 -0.13352600299E+01  0.56492175656E+01  0.65403415838E+01  0.51100000000E-03 0.  1.
        -12    1    3    3    0    0 -0.37737246636E+01 -0.11819745102E+02  0.25563348016E+01  0.12668157709E+02  0.00000000000E+00 0.  1.
</event>
<event>
 7    1  0.5764931E-013  0.5052886E+02  0.7816164E-02  0.1300439E+00
        -11   -1    0    0    0    0  0.00000000000E+00  0.00000000000E+00  0.45593999997E+02  0.45594000000E+02  0.51100000000E-03 0.  1.
         11   -1    0    0    0    0 -0.00000000000E+00 -0.00000000000E+00 -0.45593999997E+02  0.45594000000E+02  0.51100000000E-03 0. -1.
    9900012    2    1    2    0    0 -0.67653780662E+01  0.38603869358E+02 -0.10822962696E+02  0.50528860913E+02  0.30000003231E+02 0.  0.
         12    1    1    2    0    0  0.67653780662E+01 -0.38603869358E+02  0.10822962696E+02  0.40659139087E+02  0.00000000000E+00 0. -1.
         11    1    3    3    0    0  0.54416106281E+01  0.25711800938E+00 -0.42522274458E+01  0.69107651104E+01  0.51100000000E-03 0. -1.
        -11    1    3    3    0    0 -0.11124230478E+02  0.35707488937E+02 -0.10628410761E+01  0.37415276310E+02  0.51100000000E-03 0.  1.
        -12    1    3    3    0    0 -0.10827582165E+01  0.26392624111E+01 -0.55078941738E+01  0.62028194928E+01  0.00000000000E+00 0.  1.
</event>
<event>
 7    1  0.5764931E-013  0.5052888E+02  0.7816164E-02  0.1300439E+00
        -11   -1    0    0    0    0  0.00000000000E+00  0.00000000000E+00  0.45593999997E+02  0.45594000000E+02  0.51100000000E-03 0.  1.
         11   -1    0    0    0    0 -0.00000000000E+00 -0.00000000000E+00 -0.45593999997E+02  0.45594000000E+02  0.51100000000E-03 0. -1.
    9900012    2    1    2    0    0 -0.37978284122E+02 -0.61421360910E+00  0.14506447331E+02  0.50528876333E+02  0.30000050101E+02 0.  0.
         12    1    1    2    0    0  0.37978284122E+02  0.61421360910E+00 -0.14506447331E+02  0.40659123667E+02  0.00000000000E+00 0. -1.
         11    1    3    3    0    0 -0.16270316727E+02  0.51585660823E+01 -0.27849988998E+01  0.17294225324E+02  0.51100000000E-03 0. -1.
        -11    1    3    3    0    0 -0.23674693070E+00 -0.44168734476E+01  0.92748921623E+01  0.10275623828E+02  0.51100000000E-03 0.  1.
         12    1    3    3    0    0 -0.21471220465E+02 -0.13559062438E+01  0.80165540681E+01  0.22959027182E+02  0.00000000000E+00 0. -1.
</event>
<event>
 7    1  0.5764931E-013  0.5052886E+02  0.7816164E-02  0.1300439E+00
        -11   -1    0    0    0    0  0.00000000000E+00  0.00000000000E+00  0.45593999997E+02  0.45594000000E+02  0.51100000000E-03 0.  1.
         11   -1    0    0    0    0 -0.00000000000E+00 -0.00000000000E+00 -0.45593999997E+02  0.45594000000E+02  0.51100000000E-03 0. -1.
    9900012    2    1    2    0    0 -0.11577444169E+02 -0.38975995038E+02  0.11512890323E-01  0.50528861602E+02  0.30000005326E+02 0.  0.
         12    1    1    2    0    0  0.11577444169E+02  0.38975995038E+02 -0.11512890323E-01  0.40659138398E+02  0.00000000000E+00 0. -1.
         11    1    3    3    0    0 -0.27850524114E+01 -0.34592869885E+01  0.81207482844E+01  0.92557947450E+01  0.51100000000E-03 0. -1.
        -11    1    3    3    0    0 -0.82640330803E+01 -0.32582242472E+02 -0.10728945945E+01  0.33631055148E+02  0.51100000000E-03 0.  1.
         12    1    3    3    0    0 -0.52835867705E+00 -0.29344655774E+01 -0.70363407995E+01  0.76420117092E+01  0.00000000000E+00 0. -1.
</event>
<event>
 7    1  0.5764931E-013  0.5052888E+02  0.7816164E-02  0.1300439E+00
        -11   -1    0    0    0    0  0.00000000000E+00  0.00000000000E+00  0.45593999997E+02  0.45594000000E+02  0.51100000000E-03 0.  1.
         11   -1    0    0    0    0 -0.00000000000E+00 -0.00000000000E+00 -0.45593999997E+02  0.45594000000E+02  0.51100000000E-03 0. -1.
    9900012    2    1    2    0    0 -0.34630142794E+01  0.25962843228E+02  0.31098265170E+02  0.50528883027E+02  0.30000070450E+02 0.  0.
         12    1    1    2    0    0  0.34630142794E+01 -0.25962843228E+02 -0.31098265170E+02  0.40659116973E+02  0.00000000000E+00 0. -1.
         11    1    3    3    0    0  0.93463182473E+00 -0.42290792682E+00  0.17341148697E+00  0.10404131714E+01  0.51100000000E-03 0. -1.
        -11    1    3    3    0    0  0.49905142556E+01  0.20296573866E+02  0.53533355603E+01  0.21575781449E+02  0.51100000000E-03 0.  1.
        -12    1    3    3    0    0 -0.93881603598E+01  0.60891772887E+01  0.25571518123E+02  0.27912688407E+02  0.00000000000E+00 0.  1.
</event>
<event>
 7    1  0.5764931E-013  0.5052887E+02  0.7816164E-02  0.1300439E+00
        -11   -1    0    0    0    0  0.00000000000E+00  0.00000000000E+00  0.45593999997E+02  0.45594000000E+02  0.51100000000E-03 0.  1.
         11   -1    0    0    0    0 -0.00000000000E+00 -0.00000000000E+00 -0.45593999997E+02  0.45594000000E+02  0.51100000000E-03 0. -1.
    9900012    2    1    2    0    0  0.20867871158E+02  0.13716312741E+02  0.32086751129E+02  0.50528869661E+02  0.30000029822E+02 0.  0.
         12    1    1    2    0    0 -0.20867871158E+02 -0.13716312741E+02 -0.32086751129E+02  0.40659130339E+02  0.00000000000E+00 0. -1.
         11    1    3    3    0    0 -0.50778033089E+01 -0.27024877320E+01  0.21072176650E+01  0.61260013822E+01  0.51100000000E-03 0. -1.
        -11    1    3    3    0    0  0.26969697997E+02  0.16662275775E+02  0.29005814572E+02  0.42968980943E+02  0.51100000000E-03 0.  1.
        -12    1    3    3    0    0 -0.10240235297E+01 -0.24347530161E+00  0.97371889171E+00  0.14338873359E+01  0.00000000000E+00 0.  1.
</event>
<event>
 7    1  0.5764931E-013  0.5052886E+02  0.7816164E-02  0.1300439E+00
        -11   -1    0    0    0    0  0.00000000000E+00  0.00000000000E+00  0.45593999997E+02  0.45594000000E+02  0.51100000000E-03 0.  1.
         11   -1    0    0    0    0 -0.00000000000E+00 -0.00000000000E+00 -0.45593999997E+02  0.45594000000E+02  0.51100000000E-03 0. -1.
    9900012    2    1    2    0    0  0.21939940408E+02 -0.19135370847E+02  0.28383831614E+02  0.50528864499E+02  0.30000014133E+02 0.  0.
         12    1    1    2    0    0 -0.21939940408E+02  0.19135370847E+02 -0.28383831614E+02  0.40659135501E+02  0.00000000000E+00 0. -1.
         11    1    3    3    0    0  0.26568744323E+01  0.42603526715E+01  0.57857872392E+01  0.76606083879E+01  0.51100000000E-03 0. -1.
        -11    1    3    3    0    0  0.18859982081E+02 -0.26539813571E+02  0.17772873713E+02  0.37093606845E+02  0.51100000000E-03 0.  1.
        -12    1    3    3    0    0  0.42308389465E+00  0.31440900525E+01  0.48251706611E+01  0.57746492663E+01  0.00000000000E+00 0.  1.
</event>
<event>
 7    1  0.5764931E-013  0.5052886E+02  0.7816164E-02  0.1300439E+00
        -11   -1    0    0    0    0  0.00000000000E+00  0.00000000000E+00  0.45593999997E+02  0.45594000000E+02  0.51100000000E-03 0. -1.
         11   -1    0    0    0    0 -0.00000000000E+00 -0.00000000000E+00 -0.45593999997E+02  0.45594000000E+02  0.51100000000E-03 0.  1.
    9900012    2    1    2    0    0 -0.21592411628E+02  0.12681955284E+02 -0.32032822140E+02  0.50528856822E+02  0.29999990795E+02 0.  0.
         12    1    1    2    0    0  0.21592411628E+02 -0.12681955284E+02  0.32032822140E+02  0.40659143178E+02  0.00000000000E+00 0. -1.
         11    1    3    3    0    0  0.76579305332E-02 -0.38182622317E+01  0.10692290268E+01  0.39651527192E+01  0.51100000000E-03 0. -1.
        -11    1    3    3    0    0 -0.12287325954E+02  0.18640927796E+02 -0.27732676622E+02  0.35602863945E+02  0.51100000000E-03 0.  1.
        -12    1    3    3    0    0 -0.93127436049E+01 -0.21407102806E+01 -0.53693745445E+01  0.10960840157E+02  0.00000000000E+00 0.  1.
</event>
<event>
 7    1  0.5764931E-013  0.5052887E+02  0.7816164E-02  0.1300439E+00
        -11   -1    0    0    0    0  0.00000000000E+00  0.00000000000E+00  0.45593999997E+02  0.45594000000E+02  0.51100000000E-03 0.  1.
         11   -1    0    0    0    0 -0.00000000000E+00 -0.00000000000E+00 -0.45593999997E+02  0.45594000000E+02  0.51100000000E-03 0. -1.
    9900012    2    1    2    0    0  0.25945910437E+02 -0.29544360138E+00  0.31303147237E+02  0.50528873321E+02  0.30000040948E+02 0.  0.
         12    1    1    2    0    0 -0.25945910437E+02  0.29544360138E+00 -0.31303147237E+02  0.40659126679E+02  0.00000000000E+00 0. -1.
         11    1    3    3    0    0 -0.36245063753E+01 -0.26440710792E+01  0.24846672693E+01  0.51285212330E+01  0.51100000000E-03 0. -1.
        -11    1    3    3    0    0  0.24619142650E+02 -0.23964896107E+01  0.29512292442E+02  0.38507411660E+02  0.51100000000E-03 0.  1.
        -12    1    3    3    0    0  0.49512741615E+01  0.47451170886E+01 -0.69381247361E+00  0.68929404288E+01  0.00000000000E+00 0.  1.
</event>
<event>
 7    1  0.5764931E-013  0.5052886E+02  0.7816164E-02  0.1300439E+00
        -11   -1    0    0    0    0  0.00000000000E+00  0.00000000000E+00  0.45593999997E+02  0.45594000000E+02  0.51100000000E-03 0.  1.
         11   -1    0    0    0    0 -0.00000000000E+00 -0.00000000000E+00 -0.45593999997E+02  0.45594000000E+02  0.51100000000E-03 0. -1.
    9900012    2    1    2    0    0  0.39227586287E+02 -0.59744708110E+01 -0.88694942082E+01  0.50528858901E+02  0.29999997117E+02 0.  0.
         12    1    1    2    0    0 -0.39227586287E+02  0.59744708110E+01  0.88694942082E+01  0.40659141099E+02  0.00000000000E+00 0. -1.
         11    1    3    3    0    0  0.89329594285E+01 -0.63868699243E+01  0.93129510236E+01  0.14398643291E+02  0.51100000000E-03 0. -1.
        -11    1    3    3    0    0  0.53819287730E+01 -0.12808058427E+01 -0.54467993718E+00  0.55589834879E+01  0.51100000000E-03 0.  1.
         12    1    3    3    0    0  0.24912698085E+02  0.16932049560E+01 -0.17637765295E+02  0.30571232123E+02  0.00000000000E+00 0. -1.
</event>
<event>
 7    1  0.5764931E-013  0.5052886E+02  0.7816164E-02  0.1300439E+00
        -11   -1    0    0    0    0  0.00000000000E+00  0.00000000000E+00  0.45593999997E+02  0.45594000000E+02  0.51100000000E-03 0.  1.
         11   -1    0    0    0    0 -0.00000000000E+00 -0.00000000000E+00 -0.45593999997E+02  0.45594000000E+02  0.51100000000E-03 0. -1.
    9900012    2    1    2    0    0 -0.11264406646E+02 -0.48384737149E+01  0.38766846050E+02  0.50528855424E+02  0.29999986547E+02 0.  0.
         12    1    1    2    0    0  0.11264406646E+02  0.48384737149E+01 -0.38766846050E+02  0.40659144576E+02  0.00000000000E+00 0. -1.
         11    1    3    3    0    0 -0.60236834270E+00 -0.12442078769E+02  0.53417515152E+01  0.13553688842E+02  0.51100000000E-03 0. -1.
        -11    1    3    3    0    0 -0.96030771497E+01  0.95194232557E+01  0.30053451506E+02  0.32955249317E+02  0.51100000000E-03 0.  1.
        -12    1    3    3    0    0 -0.10589611532E+01 -0.19158182018E+01  0.33716430288E+01  0.40199172653E+01  0.00000000000E+00 0.  1.
</event>
<event>
 7    1  0.5764931E-013  0.5052886E+02  0.7816164E-02  0.1300439E+00
        -11   -1    0    0    0    0  0.00000000000E+00  0.00000000000E+00  0.45593999997E+02  0.45594000000E+02  0.51100000000E-03 0.  1.
         11   -1    0    0    0    0 -0.00000000000E+00 -0.00000000000E+00 -0.45593999997E+02  0.45594000000E+02  0.51100000000E-03 0. -1.
    9900012    2    1    2    0    0  0.11271416674E+01 -0.10412456557E+02  0.39287093803E+02  0.50528862781E+02  0.30000008909E+02 0.  0.
         12    1    1    2    0    0 -0.11271416674E+01  0.10412456557E+02 -0.39287093803E+02  0.40659137219E+02  0.00000000000E+00 0. -1.
         11    1    3    3    0    0  0.14698342344E+02 -0.29153115649E+01  0.12914382703E+02  0.19781850015E+02  0.51100000000E-03 0. -1.
        -11    1    3    3    0    0 -0.96473265608E+01 -0.65310569770E+01  0.17859810829E+02  0.21323659585E+02  0.51100000000E-03 0.  1.
         12    1    3    3    0    0 -0.39238741154E+01 -0.96608801505E+00  0.85129002716E+01  0.94233531803E+01  0.00000000000E+00 0. -1.
</event>
<event>
 7    1  0.5764931E-013  0.5052886E+02  0.7816164E-02  0.1300439E+00
        -11   -1    0    0    0    0  0.00000000000E+00  0.00000000000E+00  0.45593999997E+02  0.45594000000E+02  0.51100000000E-03 0.  1.
         11   -1    0    0    0    0 -0.00000000000E+00 -0.00000000000E+00 -0.45593999997E+02  0.45594000000E+02  0.51100000000E-03 0. -1.
    9900012    2    1    2    0    0 -0.96683881603E+00  0.71767521944E+01  0.40009067996E+02  0.50528855011E+02  0.29999985291E+02 0.  0.
         12    1    1    2    0    0  0.96683881603E+00 -0.71767521944E+01 -0.40009067996E+02  0.40659144989E+02  0.00000000000E+00 0. -1.
         11    1    3    3    0    0 -0.28809764912E+00  0.32032889472E+01  0.33608184836E+01  0.46517912115E+01  0.51100000000E-03 0. -1.
        -11    1    3    3    0    0 -0.13111263058E+02  0.21467643908E+01  0.10746314762E+02  0.17087922563E+02  0.51100000000E-03 0.  1.
        -12    1    3    3    0    0  0.12432521891E+02  0.18266988564E+01  0.25901934751E+02  0.28789141236E+02  0.00000000000E+00 0.  1.
</event>
<event>
 7    1  0.5764931E-013  0.5052885E+02  0.7816164E-02  0.1300439E+00
        -11   -1    0    0    0    0  0.00000000000E+00  0.00000000000E+00  0.45593999997E+02  0.45594000000E+02  0.51100000000E-03 0.  1.
         11   -1    0    0    0    0 -0.00000000000E+00 -0.00000000000E+00 -0.45593999997E+02  0.45594000000E+02  0.51100000000E-03 0. -1.
    9900012    2    1    2    0    0  0.45919678731E+01  0.40377915459E+02 -0.13053738135E+01  0.50528853101E+02  0.29999979486E+02 0.  0.
         12    1    1    2    0    0 -0.45919678731E+01 -0.40377915459E+02  0.13053738135E+01  0.40659146899E+02  0.00000000000E+00 0. -1.
         11    1    3    3    0    0 -0.33410317653E+01 -0.13364381212E+01  0.33484299452E+01  0.49153375741E+01  0.51100000000E-03 0. -1.
        -11    1    3    3    0    0  0.62665992490E+01  0.34122393075E+02 -0.10087513306E+02  0.36129847776E+02  0.51100000000E-03 0.  1.
        -12    1    3    3    0    0  0.16664003894E+01  0.75919605050E+01  0.54337095475E+01  0.94836677511E+01  0.00000000000E+00 0.  1.
</event>
<event>
 7    1  0.5764931E-013  0.5052887E+02  0.7816164E-02  0.1300439E+00
        -11   -1    0    0    0    0  0.00000000000E+00  0.00000000000E+00  0.45593999997E+02  0.45594000000E+02  0.51100000000E-03 0. -1.
         11   -1    0    0    0    0 -0.00000000000E+00 -0.00000000000E+00 -0.45593999997E+02  0.45594000000E+02  0.51100000000E-03 0.  1.
    9900012    2    1    2    0    0 -0.21881890108E+02 -0.19042113824E+01 -0.34215807955E+02  0.50528872492E+02  0.30000038427E+02 0.  0.
         12    1    1    2    0    0  0.21881890108E+02  0.19042113824E+01  0.34215807955E+02  0.40659127508E+02  0.00000000000E+00 0. -1.
         11    1    3    3    0    0 -0.11080016483E+02 -0.43649241466E+01 -0.16580824126E+02  0.20414285612E+02  0.51100000000E-03 0. -1.
        -11    1    3    3    0    0  0.19978120294E+01  0.74510292485E+01 -0.13868377880E+02  0.15869498891E+02  0.51100000000E-03 0.  1.
        -12    1    3    3    0    0 -0.12799685654E+02 -0.49903164843E+01 -0.37666059486E+01  0.14245087989E+02  0.00000000000E+00 0.  1.
</event>
<event>
 7    1  0.5764931E-013  0.5052886E+02  0.7816164E-02  0.1300439E+00
        -11   -1    0    0    0    0  0.00000000000E+00  0.00000000000E+00  0.45593999997E+02  0.45594000000E+02  0.51100000000E-03 0.  1.
         11   -1    0    0    0    0 -0.00000000000E+00 -0.00000000000E+00 -0.45593999997E+02  0.45594000000E+02  0.51100000000E-03 0. -1.
    9900012    2    1    2    0    0 -0.16353401902E+02 -0.38105410063E+00  0.37223466369E+02  0.50528863210E+02  0.30000010213E+02 0.  0.
         12    1    1    2    0    0  0.16353401902E+02  0.38105410063E+00 -0.37223466369E+02  0.40659136790E+02  0.00000000000E+00 0. -1.
         11    1    3    3    0    0  0.21593409651E+00 -0.10216297706E+02  0.52147780753E+01  0.11472282989E+02  0.51100000000E-03 0. -1.
        -11    1    3    3    0    0 -0.74479468544E+01  0.40230754348E+00  0.19702441866E+02  0.21067035374E+02  0.51100000000E-03 0.  1.
         12    1    3    3    0    0 -0.91213891444E+01  0.94329360615E+01  0.12306246427E+02  0.17989544847E+02  0.00000000000E+00 0. -1.
</event>
<event>
 7    1  0.5764931E-013  0.5052897E+02  0.7816164E-02  0.1300438E+00
        -11   -1    0    0    0    0  0.00000000000E+00  0.00000000000E+00  0.45593999997E+02  0.45594000000E+02  0.51100000000E-03 0. -1.
         11   -1    0    0    0    0 -0.00000000000E+00 -0.00000000000E+00 -0.45593999997E+02  0.45594000000E+02  0.51100000000E-03 0.  1.
    9900012    2    1    2    0    0 -0.13949612766E+02  0.56762751205E+01 -0.37766984866E+02  0.50528967284E+02  0.30000326554E+02 0.  0.
         12    1    1    2    0    0  0.13949612766E+02 -0.56762751205E+01  0.37766984866E+02  0.40659032716E+02  0.00000000000E+00 0. -1.
         11    1    3    3    0    0 -0.15792193561E+02 -0.64750961164E+01 -0.32726878335E+02  0.36910280587E+02  0.51100000000E-03 0.  1.
        -11    1    3    3    0    0  0.24661926531E+01  0.76255729784E+01 -0.38845805953E+01  0.89062582555E+01  0.51100000000E-03 0. -1.
        -12    1    3    3    0    0 -0.62361185819E+00  0.45257982586E+01 -0.11555259355E+01  0.47124284413E+01  0.00000000000E+00 0.  1.
</event>
<event>
 7    1  0.5764931E-013  0.5052886E+02  0.7816164E-02  0.1300439E+00
        -11   -1    0    0    0    0  0.00000000000E+00  0.00000000000E+00  0.45593999997E+02  0.45594000000E+02  0.51100000000E-03 0.  1.
         11   -1    0    0    0    0 -0.00000000000E+00 -0.00000000000E+00 -0.45593999997E+02  0.45594000000E+02  0.51100000000E-03 0. -1.
    9900012    2    1    2    0    0  0.32900669633E+02  0.67706800576E+01  0.22910024814E+02  0.50528863170E+02  0.30000010092E+02 0.  0.
         12    1    1    2    0    0 -0.32900669633E+02 -0.67706800576E+01 -0.22910024814E+02  0.40659136830E+02  0.00000000000E+00 0. -1.
         11    1    3    3    0    0  0.21685034892E+02 -0.21796496473E+01  0.16144838873E+02  0.27122821265E+02  0.51100000000E-03 0. -1.
        -11    1    3    3    0    0 -0.32567016078E+01  0.85646710002E+00 -0.26970312597E+01  0.43143503720E+01  0.51100000000E-03 0.  1.
        -12    1    3    3    0    0  0.14472336348E+02  0.80938626048E+01  0.94622172009E+01  0.19091691533E+02  0.00000000000E+00 0.  1.
</event>
<event>
 7    1  0.5764931E-013  0.5052887E+02  0.7816164E-02  0.1300439E+00
        -11   -1    0    0    0    0  0.00000000000E+00  0.00000000000E+00  0.45593999997E+02  0.45594000000E+02  0.51100000000E-03 0.  1.
         11   -1    0    0    0    0 -0.00000000000E+00 -0.00000000000E+00 -0.45593999997E+02  0.45594000000E+02  0.51100000000E-03 0. -1.
    9900012    2    1    2    0    0 -0.19966275957E+02 -0.33947108781E+02  0.10104791430E+02  0.50528865971E+02  0.30000018604E+02 0.  0.
         12    1    1    2    0    0  0.19966275957E+02  0.33947108781E+02 -0.10104791430E+02  0.40659134029E+02  0.00000000000E+00 0. -1.
         11    1    3    3    0    0 -0.14223374984E+02 -0.61173214684E+01  0.41608129775E+00  0.15488677858E+02  0.51100000000E-03 0. -1.
        -11    1    3    3    0    0  0.34784939580E+01 -0.22100651574E+02  0.91473611949E+01  0.24170497250E+02  0.51100000000E-03 0.  1.
        -12    1    3    3    0    0 -0.92213949309E+01 -0.57291357387E+01  0.54134893706E+00  0.10869690863E+02  0.00000000000E+00 0.  1.
</event>
<event>
 7    1  0.5764931E-013  0.5052885E+02  0.7816164E-02  0.1300439E+00
        -11   -1    0    0    0    0  0.00000000000E+00  0.00000000000E+00  0.45593999997E+02  0.45594000000E+02  0.51100000000E-03 0.  1.
         11   -1    0    0    0    0 -0.00000000000E+00 -0.00000000000E+00 -0.45593999997E+02  0.45594000000E+02  0.51100000000E-03 0. -1.
    9900012    2    1    2    0    0 -0.31490368285E+02 -0.20763486738E+02 -0.15178969208E+02  0.50528846265E+02  0.29999958707E+02 0.  0.
         12    1    1    2    0    0  0.31490368285E+02  0.20763486738E+02  0.15178969208E+02  0.40659153735E+02  0.00000000000E+00 0. -1.
         11    1    3    3    0    0 -0.70106915727E+01 -0.25193890153E+01 -0.39742034814E+01  0.84434241225E+01  0.51100000000E-03 0. -1.
        -11    1    3    3    0    0 -0.20078539043E+02 -0.13732093361E+02  0.48798670472E+01  0.24809901670E+02  0.51100000000E-03 0.  1.
        -12    1    3    3    0    0 -0.44011376685E+01 -0.45120043617E+01 -0.16084632774E+02  0.17275520473E+02  0.00000000000E+00 0.  1.
</event>
<event>
 7    1  0.5764931E-013  0.5052885E+02  0.7816164E-02  0.1300439E+00
        -11   -1    0    0    0    0  0.00000000000E+00  0.00000000000E+00  0.45593999997E+02  0.45594000000E+02  0.51100000000E-03 0.  1.
         11   -1    0    0    0    0 -0.00000000000E+00 -0.00000000000E+00 -0.45593999997E+02  0.45594000000E+02  0.51100000000E-03 0. -1.
    9900012    2    1    2    0    0 -0.43799301423E+00  0.38618398315E+01  0.40472969145E+02  0.50528845113E+02  0.29999955204E+02 0.  0.
         12    1    1    2    0    0  0.43799301423E+00 -0.38618398315E+01 -0.40472969145E+02  0.40659154887E+02  0.00000000000E+00 0. -1.
         11    1    3    3    0    0  0.20377843687E+00 -0.25005203824E+01  0.31573630443E+02  0.31673147419E+02  0.51100000000E-03 0. -1.
        -11    1    3    3    0    0  0.21379308407E+01  0.99570617501E+01  0.98997763144E+01  0.14202795440E+02  0.51100000000E-03 0.  1.
         12    1    3    3    0    0 -0.27797022918E+01 -0.35947015362E+01 -0.10004376122E+01  0.46529022536E+01  0.00000000000E+00 0. -1.
</event>
<event>
 7    1  0.5764931E-013  0.5052886E+02  0.7816164E-02  0.1300439E+00
        -11   -1    0    0    0    0  0.00000000000E+00  0.00000000000E+00  0.45593999997E+02  0.45594000000E+02  0.51100000000E-03 0.  1.
         11   -1    0    0    0    0 -0.00000000000E+00 -0.00000000000E+00 -0.45593999997E+02  0.45594000000E+02  0.51100000000E-03 0. -1.
    9900012    2    1    2    0    0  0.32472027606E+01  0.51186912376E+01  0.40204733655E+02  0.50528856698E+02  0.29999990419E+02 0.  0.
         12    1    1    2    0    0 -0.32472027606E+01 -0.51186912376E+01 -0.40204733655E+02  0.40659143302E+02  0.00000000000E+00 0. -1.
         11    1    3    3    0    0  0.91335202357E+01  0.46330724193E+01  0.26358863750E+02  0.28278547529E+02  0.51100000000E-03 0. -1.
        -11    1    3    3    0    0 -0.71426337784E+01 -0.24708122336E+01  0.16457726275E+02  0.18110187321E+02  0.51100000000E-03 0.  1.
         12    1    3    3    0    0  0.12563163033E+01  0.29564310518E+01 -0.26118563696E+01  0.41401218477E+01  0.00000000000E+00 0. -1.
</event>
<event>
 7    1  0.5764931E-013  0.5052885E+02  0.7816164E-02  0.1300439E+00
        -11   -1    0    0    0    0  0.00000000000E+00  0.00000000000E+00  0.45593999997E+02  0.45594000000E+02  0.51100000000E-03 0.  1.
         11   -1    0    0    0    0 -0.00000000000E+00 -0.00000000000E+00 -0.45593999997E+02  0.45594000000E+02  0.51100000000E-03 0. -1.
    9900012    2    1    2    0    0  0.40490791080E+02  0.94451524094E+00  0.35734860484E+01  0.50528854978E+02  0.29999985192E+02 0.  0.
         12    1    1    2    0    0 -0.40490791080E+02 -0.94451524094E+00 -0.35734860484E+01  0.40659145022E+02  0.00000000000E+00 0. -1.
         11    1    3    3    0    0  0.16533694561E+02 -0.96903542985E+01 -0.72859161943E+01  0.20502453447E+02  0.51100000000E-03 0. -1.
        -11    1    3    3    0    0  0.15012160049E+02  0.24653263668E+01  0.27800292073E+01  0.15465165570E+02  0.51100000000E-03 0.  1.
         12    1    3    3    0    0  0.89449364696E+01  0.81695431726E+01  0.80793730355E+01  0.14561235962E+02  0.00000000000E+00 0. -1.
</event>
<event>
 7    1  0.5764931E-013  0.5052887E+02  0.7816164E-02  0.1300439E+00
        -11   -1    0    0    0    0  0.00000000000E+00  0.00000000000E+00  0.45593999997E+02  0.45594000000E+02  0.51100000000E-03 0.  1.
         11   -1    0    0    0    0 -0.00000000000E+00 -0.00000000000E+00 -0.45593999997E+02  0.45594000000E+02  0.51100000000E-03 0. -1.
    9900012    2    1    2    0    0 -0.22217461219E+02 -0.32985780682E+02  0.84550415222E+01  0.50528867725E+02  0.30000023937E+02 0.  0.
         12    1    1    2    0    0  0.22217461219E+02  0.32985780682E+02 -0.84550415222E+01  0.40659132275E+02  0.00000000000E+00 0. -1.
         11    1    3    3    0    0 -0.45750662620E+00 -0.17513041682E+02 -0.77463640819E+01  0.19155210727E+02  0.51100000000E-03 0. -1.
        -11    1    3    3    0    0 -0.11129349688E+02 -0.69521776440E+01  0.94341963234E+01  0.16161660156E+02  0.51100000000E-03 0.  1.
         12    1    3    3    0    0 -0.10630604905E+02 -0.85205613559E+01  0.67672092806E+01  0.15211996842E+02  0.00000000000E+00 0. -1.
</event>
<event>
 7    1  0.5764931E-013  0.5052901E+02  0.7816164E-02  0.1300438E+00
        -11   -1    0    0    0    0  0.00000000000E+00  0.00000000000E+00  0.45593999997E+02  0.45594000000E+02  0.51100000000E-03 0.  1.
         11   -1    0    0    0    0 -0.00000000000E+00 -0.00000000000E+00 -0.45593999997E+02  0.45594000000E+02  0.51100000000E-03 0. -1.
    9900012    2    1    2    0    0 -0.39061755388E+02  0.31026849258E+01 -0.10849260905E+02  0.50529005301E+02  0.30000442110E+02 0.  0.
         12    1    1    2    0    0  0.39061755388E+02 -0.31026849258E+01  0.10849260905E+02  0.40658994699E+02  0.00000000000E+00 0. -1.
         11    1    3    3    0    0 -0.15389719044E+02  0.71802468750E+01 -0.14214395570E+02  0.22146070512E+02  0.51100000000E-03 0. -1.
        -11    1    3    3    0    0 -0.11239221486E+02  0.17334179475E+01  0.79927253040E+01  0.13899945879E+02  0.51100000000E-03 0.  1.
         12    1    3    3    0    0 -0.12432814858E+02 -0.58109798967E+01 -0.46275906392E+01  0.14482988910E+02  0.00000000000E+00 0. -1.
</event>
<event>
 7    1  0.5764931E-013  0.5052887E+02  0.7816164E-02  0.1300439E+00
        -11   -1    0    0    0    0  0.00000000000E+00  0.00000000000E+00  0.45593999997E+02  0.45594000000E+02  0.51100000000E-03 0.  1.
         11   -1    0    0    0    0 -0.00000000000E+00 -0.00000000000E+00 -0.45593999997E+02  0.45594000000E+02  0.51100000000E-03 0. -1.
    9900012    2    1    2    0    0  0.22700224149E+02 -0.28476268411E+02  0.18082226040E+02  0.50528868952E+02  0.30000027665E+02 0.  0.
         12    1    1    2    0    0 -0.22700224149E+02  0.28476268411E+02 -0.18082226040E+02  0.40659131048E+02  0.00000000000E+00 0. -1.
         11    1    3    3    0    0 -0.37854733339E+01 -0.33927830657E+01  0.11749935328E+02  0.12802412498E+02  0.51100000000E-03 0. -1.
        -11    1    3    3    0    0  0.73380122250E+01 -0.41884302258E+01 -0.84199843671E+00  0.84910737130E+01  0.51100000000E-03 0.  1.
         12    1    3    3    0    0  0.19147685258E+02 -0.20895055120E+02  0.71742891489E+01  0.29235382741E+02  0.00000000000E+00 0. -1.
</event>
<event>
 7    1  0.5764931E-013  0.5052885E+02  0.7816164E-02  0.1300439E+00
        -11   -1    0    0    0    0  0.00000000000E+00  0.00000000000E+00  0.45593999997E+02  0.45594000000E+02  0.51100000000E-03 0.  1.
         11   -1    0    0    0    0 -0.00000000000E+00 -0.00000000000E+00 -0.45593999997E+02  0.45594000000E+02  0.51100000000E-03 0. -1.
    9900012    2    1    2    0    0 -0.13358119904E+02  0.34631316792E+02  0.16595141270E+02  0.50528853626E+02  0.29999981082E+02 0.  0.
         12    1    1    2    0    0  0.13358119904E+02 -0.34631316792E+02 -0.16595141270E+02  0.40659146374E+02  0.00000000000E+00 0. -1.
         11    1    3    3    0    0 -0.29279443460E+01  0.17502413095E+02  0.14084600901E+02  0.22655756555E+02  0.51100000000E-03 0. -1.
        -11    1    3    3    0    0 -0.66378815245E+00  0.64020984833E+01 -0.77724182559E+01  0.10091479847E+02  0.51100000000E-03 0.  1.
         12    1    3    3    0    0 -0.97663874051E+01  0.10726805213E+02  0.10282958625E+02  0.17781617224E+02  0.00000000000E+00 0. -1.
</event>
<event>
 7    1  0.5764931E-013  0.5052886E+02  0.7816164E-02  0.1300439E+00
        -11   -1    0    0    0    0  0.00000000000E+00  0.00000000000E+00  0.45593999997E+02  0.45594000000E+02  0.51100000000E-03 0.  1.
         11   -1    0    0    0    0 -0.00000000000E+00 -0.00000000000E+00 -0.45593999997E+02  0.45594000000E+02  0.51100000000E-03 0. -1.
    9900012    2    1    2    0    0  0.26732969779E+02 -0.10829656521E+02  0.28657155515E+02  0.50528859628E+02  0.29999999326E+02 0.  0.
         12    1    1    2    0    0 -0.26732969779E+02  0.10829656521E+02 -0.28657155515E+02  0.40659140372E+02  0.00000000000E+00 0. -1.
         11    1    3    3    0    0 -0.39562558154E+01  0.73739779539E+00  0.85394768539E+01  0.94402532161E+01  0.51100000000E-03 0. -1.
        -11    1    3    3    0    0  0.23414960976E+02 -0.12126433637E+02  0.21040873689E+02  0.33734687728E+02  0.51100000000E-03 0.  1.
        -12    1    3    3    0    0  0.72742646184E+01  0.55937932059E+00 -0.92319502699E+00  0.73539186846E+01  0.00000000000E+00 0.  1.
</event>
<event>
 7    1  0.5764931E-013  0.5052885E+02  0.7816164E-02  0.1300439E+00
        -11   -1    0    0    0    0  0.00000000000E+00  0.00000000000E+00  0.45593999997E+02  0.45594000000E+02  0.51100000000E-03 0. -1.
         11   -1    0    0    0    0 -0.00000000000E+00 -0.00000000000E+00 -0.45593999997E+02  0.45594000000E+02  0.51100000000E-03 0.  1.
    9900012    2    1    2    0    0 -0.92009766141E+01 -0.39563813512E+02 -0.17924194093E+01  0.50528854932E+02  0.29999985052E+02 0.  0.
         12    1    1    2    0    0  0.92009766141E+01  0.39563813512E+02  0.17924194093E+01  0.40659145068E+02  0.00000000000E+00 0. -1.
         11    1    3    3    0    0 -0.14431893669E+01 -0.75699939394E+01  0.44828891567E+01  0.89153743188E+01  0.51100000000E-03 0. -1.
        -11    1    3    3    0    0 -0.10456755340E+02 -0.32929681071E+02 -0.10855637391E+02  0.36215362640E+02  0.51100000000E-03 0.  1.
        -12    1    3    3    0    0  0.26989680932E+01  0.93586149815E+00  0.45803288252E+01  0.53981179738E+01  0.00000000000E+00 0.  1.
</event>
<event>
 7    1  0.5764931E-013  0.5052886E+02  0.7816164E-02  0.1300439E+00
        -11   -1    0    0    0    0  0.00000000000E+00  0.00000000000E+00  0.45593999997E+02  0.45594000000E+02  0.51100000000E-03 0. -1.
         11   -1    0    0    0    0 -0.00000000000E+00 -0.00000000000E+00 -0.45593999997E+02  0.45594000000E+02  0.51100000000E-03 0.  1.
    9900012    2    1    2    0    0 -0.16904218837E+02 -0.36316331544E+02  0.69668777821E+01  0.50528856658E+02  0.29999990297E+02 0.  0.
         12    1    1    2    0    0  0.16904218837E+02  0.36316331544E+02 -0.69668777821E+01  0.40659143342E+02  0.00000000000E+00 0. -1.
         11    1    3    3    0    0 -0.34621610077E+01 -0.58454427826E+00  0.10019296863E+02  0.10616711390E+02  0.51100000000E-03 0. -1.
        -11    1    3    3    0    0 -0.71668147420E+01 -0.18545126028E+02 -0.72109497239E+01  0.21149059769E+02  0.51100000000E-03 0.  1.
         12    1    3    3    0    0 -0.62752430870E+01 -0.17186661238E+02  0.41585306431E+01  0.18763085499E+02  0.00000000000E+00 0. -1.
</event>
<event>
 7    1  0.5764931E-013  0.5052886E+02  0.7816164E-02  0.1300439E+00
        -11   -1    0    0    0    0  0.00000000000E+00  0.00000000000E+00  0.45593999997E+02  0.45594000000E+02  0.51100000000E-03 0.  1.
         11   -1    0    0    0    0 -0.00000000000E+00 -0.00000000000E+00 -0.45593999997E+02  0.45594000000E+02  0.51100000000E-03 0. -1.
    9900012    2    1    2    0    0 -0.33576029457E+01  0.32013069743E+02  0.24840604335E+02  0.50528858892E+02  0.29999997090E+02 0.  0.
         12    1    1    2    0    0  0.33576029457E+01 -0.32013069743E+02 -0.24840604335E+02  0.40659141108E+02  0.00000000000E+00 0. -1.
         11    1    3    3    0    0 -0.67578701172E+01  0.19422728377E+02  0.29466870479E+02  0.35933377829E+02  0.51100000000E-03 0.  1.
        -11    1    3    3    0    0 -0.17231044108E+00  0.29921525015E+01 -0.29727197522E+01  0.42213422589E+01  0.51100000000E-03 0. -1.
         12    1    3    3    0    0  0.35725776126E+01  0.95981888639E+01 -0.16535463919E+01  0.10374138805E+02  0.00000000000E+00 0. -1.
</event>
<event>
 7    1  0.5764931E-013  0.5052886E+02  0.7816164E-02  0.1300439E+00
        -11   -1    0    0    0    0  0.00000000000E+00  0.00000000000E+00  0.45593999997E+02  0.45594000000E+02  0.51100000000E-03 0. -1.
         11   -1    0    0    0    0 -0.00000000000E+00 -0.00000000000E+00 -0.45593999997E+02  0.45594000000E+02  0.51100000000E-03 0.  1.
    9900012    2    1    2    0    0  0.23254080208E+02  0.29987587727E+02 -0.14599929746E+02  0.50528860651E+02  0.30000002435E+02 0.  0.
         12    1    1    2    0    0 -0.23254080208E+02 -0.29987587727E+02  0.14599929746E+02  0.40659139349E+02  0.00000000000E+00 0. -1.
         11    1    3    3    0    0  0.89186363910E+01 -0.46808270536E+00 -0.10820267317E+02  0.14029945173E+02  0.51100000000E-03 0. -1.
        -11    1    3    3    0    0  0.41537694734E+01  0.23751051171E+02 -0.25721637350E+01  0.24248345492E+02  0.51100000000E-03 0.  1.
         12    1    3    3    0    0  0.10181674344E+02  0.67046192612E+01 -0.12074986942E+01  0.12250569986E+02  0.00000000000E+00 0. -1.
</event>
<event>
 7    1  0.5964865E-013  0.5052887E+02  0.7816164E-02  0.1300439E+00
        -11   -1    0    0    0    0  0.00000000000E+00  0.00000000000E+00  0.45593999997E+02  0.45594000000E+02  0.51100000000E-03 0. -1.
         11   -1    0    0    0    0 -0.00000000000E+00 -0.00000000000E+00 -0.45593999997E+02  0.45594000000E+02  0.51100000000E-03 0.  1.
    9900012    2    1    2    0    0 -0.34675818012E+02  0.91273374991E+01 -0.19168838794E+02  0.50528867873E+02  0.30000024386E+02 0.  0.
         12    1    1    2    0    0  0.34675818012E+02 -0.91273374991E+01  0.19168838794E+02  0.40659132127E+02  0.00000000000E+00 0. -1.
         11    1    3    3    0    0  0.38290692932E+01 -0.56175321628E+00 -0.16581579892E+01  0.42103238007E+01  0.51100000000E-03 0. -1.
        -11    1    3    3    0    0 -0.27983894918E+02  0.42350357541E+01 -0.43945233858E+01  0.28641678350E+02  0.51100000000E-03 0.  1.
        -12    1    3    3    0    0 -0.10520992387E+02  0.54540549612E+01 -0.13116157419E+02  0.17676865723E+02  0.00000000000E+00 0.  1.
</event>
<event>
 7    1  0.5764931E-013  0.5052892E+02  0.7816164E-02  0.1300439E+00
        -11   -1    0    0    0    0  0.00000000000E+00  0.00000000000E+00  0.45593999997E+02  0.45594000000E+02  0.51100000000E-03 0.  1.
         11   -1    0    0    0    0 -0.00000000000E+00 -0.00000000000E+00 -0.45593999997E+02  0.45594000000E+02  0.51100000000E-03 0. -1.
    9900012    2    1    2    0    0  0.22382600417E+02  0.26381328309E+02 -0.21358970154E+02  0.50528918717E+02  0.30000178931E+02 0.  0.
         12    1    1    2    0    0 -0.22382600417E+02 -0.26381328309E+02  0.21358970154E+02  0.40659081283E+02  0.00000000000E+00 0. -1.
         11    1    3    3    0    0 -0.41401420467E+01 -0.13063335460E+01 -0.58731796738E+01  0.73035281366E+01  0.51100000000E-03 0. -1.
        -11    1    3    3    0    0  0.22400820983E+02  0.18281089798E+02 -0.66288929154E+01  0.29663736219E+02  0.51100000000E-03 0.  1.
         12    1    3    3    0    0  0.41219214802E+01  0.94065720571E+01 -0.88568975642E+01  0.13561654361E+02  0.00000000000E+00 0. -1.
</event>
<event>
 7    1  0.5764931E-013  0.5052884E+02  0.7816164E-02  0.1300439E+00
        -11   -1    0    0    0    0  0.00000000000E+00  0.00000000000E+00  0.45593999997E+02  0.45594000000E+02  0.51100000000E-03 0.  1.
         11   -1    0    0    0    0 -0.00000000000E+00 -0.00000000000E+00 -0.45593999997E+02  0.45594000000E+02  0.51100000000E-03 0. -1.
    9900012    2    1    2    0    0  0.18360012379E+02 -0.34524124640E+02  0.11142810060E+02  0.50528838023E+02  0.29999933653E+02 0.  0.
         12    1    1    2    0    0 -0.18360012379E+02  0.34524124640E+02 -0.11142810060E+02  0.40659161977E+02  0.00000000000E+00 0. -1.
         11    1    3    3    0    0  0.12132210929E+02 -0.27174125711E+02  0.17725981529E+02  0.34638621098E+02  0.51100000000E-03 0. -1.
        -11    1    3    3    0    0  0.62788004350E+01 -0.12795948346E+00 -0.25090982301E+00  0.62851145202E+01  0.51100000000E-03 0.  1.
         12    1    3    3    0    0 -0.50998985091E-01 -0.72220394451E+01 -0.63322616455E+01  0.96051024039E+01  0.00000000000E+00 0. -1.
</event>
<event>
 7    1  0.5764931E-013  0.5052886E+02  0.7816164E-02  0.1300439E+00
        -11   -1    0    0    0    0  0.00000000000E+00  0.00000000000E+00  0.45593999997E+02  0.45594000000E+02  0.51100000000E-03 0. -1.
         11   -1    0    0    0    0 -0.00000000000E+00 -0.00000000000E+00 -0.45593999997E+02  0.45594000000E+02  0.51100000000E-03 0.  1.
    9900012    2    1    2    0    0  0.34670313356E+02 -0.11855761328E+02 -0.17623159178E+02  0.50528862721E+02  0.30000008727E+02 0.  0.
         12    1    1    2    0    0 -0.34670313356E+02  0.11855761328E+02  0.17623159178E+02  0.40659137279E+02  0.00000000000E+00 0. -1.
         11    1    3    3    0    0  0.19879175776E+02 -0.59524309078E+01 -0.21546889192E+02  0.29914569984E+02  0.51100000000E-03 0. -1.
        -11    1    3    3    0    0  0.15472893453E+02 -0.43167596072E+01 -0.28369541533E+00  0.16066279242E+02  0.51100000000E-03 0.  1.
         12    1    3    3    0    0 -0.68175587332E+00 -0.15865708131E+01  0.42074254289E+01  0.45480134955E+01  0.00000000000E+00 0. -1.
</event>
<event>
 7    1  0.5764931E-013  0.5052886E+02  0.7816164E-02  0.1300439E+00
        -11   -1    0    0    0    0  0.00000000000E+00  0.00000000000E+00  0.45593999997E+02  0.45594000000E+02  0.51100000000E-03 0. -1.
         11   -1    0    0    0    0 -0.00000000000E+00 -0.00000000000E+00 -0.45593999997E+02  0.45594000000E+02  0.51100000000E-03 0.  1.
    9900012    2    1    2    0    0  0.30805695333E+02  0.13355120099E+02  0.22930671741E+02  0.50528858293E+02  0.29999995269E+02 0.  0.
         12    1    1    2    0    0 -0.30805695333E+02 -0.13355120099E+02 -0.22930671741E+02  0.40659141707E+02  0.00000000000E+00 0. -1.
         11    1    3    3    0    0 -0.51441872491E+01  0.43152687959E+01  0.50582851090E+01  0.84065721754E+01  0.51100000000E-03 0. -1.
        -11    1    3    3    0    0  0.10468473204E+02 -0.11182649914E+01  0.31472046715E+01  0.10988373188E+02  0.51100000000E-03 0.  1.
         12    1    3    3    0    0  0.25481409378E+02  0.10158116294E+02  0.14725181961E+02  0.31133912929E+02  0.00000000000E+00 0. -1.
</event>
<event>
 7    1  0.5764931E-013  0.5052885E+02  0.7816164E-02  0.1300439E+00
        -11   -1    0    0    0    0  0.00000000000E+00  0.00000000000E+00  0.45593999997E+02  0.45594000000E+02  0.51100000000E-03 0.  1.
         11   -1    0    0    0    0 -0.00000000000E+00 -0.00000000000E+00 -0.45593999997E+02  0.45594000000E+02  0.51100000000E-03 0. -1.
    9900012    2    1    2    0    0  0.19201797946E+02 -0.32212264252E+02  0.15710737543E+02  0.50528852361E+02  0.29999977238E+02 0.  0.
         12    1    1    2    0    0 -0.19201797946E+02  0.32212264252E+02 -0.15710737543E+02  0.40659147639E+02  0.00000000000E+00 0. -1.
         11    1    3    3    0    0  0.84163951504E+01 -0.38468791198E+01 -0.71849627291E+01  0.11715710647E+02  0.51100000000E-03 0. -1.
        -11    1    3    3    0    0  0.91926371743E+01 -0.22598654190E+02  0.14107997177E+02  0.28182252111E+02  0.51100000000E-03 0.  1.
        -12    1    3    3    0    0  0.15927656211E+01 -0.57667309416E+01  0.87877030951E+01  0.10630889604E+02  0.00000000000E+00 0.  1.
</event>
<event>
 7    1  0.5764931E-013  0.5052886E+02  0.7816164E-02  0.1300439E+00
        -11   -1    0    0    0    0  0.00000000000E+00  0.00000000000E+00  0.45593999997E+02  0.45594000000E+02  0.51100000000E-03 0.  1.
         11   -1    0    0    0    0 -0.00000000000E+00 -0.00000000000E+00 -0.45593999997E+02  0.45594000000E+02  0.51100000000E-03 0. -1.
    9900012    2    1    2    0    0  0.13840011784E+02 -0.30553150598E+02 -0.22980968186E+02  0.50528857899E+02  0.29999994069E+02 0.  0.
         12    1    1    2    0    0 -0.13840011784E+02  0.30553150598E+02  0.22980968186E+02  0.40659142101E+02  0.00000000000E+00 0. -1.
         11    1    3    3    0    0 -0.19495146137E+01 -0.20973113432E+02 -0.59021225371E+01  0.21874806170E+02  0.51100000000E-03 0. -1.
        -11    1    3    3    0    0  0.11378827085E+02 -0.25860625511E+01 -0.16704980097E+02  0.20376991575E+02  0.51100000000E-03 0.  1.
        -12    1    3    3    0    0  0.44106993131E+01 -0.69939746147E+01 -0.37386555250E+00  0.82770601541E+01  0.00000000000E+00 0.  1.
</event>
<event>
 7    1  0.5764931E-013  0.5052884E+02  0.7816164E-02  0.1300439E+00
        -11   -1    0    0    0    0  0.00000000000E+00  0.00000000000E+00  0.45593999997E+02  0.45594000000E+02  0.51100000000E-03 0.  1.
         11   -1    0    0    0    0 -0.00000000000E+00 -0.00000000000E+00 -0.45593999997E+02  0.45594000000E+02  0.51100000000E-03 0. -1.
    9900012    2    1    2    0    0 -0.35682686708E+02  0.12569663803E+02  0.14896856414E+02  0.50528844698E+02  0.29999953945E+02 0.  0.
         12    1    1    2    0    0  0.35682686708E+02 -0.12569663803E+02 -0.14896856414E+02  0.40659155302E+02  0.00000000000E+00 0. -1.
         11    1    3    3    0    0  0.55073145180E+00  0.76978061255E+01  0.70486390942E+01  0.10451929851E+02  0.51100000000E-03 0. -1.
        -11    1    3    3    0    0 -0.22088707236E+02  0.29548171881E+01 -0.25302891475E+01  0.22428648987E+02  0.51100000000E-03 0.  1.
        -12    1    3    3    0    0 -0.14144710924E+02  0.19170404892E+01  0.10378506467E+02  0.17648265860E+02  0.00000000000E+00 0.  1.
</event>
<event>
 7    1  0.5764931E-013  0.5052886E+02  0.7816164E-02  0.1300439E+00
        -11   -1    0    0    0    0  0.00000000000E+00  0.00000000000E+00  0.45593999997E+02  0.45594000000E+02  0.51100000000E-03 0.  1.
         11   -1    0    0    0    0 -0.00000000000E+00 -0.00000000000E+00 -0.45593999997E+02  0.45594000000E+02  0.51100000000E-03 0. -1.
    9900012    2    1    2    0    0 -0.27674228715E+02 -0.22137509538E+02 -0.19930705541E+02  0.50528864657E+02  0.30000014612E+02 0.  0.
         12    1    1    2    0    0  0.27674228715E+02  0.22137509538E+02  0.19930705541E+02  0.40659135343E+02  0.00000000000E+00 0. -1.
         11    1    3    3    0    0 -0.31426026057E+02 -0.13117708639E+02 -0.79107260798E+01  0.34960677640E+02  0.51100000000E-03 0. -1.
        -11    1    3    3    0    0  0.18536631318E+01 -0.63510495472E+01 -0.78614496090E+01  0.10274934918E+02  0.51100000000E-03 0.  1.
         12    1    3    3    0    0  0.18981342106E+01 -0.26687513514E+01 -0.41585298518E+01  0.52932520991E+01  0.00000000000E+00 0. -1.
</event>
<event>
 7    1  0.5764931E-013  0.5052886E+02  0.7816164E-02  0.1300439E+00
        -11   -1    0    0    0    0  0.00000000000E+00  0.00000000000E+00  0.45593999997E+02  0.45594000000E+02  0.51100000000E-03 0. -1.
         11   -1    0    0    0    0 -0.00000000000E+00 -0.00000000000E+00 -0.45593999997E+02  0.45594000000E+02  0.51100000000E-03 0.  1.
    9900012    2    1    2    0    0  0.73838473580E+01  0.39213323315E+02  0.78076546281E+01  0.50528863290E+02  0.30000010457E+02 0.  0.
         12    1    1    2    0    0 -0.73838473580E+01 -0.39213323315E+02 -0.78076546281E+01  0.40659136710E+02  0.00000000000E+00 0. -1.
         11    1    3    3    0    0  0.19279364551E+01  0.22768061235E+02  0.18698564116E+02  0.29525207055E+02  0.51100000000E-03 0. -1.
        -11    1    3    3    0    0 -0.61272841955E+00  0.16721151639E+01 -0.21684029287E+01  0.28059538057E+01  0.51100000000E-03 0.  1.
         12    1    3    3    0    0  0.60686393224E+01  0.14773146916E+02 -0.87225065596E+01  0.18197702430E+02  0.00000000000E+00 0. -1.
</event>
<event>
 7    1  0.5764931E-013  0.5052882E+02  0.7816164E-02  0.1300439E+00
        -11   -1    0    0    0    0  0.00000000000E+00  0.00000000000E+00  0.45593999997E+02  0.45594000000E+02  0.51100000000E-03 0. -1.
         11   -1    0    0    0    0 -0.00000000000E+00 -0.00000000000E+00 -0.45593999997E+02  0.45594000000E+02  0.51100000000E-03 0.  1.
    9900012    2    1    2    0    0  0.11349039197E+02 -0.39011346964E+02  0.15756561166E+01  0.50528824223E+02  0.29999891709E+02 0.  0.
         12    1    1    2    0    0 -0.11349039197E+02  0.39011346964E+02 -0.15756561166E+01  0.40659175777E+02  0.00000000000E+00 0. -1.
         11    1    3    3    0    0 -0.54697772093E+01  0.16464241071E+01 -0.41074144528E+00  0.57269436749E+01  0.51100000000E-03 0. -1.
        -11    1    3    3    0    0  0.72590447770E+01 -0.25060936876E+02  0.40077486790E+01  0.26397089573E+02  0.51100000000E-03 0.  1.
         12    1    3    3    0    0  0.95597716288E+01 -0.15596834195E+02 -0.20213511171E+01  0.18404790975E+02  0.00000000000E+00 0. -1.
</event>
<event>
 7    1  0.5764931E-013  0.5052885E+02  0.7816164E-02  0.1300439E+00
        -11   -1    0    0    0    0  0.00000000000E+00  0.00000000000E+00  0.45593999997E+02  0.45594000000E+02  0.51100000000E-03 0.  1.
         11   -1    0    0    0    0 -0.00000000000E+00 -0.00000000000E+00 -0.45593999997E+02  0.45594000000E+02  0.51100000000E-03 0. -1.
    9900012    2    1    2    0    0  0.14945521286E+02 -0.34550081587E+02  0.15365205298E+02  0.50528852468E+02  0.29999977562E+02 0.  0.
         12    1    1    2    0    0 -0.14945521286E+02  0.34550081587E+02 -0.15365205298E+02  0.40659147532E+02  0.00000000000E+00 0. -1.
         11    1    3    3    0    0  0.50694312437E-02  0.38852204487E+01 -0.34246725786E+01  0.51791260040E+01  0.51100000000E-03 0. -1.
        -11    1    3    3    0    0  0.37195046207E+01 -0.81293696145E+01  0.46205243621E+01  0.10063329995E+02  0.51100000000E-03 0.  1.
         12    1    3    3    0    0  0.11220947234E+02 -0.30305932421E+02  0.14169353514E+02  0.35286396469E+02  0.00000000000E+00 0. -1.
</event>
<event>
 7    1  0.5764931E-013  0.5052886E+02  0.7816164E-02  0.1300439E+00
        -11   -1    0    0    0    0  0.00000000000E+00  0.00000000000E+00  0.45593999997E+02  0.45594000000E+02  0.51100000000E-03 0.  1.
         11   -1    0    0    0    0 -0.00000000000E+00 -0.00000000000E+00 -0.45593999997E+02  0.45594000000E+02  0.51100000000E-03 0. -1.
    9900012    2    1    2    0    0  0.11340188260E+02  0.68943163030E+01  0.38432204740E+02  0.50528857999E+02  0.29999994374E+02 0.  0.
         12    1    1    2    0    0 -0.11340188260E+02 -0.68943163030E+01 -0.38432204740E+02  0.40659142001E+02  0.00000000000E+00 0. -1.
         11    1    3    3    0    0  0.37311374245E+01  0.14472171064E+02  0.93412066269E+01  0.17624507462E+02  0.51100000000E-03 0. -1.
        -11    1    3    3    0    0 -0.18263673206E+01 -0.45040700392E+01  0.14208768147E+02  0.15017035561E+02  0.51100000000E-03 0.  1.
         12    1    3    3    0    0  0.94354181561E+01 -0.30737847214E+01  0.14882229966E+02  0.17887314976E+02  0.00000000000E+00 0. -1.
</event>
<event>
 7    1  0.5764931E-013  0.5052887E+02  0.7816164E-02  0.1300439E+00
        -11   -1    0    0    0    0  0.00000000000E+00  0.00000000000E+00  0.45593999997E+02  0.45594000000E+02  0.51100000000E-03 0. -1.
         11   -1    0    0    0    0 -0.00000000000E+00 -0.00000000000E+00 -0.45593999997E+02  0.45594000000E+02  0.51100000000E-03 0.  1.
    9900012    2    1    2    0    0  0.24775325127E+02  0.18255125142E+01 -0.32187191964E+02  0.50528873625E+02  0.30000041869E+02 0.  0.
         12    1    1    2    0    0 -0.24775325127E+02 -0.18255125142E+01  0.32187191964E+02  0.40659126375E+02  0.00000000000E+00 0. -1.
         11    1    3    3    0    0  0.94841913200E+01  0.15250190066E+02 -0.13364875045E+02  0.22386113269E+02  0.51100000000E-03 0. -1.
        -11    1    3    3    0    0  0.69863587878E+01 -0.34890135641E+01 -0.54145622661E+01  0.95026264557E+01  0.51100000000E-03 0.  1.
         12    1    3    3    0    0  0.83047750195E+01 -0.99356639876E+01 -0.13407754652E+02  0.18640133900E+02  0.00000000000E+00 0. -1.
</event>
<event>
 7    1  0.5764931E-013  0.5052884E+02  0.7816164E-02  0.1300439E+00
        -11   -1    0    0    0    0  0.00000000000E+00  0.00000000000E+00  0.45593999997E+02  0.45594000000E+02  0.51100000000E-03 0.  1.
         11   -1    0    0    0    0 -0.00000000000E+00 -0.00000000000E+00 -0.45593999997E+02  0.45594000000E+02  0.51100000000E-03 0. -1.
    9900012    2    1    2    0    0  0.28403060713E+02 -0.24333998823E+02  0.15946459569E+02  0.50528844459E+02  0.29999953217E+02 0.  0.
         12    1    1    2    0    0 -0.28403060713E+02  0.24333998823E+02 -0.15946459569E+02  0.40659155541E+02  0.00000000000E+00 0. -1.
         11    1    3    3    0    0  0.23547679302E+02 -0.28086949066E+01  0.12885933710E+02  0.26989428587E+02  0.51100000000E-03 0. -1.
        -11    1    3    3    0    0  0.19073638090E+01 -0.12727809758E+02  0.54218285351E+01  0.13965364401E+02  0.51100000000E-03 0.  1.
         12    1    3    3    0    0  0.29480176013E+01 -0.87974941583E+01 -0.23613026759E+01  0.95740514711E+01  0.00000000000E+00 0. -1.
</event>
<event>
 7    1  0.5764931E-013  0.5052886E+02  0.7816164E-02  0.1300439E+00
        -11   -1    0    0    0    0  0.00000000000E+00  0.00000000000E+00  0.45593999997E+02  0.45594000000E+02  0.51100000000E-03 0. -1.
         11   -1    0    0    0    0 -0.00000000000E+00 -0.00000000000E+00 -0.45593999997E+02  0.45594000000E+02  0.51100000000E-03 0.  1.
    9900012    2    1    2    0    0 -0.17114460774E+02 -0.25012070460E+02 -0.27104563934E+02  0.50528858072E+02  0.29999994595E+02 0.  0.
         12    1    1    2    0    0  0.17114460774E+02  0.25012070460E+02  0.27104563934E+02  0.40659141928E+02  0.00000000000E+00 0. -1.
         11    1    3    3    0    0 -0.81412299495E+00 -0.13664304604E+02  0.12476676800E+01  0.13745278879E+02  0.51100000000E-03 0. -1.
        -11    1    3    3    0    0 -0.78193820227E+01 -0.11181349018E+02 -0.23033603707E+02  0.26771481115E+02  0.51100000000E-03 0.  1.
        -12    1    3    3    0    0 -0.84809557567E+01 -0.16641683808E+00 -0.53186279069E+01  0.10012098078E+02  0.00000000000E+00 0.  1.
</event>
<event>
 7    1  0.5764931E-013  0.5052887E+02  0.7816164E-02  0.1300439E+00
        -11   -1    0    0    0    0  0.00000000000E+00  0.00000000000E+00  0.45593999997E+02  0.45594000000E+02  0.51100000000E-03 0.  1.
         11   -1    0    0    0    0 -0.00000000000E+00 -0.00000000000E+00 -0.45593999997E+02  0.45594000000E+02  0.51100000000E-03 0. -1.
    9900012    2    1    2    0    0  0.34461517749E+02 -0.19893291066E+02  0.83561946430E+01  0.50528865431E+02  0.30000016964E+02 0.  0.
         12    1    1    2    0    0 -0.34461517749E+02  0.19893291066E+02 -0.83561946430E+01  0.40659134569E+02  0.00000000000E+00 0. -1.
         11    1    3    3    0    0  0.29092999075E+02 -0.46827118425E+01  0.27163657025E+01  0.29592381254E+02  0.51100000000E-03 0. -1.
        -11    1    3    3    0    0  0.37935288118E+01 -0.38870077487E+01  0.75957165826E+01  0.93378049213E+01  0.51100000000E-03 0.  1.
         12    1    3    3    0    0  0.15749898621E+01 -0.11323571475E+02 -0.19558876422E+01  0.11598679256E+02  0.00000000000E+00 0. -1.
</event>
<event>
 7    1  0.5764931E-013  0.5052874E+02  0.7816164E-02  0.1300439E+00
        -11   -1    0    0    0    0  0.00000000000E+00  0.00000000000E+00  0.45593999997E+02  0.45594000000E+02  0.51100000000E-03 0.  1.
         11   -1    0    0    0    0 -0.00000000000E+00 -0.00000000000E+00 -0.45593999997E+02  0.45594000000E+02  0.51100000000E-03 0. -1.
    9900012    2    1    2    0    0  0.99927036483E+01 -0.18507513797E+02  0.34796451961E+02  0.50528741986E+02  0.29999641739E+02 0.  0.
         12    1    1    2    0    0 -0.99927036483E+01  0.18507513797E+02 -0.34796451961E+02  0.40659258014E+02  0.00000000000E+00 0. -1.
         11    1    3    3    0    0 -0.86721208587E+01 -0.83136166582E+01  0.44205487119E+01  0.12800904394E+02  0.51100000000E-03 0. -1.
        -11    1    3    3    0    0  0.84691918088E+01 -0.59915372299E+01  0.92605873765E+01  0.13906265030E+02  0.51100000000E-03 0.  1.
         12    1    3    3    0    0  0.10195632698E+02 -0.42023599088E+01  0.21115315873E+02  0.23821572562E+02  0.00000000000E+00 0. -1.
</event>
<event>
 7    1  0.5764931E-013  0.5052888E+02  0.7816164E-02  0.1300439E+00
        -11   -1    0    0    0    0  0.00000000000E+00  0.00000000000E+00  0.45593999997E+02  0.45594000000E+02  0.51100000000E-03 0. -1.
         11   -1    0    0    0    0 -0.00000000000E+00 -0.00000000000E+00 -0.45593999997E+02  0.45594000000E+02  0.51100000000E-03 0.  1.
    9900012    2    1    2    0    0 -0.23852765229E+02  0.16108781569E+02 -0.28717880662E+02  0.50528881436E+02  0.30000065614E+02 0.  0.
         12    1    1    2    0    0  0.23852765229E+02 -0.16108781569E+02  0.28717880662E+02  0.40659118564E+02  0.00000000000E+00 0. -1.
         11    1    3    3    0    0 -0.10791778622E+02  0.28684880261E+01  0.69683785115E+00  0.11188221156E+02  0.51100000000E-03 0. -1.
        -11    1    3    3    0    0 -0.69874531094E+01  0.17406079675E+02 -0.21381462792E+02  0.28442275963E+02  0.51100000000E-03 0.  1.
         12    1    3    3    0    0 -0.60735334973E+01 -0.41657861321E+01 -0.80332557207E+01  0.10898384317E+02  0.00000000000E+00 0. -1.
</event>
<event>
 7    1  0.5764931E-013  0.5052887E+02  0.7816164E-02  0.1300439E+00
        -11   -1    0    0    0    0  0.00000000000E+00  0.00000000000E+00  0.45593999997E+02  0.45594000000E+02  0.51100000000E-03 0.  1.
         11   -1    0    0    0    0 -0.00000000000E+00 -0.00000000000E+00 -0.45593999997E+02  0.45594000000E+02  0.51100000000E-03 0. -1.
    9900012    2    1    2    0    0 -0.34114721074E+02  0.18711776562E+02  0.11799170410E+02  0.50528865745E+02  0.30000017918E+02 0.  0.
         12    1    1    2    0    0  0.34114721074E+02 -0.18711776562E+02 -0.11799170410E+02  0.40659134255E+02  0.00000000000E+00 0. -1.
         11    1    3    3    0    0 -0.17901311796E+02  0.11495108823E+02 -0.70984443286E+01  0.22427269183E+02  0.51100000000E-03 0. -1.
        -11    1    3    3    0    0 -0.78263837894E+01 -0.29910860794E-01  0.13880647466E+02  0.15935041645E+02  0.51100000000E-03 0.  1.
         12    1    3    3    0    0 -0.83870254879E+01  0.72465785996E+01  0.50169672720E+01  0.12166554917E+02  0.00000000000E+00 0. -1.
</event>
<event>
 7    1  0.5764931E-013  0.5052892E+02  0.7816164E-02  0.1300439E+00
        -11   -1    0    0    0    0  0.00000000000E+00  0.00000000000E+00  0.45593999997E+02  0.45594000000E+02  0.51100000000E-03 0.  1.
         11   -1    0    0    0    0 -0.00000000000E+00 -0.00000000000E+00 -0.45593999997E+02  0.45594000000E+02  0.51100000000E-03 0. -1.
    9900012    2    1    2    0    0 -0.10396351479E+02 -0.39286046385E+02 -0.12972364530E+01  0.50528924912E+02  0.30000197761E+02 0.  0.
         12    1    1    2    0    0  0.10396351479E+02  0.39286046385E+02  0.12972364530E+01  0.40659075088E+02  0.00000000000E+00 0. -1.
         11    1    3    3    0    0  0.47036279848E+01 -0.13586442945E+02  0.90111775184E+01  0.16968113290E+02  0.51100000000E-03 0. -1.
        -11    1    3    3    0    0 -0.90863518840E+01 -0.54670057835E+01 -0.53565499615E+01  0.11880343873E+02  0.51100000000E-03 0.  1.
        -12    1    3    3    0    0 -0.60136275801E+01 -0.20232597656E+02 -0.49518640099E+01  0.21680467748E+02  0.00000000000E+00 0.  1.
</event>
<event>
 7    1  0.5764931E-013  0.5052886E+02  0.7816164E-02  0.1300439E+00
        -11   -1    0    0    0    0  0.00000000000E+00  0.00000000000E+00  0.45593999997E+02  0.45594000000E+02  0.51100000000E-03 0. -1.
         11   -1    0    0    0    0 -0.00000000000E+00 -0.00000000000E+00 -0.45593999997E+02  0.45594000000E+02  0.51100000000E-03 0.  1.
    9900012    2    1    2    0    0  0.12752408553E+02 -0.37028619003E+02 -0.10928088235E+02  0.50528860048E+02  0.30000000603E+02 0.  0.
         12    1    1    2    0    0 -0.12752408553E+02  0.37028619003E+02  0.10928088235E+02  0.40659139952E+02  0.00000000000E+00 0. -1.
         11    1    3    3    0    0 -0.41221741669E+01 -0.84723371921E+00  0.42574229551E+01  0.59862989665E+01  0.51100000000E-03 0. -1.
        -11    1    3    3    0    0  0.15543595681E+01 -0.84475450443E+01 -0.86527706713E+01  0.12192107754E+02  0.51100000000E-03 0.  1.
         12    1    3    3    0    0  0.15320223151E+02 -0.27733840239E+02 -0.65327405183E+01  0.32350453328E+02  0.00000000000E+00 0. -1.
</event>
<event>
 7    1  0.5764931E-013  0.5052887E+02  0.7816164E-02  0.1300439E+00
        -11   -1    0    0    0    0  0.00000000000E+00  0.00000000000E+00  0.45593999997E+02  0.45594000000E+02  0.51100000000E-03 0. -1.
         11   -1    0    0    0    0 -0.00000000000E+00 -0.00000000000E+00 -0.45593999997E+02  0.45594000000E+02  0.51100000000E-03 0.  1.
    9900012    2    1    2    0    0  0.99079345220E+01  0.31996722786E+02 -0.23047945476E+02  0.50528865402E+02  0.30000016877E+02 0.  0.
         12    1    1    2    0    0 -0.99079345220E+01 -0.31996722786E+02  0.23047945476E+02  0.40659134598E+02  0.00000000000E+00 0. -1.
         11    1    3    3    0    0 -0.84044265320E+01  0.98916247621E+01 -0.12253092249E-01  0.12979937448E+02  0.51100000000E-03 0. -1.
        -11    1    3    3    0    0  0.10104875956E+02  0.15335365739E+02 -0.18222540565E+02  0.25871662980E+02  0.51100000000E-03 0.  1.
         12    1    3    3    0    0  0.82074850977E+01  0.67697322855E+01 -0.48131518186E+01  0.11677264974E+02  0.00000000000E+00 0. -1.
</event>
<event>
 7    1  0.5764931E-013  0.5052890E+02  0.7816164E-02  0.1300439E+00
        -11   -1    0    0    0    0  0.00000000000E+00  0.00000000000E+00  0.45593999997E+02  0.45594000000E+02  0.51100000000E-03 0.  1.
         11   -1    0    0    0    0 -0.00000000000E+00 -0.00000000000E+00 -0.45593999997E+02  0.45594000000E+02  0.51100000000E-03 0. -1.
    9900012    2    1    2    0    0 -0.10259046486E+02 -0.36606700013E+02  0.14417476524E+02  0.50528903232E+02  0.30000131865E+02 0.  0.
         12    1    1    2    0    0  0.10259046486E+02  0.36606700013E+02 -0.14417476524E+02  0.40659096768E+02  0.00000000000E+00 0. -1.
         11    1    3    3    0    0 -0.57821053434E+01 -0.41124190745E+02  0.12160440583E+02  0.43272486895E+02  0.51100000000E-03 0.  1.
        -11    1    3    3    0    0 -0.40490324466E+01  0.35512392161E+01  0.27980803787E+01  0.60692024015E+01  0.51100000000E-03 0. -1.
        -12    1    3    3    0    0 -0.42790869644E+00  0.96625151631E+00 -0.54104443777E+00  0.11872139356E+01  0.00000000000E+00 0.  1.
</event>
<event>
 7    1  0.5764931E-013  0.5052886E+02  0.7816164E-02  0.1300439E+00
        -11   -1    0    0    0    0  0.00000000000E+00  0.00000000000E+00  0.45593999997E+02  0.45594000000E+02  0.51100000000E-03 0.  1.
         11   -1    0    0    0    0 -0.00000000000E+00 -0.00000000000E+00 -0.45593999997E+02  0.45594000000E+02  0.51100000000E-03 0. -1.
    9900012    2    1    2    0    0  0.13106224895E+02 -0.38190947382E+02  0.47795678394E+01  0.50528857589E+02  0.29999993126E+02 0.  0.
         12    1    1    2    0    0 -0.13106224895E+02  0.38190947382E+02 -0.47795678394E+01  0.40659142411E+02  0.00000000000E+00 0. -1.
         11    1    3    3    0    0  0.14756520696E+02 -0.31423855906E+02  0.92254038885E+01  0.35921048150E+02  0.51100000000E-03 0.  1.
        -11    1    3    3    0    0 -0.21570270017E+01  0.28437190178E+01 -0.33957665124E+01  0.49265336502E+01  0.51100000000E-03 0. -1.
        -12    1    3    3    0    0  0.50673120019E+00 -0.96108104938E+01 -0.10500695367E+01  0.96812757883E+01  0.00000000000E+00 0.  1.
</event>
<event>
 7    1  0.5764931E-013  0.5052886E+02  0.7816164E-02  0.1300439E+00
        -11   -1    0    0    0    0  0.00000000000E+00  0.00000000000E+00  0.45593999997E+02  0.45594000000E+02  0.51100000000E-03 0.  1.
         11   -1    0    0    0    0 -0.00000000000E+00 -0.00000000000E+00 -0.45593999997E+02  0.45594000000E+02  0.51100000000E-03 0. -1.
    9900012    2    1    2    0    0 -0.46467184848E+01 -0.39633778347E+02  0.77933994498E+01  0.50528862605E+02  0.30000008373E+02 0.  0.
         12    1    1    2    0    0  0.46467184848E+01  0.39633778347E+02 -0.77933994498E+01  0.40659137395E+02  0.00000000000E+00 0. -1.
         11    1    3    3    0    0  0.40541937849E+01 -0.16722830480E+02  0.15920370224E+01  0.17280744447E+02  0.51100000000E-03 0. -1.
        -11    1    3    3    0    0 -0.10434161125E+02 -0.15387210305E+01  0.52579876438E+01  0.11784982610E+02  0.51100000000E-03 0.  1.
        -12    1    3    3    0    0  0.17332488552E+01 -0.21372226837E+02  0.94337478357E+00  0.21463135548E+02  0.00000000000E+00 0.  1.
</event>
<event>
 7    1  0.5764931E-013  0.5052887E+02  0.7816164E-02  0.1300439E+00
        -11   -1    0    0    0    0  0.00000000000E+00  0.00000000000E+00  0.45593999997E+02  0.45594000000E+02  0.51100000000E-03 0.  1.
         11   -1    0    0    0    0 -0.00000000000E+00 -0.00000000000E+00 -0.45593999997E+02  0.45594000000E+02  0.51100000000E-03 0. -1.
    9900012    2    1    2    0    0 -0.95588733514E+01 -0.11491588594E+02  0.37811853923E+02  0.50528868612E+02  0.30000026632E+02 0.  0.
         12    1    1    2    0    0  0.95588733514E+01  0.11491588594E+02 -0.37811853923E+02  0.40659131388E+02  0.00000000000E+00 0. -1.
         11    1    3    3    0    0 -0.82943198413E+01 -0.59489314211E+01  0.75449581414E+01  0.12692987052E+02  0.51100000000E-03 0. -1.
        -11    1    3    3    0    0  0.72178392849E+01 -0.65440199697E+01  0.26977859105E+02  0.28683205599E+02  0.51100000000E-03 0.  1.
         12    1    3    3    0    0 -0.84823927949E+01  0.10013627967E+01  0.32890366769E+01  0.91526759606E+01  0.00000000000E+00 0. -1.
</event>
<event>
 7    1  0.5764931E-013  0.5052887E+02  0.7816164E-02  0.1300439E+00
        -11   -1    0    0    0    0  0.00000000000E+00  0.00000000000E+00  0.45593999997E+02  0.45594000000E+02  0.51100000000E-03 0.  1.
         11   -1    0    0    0    0 -0.00000000000E+00 -0.00000000000E+00 -0.45593999997E+02  0.45594000000E+02  0.51100000000E-03 0. -1.
    9900012    2    1    2    0    0  0.75220962550E+01  0.35457212206E+02  0.18421963529E+02  0.50528873475E+02  0.30000041416E+02 0.  0.
         12    1    1    2    0    0 -0.75220962550E+01 -0.35457212206E+02 -0.18421963529E+02  0.40659126525E+02  0.00000000000E+00 0. -1.
         11    1    3    3    0    0  0.35808280526E+01  0.17564212984E+02 -0.22986823656E+01  0.18072295045E+02  0.51100000000E-03 0. -1.
        -11    1    3    3    0    0  0.82111890409E+01  0.55281789774E+01  0.15459244648E+02  0.18356814365E+02  0.51100000000E-03 0.  1.
         12    1    3    3    0    0 -0.42699208386E+01  0.12364820244E+02  0.52614012471E+01  0.14099764066E+02  0.00000000000E+00 0. -1.
</event>
<event>
 7    1  0.5764931E-013  0.5052884E+02  0.7816164E-02  0.1300439E+00
        -11   -1    0    0    0    0  0.00000000000E+00  0.00000000000E+00  0.45593999997E+02  0.45594000000E+02  0.51100000000E-03 0. -1.
         11   -1    0    0    0    0 -0.00000000000E+00 -0.00000000000E+00 -0.45593999997E+02  0.45594000000E+02  0.51100000000E-03 0.  1.
    9900012    2    1    2    0    0  0.19632750037E+01 -0.33026892243E+02 -0.23633396405E+02  0.50528837618E+02  0.29999932424E+02 0.  0.
         12    1    1    2    0    0 -0.19632750037E+01  0.33026892243E+02  0.23633396405E+02  0.40659162382E+02  0.00000000000E+00 0. -1.
         11    1    3    3    0    0 -0.15569098907E+01 -0.15534140688E+02 -0.23876669832E+02  0.28527685813E+02  0.51100000000E-03 0. -1.
        -11    1    3    3    0    0 -0.27649987259E+01 -0.14948129565E+02  0.57167709471E+00  0.15212449191E+02  0.51100000000E-03 0.  1.
         12    1    3    3    0    0  0.62851836203E+01 -0.25446219901E+01 -0.32840366773E+00  0.67887026140E+01  0.00000000000E+00 0. -1.
</event>
<event>
 7    1  0.5764931E-013  0.5052887E+02  0.7816164E-02  0.1300439E+00
        -11   -1    0    0    0    0  0.00000000000E+00  0.00000000000E+00  0.45593999997E+02  0.45594000000E+02  0.51100000000E-03 0. -1.
         11   -1    0    0    0    0 -0.00000000000E+00 -0.00000000000E+00 -0.45593999997E+02  0.45594000000E+02  0.51100000000E-03 0.  1.
    9900012    2    1    2    0    0  0.11186683720E+02  0.39081082366E+02 -0.83197560626E+00  0.50528867263E+02  0.30000022532E+02 0.  0.
         12    1    1    2    0    0 -0.11186683720E+02 -0.39081082366E+02  0.83197560626E+00  0.40659132737E+02  0.00000000000E+00 0. -1.
         11    1    3    3    0    0  0.50428015558E+01  0.41715757536E+02  0.55424210208E+00  0.42023106250E+02  0.51100000000E-03 0.  1.
        -11    1    3    3    0    0  0.22926276573E+01 -0.19790335767E+01  0.17483076774E+01  0.34970409590E+01  0.51100000000E-03 0. -1.
         12    1    3    3    0    0  0.38512545072E+01 -0.65564159400E+00 -0.31345253858E+01  0.50087200534E+01  0.00000000000E+00 0. -1.
</event>
<event>
 7    1  0.5764931E-013  0.5052889E+02  0.7816164E-02  0.1300439E+00
        -11   -1    0    0    0    0  0.00000000000E+00  0.00000000000E+00  0.45593999997E+02  0.45594000000E+02  0.51100000000E-03 0.  1.
         11   -1    0    0    0    0 -0.00000000000E+00 -0.00000000000E+00 -0.45593999997E+02  0.45594000000E+02  0.51100000000E-03 0. -1.
    9900012    2    1    2    0    0  0.31415898652E+01  0.40523196306E+02  0.10790825226E+01  0.50528887309E+02  0.30000083463E+02 0.  0.
         12    1    1    2    0    0 -0.31415898652E+01 -0.40523196306E+02 -0.10790825226E+01  0.40659112691E+02  0.00000000000E+00 0. -1.
         11    1    3    3    0    0 -0.77697418571E+01 -0.49553475354E+00 -0.10544788255E+01  0.78566130789E+01  0.51100000000E-03 0. -1.
        -11    1    3    3    0    0  0.49188466928E+01  0.21888275934E+02 -0.58465484827E+00  0.22441780181E+02  0.51100000000E-03 0.  1.
         12    1    3    3    0    0  0.59924850295E+01  0.19130455126E+02  0.27182161964E+01  0.20230494048E+02  0.00000000000E+00 0. -1.
</event>
<event>
 7    1  0.5764931E-013  0.5052886E+02  0.7816164E-02  0.1300439E+00
        -11   -1    0    0    0    0  0.00000000000E+00  0.00000000000E+00  0.45593999997E+02  0.45594000000E+02  0.51100000000E-03 0.  1.
         11   -1    0    0    0    0 -0.00000000000E+00 -0.00000000000E+00 -0.45593999997E+02  0.45594000000E+02  0.51100000000E-03 0. -1.
    9900012    2    1    2    0    0 -0.76953390289E+01  0.17883435591E+02  0.35694962590E+02  0.50528857540E+02  0.29999992978E+02 0.  0.
         12    1    1    2    0    0  0.76953390289E+01 -0.17883435591E+02 -0.35694962590E+02  0.40659142460E+02  0.00000000000E+00 0. -1.
         11    1    3    3    0    0 -0.95729482772E+01  0.51916728718E+01 -0.74297233883E+00  0.10915439253E+02  0.51100000000E-03 0. -1.
        -11    1    3    3    0    0 -0.10971615862E+01  0.41179647180E+01  0.37091002824E+01  0.56496745155E+01  0.51100000000E-03 0.  1.
         12    1    3    3    0    0  0.29747708345E+01  0.85737980011E+01  0.32728834646E+02  0.33963743772E+02  0.00000000000E+00 0. -1.
</event>
<event>
 7    1  0.5764931E-013  0.5052886E+02  0.7816164E-02  0.1300439E+00
        -11   -1    0    0    0    0  0.00000000000E+00  0.00000000000E+00  0.45593999997E+02  0.45594000000E+02  0.51100000000E-03 0.  1.
         11   -1    0    0    0    0 -0.00000000000E+00 -0.00000000000E+00 -0.45593999997E+02  0.45594000000E+02  0.51100000000E-03 0. -1.
    9900012    2    1    2    0    0 -0.10790956561E+02  0.31322474229E+02  0.23571664291E+02  0.50528862125E+02  0.30000006916E+02 0.  0.
         12    1    1    2    0    0  0.10790956561E+02 -0.31322474229E+02 -0.23571664291E+02  0.40659137875E+02  0.00000000000E+00 0. -1.
         11    1    3    3    0    0 -0.63088939442E+01 -0.17598657177E+01  0.13458625971E+02  0.14967761471E+02  0.51100000000E-03 0. -1.
        -11    1    3    3    0    0  0.18556883309E+01  0.87465245554E+01  0.28937636505E+01  0.93978263075E+01  0.51100000000E-03 0.  1.
         12    1    3    3    0    0 -0.63377509475E+01  0.24335815391E+02  0.72192746687E+01  0.26163274347E+02  0.00000000000E+00 0. -1.
</event>
<event>
 7    1  0.5764931E-013  0.5052886E+02  0.7816164E-02  0.1300439E+00
        -11   -1    0    0    0    0  0.00000000000E+00  0.00000000000E+00  0.45593999997E+02  0.45594000000E+02  0.51100000000E-03 0. -1.
         11   -1    0    0    0    0 -0.00000000000E+00 -0.00000000000E+00 -0.45593999997E+02  0.45594000000E+02  0.51100000000E-03 0.  1.
    9900012    2    1    2    0    0 -0.21086393516E+02  0.25628419366E+02 -0.23488593780E+02  0.50528857013E+02  0.29999991377E+02 0.  0.
         12    1    1    2    0    0  0.21086393516E+02 -0.25628419366E+02  0.23488593780E+02  0.40659142987E+02  0.00000000000E+00 0. -1.
         11    1    3    3    0    0  0.33285990296E+01  0.67182122178E+01 -0.10933516844E+02  0.13257289985E+02  0.51100000000E-03 0. -1.
        -11    1    3    3    0    0 -0.20547716999E+02  0.19758281112E+02 -0.52829160164E+01  0.28991508209E+02  0.51100000000E-03 0.  1.
        -12    1    3    3    0    0 -0.38672755466E+01 -0.84807396419E+00 -0.72721609194E+01  0.82800588186E+01  0.00000000000E+00 0.  1.
</event>
<event>
 7    1  0.5764931E-013  0.5052883E+02  0.7816164E-02  0.1300439E+00
        -11   -1    0    0    0    0  0.00000000000E+00  0.00000000000E+00  0.45593999997E+02  0.45594000000E+02  0.51100000000E-03 0.  1.
         11   -1    0    0    0    0 -0.00000000000E+00 -0.00000000000E+00 -0.45593999997E+02  0.45594000000E+02  0.51100000000E-03 0. -1.
    9900012    2    1    2    0    0  0.35151815124E+02  0.15750340166E+02 -0.13017106934E+02  0.50528826437E+02  0.29999898439E+02 0.  0.
         12    1    1    2    0    0 -0.35151815124E+02 -0.15750340166E+02  0.13017106934E+02  0.40659173563E+02  0.00000000000E+00 0. -1.
         11    1    3    3    0    0  0.71281538011E+01  0.22106453377E+01  0.82560528801E+01  0.11129238017E+02  0.51100000000E-03 0. -1.
        -11    1    3    3    0    0  0.16756059966E+02  0.14071998524E+02 -0.13854815691E+02  0.25898698928E+02  0.51100000000E-03 0.  1.
         12    1    3    3    0    0  0.11267601357E+02 -0.53230369604E+00 -0.74183441235E+01  0.13500889493E+02  0.00000000000E+00 0. -1.
</event>
<event>
 7    1  0.5764931E-013  0.5052887E+02  0.7816164E-02  0.1300439E+00
        -11   -1    0    0    0    0  0.00000000000E+00  0.00000000000E+00  0.45593999997E+02  0.45594000000E+02  0.51100000000E-03 0.  1.
         11   -1    0    0    0    0 -0.00000000000E+00 -0.00000000000E+00 -0.45593999997E+02  0.45594000000E+02  0.51100000000E-03 0. -1.
    9900012    2    1    2    0    0 -0.99712914506E+01 -0.32403824297E+02  0.22443944531E+02  0.50528866606E+02  0.30000020535E+02 0.  0.
         12    1    1    2    0    0  0.99712914506E+01  0.32403824297E+02 -0.22443944531E+02  0.40659133394E+02  0.00000000000E+00 0. -1.
         11    1    3    3    0    0 -0.16053191313E+02 -0.19075333087E+02  0.66687127962E+01  0.25807847921E+02  0.51100000000E-03 0. -1.
        -11    1    3    3    0    0  0.94352604268E+01 -0.11139245823E+02  0.10006597367E+02  0.17698557228E+02  0.51100000000E-03 0.  1.
         12    1    3    3    0    0 -0.33533605642E+01 -0.21892453874E+01  0.57686343675E+01  0.70224614563E+01  0.00000000000E+00 0. -1.
</event>
<event>
 7    1  0.5764931E-013  0.5052885E+02  0.7816164E-02  0.1300439E+00
        -11   -1    0    0    0    0  0.00000000000E+00  0.00000000000E+00  0.45593999997E+02  0.45594000000E+02  0.51100000000E-03 0. -1.
         11   -1    0    0    0    0 -0.00000000000E+00 -0.00000000000E+00 -0.45593999997E+02  0.45594000000E+02  0.51100000000E-03 0.  1.
    9900012    2    1    2    0    0 -0.33159483821E+02 -0.17464761656E+02 -0.15766966842E+02  0.50528849611E+02  0.29999968876E+02 0.  0.
         12    1    1    2    0    0  0.33159483821E+02  0.17464761656E+02  0.15766966842E+02  0.40659150389E+02  0.00000000000E+00 0. -1.
         11    1    3    3    0    0 -0.56382521420E+01 -0.14622617568E+02  0.15914620336E+01  0.15752573866E+02  0.51100000000E-03 0. -1.
        -11    1    3    3    0    0 -0.12788807493E+02  0.38823358583E+01 -0.45152713591E+01  0.14107225260E+02  0.51100000000E-03 0.  1.
        -12    1    3    3    0    0 -0.14732424186E+02 -0.67244799468E+01 -0.12843157517E+02  0.20669050485E+02  0.00000000000E+00 0.  1.
</event>
<event>
 7    1  0.5764931E-013  0.5052886E+02  0.7816164E-02  0.1300439E+00
        -11   -1    0    0    0    0  0.00000000000E+00  0.00000000000E+00  0.45593999997E+02  0.45594000000E+02  0.51100000000E-03 0.  1.
         11   -1    0    0    0    0 -0.00000000000E+00 -0.00000000000E+00 -0.45593999997E+02  0.45594000000E+02  0.51100000000E-03 0. -1.
    9900012    2    1    2    0    0  0.19818977584E+02 -0.23476621176E+01  0.35424039968E+02  0.50528855917E+02  0.29999988045E+02 0.  0.
         12    1    1    2    0    0 -0.19818977584E+02  0.23476621176E+01 -0.35424039968E+02  0.40659144083E+02  0.00000000000E+00 0. -1.
         11    1    3    3    0    0  0.20662223165E+02 -0.23553067906E+01  0.27105528394E+02  0.34164083567E+02  0.51100000000E-03 0.  1.
        -11    1    3    3    0    0 -0.67956591426E+01  0.27046681276E+01  0.58983530697E+01  0.93961046215E+01  0.51100000000E-03 0. -1.
        -12    1    3    3    0    0  0.59524135614E+01 -0.26970234546E+01  0.24201585048E+01  0.69686677284E+01  0.00000000000E+00 0.  1.
</event>
<event>
 7    1  0.5764931E-013  0.5052888E+02  0.7816164E-02  0.1300439E+00
        -11   -1    0    0    0    0  0.00000000000E+00  0.00000000000E+00  0.45593999997E+02  0.45594000000E+02  0.51100000000E-03 0.  1.
         11   -1    0    0    0    0 -0.00000000000E+00 -0.00000000000E+00 -0.45593999997E+02  0.45594000000E+02  0.51100000000E-03 0. -1.
    9900012    2    1    2    0    0  0.13786267772E+02 -0.25698313685E+02  0.28331952044E+02  0.50528880334E+02  0.30000062264E+02 0.  0.
         12    1    1    2    0    0 -0.13786267772E+02  0.25698313685E+02 -0.28331952044E+02  0.40659119666E+02  0.00000000000E+00 0. -1.
         11    1    3    3    0    0  0.96149595469E+01  0.20025144205E+01  0.16137386650E+02  0.18891076180E+02  0.51100000000E-03 0. -1.
        -11    1    3    3    0    0 -0.79503144338E+00 -0.16948339767E+02  0.96650768844E+01  0.19526699857E+02  0.51100000000E-03 0.  1.
         12    1    3    3    0    0  0.49663396686E+01 -0.10752488338E+02  0.25294885098E+01  0.12111104297E+02  0.00000000000E+00 0. -1.
</event>
<event>
 7    1  0.5764931E-013  0.5052886E+02  0.7816164E-02  0.1300439E+00
        -11   -1    0    0    0    0  0.00000000000E+00  0.00000000000E+00  0.45593999997E+02  0.45594000000E+02  0.51100000000E-03 0.  1.
         11   -1    0    0    0    0 -0.00000000000E+00 -0.00000000000E+00 -0.45593999997E+02  0.45594000000E+02  0.51100000000E-03 0. -1.
    9900012    2    1    2    0    0  0.38947204777E+02  0.97023314694E+01  0.64919822362E+01  0.50528857987E+02  0.29999994338E+02 0.  0.
         12    1    1    2    0    0 -0.38947204777E+02 -0.97023314694E+01 -0.64919822362E+01  0.40659142013E+02  0.00000000000E+00 0. -1.
         11    1    3    3    0    0  0.36370428180E+01 -0.42892107174E+01  0.49658305378E+01  0.75023251216E+01  0.51100000000E-03 0. -1.
        -11    1    3    3    0    0  0.26236624923E+02  0.92267478271E+01  0.10176707399E+02  0.29615177470E+02  0.51100000000E-03 0.  1.
         12    1    3    3    0    0  0.90735370356E+01  0.47647943597E+01 -0.86505557009E+01  0.13411355396E+02  0.00000000000E+00 0. -1.
</event>
<event>
 7    1  0.5764931E-013  0.5052886E+02  0.7816164E-02  0.1300439E+00
        -11   -1    0    0    0    0  0.00000000000E+00  0.00000000000E+00  0.45593999997E+02  0.45594000000E+02  0.51100000000E-03 0.  1.
         11   -1    0    0    0    0 -0.00000000000E+00 -0.00000000000E+00 -0.45593999997E+02  0.45594000000E+02  0.51100000000E-03 0. -1.
    9900012    2    1    2    0    0  0.13029355034E+02  0.35394259174E+02  0.15187101107E+02  0.50528859390E+02  0.29999998602E+02 0.  0.
         12    1    1    2    0    0 -0.13029355034E+02 -0.35394259174E+02 -0.15187101107E+02  0.40659140610E+02  0.00000000000E+00 0. -1.
         11    1    3    3    0    0 -0.12152341595E+01  0.24135801321E+01  0.13956092509E+02  0.14215297446E+02  0.51100000000E-03 0. -1.
        -11    1    3    3    0    0  0.13215323596E+02  0.25322681796E+02  0.11313817849E+01  0.28586063320E+02  0.51100000000E-03 0.  1.
        -12    1    3    3    0    0  0.10292655977E+01  0.76579972456E+01  0.99626813775E-01  0.77274986242E+01  0.00000000000E+00 0.  1.
</event>
<event>
 7    1  0.5764931E-013  0.5052892E+02  0.7816164E-02  0.1300439E+00
        -11   -1    0    0    0    0  0.00000000000E+00  0.00000000000E+00  0.45593999997E+02  0.45594000000E+02  0.51100000000E-03 0.  1.
         11   -1    0    0    0    0 -0.00000000000E+00 -0.00000000000E+00 -0.45593999997E+02  0.45594000000E+02  0.51100000000E-03 0. -1.
    9900012    2    1    2    0    0 -0.13622002422E+02  0.36515097769E+02  0.11586618394E+02  0.50528916871E+02  0.30000173321E+02 0.  0.
         12    1    1    2    0    0  0.13622002422E+02 -0.36515097769E+02 -0.11586618394E+02  0.40659083129E+02  0.00000000000E+00 0. -1.
         11    1    3    3    0    0  0.58472059039E+01  0.20726638409E+02 -0.58531086728E+00  0.21543582471E+02  0.51100000000E-03 0. -1.
        -11    1    3    3    0    0 -0.76385530550E+01  0.10722574007E+02  0.82283721591E+01  0.15525050556E+02  0.51100000000E-03 0.  1.
         12    1    3    3    0    0 -0.11830655271E+02  0.50658853531E+01  0.39435571025E+01  0.13460283844E+02  0.00000000000E+00 0. -1.
</event>
<event>
 7    1  0.5764931E-013  0.5052886E+02  0.7816164E-02  0.1300439E+00
        -11   -1    0    0    0    0  0.00000000000E+00  0.00000000000E+00  0.45593999997E+02  0.45594000000E+02  0.51100000000E-03 0. -1.
         11   -1    0    0    0    0 -0.00000000000E+00 -0.00000000000E+00 -0.45593999997E+02  0.45594000000E+02  0.51100000000E-03 0.  1.
    9900012    2    1    2    0    0 -0.32492505244E+01 -0.52733206128E+01 -0.40184577356E+02  0.50528858389E+02  0.29999995559E+02 0.  0.
         12    1    1    2    0    0  0.32492505244E+01  0.52733206128E+01  0.40184577356E+02  0.40659141611E+02  0.00000000000E+00 0. -1.
         11    1    3    3    0    0 -0.12272182116E+02 -0.83591140830E+01 -0.27418308612E+02  0.31180841707E+02  0.51100000000E-03 0. -1.
        -11    1    3    3    0    0  0.27195069131E+01  0.36824189255E+01 -0.12153244968E+02  0.12986812177E+02  0.51100000000E-03 0.  1.
         12    1    3    3    0    0  0.63034246783E+01 -0.59662545531E+00 -0.61302377592E+00  0.63612045053E+01  0.00000000000E+00 0. -1.
</event>
<event>
 7    1  0.5764931E-013  0.5052884E+02  0.7816164E-02  0.1300439E+00
        -11   -1    0    0    0    0  0.00000000000E+00  0.00000000000E+00  0.45593999997E+02  0.45594000000E+02  0.51100000000E-03 0. -1.
         11   -1    0    0    0    0 -0.00000000000E+00 -0.00000000000E+00 -0.45593999997E+02  0.45594000000E+02  0.51100000000E-03 0.  1.
    9900012    2    1    2    0    0  0.31486169360E+01 -0.35713637248E+02 -0.19177831634E+02  0.50528844817E+02  0.29999954304E+02 0.  0.
         12    1    1    2    0    0 -0.31486169360E+01  0.35713637248E+02  0.19177831634E+02  0.40659155183E+02  0.00000000000E+00 0. -1.
         11    1    3    3    0    0 -0.27430869726E+00 -0.32363435639E+02 -0.12365794263E+02  0.34646501694E+02  0.51100000000E-03 0.  1.
        -11    1    3    3    0    0  0.64572700365E+01  0.21958777910E+01 -0.66980962823E+01  0.95594304049E+01  0.51100000000E-03 0. -1.
         12    1    3    3    0    0 -0.30343444033E+01 -0.55460793998E+01 -0.11394108898E+00  0.63229127179E+01  0.00000000000E+00 0. -1.
</event>
<event>
 7    1  0.5764931E-013  0.5052886E+02  0.7816164E-02  0.1300439E+00
        -11   -1    0    0    0    0  0.00000000000E+00  0.00000000000E+00  0.45593999997E+02  0.45594000000E+02  0.51100000000E-03 0.  1.
         11   -1    0    0    0    0 -0.00000000000E+00 -0.00000000000E+00 -0.45593999997E+02  0.45594000000E+02  0.51100000000E-03 0. -1.
    9900012    2    1    2    0    0 -0.25299795029E+02 -0.22563497445E+01  0.31748934172E+02  0.50528861252E+02  0.30000004262E+02 0.  0.
         12    1    1    2    0    0  0.25299795029E+02  0.22563497445E+01 -0.31748934172E+02  0.40659138748E+02  0.00000000000E+00 0. -1.
         11    1    3    3    0    0  0.52655954849E+01  0.11567166559E+01  0.12106860287E+02  0.13252945163E+02  0.51100000000E-03 0. -1.
        -11    1    3    3    0    0 -0.22856500593E+02 -0.34657374814E+01  0.10713012020E+02  0.25479395253E+02  0.51100000000E-03 0.  1.
         12    1    3    3    0    0 -0.77088899207E+01  0.52671081091E-01  0.89290618650E+01  0.11796520836E+02  0.00000000000E+00 0. -1.
</event>
<event>
 7    1  0.5764931E-013  0.5052887E+02  0.7816164E-02  0.1300439E+00
        -11   -1    0    0    0    0  0.00000000000E+00  0.00000000000E+00  0.45593999997E+02  0.45594000000E+02  0.51100000000E-03 0.  1.
         11   -1    0    0    0    0 -0.00000000000E+00 -0.00000000000E+00 -0.45593999997E+02  0.45594000000E+02  0.51100000000E-03 0. -1.
    9900012    2    1    2    0    0 -0.34829843811E+01  0.20373964863E+02  0.35013361714E+02  0.50528866672E+02  0.30000020738E+02 0.  0.
         12    1    1    2    0    0  0.34829843811E+01 -0.20373964863E+02 -0.35013361714E+02  0.40659133328E+02  0.00000000000E+00 0. -1.
         11    1    3    3    0    0 -0.23124378998E+01 -0.39316461646E+01 -0.17967305085E+01  0.49023924145E+01  0.51100000000E-03 0. -1.
        -11    1    3    3    0    0 -0.48797957484E+00  0.13295826652E+02  0.10024998994E+02  0.16658863572E+02  0.51100000000E-03 0.  1.
         12    1    3    3    0    0 -0.68256690649E+00  0.11009784375E+02  0.26785093229E+02  0.28967610686E+02  0.00000000000E+00 0. -1.
</event>
<event>
 7    1  0.5764931E-013  0.5052887E+02  0.7816164E-02  0.1300439E+00
        -11   -1    0    0    0    0  0.00000000000E+00  0.00000000000E+00  0.45593999997E+02  0.45594000000E+02  0.51100000000E-03 0.  1.
         11   -1    0    0    0    0 -0.00000000000E+00 -0.00000000000E+00 -0.45593999997E+02  0.45594000000E+02  0.51100000000E-03 0. -1.
    9900012    2    1    2    0    0  0.27296695677E+02 -0.27675040733E+02  0.11922567042E+02  0.50528867209E+02  0.30000022367E+02 0.  0.
         12    1    1    2    0    0 -0.27296695677E+02  0.27675040733E+02 -0.11922567042E+02  0.40659132791E+02  0.00000000000E+00 0. -1.
         11    1    3    3    0    0  0.14083095846E+01  0.29920652551E+01  0.12057452659E+01  0.35198881067E+01  0.51100000000E-03 0. -1.
        -11    1    3    3    0    0  0.62079018469E+01 -0.16636872951E+02 -0.46650126592E+01  0.18359900062E+02  0.51100000000E-03 0.  1.
        -12    1    3    3    0    0  0.19680484246E+02 -0.14030233038E+02  0.15381834435E+02  0.28649079040E+02  0.00000000000E+00 0.  1.
</event>
<event>
 7    1  0.5764931E-013  0.5052886E+02  0.7816164E-02  0.1300439E+00
        -11   -1    0    0    0    0  0.00000000000E+00  0.00000000000E+00  0.45593999997E+02  0.45594000000E+02  0.51100000000E-03 0.  1.
         11   -1    0    0    0    0 -0.00000000000E+00 -0.00000000000E+00 -0.45593999997E+02  0.45594000000E+02  0.51100000000E-03 0. -1.
    9900012    2    1    2    0    0 -0.25626049912E+02 -0.25491241641E+02  0.18619022917E+02  0.50528857746E+02  0.29999993603E+02 0.  0.
         12    1    1    2    0    0  0.25626049912E+02  0.25491241641E+02 -0.18619022917E+02  0.40659142254E+02  0.00000000000E+00 0. -1.
         11    1    3    3    0    0 -0.46049198908E+01  0.43276231823E+01 -0.58760711307E+00  0.63465653695E+01  0.51100000000E-03 0. -1.
        -11    1    3    3    0    0 -0.20876464136E+02 -0.28659478457E+02  0.12841310630E+02  0.37710631381E+02  0.51100000000E-03 0.  1.
        -12    1    3    3    0    0 -0.14466588546E+00 -0.11593863663E+01  0.63653194001E+01  0.64716609947E+01  0.00000000000E+00 0.  1.
</event>
<event>
 7    1  0.5764931E-013  0.5052887E+02  0.7816164E-02  0.1300439E+00
        -11   -1    0    0    0    0  0.00000000000E+00  0.00000000000E+00  0.45593999997E+02  0.45594000000E+02  0.51100000000E-03 0.  1.
         11   -1    0    0    0    0 -0.00000000000E+00 -0.00000000000E+00 -0.45593999997E+02  0.45594000000E+02  0.51100000000E-03 0. -1.
    9900012    2    1    2    0    0 -0.21663856952E+02 -0.31303838669E+02  0.14279783744E+02  0.50528865267E+02  0.30000016465E+02 0.  0.
         12    1    1    2    0    0  0.21663856952E+02  0.31303838669E+02 -0.14279783744E+02  0.40659134733E+02  0.00000000000E+00 0. -1.
         11    1    3    3    0    0 -0.18696381962E+01 -0.16197606938E+02 -0.59298558087E+01  0.17349962757E+02  0.51100000000E-03 0. -1.
        -11    1    3    3    0    0 -0.60249225050E+01 -0.97236024653E+01  0.74587922066E+01  0.13655830899E+02  0.51100000000E-03 0.  1.
         12    1    3    3    0    0 -0.13769296251E+02 -0.53826292658E+01  0.12750847346E+02  0.19523071610E+02  0.00000000000E+00 0. -1.
</event>
<event>
 7    1  0.5764931E-013  0.5052886E+02  0.7816164E-02  0.1300439E+00
        -11   -1    0    0    0    0  0.00000000000E+00  0.00000000000E+00  0.45593999997E+02  0.45594000000E+02  0.51100000000E-03 0.  1.
         11   -1    0    0    0    0 -0.00000000000E+00 -0.00000000000E+00 -0.45593999997E+02  0.45594000000E+02  0.51100000000E-03 0. -1.
    9900012    2    1    2    0    0 -0.36329048570E+02  0.12398986224E+02  0.13402645252E+02  0.50528861677E+02  0.30000005554E+02 0.  0.
         12    1    1    2    0    0  0.36329048570E+02 -0.12398986224E+02 -0.13402645252E+02  0.40659138323E+02  0.00000000000E+00 0. -1.
         11    1    3    3    0    0 -0.93019716848E+01 -0.13167121569E+01  0.13832024908E+02  0.16720805048E+02  0.51100000000E-03 0. -1.
        -11    1    3    3    0    0 -0.22896334665E+02  0.44757885689E+01  0.19495850489E+01  0.23411016777E+02  0.51100000000E-03 0.  1.
         12    1    3    3    0    0 -0.41307422198E+01  0.92399098124E+01 -0.23789647043E+01  0.10397039852E+02  0.00000000000E+00 0. -1.
</event>
<event>
 7    1  0.5764931E-013  0.5052886E+02  0.7816164E-02  0.1300439E+00
        -11   -1    0    0    0    0  0.00000000000E+00  0.00000000000E+00  0.45593999997E+02  0.45594000000E+02  0.51100000000E-03 0.  1.
         11   -1    0    0    0    0 -0.00000000000E+00 -0.00000000000E+00 -0.45593999997E+02  0.45594000000E+02  0.51100000000E-03 0. -1.
    9900012    2    1    2    0    0 -0.22145471600E+02 -0.21079432119E+02  0.26803005028E+02  0.50528862658E+02  0.30000008536E+02 0.  0.
         12    1    1    2    0    0  0.22145471600E+02  0.21079432119E+02 -0.26803005028E+02  0.40659137342E+02  0.00000000000E+00 0. -1.
         11    1    3    3    0    0 -0.78221110913E+01 -0.18499018153E+02  0.67321808948E+01  0.21183044031E+02  0.51100000000E-03 0. -1.
        -11    1    3    3    0    0  0.21211404618E+01  0.22248952060E+00  0.91783047913E+01  0.94228455123E+01  0.51100000000E-03 0.  1.
        -12    1    3    3    0    0 -0.16444500971E+02 -0.28029034861E+01  0.10892519342E+02  0.19922973115E+02  0.00000000000E+00 0.  1.
</event>
<event>
 7    1  0.5764931E-013  0.5052886E+02  0.7816164E-02  0.1300439E+00
        -11   -1    0    0    0    0  0.00000000000E+00  0.00000000000E+00  0.45593999997E+02  0.45594000000E+02  0.51100000000E-03 0.  1.
         11   -1    0    0    0    0 -0.00000000000E+00 -0.00000000000E+00 -0.45593999997E+02  0.45594000000E+02  0.51100000000E-03 0. -1.
    9900012    2    1    2    0    0 -0.14233770386E+02 -0.19673373313E+02  0.32611714416E+02  0.50528858912E+02  0.29999997147E+02 0.  0.
         12    1    1    2    0    0  0.14233770386E+02  0.19673373313E+02 -0.32611714416E+02  0.40659141088E+02  0.00000000000E+00 0. -1.
         11    1    3    3    0    0 -0.94720044976E+00 -0.12582264715E+02  0.23095985528E+00  0.12619980855E+02  0.51100000000E-03 0. -1.
        -11    1    3    3    0    0 -0.11301769438E+02 -0.67242547046E+01  0.33215886121E+02  0.35724510981E+02  0.51100000000E-03 0.  1.
         12    1    3    3    0    0 -0.19848004981E+01 -0.36685389375E+00 -0.83513156108E+00  0.21843670756E+01  0.00000000000E+00 0. -1.
</event>
<event>
 7    1  0.5764931E-013  0.5052885E+02  0.7816164E-02  0.1300439E+00
        -11   -1    0    0    0    0  0.00000000000E+00  0.00000000000E+00  0.45593999997E+02  0.45594000000E+02  0.51100000000E-03 0.  1.
         11   -1    0    0    0    0 -0.00000000000E+00 -0.00000000000E+00 -0.45593999997E+02  0.45594000000E+02  0.51100000000E-03 0. -1.
    9900012    2    1    2    0    0 -0.35622430961E+01  0.36452294975E+02  0.17655221678E+02  0.50528852968E+02  0.29999979083E+02 0.  0.
         12    1    1    2    0    0  0.35622430961E+01 -0.36452294975E+02 -0.17655221678E+02  0.40659147032E+02  0.00000000000E+00 0. -1.
         11    1    3    3    0    0 -0.11613717737E+01 -0.41263367062E+01  0.39311957942E+01  0.58163338662E+01  0.51100000000E-03 0. -1.
        -11    1    3    3    0    0  0.17675236325E+01  0.23877980663E+02  0.23000858153E+01  0.24053533947E+02  0.51100000000E-03 0.  1.
         12    1    3    3    0    0 -0.41683949549E+01  0.16700651019E+02  0.11423940069E+02  0.20658985155E+02  0.00000000000E+00 0. -1.
</event>
<event>
 7    1  0.5764931E-013  0.5052886E+02  0.7816164E-02  0.1300439E+00
        -11   -1    0    0    0    0  0.00000000000E+00  0.00000000000E+00  0.45593999997E+02  0.45594000000E+02  0.51100000000E-03 0. -1.
         11   -1    0    0    0    0 -0.00000000000E+00 -0.00000000000E+00 -0.45593999997E+02  0.45594000000E+02  0.51100000000E-03 0.  1.
    9900012    2    1    2    0    0  0.16239488284E+02 -0.34047019719E+02 -0.15173820420E+02  0.50528863786E+02  0.30000011965E+02 0.  0.
         12    1    1    2    0    0 -0.16239488284E+02  0.34047019719E+02  0.15173820420E+02  0.40659136214E+02  0.00000000000E+00 0. -1.
         11    1    3    3    0    0  0.19782707561E+01 -0.32014510276E+01  0.59764664349E+01  0.70626478869E+01  0.51100000000E-03 0. -1.
        -11    1    3    3    0    0  0.87642600441E+01 -0.30792716124E+02 -0.20285878098E+02  0.37901457371E+02  0.51100000000E-03 0.  1.
        -12    1    3    3    0    0  0.54969574842E+01 -0.52852567952E-01 -0.86440875733E+00  0.55647585281E+01  0.00000000000E+00 0.  1.
</event>
<event>
 7    1  0.5764931E-013  0.5052886E+02  0.7816164E-02  0.1300439E+00
        -11   -1    0    0    0    0  0.00000000000E+00  0.00000000000E+00  0.45593999997E+02  0.45594000000E+02  0.51100000000E-03 0.  1.
         11   -1    0    0    0    0 -0.00000000000E+00 -0.00000000000E+00 -0.45593999997E+02  0.45594000000E+02  0.51100000000E-03 0. -1.
    9900012    2    1    2    0    0 -0.12668748930E+02 -0.19763318091E+02  0.33197585691E+02  0.50528860349E+02  0.30000001517E+02 0.  0.
         12    1    1    2    0    0  0.12668748930E+02  0.19763318091E+02 -0.33197585691E+02  0.40659139651E+02  0.00000000000E+00 0. -1.
         11    1    3    3    0    0 -0.18761011616E+02 -0.55348943206E+01  0.22621273280E+02  0.29905394448E+02  0.51100000000E-03 0. -1.
        -11    1    3    3    0    0 -0.20889472799E+01 -0.37492863849E+01  0.15913685170E+01  0.45774778156E+01  0.51100000000E-03 0.  1.
         12    1    3    3    0    0  0.81812099667E+01 -0.10479137386E+02  0.89849438944E+01  0.16045988086E+02  0.00000000000E+00 0. -1.
</event>
<event>
 7    1  0.5764931E-013  0.5052887E+02  0.7816164E-02  0.1300439E+00
        -11   -1    0    0    0    0  0.00000000000E+00  0.00000000000E+00  0.45593999997E+02  0.45594000000E+02  0.51100000000E-03 0. -1.
         11   -1    0    0    0    0 -0.00000000000E+00 -0.00000000000E+00 -0.45593999997E+02  0.45594000000E+02  0.51100000000E-03 0.  1.
    9900012    2    1    2    0    0  0.21190545267E+02 -0.26457978408E+02 -0.22452197647E+02  0.50528868069E+02  0.30000024983E+02 0.  0.
         12    1    1    2    0    0 -0.21190545267E+02  0.26457978408E+02  0.22452197647E+02  0.40659131931E+02  0.00000000000E+00 0. -1.
         11    1    3    3    0    0  0.34484689851E+01  0.10182173296E+01  0.50288196899E+01  0.61820492238E+01  0.51100000000E-03 0. -1.
        -11    1    3    3    0    0  0.18403673103E+02 -0.27617491956E+02 -0.24398958790E+02  0.41191385458E+02  0.51100000000E-03 0.  1.
        -12    1    3    3    0    0 -0.66159682152E+00  0.14129621813E+00 -0.30820585471E+01  0.31554333875E+01  0.00000000000E+00 0.  1.
</event>
<event>
 7    1  0.5764931E-013  0.5052886E+02  0.7816164E-02  0.1300439E+00
        -11   -1    0    0    0    0  0.00000000000E+00  0.00000000000E+00  0.45593999997E+02  0.45594000000E+02  0.51100000000E-03 0. -1.
         11   -1    0    0    0    0 -0.00000000000E+00 -0.00000000000E+00 -0.45593999997E+02  0.45594000000E+02  0.51100000000E-03 0.  1.
    9900012    2    1    2    0    0 -0.35051582981E+02 -0.14037007177E+02 -0.15083589272E+02  0.50528859511E+02  0.29999998969E+02 0.  0.
         12    1    1    2    0    0  0.35051582981E+02  0.14037007177E+02  0.15083589272E+02  0.40659140489E+02  0.00000000000E+00 0. -1.
         11    1    3    3    0    0 -0.90831014048E+01  0.21026014856E+01 -0.90903697925E+01  0.13021462566E+02  0.51100000000E-03 0.  1.
        -11    1    3    3    0    0 -0.24727454732E+02 -0.14287306864E+02  0.25558184918E+01  0.28672397237E+02  0.51100000000E-03 0. -1.
        -12    1    3    3    0    0 -0.12410268450E+01 -0.18523017994E+01 -0.85490379715E+01  0.88349997070E+01  0.00000000000E+00 0.  1.
</event>
<event>
 7    1  0.5764931E-013  0.5052886E+02  0.7816164E-02  0.1300439E+00
        -11   -1    0    0    0    0  0.00000000000E+00  0.00000000000E+00  0.45593999997E+02  0.45594000000E+02  0.51100000000E-03 0.  1.
         11   -1    0    0    0    0 -0.00000000000E+00 -0.00000000000E+00 -0.45593999997E+02  0.45594000000E+02  0.51100000000E-03 0. -1.
    9900012    2    1    2    0    0 -0.29816132990E+02 -0.58823494830E+01  0.27010398405E+02  0.50528862725E+02  0.30000008739E+02 0.  0.
         12    1    1    2    0    0  0.29816132990E+02  0.58823494830E+01 -0.27010398405E+02  0.40659137275E+02  0.00000000000E+00 0. -1.
         11    1    3    3    0    0 -0.25181715248E+01  0.51325923800E+01 -0.18711733222E+01  0.60154785538E+01  0.51100000000E-03 0. -1.
        -11    1    3    3    0    0 -0.29626446737E+02 -0.95810011811E+01  0.26538365118E+02  0.40912183434E+02  0.51100000000E-03 0.  1.
         12    1    3    3    0    0  0.23284852716E+01 -0.14339406819E+01  0.23432066091E+01  0.36012007376E+01  0.00000000000E+00 0. -1.
</event>
<event>
 7    1  0.5764931E-013  0.5052886E+02  0.7816164E-02  0.1300439E+00
        -11   -1    0    0    0    0  0.00000000000E+00  0.00000000000E+00  0.45593999997E+02  0.45594000000E+02  0.51100000000E-03 0. -1.
         11   -1    0    0    0    0 -0.00000000000E+00 -0.00000000000E+00 -0.45593999997E+02  0.45594000000E+02  0.51100000000E-03 0.  1.
    9900012    2    1    2    0    0 -0.27453853470E+02 -0.29825706240E+02 -0.31430361764E+01  0.50528862043E+02  0.30000006664E+02 0.  0.
         12    1    1    2    0    0  0.27453853470E+02  0.29825706240E+02  0.31430361764E+01  0.40659137957E+02  0.00000000000E+00 0. -1.
         11    1    3    3    0    0 -0.18809314814E+02 -0.57117058364E+01  0.77652693830E+00  0.19672745148E+02  0.51100000000E-03 0.  1.
        -11    1    3    3    0    0  0.33528197995E+01 -0.95620966116E+01  0.33074214070E+01  0.10658992863E+02  0.51100000000E-03 0. -1.
         12    1    3    3    0    0 -0.11997358455E+02 -0.14551903792E+02 -0.72269845218E+01  0.20197124032E+02  0.00000000000E+00 0. -1.
</event>
<event>
 7    1  0.5764931E-013  0.5052886E+02  0.7816164E-02  0.1300439E+00
        -11   -1    0    0    0    0  0.00000000000E+00  0.00000000000E+00  0.45593999997E+02  0.45594000000E+02  0.51100000000E-03 0.  1.
         11   -1    0    0    0    0 -0.00000000000E+00 -0.00000000000E+00 -0.45593999997E+02  0.45594000000E+02  0.51100000000E-03 0. -1.
    9900012    2    1    2    0    0 -0.13197803366E+02 -0.15770042870E+01  0.38425208753E+02  0.50528860511E+02  0.30000002010E+02 0.  0.
         12    1    1    2    0    0  0.13197803366E+02  0.15770042870E+01 -0.38425208753E+02  0.40659139489E+02  0.00000000000E+00 0. -1.
         11    1    3    3    0    0 -0.85059681018E+01 -0.18114828624E+01  0.90977056337E+01  0.12585754311E+02  0.51100000000E-03 0. -1.
        -11    1    3    3    0    0  0.33092822993E+01  0.89105832204E+01  0.46352153906E+01  0.10575209910E+02  0.51100000000E-03 0.  1.
        -12    1    3    3    0    0 -0.80011175637E+01 -0.86761046450E+01  0.24692287729E+02  0.27367896291E+02  0.00000000000E+00 0.  1.
</event>
<event>
 7    1  0.5764931E-013  0.5052887E+02  0.7816164E-02  0.1300439E+00
        -11   -1    0    0    0    0  0.00000000000E+00  0.00000000000E+00  0.45593999997E+02  0.45594000000E+02  0.51100000000E-03 0.  1.
         11   -1    0    0    0    0 -0.00000000000E+00 -0.00000000000E+00 -0.45593999997E+02  0.45594000000E+02  0.51100000000E-03 0. -1.
    9900012    2    1    2    0    0  0.98896482281E+01 -0.16837094921E+01  0.39402088657E+02  0.50528872977E+02  0.30000039902E+02 0.  0.
         12    1    1    2    0    0 -0.98896482281E+01  0.16837094921E+01 -0.39402088657E+02  0.40659127023E+02  0.00000000000E+00 0. -1.
         11    1    3    3    0    0 -0.27228572583E+01  0.26254582010E+01 -0.28901841863E+01  0.47602675666E+01  0.51100000000E-03 0. -1.
        -11    1    3    3    0    0  0.11650757036E+02 -0.35370821065E+01  0.19811035221E+02  0.23253563299E+02  0.51100000000E-03 0.  1.
         12    1    3    3    0    0  0.96174845005E+00 -0.77208558660E+00  0.22481237622E+02  0.22515042111E+02  0.00000000000E+00 0. -1.
</event>
<event>
 7    1  0.5764931E-013  0.5052888E+02  0.7816164E-02  0.1300439E+00
        -11   -1    0    0    0    0  0.00000000000E+00  0.00000000000E+00  0.45593999997E+02  0.45594000000E+02  0.51100000000E-03 0.  1.
         11   -1    0    0    0    0 -0.00000000000E+00 -0.00000000000E+00 -0.45593999997E+02  0.45594000000E+02  0.51100000000E-03 0. -1.
    9900012    2    1    2    0    0 -0.13432092512E+02  0.13415941166E+01  0.38352872293E+02  0.50528882976E+02  0.30000070293E+02 0.  0.
         12    1    1    2    0    0  0.13432092512E+02 -0.13415941166E+01 -0.38352872293E+02  0.40659117024E+02  0.00000000000E+00 0. -1.
         11    1    3    3    0    0 -0.32338578331E+01 -0.35042507315E+01  0.20919837651E+01  0.52071111001E+01  0.51100000000E-03 0. -1.
        -11    1    3    3    0    0 -0.11863279185E+02  0.13588945456E+02  0.21284124131E+02  0.27900013834E+02  0.51100000000E-03 0.  1.
        -12    1    3    3    0    0  0.16650445063E+01 -0.87431006081E+01  0.14976764398E+02  0.17421758042E+02  0.00000000000E+00 0.  1.
</event>
<event>
 7    1  0.5764931E-013  0.5052886E+02  0.7816164E-02  0.1300439E+00
        -11   -1    0    0    0    0  0.00000000000E+00  0.00000000000E+00  0.45593999997E+02  0.45594000000E+02  0.51100000000E-03 0.  1.
         11   -1    0    0    0    0 -0.00000000000E+00 -0.00000000000E+00 -0.45593999997E+02  0.45594000000E+02  0.51100000000E-03 0. -1.
    9900012    2    1    2    0    0 -0.93459030229E+01  0.15384101100E+02  0.36457497272E+02  0.50528861085E+02  0.30000003754E+02 0.  0.
         12    1    1    2    0    0  0.93459030229E+01 -0.15384101100E+02 -0.36457497272E+02  0.40659138915E+02  0.00000000000E+00 0. -1.
         11    1    3    3    0    0 -0.52172014045E+00  0.56678793972E+01  0.32102305734E+02  0.32602991925E+02  0.51100000000E-03 0. -1.
        -11    1    3    3    0    0 -0.92730968749E+01  0.10966346362E+02  0.62082873756E+01  0.15645891173E+02  0.51100000000E-03 0.  1.
         12    1    3    3    0    0  0.44891399240E+00 -0.12501246597E+01 -0.18530958377E+01  0.22799779870E+01  0.00000000000E+00 0. -1.
</event>
<event>
 7    1  0.5764931E-013  0.5052888E+02  0.7816164E-02  0.1300439E+00
        -11   -1    0    0    0    0  0.00000000000E+00  0.00000000000E+00  0.45593999997E+02  0.45594000000E+02  0.51100000000E-03 0.  1.
         11   -1    0    0    0    0 -0.00000000000E+00 -0.00000000000E+00 -0.45593999997E+02  0.45594000000E+02  0.51100000000E-03 0. -1.
    9900012    2    1    2    0    0  0.12646444277E+02 -0.45255617514E+01  0.38376436004E+02  0.50528879222E+02  0.30000058884E+02 0.  0.
         12    1    1    2    0    0 -0.12646444277E+02  0.45255617514E+01 -0.38376436004E+02  0.40659120778E+02  0.00000000000E+00 0. -1.
         11    1    3    3    0    0  0.82328980205E+01  0.16750781287E+01  0.25252231671E+01  0.87728700468E+01  0.51100000000E-03 0. -1.
        -11    1    3    3    0    0  0.61878713140E+00 -0.12588286565E+02  0.29120026525E+02  0.31730486936E+02  0.51100000000E-03 0.  1.
        -12    1    3    3    0    0  0.37947591246E+01  0.63876466853E+01  0.67311863127E+01  0.10025522239E+02  0.00000000000E+00 0.  1.
</event>
<event>
 7    1  0.5764931E-013  0.5052885E+02  0.7816164E-02  0.1300439E+00
        -11   -1    0    0    0    0  0.00000000000E+00  0.00000000000E+00  0.45593999997E+02  0.45594000000E+02  0.51100000000E-03 0.  1.
         11   -1    0    0    0    0 -0.00000000000E+00 -0.00000000000E+00 -0.45593999997E+02  0.45594000000E+02  0.51100000000E-03 0. -1.
    9900012    2    1    2    0    0 -0.26397746992E+02  0.15421147252E+02  0.26805104720E+02  0.50528850133E+02  0.29999970465E+02 0.  0.
         12    1    1    2    0    0  0.26397746992E+02 -0.15421147252E+02 -0.26805104720E+02  0.40659149867E+02  0.00000000000E+00 0. -1.
         11    1    3    3    0    0 -0.31430366055E+01  0.90163546324E+01  0.12002299863E+02  0.15337161805E+02  0.51100000000E-03 0. -1.
        -11    1    3    3    0    0 -0.18961593083E+02 -0.90166300988E+00  0.10179426847E+01  0.19010292370E+02  0.51100000000E-03 0.  1.
        -12    1    3    3    0    0 -0.42931173035E+01  0.73064556295E+01  0.13784862173E+02  0.16181395958E+02  0.00000000000E+00 0.  1.
</event>
