<event>
 7    1  0.1205909E-011  0.5930193E+02  0.7816164E-02  0.1266605E+00
        -11   -1    0    0    0    0  0.00000000000E+00  0.00000000000E+00  0.45593999997E+02  0.45594000000E+02  0.51100000000E-03 0.  1.
         11   -1    0    0    0    0 -0.00000000000E+00 -0.00000000000E+00 -0.45593999997E+02  0.45594000000E+02  0.51100000000E-03 0. -1.
    9900012    2    1    2    0    0  0.99934775390E+01  0.14829235091E+01  0.30243226365E+02  0.59301930998E+02  0.49999976237E+02 0.  0.
         12    1    1    2    0    0 -0.99934775390E+01 -0.14829235091E+01 -0.30243226365E+02  0.31886069002E+02  0.00000000000E+00 0. -1.
         11    1    3    3    0    0  0.62543727045E+01 -0.15088674423E+00 -0.30401715930E+01  0.69557593627E+01  0.51100000000E-03 0. -1.
        -11    1    3    3    0    0  0.14824329178E+02 -0.14499743615E+02  0.15365661640E+02  0.25809046058E+02  0.51100000000E-03 0.  1.
         12    1    3    3    0    0 -0.11085224344E+02  0.16133553869E+02  0.17917736317E+02  0.26537125578E+02  0.00000000000E+00 0. -1.
</event>
<event>
 7    1  0.1205909E-011  0.5930196E+02  0.7816164E-02  0.1266605E+00
        -11   -1    0    0    0    0  0.00000000000E+00  0.00000000000E+00  0.45593999997E+02  0.45594000000E+02  0.51100000000E-03 0.  1.
         11   -1    0    0    0    0 -0.00000000000E+00 -0.00000000000E+00 -0.45593999997E+02  0.45594000000E+02  0.51100000000E-03 0. -1.
    9900012    2    1    2    0    0 -0.25842233267E+02  0.18653116584E+02  0.97955411838E+00  0.59301963796E+02  0.50000036052E+02 0.  0.
         12    1    1    2    0    0  0.25842233267E+02 -0.18653116584E+02 -0.97955411838E+00  0.31886036204E+02  0.00000000000E+00 0. -1.
         11    1    3    3    0    0 -0.11398703946E+02  0.89739965538E+01  0.22889889210E+02  0.27100001736E+02  0.51100000000E-03 0. -1.
        -11    1    3    3    0    0  0.18287730840E+01  0.16860210197E+01  0.12547991732E+01  0.27859646620E+01  0.51100000000E-03 0.  1.
         12    1    3    3    0    0 -0.16272302406E+02  0.79930990110E+01 -0.23165134265E+02  0.29415997398E+02  0.00000000000E+00 0. -1.
</event>
<event>
 7    1  0.1205909E-011  0.5930195E+02  0.7816164E-02  0.1266605E+00
        -11   -1    0    0    0    0  0.00000000000E+00  0.00000000000E+00  0.45593999997E+02  0.45594000000E+02  0.51100000000E-03 0. -1.
         11   -1    0    0    0    0 -0.00000000000E+00 -0.00000000000E+00 -0.45593999997E+02  0.45594000000E+02  0.51100000000E-03 0.  1.
    9900012    2    1    2    0    0 -0.21759492649E+02  0.18506762513E+02 -0.14168420456E+02  0.59301954192E+02  0.50000018538E+02 0.  0.
         12    1    1    2    0    0  0.21759492649E+02 -0.18506762513E+02  0.14168420456E+02  0.31886045808E+02  0.00000000000E+00 0. -1.
         11    1    3    3    0    0 -0.14239598563E+02  0.18249263398E+02  0.14002513335E+02  0.27053135895E+02  0.51100000000E-03 0. -1.
        -11    1    3    3    0    0 -0.71601227631E+01 -0.28951965819E+01 -0.58120499793E+01  0.96658908774E+01  0.51100000000E-03 0.  1.
        -12    1    3    3    0    0 -0.35977132244E+00  0.31526956971E+01 -0.22358883812E+02  0.22582927420E+02  0.00000000000E+00 0.  1.
</event>
<event>
 7    1  0.1205909E-011  0.5930195E+02  0.7816164E-02  0.1266605E+00
        -11   -1    0    0    0    0  0.00000000000E+00  0.00000000000E+00  0.45593999997E+02  0.45594000000E+02  0.51100000000E-03 0.  1.
         11   -1    0    0    0    0 -0.00000000000E+00 -0.00000000000E+00 -0.45593999997E+02  0.45594000000E+02  0.51100000000E-03 0. -1.
    9900012    2    1    2    0    0  0.77456287733E+01 -0.25100284578E+02  0.18074879868E+02  0.59301947669E+02  0.50000006642E+02 0.  0.
         12    1    1    2    0    0 -0.77456287733E+01  0.25100284578E+02 -0.18074879868E+02  0.31886052331E+02  0.00000000000E+00 0. -1.
         11    1    3    3    0    0 -0.54717597406E+00 -0.52094650692E+01 -0.67437444319E+01  0.85390876022E+01  0.51100000000E-03 0. -1.
        -11    1    3    3    0    0  0.23961838732E+01  0.44434174035E+00 -0.98462584942E+01  0.10143369427E+02  0.51100000000E-03 0.  1.
        -12    1    3    3    0    0  0.58966208742E+01 -0.20335161249E+02  0.34664882794E+02  0.40619490640E+02  0.00000000000E+00 0.  1.
</event>
<event>
 7    1  0.1679556E-011  0.5930195E+02  0.7816164E-02  0.1266605E+00
        -11   -1    0    0    0    0  0.00000000000E+00  0.00000000000E+00  0.45593999997E+02  0.45594000000E+02  0.51100000000E-03 0. -1.
         11   -1    0    0    0    0 -0.00000000000E+00 -0.00000000000E+00 -0.45593999997E+02  0.45594000000E+02  0.51100000000E-03 0.  1.
    9900012    2    1    2    0    0  0.28070211921E+01 -0.24506641507E+02 -0.20205571742E+02  0.59301953281E+02  0.50000016875E+02 0.  0.
         12    1    1    2    0    0 -0.28070211921E+01  0.24506641507E+02  0.20205571742E+02  0.31886046719E+02  0.00000000000E+00 0. -1.
         11    1    3    3    0    0  0.47400137342E+01 -0.49414952311E+01  0.90148105863E+01  0.11320464455E+02  0.51100000000E-03 0. -1.
        -11    1    3    3    0    0  0.11196436418E+02 -0.18179168278E+02 -0.27273261391E+02  0.34636297939E+02  0.51100000000E-03 0.  1.
         12    1    3    3    0    0 -0.13129428960E+02 -0.13859779981E+01 -0.19471209374E+01  0.13345190886E+02  0.00000000000E+00 0. -1.
</event>
<event>
 7    1  0.1205909E-011  0.5930188E+02  0.7816164E-02  0.1266605E+00
        -11   -1    0    0    0    0  0.00000000000E+00  0.00000000000E+00  0.45593999997E+02  0.45594000000E+02  0.51100000000E-03 0.  1.
         11   -1    0    0    0    0 -0.00000000000E+00 -0.00000000000E+00 -0.45593999997E+02  0.45594000000E+02  0.51100000000E-03 0. -1.
    9900012    2    1    2    0    0 -0.12497140051E+02 -0.11785017721E+02  0.26863724487E+02  0.59301876914E+02  0.49999877600E+02 0.  0.
         12    1    1    2    0    0  0.12497140051E+02  0.11785017721E+02 -0.26863724487E+02  0.31886123086E+02  0.00000000000E+00 0. -1.
         11    1    3    3    0    0 -0.93768568220E+01  0.75429714572E+01  0.97289338387E+01  0.15474948018E+02  0.51100000000E-03 0. -1.
        -11    1    3    3    0    0 -0.88211286958E+01  0.79931986395E+01  0.19775707267E+01  0.12067075959E+02  0.51100000000E-03 0.  1.
        -12    1    3    3    0    0  0.57008454668E+01 -0.27321187818E+02  0.15157219922E+02  0.31759852937E+02  0.00000000000E+00 0.  1.
</event>
<event>
 7    1  0.1205909E-011  0.5930193E+02  0.7816164E-02  0.1266605E+00
        -11   -1    0    0    0    0  0.00000000000E+00  0.00000000000E+00  0.45593999997E+02  0.45594000000E+02  0.51100000000E-03 0.  1.
         11   -1    0    0    0    0 -0.00000000000E+00 -0.00000000000E+00 -0.45593999997E+02  0.45594000000E+02  0.51100000000E-03 0. -1.
    9900012    2    1    2    0    0 -0.99699886932E+01  0.93764865806E+00  0.30272788629E+02  0.59301927948E+02  0.49999970674E+02 0.  0.
         12    1    1    2    0    0  0.99699886932E+01 -0.93764865806E+00 -0.30272788629E+02  0.31886072052E+02  0.00000000000E+00 0. -1.
         11    1    3    3    0    0  0.93440466593E+01  0.76833812491E+01  0.11118833288E+02  0.16430885835E+02  0.51100000000E-03 0. -1.
        -11    1    3    3    0    0  0.30210195104E+01 -0.84110336432E+01  0.18406573154E+02  0.20461524414E+02  0.51100000000E-03 0.  1.
         12    1    3    3    0    0 -0.22335054863E+02  0.16653010522E+01  0.74738218750E+00  0.22409517698E+02  0.00000000000E+00 0. -1.
</event>
<event>
 7    1  0.1205909E-011  0.5930194E+02  0.7816164E-02  0.1266605E+00
        -11   -1    0    0    0    0  0.00000000000E+00  0.00000000000E+00  0.45593999997E+02  0.45594000000E+02  0.51100000000E-03 0.  1.
         11   -1    0    0    0    0 -0.00000000000E+00 -0.00000000000E+00 -0.45593999997E+02  0.45594000000E+02  0.51100000000E-03 0. -1.
    9900012    2    1    2    0    0 -0.27632150826E+02  0.11998935265E+02 -0.10450382753E+02  0.59301941817E+02  0.49999995969E+02 0.  0.
         12    1    1    2    0    0  0.27632150826E+02 -0.11998935265E+02  0.10450382753E+02  0.31886058183E+02  0.00000000000E+00 0. -1.
         11    1    3    3    0    0  0.11865723905E+01  0.67531361575E+01  0.20651710598E+00  0.68596976300E+01  0.51100000000E-03 0. -1.
        -11    1    3    3    0    0 -0.76330139874E+01  0.21204770589E+02 -0.12648510699E+02  0.25843568280E+02  0.51100000000E-03 0.  1.
         12    1    3    3    0    0 -0.21185709229E+02 -0.15958971482E+02  0.19916108401E+01  0.26598675907E+02  0.00000000000E+00 0. -1.
</event>
<event>
 7    1  0.1205909E-011  0.5930212E+02  0.7816164E-02  0.1266604E+00
        -11   -1    0    0    0    0  0.00000000000E+00  0.00000000000E+00  0.45593999997E+02  0.45594000000E+02  0.51100000000E-03 0.  1.
         11   -1    0    0    0    0 -0.00000000000E+00 -0.00000000000E+00 -0.45593999997E+02  0.45594000000E+02  0.51100000000E-03 0. -1.
    9900012    2    1    2    0    0  0.26800738103E+02 -0.13038677718E+02  0.11332363054E+02  0.59302123316E+02  0.50000326978E+02 0.  0.
         12    1    1    2    0    0 -0.26800738103E+02  0.13038677718E+02 -0.11332363054E+02  0.31885876684E+02  0.00000000000E+00 0. -1.
         11    1    3    3    0    0  0.29974518921E+02 -0.15113636139E+02  0.52970998333E-01  0.33569280423E+02  0.51100000000E-03 0.  1.
        -11    1    3    3    0    0 -0.13616444370E+00  0.15055744967E+01 -0.70166319240E+01  0.71776332547E+01  0.51100000000E-03 0. -1.
         12    1    3    3    0    0 -0.30376163743E+01  0.56938392462E+00  0.18296023980E+02  0.18555209639E+02  0.00000000000E+00 0. -1.
</event>
<event>
 7    1  0.1205909E-011  0.5930229E+02  0.7816164E-02  0.1266604E+00
        -11   -1    0    0    0    0  0.00000000000E+00  0.00000000000E+00  0.45593999997E+02  0.45594000000E+02  0.51100000000E-03 0.  1.
         11   -1    0    0    0    0 -0.00000000000E+00 -0.00000000000E+00 -0.45593999997E+02  0.45594000000E+02  0.51100000000E-03 0. -1.
    9900012    2    1    2    0    0  0.30152232946E+02 -0.11951700557E+01  0.10301124743E+02  0.59302286051E+02  0.50000623764E+02 0.  0.
         12    1    1    2    0    0 -0.30152232946E+02  0.11951700557E+01 -0.10301124743E+02  0.31885713949E+02  0.00000000000E+00 0. -1.
         11    1    3    3    0    0  0.22850581354E+02  0.44092665091E+01 -0.13873056104E+02  0.27093401139E+02  0.51100000000E-03 0. -1.
        -11    1    3    3    0    0  0.13309899556E+02 -0.51209132666E+00  0.16584517277E+02  0.21271151292E+02  0.51100000000E-03 0.  1.
        -12    1    3    3    0    0 -0.60082479641E+01 -0.50923452381E+01  0.75896635697E+01  0.10937733619E+02  0.00000000000E+00 0.  1.
</event>
<event>
 7    1  0.1205909E-011  0.5930193E+02  0.7816164E-02  0.1266605E+00
        -11   -1    0    0    0    0  0.00000000000E+00  0.00000000000E+00  0.45593999997E+02  0.45594000000E+02  0.51100000000E-03 0.  1.
         11   -1    0    0    0    0 -0.00000000000E+00 -0.00000000000E+00 -0.45593999997E+02  0.45594000000E+02  0.51100000000E-03 0. -1.
    9900012    2    1    2    0    0  0.27570973020E+02 -0.38596735787E+01  0.15545614214E+02  0.59301925380E+02  0.49999965991E+02 0.  0.
         12    1    1    2    0    0 -0.27570973020E+02  0.38596735787E+01 -0.15545614214E+02  0.31886074620E+02  0.00000000000E+00 0. -1.
         11    1    3    3    0    0  0.45309514335E+01  0.22865002836E+00  0.64933155624E+01  0.79211709351E+01  0.51100000000E-03 0. -1.
        -11    1    3    3    0    0  0.29814307687E+02  0.43152185052E+01  0.19878850868E+02  0.36092696847E+02  0.51100000000E-03 0.  1.
         12    1    3    3    0    0 -0.67742861007E+01 -0.84035421123E+01 -0.10826552217E+02  0.15288057598E+02  0.00000000000E+00 0. -1.
</event>
<event>
 7    1  0.1205909E-011  0.5930195E+02  0.7816164E-02  0.1266605E+00
        -11   -1    0    0    0    0  0.00000000000E+00  0.00000000000E+00  0.45593999997E+02  0.45594000000E+02  0.51100000000E-03 0.  1.
         11   -1    0    0    0    0 -0.00000000000E+00 -0.00000000000E+00 -0.45593999997E+02  0.45594000000E+02  0.51100000000E-03 0. -1.
    9900012    2    1    2    0    0 -0.13793886643E+02  0.19500505418E+02  0.21122950157E+02  0.59301952211E+02  0.50000014925E+02 0.  0.
         12    1    1    2    0    0  0.13793886643E+02 -0.19500505418E+02 -0.21122950157E+02  0.31886047789E+02  0.00000000000E+00 0. -1.
         11    1    3    3    0    0 -0.14726158107E+02  0.13656765241E+02  0.86521892418E+01  0.21868409827E+02  0.51100000000E-03 0. -1.
        -11    1    3    3    0    0  0.16377112975E+01  0.24603679974E+01  0.24622816227E+02  0.24799568307E+02  0.51100000000E-03 0.  1.
         12    1    3    3    0    0 -0.70543983405E+00  0.33833721790E+01 -0.12152055312E+02  0.12633974077E+02  0.00000000000E+00 0. -1.
</event>
<event>
 7    1  0.1205909E-011  0.5930233E+02  0.7816164E-02  0.1266603E+00
        -11   -1    0    0    0    0  0.00000000000E+00  0.00000000000E+00  0.45593999997E+02  0.45594000000E+02  0.51100000000E-03 0.  1.
         11   -1    0    0    0    0 -0.00000000000E+00 -0.00000000000E+00 -0.45593999997E+02  0.45594000000E+02  0.51100000000E-03 0. -1.
    9900012    2    1    2    0    0  0.16960660003E+02  0.26098705369E+02 -0.69202099925E+01  0.59302333690E+02  0.50000710645E+02 0.  0.
         12    1    1    2    0    0 -0.16960660003E+02 -0.26098705369E+02  0.69202099925E+01  0.31885666310E+02  0.00000000000E+00 0. -1.
         11    1    3    3    0    0  0.15168178087E+02  0.19759449883E+02 -0.97145744376E+01  0.26737285631E+02  0.51100000000E-03 0.  1.
        -11    1    3    3    0    0  0.99403911578E+01  0.78378984957E+01 -0.10803580609E+02  0.16642156815E+02  0.51100000000E-03 0. -1.
        -12    1    3    3    0    0 -0.81479092409E+01 -0.14986430097E+01  0.13597945055E+02  0.15922891244E+02  0.00000000000E+00 0.  1.
</event>
<event>
 7    1  0.1205909E-011  0.5930194E+02  0.7816164E-02  0.1266605E+00
        -11   -1    0    0    0    0  0.00000000000E+00  0.00000000000E+00  0.45593999997E+02  0.45594000000E+02  0.51100000000E-03 0. -1.
         11   -1    0    0    0    0 -0.00000000000E+00 -0.00000000000E+00 -0.45593999997E+02  0.45594000000E+02  0.51100000000E-03 0.  1.
    9900012    2    1    2    0    0 -0.21260797909E+02 -0.17425819060E+02 -0.16156741704E+02  0.59301937212E+02  0.49999987570E+02 0.  0.
         12    1    1    2    0    0  0.21260797909E+02  0.17425819060E+02  0.16156741704E+02  0.31886062788E+02  0.00000000000E+00 0. -1.
         11    1    3    3    0    0  0.59663155541E+01  0.89679385108E-01  0.43087476384E+00  0.59825259721E+01  0.51100000000E-03 0. -1.
        -11    1    3    3    0    0  0.74146496554E+01 -0.18876930294E+01 -0.13080981004E+02  0.15154289121E+02  0.51100000000E-03 0.  1.
        -12    1    3    3    0    0 -0.34641763118E+02 -0.15627805416E+02 -0.35066354634E+01  0.38165122119E+02  0.00000000000E+00 0.  1.
</event>
<event>
 7    1  0.1205909E-011  0.5930194E+02  0.7816164E-02  0.1266605E+00
        -11   -1    0    0    0    0  0.00000000000E+00  0.00000000000E+00  0.45593999997E+02  0.45594000000E+02  0.51100000000E-03 0.  1.
         11   -1    0    0    0    0 -0.00000000000E+00 -0.00000000000E+00 -0.45593999997E+02  0.45594000000E+02  0.51100000000E-03 0. -1.
    9900012    2    1    2    0    0  0.17295683696E+02  0.15713865614E+02  0.21694569165E+02  0.59301943826E+02  0.49999999633E+02 0.  0.
         12    1    1    2    0    0 -0.17295683696E+02 -0.15713865614E+02 -0.21694569165E+02  0.31886056174E+02  0.00000000000E+00 0. -1.
         11    1    3    3    0    0 -0.11704555247E+01  0.10694374948E+02  0.24254071889E+01  0.11028246549E+02  0.51100000000E-03 0. -1.
        -11    1    3    3    0    0  0.48625006911E+01  0.47828908582E+01  0.30112718484E+02  0.30875488218E+02  0.51100000000E-03 0.  1.
        -12    1    3    3    0    0  0.13603638530E+02  0.23659980778E+00 -0.10843556508E+02  0.17398209059E+02  0.00000000000E+00 0.  1.
</event>
<event>
 7    1  0.1205909E-011  0.5930196E+02  0.7816164E-02  0.1266605E+00
        -11   -1    0    0    0    0  0.00000000000E+00  0.00000000000E+00  0.45593999997E+02  0.45594000000E+02  0.51100000000E-03 0. -1.
         11   -1    0    0    0    0 -0.00000000000E+00 -0.00000000000E+00 -0.45593999997E+02  0.45594000000E+02  0.51100000000E-03 0.  1.
    9900012    2    1    2    0    0  0.87022531016E+01  0.22644687678E+02 -0.20693191532E+02  0.59301964423E+02  0.50000037196E+02 0.  0.
         12    1    1    2    0    0 -0.87022531016E+01 -0.22644687678E+02  0.20693191532E+02  0.31886035577E+02  0.00000000000E+00 0. -1.
         11    1    3    3    0    0  0.13519296302E+01  0.15743943661E+02 -0.30249504358E+01  0.16088809811E+02  0.51100000000E-03 0. -1.
        -11    1    3    3    0    0  0.16378767047E+02  0.18492938903E+02 -0.10137899347E+02  0.26702617899E+02  0.51100000000E-03 0.  1.
         12    1    3    3    0    0 -0.90284435758E+01 -0.11592194886E+02 -0.75303417492E+01  0.16510536713E+02  0.00000000000E+00 0. -1.
</event>
<event>
 7    1  0.1205909E-011  0.5930193E+02  0.7816164E-02  0.1266605E+00
        -11   -1    0    0    0    0  0.00000000000E+00  0.00000000000E+00  0.45593999997E+02  0.45594000000E+02  0.51100000000E-03 0.  1.
         11   -1    0    0    0    0 -0.00000000000E+00 -0.00000000000E+00 -0.45593999997E+02  0.45594000000E+02  0.51100000000E-03 0. -1.
    9900012    2    1    2    0    0  0.14615487575E+02 -0.94376595570E+01  0.26721513681E+02  0.59301934260E+02  0.49999982186E+02 0.  0.
         12    1    1    2    0    0 -0.14615487575E+02  0.94376595570E+01 -0.26721513681E+02  0.31886065740E+02  0.00000000000E+00 0. -1.
         11    1    3    3    0    0  0.93339968278E+00 -0.18471344539E+02 -0.48416201006E+01  0.19118135095E+02  0.51100000000E-03 0.  1.
        -11    1    3    3    0    0 -0.41287960734E+01 -0.11626013606E+01  0.44698755159E+01  0.61950291628E+01  0.51100000000E-03 0. -1.
        -12    1    3    3    0    0  0.17810883966E+02  0.10196286342E+02  0.27093258266E+02  0.33988770002E+02  0.00000000000E+00 0.  1.
</event>
<event>
 7    1  0.1205909E-011  0.5930194E+02  0.7816164E-02  0.1266605E+00
        -11   -1    0    0    0    0  0.00000000000E+00  0.00000000000E+00  0.45593999997E+02  0.45594000000E+02  0.51100000000E-03 0. -1.
         11   -1    0    0    0    0 -0.00000000000E+00 -0.00000000000E+00 -0.45593999997E+02  0.45594000000E+02  0.51100000000E-03 0.  1.
    9900012    2    1    2    0    0 -0.26254411671E+02 -0.16789561689E+02 -0.67481567485E+01  0.59301935122E+02  0.49999983758E+02 0.  0.
         12    1    1    2    0    0  0.26254411671E+02  0.16789561689E+02  0.67481567485E+01  0.31886064878E+02  0.00000000000E+00 0. -1.
         11    1    3    3    0    0  0.67202578025E+01 -0.20382407536E+02 -0.44275108571E+01  0.21913631706E+02  0.51100000000E-03 0. -1.
        -11    1    3    3    0    0 -0.53149719975E+01  0.46098412856E+01 -0.62768628546E+01  0.94286039035E+01  0.51100000000E-03 0.  1.
         12    1    3    3    0    0 -0.27659697476E+02 -0.10169954389E+01  0.39562169632E+01  0.27959699513E+02  0.00000000000E+00 0. -1.
</event>
<event>
 7    1  0.1205909E-011  0.5930198E+02  0.7816164E-02  0.1266605E+00
        -11   -1    0    0    0    0  0.00000000000E+00  0.00000000000E+00  0.45593999997E+02  0.45594000000E+02  0.51100000000E-03 0.  1.
         11   -1    0    0    0    0 -0.00000000000E+00 -0.00000000000E+00 -0.45593999997E+02  0.45594000000E+02  0.51100000000E-03 0. -1.
    9900012    2    1    2    0    0 -0.23943414009E+02 -0.51505304590E+01  0.20418208746E+02  0.59301979759E+02  0.50000065166E+02 0.  0.
         12    1    1    2    0    0  0.23943414009E+02  0.51505304590E+01 -0.20418208746E+02  0.31886020241E+02  0.00000000000E+00 0. -1.
         11    1    3    3    0    0 -0.21823260198E+02 -0.88560071403E+01  0.34063375452E+02  0.41412523415E+02  0.51100000000E-03 0. -1.
        -11    1    3    3    0    0 -0.10476913833E+01  0.20477681808E+01  0.14148822992E+01  0.27005377129E+01  0.51100000000E-03 0.  1.
        -12    1    3    3    0    0 -0.10724624276E+01  0.16577085006E+01 -0.15060049006E+02  0.15188918631E+02  0.00000000000E+00 0.  1.
</event>
<event>
 7    1  0.1205909E-011  0.5930195E+02  0.7816164E-02  0.1266605E+00
        -11   -1    0    0    0    0  0.00000000000E+00  0.00000000000E+00  0.45593999997E+02  0.45594000000E+02  0.51100000000E-03 0.  1.
         11   -1    0    0    0    0 -0.00000000000E+00 -0.00000000000E+00 -0.45593999997E+02  0.45594000000E+02  0.51100000000E-03 0. -1.
    9900012    2    1    2    0    0  0.65597548238E+01  0.12632571031E+02  0.28532581427E+02  0.59301946041E+02  0.50000003672E+02 0.  0.
         12    1    1    2    0    0 -0.65597548238E+01 -0.12632571031E+02 -0.28532581427E+02  0.31886053959E+02  0.00000000000E+00 0. -1.
         11    1    3    3    0    0 -0.40158666980E+01 -0.22306145408E+01  0.15753355345E+02  0.16409479927E+02  0.51100000000E-03 0.  1.
        -11    1    3    3    0    0  0.98388037194E+01 -0.10777510850E+02  0.84959567774E+01  0.16886032115E+02  0.51100000000E-03 0. -1.
         12    1    3    3    0    0  0.73681780239E+00  0.25640696422E+02  0.42832693041E+01  0.26006434000E+02  0.00000000000E+00 0. -1.
</event>
<event>
 7    1  0.1205909E-011  0.5930199E+02  0.7816164E-02  0.1266605E+00
        -11   -1    0    0    0    0  0.00000000000E+00  0.00000000000E+00  0.45593999997E+02  0.45594000000E+02  0.51100000000E-03 0. -1.
         11   -1    0    0    0    0 -0.00000000000E+00 -0.00000000000E+00 -0.45593999997E+02  0.45594000000E+02  0.51100000000E-03 0.  1.
    9900012    2    1    2    0    0 -0.10567929565E+01 -0.19578663053E+02 -0.25145118522E+02  0.59301986706E+02  0.50000077835E+02 0.  0.
         12    1    1    2    0    0  0.10567929565E+01  0.19578663053E+02  0.25145118522E+02  0.31886013294E+02  0.00000000000E+00 0. -1.
         11    1    3    3    0    0  0.60476593741E+01 -0.59549931996E+00  0.63701872336E+01  0.88038678431E+01  0.51100000000E-03 0. -1.
        -11    1    3    3    0    0 -0.15597573338E+01 -0.13172983475E+02  0.41819208529E+01  0.13908587234E+02  0.51100000000E-03 0.  1.
        -12    1    3    3    0    0 -0.55446949968E+01 -0.58101802579E+01 -0.35697226609E+02  0.36589531629E+02  0.00000000000E+00 0.  1.
</event>
<event>
 7    1  0.1205909E-011  0.5930200E+02  0.7816164E-02  0.1266605E+00
        -11   -1    0    0    0    0  0.00000000000E+00  0.00000000000E+00  0.45593999997E+02  0.45594000000E+02  0.51100000000E-03 0.  1.
         11   -1    0    0    0    0 -0.00000000000E+00 -0.00000000000E+00 -0.45593999997E+02  0.45594000000E+02  0.51100000000E-03 0. -1.
    9900012    2    1    2    0    0  0.12731546934E+02  0.94216873614E-01  0.29233816207E+02  0.59301997206E+02  0.50000096984E+02 0.  0.
         12    1    1    2    0    0 -0.12731546934E+02 -0.94216873614E-01 -0.29233816207E+02  0.31886002794E+02  0.00000000000E+00 0. -1.
         11    1    3    3    0    0  0.18219601795E+02  0.77434363172E+01  0.52731449437E+01  0.20487087480E+02  0.51100000000E-03 0. -1.
        -11    1    3    3    0    0  0.47787015814E+01  0.75800166279E+01  0.43826763611E+00  0.89713276423E+01  0.51100000000E-03 0.  1.
         12    1    3    3    0    0 -0.10266756442E+02 -0.15229236071E+02  0.23522403627E+02  0.29843582083E+02  0.00000000000E+00 0. -1.
</event>
<event>
 7    1  0.1205909E-011  0.5930193E+02  0.7816164E-02  0.1266605E+00
        -11   -1    0    0    0    0  0.00000000000E+00  0.00000000000E+00  0.45593999997E+02  0.45594000000E+02  0.51100000000E-03 0.  1.
         11   -1    0    0    0    0 -0.00000000000E+00 -0.00000000000E+00 -0.45593999997E+02  0.45594000000E+02  0.51100000000E-03 0. -1.
    9900012    2    1    2    0    0  0.28799040693E+02 -0.99672242566E+01  0.93803569567E+01  0.59301930928E+02  0.49999976109E+02 0.  0.
         12    1    1    2    0    0 -0.28799040693E+02  0.99672242566E+01 -0.93803569567E+01  0.31886069072E+02  0.00000000000E+00 0. -1.
         11    1    3    3    0    0 -0.15890935030E+01  0.30497626521E+01  0.10182590588E+00  0.34404417117E+01  0.51100000000E-03 0. -1.
        -11    1    3    3    0    0 -0.90291365661E+00 -0.13904944524E+02  0.18562136916E+02  0.23210249082E+02  0.51100000000E-03 0.  1.
         12    1    3    3    0    0  0.31291047853E+02  0.88795761529E+00 -0.92836058649E+01  0.32651240135E+02  0.00000000000E+00 0. -1.
</event>
<event>
 7    1  0.1435596E-011  0.5930217E+02  0.7816164E-02  0.1266604E+00
        -11   -1    0    0    0    0  0.00000000000E+00  0.00000000000E+00  0.45593999997E+02  0.45594000000E+02  0.51100000000E-03 0. -1.
         11   -1    0    0    0    0 -0.00000000000E+00 -0.00000000000E+00 -0.45593999997E+02  0.45594000000E+02  0.51100000000E-03 0.  1.
    9900012    2    1    2    0    0  0.23166377419E+02  0.12391844312E+02 -0.18068405643E+02  0.59302170378E+02  0.50000412807E+02 0.  0.
         12    1    1    2    0    0 -0.23166377419E+02 -0.12391844312E+02  0.18068405643E+02  0.31885829622E+02  0.00000000000E+00 0. -1.
         11    1    3    3    0    0  0.23337992975E+01 -0.13135626442E+02 -0.12553313133E+00  0.13341928646E+02  0.51100000000E-03 0. -1.
        -11    1    3    3    0    0  0.13028453889E+00  0.81558712073E+01 -0.17072582128E+02  0.18921106469E+02  0.51100000000E-03 0.  1.
        -12    1    3    3    0    0  0.20702293583E+02  0.17371599547E+02 -0.87029038358E+00  0.27039135263E+02  0.00000000000E+00 0.  1.
</event>
<event>
 7    1  0.1205909E-011  0.5930195E+02  0.7816164E-02  0.1266605E+00
        -11   -1    0    0    0    0  0.00000000000E+00  0.00000000000E+00  0.45593999997E+02  0.45594000000E+02  0.51100000000E-03 0.  1.
         11   -1    0    0    0    0 -0.00000000000E+00 -0.00000000000E+00 -0.45593999997E+02  0.45594000000E+02  0.51100000000E-03 0. -1.
    9900012    2    1    2    0    0 -0.15536321773E+02 -0.10347039718E+02  0.25851143088E+02  0.59301950948E+02  0.50000012621E+02 0.  0.
         12    1    1    2    0    0  0.15536321773E+02  0.10347039718E+02 -0.25851143088E+02  0.31886049052E+02  0.00000000000E+00 0. -1.
         11    1    3    3    0    0 -0.17141436432E+02 -0.76314065235E+01  0.20176852904E+02  0.27553086975E+02  0.51100000000E-03 0. -1.
        -11    1    3    3    0    0 -0.13318508097E+01 -0.14522676730E+02  0.11197975751E+02  0.18386860177E+02  0.51100000000E-03 0.  1.
         12    1    3    3    0    0  0.29369654688E+01  0.11807043535E+02 -0.55236855663E+01  0.13362003796E+02  0.00000000000E+00 0. -1.
</event>
<event>
 7    1  0.1205909E-011  0.5930194E+02  0.7816164E-02  0.1266605E+00
        -11   -1    0    0    0    0  0.00000000000E+00  0.00000000000E+00  0.45593999997E+02  0.45594000000E+02  0.51100000000E-03 0.  1.
         11   -1    0    0    0    0 -0.00000000000E+00 -0.00000000000E+00 -0.45593999997E+02  0.45594000000E+02  0.51100000000E-03 0. -1.
    9900012    2    1    2    0    0  0.24688311656E+02  0.19325974020E+02  0.58064539993E+01  0.59301938589E+02  0.49999990081E+02 0.  0.
         12    1    1    2    0    0 -0.24688311656E+02 -0.19325974020E+02 -0.58064539993E+01  0.31886061411E+02  0.00000000000E+00 0. -1.
         11    1    3    3    0    0  0.33395090568E+02  0.11820589641E+02  0.60323656753E+01  0.35935328709E+02  0.51100000000E-03 0. -1.
        -11    1    3    3    0    0  0.45716767944E+01 -0.37829968101E+01 -0.22905730388E+00  0.59383298231E+01  0.51100000000E-03 0.  1.
        -12    1    3    3    0    0 -0.13278455707E+02  0.11288381190E+02  0.31456279200E-02  0.17428280057E+02  0.00000000000E+00 0.  1.
</event>
<event>
 7    1  0.1205909E-011  0.5930194E+02  0.7816164E-02  0.1266605E+00
        -11   -1    0    0    0    0  0.00000000000E+00  0.00000000000E+00  0.45593999997E+02  0.45594000000E+02  0.51100000000E-03 0.  1.
         11   -1    0    0    0    0 -0.00000000000E+00 -0.00000000000E+00 -0.45593999997E+02  0.45594000000E+02  0.51100000000E-03 0. -1.
    9900012    2    1    2    0    0 -0.14792478207E+02  0.18624468805E+01  0.28185712488E+02  0.59301944923E+02  0.50000001633E+02 0.  0.
         12    1    1    2    0    0  0.14792478207E+02 -0.18624468805E+01 -0.28185712488E+02  0.31886055077E+02  0.00000000000E+00 0. -1.
         11    1    3    3    0    0  0.13144407765E+02 -0.55129175097E+01  0.63604302491E+01  0.15608420426E+02  0.51100000000E-03 0. -1.
        -11    1    3    3    0    0 -0.12211832218E+02  0.86913453556E+01  0.23448908623E+02  0.27830193066E+02  0.51100000000E-03 0.  1.
        -12    1    3    3    0    0 -0.15725053754E+02 -0.13159809654E+01 -0.16236263839E+01  0.15863331432E+02  0.00000000000E+00 0.  1.
</event>
<event>
 7    1  0.1205909E-011  0.5930194E+02  0.7816164E-02  0.1266605E+00
        -11   -1    0    0    0    0  0.00000000000E+00  0.00000000000E+00  0.45593999997E+02  0.45594000000E+02  0.51100000000E-03 0. -1.
         11   -1    0    0    0    0 -0.00000000000E+00 -0.00000000000E+00 -0.45593999997E+02  0.45594000000E+02  0.51100000000E-03 0.  1.
    9900012    2    1    2    0    0  0.66454046395E+01  0.14353538270E+02 -0.27686369945E+02  0.59301944357E+02  0.50000000601E+02 0.  0.
         12    1    1    2    0    0 -0.66454046395E+01 -0.14353538270E+02  0.27686369945E+02  0.31886055643E+02  0.00000000000E+00 0. -1.
         11    1    3    3    0    0 -0.11519527485E+01 -0.20068855408E+01  0.39546696722E+01  0.45819206874E+01  0.51100000000E-03 0. -1.
        -11    1    3    3    0    0  0.23385083570E+02  0.27890811166E+01 -0.13070532018E+02  0.26934734351E+02  0.51100000000E-03 0.  1.
        -12    1    3    3    0    0 -0.15587726182E+02  0.13571342694E+02 -0.18570507599E+02  0.27785289319E+02  0.00000000000E+00 0.  1.
</event>
<event>
 7    1  0.1205909E-011  0.5930217E+02  0.7816164E-02  0.1266604E+00
        -11   -1    0    0    0    0  0.00000000000E+00  0.00000000000E+00  0.45593999997E+02  0.45594000000E+02  0.51100000000E-03 0.  1.
         11   -1    0    0    0    0 -0.00000000000E+00 -0.00000000000E+00 -0.45593999997E+02  0.45594000000E+02  0.51100000000E-03 0. -1.
    9900012    2    1    2    0    0 -0.24348068656E+01 -0.65052631654E+01  0.31120077495E+02  0.59302173108E+02  0.50000417785E+02 0.  0.
         12    1    1    2    0    0  0.24348068656E+01  0.65052631654E+01 -0.31120077495E+02  0.31885826892E+02  0.00000000000E+00 0. -1.
         11    1    3    3    0    0  0.27405399781E+01  0.54852341002E+01  0.61226276711E+01  0.86651556458E+01  0.51100000000E-03 0. -1.
        -11    1    3    3    0    0  0.36752270707E+01 -0.23048051345E+02  0.27696213959E+02  0.36218782872E+02  0.51100000000E-03 0.  1.
         12    1    3    3    0    0 -0.88505739144E+01  0.11057554079E+02 -0.26987641348E+01  0.14418234590E+02  0.00000000000E+00 0. -1.
</event>
<event>
 7    1  0.1205909E-011  0.5930200E+02  0.7816164E-02  0.1266605E+00
        -11   -1    0    0    0    0  0.00000000000E+00  0.00000000000E+00  0.45593999997E+02  0.45594000000E+02  0.51100000000E-03 0. -1.
         11   -1    0    0    0    0 -0.00000000000E+00 -0.00000000000E+00 -0.45593999997E+02  0.45594000000E+02  0.51100000000E-03 0.  1.
    9900012    2    1    2    0    0  0.14029679814E+01  0.10646648110E+02 -0.30023279267E+02  0.59302004123E+02  0.50000109599E+02 0.  0.
         12    1    1    2    0    0 -0.14029679814E+01 -0.10646648110E+02  0.30023279267E+02  0.31885995877E+02  0.00000000000E+00 0. -1.
         11    1    3    3    0    0 -0.46299356618E+01 -0.75980279301E+01 -0.10008895020E+00  0.88981093901E+01  0.51100000000E-03 0. -1.
        -11    1    3    3    0    0  0.17178281990E+02  0.12504948285E+02 -0.31258680613E+02  0.37796457740E+02  0.51100000000E-03 0.  1.
         12    1    3    3    0    0 -0.11145378347E+02  0.57397277546E+01  0.13354902960E+01  0.12607436993E+02  0.00000000000E+00 0. -1.
</event>
<event>
 7    1  0.1205909E-011  0.5930194E+02  0.7816164E-02  0.1266605E+00
        -11   -1    0    0    0    0  0.00000000000E+00  0.00000000000E+00  0.45593999997E+02  0.45594000000E+02  0.51100000000E-03 0. -1.
         11   -1    0    0    0    0 -0.00000000000E+00 -0.00000000000E+00 -0.45593999997E+02  0.45594000000E+02  0.51100000000E-03 0.  1.
    9900012    2    1    2    0    0  0.21982500264E+02 -0.16425466938E+02 -0.16238666295E+02  0.59301944034E+02  0.50000000012E+02 0.  0.
         12    1    1    2    0    0 -0.21982500264E+02  0.16425466938E+02  0.16238666295E+02  0.31886055966E+02  0.00000000000E+00 0. -1.
         11    1    3    3    0    0  0.86490083216E+01 -0.14397388538E+02 -0.30477690680E+01  0.17069828301E+02  0.51100000000E-03 0. -1.
        -11    1    3    3    0    0  0.14942057550E+02 -0.13067692155E+02  0.53813892967E+01  0.20566696699E+02  0.51100000000E-03 0.  1.
         12    1    3    3    0    0 -0.16085656072E+01  0.11039613756E+02 -0.18572286524E+02  0.21665419034E+02  0.00000000000E+00 0. -1.
</event>
<event>
 7    1  0.1205909E-011  0.5930194E+02  0.7816164E-02  0.1266605E+00
        -11   -1    0    0    0    0  0.00000000000E+00  0.00000000000E+00  0.45593999997E+02  0.45594000000E+02  0.51100000000E-03 0.  1.
         11   -1    0    0    0    0 -0.00000000000E+00 -0.00000000000E+00 -0.45593999997E+02  0.45594000000E+02  0.51100000000E-03 0. -1.
    9900012    2    1    2    0    0  0.19371516177E+02  0.16039905181E+02  0.19600678447E+02  0.59301940463E+02  0.49999993498E+02 0.  0.
         12    1    1    2    0    0 -0.19371516177E+02 -0.16039905181E+02 -0.19600678447E+02  0.31886059537E+02  0.00000000000E+00 0. -1.
         11    1    3    3    0    0 -0.31135936340E+01 -0.18521638151E+01  0.17254298695E+02  0.17630536005E+02  0.51100000000E-03 0. -1.
        -11    1    3    3    0    0 -0.47116177181E+01  0.13181922666E+02  0.10964741599E+01  0.14041534194E+02  0.51100000000E-03 0.  1.
        -12    1    3    3    0    0  0.27196727529E+02  0.47101463307E+01  0.12499055926E+01  0.27629870263E+02  0.00000000000E+00 0.  1.
</event>
<event>
 7    1  0.1205909E-011  0.5930194E+02  0.7816164E-02  0.1266605E+00
        -11   -1    0    0    0    0  0.00000000000E+00  0.00000000000E+00  0.45593999997E+02  0.45594000000E+02  0.51100000000E-03 0.  1.
         11   -1    0    0    0    0 -0.00000000000E+00 -0.00000000000E+00 -0.45593999997E+02  0.45594000000E+02  0.51100000000E-03 0. -1.
    9900012    2    1    2    0    0 -0.23317324817E+02 -0.35026480767E+01  0.21465197758E+02  0.59301938861E+02  0.49999990577E+02 0.  0.
         12    1    1    2    0    0  0.23317324817E+02  0.35026480767E+01 -0.21465197758E+02  0.31886061139E+02  0.00000000000E+00 0. -1.
         11    1    3    3    0    0 -0.16859734036E+02 -0.60924601278E+01  0.15606897827E+02  0.23768549855E+02  0.51100000000E-03 0. -1.
        -11    1    3    3    0    0 -0.10751888028E+02 -0.10246990118E+02  0.13429434010E+02  0.20023825827E+02  0.51100000000E-03 0.  1.
         12    1    3    3    0    0  0.42942972468E+01  0.12836802169E+02 -0.75711340797E+01  0.15509563179E+02  0.00000000000E+00 0. -1.
</event>
<event>
 7    1  0.1205909E-011  0.5930195E+02  0.7816164E-02  0.1266605E+00
        -11   -1    0    0    0    0  0.00000000000E+00  0.00000000000E+00  0.45593999997E+02  0.45594000000E+02  0.51100000000E-03 0.  1.
         11   -1    0    0    0    0 -0.00000000000E+00 -0.00000000000E+00 -0.45593999997E+02  0.45594000000E+02  0.51100000000E-03 0. -1.
    9900012    2    1    2    0    0  0.25878173880E+02 -0.15562404028E+02 -0.10239733718E+02  0.59301945852E+02  0.50000003328E+02 0.  0.
         12    1    1    2    0    0 -0.25878173880E+02  0.15562404028E+02  0.10239733718E+02  0.31886054148E+02  0.00000000000E+00 0. -1.
         11    1    3    3    0    0  0.59604107678E+01 -0.26495723725E+01  0.45967483843E+01  0.79797760775E+01  0.51100000000E-03 0. -1.
        -11    1    3    3    0    0  0.14924872349E+02  0.11249177154E+02  0.53541316496E+01  0.19441258377E+02  0.51100000000E-03 0.  1.
         12    1    3    3    0    0  0.49928907629E+01 -0.24162008810E+02 -0.20190613752E+02  0.31880911398E+02  0.00000000000E+00 0. -1.
</event>
<event>
 7    1  0.1205909E-011  0.5930185E+02  0.7816164E-02  0.1266605E+00
        -11   -1    0    0    0    0  0.00000000000E+00  0.00000000000E+00  0.45593999997E+02  0.45594000000E+02  0.51100000000E-03 0.  1.
         11   -1    0    0    0    0 -0.00000000000E+00 -0.00000000000E+00 -0.45593999997E+02  0.45594000000E+02  0.51100000000E-03 0. -1.
    9900012    2    1    2    0    0  0.27973801600E+02  0.18073259781E+00  0.15302295450E+02  0.59301851185E+02  0.49999830677E+02 0.  0.
         12    1    1    2    0    0 -0.27973801600E+02 -0.18073259781E+00 -0.15302295450E+02  0.31886148815E+02  0.00000000000E+00 0. -1.
         11    1    3    3    0    0 -0.10564136794E+01  0.10027210207E+02  0.17611816554E+02  0.20293768427E+02  0.51100000000E-03 0. -1.
        -11    1    3    3    0    0  0.15885362507E+02 -0.15599128774E+02  0.51276310490E+01  0.22846666298E+02  0.51100000000E-03 0.  1.
         12    1    3    3    0    0  0.13144852772E+02  0.57526511651E+01 -0.74371521533E+01  0.16161416460E+02  0.00000000000E+00 0. -1.
</event>
<event>
 7    1  0.1205909E-011  0.5930193E+02  0.7816164E-02  0.1266605E+00
        -11   -1    0    0    0    0  0.00000000000E+00  0.00000000000E+00  0.45593999997E+02  0.45594000000E+02  0.51100000000E-03 0.  1.
         11   -1    0    0    0    0 -0.00000000000E+00 -0.00000000000E+00 -0.45593999997E+02  0.45594000000E+02  0.51100000000E-03 0. -1.
    9900012    2    1    2    0    0  0.18411577560E+02  0.67732442789E+01  0.25136793595E+02  0.59301930651E+02  0.49999975604E+02 0.  0.
         12    1    1    2    0    0 -0.18411577560E+02 -0.67732442789E+01 -0.25136793595E+02  0.31886069349E+02  0.00000000000E+00 0. -1.
         11    1    3    3    0    0  0.26681928834E+02 -0.40955625189E+01  0.77023185421E+01  0.28071777105E+02  0.51100000000E-03 0. -1.
        -11    1    3    3    0    0 -0.39888501178E+01 -0.20102093656E+01 -0.39098787445E+01  0.59362462056E+01  0.51100000000E-03 0.  1.
        -12    1    3    3    0    0 -0.42815011566E+01  0.12879016163E+02  0.21344353798E+02  0.25293907340E+02  0.00000000000E+00 0.  1.
</event>
<event>
 7    1  0.1205909E-011  0.5930193E+02  0.7816164E-02  0.1266605E+00
        -11   -1    0    0    0    0  0.00000000000E+00  0.00000000000E+00  0.45593999997E+02  0.45594000000E+02  0.51100000000E-03 0.  1.
         11   -1    0    0    0    0 -0.00000000000E+00 -0.00000000000E+00 -0.45593999997E+02  0.45594000000E+02  0.51100000000E-03 0. -1.
    9900012    2    1    2    0    0 -0.91850962731E+01 -0.25183157721E+02  0.17267432322E+02  0.59301927094E+02  0.49999969117E+02 0.  0.
         12    1    1    2    0    0  0.91850962731E+01  0.25183157721E+02 -0.17267432322E+02  0.31886072906E+02  0.00000000000E+00 0. -1.
         11    1    3    3    0    0 -0.18377259822E+02 -0.79837708796E+01 -0.65031236466E+01  0.21065490582E+02  0.51100000000E-03 0. -1.
        -11    1    3    3    0    0 -0.86562219279E+00 -0.17289487882E+02  0.69833454867E+01  0.18666622819E+02  0.51100000000E-03 0.  1.
        -12    1    3    3    0    0  0.10057785742E+02  0.90101040340E-01  0.16787210482E+02  0.19569813693E+02  0.00000000000E+00 0.  1.
</event>
<event>
 7    1  0.1205909E-011  0.5930193E+02  0.7816164E-02  0.1266605E+00
        -11   -1    0    0    0    0  0.00000000000E+00  0.00000000000E+00  0.45593999997E+02  0.45594000000E+02  0.51100000000E-03 0.  1.
         11   -1    0    0    0    0 -0.00000000000E+00 -0.00000000000E+00 -0.45593999997E+02  0.45594000000E+02  0.51100000000E-03 0. -1.
    9900012    2    1    2    0    0 -0.11263840885E+02  0.44321791438E+01  0.29499202253E+02  0.59301933184E+02  0.49999980223E+02 0.  0.
         12    1    1    2    0    0  0.11263840885E+02 -0.44321791438E+01 -0.29499202253E+02  0.31886066816E+02  0.00000000000E+00 0. -1.
         11    1    3    3    0    0 -0.21272078141E+02 -0.12056497125E+02  0.92716574029E+01  0.26150029878E+02  0.51100000000E-03 0. -1.
        -11    1    3    3    0    0  0.47545851807E+01 -0.27743869563E+01  0.13363040685E+01  0.56647164138E+01  0.51100000000E-03 0.  1.
        -12    1    3    3    0    0  0.52536520759E+01  0.19263063225E+02  0.18891240782E+02  0.27487186892E+02  0.00000000000E+00 0.  1.
</event>
<event>
 7    1  0.1205909E-011  0.5930196E+02  0.7816164E-02  0.1266605E+00
        -11   -1    0    0    0    0  0.00000000000E+00  0.00000000000E+00  0.45593999997E+02  0.45594000000E+02  0.51100000000E-03 0.  1.
         11   -1    0    0    0    0 -0.00000000000E+00 -0.00000000000E+00 -0.45593999997E+02  0.45594000000E+02  0.51100000000E-03 0. -1.
    9900012    2    1    2    0    0 -0.28006428834E+01  0.15974706247E+02  0.27453314959E+02  0.59301963205E+02  0.50000034975E+02 0.  0.
         12    1    1    2    0    0  0.28006428834E+01 -0.15974706247E+02 -0.27453314959E+02  0.31886036795E+02  0.00000000000E+00 0. -1.
         11    1    3    3    0    0  0.37241943088E+01 -0.69984458194E+01 -0.26502423102E+01  0.83589264682E+01  0.51100000000E-03 0. -1.
        -11    1    3    3    0    0  0.91504499934E+01  0.83085108268E+01 -0.18003554179E+01  0.12490130789E+02  0.51100000000E-03 0.  1.
        -12    1    3    3    0    0 -0.15675287186E+02  0.14664641240E+02  0.31903912687E+02  0.38452905947E+02  0.00000000000E+00 0.  1.
</event>
<event>
 7    1  0.1205909E-011  0.5930188E+02  0.7816164E-02  0.1266605E+00
        -11   -1    0    0    0    0  0.00000000000E+00  0.00000000000E+00  0.45593999997E+02  0.45594000000E+02  0.51100000000E-03 0.  1.
         11   -1    0    0    0    0 -0.00000000000E+00 -0.00000000000E+00 -0.45593999997E+02  0.45594000000E+02  0.51100000000E-03 0. -1.
    9900012    2    1    2    0    0  0.10899413919E+02  0.18149104167E+02 -0.23844026655E+02  0.59301877424E+02  0.49999878530E+02 0.  0.
         12    1    1    2    0    0 -0.10899413919E+02 -0.18149104167E+02  0.23844026655E+02  0.31886122576E+02  0.00000000000E+00 0. -1.
         11    1    3    3    0    0  0.29543415789E+01 -0.67366604756E+01 -0.10863518398E+02  0.13119708868E+02  0.51100000000E-03 0. -1.
        -11    1    3    3    0    0  0.14928015287E+01 -0.24412355017E+01  0.96839693050E+01  0.10097888341E+02  0.51100000000E-03 0.  1.
         12    1    3    3    0    0  0.64522708115E+01  0.27327000144E+02 -0.22664477562E+02  0.36084280215E+02  0.00000000000E+00 0. -1.
</event>
<event>
 7    1  0.1205909E-011  0.5930193E+02  0.7816164E-02  0.1266605E+00
        -11   -1    0    0    0    0  0.00000000000E+00  0.00000000000E+00  0.45593999997E+02  0.45594000000E+02  0.51100000000E-03 0.  1.
         11   -1    0    0    0    0 -0.00000000000E+00 -0.00000000000E+00 -0.45593999997E+02  0.45594000000E+02  0.51100000000E-03 0. -1.
    9900012    2    1    2    0    0  0.14284696855E+02  0.20409475511E+02  0.19902826859E+02  0.59301925110E+02  0.49999965499E+02 0.  0.
         12    1    1    2    0    0 -0.14284696855E+02 -0.20409475511E+02 -0.19902826859E+02  0.31886074890E+02  0.00000000000E+00 0. -1.
         11    1    3    3    0    0 -0.75933345697E+01 -0.56520479009E+01 -0.83771571978E+01  0.12640456413E+02  0.51100000000E-03 0. -1.
        -11    1    3    3    0    0 -0.19406465732E+01  0.30286059825E+00  0.21812700172E+01  0.29352636701E+01  0.51100000000E-03 0.  1.
        -12    1    3    3    0    0  0.23818677998E+02  0.25758662814E+02  0.26098714040E+02  0.43726205027E+02  0.00000000000E+00 0.  1.
</event>
<event>
 7    1  0.1205909E-011  0.5930186E+02  0.7816164E-02  0.1266605E+00
        -11   -1    0    0    0    0  0.00000000000E+00  0.00000000000E+00  0.45593999997E+02  0.45594000000E+02  0.51100000000E-03 0.  1.
         11   -1    0    0    0    0 -0.00000000000E+00 -0.00000000000E+00 -0.45593999997E+02  0.45594000000E+02  0.51100000000E-03 0. -1.
    9900012    2    1    2    0    0 -0.15364283802E+01 -0.29166429811E+02  0.12793927941E+02  0.59301861440E+02  0.49999849380E+02 0.  0.
         12    1    1    2    0    0  0.15364283802E+01  0.29166429811E+02 -0.12793927941E+02  0.31886138560E+02  0.00000000000E+00 0. -1.
         11    1    3    3    0    0  0.11588013725E+02 -0.25391841125E+02  0.55198030786E+01  0.28451641149E+02  0.51100000000E-03 0.  1.
        -11    1    3    3    0    0 -0.16133697699E+02 -0.31379133454E+01 -0.57921777681E+01  0.17426761752E+02  0.51100000000E-03 0. -1.
        -12    1    3    3    0    0  0.30092555937E+01 -0.63667534082E+00  0.13066302631E+02  0.13423458539E+02  0.00000000000E+00 0.  1.
</event>
<event>
 7    1  0.1205909E-011  0.5930195E+02  0.7816164E-02  0.1266605E+00
        -11   -1    0    0    0    0  0.00000000000E+00  0.00000000000E+00  0.45593999997E+02  0.45594000000E+02  0.51100000000E-03 0. -1.
         11   -1    0    0    0    0 -0.00000000000E+00 -0.00000000000E+00 -0.45593999997E+02  0.45594000000E+02  0.51100000000E-03 0.  1.
    9900012    2    1    2    0    0  0.12015251590E+02 -0.23636066225E+02 -0.17711297358E+02  0.59301953655E+02  0.50000017559E+02 0.  0.
         12    1    1    2    0    0 -0.12015251590E+02  0.23636066225E+02  0.17711297358E+02  0.31886046345E+02  0.00000000000E+00 0. -1.
         11    1    3    3    0    0 -0.10780781634E+01  0.61963866044E+01 -0.15447248620E+01  0.64763905563E+01  0.51100000000E-03 0. -1.
        -11    1    3    3    0    0  0.25987012552E+01  0.82796923153E+01 -0.92696648161E+01  0.12697765123E+02  0.51100000000E-03 0.  1.
        -12    1    3    3    0    0  0.10494628498E+02 -0.38112145145E+02 -0.68969076798E+01  0.40127797976E+02  0.00000000000E+00 0.  1.
</event>
<event>
 7    1  0.1205909E-011  0.5930188E+02  0.7816164E-02  0.1266605E+00
        -11   -1    0    0    0    0  0.00000000000E+00  0.00000000000E+00  0.45593999997E+02  0.45594000000E+02  0.51100000000E-03 0. -1.
         11   -1    0    0    0    0 -0.00000000000E+00 -0.00000000000E+00 -0.45593999997E+02  0.45594000000E+02  0.51100000000E-03 0.  1.
    9900012    2    1    2    0    0 -0.79240938621E+01  0.21973392613E+02 -0.21704914528E+02  0.59301881372E+02  0.49999885731E+02 0.  0.
         12    1    1    2    0    0  0.79240938621E+01 -0.21973392613E+02  0.21704914528E+02  0.31886118628E+02  0.00000000000E+00 0. -1.
         11    1    3    3    0    0 -0.23531539825E+01 -0.45553076481E+00  0.46681691782E+01  0.52475371061E+01  0.51100000000E-03 0. -1.
        -11    1    3    3    0    0 -0.11138611421E+02  0.53441068406E+01  0.83816289128E+01  0.14929160921E+02  0.51100000000E-03 0.  1.
        -12    1    3    3    0    0  0.55676715418E+01  0.17084816538E+02 -0.34754712619E+02  0.39125183345E+02  0.00000000000E+00 0.  1.
</event>
<event>
 7    1  0.1205909E-011  0.5930196E+02  0.7816164E-02  0.1266605E+00
        -11   -1    0    0    0    0  0.00000000000E+00  0.00000000000E+00  0.45593999997E+02  0.45594000000E+02  0.51100000000E-03 0. -1.
         11   -1    0    0    0    0 -0.00000000000E+00 -0.00000000000E+00 -0.45593999997E+02  0.45594000000E+02  0.51100000000E-03 0.  1.
    9900012    2    1    2    0    0 -0.12540575283E+02 -0.11201699956E+02 -0.27091975483E+02  0.59301964719E+02  0.50000037736E+02 0.  0.
         12    1    1    2    0    0  0.12540575283E+02  0.11201699956E+02  0.27091975483E+02  0.31886035281E+02  0.00000000000E+00 0. -1.
         11    1    3    3    0    0  0.58033890176E+01  0.10057360052E+02 -0.62562509939E+01  0.13189787415E+02  0.51100000000E-03 0. -1.
        -11    1    3    3    0    0  0.70833435441E+01 -0.12196992311E+02 -0.80967006658E+01  0.16263361864E+02  0.51100000000E-03 0.  1.
        -12    1    3    3    0    0 -0.25427307845E+02 -0.90620676972E+01 -0.12739023824E+02  0.29848815440E+02  0.00000000000E+00 0.  1.
</event>
<event>
 7    1  0.1205909E-011  0.5930200E+02  0.7816164E-02  0.1266605E+00
        -11   -1    0    0    0    0  0.00000000000E+00  0.00000000000E+00  0.45593999997E+02  0.45594000000E+02  0.51100000000E-03 0.  1.
         11   -1    0    0    0    0 -0.00000000000E+00 -0.00000000000E+00 -0.45593999997E+02  0.45594000000E+02  0.51100000000E-03 0. -1.
    9900012    2    1    2    0    0 -0.69680999064E+01 -0.20026375924E+02  0.23814003363E+02  0.59302001425E+02  0.50000104679E+02 0.  0.
         12    1    1    2    0    0  0.69680999064E+01  0.20026375924E+02 -0.23814003363E+02  0.31885998575E+02  0.00000000000E+00 0. -1.
         11    1    3    3    0    0  0.39568147550E+01 -0.11199119486E+02  0.42642557174E+01  0.12619846962E+02  0.51100000000E-03 0. -1.
        -11    1    3    3    0    0 -0.10108210294E+02 -0.24364464154E+02  0.89464616806E+01  0.27853944168E+02  0.51100000000E-03 0.  1.
        -12    1    3    3    0    0 -0.81670436773E+00  0.15537207716E+02  0.10603285965E+02  0.18828210294E+02  0.00000000000E+00 0.  1.
</event>
<event>
 7    1  0.1205909E-011  0.5930193E+02  0.7816164E-02  0.1266605E+00
        -11   -1    0    0    0    0  0.00000000000E+00  0.00000000000E+00  0.45593999997E+02  0.45594000000E+02  0.51100000000E-03 0.  1.
         11   -1    0    0    0    0 -0.00000000000E+00 -0.00000000000E+00 -0.45593999997E+02  0.45594000000E+02  0.51100000000E-03 0. -1.
    9900012    2    1    2    0    0  0.16444943922E+02  0.24822428237E+02  0.11407544766E+02  0.59301934050E+02  0.49999981803E+02 0.  0.
         12    1    1    2    0    0 -0.16444943922E+02 -0.24822428237E+02 -0.11407544766E+02  0.31886065950E+02  0.00000000000E+00 0. -1.
         11    1    3    3    0    0 -0.11421906467E+02 -0.48112269326E+00 -0.38489179815E+01  0.12062570053E+02  0.51100000000E-03 0. -1.
        -11    1    3    3    0    0 -0.15476606475E+01  0.92258423786E+01  0.93029971716E+01  0.13193073096E+02  0.51100000000E-03 0.  1.
         12    1    3    3    0    0  0.29414511036E+02  0.16077708552E+02  0.59534655755E+01  0.34046290901E+02  0.00000000000E+00 0. -1.
</event>
<event>
 7    1  0.1205909E-011  0.5930195E+02  0.7816164E-02  0.1266605E+00
        -11   -1    0    0    0    0  0.00000000000E+00  0.00000000000E+00  0.45593999997E+02  0.45594000000E+02  0.51100000000E-03 0.  1.
         11   -1    0    0    0    0 -0.00000000000E+00 -0.00000000000E+00 -0.45593999997E+02  0.45594000000E+02  0.51100000000E-03 0. -1.
    9900012    2    1    2    0    0  0.26412864140E+02  0.14118759400E+02  0.10942635604E+02  0.59301952376E+02  0.50000015225E+02 0.  0.
         12    1    1    2    0    0 -0.26412864140E+02 -0.14118759400E+02 -0.10942635604E+02  0.31886047624E+02  0.00000000000E+00 0. -1.
         11    1    3    3    0    0  0.21562845760E+01  0.90814967537E+00 -0.78993988303E+01  0.82386164583E+01  0.51100000000E-03 0. -1.
        -11    1    3    3    0    0  0.30764683146E+02  0.12255540677E+02  0.25430223973E+02  0.41753566290E+02  0.51100000000E-03 0.  1.
         12    1    3    3    0    0 -0.65081035817E+01  0.95506904855E+00 -0.65881895389E+01  0.93097696275E+01  0.00000000000E+00 0. -1.
</event>
<event>
 7    1  0.1205909E-011  0.5930187E+02  0.7816164E-02  0.1266605E+00
        -11   -1    0    0    0    0  0.00000000000E+00  0.00000000000E+00  0.45593999997E+02  0.45594000000E+02  0.51100000000E-03 0. -1.
         11   -1    0    0    0    0 -0.00000000000E+00 -0.00000000000E+00 -0.45593999997E+02  0.45594000000E+02  0.51100000000E-03 0.  1.
    9900012    2    1    2    0    0  0.13582842260E+01 -0.12601595843E+02 -0.29258842708E+02  0.59301874014E+02  0.49999872311E+02 0.  0.
         12    1    1    2    0    0 -0.13582842260E+01  0.12601595843E+02  0.29258842708E+02  0.31886125986E+02  0.00000000000E+00 0. -1.
         11    1    3    3    0    0  0.13536473218E+02  0.79177377500E+01  0.14093020807E+01  0.15745247247E+02  0.51100000000E-03 0. -1.
        -11    1    3    3    0    0  0.48851185478E+01 -0.28427655492E+01 -0.98388012363E+01  0.11346704774E+02  0.51100000000E-03 0.  1.
        -12    1    3    3    0    0 -0.17063307539E+02 -0.17676568044E+02 -0.20829343552E+02  0.32209921993E+02  0.00000000000E+00 0.  1.
</event>
<event>
 7    1  0.1205909E-011  0.5930197E+02  0.7816164E-02  0.1266605E+00
        -11   -1    0    0    0    0  0.00000000000E+00  0.00000000000E+00  0.45593999997E+02  0.45594000000E+02  0.51100000000E-03 0. -1.
         11   -1    0    0    0    0 -0.00000000000E+00 -0.00000000000E+00 -0.45593999997E+02  0.45594000000E+02  0.51100000000E-03 0.  1.
    9900012    2    1    2    0    0 -0.22186386305E+01 -0.11910463923E+02 -0.29494703033E+02  0.59301968336E+02  0.50000044333E+02 0.  0.
         12    1    1    2    0    0  0.22186386305E+01  0.11910463923E+02  0.29494703033E+02  0.31886031664E+02  0.00000000000E+00 0. -1.
         11    1    3    3    0    0  0.12924002670E+01  0.12317023985E+02 -0.21065550313E+01  0.12562521748E+02  0.51100000000E-03 0. -1.
        -11    1    3    3    0    0 -0.13671974015E+02 -0.19313772854E+02 -0.93130369225E+01  0.25429851599E+02  0.51100000000E-03 0.  1.
         12    1    3    3    0    0  0.10160935118E+02 -0.49137150535E+01 -0.18075111080E+02  0.21309594990E+02  0.00000000000E+00 0. -1.
</event>
<event>
 7    1  0.1205909E-011  0.5930195E+02  0.7816164E-02  0.1266605E+00
        -11   -1    0    0    0    0  0.00000000000E+00  0.00000000000E+00  0.45593999997E+02  0.45594000000E+02  0.51100000000E-03 0. -1.
         11   -1    0    0    0    0 -0.00000000000E+00 -0.00000000000E+00 -0.45593999997E+02  0.45594000000E+02  0.51100000000E-03 0.  1.
    9900012    2    1    2    0    0  0.10339227870E+02 -0.23968058945E+02 -0.18312646417E+02  0.59301945033E+02  0.50000001834E+02 0.  0.
         12    1    1    2    0    0 -0.10339227870E+02  0.23968058945E+02  0.18312646417E+02  0.31886054967E+02  0.00000000000E+00 0. -1.
         11    1    3    3    0    0 -0.39193583203E+01  0.82726875409E+00 -0.24935597860E+01  0.47184302370E+01  0.51100000000E-03 0. -1.
        -11    1    3    3    0    0 -0.11075533248E+02 -0.15724636873E+02 -0.19540615393E+02  0.27418375074E+02  0.51100000000E-03 0.  1.
         12    1    3    3    0    0  0.25334119438E+02 -0.90706908266E+01  0.37215287620E+01  0.27165139722E+02  0.00000000000E+00 0. -1.
</event>
<event>
 7    1  0.1205909E-011  0.5930193E+02  0.7816164E-02  0.1266605E+00
        -11   -1    0    0    0    0  0.00000000000E+00  0.00000000000E+00  0.45593999997E+02  0.45594000000E+02  0.51100000000E-03 0.  1.
         11   -1    0    0    0    0 -0.00000000000E+00 -0.00000000000E+00 -0.45593999997E+02  0.45594000000E+02  0.51100000000E-03 0. -1.
    9900012    2    1    2    0    0 -0.25357606627E+02  0.15232433664E+02 -0.11903205124E+02  0.59301928725E+02  0.49999972091E+02 0.  0.
         12    1    1    2    0    0  0.25357606627E+02 -0.15232433664E+02  0.11903205124E+02  0.31886071275E+02  0.00000000000E+00 0. -1.
         11    1    3    3    0    0 -0.15644435210E+01  0.21902257559E+01 -0.20510325208E+02  0.20686179270E+02  0.51100000000E-03 0. -1.
        -11    1    3    3    0    0  0.29127383574E+01  0.68079399657E+00  0.86870263740E+01  0.91875977648E+01  0.51100000000E-03 0.  1.
        -12    1    3    3    0    0 -0.26705901463E+02  0.12361413912E+02 -0.79906289384E-01  0.29428151690E+02  0.00000000000E+00 0.  1.
</event>
<event>
 7    1  0.1205909E-011  0.5930196E+02  0.7816164E-02  0.1266605E+00
        -11   -1    0    0    0    0  0.00000000000E+00  0.00000000000E+00  0.45593999997E+02  0.45594000000E+02  0.51100000000E-03 0.  1.
         11   -1    0    0    0    0 -0.00000000000E+00 -0.00000000000E+00 -0.45593999997E+02  0.45594000000E+02  0.51100000000E-03 0. -1.
    9900012    2    1    2    0    0 -0.19427710649E+02  0.13007443448E+01  0.25250582176E+02  0.59301956390E+02  0.50000022545E+02 0.  0.
         12    1    1    2    0    0  0.19427710649E+02 -0.13007443448E+01 -0.25250582176E+02  0.31886043610E+02  0.00000000000E+00 0. -1.
         11    1    3    3    0    0  0.55521514011E+01 -0.43733635573E+01  0.39840340175E+01  0.81132743882E+01  0.51100000000E-03 0. -1.
        -11    1    3    3    0    0 -0.92775261499E+01 -0.10101269816E+02  0.25100051077E+02  0.28602809437E+02  0.51100000000E-03 0.  1.
         12    1    3    3    0    0 -0.15702335900E+02  0.15775377718E+02 -0.38335029184E+01  0.22585872565E+02  0.00000000000E+00 0. -1.
</event>
<event>
 7    1  0.1205909E-011  0.5930193E+02  0.7816164E-02  0.1266605E+00
        -11   -1    0    0    0    0  0.00000000000E+00  0.00000000000E+00  0.45593999997E+02  0.45594000000E+02  0.51100000000E-03 0.  1.
         11   -1    0    0    0    0 -0.00000000000E+00 -0.00000000000E+00 -0.45593999997E+02  0.45594000000E+02  0.51100000000E-03 0. -1.
    9900012    2    1    2    0    0  0.94670129159E+01  0.15233617806E+01  0.30410134608E+02  0.59301933270E+02  0.49999980380E+02 0.  0.
         12    1    1    2    0    0 -0.94670129159E+01 -0.15233617806E+01 -0.30410134608E+02  0.31886066730E+02  0.00000000000E+00 0. -1.
         11    1    3    3    0    0  0.48313397304E+00 -0.41996686870E+01  0.25976826237E+01  0.49617124857E+01  0.51100000000E-03 0. -1.
        -11    1    3    3    0    0  0.14185337307E+02 -0.16480619776E+02  0.21723185469E+02  0.30736483369E+02  0.51100000000E-03 0.  1.
        -12    1    3    3    0    0 -0.52014583641E+01  0.22203650244E+02  0.60892665153E+01  0.23603737415E+02  0.00000000000E+00 0.  1.
</event>
<event>
 7    1  0.1205909E-011  0.5930196E+02  0.7816164E-02  0.1266605E+00
        -11   -1    0    0    0    0  0.00000000000E+00  0.00000000000E+00  0.45593999997E+02  0.45594000000E+02  0.51100000000E-03 0.  1.
         11   -1    0    0    0    0 -0.00000000000E+00 -0.00000000000E+00 -0.45593999997E+02  0.45594000000E+02  0.51100000000E-03 0. -1.
    9900012    2    1    2    0    0 -0.29949118809E+02 -0.10746094578E+02  0.20716135652E+01  0.59301955264E+02  0.50000020492E+02 0.  0.
         12    1    1    2    0    0  0.29949118809E+02  0.10746094578E+02 -0.20716135652E+01  0.31886044736E+02  0.00000000000E+00 0. -1.
         11    1    3    3    0    0 -0.14353497254E+02  0.10813750175E+02  0.13650350891E+02  0.22567502209E+02  0.51100000000E-03 0. -1.
        -11    1    3    3    0    0 -0.92184042744E+01 -0.11737102271E+00  0.33844812552E+01  0.98207671264E+01  0.51100000000E-03 0.  1.
         12    1    3    3    0    0 -0.63772172814E+01 -0.21442473730E+02 -0.14963218581E+02  0.26913685928E+02  0.00000000000E+00 0. -1.
</event>
<event>
 7    1  0.1205909E-011  0.5930192E+02  0.7816164E-02  0.1266605E+00
        -11   -1    0    0    0    0  0.00000000000E+00  0.00000000000E+00  0.45593999997E+02  0.45594000000E+02  0.51100000000E-03 0.  1.
         11   -1    0    0    0    0 -0.00000000000E+00 -0.00000000000E+00 -0.45593999997E+02  0.45594000000E+02  0.51100000000E-03 0. -1.
    9900012    2    1    2    0    0  0.90361388449E+01 -0.24329525481E+02  0.18524163934E+02  0.59301917381E+02  0.49999951402E+02 0.  0.
         12    1    1    2    0    0 -0.90361388449E+01  0.24329525481E+02 -0.18524163934E+02  0.31886082619E+02  0.00000000000E+00 0. -1.
         11    1    3    3    0    0  0.68290830580E+01 -0.30425062377E+02 -0.49726685238E+01  0.31576070506E+02  0.51100000000E-03 0. -1.
        -11    1    3    3    0    0 -0.41614425057E+01  0.48377102033E+00  0.15527763492E+02  0.16083005858E+02  0.51100000000E-03 0.  1.
        -12    1    3    3    0    0  0.63684982926E+01  0.56117658759E+01  0.79690689660E+01  0.11642841016E+02  0.00000000000E+00 0.  1.
</event>
<event>
 7    1  0.1205909E-011  0.5930194E+02  0.7816164E-02  0.1266605E+00
        -11   -1    0    0    0    0  0.00000000000E+00  0.00000000000E+00  0.45593999997E+02  0.45594000000E+02  0.51100000000E-03 0. -1.
         11   -1    0    0    0    0 -0.00000000000E+00 -0.00000000000E+00 -0.45593999997E+02  0.45594000000E+02  0.51100000000E-03 0.  1.
    9900012    2    1    2    0    0  0.16809918622E+02  0.21545702779E+02 -0.16429549430E+02  0.59301940871E+02  0.49999994242E+02 0.  0.
         12    1    1    2    0    0 -0.16809918622E+02 -0.21545702779E+02  0.16429549430E+02  0.31886059129E+02  0.00000000000E+00 0. -1.
         11    1    3    3    0    0  0.16382564407E+02  0.11701620377E+02 -0.30665950832E+00  0.20134805097E+02  0.51100000000E-03 0. -1.
        -11    1    3    3    0    0  0.14736621074E+02  0.13172346229E+02 -0.14228556446E+02  0.24354271179E+02  0.51100000000E-03 0.  1.
         12    1    3    3    0    0 -0.14309266859E+02 -0.33282638272E+01 -0.18943334753E+01  0.14812864594E+02  0.00000000000E+00 0. -1.
</event>
<event>
 7    1  0.1205909E-011  0.5930194E+02  0.7816164E-02  0.1266605E+00
        -11   -1    0    0    0    0  0.00000000000E+00  0.00000000000E+00  0.45593999997E+02  0.45594000000E+02  0.51100000000E-03 0.  1.
         11   -1    0    0    0    0 -0.00000000000E+00 -0.00000000000E+00 -0.45593999997E+02  0.45594000000E+02  0.51100000000E-03 0. -1.
    9900012    2    1    2    0    0  0.21919542224E+02  0.20276889689E+02  0.11184908062E+02  0.59301941054E+02  0.49999994576E+02 0.  0.
         12    1    1    2    0    0 -0.21919542224E+02 -0.20276889689E+02 -0.11184908062E+02  0.31886058946E+02  0.00000000000E+00 0. -1.
         11    1    3    3    0    0  0.25535997803E+01 -0.21280453096E+01 -0.14705675595E+01  0.36348339557E+01  0.51100000000E-03 0. -1.
        -11    1    3    3    0    0  0.13323569284E+02 -0.12065491525E+02  0.10003061237E+02  0.20570727225E+02  0.51100000000E-03 0.  1.
         12    1    3    3    0    0  0.60423731595E+01  0.34470426523E+02  0.26524143843E+01  0.35096379873E+02  0.00000000000E+00 0. -1.
</event>
<event>
 7    1  0.1205909E-011  0.5930195E+02  0.7816164E-02  0.1266605E+00
        -11   -1    0    0    0    0  0.00000000000E+00  0.00000000000E+00  0.45593999997E+02  0.45594000000E+02  0.51100000000E-03 0. -1.
         11   -1    0    0    0    0 -0.00000000000E+00 -0.00000000000E+00 -0.45593999997E+02  0.45594000000E+02  0.51100000000E-03 0.  1.
    9900012    2    1    2    0    0 -0.21770092318E+02  0.55785126900E+01 -0.22619985746E+02  0.59301945391E+02  0.50000002486E+02 0.  0.
         12    1    1    2    0    0  0.21770092318E+02 -0.55785126900E+01  0.22619985746E+02  0.31886054609E+02  0.00000000000E+00 0. -1.
         11    1    3    3    0    0 -0.12945479471E+02  0.84789273184E+01 -0.19975909165E+02  0.25268846322E+02  0.51100000000E-03 0. -1.
        -11    1    3    3    0    0 -0.17775548581E+02  0.82396345278E+01 -0.64126278664E+00  0.19602880471E+02  0.51100000000E-03 0.  1.
        -12    1    3    3    0    0  0.89509357335E+01 -0.11140049156E+02 -0.20028137943E+01  0.14430218599E+02  0.00000000000E+00 0.  1.
</event>
<event>
 7    1  0.1205909E-011  0.5930194E+02  0.7816164E-02  0.1266605E+00
        -11   -1    0    0    0    0  0.00000000000E+00  0.00000000000E+00  0.45593999997E+02  0.45594000000E+02  0.51100000000E-03 0.  1.
         11   -1    0    0    0    0 -0.00000000000E+00 -0.00000000000E+00 -0.45593999997E+02  0.45594000000E+02  0.51100000000E-03 0. -1.
    9900012    2    1    2    0    0  0.30612017824E+02 -0.18495036352E+01  0.87295167511E+01  0.59301940951E+02  0.49999994389E+02 0.  0.
         12    1    1    2    0    0 -0.30612017824E+02  0.18495036352E+01 -0.87295167511E+01  0.31886059049E+02  0.00000000000E+00 0. -1.
         11    1    3    3    0    0  0.11272442008E+02  0.44664149190E+01 -0.21923430519E+00  0.12127030757E+02  0.51100000000E-03 0. -1.
        -11    1    3    3    0    0  0.27289300744E+02 -0.12913206787E+02 -0.41699095839E+01  0.30476958360E+02  0.51100000000E-03 0.  1.
        -12    1    3    3    0    0 -0.79497249282E+01  0.65972882333E+01  0.13118660640E+02  0.16697951834E+02  0.00000000000E+00 0.  1.
</event>
<event>
 7    1  0.1205909E-011  0.5930194E+02  0.7816164E-02  0.1266605E+00
        -11   -1    0    0    0    0  0.00000000000E+00  0.00000000000E+00  0.45593999997E+02  0.45594000000E+02  0.51100000000E-03 0.  1.
         11   -1    0    0    0    0 -0.00000000000E+00 -0.00000000000E+00 -0.45593999997E+02  0.45594000000E+02  0.51100000000E-03 0. -1.
    9900012    2    1    2    0    0  0.39946918606E+01  0.56867016188E+01  0.31119523265E+02  0.59301939306E+02  0.49999991388E+02 0.  0.
         12    1    1    2    0    0 -0.39946918606E+01 -0.56867016188E+01 -0.31119523265E+02  0.31886060694E+02  0.00000000000E+00 0. -1.
         11    1    3    3    0    0 -0.38290291180E+01  0.79718820536E+00  0.31648065411E+01  0.50312000284E+01  0.51100000000E-03 0. -1.
        -11    1    3    3    0    0  0.10336994544E+02 -0.18235261196E+02  0.21727995488E+02  0.30190793220E+02  0.51100000000E-03 0.  1.
         12    1    3    3    0    0 -0.25132735658E+01  0.23124774609E+02  0.62267212365E+01  0.24079946057E+02  0.00000000000E+00 0. -1.
</event>
<event>
 7    1  0.1205909E-011  0.5930197E+02  0.7816164E-02  0.1266605E+00
        -11   -1    0    0    0    0  0.00000000000E+00  0.00000000000E+00  0.45593999997E+02  0.45594000000E+02  0.51100000000E-03 0. -1.
         11   -1    0    0    0    0 -0.00000000000E+00 -0.00000000000E+00 -0.45593999997E+02  0.45594000000E+02  0.51100000000E-03 0.  1.
    9900012    2    1    2    0    0  0.18525840852E+01  0.30346668956E+02 -0.96107512358E+01  0.59301969770E+02  0.50000046948E+02 0.  0.
         12    1    1    2    0    0 -0.18525840852E+01 -0.30346668956E+02  0.96107512358E+01  0.31886030230E+02  0.00000000000E+00 0. -1.
         11    1    3    3    0    0  0.15262178869E+02 -0.13485143529E+01 -0.27426885491E+01  0.15565183440E+02  0.51100000000E-03 0. -1.
        -11    1    3    3    0    0  0.86621353694E+00  0.16522394821E+02  0.77665911280E+01  0.18277302715E+02  0.51100000000E-03 0.  1.
        -12    1    3    3    0    0 -0.14275808320E+02  0.15172788488E+02 -0.14634653815E+02  0.25459483616E+02  0.00000000000E+00 0.  1.
</event>
<event>
 7    1  0.1205909E-011  0.5930196E+02  0.7816164E-02  0.1266605E+00
        -11   -1    0    0    0    0  0.00000000000E+00  0.00000000000E+00  0.45593999997E+02  0.45594000000E+02  0.51100000000E-03 0.  1.
         11   -1    0    0    0    0 -0.00000000000E+00 -0.00000000000E+00 -0.45593999997E+02  0.45594000000E+02  0.51100000000E-03 0. -1.
    9900012    2    1    2    0    0 -0.28836327017E+02 -0.89922801405E+00  0.13578564482E+02  0.59301956341E+02  0.50000022457E+02 0.  0.
         12    1    1    2    0    0  0.28836327017E+02  0.89922801405E+00 -0.13578564482E+02  0.31886043659E+02  0.00000000000E+00 0. -1.
         11    1    3    3    0    0 -0.17938559871E+02 -0.36285075804E+01  0.12198382610E+02  0.21994511499E+02  0.51100000000E-03 0. -1.
        -11    1    3    3    0    0 -0.14278716490E+02  0.10026368746E+02  0.13981644294E+02  0.22358358443E+02  0.51100000000E-03 0.  1.
         12    1    3    3    0    0  0.33809493442E+01 -0.72970891800E+01 -0.12601462423E+02  0.14949086399E+02  0.00000000000E+00 0. -1.
</event>
<event>
 7    1  0.1205909E-011  0.5930192E+02  0.7816164E-02  0.1266605E+00
        -11   -1    0    0    0    0  0.00000000000E+00  0.00000000000E+00  0.45593999997E+02  0.45594000000E+02  0.51100000000E-03 0.  1.
         11   -1    0    0    0    0 -0.00000000000E+00 -0.00000000000E+00 -0.45593999997E+02  0.45594000000E+02  0.51100000000E-03 0. -1.
    9900012    2    1    2    0    0  0.15670545207E+02  0.21266917532E+02  0.17857056408E+02  0.59301917896E+02  0.49999952341E+02 0.  0.
         12    1    1    2    0    0 -0.15670545207E+02 -0.21266917532E+02 -0.17857056408E+02  0.31886082104E+02  0.00000000000E+00 0. -1.
         11    1    3    3    0    0  0.55135084543E+01 -0.77007138625E+01 -0.93597790438E+00  0.95171332010E+01  0.51100000000E-03 0. -1.
        -11    1    3    3    0    0  0.23074789091E+00  0.32783373109E+01 -0.96494783441E+01  0.10193781079E+02  0.51100000000E-03 0.  1.
        -12    1    3    3    0    0  0.99262888618E+01  0.25689294084E+02  0.28442512656E+02  0.39591003616E+02  0.00000000000E+00 0.  1.
</event>
<event>
 7    1  0.1205909E-011  0.5930193E+02  0.7816164E-02  0.1266605E+00
        -11   -1    0    0    0    0  0.00000000000E+00  0.00000000000E+00  0.45593999997E+02  0.45594000000E+02  0.51100000000E-03 0. -1.
         11   -1    0    0    0    0 -0.00000000000E+00 -0.00000000000E+00 -0.45593999997E+02  0.45594000000E+02  0.51100000000E-03 0.  1.
    9900012    2    1    2    0    0  0.10283268148E+02 -0.30043863049E+02 -0.28882703632E+01  0.59301930685E+02  0.49999975665E+02 0.  0.
         12    1    1    2    0    0 -0.10283268148E+02  0.30043863049E+02  0.28882703632E+01  0.31886069315E+02  0.00000000000E+00 0. -1.
         11    1    3    3    0    0 -0.97776410036E+01 -0.12777156117E+02  0.13850179503E+02  0.21229353606E+02  0.51100000000E-03 0. -1.
        -11    1    3    3    0    0  0.36225412058E+01 -0.14508035200E+02 -0.74446749971E+00  0.14971977901E+02  0.51100000000E-03 0.  1.
        -12    1    3    3    0    0  0.16438367945E+02 -0.27586717326E+01 -0.15993982366E+02  0.23100599178E+02  0.00000000000E+00 0.  1.
</event>
<event>
 7    1  0.1205909E-011  0.5930195E+02  0.7816164E-02  0.1266605E+00
        -11   -1    0    0    0    0  0.00000000000E+00  0.00000000000E+00  0.45593999997E+02  0.45594000000E+02  0.51100000000E-03 0.  1.
         11   -1    0    0    0    0 -0.00000000000E+00 -0.00000000000E+00 -0.45593999997E+02  0.45594000000E+02  0.51100000000E-03 0. -1.
    9900012    2    1    2    0    0  0.21508634578E+02  0.56769244124E+01  0.22844509641E+02  0.59301945793E+02  0.50000003219E+02 0.  0.
         12    1    1    2    0    0 -0.21508634578E+02 -0.56769244124E+01 -0.22844509641E+02  0.31886054207E+02  0.00000000000E+00 0. -1.
         11    1    3    3    0    0  0.31812436779E+01 -0.32543112282E+01 -0.10482584217E+02  0.11427835536E+02  0.51100000000E-03 0. -1.
        -11    1    3    3    0    0  0.21071840540E+02 -0.33534891324E+01  0.17139743371E+02  0.27368579725E+02  0.51100000000E-03 0.  1.
         12    1    3    3    0    0 -0.27444496393E+01  0.12284724773E+02  0.16187350487E+02  0.20505530531E+02  0.00000000000E+00 0. -1.
</event>
<event>
 7    1  0.1447284E-011  0.5930186E+02  0.7816164E-02  0.1266605E+00
        -11   -1    0    0    0    0  0.00000000000E+00  0.00000000000E+00  0.45593999997E+02  0.45594000000E+02  0.51100000000E-03 0. -1.
         11   -1    0    0    0    0 -0.00000000000E+00 -0.00000000000E+00 -0.45593999997E+02  0.45594000000E+02  0.51100000000E-03 0.  1.
    9900012    2    1    2    0    0  0.11651148562E+02  0.13970741172E+02 -0.26187690619E+02  0.59301858627E+02  0.49999844249E+02 0.  0.
         12    1    1    2    0    0 -0.11651148562E+02 -0.13970741172E+02  0.26187690619E+02  0.31886141373E+02  0.00000000000E+00 0. -1.
         11    1    3    3    0    0  0.81033301195E+01 -0.32206082509E+01  0.76418381284E+01  0.11594566261E+02  0.51100000000E-03 0. -1.
        -11    1    3    3    0    0 -0.11018149160E+02  0.58027733622E-01 -0.13154655759E+02  0.17159485614E+02  0.51100000000E-03 0.  1.
        -12    1    3    3    0    0  0.14565967602E+02  0.17133321689E+02 -0.20674872988E+02  0.30547806753E+02  0.00000000000E+00 0.  1.
</event>
<event>
 7    1  0.1205909E-011  0.5930193E+02  0.7816164E-02  0.1266605E+00
        -11   -1    0    0    0    0  0.00000000000E+00  0.00000000000E+00  0.45593999997E+02  0.45594000000E+02  0.51100000000E-03 0.  1.
         11   -1    0    0    0    0 -0.00000000000E+00 -0.00000000000E+00 -0.45593999997E+02  0.45594000000E+02  0.51100000000E-03 0. -1.
    9900012    2    1    2    0    0 -0.18306138249E+01  0.30970634485E+02 -0.73613920766E+01  0.59301930304E+02  0.49999974971E+02 0.  0.
         12    1    1    2    0    0  0.18306138249E+01 -0.30970634485E+02  0.73613920766E+01  0.31886069696E+02  0.00000000000E+00 0. -1.
         11    1    3    3    0    0  0.63388676554E+01 -0.35236225082E+01 -0.40859585015E+01  0.83241946079E+01  0.51100000000E-03 0. -1.
        -11    1    3    3    0    0 -0.14198554741E+02  0.51501158751E+01 -0.12529077153E+02  0.19623975765E+02  0.51100000000E-03 0.  1.
        -12    1    3    3    0    0  0.60290732611E+01  0.29344141118E+02  0.92536435779E+01  0.31353759931E+02  0.00000000000E+00 0.  1.
</event>
<event>
 7    1  0.1205909E-011  0.5930193E+02  0.7816164E-02  0.1266605E+00
        -11   -1    0    0    0    0  0.00000000000E+00  0.00000000000E+00  0.45593999997E+02  0.45594000000E+02  0.51100000000E-03 0.  1.
         11   -1    0    0    0    0 -0.00000000000E+00 -0.00000000000E+00 -0.45593999997E+02  0.45594000000E+02  0.51100000000E-03 0. -1.
    9900012    2    1    2    0    0  0.25221063297E+02 -0.19397853429E+02 -0.20838620097E+01  0.59301933570E+02  0.49999980928E+02 0.  0.
         12    1    1    2    0    0 -0.25221063297E+02  0.19397853429E+02  0.20838620097E+01  0.31886066430E+02  0.00000000000E+00 0. -1.
         11    1    3    3    0    0  0.26203802934E+02 -0.47526115453E+01 -0.20096523602E+01  0.26707027307E+02  0.51100000000E-03 0. -1.
        -11    1    3    3    0    0  0.60925363286E+01  0.60485041541E+01  0.52805170774E+01  0.10079050664E+02  0.51100000000E-03 0.  1.
         12    1    3    3    0    0 -0.70752759652E+01 -0.20693746038E+02 -0.53547267269E+01  0.22515855599E+02  0.00000000000E+00 0. -1.
</event>
<event>
 7    1  0.1205909E-011  0.5930194E+02  0.7816164E-02  0.1266605E+00
        -11   -1    0    0    0    0  0.00000000000E+00  0.00000000000E+00  0.45593999997E+02  0.45594000000E+02  0.51100000000E-03 0.  1.
         11   -1    0    0    0    0 -0.00000000000E+00 -0.00000000000E+00 -0.45593999997E+02  0.45594000000E+02  0.51100000000E-03 0. -1.
    9900012    2    1    2    0    0  0.21132765573E+02 -0.15263776941E+01  0.23828492697E+02  0.59301942328E+02  0.49999996901E+02 0.  0.
         12    1    1    2    0    0 -0.21132765573E+02  0.15263776941E+01 -0.23828492697E+02  0.31886057672E+02  0.00000000000E+00 0. -1.
         11    1    3    3    0    0  0.94273795117E+01 -0.80219473871E+01 -0.42810041940E+01  0.13097867060E+02  0.51100000000E-03 0. -1.
        -11    1    3    3    0    0  0.11834894327E+02 -0.67154042501E+01  0.29920038655E+02  0.32868983728E+02  0.51100000000E-03 0.  1.
         12    1    3    3    0    0 -0.12950826613E+00  0.13210973943E+02 -0.18105417637E+01  0.13335091540E+02  0.00000000000E+00 0. -1.
</event>
<event>
 7    1  0.1205909E-011  0.5930199E+02  0.7816164E-02  0.1266605E+00
        -11   -1    0    0    0    0  0.00000000000E+00  0.00000000000E+00  0.45593999997E+02  0.45594000000E+02  0.51100000000E-03 0.  1.
         11   -1    0    0    0    0 -0.00000000000E+00 -0.00000000000E+00 -0.45593999997E+02  0.45594000000E+02  0.51100000000E-03 0. -1.
    9900012    2    1    2    0    0 -0.19991889892E+02  0.11268644417E+02  0.22137290807E+02  0.59301989702E+02  0.50000083300E+02 0.  0.
         12    1    1    2    0    0  0.19991889892E+02 -0.11268644417E+02 -0.22137290807E+02  0.31886010298E+02  0.00000000000E+00 0. -1.
         11    1    3    3    0    0  0.63029405974E+01 -0.11078962194E+02  0.16134297813E+01  0.12848097890E+02  0.51100000000E-03 0. -1.
        -11    1    3    3    0    0 -0.22847615489E+01 -0.41158337786E+01 -0.89784214349E+00  0.47923213377E+01  0.51100000000E-03 0.  1.
        -12    1    3    3    0    0 -0.24010068940E+02  0.26463440389E+02  0.21421703169E+02  0.41661570475E+02  0.00000000000E+00 0.  1.
</event>
<event>
 7    1  0.1205909E-011  0.5930198E+02  0.7816164E-02  0.1266605E+00
        -11   -1    0    0    0    0  0.00000000000E+00  0.00000000000E+00  0.45593999997E+02  0.45594000000E+02  0.51100000000E-03 0.  1.
         11   -1    0    0    0    0 -0.00000000000E+00 -0.00000000000E+00 -0.45593999997E+02  0.45594000000E+02  0.51100000000E-03 0. -1.
    9900012    2    1    2    0    0 -0.19256746569E+02 -0.11798870612E+02  0.22509607869E+02  0.59301982961E+02  0.50000071006E+02 0.  0.
         12    1    1    2    0    0  0.19256746569E+02  0.11798870612E+02 -0.22509607869E+02  0.31886017039E+02  0.00000000000E+00 0. -1.
         11    1    3    3    0    0 -0.51635893011E+00 -0.28640655438E+01  0.35976412774E+01  0.46273665303E+01  0.51100000000E-03 0. -1.
        -11    1    3    3    0    0 -0.99062864070E+01  0.77737119695E+01  0.30158237708E+02  0.32681560704E+02  0.51100000000E-03 0.  1.
         12    1    3    3    0    0 -0.88341012321E+01 -0.16708517038E+02 -0.11246271116E+02  0.21993055727E+02  0.00000000000E+00 0. -1.
</event>
<event>
 7    1  0.1205909E-011  0.5930183E+02  0.7816164E-02  0.1266605E+00
        -11   -1    0    0    0    0  0.00000000000E+00  0.00000000000E+00  0.45593999997E+02  0.45594000000E+02  0.51100000000E-03 0.  1.
         11   -1    0    0    0    0 -0.00000000000E+00 -0.00000000000E+00 -0.45593999997E+02  0.45594000000E+02  0.51100000000E-03 0. -1.
    9900012    2    1    2    0    0  0.12200060834E+02 -0.29421641160E+02 -0.15010763743E+01  0.59301832416E+02  0.49999796447E+02 0.  0.
         12    1    1    2    0    0 -0.12200060834E+02  0.29421641160E+02  0.15010763743E+01  0.31886167584E+02  0.00000000000E+00 0. -1.
         11    1    3    3    0    0  0.15367952547E+01 -0.65790580337E+01 -0.59029423997E+01  0.89716483157E+01  0.51100000000E-03 0. -1.
        -11    1    3    3    0    0 -0.14472803168E+02 -0.14296097488E+02 -0.68916327984E+01  0.21478711270E+02  0.51100000000E-03 0.  1.
         12    1    3    3    0    0  0.25136068747E+02 -0.85464856382E+01  0.11293498824E+02  0.28851472830E+02  0.00000000000E+00 0. -1.
</event>
<event>
 7    1  0.1205909E-011  0.5930197E+02  0.7816164E-02  0.1266605E+00
        -11   -1    0    0    0    0  0.00000000000E+00  0.00000000000E+00  0.45593999997E+02  0.45594000000E+02  0.51100000000E-03 0. -1.
         11   -1    0    0    0    0 -0.00000000000E+00 -0.00000000000E+00 -0.45593999997E+02  0.45594000000E+02  0.51100000000E-03 0.  1.
    9900012    2    1    2    0    0  0.16938992847E+02 -0.25477253902E+02 -0.89832631511E+01  0.59301969173E+02  0.50000045860E+02 0.  0.
         12    1    1    2    0    0 -0.16938992847E+02  0.25477253902E+02  0.89832631511E+01  0.31886030827E+02  0.00000000000E+00 0. -1.
         11    1    3    3    0    0  0.19168814701E+02 -0.11479337519E+02  0.43653419030E+01  0.22765650817E+02  0.51100000000E-03 0. -1.
        -11    1    3    3    0    0  0.43208399203E+01  0.76123629272E+01 -0.10663489216E+02  0.13795931627E+02  0.51100000000E-03 0.  1.
        -12    1    3    3    0    0 -0.65506617746E+01 -0.21610279310E+02 -0.26851158385E+01  0.22740386730E+02  0.00000000000E+00 0.  1.
</event>
<event>
 7    1  0.1205909E-011  0.5930194E+02  0.7816164E-02  0.1266605E+00
        -11   -1    0    0    0    0  0.00000000000E+00  0.00000000000E+00  0.45593999997E+02  0.45594000000E+02  0.51100000000E-03 0. -1.
         11   -1    0    0    0    0 -0.00000000000E+00 -0.00000000000E+00 -0.45593999997E+02  0.45594000000E+02  0.51100000000E-03 0.  1.
    9900012    2    1    2    0    0 -0.21080182573E+01  0.79123970733E+01 -0.30816729768E+02  0.59301943455E+02  0.49999998955E+02 0.  0.
         12    1    1    2    0    0  0.21080182573E+01 -0.79123970733E+01  0.30816729768E+02  0.31886056545E+02  0.00000000000E+00 0. -1.
         11    1    3    3    0    0  0.82468092628E+01  0.97918962215E+01 -0.44579067345E+01  0.13555959108E+02  0.51100000000E-03 0. -1.
        -11    1    3    3    0    0 -0.12504825771E+02  0.14165340759E+02 -0.21961193260E+02  0.28971046858E+02  0.51100000000E-03 0.  1.
         12    1    3    3    0    0  0.21499982512E+01 -0.16044839907E+02 -0.43976297733E+01  0.16774937489E+02  0.00000000000E+00 0. -1.
</event>
<event>
 7    1  0.1205909E-011  0.5930193E+02  0.7816164E-02  0.1266605E+00
        -11   -1    0    0    0    0  0.00000000000E+00  0.00000000000E+00  0.45593999997E+02  0.45594000000E+02  0.51100000000E-03 0.  1.
         11   -1    0    0    0    0 -0.00000000000E+00 -0.00000000000E+00 -0.45593999997E+02  0.45594000000E+02  0.51100000000E-03 0. -1.
    9900012    2    1    2    0    0 -0.85620224808E+01  0.11921453834E+02  0.28307101448E+02  0.59301932778E+02  0.49999979484E+02 0.  0.
         12    1    1    2    0    0  0.85620224808E+01 -0.11921453834E+02 -0.28307101448E+02  0.31886067222E+02  0.00000000000E+00 0. -1.
         11    1    3    3    0    0  0.11478752743E+02  0.94579975295E+01  0.18309226854E+01  0.14985585072E+02  0.51100000000E-03 0. -1.
        -11    1    3    3    0    0 -0.35875213790E+00 -0.11436469630E+02  0.84163350719E+01  0.14204092263E+02  0.51100000000E-03 0.  1.
        -12    1    3    3    0    0 -0.19682023086E+02  0.13899925935E+02  0.18059843691E+02  0.30112255444E+02  0.00000000000E+00 0.  1.
</event>
<event>
 7    1  0.1205909E-011  0.5930194E+02  0.7816164E-02  0.1266605E+00
        -11   -1    0    0    0    0  0.00000000000E+00  0.00000000000E+00  0.45593999997E+02  0.45594000000E+02  0.51100000000E-03 0. -1.
         11   -1    0    0    0    0 -0.00000000000E+00 -0.00000000000E+00 -0.45593999997E+02  0.45594000000E+02  0.51100000000E-03 0.  1.
    9900012    2    1    2    0    0  0.46313155716E+01 -0.30280822435E+02  0.88512006576E+01  0.59301936519E+02  0.49999986306E+02 0.  0.
         12    1    1    2    0    0 -0.46313155716E+01  0.30280822435E+02 -0.88512006576E+01  0.31886063481E+02  0.00000000000E+00 0. -1.
         11    1    3    3    0    0 -0.55850661102E+01 -0.63133386129E+00  0.22795665058E+01  0.60653086990E+01  0.51100000000E-03 0. -1.
        -11    1    3    3    0    0  0.26251552863E+02 -0.15182895252E+02  0.86631165370E+01  0.31539085661E+02  0.51100000000E-03 0.  1.
         12    1    3    3    0    0 -0.16035171182E+02 -0.14466593322E+02 -0.20914823852E+01  0.21697542159E+02  0.00000000000E+00 0. -1.
</event>
<event>
 7    1  0.1205909E-011  0.5930194E+02  0.7816164E-02  0.1266605E+00
        -11   -1    0    0    0    0  0.00000000000E+00  0.00000000000E+00  0.45593999997E+02  0.45594000000E+02  0.51100000000E-03 0.  1.
         11   -1    0    0    0    0 -0.00000000000E+00 -0.00000000000E+00 -0.45593999997E+02  0.45594000000E+02  0.51100000000E-03 0. -1.
    9900012    2    1    2    0    0 -0.88047480421E+01 -0.64104729437E+01  0.29968365671E+02  0.59301942037E+02  0.49999996370E+02 0.  0.
         12    1    1    2    0    0  0.88047480421E+01  0.64104729437E+01 -0.29968365671E+02  0.31886057963E+02  0.00000000000E+00 0. -1.
         11    1    3    3    0    0 -0.11944974174E+02  0.13837485378E+02 -0.39386606952E+01  0.18699504217E+02  0.51100000000E-03 0. -1.
        -11    1    3    3    0    0  0.20482359804E+01 -0.48170754702E+01  0.16521940101E+02  0.17331300923E+02  0.51100000000E-03 0.  1.
        -12    1    3    3    0    0  0.10919901516E+01 -0.15430882852E+02  0.17385086265E+02  0.23271136898E+02  0.00000000000E+00 0.  1.
</event>
<event>
 7    1  0.1205909E-011  0.5930191E+02  0.7816164E-02  0.1266605E+00
        -11   -1    0    0    0    0  0.00000000000E+00  0.00000000000E+00  0.45593999997E+02  0.45594000000E+02  0.51100000000E-03 0. -1.
         11   -1    0    0    0    0 -0.00000000000E+00 -0.00000000000E+00 -0.45593999997E+02  0.45594000000E+02  0.51100000000E-03 0.  1.
    9900012    2    1    2    0    0  0.30665855824E+02 -0.17310471008E+01 -0.85633649798E+01  0.59301914362E+02  0.49999945898E+02 0.  0.
         12    1    1    2    0    0 -0.30665855824E+02  0.17310471008E+01  0.85633649798E+01  0.31886085638E+02  0.00000000000E+00 0. -1.
         11    1    3    3    0    0  0.53023944314E+01  0.37279402566E+01 -0.14104184140E+02  0.15522272249E+02  0.51100000000E-03 0. -1.
        -11    1    3    3    0    0 -0.60943734969E+01  0.57531730104E+01 -0.36508139738E+01  0.91415989269E+01  0.51100000000E-03 0.  1.
        -12    1    3    3    0    0  0.31457834890E+02 -0.11212160368E+02  0.91916331344E+01  0.34638043186E+02  0.00000000000E+00 0.  1.
</event>
<event>
 7    1  0.1205909E-011  0.5930194E+02  0.7816164E-02  0.1266605E+00
        -11   -1    0    0    0    0  0.00000000000E+00  0.00000000000E+00  0.45593999997E+02  0.45594000000E+02  0.51100000000E-03 0.  1.
         11   -1    0    0    0    0 -0.00000000000E+00 -0.00000000000E+00 -0.45593999997E+02  0.45594000000E+02  0.51100000000E-03 0. -1.
    9900012    2    1    2    0    0  0.17215809648E+02 -0.15902374532E+02  0.21620623760E+02  0.59301937381E+02  0.49999987877E+02 0.  0.
         12    1    1    2    0    0 -0.17215809648E+02  0.15902374532E+02 -0.21620623760E+02  0.31886062619E+02  0.00000000000E+00 0. -1.
         11    1    3    3    0    0  0.30481449830E+01  0.44321259743E+01 -0.10298074242E+02  0.11618315792E+02  0.51100000000E-03 0. -1.
        -11    1    3    3    0    0  0.21551288255E+01  0.59900922981E+01  0.42963538142E+01  0.76801329645E+01  0.51100000000E-03 0.  1.
        -12    1    3    3    0    0  0.12012535840E+02 -0.26324592805E+02  0.27622344188E+02  0.40003488624E+02  0.00000000000E+00 0.  1.
</event>
<event>
 7    1  0.1205909E-011  0.5930207E+02  0.7816164E-02  0.1266604E+00
        -11   -1    0    0    0    0  0.00000000000E+00  0.00000000000E+00  0.45593999997E+02  0.45594000000E+02  0.51100000000E-03 0.  1.
         11   -1    0    0    0    0 -0.00000000000E+00 -0.00000000000E+00 -0.45593999997E+02  0.45594000000E+02  0.51100000000E-03 0. -1.
    9900012    2    1    2    0    0 -0.39735579872E+01 -0.28384125750E+02  0.13973708205E+02  0.59302073972E+02  0.50000236987E+02 0.  0.
         12    1    1    2    0    0  0.39735579872E+01  0.28384125750E+02 -0.13973708205E+02  0.31885926028E+02  0.00000000000E+00 0. -1.
         11    1    3    3    0    0  0.37104533265E+01 -0.19035937204E+02 -0.11144212497E+02  0.22368009334E+02  0.51100000000E-03 0. -1.
        -11    1    3    3    0    0 -0.32247690020E+00 -0.16646725080E+02  0.16679249037E+02  0.23567239888E+02  0.51100000000E-03 0.  1.
         12    1    3    3    0    0 -0.73615344135E+01  0.72985365335E+01  0.84386716643E+01  0.13366824750E+02  0.00000000000E+00 0. -1.
</event>
<event>
 7    1  0.1205909E-011  0.5930194E+02  0.7816164E-02  0.1266605E+00
        -11   -1    0    0    0    0  0.00000000000E+00  0.00000000000E+00  0.45593999997E+02  0.45594000000E+02  0.51100000000E-03 0.  1.
         11   -1    0    0    0    0 -0.00000000000E+00 -0.00000000000E+00 -0.45593999997E+02  0.45594000000E+02  0.51100000000E-03 0. -1.
    9900012    2    1    2    0    0  0.31508476595E+02  0.27718159674E+01  0.40316093057E+01  0.59301938238E+02  0.49999989441E+02 0.  0.
         12    1    1    2    0    0 -0.31508476595E+02 -0.27718159674E+01 -0.40316093057E+01  0.31886061762E+02  0.00000000000E+00 0. -1.
         11    1    3    3    0    0 -0.33367865309E+01 -0.11319830430E+02 -0.74570411366E+01  0.13959948714E+02  0.51100000000E-03 0. -1.
        -11    1    3    3    0    0  0.15260934197E+02 -0.54233435137E+01  0.48889541488E+01  0.16917761092E+02  0.51100000000E-03 0.  1.
        -12    1    3    3    0    0  0.19584328929E+02  0.19514989911E+02  0.65996962935E+01  0.28424228433E+02  0.00000000000E+00 0.  1.
</event>
<event>
 7    1  0.1205909E-011  0.5930193E+02  0.7816164E-02  0.1266605E+00
        -11   -1    0    0    0    0  0.00000000000E+00  0.00000000000E+00  0.45593999997E+02  0.45594000000E+02  0.51100000000E-03 0. -1.
         11   -1    0    0    0    0 -0.00000000000E+00 -0.00000000000E+00 -0.45593999997E+02  0.45594000000E+02  0.51100000000E-03 0.  1.
    9900012    2    1    2    0    0  0.15845476211E+02  0.76672741002E+01 -0.26586745294E+02  0.59301933548E+02  0.49999980887E+02 0.  0.
         12    1    1    2    0    0 -0.15845476211E+02 -0.76672741002E+01  0.26586745294E+02  0.31886066452E+02  0.00000000000E+00 0. -1.
         11    1    3    3    0    0  0.14673931276E+02 -0.34437967089E+01 -0.12018792505E+02  0.19277846571E+02  0.51100000000E-03 0. -1.
        -11    1    3    3    0    0 -0.44604852615E+01  0.16486050537E+02 -0.22934885668E+02  0.28595362770E+02  0.51100000000E-03 0.  1.
         12    1    3    3    0    0  0.56320301958E+01 -0.53749797275E+01  0.83669328787E+01  0.11428724207E+02  0.00000000000E+00 0. -1.
</event>
<event>
 7    1  0.1205909E-011  0.5930192E+02  0.7816164E-02  0.1266605E+00
        -11   -1    0    0    0    0  0.00000000000E+00  0.00000000000E+00  0.45593999997E+02  0.45594000000E+02  0.51100000000E-03 0.  1.
         11   -1    0    0    0    0 -0.00000000000E+00 -0.00000000000E+00 -0.45593999997E+02  0.45594000000E+02  0.51100000000E-03 0. -1.
    9900012    2    1    2    0    0  0.26562587034E+02  0.16848878762E+02  0.52216914461E+01  0.59301924559E+02  0.49999964494E+02 0.  0.
         12    1    1    2    0    0 -0.26562587034E+02 -0.16848878762E+02 -0.52216914461E+01  0.31886075441E+02  0.00000000000E+00 0. -1.
         11    1    3    3    0    0  0.13483747127E+02 -0.13385154635E+02  0.98138486942E+01  0.21384233155E+02  0.51100000000E-03 0. -1.
        -11    1    3    3    0    0  0.14559454770E+01 -0.21908252399E+01  0.13613721481E+01  0.29618958203E+01  0.51100000000E-03 0.  1.
        -12    1    3    3    0    0  0.11622894430E+02  0.32424858637E+02 -0.59535293962E+01  0.34955795583E+02  0.00000000000E+00 0.  1.
</event>
<event>
 7    1  0.1205909E-011  0.5930195E+02  0.7816164E-02  0.1266605E+00
        -11   -1    0    0    0    0  0.00000000000E+00  0.00000000000E+00  0.45593999997E+02  0.45594000000E+02  0.51100000000E-03 0. -1.
         11   -1    0    0    0    0 -0.00000000000E+00 -0.00000000000E+00 -0.45593999997E+02  0.45594000000E+02  0.51100000000E-03 0.  1.
    9900012    2    1    2    0    0  0.91474017176E+01 -0.30089717025E+02 -0.52587490319E+01  0.59301945522E+02  0.50000002725E+02 0.  0.
         12    1    1    2    0    0 -0.91474017176E+01  0.30089717025E+02  0.52587490319E+01  0.31886054478E+02  0.00000000000E+00 0. -1.
         11    1    3    3    0    0  0.19455730217E+01  0.38615141575E+01 -0.76607921152E+01  0.87968336386E+01  0.51100000000E-03 0. -1.
        -11    1    3    3    0    0 -0.13991935772E+02 -0.21363741945E+02 -0.13385928822E+01  0.25572946011E+02  0.51100000000E-03 0.  1.
         12    1    3    3    0    0  0.21193764468E+02 -0.12587489238E+02  0.37406359655E+01  0.24932165872E+02  0.00000000000E+00 0. -1.
</event>
<event>
 7    1  0.1205909E-011  0.5930194E+02  0.7816164E-02  0.1266605E+00
        -11   -1    0    0    0    0  0.00000000000E+00  0.00000000000E+00  0.45593999997E+02  0.45594000000E+02  0.51100000000E-03 0.  1.
         11   -1    0    0    0    0 -0.00000000000E+00 -0.00000000000E+00 -0.45593999997E+02  0.45594000000E+02  0.51100000000E-03 0. -1.
    9900012    2    1    2    0    0  0.10461031920E+02  0.15364752938E+02  0.25907756395E+02  0.59301942497E+02  0.49999997208E+02 0.  0.
         12    1    1    2    0    0 -0.10461031920E+02 -0.15364752938E+02 -0.25907756395E+02  0.31886057503E+02  0.00000000000E+00 0. -1.
         11    1    3    3    0    0 -0.66949184733E+01 -0.58412713902E+01 -0.64236775718E+01  0.10963850538E+02  0.51100000000E-03 0. -1.
        -11    1    3    3    0    0  0.72872382094E+01  0.18599250345E+02  0.72356882828E+01  0.21245967601E+02  0.51100000000E-03 0.  1.
        -12    1    3    3    0    0  0.98687121835E+01  0.26067739829E+01  0.25095745684E+02  0.27092124357E+02  0.00000000000E+00 0.  1.
</event>
<event>
 7    1  0.1205909E-011  0.5930194E+02  0.7816164E-02  0.1266605E+00
        -11   -1    0    0    0    0  0.00000000000E+00  0.00000000000E+00  0.45593999997E+02  0.45594000000E+02  0.51100000000E-03 0. -1.
         11   -1    0    0    0    0 -0.00000000000E+00 -0.00000000000E+00 -0.45593999997E+02  0.45594000000E+02  0.51100000000E-03 0.  1.
    9900012    2    1    2    0    0  0.28321575282E+02  0.14187495372E+02 -0.36502272105E+01  0.59301940192E+02  0.49999993005E+02 0.  0.
         12    1    1    2    0    0 -0.28321575282E+02 -0.14187495372E+02  0.36502272105E+01  0.31886059808E+02  0.00000000000E+00 0. -1.
         11    1    3    3    0    0  0.13388201457E+02  0.82983671454E+01  0.56717514231E+01  0.16741433630E+02  0.51100000000E-03 0. -1.
        -11    1    3    3    0    0  0.27691435913E+02  0.45957894956E+01 -0.97901751154E+01  0.29728512124E+02  0.51100000000E-03 0.  1.
         12    1    3    3    0    0 -0.12758062088E+02  0.12933387305E+01  0.46819648185E+00  0.12831994438E+02  0.00000000000E+00 0. -1.
</event>
<event>
 7    1  0.1205909E-011  0.5930209E+02  0.7816164E-02  0.1266604E+00
        -11   -1    0    0    0    0  0.00000000000E+00  0.00000000000E+00  0.45593999997E+02  0.45594000000E+02  0.51100000000E-03 0. -1.
         11   -1    0    0    0    0 -0.00000000000E+00 -0.00000000000E+00 -0.45593999997E+02  0.45594000000E+02  0.51100000000E-03 0.  1.
    9900012    2    1    2    0    0  0.24624607576E+02  0.83916087490E+00 -0.20239453836E+02  0.59302094323E+02  0.50000274102E+02 0.  0.
         12    1    1    2    0    0 -0.24624607576E+02 -0.83916087490E+00  0.20239453836E+02  0.31885905677E+02  0.00000000000E+00 0. -1.
         11    1    3    3    0    0  0.99063814174E+01  0.17268642840E+02 -0.84988353128E+01  0.21646538297E+02  0.51100000000E-03 0. -1.
        -11    1    3    3    0    0  0.37441358900E+01  0.24657779947E+01 -0.14915984524E+02  0.15575147167E+02  0.51100000000E-03 0.  1.
         12    1    3    3    0    0  0.10974090268E+02 -0.18895259959E+02  0.31753660004E+01  0.22080408859E+02  0.00000000000E+00 0. -1.
</event>
<event>
 7    1  0.1205909E-011  0.5930195E+02  0.7816164E-02  0.1266605E+00
        -11   -1    0    0    0    0  0.00000000000E+00  0.00000000000E+00  0.45593999997E+02  0.45594000000E+02  0.51100000000E-03 0.  1.
         11   -1    0    0    0    0 -0.00000000000E+00 -0.00000000000E+00 -0.45593999997E+02  0.45594000000E+02  0.51100000000E-03 0. -1.
    9900012    2    1    2    0    0 -0.73438836356E+01 -0.29619297818E+02  0.92457914369E+01  0.59301951494E+02  0.50000013616E+02 0.  0.
         12    1    1    2    0    0  0.73438836356E+01  0.29619297818E+02 -0.92457914369E+01  0.31886048506E+02  0.00000000000E+00 0. -1.
         11    1    3    3    0    0 -0.24282061318E+01 -0.10083473682E+01  0.19985883806E+01  0.33026209607E+01  0.51100000000E-03 0. -1.
        -11    1    3    3    0    0  0.34310232197E+01 -0.40151215805E+02  0.99382661904E+01  0.41504953753E+02  0.51100000000E-03 0.  1.
         12    1    3    3    0    0 -0.83467007234E+01  0.11540265355E+02 -0.26910631341E+01  0.14494376780E+02  0.00000000000E+00 0. -1.
</event>
<event>
 7    1  0.1205909E-011  0.5930195E+02  0.7816164E-02  0.1266605E+00
        -11   -1    0    0    0    0  0.00000000000E+00  0.00000000000E+00  0.45593999997E+02  0.45594000000E+02  0.51100000000E-03 0.  1.
         11   -1    0    0    0    0 -0.00000000000E+00 -0.00000000000E+00 -0.45593999997E+02  0.45594000000E+02  0.51100000000E-03 0. -1.
    9900012    2    1    2    0    0 -0.12482369741E+02 -0.27320696181E+02  0.10699998640E+02  0.59301953443E+02  0.50000017171E+02 0.  0.
         12    1    1    2    0    0  0.12482369741E+02  0.27320696181E+02 -0.10699998640E+02  0.31886046557E+02  0.00000000000E+00 0. -1.
         11    1    3    3    0    0 -0.98273778255E+01 -0.25867101583E+01 -0.40923289638E+01  0.10955162298E+02  0.51100000000E-03 0. -1.
        -11    1    3    3    0    0 -0.83564569389E+01 -0.26529386504E+02 -0.44763380523E+01  0.28172261597E+02  0.51100000000E-03 0.  1.
         12    1    3    3    0    0  0.57014650236E+01  0.17954004818E+01  0.19268665656E+02  0.20174529548E+02  0.00000000000E+00 0. -1.
</event>
<event>
 7    1  0.1205909E-011  0.5930192E+02  0.7816164E-02  0.1266605E+00
        -11   -1    0    0    0    0  0.00000000000E+00  0.00000000000E+00  0.45593999997E+02  0.45594000000E+02  0.51100000000E-03 0.  1.
         11   -1    0    0    0    0 -0.00000000000E+00 -0.00000000000E+00 -0.45593999997E+02  0.45594000000E+02  0.51100000000E-03 0. -1.
    9900012    2    1    2    0    0  0.12164271207E+02  0.29312938403E+02  0.30828808492E+01  0.59301921437E+02  0.49999958800E+02 0.  0.
         12    1    1    2    0    0 -0.12164271207E+02 -0.29312938403E+02 -0.30828808492E+01  0.31886078563E+02  0.00000000000E+00 0. -1.
         11    1    3    3    0    0  0.23384411718E+02  0.17084278141E+02  0.15221115037E+02  0.32716748222E+02  0.51100000000E-03 0.  1.
        -11    1    3    3    0    0 -0.64867399129E+00  0.19334831602E+00 -0.10456352548E+02  0.10478237943E+02  0.51100000000E-03 0. -1.
        -12    1    3    3    0    0 -0.10571466520E+02  0.12035311945E+02 -0.16818816395E+01  0.16106935272E+02  0.00000000000E+00 0.  1.
</event>
<event>
 7    1  0.1205909E-011  0.5930196E+02  0.7816164E-02  0.1266605E+00
        -11   -1    0    0    0    0  0.00000000000E+00  0.00000000000E+00  0.45593999997E+02  0.45594000000E+02  0.51100000000E-03 0. -1.
         11   -1    0    0    0    0 -0.00000000000E+00 -0.00000000000E+00 -0.45593999997E+02  0.45594000000E+02  0.51100000000E-03 0.  1.
    9900012    2    1    2    0    0  0.99304777413E+01  0.22978541153E+02  0.19750748330E+02  0.59301956011E+02  0.50000021854E+02 0.  0.
         12    1    1    2    0    0 -0.99304777413E+01 -0.22978541153E+02 -0.19750748330E+02  0.31886043989E+02  0.00000000000E+00 0. -1.
         11    1    3    3    0    0  0.35470188290E+01  0.97196421469E+00  0.34034206018E+01  0.50109209794E+01  0.51100000000E-03 0. -1.
        -11    1    3    3    0    0  0.21603559611E+02  0.17186799490E+01  0.18959329245E+02  0.28794510142E+02  0.51100000000E-03 0.  1.
         12    1    3    3    0    0 -0.15220100699E+02  0.20287896989E+02 -0.26120015161E+01  0.25496524890E+02  0.00000000000E+00 0. -1.
</event>
<event>
 7    1  0.1205909E-011  0.5930193E+02  0.7816164E-02  0.1266605E+00
        -11   -1    0    0    0    0  0.00000000000E+00  0.00000000000E+00  0.45593999997E+02  0.45594000000E+02  0.51100000000E-03 0. -1.
         11   -1    0    0    0    0 -0.00000000000E+00 -0.00000000000E+00 -0.45593999997E+02  0.45594000000E+02  0.51100000000E-03 0.  1.
    9900012    2    1    2    0    0 -0.86279139206E+01  0.26279503032E+02 -0.15864047432E+02  0.59301934404E+02  0.49999982449E+02 0.  0.
         12    1    1    2    0    0  0.86279139206E+01 -0.26279503032E+02  0.15864047432E+02  0.31886065596E+02  0.00000000000E+00 0. -1.
         11    1    3    3    0    0 -0.17811897098E+02 -0.49381652577E+00  0.58018115081E+01  0.18739491723E+02  0.51100000000E-03 0. -1.
        -11    1    3    3    0    0 -0.59341615825E+01  0.10477353288E+02 -0.69302112050E+01  0.13893057015E+02  0.51100000000E-03 0.  1.
        -12    1    3    3    0    0  0.15118144760E+02  0.16295966270E+02 -0.14735647735E+02  0.26669385667E+02  0.00000000000E+00 0.  1.
</event>
<event>
 7    1  0.1205909E-011  0.5930205E+02  0.7816164E-02  0.1266604E+00
        -11   -1    0    0    0    0  0.00000000000E+00  0.00000000000E+00  0.45593999997E+02  0.45594000000E+02  0.51100000000E-03 0. -1.
         11   -1    0    0    0    0 -0.00000000000E+00 -0.00000000000E+00 -0.45593999997E+02  0.45594000000E+02  0.51100000000E-03 0.  1.
    9900012    2    1    2    0    0  0.42233652324E+01  0.31437323071E+02  0.32514169457E+01  0.59302049992E+02  0.50000193253E+02 0.  0.
         12    1    1    2    0    0 -0.42233652324E+01 -0.31437323071E+02 -0.32514169457E+01  0.31885950008E+02  0.00000000000E+00 0. -1.
         11    1    3    3    0    0 -0.19239215429E+01 -0.73238049339E+00  0.12304778802E+00  0.20622793966E+01  0.51100000000E-03 0. -1.
        -11    1    3    3    0    0  0.21143227706E+02  0.32915499543E+01 -0.80079639949E+01  0.22847272628E+02  0.51100000000E-03 0.  1.
         12    1    3    3    0    0 -0.14995940931E+02  0.28878153610E+02  0.11136333153E+02  0.34392497967E+02  0.00000000000E+00 0. -1.
</event>
<event>
 7    1  0.1205909E-011  0.5930197E+02  0.7816164E-02  0.1266605E+00
        -11   -1    0    0    0    0  0.00000000000E+00  0.00000000000E+00  0.45593999997E+02  0.45594000000E+02  0.51100000000E-03 0. -1.
         11   -1    0    0    0    0 -0.00000000000E+00 -0.00000000000E+00 -0.45593999997E+02  0.45594000000E+02  0.51100000000E-03 0.  1.
    9900012    2    1    2    0    0 -0.62451158023E+01  0.22238308789E+02 -0.21981238078E+02  0.59301973646E+02  0.50000054017E+02 0.  0.
         12    1    1    2    0    0  0.62451158023E+01 -0.22238308789E+02  0.21981238078E+02  0.31886026354E+02  0.00000000000E+00 0. -1.
         11    1    3    3    0    0 -0.37298610940E+01  0.31888271449E+01  0.10532269215E+02  0.11619344965E+02  0.51100000000E-03 0. -1.
        -11    1    3    3    0    0 -0.83612217855E+01  0.39676060879E+01  0.20876420191E+01  0.94873693549E+01  0.51100000000E-03 0.  1.
        -12    1    3    3    0    0  0.58459670772E+01  0.15081875556E+02 -0.34601149312E+02  0.38195259327E+02  0.00000000000E+00 0.  1.
</event>
<event>
 7    1  0.1205909E-011  0.5930208E+02  0.7816164E-02  0.1266604E+00
        -11   -1    0    0    0    0  0.00000000000E+00  0.00000000000E+00  0.45593999997E+02  0.45594000000E+02  0.51100000000E-03 0.  1.
         11   -1    0    0    0    0 -0.00000000000E+00 -0.00000000000E+00 -0.45593999997E+02  0.45594000000E+02  0.51100000000E-03 0. -1.
    9900012    2    1    2    0    0 -0.15094745678E+01 -0.16929339197E+02  0.26978340955E+02  0.59302079600E+02  0.50000247250E+02 0.  0.
         12    1    1    2    0    0  0.15094745678E+01  0.16929339197E+02 -0.26978340955E+02  0.31885920400E+02  0.00000000000E+00 0. -1.
         11    1    3    3    0    0  0.10027680838E+01 -0.64039179473E+01 -0.44107693693E+01  0.78403185902E+01  0.51100000000E-03 0. -1.
        -11    1    3    3    0    0  0.59160990589E+01  0.31002574073E+01 -0.71140614732E+01  0.97581604297E+01  0.51100000000E-03 0.  1.
         12    1    3    3    0    0 -0.84283417105E+01 -0.13625678657E+02  0.38503171797E+02  0.41703600580E+02  0.00000000000E+00 0. -1.
</event>
<event>
 7    1  0.1205909E-011  0.5930195E+02  0.7816164E-02  0.1266605E+00
        -11   -1    0    0    0    0  0.00000000000E+00  0.00000000000E+00  0.45593999997E+02  0.45594000000E+02  0.51100000000E-03 0.  1.
         11   -1    0    0    0    0 -0.00000000000E+00 -0.00000000000E+00 -0.45593999997E+02  0.45594000000E+02  0.51100000000E-03 0. -1.
    9900012    2    1    2    0    0 -0.19400266879E+02 -0.36765748684E+01  0.25036619719E+02  0.59301954703E+02  0.50000019469E+02 0.  0.
         12    1    1    2    0    0  0.19400266879E+02  0.36765748684E+01 -0.25036619719E+02  0.31886045297E+02  0.00000000000E+00 0. -1.
         11    1    3    3    0    0 -0.34649719153E+01  0.62114019110E+01 -0.79697934237E+01  0.10682001290E+02  0.51100000000E-03 0. -1.
        -11    1    3    3    0    0 -0.79265111574E+01  0.84882791422E+01  0.23962511540E+02  0.26628601568E+02  0.51100000000E-03 0.  1.
         12    1    3    3    0    0 -0.80087838061E+01 -0.18376255922E+02  0.90439016029E+01  0.21991351845E+02  0.00000000000E+00 0. -1.
</event>
<event>
 7    1  0.1205909E-011  0.5930194E+02  0.7816164E-02  0.1266605E+00
        -11   -1    0    0    0    0  0.00000000000E+00  0.00000000000E+00  0.45593999997E+02  0.45594000000E+02  0.51100000000E-03 0. -1.
         11   -1    0    0    0    0 -0.00000000000E+00 -0.00000000000E+00 -0.45593999997E+02  0.45594000000E+02  0.51100000000E-03 0.  1.
    9900012    2    1    2    0    0 -0.17337440331E+02 -0.17184137271E+02 -0.20514364666E+02  0.59301943978E+02  0.49999999909E+02 0.  0.
         12    1    1    2    0    0  0.17337440331E+02  0.17184137271E+02  0.20514364666E+02  0.31886056022E+02  0.00000000000E+00 0. -1.
         11    1    3    3    0    0  0.71775302658E+00  0.66948377775E+01 -0.39029835528E+01  0.77826282931E+01  0.51100000000E-03 0. -1.
        -11    1    3    3    0    0 -0.63791094956E+01 -0.13887038795E+02  0.11739843004E+02  0.19270879546E+02  0.51100000000E-03 0.  1.
         12    1    3    3    0    0 -0.11676083862E+02 -0.99919362537E+01 -0.28351224118E+02  0.32248436139E+02  0.00000000000E+00 0. -1.
</event>
<event>
 7    1  0.1205909E-011  0.5930194E+02  0.7816164E-02  0.1266605E+00
        -11   -1    0    0    0    0  0.00000000000E+00  0.00000000000E+00  0.45593999997E+02  0.45594000000E+02  0.51100000000E-03 0.  1.
         11   -1    0    0    0    0 -0.00000000000E+00 -0.00000000000E+00 -0.45593999997E+02  0.45594000000E+02  0.51100000000E-03 0. -1.
    9900012    2    1    2    0    0 -0.23842023116E+02 -0.21172380897E+02  0.96566190512E-01  0.59301935581E+02  0.49999984595E+02 0.  0.
         12    1    1    2    0    0  0.23842023116E+02  0.21172380897E+02 -0.96566190512E-01  0.31886064419E+02  0.00000000000E+00 0. -1.
         11    1    3    3    0    0  0.44118431913E+01 -0.56912608674E+01 -0.25274505647E+01  0.76316981874E+01  0.51100000000E-03 0. -1.
        -11    1    3    3    0    0 -0.19157936323E+02 -0.58765893242E+01  0.21000878811E+02  0.29027534124E+02  0.51100000000E-03 0.  1.
         12    1    3    3    0    0 -0.90959299841E+01 -0.96045307056E+01 -0.18376862055E+02  0.22642703270E+02  0.00000000000E+00 0. -1.
</event>
<event>
 7    1  0.1205909E-011  0.5930192E+02  0.7816164E-02  0.1266605E+00
        -11   -1    0    0    0    0  0.00000000000E+00  0.00000000000E+00  0.45593999997E+02  0.45594000000E+02  0.51100000000E-03 0. -1.
         11   -1    0    0    0    0 -0.00000000000E+00 -0.00000000000E+00 -0.45593999997E+02  0.45594000000E+02  0.51100000000E-03 0.  1.
    9900012    2    1    2    0    0  0.45986112000E+01 -0.22386938855E+02 -0.22235098435E+02  0.59301923749E+02  0.49999963016E+02 0.  0.
         12    1    1    2    0    0 -0.45986112000E+01  0.22386938855E+02  0.22235098435E+02  0.31886076251E+02  0.00000000000E+00 0. -1.
         11    1    3    3    0    0  0.83938254100E+01 -0.14747702383E+02  0.59646996756E+00  0.16979599738E+02  0.51100000000E-03 0. -1.
        -11    1    3    3    0    0 -0.19270099591E+02 -0.31950894769E+01 -0.12288811168E+02  0.23077266199E+02  0.51100000000E-03 0.  1.
         12    1    3    3    0    0  0.15474885381E+02 -0.44441469956E+01 -0.10542757235E+02  0.19245057812E+02  0.00000000000E+00 0. -1.
</event>
<event>
 7    1  0.1205909E-011  0.5930198E+02  0.7816164E-02  0.1266605E+00
        -11   -1    0    0    0    0  0.00000000000E+00  0.00000000000E+00  0.45593999997E+02  0.45594000000E+02  0.51100000000E-03 0. -1.
         11   -1    0    0    0    0 -0.00000000000E+00 -0.00000000000E+00 -0.45593999997E+02  0.45594000000E+02  0.51100000000E-03 0.  1.
    9900012    2    1    2    0    0 -0.25331115225E+02  0.14902800469E+02  0.12367668918E+02  0.59301982769E+02  0.50000070655E+02 0.  0.
         12    1    1    2    0    0  0.25331115225E+02 -0.14902800469E+02 -0.12367668918E+02  0.31886017231E+02  0.00000000000E+00 0. -1.
         11    1    3    3    0    0 -0.10069833564E+02  0.46092605144E+01 -0.10359979919E+02  0.15164960095E+02  0.51100000000E-03 0.  1.
        -11    1    3    3    0    0 -0.64963634737E+01  0.22039972574E+02  0.16071294938E+02  0.28040143556E+02  0.51100000000E-03 0. -1.
         12    1    3    3    0    0 -0.87649181882E+01 -0.11746432619E+02  0.66563538991E+01  0.16096879118E+02  0.00000000000E+00 0. -1.
</event>
<event>
 7    1  0.1205909E-011  0.5930185E+02  0.7816164E-02  0.1266605E+00
        -11   -1    0    0    0    0  0.00000000000E+00  0.00000000000E+00  0.45593999997E+02  0.45594000000E+02  0.51100000000E-03 0.  1.
         11   -1    0    0    0    0 -0.00000000000E+00 -0.00000000000E+00 -0.45593999997E+02  0.45594000000E+02  0.51100000000E-03 0. -1.
    9900012    2    1    2    0    0  0.10246907825E+02 -0.17782752292E+02  0.24402897689E+02  0.59301846035E+02  0.49999821284E+02 0.  0.
         12    1    1    2    0    0 -0.10246907825E+02  0.17782752292E+02 -0.24402897689E+02  0.31886153965E+02  0.00000000000E+00 0. -1.
         11    1    3    3    0    0 -0.77759640296E+01  0.30501372875E+01 -0.96585081210E+01  0.12769327838E+02  0.51100000000E-03 0. -1.
        -11    1    3    3    0    0 -0.11551147131E+01 -0.54147139515E+00 -0.10648176953E+01  0.16617214741E+01  0.51100000000E-03 0.  1.
        -12    1    3    3    0    0  0.19177986568E+02 -0.20291418184E+02  0.35126223505E+02  0.44870796722E+02  0.00000000000E+00 0.  1.
</event>
<event>
 7    1  0.1205909E-011  0.5930194E+02  0.7816164E-02  0.1266605E+00
        -11   -1    0    0    0    0  0.00000000000E+00  0.00000000000E+00  0.45593999997E+02  0.45594000000E+02  0.51100000000E-03 0.  1.
         11   -1    0    0    0    0 -0.00000000000E+00 -0.00000000000E+00 -0.45593999997E+02  0.45594000000E+02  0.51100000000E-03 0. -1.
    9900012    2    1    2    0    0 -0.26269471696E+02 -0.82228649343E+01  0.16094112035E+02  0.59301935754E+02  0.49999984911E+02 0.  0.
         12    1    1    2    0    0  0.26269471696E+02  0.82228649343E+01 -0.16094112035E+02  0.31886064246E+02  0.00000000000E+00 0. -1.
         11    1    3    3    0    0  0.14830426108E+01  0.74648529115E+01  0.93544658772E-01  0.76113202034E+01  0.51100000000E-03 0. -1.
        -11    1    3    3    0    0 -0.18100231802E+02  0.79605509142E+01  0.17075308553E+02  0.26125752134E+02  0.51100000000E-03 0.  1.
         12    1    3    3    0    0 -0.96522825046E+01 -0.23648268760E+02 -0.10747411768E+01  0.25564863416E+02  0.00000000000E+00 0. -1.
</event>
<event>
 7    1  0.1205909E-011  0.5930193E+02  0.7816164E-02  0.1266605E+00
        -11   -1    0    0    0    0  0.00000000000E+00  0.00000000000E+00  0.45593999997E+02  0.45594000000E+02  0.51100000000E-03 0.  1.
         11   -1    0    0    0    0 -0.00000000000E+00 -0.00000000000E+00 -0.45593999997E+02  0.45594000000E+02  0.51100000000E-03 0. -1.
    9900012    2    1    2    0    0 -0.17689741721E+02  0.12985387380E+02  0.23133836211E+02  0.59301927407E+02  0.49999969687E+02 0.  0.
         12    1    1    2    0    0  0.17689741721E+02 -0.12985387380E+02 -0.23133836211E+02  0.31886072593E+02  0.00000000000E+00 0. -1.
         11    1    3    3    0    0 -0.12553765406E+02 -0.33680551815E+01  0.12841609434E+02  0.18271501161E+02  0.51100000000E-03 0. -1.
        -11    1    3    3    0    0  0.39969187846E+01  0.94787851429E+01  0.22234556434E+02  0.24498943398E+02  0.51100000000E-03 0.  1.
        -12    1    3    3    0    0 -0.91328950996E+01  0.68746574189E+01 -0.11942329656E+02  0.16531482848E+02  0.00000000000E+00 0.  1.
</event>
<event>
 7    1  0.1205909E-011  0.5930190E+02  0.7816164E-02  0.1266605E+00
        -11   -1    0    0    0    0  0.00000000000E+00  0.00000000000E+00  0.45593999997E+02  0.45594000000E+02  0.51100000000E-03 0. -1.
         11   -1    0    0    0    0 -0.00000000000E+00 -0.00000000000E+00 -0.45593999997E+02  0.45594000000E+02  0.51100000000E-03 0.  1.
    9900012    2    1    2    0    0  0.96235872182E+01 -0.13705042745E+02 -0.27134508552E+02  0.59301902999E+02  0.49999925174E+02 0.  0.
         12    1    1    2    0    0 -0.96235872182E+01  0.13705042745E+02  0.27134508552E+02  0.31886097001E+02  0.00000000000E+00 0. -1.
         11    1    3    3    0    0  0.13061719565E+02 -0.16011900562E+02  0.52473482651E+01  0.21319571798E+02  0.51100000000E-03 0. -1.
        -11    1    3    3    0    0  0.20833477485E+01 -0.43529275388E+01 -0.27755683404E+02  0.28172083300E+02  0.51100000000E-03 0.  1.
        -12    1    3    3    0    0 -0.55214800952E+01  0.66597853556E+01 -0.46261734134E+01  0.98102479008E+01  0.00000000000E+00 0.  1.
</event>
<event>
 7    1  0.1205909E-011  0.5930190E+02  0.7816164E-02  0.1266605E+00
        -11   -1    0    0    0    0  0.00000000000E+00  0.00000000000E+00  0.45593999997E+02  0.45594000000E+02  0.51100000000E-03 0.  1.
         11   -1    0    0    0    0 -0.00000000000E+00 -0.00000000000E+00 -0.45593999997E+02  0.45594000000E+02  0.51100000000E-03 0. -1.
    9900012    2    1    2    0    0  0.29833481307E+02  0.98537322595E+01  0.54397097837E+01  0.59301904459E+02  0.49999927836E+02 0.  0.
         12    1    1    2    0    0 -0.29833481307E+02 -0.98537322595E+01 -0.54397097837E+01  0.31886095541E+02  0.00000000000E+00 0. -1.
         11    1    3    3    0    0  0.12099519191E+02 -0.16678233528E+02  0.98816203310E+01  0.22851876485E+02  0.51100000000E-03 0.  1.
        -11    1    3    3    0    0 -0.15281043886E+01  0.38430084072E+01 -0.52415207034E+01  0.66766276057E+01  0.51100000000E-03 0. -1.
        -12    1    3    3    0    0  0.19262066505E+02  0.22688957381E+02  0.79961015611E+00  0.29773400368E+02  0.00000000000E+00 0.  1.
</event>
<event>
 7    1  0.1205909E-011  0.5930196E+02  0.7816164E-02  0.1266605E+00
        -11   -1    0    0    0    0  0.00000000000E+00  0.00000000000E+00  0.45593999997E+02  0.45594000000E+02  0.51100000000E-03 0.  1.
         11   -1    0    0    0    0 -0.00000000000E+00 -0.00000000000E+00 -0.45593999997E+02  0.45594000000E+02  0.51100000000E-03 0. -1.
    9900012    2    1    2    0    0 -0.24863263849E+02 -0.79841751852E+00  0.19947428863E+02  0.59301964216E+02  0.50000036819E+02 0.  0.
         12    1    1    2    0    0  0.24863263849E+02  0.79841751852E+00 -0.19947428863E+02  0.31886035784E+02  0.00000000000E+00 0. -1.
         11    1    3    3    0    0 -0.76495928415E+01  0.77644798640E+01  0.14289437467E+02  0.17971962653E+02  0.51100000000E-03 0. -1.
        -11    1    3    3    0    0 -0.74737778744E+01  0.13819050021E+02  0.62634219974E+01  0.16913129650E+02  0.51100000000E-03 0.  1.
         12    1    3    3    0    0 -0.97398931334E+01 -0.22381947403E+02 -0.60543060206E+00  0.24416871913E+02  0.00000000000E+00 0. -1.
</event>
<event>
 7    1  0.1205909E-011  0.5930193E+02  0.7816164E-02  0.1266605E+00
        -11   -1    0    0    0    0  0.00000000000E+00  0.00000000000E+00  0.45593999997E+02  0.45594000000E+02  0.51100000000E-03 0. -1.
         11   -1    0    0    0    0 -0.00000000000E+00 -0.00000000000E+00 -0.45593999997E+02  0.45594000000E+02  0.51100000000E-03 0.  1.
    9900012    2    1    2    0    0 -0.31175529381E+02  0.63627031313E+01 -0.20793329322E+01  0.59301933313E+02  0.49999980459E+02 0.  0.
         12    1    1    2    0    0  0.31175529381E+02 -0.63627031313E+01  0.20793329322E+01  0.31886066687E+02  0.00000000000E+00 0. -1.
         11    1    3    3    0    0 -0.15491481798E+02  0.10412320313E+02 -0.68311573664E+01  0.19876295777E+02  0.51100000000E-03 0. -1.
        -11    1    3    3    0    0 -0.17981632343E+02  0.12718960984E+02  0.77195401611E+00  0.22038760934E+02  0.51100000000E-03 0.  1.
         12    1    3    3    0    0  0.22975847598E+01 -0.16768578166E+02  0.39798704181E+01  0.17386876602E+02  0.00000000000E+00 0. -1.
</event>
<event>
 7    1  0.1205909E-011  0.5930196E+02  0.7816164E-02  0.1266605E+00
        -11   -1    0    0    0    0  0.00000000000E+00  0.00000000000E+00  0.45593999997E+02  0.45594000000E+02  0.51100000000E-03 0.  1.
         11   -1    0    0    0    0 -0.00000000000E+00 -0.00000000000E+00 -0.45593999997E+02  0.45594000000E+02  0.51100000000E-03 0. -1.
    9900012    2    1    2    0    0  0.25397069080E+02 -0.73332328154E+01  0.17830650891E+02  0.59301960224E+02  0.50000029539E+02 0.  0.
         12    1    1    2    0    0 -0.25397069080E+02  0.73332328154E+01 -0.17830650891E+02  0.31886039776E+02  0.00000000000E+00 0. -1.
         11    1    3    3    0    0 -0.43331577547E+00 -0.16864427571E+01 -0.57206733007E+01  0.59797955658E+01  0.51100000000E-03 0. -1.
        -11    1    3    3    0    0  0.68103414547E+01 -0.17997448981E+02  0.23846299258E+02  0.30642044793E+02  0.51100000000E-03 0.  1.
        -12    1    3    3    0    0  0.19020043401E+02  0.12350658923E+02 -0.29497506620E+00  0.22680119865E+02  0.00000000000E+00 0.  1.
</event>
<event>
 7    1  0.1205909E-011  0.5930193E+02  0.7816164E-02  0.1266605E+00
        -11   -1    0    0    0    0  0.00000000000E+00  0.00000000000E+00  0.45593999997E+02  0.45594000000E+02  0.51100000000E-03 0. -1.
         11   -1    0    0    0    0 -0.00000000000E+00 -0.00000000000E+00 -0.45593999997E+02  0.45594000000E+02  0.51100000000E-03 0.  1.
    9900012    2    1    2    0    0 -0.18680903210E+02  0.21342922834E+02 -0.14567950687E+02  0.59301926440E+02  0.49999967924E+02 0.  0.
         12    1    1    2    0    0  0.18680903210E+02 -0.21342922834E+02  0.14567950687E+02  0.31886073560E+02  0.00000000000E+00 0. -1.
         11    1    3    3    0    0  0.45890471168E-03  0.67262327852E+01 -0.96324110396E+01  0.11748427571E+02  0.51100000000E-03 0.  1.
        -11    1    3    3    0    0 -0.27337964501E+02  0.22622662491E+02 -0.30904850328E+01  0.35618818892E+02  0.51100000000E-03 0. -1.
         12    1    3    3    0    0  0.86566023865E+01 -0.80059724422E+01 -0.18450546148E+01  0.11934679977E+02  0.00000000000E+00 0. -1.
</event>
<event>
 7    1  0.1205909E-011  0.5930197E+02  0.7816164E-02  0.1266605E+00
        -11   -1    0    0    0    0  0.00000000000E+00  0.00000000000E+00  0.45593999997E+02  0.45594000000E+02  0.51100000000E-03 0. -1.
         11   -1    0    0    0    0 -0.00000000000E+00 -0.00000000000E+00 -0.45593999997E+02  0.45594000000E+02  0.51100000000E-03 0.  1.
    9900012    2    1    2    0    0  0.27385946299E+02 -0.15168682121E+02 -0.60531066766E+01  0.59301967440E+02  0.50000042699E+02 0.  0.
         12    1    1    2    0    0 -0.27385946299E+02  0.15168682121E+02  0.60531066766E+01  0.31886032560E+02  0.00000000000E+00 0. -1.
         11    1    3    3    0    0  0.20864302864E+02 -0.22126780809E+02  0.67959759926E+01  0.31162459032E+02  0.51100000000E-03 0.  1.
        -11    1    3    3    0    0  0.85361672958E+01  0.66204426901E+01  0.37350229856E+01  0.11430083573E+02  0.51100000000E-03 0. -1.
        -12    1    3    3    0    0 -0.20145238609E+01  0.33765599855E+00 -0.16584105655E+02  0.16709424835E+02  0.00000000000E+00 0.  1.
</event>
<event>
 7    1  0.1205909E-011  0.5930227E+02  0.7816164E-02  0.1266604E+00
        -11   -1    0    0    0    0  0.00000000000E+00  0.00000000000E+00  0.45593999997E+02  0.45594000000E+02  0.51100000000E-03 0.  1.
         11   -1    0    0    0    0 -0.00000000000E+00 -0.00000000000E+00 -0.45593999997E+02  0.45594000000E+02  0.51100000000E-03 0. -1.
    9900012    2    1    2    0    0  0.16930516447E+02 -0.16890828027E+02  0.21089267466E+02  0.59302271831E+02  0.50000597831E+02 0.  0.
         12    1    1    2    0    0 -0.16930516447E+02  0.16890828027E+02 -0.21089267466E+02  0.31885728169E+02  0.00000000000E+00 0. -1.
         11    1    3    3    0    0 -0.48404243337E+01 -0.76193389050E+01  0.24175469958E+02  0.25805762555E+02  0.51100000000E-03 0. -1.
        -11    1    3    3    0    0  0.15967239842E+02 -0.58141116033E+01  0.93121918293E+01  0.19377140110E+02  0.51100000000E-03 0.  1.
        -12    1    3    3    0    0  0.58037009390E+01 -0.34573775187E+01 -0.12398394322E+02  0.14119369166E+02  0.00000000000E+00 0.  1.
</event>
<event>
 7    1  0.1205909E-011  0.5930195E+02  0.7816164E-02  0.1266605E+00
        -11   -1    0    0    0    0  0.00000000000E+00  0.00000000000E+00  0.45593999997E+02  0.45594000000E+02  0.51100000000E-03 0.  1.
         11   -1    0    0    0    0 -0.00000000000E+00 -0.00000000000E+00 -0.45593999997E+02  0.45594000000E+02  0.51100000000E-03 0. -1.
    9900012    2    1    2    0    0  0.30927846463E+02 -0.48844663931E+00  0.77427332298E+01  0.59301949997E+02  0.50000010886E+02 0.  0.
         12    1    1    2    0    0 -0.30927846463E+02  0.48844663931E+00 -0.77427332298E+01  0.31886050003E+02  0.00000000000E+00 0. -1.
         11    1    3    3    0    0  0.60619300021E+00 -0.24175805761E+00  0.11035258517E+01  0.12820633676E+01  0.51100000000E-03 0. -1.
        -11    1    3    3    0    0  0.42790024652E+02 -0.34368599107E+00  0.12008152091E+02  0.44444347747E+02  0.51100000000E-03 0.  1.
         12    1    3    3    0    0 -0.12468371189E+02  0.96997409363E-01 -0.53689447125E+01  0.13575538882E+02  0.00000000000E+00 0. -1.
</event>
<event>
 7    1  0.1205909E-011  0.5930195E+02  0.7816164E-02  0.1266605E+00
        -11   -1    0    0    0    0  0.00000000000E+00  0.00000000000E+00  0.45593999997E+02  0.45594000000E+02  0.51100000000E-03 0. -1.
         11   -1    0    0    0    0 -0.00000000000E+00 -0.00000000000E+00 -0.45593999997E+02  0.45594000000E+02  0.51100000000E-03 0.  1.
    9900012    2    1    2    0    0  0.12256066913E+01  0.59419546543E+01 -0.31303537791E+02  0.59301946385E+02  0.50000004299E+02 0.  0.
         12    1    1    2    0    0 -0.12256066913E+01 -0.59419546543E+01  0.31303537791E+02  0.31886053615E+02  0.00000000000E+00 0. -1.
         11    1    3    3    0    0 -0.18848966571E+02 -0.33569878923E+01 -0.88192585049E+01  0.21079189485E+02  0.51100000000E-03 0. -1.
        -11    1    3    3    0    0  0.11411724245E+02 -0.62487953072E+01 -0.11034118752E+02  0.17059503800E+02  0.51100000000E-03 0.  1.
        -12    1    3    3    0    0  0.86628490179E+01  0.15547737854E+02 -0.11450160535E+02  0.21163253100E+02  0.00000000000E+00 0.  1.
</event>
<event>
 7    1  0.1205909E-011  0.5930192E+02  0.7816164E-02  0.1266605E+00
        -11   -1    0    0    0    0  0.00000000000E+00  0.00000000000E+00  0.45593999997E+02  0.45594000000E+02  0.51100000000E-03 0.  1.
         11   -1    0    0    0    0 -0.00000000000E+00 -0.00000000000E+00 -0.45593999997E+02  0.45594000000E+02  0.51100000000E-03 0. -1.
    9900012    2    1    2    0    0 -0.36809795286E+01  0.95173433258E+01  0.30209149487E+02  0.59301919228E+02  0.49999954772E+02 0.  0.
         12    1    1    2    0    0  0.36809795286E+01 -0.95173433258E+01 -0.30209149487E+02  0.31886080772E+02  0.00000000000E+00 0. -1.
         11    1    3    3    0    0  0.12083716758E+02 -0.47789311480E+01  0.12184967578E+01  0.13051403304E+02  0.51100000000E-03 0. -1.
        -11    1    3    3    0    0  0.58090555024E+01  0.12564826630E+02  0.15338658933E+02  0.20661424254E+02  0.51100000000E-03 0.  1.
         12    1    3    3    0    0 -0.21573751789E+02  0.17314478442E+01  0.13651993796E+02  0.25589091670E+02  0.00000000000E+00 0. -1.
</event>
<event>
 7    1  0.1205909E-011  0.5930196E+02  0.7816164E-02  0.1266605E+00
        -11   -1    0    0    0    0  0.00000000000E+00  0.00000000000E+00  0.45593999997E+02  0.45594000000E+02  0.51100000000E-03 0.  1.
         11   -1    0    0    0    0 -0.00000000000E+00 -0.00000000000E+00 -0.45593999997E+02  0.45594000000E+02  0.51100000000E-03 0. -1.
    9900012    2    1    2    0    0  0.17451804502E+02 -0.22830452701E+02  0.13817534811E+02  0.59301963571E+02  0.50000035642E+02 0.  0.
         12    1    1    2    0    0 -0.17451804502E+02  0.22830452701E+02 -0.13817534811E+02  0.31886036429E+02  0.00000000000E+00 0. -1.
         11    1    3    3    0    0  0.28604142725E+01  0.47501308961E+01 -0.50756796070E+01  0.75171960913E+01  0.51100000000E-03 0. -1.
        -11    1    3    3    0    0 -0.60625634262E+01  0.17056841732E+01  0.14337336596E+02  0.15659605829E+02  0.51100000000E-03 0.  1.
         12    1    3    3    0    0  0.20653953656E+02 -0.29286267770E+02  0.45558778216E+01  0.36125161650E+02  0.00000000000E+00 0. -1.
</event>
<event>
 7    1  0.1395012E-011  0.5930195E+02  0.7816164E-02  0.1266605E+00
        -11   -1    0    0    0    0  0.00000000000E+00  0.00000000000E+00  0.45593999997E+02  0.45594000000E+02  0.51100000000E-03 0. -1.
         11   -1    0    0    0    0 -0.00000000000E+00 -0.00000000000E+00 -0.45593999997E+02  0.45594000000E+02  0.51100000000E-03 0.  1.
    9900012    2    1    2    0    0 -0.18995548717E+02 -0.12298177873E+02 -0.22464292496E+02  0.59301945252E+02  0.50000002232E+02 0.  0.
         12    1    1    2    0    0  0.18995548717E+02  0.12298177873E+02  0.22464292496E+02  0.31886054748E+02  0.00000000000E+00 0. -1.
         11    1    3    3    0    0 -0.57984346192E+01 -0.86665168671E+00  0.13080572571E+02  0.14334375055E+02  0.51100000000E-03 0. -1.
        -11    1    3    3    0    0 -0.11718661760E+02  0.70968516827E+00 -0.64247109493E+01  0.13383108665E+02  0.51100000000E-03 0.  1.
        -12    1    3    3    0    0 -0.14784523380E+01 -0.12141211354E+02 -0.29120154117E+02  0.31584461532E+02  0.00000000000E+00 0.  1.
</event>
<event>
 7    1  0.1205909E-011  0.5930182E+02  0.7816164E-02  0.1266605E+00
        -11   -1    0    0    0    0  0.00000000000E+00  0.00000000000E+00  0.45593999997E+02  0.45594000000E+02  0.51100000000E-03 0. -1.
         11   -1    0    0    0    0 -0.00000000000E+00 -0.00000000000E+00 -0.45593999997E+02  0.45594000000E+02  0.51100000000E-03 0.  1.
    9900012    2    1    2    0    0 -0.16116989477E+02 -0.25946966874E+02 -0.91501767248E+01  0.59301824722E+02  0.49999782414E+02 0.  0.
         12    1    1    2    0    0  0.16116989477E+02  0.25946966874E+02  0.91501767248E+01  0.31886175278E+02  0.00000000000E+00 0. -1.
         11    1    3    3    0    0 -0.19156994840E+02 -0.18434988857E+02 -0.17537706269E+02  0.31849810155E+02  0.51100000000E-03 0.  1.
        -11    1    3    3    0    0 -0.28270462388E+01 -0.58215808319E+01 -0.78094004590E+01  0.10142471573E+02  0.51100000000E-03 0. -1.
         12    1    3    3    0    0  0.58670516017E+01 -0.16903971855E+01  0.16196930003E+02  0.17309542994E+02  0.00000000000E+00 0. -1.
</event>
<event>
 7    1  0.1205909E-011  0.5930194E+02  0.7816164E-02  0.1266605E+00
        -11   -1    0    0    0    0  0.00000000000E+00  0.00000000000E+00  0.45593999997E+02  0.45594000000E+02  0.51100000000E-03 0.  1.
         11   -1    0    0    0    0 -0.00000000000E+00 -0.00000000000E+00 -0.45593999997E+02  0.45594000000E+02  0.51100000000E-03 0. -1.
    9900012    2    1    2    0    0  0.16050650742E+02  0.23762858692E+01  0.27449058195E+02  0.59301938475E+02  0.49999989873E+02 0.  0.
         12    1    1    2    0    0 -0.16050650742E+02 -0.23762858692E+01 -0.27449058195E+02  0.31886061525E+02  0.00000000000E+00 0. -1.
         11    1    3    3    0    0 -0.63914438844E+01  0.30325319033E+01 -0.53763950864E+01  0.88855179398E+01  0.51100000000E-03 0.  1.
        -11    1    3    3    0    0 -0.34940167667E+01  0.81629618331E+01  0.18591293814E+01  0.90718499421E+01  0.51100000000E-03 0. -1.
        -12    1    3    3    0    0  0.25936111393E+02 -0.88192078672E+01  0.30966323900E+02  0.41344570593E+02  0.00000000000E+00 0.  1.
</event>
<event>
 7    1  0.1205909E-011  0.5930219E+02  0.7816164E-02  0.1266604E+00
        -11   -1    0    0    0    0  0.00000000000E+00  0.00000000000E+00  0.45593999997E+02  0.45594000000E+02  0.51100000000E-03 0.  1.
         11   -1    0    0    0    0 -0.00000000000E+00 -0.00000000000E+00 -0.45593999997E+02  0.45594000000E+02  0.51100000000E-03 0. -1.
    9900012    2    1    2    0    0  0.24102946845E+02 -0.16083877993E+02 -0.13306447525E+02  0.59302192442E+02  0.50000453045E+02 0.  0.
         12    1    1    2    0    0 -0.24102946845E+02  0.16083877993E+02  0.13306447525E+02  0.31885807558E+02  0.00000000000E+00 0. -1.
         11    1    3    3    0    0 -0.68620192493E+01  0.20541501430E+01  0.78170439543E+01  0.10602500527E+02  0.51100000000E-03 0. -1.
        -11    1    3    3    0    0  0.18700037203E+01  0.15158164520E+01  0.45879369454E+01  0.51810982529E+01  0.51100000000E-03 0.  1.
         12    1    3    3    0    0  0.29094962374E+02 -0.19653844588E+02 -0.25711428425E+02  0.43518593661E+02  0.00000000000E+00 0. -1.
</event>
<event>
 7    1  0.1205909E-011  0.5930193E+02  0.7816164E-02  0.1266605E+00
        -11   -1    0    0    0    0  0.00000000000E+00  0.00000000000E+00  0.45593999997E+02  0.45594000000E+02  0.51100000000E-03 0.  1.
         11   -1    0    0    0    0 -0.00000000000E+00 -0.00000000000E+00 -0.45593999997E+02  0.45594000000E+02  0.51100000000E-03 0. -1.
    9900012    2    1    2    0    0 -0.24567980625E+02  0.10740091823E+01  0.20297348932E+02  0.59301928725E+02  0.49999972091E+02 0.  0.
         12    1    1    2    0    0  0.24567980625E+02 -0.10740091823E+01 -0.20297348932E+02  0.31886071275E+02  0.00000000000E+00 0. -1.
         11    1    3    3    0    0  0.50653934804E+01 -0.40467457255E+01 -0.56210836798E+01  0.85808475149E+01  0.51100000000E-03 0. -1.
        -11    1    3    3    0    0 -0.11918508390E+02 -0.51849909557E+01  0.27242085358E+02  0.30183872985E+02  0.51100000000E-03 0.  1.
         12    1    3    3    0    0 -0.17714865715E+02  0.10305745864E+02 -0.13236527456E+01  0.20537208225E+02  0.00000000000E+00 0. -1.
</event>
<event>
 7    1  0.1205909E-011  0.5930195E+02  0.7816164E-02  0.1266605E+00
        -11   -1    0    0    0    0  0.00000000000E+00  0.00000000000E+00  0.45593999997E+02  0.45594000000E+02  0.51100000000E-03 0.  1.
         11   -1    0    0    0    0 -0.00000000000E+00 -0.00000000000E+00 -0.45593999997E+02  0.45594000000E+02  0.51100000000E-03 0. -1.
    9900012    2    1    2    0    0 -0.31160089904E+02 -0.41744797676E+01  0.53237698003E+01  0.59301952753E+02  0.50000015913E+02 0.  0.
         12    1    1    2    0    0  0.31160089904E+02  0.41744797676E+01 -0.53237698003E+01  0.31886047247E+02  0.00000000000E+00 0. -1.
         11    1    3    3    0    0 -0.93647346098E+01 -0.19696305302E+02  0.81684873558E+00  0.21824526088E+02  0.51100000000E-03 0. -1.
        -11    1    3    3    0    0 -0.59591280582E+01 -0.63059510809E+01 -0.34862598107E+01  0.93504135726E+01  0.51100000000E-03 0.  1.
         12    1    3    3    0    0 -0.15836227236E+02  0.21827776615E+02  0.79931808754E+01  0.28127013093E+02  0.00000000000E+00 0. -1.
</event>
<event>
 7    1  0.1205909E-011  0.5930187E+02  0.7816164E-02  0.1266605E+00
        -11   -1    0    0    0    0  0.00000000000E+00  0.00000000000E+00  0.45593999997E+02  0.45594000000E+02  0.51100000000E-03 0. -1.
         11   -1    0    0    0    0 -0.00000000000E+00 -0.00000000000E+00 -0.45593999997E+02  0.45594000000E+02  0.51100000000E-03 0.  1.
    9900012    2    1    2    0    0  0.10373387643E+02  0.29105378339E+02 -0.78736789968E+01  0.59301873857E+02  0.49999872026E+02 0.  0.
         12    1    1    2    0    0 -0.10373387643E+02 -0.29105378339E+02  0.78736789968E+01  0.31886126143E+02  0.00000000000E+00 0. -1.
         11    1    3    3    0    0 -0.15108369505E+02 -0.28973673314E+00 -0.22925685852E+01  0.15284065148E+02  0.51100000000E-03 0. -1.
        -11    1    3    3    0    0 -0.95732698739E+00 -0.84781707969E+00 -0.35755965193E+01  0.37973885094E+01  0.51100000000E-03 0.  1.
        -12    1    3    3    0    0  0.26439084135E+02  0.30242932152E+02 -0.20055138923E+01  0.40220420200E+02  0.00000000000E+00 0.  1.
</event>
<event>
 7    1  0.1205909E-011  0.5930197E+02  0.7816164E-02  0.1266605E+00
        -11   -1    0    0    0    0  0.00000000000E+00  0.00000000000E+00  0.45593999997E+02  0.45594000000E+02  0.51100000000E-03 0. -1.
         11   -1    0    0    0    0 -0.00000000000E+00 -0.00000000000E+00 -0.45593999997E+02  0.45594000000E+02  0.51100000000E-03 0.  1.
    9900012    2    1    2    0    0 -0.26695253735E+02 -0.52099413421E+01 -0.16641484956E+02  0.59301967285E+02  0.50000042415E+02 0.  0.
         12    1    1    2    0    0  0.26695253735E+02  0.52099413421E+01  0.16641484956E+02  0.31886032715E+02  0.00000000000E+00 0. -1.
         11    1    3    3    0    0  0.60416326548E+01  0.21934263948E+01  0.37406840890E+01  0.74367440590E+01  0.51100000000E-03 0. -1.
        -11    1    3    3    0    0  0.14573257073E+01  0.39866342886E+01  0.58933079577E+01  0.72627907937E+01  0.51100000000E-03 0.  1.
        -12    1    3    3    0    0 -0.34194212098E+02 -0.11390002025E+02 -0.26275477003E+02  0.44602432432E+02  0.00000000000E+00 0.  1.
</event>
<event>
 7    1  0.1205909E-011  0.5930193E+02  0.7816164E-02  0.1266605E+00
        -11   -1    0    0    0    0  0.00000000000E+00  0.00000000000E+00  0.45593999997E+02  0.45594000000E+02  0.51100000000E-03 0. -1.
         11   -1    0    0    0    0 -0.00000000000E+00 -0.00000000000E+00 -0.45593999997E+02  0.45594000000E+02  0.51100000000E-03 0.  1.
    9900012    2    1    2    0    0 -0.13781602646E+02  0.20183083805E+01 -0.28683017514E+02  0.59301927274E+02  0.49999969444E+02 0.  0.
         12    1    1    2    0    0  0.13781602646E+02 -0.20183083805E+01  0.28683017514E+02  0.31886072726E+02  0.00000000000E+00 0. -1.
         11    1    3    3    0    0 -0.16685939969E+02  0.28012248458E+01 -0.15553574924E+02  0.22982191943E+02  0.51100000000E-03 0. -1.
        -11    1    3    3    0    0  0.14634431059E+01  0.58880150284E+01 -0.23296993640E+02  0.24074058645E+02  0.51100000000E-03 0.  1.
         12    1    3    3    0    0  0.14408942177E+01 -0.66709314937E+01  0.10167551050E+02  0.12245676686E+02  0.00000000000E+00 0. -1.
</event>
<event>
 7    1  0.1205909E-011  0.5930180E+02  0.7816164E-02  0.1266605E+00
        -11   -1    0    0    0    0  0.00000000000E+00  0.00000000000E+00  0.45593999997E+02  0.45594000000E+02  0.51100000000E-03 0. -1.
         11   -1    0    0    0    0 -0.00000000000E+00 -0.00000000000E+00 -0.45593999997E+02  0.45594000000E+02  0.51100000000E-03 0.  1.
    9900012    2    1    2    0    0  0.19376559488E+02 -0.25061681136E+02 -0.36318908674E+01  0.59301803139E+02  0.49999743053E+02 0.  0.
         12    1    1    2    0    0 -0.19376559488E+02  0.25061681136E+02  0.36318908674E+01  0.31886196861E+02  0.00000000000E+00 0. -1.
         11    1    3    3    0    0 -0.69266345539E+01  0.85138790433E+00  0.40981577693E+01  0.80930850095E+01  0.51100000000E-03 0.  1.
        -11    1    3    3    0    0 -0.84156054831E+01 -0.46130076883E+01 -0.36707306725E+01  0.10275043528E+02  0.51100000000E-03 0. -1.
        -12    1    3    3    0    0  0.34718799525E+02 -0.21300061352E+02 -0.40593179642E+01  0.40933674601E+02  0.00000000000E+00 0.  1.
</event>
<event>
 7    1  0.1205909E-011  0.5930193E+02  0.7816164E-02  0.1266605E+00
        -11   -1    0    0    0    0  0.00000000000E+00  0.00000000000E+00  0.45593999997E+02  0.45594000000E+02  0.51100000000E-03 0.  1.
         11   -1    0    0    0    0 -0.00000000000E+00 -0.00000000000E+00 -0.45593999997E+02  0.45594000000E+02  0.51100000000E-03 0. -1.
    9900012    2    1    2    0    0 -0.21814519828E+02  0.22595370454E+02  0.55043049307E+01  0.59301930721E+02  0.49999975731E+02 0.  0.
         12    1    1    2    0    0  0.21814519828E+02 -0.22595370454E+02 -0.55043049307E+01  0.31886069279E+02  0.00000000000E+00 0. -1.
         11    1    3    3    0    0  0.12409930564E+01 -0.45588936701E+01 -0.26937898806E+00  0.47324560813E+01  0.51100000000E-03 0. -1.
        -11    1    3    3    0    0 -0.88697132617E+01 -0.51656124384E+01 -0.11380626221E+02  0.15325600107E+02  0.51100000000E-03 0.  1.
        -12    1    3    3    0    0 -0.14185799623E+02  0.32319876563E+02  0.17154310139E+02  0.39243874533E+02  0.00000000000E+00 0.  1.
</event>
<event>
 7    1  0.1205909E-011  0.5930195E+02  0.7816164E-02  0.1266605E+00
        -11   -1    0    0    0    0  0.00000000000E+00  0.00000000000E+00  0.45593999997E+02  0.45594000000E+02  0.51100000000E-03 0. -1.
         11   -1    0    0    0    0 -0.00000000000E+00 -0.00000000000E+00 -0.45593999997E+02  0.45594000000E+02  0.51100000000E-03 0.  1.
    9900012    2    1    2    0    0  0.25106136008E+02 -0.13415633220E+02 -0.14367427898E+02  0.59301948749E+02  0.50000008611E+02 0.  0.
         12    1    1    2    0    0 -0.25106136008E+02  0.13415633220E+02  0.14367427898E+02  0.31886051251E+02  0.00000000000E+00 0. -1.
         11    1    3    3    0    0  0.15061433485E+02  0.81625080688E+01 -0.14187803852E+01  0.17189713629E+02  0.51100000000E-03 0. -1.
        -11    1    3    3    0    0  0.14270113861E+02 -0.11563434129E+02  0.67872868542E+01  0.19581021974E+02  0.51100000000E-03 0.  1.
         12    1    3    3    0    0 -0.42254113378E+01 -0.10014707160E+02 -0.19735934367E+02  0.22531213146E+02  0.00000000000E+00 0. -1.
</event>
<event>
 7    1  0.1205909E-011  0.5930198E+02  0.7816164E-02  0.1266605E+00
        -11   -1    0    0    0    0  0.00000000000E+00  0.00000000000E+00  0.45593999997E+02  0.45594000000E+02  0.51100000000E-03 0.  1.
         11   -1    0    0    0    0 -0.00000000000E+00 -0.00000000000E+00 -0.45593999997E+02  0.45594000000E+02  0.51100000000E-03 0. -1.
    9900012    2    1    2    0    0 -0.14525227932E+02 -0.26607493308E+02  0.98882309386E+01  0.59301983351E+02  0.50000071716E+02 0.  0.
         12    1    1    2    0    0  0.14525227932E+02  0.26607493308E+02 -0.98882309386E+01  0.31886016649E+02  0.00000000000E+00 0. -1.
         11    1    3    3    0    0  0.28425878366E+01 -0.15076510800E+02 -0.12280798374E+02  0.19651958999E+02  0.51100000000E-03 0. -1.
        -11    1    3    3    0    0 -0.83069029836E+01  0.44176832809E+01 -0.16857065451E+01  0.95583560076E+01  0.51100000000E-03 0.  1.
        -12    1    3    3    0    0 -0.90609127850E+01 -0.15948665789E+02  0.23854735858E+02  0.30091668345E+02  0.00000000000E+00 0.  1.
</event>
<event>
 7    1  0.1205909E-011  0.5930197E+02  0.7816164E-02  0.1266605E+00
        -11   -1    0    0    0    0  0.00000000000E+00  0.00000000000E+00  0.45593999997E+02  0.45594000000E+02  0.51100000000E-03 0. -1.
         11   -1    0    0    0    0 -0.00000000000E+00 -0.00000000000E+00 -0.45593999997E+02  0.45594000000E+02  0.51100000000E-03 0.  1.
    9900012    2    1    2    0    0 -0.31309782295E+01 -0.27945766290E+02 -0.15031637179E+02  0.59301968662E+02  0.50000044927E+02 0.  0.
         12    1    1    2    0    0  0.31309782295E+01  0.27945766290E+02  0.15031637179E+02  0.31886031338E+02  0.00000000000E+00 0. -1.
         11    1    3    3    0    0 -0.53113098111E+01 -0.29185512076E+02 -0.12583935202E+02  0.32223586897E+02  0.51100000000E-03 0. -1.
        -11    1    3    3    0    0  0.41713848736E+01  0.76399586122E+00 -0.14369445316E+02  0.14982159403E+02  0.51100000000E-03 0.  1.
        -12    1    3    3    0    0 -0.19910532919E+01  0.47574992499E+00  0.11921743339E+02  0.12096222362E+02  0.00000000000E+00 0.  1.
</event>
<event>
 7    1  0.1205909E-011  0.5930196E+02  0.7816164E-02  0.1266605E+00
        -11   -1    0    0    0    0  0.00000000000E+00  0.00000000000E+00  0.45593999997E+02  0.45594000000E+02  0.51100000000E-03 0. -1.
         11   -1    0    0    0    0 -0.00000000000E+00 -0.00000000000E+00 -0.45593999997E+02  0.45594000000E+02  0.51100000000E-03 0.  1.
    9900012    2    1    2    0    0 -0.18221178178E+02 -0.15263753707E+02 -0.21253845924E+02  0.59301961080E+02  0.50000031099E+02 0.  0.
         12    1    1    2    0    0  0.18221178178E+02  0.15263753707E+02  0.21253845924E+02  0.31886038920E+02  0.00000000000E+00 0. -1.
         11    1    3    3    0    0 -0.11563746167E+02  0.44791538856E+01  0.74251227752E+01  0.14453909278E+02  0.51100000000E-03 0. -1.
        -11    1    3    3    0    0 -0.47228399601E+01  0.58101273116E+01 -0.17798150378E+01  0.76961378948E+01  0.51100000000E-03 0.  1.
        -12    1    3    3    0    0 -0.19345920517E+01 -0.25553034904E+02 -0.26899153662E+02  0.37151913907E+02  0.00000000000E+00 0.  1.
</event>
<event>
 7    1  0.1205909E-011  0.5930189E+02  0.7816164E-02  0.1266605E+00
        -11   -1    0    0    0    0  0.00000000000E+00  0.00000000000E+00  0.45593999997E+02  0.45594000000E+02  0.51100000000E-03 0.  1.
         11   -1    0    0    0    0 -0.00000000000E+00 -0.00000000000E+00 -0.45593999997E+02  0.45594000000E+02  0.51100000000E-03 0. -1.
    9900012    2    1    2    0    0  0.33332170778E+01  0.11368298426E+02  0.29603637031E+02  0.59301892199E+02  0.49999905478E+02 0.  0.
         12    1    1    2    0    0 -0.33332170778E+01 -0.11368298426E+02 -0.29603637031E+02  0.31886107801E+02  0.00000000000E+00 0. -1.
         11    1    3    3    0    0 -0.82913604516E+01  0.96057174362E+01 -0.42141355468E+00  0.12696222086E+02  0.51100000000E-03 0. -1.
        -11    1    3    3    0    0 -0.73464993863E+01  0.11892075747E+02  0.96942428781E+01  0.17010904269E+02  0.51100000000E-03 0.  1.
        -12    1    3    3    0    0  0.18971076916E+02 -0.10129494757E+02  0.20330807708E+02  0.29594765845E+02  0.00000000000E+00 0.  1.
</event>
<event>
 7    1  0.1205909E-011  0.5930189E+02  0.7816164E-02  0.1266605E+00
        -11   -1    0    0    0    0  0.00000000000E+00  0.00000000000E+00  0.45593999997E+02  0.45594000000E+02  0.51100000000E-03 0.  1.
         11   -1    0    0    0    0 -0.00000000000E+00 -0.00000000000E+00 -0.45593999997E+02  0.45594000000E+02  0.51100000000E-03 0. -1.
    9900012    2    1    2    0    0  0.14360970664E+02  0.28089860666E+02 -0.46309844546E+01  0.59301893815E+02  0.49999908423E+02 0.  0.
         12    1    1    2    0    0 -0.14360970664E+02 -0.28089860666E+02  0.46309844546E+01  0.31886106185E+02  0.00000000000E+00 0. -1.
         11    1    3    3    0    0 -0.10246909031E+02  0.11206023451E+02 -0.16016816541E+02  0.22070625697E+02  0.51100000000E-03 0. -1.
        -11    1    3    3    0    0 -0.83689867495E+00  0.48179778659E+01 -0.28676161309E+01  0.56689092993E+01  0.51100000000E-03 0.  1.
        -12    1    3    3    0    0  0.25444778370E+02  0.12065859349E+02  0.14253448217E+02  0.31562358819E+02  0.00000000000E+00 0.  1.
</event>
<event>
 7    1  0.1205909E-011  0.5930193E+02  0.7816164E-02  0.1266605E+00
        -11   -1    0    0    0    0  0.00000000000E+00  0.00000000000E+00  0.45593999997E+02  0.45594000000E+02  0.51100000000E-03 0.  1.
         11   -1    0    0    0    0 -0.00000000000E+00 -0.00000000000E+00 -0.45593999997E+02  0.45594000000E+02  0.51100000000E-03 0. -1.
    9900012    2    1    2    0    0 -0.16654508319E+02  0.23568864025E+02 -0.13559396693E+02  0.59301933490E+02  0.49999980782E+02 0.  0.
         12    1    1    2    0    0  0.16654508319E+02 -0.23568864025E+02  0.13559396693E+02  0.31886066510E+02  0.00000000000E+00 0. -1.
         11    1    3    3    0    0  0.67000969284E+01 -0.56925753629E+01 -0.33175771118E+00  0.87981121016E+01  0.51100000000E-03 0. -1.
        -11    1    3    3    0    0  0.41403662031E+01  0.36480339015E+01 -0.11653529194E+02  0.12894011268E+02  0.51100000000E-03 0.  1.
        -12    1    3    3    0    0 -0.27494971451E+02  0.25613405486E+02 -0.15741097876E+01  0.37609810120E+02  0.00000000000E+00 0.  1.
</event>
<event>
 7    1  0.1205909E-011  0.5930194E+02  0.7816164E-02  0.1266605E+00
        -11   -1    0    0    0    0  0.00000000000E+00  0.00000000000E+00  0.45593999997E+02  0.45594000000E+02  0.51100000000E-03 0.  1.
         11   -1    0    0    0    0 -0.00000000000E+00 -0.00000000000E+00 -0.45593999997E+02  0.45594000000E+02  0.51100000000E-03 0. -1.
    9900012    2    1    2    0    0 -0.29235179071E+02 -0.29015222672E+01  0.12393796716E+02  0.59301941544E+02  0.49999995471E+02 0.  0.
         12    1    1    2    0    0  0.29235179071E+02  0.29015222672E+01 -0.12393796716E+02  0.31886058456E+02  0.00000000000E+00 0. -1.
         11    1    3    3    0    0  0.10531743104E+02 -0.25825430385E+01 -0.48635452351E+00  0.10854661779E+02  0.51100000000E-03 0. -1.
        -11    1    3    3    0    0 -0.29659566727E+01  0.33442496530E+01  0.10472003032E+02  0.11386121047E+02  0.51100000000E-03 0.  1.
        -12    1    3    3    0    0 -0.36800965503E+02 -0.36632288816E+01  0.24081482073E+01  0.37061158718E+02  0.00000000000E+00 0.  1.
</event>
<event>
 7    1  0.1205909E-011  0.5930195E+02  0.7816164E-02  0.1266605E+00
        -11   -1    0    0    0    0  0.00000000000E+00  0.00000000000E+00  0.45593999997E+02  0.45594000000E+02  0.51100000000E-03 0.  1.
         11   -1    0    0    0    0 -0.00000000000E+00 -0.00000000000E+00 -0.45593999997E+02  0.45594000000E+02  0.51100000000E-03 0. -1.
    9900012    2    1    2    0    0  0.26893982978E+02 -0.17046793436E+02  0.16854948174E+01  0.59301946942E+02  0.50000005315E+02 0.  0.
         12    1    1    2    0    0 -0.26893982978E+02  0.17046793436E+02 -0.16854948174E+01  0.31886053058E+02  0.00000000000E+00 0. -1.
         11    1    3    3    0    0  0.19555425422E+02 -0.37232509695E+01 -0.11029019912E+02  0.22757779806E+02  0.51100000000E-03 0. -1.
        -11    1    3    3    0    0  0.13376595341E+02 -0.97293202499E+01 -0.51691490078E+01  0.17329543478E+02  0.51100000000E-03 0.  1.
        -12    1    3    3    0    0 -0.60380377850E+01 -0.35942222165E+01  0.17883663738E+02  0.19214623658E+02  0.00000000000E+00 0.  1.
</event>
<event>
 7    1  0.1205909E-011  0.5930190E+02  0.7816164E-02  0.1266605E+00
        -11   -1    0    0    0    0  0.00000000000E+00  0.00000000000E+00  0.45593999997E+02  0.45594000000E+02  0.51100000000E-03 0. -1.
         11   -1    0    0    0    0 -0.00000000000E+00 -0.00000000000E+00 -0.45593999997E+02  0.45594000000E+02  0.51100000000E-03 0.  1.
    9900012    2    1    2    0    0 -0.29532737614E+02  0.11087329545E+02 -0.46488471618E+01  0.59301901973E+02  0.49999923303E+02 0.  0.
         12    1    1    2    0    0  0.29532737614E+02 -0.11087329545E+02  0.46488471618E+01  0.31886098027E+02  0.00000000000E+00 0. -1.
         11    1    3    3    0    0 -0.28647808572E+01 -0.82130021258E+00 -0.14280486415E+02  0.14588138878E+02  0.51100000000E-03 0. -1.
        -11    1    3    3    0    0 -0.14570637901E+02  0.20840256345E+02 -0.22793589561E+01  0.25530672746E+02  0.51100000000E-03 0.  1.
         12    1    3    3    0    0 -0.12097318856E+02 -0.89316265879E+01  0.11910998209E+02  0.19183090349E+02  0.00000000000E+00 0. -1.
</event>
<event>
 7    1  0.1205909E-011  0.5930188E+02  0.7816164E-02  0.1266605E+00
        -11   -1    0    0    0    0  0.00000000000E+00  0.00000000000E+00  0.45593999997E+02  0.45594000000E+02  0.51100000000E-03 0.  1.
         11   -1    0    0    0    0 -0.00000000000E+00 -0.00000000000E+00 -0.45593999997E+02  0.45594000000E+02  0.51100000000E-03 0. -1.
    9900012    2    1    2    0    0  0.28769881020E+02 -0.50496004836E+01  0.12787495848E+02  0.59301881249E+02  0.49999885506E+02 0.  0.
         12    1    1    2    0    0 -0.28769881020E+02  0.50496004836E+01 -0.12787495848E+02  0.31886118751E+02  0.00000000000E+00 0. -1.
         11    1    3    3    0    0  0.10207985151E+01 -0.20889604726E+02  0.72187888542E+01  0.22125291592E+02  0.51100000000E-03 0. -1.
        -11    1    3    3    0    0  0.74595583166E+01 -0.18333444292E+01 -0.39467726707E+01  0.86361552123E+01  0.51100000000E-03 0.  1.
         12    1    3    3    0    0  0.20289524188E+02  0.17673348672E+02  0.95154796649E+01  0.28540434445E+02  0.00000000000E+00 0. -1.
</event>
<event>
 7    1  0.1205909E-011  0.5930194E+02  0.7816164E-02  0.1266605E+00
        -11   -1    0    0    0    0  0.00000000000E+00  0.00000000000E+00  0.45593999997E+02  0.45594000000E+02  0.51100000000E-03 0.  1.
         11   -1    0    0    0    0 -0.00000000000E+00 -0.00000000000E+00 -0.45593999997E+02  0.45594000000E+02  0.51100000000E-03 0. -1.
    9900012    2    1    2    0    0  0.84140847209E+01 -0.20307618286E+02  0.23098152381E+02  0.59301939950E+02  0.49999992563E+02 0.  0.
         12    1    1    2    0    0 -0.84140847209E+01  0.20307618286E+02 -0.23098152381E+02  0.31886060050E+02  0.00000000000E+00 0. -1.
         11    1    3    3    0    0  0.96747676609E+01  0.27754797415E+01 -0.78964916714E+00  0.10095937953E+02  0.51100000000E-03 0. -1.
        -11    1    3    3    0    0  0.12878310969E+02 -0.16321869493E+01 -0.15233822757E+01  0.13070410149E+02  0.51100000000E-03 0.  1.
        -12    1    3    3    0    0 -0.14138993909E+02 -0.21450911078E+02  0.25411183823E+02  0.36135591847E+02  0.00000000000E+00 0.  1.
</event>
<event>
 7    1  0.1205909E-011  0.5930190E+02  0.7816164E-02  0.1266605E+00
        -11   -1    0    0    0    0  0.00000000000E+00  0.00000000000E+00  0.45593999997E+02  0.45594000000E+02  0.51100000000E-03 0. -1.
         11   -1    0    0    0    0 -0.00000000000E+00 -0.00000000000E+00 -0.45593999997E+02  0.45594000000E+02  0.51100000000E-03 0.  1.
    9900012    2    1    2    0    0  0.62843456890E+01 -0.51288053358E+01 -0.30837086871E+02  0.59301896890E+02  0.49999914031E+02 0.  0.
         12    1    1    2    0    0 -0.62843456890E+01  0.51288053358E+01  0.30837086871E+02  0.31886103110E+02  0.00000000000E+00 0. -1.
         11    1    3    3    0    0 -0.14481081567E+01  0.40496410913E+01  0.18462745219E+01  0.46803140998E+01  0.51100000000E-03 0. -1.
        -11    1    3    3    0    0 -0.10739775653E+02  0.18837791583E+01  0.43859862960E+01  0.11752798860E+02  0.51100000000E-03 0.  1.
         12    1    3    3    0    0  0.18472229499E+02 -0.11062225585E+02 -0.37069347688E+02  0.42868783930E+02  0.00000000000E+00 0. -1.
</event>
<event>
 7    1  0.1205909E-011  0.5930193E+02  0.7816164E-02  0.1266605E+00
        -11   -1    0    0    0    0  0.00000000000E+00  0.00000000000E+00  0.45593999997E+02  0.45594000000E+02  0.51100000000E-03 0. -1.
         11   -1    0    0    0    0 -0.00000000000E+00 -0.00000000000E+00 -0.45593999997E+02  0.45594000000E+02  0.51100000000E-03 0.  1.
    9900012    2    1    2    0    0  0.27831463853E+02  0.10610301394E+02  0.11382107543E+02  0.59301933325E+02  0.49999980481E+02 0.  0.
         12    1    1    2    0    0 -0.27831463853E+02 -0.10610301394E+02 -0.11382107543E+02  0.31886066675E+02  0.00000000000E+00 0. -1.
         11    1    3    3    0    0 -0.31601647136E+00 -0.13147077304E+02  0.95252584600E+01  0.16238105094E+02  0.51100000000E-03 0. -1.
        -11    1    3    3    0    0  0.10251557441E+02  0.19562982290E+01  0.92059865181E+01  0.13916598749E+02  0.51100000000E-03 0.  1.
        -12    1    3    3    0    0  0.17895922883E+02  0.21801080469E+02 -0.73491374350E+01  0.29147229482E+02  0.00000000000E+00 0.  1.
</event>
<event>
 7    1  0.1205909E-011  0.5930195E+02  0.7816164E-02  0.1266605E+00
        -11   -1    0    0    0    0  0.00000000000E+00  0.00000000000E+00  0.45593999997E+02  0.45594000000E+02  0.51100000000E-03 0. -1.
         11   -1    0    0    0    0 -0.00000000000E+00 -0.00000000000E+00 -0.45593999997E+02  0.45594000000E+02  0.51100000000E-03 0.  1.
    9900012    2    1    2    0    0  0.24042685431E+02  0.13592368296E+02  0.15934765262E+02  0.59301953796E+02  0.50000017814E+02 0.  0.
         12    1    1    2    0    0 -0.24042685431E+02 -0.13592368296E+02 -0.15934765262E+02  0.31886046204E+02  0.00000000000E+00 0. -1.
         11    1    3    3    0    0  0.14582667898E+02  0.75568907483E+01  0.19349196544E+02  0.25380153821E+02  0.51100000000E-03 0. -1.
        -11    1    3    3    0    0  0.10111788958E+02  0.18418882977E+02  0.17323390570E+00  0.21012699405E+02  0.51100000000E-03 0.  1.
        -12    1    3    3    0    0 -0.65177142540E+00 -0.12383405429E+02 -0.35876651879E+01  0.12909100570E+02  0.00000000000E+00 0.  1.
</event>
<event>
 7    1  0.1205909E-011  0.5930195E+02  0.7816164E-02  0.1266605E+00
        -11   -1    0    0    0    0  0.00000000000E+00  0.00000000000E+00  0.45593999997E+02  0.45594000000E+02  0.51100000000E-03 0.  1.
         11   -1    0    0    0    0 -0.00000000000E+00 -0.00000000000E+00 -0.45593999997E+02  0.45594000000E+02  0.51100000000E-03 0. -1.
    9900012    2    1    2    0    0  0.29075456971E+02  0.41153435854E+01  0.12425852908E+02  0.59301951775E+02  0.50000014129E+02 0.  0.
         12    1    1    2    0    0 -0.29075456971E+02 -0.41153435854E+01 -0.12425852908E+02  0.31886048225E+02  0.00000000000E+00 0. -1.
         11    1    3    3    0    0 -0.53660325153E+01  0.49200573331E+01  0.18466894560E+02  0.19850125039E+02  0.51100000000E-03 0.  1.
        -11    1    3    3    0    0  0.10758960330E+01  0.59808150178E+00  0.43155757321E+01  0.44876996243E+01  0.51100000000E-03 0. -1.
         12    1    3    3    0    0  0.33365593454E+02 -0.14027952495E+01 -0.10356617385E+02  0.34964127112E+02  0.00000000000E+00 0. -1.
</event>
<event>
 7    1  0.1205909E-011  0.5930197E+02  0.7816164E-02  0.1266605E+00
        -11   -1    0    0    0    0  0.00000000000E+00  0.00000000000E+00  0.45593999997E+02  0.45594000000E+02  0.51100000000E-03 0.  1.
         11   -1    0    0    0    0 -0.00000000000E+00 -0.00000000000E+00 -0.45593999997E+02  0.45594000000E+02  0.51100000000E-03 0. -1.
    9900012    2    1    2    0    0 -0.22908722442E+02 -0.20701897437E+02  0.79586901650E+01  0.59301970605E+02  0.50000048470E+02 0.  0.
         12    1    1    2    0    0  0.22908722442E+02  0.20701897437E+02 -0.79586901650E+01  0.31886029395E+02  0.00000000000E+00 0. -1.
         11    1    3    3    0    0  0.83227347287E+01  0.79886446610E+01  0.18574868650E+01  0.11684888301E+02  0.51100000000E-03 0.  1.
        -11    1    3    3    0    0 -0.13728390415E+02 -0.24569640896E+02 -0.12928126703E+01  0.28174586457E+02  0.51100000000E-03 0. -1.
        -12    1    3    3    0    0 -0.17503066756E+02 -0.41209012020E+01  0.73940159703E+01  0.19442495847E+02  0.00000000000E+00 0.  1.
</event>
<event>
 7    1  0.1205909E-011  0.5930203E+02  0.7816164E-02  0.1266604E+00
        -11   -1    0    0    0    0  0.00000000000E+00  0.00000000000E+00  0.45593999997E+02  0.45594000000E+02  0.51100000000E-03 0. -1.
         11   -1    0    0    0    0 -0.00000000000E+00 -0.00000000000E+00 -0.45593999997E+02  0.45594000000E+02  0.51100000000E-03 0.  1.
    9900012    2    1    2    0    0 -0.57099372850E+01 -0.29836916339E+02 -0.96886640301E+01  0.59302028616E+02  0.50000154268E+02 0.  0.
         12    1    1    2    0    0  0.57099372850E+01  0.29836916339E+02  0.96886640301E+01  0.31885971384E+02  0.00000000000E+00 0. -1.
         11    1    3    3    0    0  0.83103436266E+01 -0.90522031366E+01 -0.15670831861E+02  0.19914295476E+02  0.51100000000E-03 0. -1.
        -11    1    3    3    0    0  0.38821587152E+01  0.86540569860E+00 -0.72997865866E+01  0.83130600734E+01  0.51100000000E-03 0.  1.
         12    1    3    3    0    0 -0.17902439627E+02 -0.21650118901E+02  0.13281954418E+02  0.31074673066E+02  0.00000000000E+00 0. -1.
</event>
<event>
 7    1  0.1205909E-011  0.5930195E+02  0.7816164E-02  0.1266605E+00
        -11   -1    0    0    0    0  0.00000000000E+00  0.00000000000E+00  0.45593999997E+02  0.45594000000E+02  0.51100000000E-03 0.  1.
         11   -1    0    0    0    0 -0.00000000000E+00 -0.00000000000E+00 -0.45593999997E+02  0.45594000000E+02  0.51100000000E-03 0. -1.
    9900012    2    1    2    0    0  0.21787661276E+02  0.17653485695E+02  0.15178016734E+02  0.59301953944E+02  0.50000018085E+02 0.  0.
         12    1    1    2    0    0 -0.21787661276E+02 -0.17653485695E+02 -0.15178016734E+02  0.31886046056E+02  0.00000000000E+00 0. -1.
         11    1    3    3    0    0  0.21880207207E+02  0.27559033486E+02  0.58990760217E+01  0.35679726628E+02  0.51100000000E-03 0. -1.
        -11    1    3    3    0    0  0.19233022706E+01  0.56796585448E+01  0.22138443127E+01  0.63920825802E+01  0.51100000000E-03 0.  1.
         12    1    3    3    0    0 -0.20158482010E+01 -0.15585206335E+02  0.70650963999E+01  0.17230144736E+02  0.00000000000E+00 0. -1.
</event>
<event>
 7    1  0.1205909E-011  0.5930194E+02  0.7816164E-02  0.1266605E+00
        -11   -1    0    0    0    0  0.00000000000E+00  0.00000000000E+00  0.45593999997E+02  0.45594000000E+02  0.51100000000E-03 0. -1.
         11   -1    0    0    0    0 -0.00000000000E+00 -0.00000000000E+00 -0.45593999997E+02  0.45594000000E+02  0.51100000000E-03 0.  1.
    9900012    2    1    2    0    0  0.29422734765E+02  0.97245475781E+01  0.75137634693E+01  0.59301940537E+02  0.49999993633E+02 0.  0.
         12    1    1    2    0    0 -0.29422734765E+02 -0.97245475781E+01 -0.75137634693E+01  0.31886059463E+02  0.00000000000E+00 0. -1.
         11    1    3    3    0    0  0.18508508815E+01 -0.52390963150E+01 -0.12152978695E+02  0.13362958901E+02  0.51100000000E-03 0. -1.
        -11    1    3    3    0    0  0.11255940335E+02  0.34765640820E+01 -0.61663042079E+01  0.13296841673E+02  0.51100000000E-03 0.  1.
        -12    1    3    3    0    0  0.16315943549E+02  0.11487079811E+02  0.25833046372E+02  0.32642139962E+02  0.00000000000E+00 0.  1.
</event>
<event>
 7    1  0.1205909E-011  0.5930194E+02  0.7816164E-02  0.1266605E+00
        -11   -1    0    0    0    0  0.00000000000E+00  0.00000000000E+00  0.45593999997E+02  0.45594000000E+02  0.51100000000E-03 0.  1.
         11   -1    0    0    0    0 -0.00000000000E+00 -0.00000000000E+00 -0.45593999997E+02  0.45594000000E+02  0.51100000000E-03 0. -1.
    9900012    2    1    2    0    0  0.12957745230E+01  0.77481930340E+01  0.30903190534E+02  0.59301941729E+02  0.49999995807E+02 0.  0.
         12    1    1    2    0    0 -0.12957745230E+01 -0.77481930340E+01 -0.30903190534E+02  0.31886058271E+02  0.00000000000E+00 0. -1.
         11    1    3    3    0    0  0.20693402441E+01  0.81939828725E+01 -0.73512464064E+01  0.11201086927E+02  0.51100000000E-03 0. -1.
        -11    1    3    3    0    0  0.18559927777E+01  0.47567076616E+01 -0.33390704662E+01  0.61008498431E+01  0.51100000000E-03 0.  1.
        -12    1    3    3    0    0 -0.26295584989E+01 -0.52024975000E+01  0.41593507406E+02  0.42000004958E+02  0.00000000000E+00 0.  1.
</event>
<event>
 7    1  0.1205909E-011  0.5930195E+02  0.7816164E-02  0.1266605E+00
        -11   -1    0    0    0    0  0.00000000000E+00  0.00000000000E+00  0.45593999997E+02  0.45594000000E+02  0.51100000000E-03 0.  1.
         11   -1    0    0    0    0 -0.00000000000E+00 -0.00000000000E+00 -0.45593999997E+02  0.45594000000E+02  0.51100000000E-03 0. -1.
    9900012    2    1    2    0    0 -0.19196180201E+02 -0.20027863286E+02  0.15719784090E+02  0.59301948913E+02  0.50000008909E+02 0.  0.
         12    1    1    2    0    0  0.19196180201E+02  0.20027863286E+02 -0.15719784090E+02  0.31886051087E+02  0.00000000000E+00 0. -1.
         11    1    3    3    0    0 -0.18880007562E+02 -0.22368581310E+01 -0.73095772949E+00  0.19026101001E+02  0.51100000000E-03 0. -1.
        -11    1    3    3    0    0 -0.74911334923E+01  0.41912557333E+01  0.14780149102E+02  0.17092001444E+02  0.51100000000E-03 0.  1.
        -12    1    3    3    0    0  0.71749608535E+01 -0.21982260888E+02  0.16705927174E+01  0.23183846468E+02  0.00000000000E+00 0.  1.
</event>
<event>
 7    1  0.1520470E-011  0.5930195E+02  0.7816164E-02  0.1266605E+00
        -11   -1    0    0    0    0  0.00000000000E+00  0.00000000000E+00  0.45593999997E+02  0.45594000000E+02  0.51100000000E-03 0. -1.
         11   -1    0    0    0    0 -0.00000000000E+00 -0.00000000000E+00 -0.45593999997E+02  0.45594000000E+02  0.51100000000E-03 0.  1.
    9900012    2    1    2    0    0 -0.65985663725E+01  0.11027113162E+02 -0.29181875099E+02  0.59301950744E+02  0.50000012249E+02 0.  0.
         12    1    1    2    0    0  0.65985663725E+01 -0.11027113162E+02  0.29181875099E+02  0.31886049256E+02  0.00000000000E+00 0. -1.
         11    1    3    3    0    0 -0.18680400953E+02  0.21693330185E+01 -0.35777877628E-01  0.18805974206E+02  0.51100000000E-03 0. -1.
        -11    1    3    3    0    0 -0.57076671684E+00 -0.66118276589E+01 -0.13751770831E+02  0.15269356269E+02  0.51100000000E-03 0.  1.
        -12    1    3    3    0    0  0.12652601298E+02  0.15469607802E+02 -0.15394326391E+02  0.25226620269E+02  0.00000000000E+00 0.  1.
</event>
<event>
 7    1  0.1205909E-011  0.5930197E+02  0.7816164E-02  0.1266605E+00
        -11   -1    0    0    0    0  0.00000000000E+00  0.00000000000E+00  0.45593999997E+02  0.45594000000E+02  0.51100000000E-03 0.  1.
         11   -1    0    0    0    0 -0.00000000000E+00 -0.00000000000E+00 -0.45593999997E+02  0.45594000000E+02  0.51100000000E-03 0. -1.
    9900012    2    1    2    0    0  0.20488829175E+02  0.27686430733E+01  0.24274702218E+02  0.59301973700E+02  0.50000054115E+02 0.  0.
         12    1    1    2    0    0 -0.20488829175E+02 -0.27686430733E+01 -0.24274702218E+02  0.31886026300E+02  0.00000000000E+00 0. -1.
         11    1    3    3    0    0  0.25912702721E+02  0.37175334176E+00 -0.50870717539E+01  0.26409934913E+02  0.51100000000E-03 0. -1.
        -11    1    3    3    0    0  0.39527064416E+01  0.21349976462E+01  0.15625728828E+02  0.16258705509E+02  0.51100000000E-03 0.  1.
        -12    1    3    3    0    0 -0.93765799876E+01  0.26189208533E+00  0.13736045145E+02  0.16633333278E+02  0.00000000000E+00 0.  1.
</event>
<event>
 7    1  0.1205909E-011  0.5930191E+02  0.7816164E-02  0.1266605E+00
        -11   -1    0    0    0    0  0.00000000000E+00  0.00000000000E+00  0.45593999997E+02  0.45594000000E+02  0.51100000000E-03 0.  1.
         11   -1    0    0    0    0 -0.00000000000E+00 -0.00000000000E+00 -0.45593999997E+02  0.45594000000E+02  0.51100000000E-03 0. -1.
    9900012    2    1    2    0    0  0.22840339823E+02  0.12026823598E+02  0.18718891014E+02  0.59301913851E+02  0.49999944965E+02 0.  0.
         12    1    1    2    0    0 -0.22840339823E+02 -0.12026823598E+02 -0.18718891014E+02  0.31886086149E+02  0.00000000000E+00 0. -1.
         11    1    3    3    0    0  0.19247496957E+02  0.11789704687E+02  0.14830642034E+02  0.27007614096E+02  0.51100000000E-03 0. -1.
        -11    1    3    3    0    0  0.13490452871E+02 -0.71715359553E+01 -0.60493126911E+01  0.16432207122E+02  0.51100000000E-03 0.  1.
         12    1    3    3    0    0 -0.98976100047E+01  0.74086548669E+01  0.99375616709E+01  0.15862092633E+02  0.00000000000E+00 0. -1.
</event>
<event>
 7    1  0.1205909E-011  0.5930194E+02  0.7816164E-02  0.1266605E+00
        -11   -1    0    0    0    0  0.00000000000E+00  0.00000000000E+00  0.45593999997E+02  0.45594000000E+02  0.51100000000E-03 0.  1.
         11   -1    0    0    0    0 -0.00000000000E+00 -0.00000000000E+00 -0.45593999997E+02  0.45594000000E+02  0.51100000000E-03 0. -1.
    9900012    2    1    2    0    0 -0.11549998943E+02 -0.78489969659E+01  0.28665514708E+02  0.59301937803E+02  0.49999988647E+02 0.  0.
         12    1    1    2    0    0  0.11549998943E+02  0.78489969659E+01 -0.28665514708E+02  0.31886062197E+02  0.00000000000E+00 0. -1.
         11    1    3    3    0    0 -0.18520439747E+02  0.20977681380E+01  0.89204552372E+01  0.20663538939E+02  0.51100000000E-03 0. -1.
        -11    1    3    3    0    0 -0.35752504470E-01 -0.58593957579E+01  0.27077440529E+02  0.27704179878E+02  0.51100000000E-03 0.  1.
         12    1    3    3    0    0  0.70061933084E+01 -0.40873693460E+01 -0.73323810578E+01  0.10934218985E+02  0.00000000000E+00 0. -1.
</event>
<event>
 7    1  0.1205909E-011  0.5930195E+02  0.7816164E-02  0.1266605E+00
        -11   -1    0    0    0    0  0.00000000000E+00  0.00000000000E+00  0.45593999997E+02  0.45594000000E+02  0.51100000000E-03 0. -1.
         11   -1    0    0    0    0 -0.00000000000E+00 -0.00000000000E+00 -0.45593999997E+02  0.45594000000E+02  0.51100000000E-03 0.  1.
    9900012    2    1    2    0    0  0.22335826087E+02  0.11419414020E+02 -0.19683187398E+02  0.59301952742E+02  0.50000015894E+02 0.  0.
         12    1    1    2    0    0 -0.22335826087E+02 -0.11419414020E+02  0.19683187398E+02  0.31886047258E+02  0.00000000000E+00 0. -1.
         11    1    3    3    0    0 -0.47240399442E+00  0.14402565445E+02 -0.44284353607E+01  0.15075413657E+02  0.51100000000E-03 0. -1.
        -11    1    3    3    0    0  0.12520026967E+02 -0.18829459335E+02 -0.87228398537E+01  0.24236079499E+02  0.51100000000E-03 0.  1.
         12    1    3    3    0    0  0.10288203114E+02  0.15846307910E+02 -0.65319121840E+01  0.19990459586E+02  0.00000000000E+00 0. -1.
</event>
<event>
 7    1  0.1205909E-011  0.5930188E+02  0.7816164E-02  0.1266605E+00
        -11   -1    0    0    0    0  0.00000000000E+00  0.00000000000E+00  0.45593999997E+02  0.45594000000E+02  0.51100000000E-03 0.  1.
         11   -1    0    0    0    0 -0.00000000000E+00 -0.00000000000E+00 -0.45593999997E+02  0.45594000000E+02  0.51100000000E-03 0. -1.
    9900012    2    1    2    0    0  0.11001133786E+02  0.14126646037E+02  0.26384414223E+02  0.59301884108E+02  0.49999890720E+02 0.  0.
         12    1    1    2    0    0 -0.11001133786E+02 -0.14126646037E+02 -0.26384414223E+02  0.31886115892E+02  0.00000000000E+00 0. -1.
         11    1    3    3    0    0  0.84903870879E+01  0.19565617683E+01  0.96986638370E+01  0.13037595152E+02  0.51100000000E-03 0. -1.
        -11    1    3    3    0    0  0.12646260810E+02 -0.41104726737E+01  0.22577073725E+02  0.26202063971E+02  0.51100000000E-03 0.  1.
         12    1    3    3    0    0 -0.10135514112E+02  0.16280556943E+02 -0.58913233393E+01  0.20062224985E+02  0.00000000000E+00 0. -1.
</event>
<event>
 7    1  0.1205909E-011  0.5930196E+02  0.7816164E-02  0.1266605E+00
        -11   -1    0    0    0    0  0.00000000000E+00  0.00000000000E+00  0.45593999997E+02  0.45594000000E+02  0.51100000000E-03 0.  1.
         11   -1    0    0    0    0 -0.00000000000E+00 -0.00000000000E+00 -0.45593999997E+02  0.45594000000E+02  0.51100000000E-03 0. -1.
    9900012    2    1    2    0    0  0.21663714490E+02  0.22719368324E+02  0.55886993579E+01  0.59301956297E+02  0.50000022375E+02 0.  0.
         12    1    1    2    0    0 -0.21663714490E+02 -0.22719368324E+02 -0.55886993579E+01  0.31886043703E+02  0.00000000000E+00 0. -1.
         11    1    3    3    0    0 -0.82923742129E+01  0.14372899884E+02  0.91803482143E+00  0.16618860050E+02  0.51100000000E-03 0. -1.
        -11    1    3    3    0    0 -0.43151873890E+01  0.24917550604E+01  0.61115535487E+01  0.78854785855E+01  0.51100000000E-03 0.  1.
         12    1    3    3    0    0  0.34271276092E+02  0.58547133791E+01 -0.14408890122E+01  0.34797617661E+02  0.00000000000E+00 0. -1.
</event>
<event>
 7    1  0.1205909E-011  0.5930194E+02  0.7816164E-02  0.1266605E+00
        -11   -1    0    0    0    0  0.00000000000E+00  0.00000000000E+00  0.45593999997E+02  0.45594000000E+02  0.51100000000E-03 0.  1.
         11   -1    0    0    0    0 -0.00000000000E+00 -0.00000000000E+00 -0.45593999997E+02  0.45594000000E+02  0.51100000000E-03 0. -1.
    9900012    2    1    2    0    0  0.66838624759E+01  0.19526313356E+02  0.24305752373E+02  0.59301944595E+02  0.50000001035E+02 0.  0.
         12    1    1    2    0    0 -0.66838624759E+01 -0.19526313356E+02 -0.24305752373E+02  0.31886055405E+02  0.00000000000E+00 0. -1.
         11    1    3    3    0    0 -0.49730616132E+01 -0.14701568403E+01 -0.48207251108E+01  0.70804020930E+01  0.51100000000E-03 0. -1.
        -11    1    3    3    0    0 -0.65653137035E+01  0.21198916237E+02  0.64111668479E+01  0.23099793381E+02  0.51100000000E-03 0.  1.
         12    1    3    3    0    0  0.18222237793E+02 -0.20244604097E+00  0.22715310636E+02  0.29121749121E+02  0.00000000000E+00 0. -1.
</event>
<event>
 7    1  0.1205909E-011  0.5930193E+02  0.7816164E-02  0.1266605E+00
        -11   -1    0    0    0    0  0.00000000000E+00  0.00000000000E+00  0.45593999997E+02  0.45594000000E+02  0.51100000000E-03 0.  1.
         11   -1    0    0    0    0 -0.00000000000E+00 -0.00000000000E+00 -0.45593999997E+02  0.45594000000E+02  0.51100000000E-03 0. -1.
    9900012    2    1    2    0    0  0.48563096863E+01  0.28780591259E+02  0.12838042344E+02  0.59301929245E+02  0.49999973040E+02 0.  0.
         12    1    1    2    0    0 -0.48563096863E+01 -0.28780591259E+02 -0.12838042344E+02  0.31886070755E+02  0.00000000000E+00 0. -1.
         11    1    3    3    0    0  0.45375975430E+01  0.50768809221E+01  0.11293759254E+02  0.13187627144E+02  0.51100000000E-03 0. -1.
        -11    1    3    3    0    0  0.82631570264E+01  0.21850686196E+02  0.16827244564E+02  0.28790422213E+02  0.51100000000E-03 0.  1.
         12    1    3    3    0    0 -0.79444448831E+01  0.18530241403E+01 -0.15282961474E+02  0.17323879888E+02  0.00000000000E+00 0. -1.
</event>
<event>
 7    1  0.1205909E-011  0.5930194E+02  0.7816164E-02  0.1266605E+00
        -11   -1    0    0    0    0  0.00000000000E+00  0.00000000000E+00  0.45593999997E+02  0.45594000000E+02  0.51100000000E-03 0. -1.
         11   -1    0    0    0    0 -0.00000000000E+00 -0.00000000000E+00 -0.45593999997E+02  0.45594000000E+02  0.51100000000E-03 0.  1.
    9900012    2    1    2    0    0 -0.21240552340E+02 -0.20299203617E+02 -0.12389591800E+02  0.59301941665E+02  0.49999995691E+02 0.  0.
         12    1    1    2    0    0  0.21240552340E+02  0.20299203617E+02  0.12389591800E+02  0.31886058335E+02  0.00000000000E+00 0. -1.
         11    1    3    3    0    0  0.30176201176E+01  0.35991112980E+01 -0.11193511767E+02  0.12138959562E+02  0.51100000000E-03 0. -1.
        -11    1    3    3    0    0 -0.31097292848E+02 -0.17453377670E+02 -0.66827595856E+01  0.36281142354E+02  0.51100000000E-03 0.  1.
         12    1    3    3    0    0  0.68391203911E+01 -0.64449372443E+01  0.54866795522E+01  0.10881839749E+02  0.00000000000E+00 0. -1.
</event>
<event>
 7    1  0.1205909E-011  0.5930194E+02  0.7816164E-02  0.1266605E+00
        -11   -1    0    0    0    0  0.00000000000E+00  0.00000000000E+00  0.45593999997E+02  0.45594000000E+02  0.51100000000E-03 0. -1.
         11   -1    0    0    0    0 -0.00000000000E+00 -0.00000000000E+00 -0.45593999997E+02  0.45594000000E+02  0.51100000000E-03 0.  1.
    9900012    2    1    2    0    0  0.31092830414E+02  0.27121782244E+01 -0.65269137055E+01  0.59301943229E+02  0.49999998543E+02 0.  0.
         12    1    1    2    0    0 -0.31092830414E+02 -0.27121782244E+01  0.65269137055E+01  0.31886056771E+02  0.00000000000E+00 0. -1.
         11    1    3    3    0    0  0.20879752097E+01  0.32039535070E+01  0.13948742941E+02  0.14463484658E+02  0.51100000000E-03 0. -1.
        -11    1    3    3    0    0  0.15187247829E+01  0.10194118014E+02 -0.66701688771E+01  0.12276714550E+02  0.51100000000E-03 0.  1.
         12    1    3    3    0    0  0.27486130422E+02 -0.10685893296E+02 -0.13805487769E+02  0.32561744021E+02  0.00000000000E+00 0. -1.
</event>
<event>
 7    1  0.1205909E-011  0.5930194E+02  0.7816164E-02  0.1266605E+00
        -11   -1    0    0    0    0  0.00000000000E+00  0.00000000000E+00  0.45593999997E+02  0.45594000000E+02  0.51100000000E-03 0.  1.
         11   -1    0    0    0    0 -0.00000000000E+00 -0.00000000000E+00 -0.45593999997E+02  0.45594000000E+02  0.51100000000E-03 0. -1.
    9900012    2    1    2    0    0 -0.50653028258E+00 -0.10053096419E+02  0.30255570503E+02  0.59301939300E+02  0.49999991377E+02 0.  0.
         12    1    1    2    0    0  0.50653028258E+00  0.10053096419E+02 -0.30255570503E+02  0.31886060700E+02  0.00000000000E+00 0. -1.
         11    1    3    3    0    0 -0.49947460109E+01 -0.26590258472E+02  0.54460426099E+01  0.27597983870E+02  0.51100000000E-03 0. -1.
        -11    1    3    3    0    0 -0.12767596254E+01  0.34314620263E+00 -0.21993955547E+00  0.13402380858E+01  0.51100000000E-03 0.  1.
        -12    1    3    3    0    0  0.57649753537E+01  0.16194015851E+02  0.25029467448E+02  0.30363717344E+02  0.00000000000E+00 0.  1.
</event>
<event>
 7    1  0.1205909E-011  0.5930199E+02  0.7816164E-02  0.1266605E+00
        -11   -1    0    0    0    0  0.00000000000E+00  0.00000000000E+00  0.45593999997E+02  0.45594000000E+02  0.51100000000E-03 0. -1.
         11   -1    0    0    0    0 -0.00000000000E+00 -0.00000000000E+00 -0.45593999997E+02  0.45594000000E+02  0.51100000000E-03 0.  1.
    9900012    2    1    2    0    0  0.15181532555E+01  0.23364534032E+02 -0.21645120619E+02  0.59301992309E+02  0.50000088053E+02 0.  0.
         12    1    1    2    0    0 -0.15181532555E+01 -0.23364534032E+02  0.21645120619E+02  0.31886007691E+02  0.00000000000E+00 0. -1.
         11    1    3    3    0    0  0.57091226789E+01  0.58210254425E+01  0.37080627596E+01  0.89570167274E+01  0.51100000000E-03 0. -1.
        -11    1    3    3    0    0 -0.51432922637E+01  0.10560530233E+02  0.93000821479E+01  0.14982315653E+02  0.51100000000E-03 0.  1.
        -12    1    3    3    0    0  0.95232284032E+00  0.69829783565E+01 -0.34653265527E+02  0.35362659928E+02  0.00000000000E+00 0.  1.
</event>
<event>
 7    1  0.1205909E-011  0.5930208E+02  0.7816164E-02  0.1266604E+00
        -11   -1    0    0    0    0  0.00000000000E+00  0.00000000000E+00  0.45593999997E+02  0.45594000000E+02  0.51100000000E-03 0. -1.
         11   -1    0    0    0    0 -0.00000000000E+00 -0.00000000000E+00 -0.45593999997E+02  0.45594000000E+02  0.51100000000E-03 0.  1.
    9900012    2    1    2    0    0  0.26623909359E+02 -0.14534138583E+02 -0.98304724575E+01  0.59302079555E+02  0.50000247168E+02 0.  0.
         12    1    1    2    0    0 -0.26623909359E+02  0.14534138583E+02  0.98304724575E+01  0.31885920445E+02  0.00000000000E+00 0. -1.
         11    1    3    3    0    0  0.89638384445E+01  0.65045551713E+01  0.14652305662E+02  0.18367081943E+02  0.51100000000E-03 0. -1.
        -11    1    3    3    0    0  0.39061149912E+01  0.25843778836E+01 -0.76754128485E+00  0.47461419337E+01  0.51100000000E-03 0.  1.
         12    1    3    3    0    0  0.13753955923E+02 -0.23623071638E+02 -0.23715236834E+02  0.36188855678E+02  0.00000000000E+00 0. -1.
</event>
<event>
 7    1  0.1205909E-011  0.5930199E+02  0.7816164E-02  0.1266605E+00
        -11   -1    0    0    0    0  0.00000000000E+00  0.00000000000E+00  0.45593999997E+02  0.45594000000E+02  0.51100000000E-03 0. -1.
         11   -1    0    0    0    0 -0.00000000000E+00 -0.00000000000E+00 -0.45593999997E+02  0.45594000000E+02  0.51100000000E-03 0.  1.
    9900012    2    1    2    0    0 -0.17658215125E+02 -0.23757939449E+02  0.11851812197E+02  0.59301988951E+02  0.50000081930E+02 0.  0.
         12    1    1    2    0    0  0.17658215125E+02  0.23757939449E+02 -0.11851812197E+02  0.31886011049E+02  0.00000000000E+00 0. -1.
         11    1    3    3    0    0 -0.25426835301E+02 -0.24306529035E+02 -0.16588134634E+01  0.35214811792E+02  0.51100000000E-03 0. -1.
        -11    1    3    3    0    0 -0.76424241262E+00  0.80991943073E+01  0.80775389348E+01  0.11464189915E+02  0.51100000000E-03 0.  1.
        -12    1    3    3    0    0  0.85328625888E+01 -0.75506047210E+01  0.54330867254E+01  0.12622987245E+02  0.00000000000E+00 0.  1.
</event>
<event>
 7    1  0.1205909E-011  0.5930209E+02  0.7816164E-02  0.1266604E+00
        -11   -1    0    0    0    0  0.00000000000E+00  0.00000000000E+00  0.45593999997E+02  0.45594000000E+02  0.51100000000E-03 0.  1.
         11   -1    0    0    0    0 -0.00000000000E+00 -0.00000000000E+00 -0.45593999997E+02  0.45594000000E+02  0.51100000000E-03 0. -1.
    9900012    2    1    2    0    0 -0.52173697106E+01  0.27789547090E+02  0.14738778834E+02  0.59302086563E+02  0.50000259950E+02 0.  0.
         12    1    1    2    0    0  0.52173697106E+01 -0.27789547090E+02 -0.14738778834E+02  0.31885913437E+02  0.00000000000E+00 0. -1.
         11    1    3    3    0    0 -0.10513883674E+01  0.14561421292E+02  0.15139789046E+02  0.21032204358E+02  0.51100000000E-03 0. -1.
        -11    1    3    3    0    0 -0.34539338118E+01  0.20760043440E+02  0.11639593006E+02  0.24049723242E+02  0.51100000000E-03 0.  1.
         12    1    3    3    0    0 -0.71204753134E+00 -0.75319176426E+01 -0.12040603218E+02  0.14220158962E+02  0.00000000000E+00 0. -1.
</event>
<event>
 7    1  0.1205909E-011  0.5930193E+02  0.7816164E-02  0.1266605E+00
        -11   -1    0    0    0    0  0.00000000000E+00  0.00000000000E+00  0.45593999997E+02  0.45594000000E+02  0.51100000000E-03 0.  1.
         11   -1    0    0    0    0 -0.00000000000E+00 -0.00000000000E+00 -0.45593999997E+02  0.45594000000E+02  0.51100000000E-03 0. -1.
    9900012    2    1    2    0    0 -0.15329076533E+02 -0.18642263706E+02  0.20837633288E+02  0.59301928676E+02  0.49999972002E+02 0.  0.
         12    1    1    2    0    0  0.15329076533E+02  0.18642263706E+02 -0.20837633288E+02  0.31886071324E+02  0.00000000000E+00 0. -1.
         11    1    3    3    0    0 -0.13743955517E+01 -0.11616677696E+02 -0.39696624039E+01  0.12352909928E+02  0.51100000000E-03 0. -1.
        -11    1    3    3    0    0 -0.22185636685E+02 -0.15783789187E+02  0.20855876519E+02  0.34297201954E+02  0.51100000000E-03 0.  1.
        -12    1    3    3    0    0  0.82309557046E+01  0.87582031773E+01  0.39514191730E+01  0.12651816794E+02  0.00000000000E+00 0.  1.
</event>
<event>
 7    1  0.1205909E-011  0.5930192E+02  0.7816164E-02  0.1266605E+00
        -11   -1    0    0    0    0  0.00000000000E+00  0.00000000000E+00  0.45593999997E+02  0.45594000000E+02  0.51100000000E-03 0. -1.
         11   -1    0    0    0    0 -0.00000000000E+00 -0.00000000000E+00 -0.45593999997E+02  0.45594000000E+02  0.51100000000E-03 0.  1.
    9900012    2    1    2    0    0 -0.19469040014E+02  0.50447577571E+01 -0.24743262301E+02  0.59301919507E+02  0.49999955280E+02 0.  0.
         12    1    1    2    0    0  0.19469040014E+02 -0.50447577571E+01  0.24743262301E+02  0.31886080493E+02  0.00000000000E+00 0. -1.
         11    1    3    3    0    0 -0.24819603247E+02 -0.14254526943E+02 -0.73320382048E+01  0.29545947746E+02  0.51100000000E-03 0. -1.
        -11    1    3    3    0    0  0.15308367187E+00 -0.14162055987E+01 -0.46794872357E+01  0.48914899528E+01  0.51100000000E-03 0.  1.
        -12    1    3    3    0    0  0.51974795613E+01  0.20715490299E+02 -0.12731736861E+02  0.24864481808E+02  0.00000000000E+00 0.  1.
</event>
<event>
 7    1  0.1205909E-011  0.5930199E+02  0.7816164E-02  0.1266605E+00
        -11   -1    0    0    0    0  0.00000000000E+00  0.00000000000E+00  0.45593999997E+02  0.45594000000E+02  0.51100000000E-03 0.  1.
         11   -1    0    0    0    0 -0.00000000000E+00 -0.00000000000E+00 -0.45593999997E+02  0.45594000000E+02  0.51100000000E-03 0. -1.
    9900012    2    1    2    0    0 -0.23283098321E+02  0.65938454291E+01  0.20763820746E+02  0.59301988695E+02  0.50000081463E+02 0.  0.
         12    1    1    2    0    0  0.23283098321E+02 -0.65938454291E+01 -0.20763820746E+02  0.31886011305E+02  0.00000000000E+00 0. -1.
         11    1    3    3    0    0  0.27650759102E+01 -0.24605258784E+00  0.65295954714E+01  0.70951958357E+01  0.51100000000E-03 0. -1.
        -11    1    3    3    0    0  0.11041931045E+02 -0.28949839733E+01  0.63353680746E+01  0.13055346120E+02  0.51100000000E-03 0.  1.
         12    1    3    3    0    0 -0.37090105276E+02  0.97348819903E+01  0.78988571997E+01  0.39151446740E+02  0.00000000000E+00 0. -1.
</event>
<event>
 7    1  0.1205909E-011  0.5930193E+02  0.7816164E-02  0.1266605E+00
        -11   -1    0    0    0    0  0.00000000000E+00  0.00000000000E+00  0.45593999997E+02  0.45594000000E+02  0.51100000000E-03 0. -1.
         11   -1    0    0    0    0 -0.00000000000E+00 -0.00000000000E+00 -0.45593999997E+02  0.45594000000E+02  0.51100000000E-03 0.  1.
    9900012    2    1    2    0    0  0.19630074360E+02  0.12920583679E+02 -0.21550867464E+02  0.59301934228E+02  0.49999982127E+02 0.  0.
         12    1    1    2    0    0 -0.19630074360E+02 -0.12920583679E+02  0.21550867464E+02  0.31886065772E+02  0.00000000000E+00 0. -1.
         11    1    3    3    0    0 -0.57488739829E+01 -0.21812469862E+01  0.49412773320E+01  0.78881944967E+01  0.51100000000E-03 0. -1.
        -11    1    3    3    0    0 -0.24263725563E+01 -0.70036457292E+01 -0.94653714681E+01  0.12022129369E+02  0.51100000000E-03 0.  1.
         12    1    3    3    0    0  0.27805320899E+02  0.22105476395E+02 -0.17026773328E+02  0.39391610362E+02  0.00000000000E+00 0. -1.
</event>
<event>
 7    1  0.1205909E-011  0.5930180E+02  0.7816164E-02  0.1266605E+00
        -11   -1    0    0    0    0  0.00000000000E+00  0.00000000000E+00  0.45593999997E+02  0.45594000000E+02  0.51100000000E-03 0.  1.
         11   -1    0    0    0    0 -0.00000000000E+00 -0.00000000000E+00 -0.45593999997E+02  0.45594000000E+02  0.51100000000E-03 0. -1.
    9900012    2    1    2    0    0  0.23095458790E+02 -0.11558883997E+02  0.18700848980E+02  0.59301799716E+02  0.49999736810E+02 0.  0.
         12    1    1    2    0    0 -0.23095458790E+02  0.11558883997E+02 -0.18700848980E+02  0.31886200284E+02  0.00000000000E+00 0. -1.
         11    1    3    3    0    0  0.81788054706E+01  0.10873599368E+02  0.12741413362E+02  0.18640591109E+02  0.51100000000E-03 0. -1.
        -11    1    3    3    0    0 -0.28139457415E+01 -0.12912582423E+01  0.12019146011E+02  0.12411507144E+02  0.51100000000E-03 0.  1.
         12    1    3    3    0    0  0.17730599061E+02 -0.21141225123E+02 -0.60597103935E+01  0.28249701464E+02  0.00000000000E+00 0. -1.
</event>
<event>
 7    1  0.1205909E-011  0.5930195E+02  0.7816164E-02  0.1266605E+00
        -11   -1    0    0    0    0  0.00000000000E+00  0.00000000000E+00  0.45593999997E+02  0.45594000000E+02  0.51100000000E-03 0.  1.
         11   -1    0    0    0    0 -0.00000000000E+00 -0.00000000000E+00 -0.45593999997E+02  0.45594000000E+02  0.51100000000E-03 0. -1.
    9900012    2    1    2    0    0  0.27383169996E+02  0.13109546156E+02  0.97479378856E+01  0.59301945172E+02  0.50000002088E+02 0.  0.
         12    1    1    2    0    0 -0.27383169996E+02 -0.13109546156E+02 -0.97479378856E+01  0.31886054828E+02  0.00000000000E+00 0. -1.
         11    1    3    3    0    0 -0.61182659608E+01  0.12698286462E+02 -0.29955276718E+01  0.14410164598E+02  0.51100000000E-03 0. -1.
        -11    1    3    3    0    0 -0.39580831521E+00  0.35887714047E+01  0.10120256891E+02  0.10745024160E+02  0.51100000000E-03 0.  1.
        -12    1    3    3    0    0  0.33897244272E+02 -0.31775117105E+01  0.26232086669E+01  0.34146756414E+02  0.00000000000E+00 0.  1.
</event>
<event>
 7    1  0.1205909E-011  0.5930194E+02  0.7816164E-02  0.1266605E+00
        -11   -1    0    0    0    0  0.00000000000E+00  0.00000000000E+00  0.45593999997E+02  0.45594000000E+02  0.51100000000E-03 0.  1.
         11   -1    0    0    0    0 -0.00000000000E+00 -0.00000000000E+00 -0.45593999997E+02  0.45594000000E+02  0.51100000000E-03 0. -1.
    9900012    2    1    2    0    0 -0.17327117301E+02 -0.15235638548E+02  0.22008342797E+02  0.59301939901E+02  0.49999992474E+02 0.  0.
         12    1    1    2    0    0  0.17327117301E+02  0.15235638548E+02 -0.22008342797E+02  0.31886060099E+02  0.00000000000E+00 0. -1.
         11    1    3    3    0    0 -0.15196205950E+01 -0.11344711961E+02 -0.61660459030E+01  0.13001225272E+02  0.51100000000E-03 0.  1.
        -11    1    3    3    0    0 -0.34906826907E+01 -0.11701446316E+02 -0.23829172421E+01  0.12441342627E+02  0.51100000000E-03 0. -1.
        -12    1    3    3    0    0 -0.12316814015E+02  0.78105197285E+01  0.30557305942E+02  0.33859372002E+02  0.00000000000E+00 0.  1.
</event>
<event>
 7    1  0.1205909E-011  0.5930196E+02  0.7816164E-02  0.1266605E+00
        -11   -1    0    0    0    0  0.00000000000E+00  0.00000000000E+00  0.45593999997E+02  0.45594000000E+02  0.51100000000E-03 0. -1.
         11   -1    0    0    0    0 -0.00000000000E+00 -0.00000000000E+00 -0.45593999997E+02  0.45594000000E+02  0.51100000000E-03 0.  1.
    9900012    2    1    2    0    0  0.20808402280E+01 -0.31786773845E+02  0.14108857390E+01  0.59301960953E+02  0.50000030867E+02 0.  0.
         12    1    1    2    0    0 -0.20808402280E+01  0.31786773845E+02 -0.14108857390E+01  0.31886039047E+02  0.00000000000E+00 0. -1.
         11    1    3    3    0    0 -0.16922998895E+00  0.73087488350E+01 -0.30680181650E+01  0.79283783994E+01  0.51100000000E-03 0. -1.
        -11    1    3    3    0    0  0.80195246867E+01  0.25002256806E+01 -0.25864531220E+01  0.87894052511E+01  0.51100000000E-03 0.  1.
         12    1    3    3    0    0 -0.57694544697E+01 -0.41595748361E+02  0.70653570260E+01  0.42584177302E+02  0.00000000000E+00 0. -1.
</event>
<event>
 7    1  0.1205909E-011  0.5930194E+02  0.7816164E-02  0.1266605E+00
        -11   -1    0    0    0    0  0.00000000000E+00  0.00000000000E+00  0.45593999997E+02  0.45594000000E+02  0.51100000000E-03 0.  1.
         11   -1    0    0    0    0 -0.00000000000E+00 -0.00000000000E+00 -0.45593999997E+02  0.45594000000E+02  0.51100000000E-03 0. -1.
    9900012    2    1    2    0    0 -0.19807468868E+02  0.19860958568E+02 -0.15163345143E+02  0.59301944519E+02  0.50000000897E+02 0.  0.
         12    1    1    2    0    0  0.19807468868E+02 -0.19860958568E+02  0.15163345143E+02  0.31886055481E+02  0.00000000000E+00 0. -1.
         11    1    3    3    0    0  0.92247633815E+01  0.11584160768E+01 -0.65315020783E+01  0.11362161190E+02  0.51100000000E-03 0. -1.
        -11    1    3    3    0    0 -0.27093482649E+01  0.46709152763E+01  0.10983472279E+02  0.12239063735E+02  0.51100000000E-03 0.  1.
        -12    1    3    3    0    0 -0.26322883985E+02  0.14031627215E+02 -0.19615315343E+02  0.35700719595E+02  0.00000000000E+00 0.  1.
</event>
<event>
 7    1  0.1205909E-011  0.5930194E+02  0.7816164E-02  0.1266605E+00
        -11   -1    0    0    0    0  0.00000000000E+00  0.00000000000E+00  0.45593999997E+02  0.45594000000E+02  0.51100000000E-03 0.  1.
         11   -1    0    0    0    0 -0.00000000000E+00 -0.00000000000E+00 -0.45593999997E+02  0.45594000000E+02  0.51100000000E-03 0. -1.
    9900012    2    1    2    0    0 -0.30130550906E+02  0.10389667379E+02 -0.96190616704E+00  0.59301944276E+02  0.50000000453E+02 0.  0.
         12    1    1    2    0    0  0.30130550906E+02 -0.10389667379E+02  0.96190616704E+00  0.31886055724E+02  0.00000000000E+00 0. -1.
         11    1    3    3    0    0 -0.67829764564E+01 -0.21504292626E+01  0.17087314491E+02  0.18509711840E+02  0.51100000000E-03 0. -1.
        -11    1    3    3    0    0 -0.70700335582E+00  0.40959936577E+01  0.56047945143E+01  0.69778750059E+01  0.51100000000E-03 0.  1.
         12    1    3    3    0    0 -0.22640571094E+02  0.84441029836E+01 -0.23654015172E+02  0.33814357430E+02  0.00000000000E+00 0. -1.
</event>
<event>
 7    1  0.1205909E-011  0.5930185E+02  0.7816164E-02  0.1266605E+00
        -11   -1    0    0    0    0  0.00000000000E+00  0.00000000000E+00  0.45593999997E+02  0.45594000000E+02  0.51100000000E-03 0.  1.
         11   -1    0    0    0    0 -0.00000000000E+00 -0.00000000000E+00 -0.45593999997E+02  0.45594000000E+02  0.51100000000E-03 0. -1.
    9900012    2    1    2    0    0  0.14452636752E+01  0.91758815871E+01  0.30503132596E+02  0.59301848019E+02  0.49999824902E+02 0.  0.
         12    1    1    2    0    0 -0.14452636752E+01 -0.91758815871E+01 -0.30503132596E+02  0.31886151981E+02  0.00000000000E+00 0. -1.
         11    1    3    3    0    0 -0.58331633703E+01 -0.82352612224E-01  0.91971627083E-01  0.58344696330E+01  0.51100000000E-03 0. -1.
        -11    1    3    3    0    0 -0.18855546064E+01 -0.79671645990E+01  0.32803623548E+02  0.33809891245E+02  0.51100000000E-03 0.  1.
        -12    1    3    3    0    0  0.91639816519E+01  0.17225398798E+02 -0.23924625784E+01  0.19657487140E+02  0.00000000000E+00 0.  1.
</event>
<event>
 7    1  0.1205909E-011  0.5930194E+02  0.7816164E-02  0.1266605E+00
        -11   -1    0    0    0    0  0.00000000000E+00  0.00000000000E+00  0.45593999997E+02  0.45594000000E+02  0.51100000000E-03 0.  1.
         11   -1    0    0    0    0 -0.00000000000E+00 -0.00000000000E+00 -0.45593999997E+02  0.45594000000E+02  0.51100000000E-03 0. -1.
    9900012    2    1    2    0    0 -0.86602352327E+01 -0.25355709125E+02  0.17286101857E+02  0.59301937576E+02  0.49999988234E+02 0.  0.
         12    1    1    2    0    0  0.86602352327E+01  0.25355709125E+02 -0.17286101857E+02  0.31886062424E+02  0.00000000000E+00 0. -1.
         11    1    3    3    0    0  0.31443890853E+01  0.58947239439E+01 -0.45293997516E+01  0.80715807290E+01  0.51100000000E-03 0. -1.
        -11    1    3    3    0    0 -0.28117994054E+00  0.54711511109E+01  0.92377712388E+01  0.10740063983E+02  0.51100000000E-03 0.  1.
        -12    1    3    3    0    0 -0.11523444377E+02 -0.36721584179E+02  0.12577730370E+02  0.40490292864E+02  0.00000000000E+00 0.  1.
</event>
<event>
 7    1  0.1205909E-011  0.5930195E+02  0.7816164E-02  0.1266605E+00
        -11   -1    0    0    0    0  0.00000000000E+00  0.00000000000E+00  0.45593999997E+02  0.45594000000E+02  0.51100000000E-03 0.  1.
         11   -1    0    0    0    0 -0.00000000000E+00 -0.00000000000E+00 -0.45593999997E+02  0.45594000000E+02  0.51100000000E-03 0. -1.
    9900012    2    1    2    0    0 -0.20067155179E+02  0.21238438458E+01  0.24688433832E+02  0.59301949842E+02  0.50000010603E+02 0.  0.
         12    1    1    2    0    0  0.20067155179E+02 -0.21238438458E+01 -0.24688433832E+02  0.31886050158E+02  0.00000000000E+00 0. -1.
         11    1    3    3    0    0  0.57606715050E+01  0.70741486977E+01 -0.20103210274E+01  0.93418577853E+01  0.51100000000E-03 0. -1.
        -11    1    3    3    0    0 -0.14875934348E+01  0.79587246127E+01 -0.37273415783E+01  0.89133218943E+01  0.51100000000E-03 0.  1.
        -12    1    3    3    0    0 -0.24340233249E+02 -0.12909029465E+02  0.30426096437E+02  0.41046770162E+02  0.00000000000E+00 0.  1.
</event>
<event>
 7    1  0.1205909E-011  0.5930193E+02  0.7816164E-02  0.1266605E+00
        -11   -1    0    0    0    0  0.00000000000E+00  0.00000000000E+00  0.45593999997E+02  0.45594000000E+02  0.51100000000E-03 0. -1.
         11   -1    0    0    0    0 -0.00000000000E+00 -0.00000000000E+00 -0.45593999997E+02  0.45594000000E+02  0.51100000000E-03 0.  1.
    9900012    2    1    2    0    0 -0.21091383388E+02 -0.44405104167E+01 -0.23498015060E+02  0.59301932545E+02  0.49999979058E+02 0.  0.
         12    1    1    2    0    0  0.21091383388E+02  0.44405104167E+01  0.23498015060E+02  0.31886067455E+02  0.00000000000E+00 0. -1.
         11    1    3    3    0    0 -0.19657775034E+02 -0.21071784358E+02 -0.10756950597E+02  0.30759717191E+02  0.51100000000E-03 0. -1.
        -11    1    3    3    0    0 -0.21921830090E+01 -0.37106811749E+01 -0.53860040204E+01  0.68981055874E+01  0.51100000000E-03 0.  1.
         12    1    3    3    0    0  0.75857465405E+00  0.20341955116E+02 -0.73550604425E+01  0.21644109766E+02  0.00000000000E+00 0. -1.
</event>
<event>
 7    1  0.1205909E-011  0.5930195E+02  0.7816164E-02  0.1266605E+00
        -11   -1    0    0    0    0  0.00000000000E+00  0.00000000000E+00  0.45593999997E+02  0.45594000000E+02  0.51100000000E-03 0. -1.
         11   -1    0    0    0    0 -0.00000000000E+00 -0.00000000000E+00 -0.45593999997E+02  0.45594000000E+02  0.51100000000E-03 0.  1.
    9900012    2    1    2    0    0 -0.21705137846E+02 -0.28147444934E+01 -0.23188023008E+02  0.59301949656E+02  0.50000010265E+02 0.  0.
         12    1    1    2    0    0  0.21705137846E+02  0.28147444934E+01  0.23188023008E+02  0.31886050344E+02  0.00000000000E+00 0. -1.
         11    1    3    3    0    0 -0.64882997468E+01 -0.12484975344E+01 -0.70141544040E+01  0.96361372947E+01  0.51100000000E-03 0. -1.
        -11    1    3    3    0    0 -0.23901461450E+02 -0.14928492299E+02 -0.18280868919E+02  0.33590622359E+02  0.51100000000E-03 0.  1.
         12    1    3    3    0    0  0.86846233513E+01  0.13362245340E+02  0.21070003145E+01  0.16075190002E+02  0.00000000000E+00 0. -1.
</event>
<event>
 7    1  0.1205909E-011  0.5930189E+02  0.7816164E-02  0.1266605E+00
        -11   -1    0    0    0    0  0.00000000000E+00  0.00000000000E+00  0.45593999997E+02  0.45594000000E+02  0.51100000000E-03 0. -1.
         11   -1    0    0    0    0 -0.00000000000E+00 -0.00000000000E+00 -0.45593999997E+02  0.45594000000E+02  0.51100000000E-03 0.  1.
    9900012    2    1    2    0    0 -0.31160897885E+02 -0.26531618341E+01  0.62195915174E+01  0.59301887924E+02  0.49999897680E+02 0.  0.
         12    1    1    2    0    0  0.31160897885E+02  0.26531618341E+01 -0.62195915174E+01  0.31886112076E+02  0.00000000000E+00 0. -1.
         11    1    3    3    0    0 -0.15546485005E+02  0.67923095092E+01 -0.82293226366E+01  0.18856044542E+02  0.51100000000E-03 0. -1.
        -11    1    3    3    0    0 -0.26678394110E+01 -0.19884136030E+01 -0.10693534284E+02  0.11199233524E+02  0.51100000000E-03 0.  1.
         12    1    3    3    0    0 -0.12946573469E+02 -0.74570577403E+01  0.25142448438E+02  0.29246609858E+02  0.00000000000E+00 0. -1.
</event>
<event>
 7    1  0.1205909E-011  0.5930194E+02  0.7816164E-02  0.1266605E+00
        -11   -1    0    0    0    0  0.00000000000E+00  0.00000000000E+00  0.45593999997E+02  0.45594000000E+02  0.51100000000E-03 0.  1.
         11   -1    0    0    0    0 -0.00000000000E+00 -0.00000000000E+00 -0.45593999997E+02  0.45594000000E+02  0.51100000000E-03 0. -1.
    9900012    2    1    2    0    0  0.94882148231E+01  0.78758663916E+01  0.29405196759E+02  0.59301935828E+02  0.49999985046E+02 0.  0.
         12    1    1    2    0    0 -0.94882148231E+01 -0.78758663916E+01 -0.29405196759E+02  0.31886064172E+02  0.00000000000E+00 0. -1.
         11    1    3    3    0    0 -0.78633324287E+01  0.59755965353E+00  0.46305623836E+01  0.91450086208E+01  0.51100000000E-03 0. -1.
        -11    1    3    3    0    0 -0.10094981159E+02  0.99023912655E+01  0.15701780245E+02  0.21130828202E+02  0.51100000000E-03 0.  1.
        -12    1    3    3    0    0  0.27446528411E+02 -0.26240845275E+01  0.90728541299E+01  0.29026099006E+02  0.00000000000E+00 0.  1.
</event>
<event>
 7    1  0.1205909E-011  0.5930195E+02  0.7816164E-02  0.1266605E+00
        -11   -1    0    0    0    0  0.00000000000E+00  0.00000000000E+00  0.45593999997E+02  0.45594000000E+02  0.51100000000E-03 0. -1.
         11   -1    0    0    0    0 -0.00000000000E+00 -0.00000000000E+00 -0.45593999997E+02  0.45594000000E+02  0.51100000000E-03 0.  1.
    9900012    2    1    2    0    0 -0.92044099848E+01 -0.28585492160E+02 -0.10717674911E+02  0.59301951630E+02  0.50000013864E+02 0.  0.
         12    1    1    2    0    0  0.92044099848E+01  0.28585492160E+02  0.10717674911E+02  0.31886048370E+02  0.00000000000E+00 0. -1.
         11    1    3    3    0    0 -0.16385933085E+02 -0.27883050001E+02 -0.27784843021E+01  0.32460487607E+02  0.51100000000E-03 0. -1.
        -11    1    3    3    0    0 -0.78741622520E+01 -0.12174827324E+01 -0.86497489399E+01  0.11760223312E+02  0.51100000000E-03 0.  1.
        -12    1    3    3    0    0  0.15055685352E+02  0.51504057412E+00  0.71055833121E+00  0.15081240710E+02  0.00000000000E+00 0.  1.
</event>
<event>
 7    1  0.1205909E-011  0.5930195E+02  0.7816164E-02  0.1266605E+00
        -11   -1    0    0    0    0  0.00000000000E+00  0.00000000000E+00  0.45593999997E+02  0.45594000000E+02  0.51100000000E-03 0.  1.
         11   -1    0    0    0    0 -0.00000000000E+00 -0.00000000000E+00 -0.45593999997E+02  0.45594000000E+02  0.51100000000E-03 0. -1.
    9900012    2    1    2    0    0  0.18316949647E+01 -0.19722375003E+02  0.24987857017E+02  0.59301950064E+02  0.50000011009E+02 0.  0.
         12    1    1    2    0    0 -0.18316949647E+01  0.19722375003E+02 -0.24987857017E+02  0.31886049936E+02  0.00000000000E+00 0. -1.
         11    1    3    3    0    0  0.17572387112E+02 -0.88912798789E+01  0.11786936362E+02  0.22951590702E+02  0.51100000000E-03 0.  1.
        -11    1    3    3    0    0 -0.60945195424E+01  0.23283380306E+01 -0.75335907432E+01  0.99659076949E+01  0.51100000000E-03 0. -1.
        -12    1    3    3    0    0 -0.96461726048E+01 -0.13159433154E+02  0.20734511398E+02  0.26384451667E+02  0.00000000000E+00 0.  1.
</event>
<event>
 7    1  0.1205909E-011  0.5930195E+02  0.7816164E-02  0.1266605E+00
        -11   -1    0    0    0    0  0.00000000000E+00  0.00000000000E+00  0.45593999997E+02  0.45594000000E+02  0.51100000000E-03 0. -1.
         11   -1    0    0    0    0 -0.00000000000E+00 -0.00000000000E+00 -0.45593999997E+02  0.45594000000E+02  0.51100000000E-03 0.  1.
    9900012    2    1    2    0    0  0.19944250372E+02  0.11369341637E+02  0.22128835420E+02  0.59301946479E+02  0.50000004470E+02 0.  0.
         12    1    1    2    0    0 -0.19944250372E+02 -0.11369341637E+02 -0.22128835420E+02  0.31886053521E+02  0.00000000000E+00 0. -1.
         11    1    3    3    0    0  0.14434586896E+02 -0.14507872572E+02  0.98109535377E+01  0.22695604751E+02  0.51100000000E-03 0. -1.
        -11    1    3    3    0    0 -0.85513687891E+01  0.78786109769E+01  0.38848615815E+01  0.12259305399E+02  0.51100000000E-03 0.  1.
        -12    1    3    3    0    0  0.14061032264E+02  0.17998603231E+02  0.84330203005E+01  0.24347036329E+02  0.00000000000E+00 0.  1.
</event>
<event>
 7    1  0.1205909E-011  0.5930198E+02  0.7816164E-02  0.1266605E+00
        -11   -1    0    0    0    0  0.00000000000E+00  0.00000000000E+00  0.45593999997E+02  0.45594000000E+02  0.51100000000E-03 0.  1.
         11   -1    0    0    0    0 -0.00000000000E+00 -0.00000000000E+00 -0.45593999997E+02  0.45594000000E+02  0.51100000000E-03 0. -1.
    9900012    2    1    2    0    0  0.43400509667E+01 -0.19779912534E+02  0.24630011742E+02  0.59301977033E+02  0.50000060194E+02 0.  0.
         12    1    1    2    0    0 -0.43400509667E+01  0.19779912534E+02 -0.24630011742E+02  0.31886022967E+02  0.00000000000E+00 0. -1.
         11    1    3    3    0    0  0.84878419994E+01  0.32030541590E+01  0.15784929100E+01  0.92084014834E+01  0.51100000000E-03 0. -1.
        -11    1    3    3    0    0  0.10637079872E+02  0.57949282309E+01  0.66994008724E+01  0.13842349285E+02  0.51100000000E-03 0.  1.
        -12    1    3    3    0    0 -0.14784870905E+02 -0.28777894924E+02  0.16352117960E+02  0.36251226265E+02  0.00000000000E+00 0.  1.
</event>
<event>
 7    1  0.1205909E-011  0.5930196E+02  0.7816164E-02  0.1266605E+00
        -11   -1    0    0    0    0  0.00000000000E+00  0.00000000000E+00  0.45593999997E+02  0.45594000000E+02  0.51100000000E-03 0.  1.
         11   -1    0    0    0    0 -0.00000000000E+00 -0.00000000000E+00 -0.45593999997E+02  0.45594000000E+02  0.51100000000E-03 0. -1.
    9900012    2    1    2    0    0 -0.16715198799E+02 -0.22527435585E+02  0.15160355620E+02  0.59301959050E+02  0.50000027396E+02 0.  0.
         12    1    1    2    0    0  0.16715198799E+02  0.22527435585E+02 -0.15160355620E+02  0.31886040950E+02  0.00000000000E+00 0. -1.
         11    1    3    3    0    0 -0.92996962472E-01 -0.16274880052E+02  0.13476916727E+02  0.21130727717E+02  0.51100000000E-03 0. -1.
        -11    1    3    3    0    0  0.87406248678E+01  0.42199073720E+01  0.42820932988E+01  0.10608603329E+02  0.51100000000E-03 0.  1.
        -12    1    3    3    0    0 -0.25362826705E+02 -0.10472462906E+02 -0.25986544051E+01  0.27562628004E+02  0.00000000000E+00 0.  1.
</event>
<event>
 7    1  0.1205909E-011  0.5930190E+02  0.7816164E-02  0.1266605E+00
        -11   -1    0    0    0    0  0.00000000000E+00  0.00000000000E+00  0.45593999997E+02  0.45594000000E+02  0.51100000000E-03 0. -1.
         11   -1    0    0    0    0 -0.00000000000E+00 -0.00000000000E+00 -0.45593999997E+02  0.45594000000E+02  0.51100000000E-03 0.  1.
    9900012    2    1    2    0    0  0.74099766165E+01 -0.23518936205E+02 -0.20215710789E+02  0.59301904654E+02  0.49999928193E+02 0.  0.
         12    1    1    2    0    0 -0.74099766165E+01  0.23518936205E+02  0.20215710789E+02  0.31886095346E+02  0.00000000000E+00 0. -1.
         11    1    3    3    0    0 -0.23607881230E+00  0.86887420910E-01  0.73537424298E+01  0.73580439395E+01  0.51100000000E-03 0. -1.
        -11    1    3    3    0    0 -0.42913065533E+01 -0.29960188426E+02 -0.16523187392E+02  0.34482516212E+02  0.51100000000E-03 0.  1.
         12    1    3    3    0    0  0.11937361982E+02  0.63543648008E+01 -0.11046265827E+02  0.17461344503E+02  0.00000000000E+00 0. -1.
</event>
<event>
 7    1  0.1205909E-011  0.5930194E+02  0.7816164E-02  0.1266605E+00
        -11   -1    0    0    0    0  0.00000000000E+00  0.00000000000E+00  0.45593999997E+02  0.45594000000E+02  0.51100000000E-03 0.  1.
         11   -1    0    0    0    0 -0.00000000000E+00 -0.00000000000E+00 -0.45593999997E+02  0.45594000000E+02  0.51100000000E-03 0. -1.
    9900012    2    1    2    0    0 -0.10234127460E+02 -0.23539525213E+02  0.18917567320E+02  0.59301937756E+02  0.49999988562E+02 0.  0.
         12    1    1    2    0    0  0.10234127460E+02  0.23539525213E+02 -0.18917567320E+02  0.31886062244E+02  0.00000000000E+00 0. -1.
         11    1    3    3    0    0  0.12807857562E+02 -0.53751455445E+01  0.70484152456E+00  0.13907918852E+02  0.51100000000E-03 0. -1.
        -11    1    3    3    0    0 -0.19414846683E+01  0.15751520769E+01 -0.67574740351E+01  0.72051316697E+01  0.51100000000E-03 0.  1.
        -12    1    3    3    0    0 -0.21100500354E+02 -0.19739531745E+02  0.24970199830E+02  0.38188887235E+02  0.00000000000E+00 0.  1.
</event>
<event>
 7    1  0.1205909E-011  0.5930194E+02  0.7816164E-02  0.1266605E+00
        -11   -1    0    0    0    0  0.00000000000E+00  0.00000000000E+00  0.45593999997E+02  0.45594000000E+02  0.51100000000E-03 0. -1.
         11   -1    0    0    0    0 -0.00000000000E+00 -0.00000000000E+00 -0.45593999997E+02  0.45594000000E+02  0.51100000000E-03 0.  1.
    9900012    2    1    2    0    0  0.35670906740E+01 -0.15995814085E+01 -0.31645508076E+02  0.59301937560E+02  0.49999988204E+02 0.  0.
         12    1    1    2    0    0 -0.35670906740E+01  0.15995814085E+01  0.31645508076E+02  0.31886062440E+02  0.00000000000E+00 0. -1.
         11    1    3    3    0    0 -0.16199526513E+02 -0.96050863205E+00 -0.10118822967E+02  0.19124272916E+02  0.51100000000E-03 0. -1.
        -11    1    3    3    0    0  0.84744969401E+00 -0.90771144021E+01 -0.16515442014E+02  0.18864570020E+02  0.51100000000E-03 0.  1.
         12    1    3    3    0    0  0.18919167493E+02  0.84380416257E+01 -0.50112430951E+01  0.21313094624E+02  0.00000000000E+00 0. -1.
</event>
<event>
 7    1  0.1205909E-011  0.5930195E+02  0.7816164E-02  0.1266605E+00
        -11   -1    0    0    0    0  0.00000000000E+00  0.00000000000E+00  0.45593999997E+02  0.45594000000E+02  0.51100000000E-03 0. -1.
         11   -1    0    0    0    0 -0.00000000000E+00 -0.00000000000E+00 -0.45593999997E+02  0.45594000000E+02  0.51100000000E-03 0.  1.
    9900012    2    1    2    0    0 -0.43355935745E+01 -0.20585497518E+02  0.23961643441E+02  0.59301946056E+02  0.50000003699E+02 0.  0.
         12    1    1    2    0    0  0.43355935745E+01  0.20585497518E+02 -0.23961643441E+02  0.31886053944E+02  0.00000000000E+00 0. -1.
         11    1    3    3    0    0 -0.18164063477E+02 -0.61286346578E+01 -0.47694138512E+00  0.19176048553E+02  0.51100000000E-03 0.  1.
        -11    1    3    3    0    0 -0.59045545773E+01 -0.65603870506E+01  0.16778046113E+01  0.89842902660E+01  0.51100000000E-03 0. -1.
         12    1    3    3    0    0  0.19733024480E+02 -0.78964758099E+01  0.22760780215E+02  0.31141607237E+02  0.00000000000E+00 0. -1.
</event>
<event>
 7    1  0.1205909E-011  0.5930183E+02  0.7816164E-02  0.1266605E+00
        -11   -1    0    0    0    0  0.00000000000E+00  0.00000000000E+00  0.45593999997E+02  0.45594000000E+02  0.51100000000E-03 0.  1.
         11   -1    0    0    0    0 -0.00000000000E+00 -0.00000000000E+00 -0.45593999997E+02  0.45594000000E+02  0.51100000000E-03 0. -1.
    9900012    2    1    2    0    0  0.14381724687E+02  0.27477706043E+02  0.74073908518E+01  0.59301830998E+02  0.49999793861E+02 0.  0.
         12    1    1    2    0    0 -0.14381724687E+02 -0.27477706043E+02 -0.74073908518E+01  0.31886169002E+02  0.00000000000E+00 0. -1.
         11    1    3    3    0    0 -0.10701766959E+02  0.20389874369E+02 -0.19605435295E+00  0.23028530792E+02  0.51100000000E-03 0. -1.
        -11    1    3    3    0    0 -0.10400910256E+01 -0.52651226496E+01 -0.21400976396E+01  0.57778303908E+01  0.51100000000E-03 0.  1.
        -12    1    3    3    0    0  0.26123582672E+02  0.12352954323E+02  0.97435428443E+01  0.30495469816E+02  0.00000000000E+00 0.  1.
</event>
<event>
 7    1  0.1205909E-011  0.5930195E+02  0.7816164E-02  0.1266605E+00
        -11   -1    0    0    0    0  0.00000000000E+00  0.00000000000E+00  0.45593999997E+02  0.45594000000E+02  0.51100000000E-03 0.  1.
         11   -1    0    0    0    0 -0.00000000000E+00 -0.00000000000E+00 -0.45593999997E+02  0.45594000000E+02  0.51100000000E-03 0. -1.
    9900012    2    1    2    0    0 -0.22826332871E+02 -0.17374951926E+02  0.13920847547E+02  0.59301946258E+02  0.50000004068E+02 0.  0.
         12    1    1    2    0    0  0.22826332871E+02  0.17374951926E+02 -0.13920847547E+02  0.31886053742E+02  0.00000000000E+00 0. -1.
         11    1    3    3    0    0 -0.17361379313E+02 -0.24713692249E+02  0.89904723256E+01  0.31512103534E+02  0.51100000000E-03 0. -1.
        -11    1    3    3    0    0  0.73231395618E+01 -0.51836971823E+01 -0.77172201315E+00  0.90052565009E+01  0.51100000000E-03 0.  1.
        -12    1    3    3    0    0 -0.12788093120E+02  0.12522437505E+02  0.57020972348E+01  0.18784586223E+02  0.00000000000E+00 0.  1.
</event>
<event>
 7    1  0.1205909E-011  0.5930194E+02  0.7816164E-02  0.1266605E+00
        -11   -1    0    0    0    0  0.00000000000E+00  0.00000000000E+00  0.45593999997E+02  0.45594000000E+02  0.51100000000E-03 0.  1.
         11   -1    0    0    0    0 -0.00000000000E+00 -0.00000000000E+00 -0.45593999997E+02  0.45594000000E+02  0.51100000000E-03 0. -1.
    9900012    2    1    2    0    0 -0.14545775326E+02 -0.27904614904E+02 -0.51452666213E+01  0.59301939073E+02  0.49999990965E+02 0.  0.
         12    1    1    2    0    0  0.14545775326E+02  0.27904614904E+02  0.51452666213E+01  0.31886060927E+02  0.00000000000E+00 0. -1.
         11    1    3    3    0    0  0.42928279140E+01 -0.12211982313E+01 -0.13612135748E+01  0.46661117943E+01  0.51100000000E-03 0. -1.
        -11    1    3    3    0    0 -0.13720018437E+02 -0.12430286036E+02  0.19481630555E+02  0.26875357600E+02  0.51100000000E-03 0.  1.
         12    1    3    3    0    0 -0.51185848036E+01 -0.14253130637E+02 -0.23265683601E+02  0.27760469679E+02  0.00000000000E+00 0. -1.
</event>
<event>
 7    1  0.1205909E-011  0.5930193E+02  0.7816164E-02  0.1266605E+00
        -11   -1    0    0    0    0  0.00000000000E+00  0.00000000000E+00  0.45593999997E+02  0.45594000000E+02  0.51100000000E-03 0.  1.
         11   -1    0    0    0    0 -0.00000000000E+00 -0.00000000000E+00 -0.45593999997E+02  0.45594000000E+02  0.51100000000E-03 0. -1.
    9900012    2    1    2    0    0 -0.18513885670E+02  0.16752483785E+02  0.19832089786E+02  0.59301929987E+02  0.49999974393E+02 0.  0.
         12    1    1    2    0    0  0.18513885670E+02 -0.16752483785E+02 -0.19832089786E+02  0.31886070013E+02  0.00000000000E+00 0. -1.
         11    1    3    3    0    0 -0.96101389866E+01 -0.47110260851E+00  0.13313725828E+02  0.16426563996E+02  0.51100000000E-03 0. -1.
        -11    1    3    3    0    0 -0.35081733863E+01 -0.49961554283E+01  0.16747982915E+02  0.17825930033E+02  0.51100000000E-03 0.  1.
         12    1    3    3    0    0 -0.53955732975E+01  0.22219741821E+02 -0.10229618957E+02  0.25049435958E+02  0.00000000000E+00 0. -1.
</event>
<event>
 7    1  0.1205909E-011  0.5930197E+02  0.7816164E-02  0.1266605E+00
        -11   -1    0    0    0    0  0.00000000000E+00  0.00000000000E+00  0.45593999997E+02  0.45594000000E+02  0.51100000000E-03 0. -1.
         11   -1    0    0    0    0 -0.00000000000E+00 -0.00000000000E+00 -0.45593999997E+02  0.45594000000E+02  0.51100000000E-03 0.  1.
    9900012    2    1    2    0    0  0.87791641712E+01 -0.26398626468E+02 -0.15580691604E+02  0.59301966164E+02  0.50000040372E+02 0.  0.
         12    1    1    2    0    0 -0.87791641712E+01  0.26398626468E+02  0.15580691604E+02  0.31886033836E+02  0.00000000000E+00 0. -1.
         11    1    3    3    0    0  0.15768240246E+02 -0.62166805163E+01  0.34677332394E+01  0.17300569100E+02  0.51100000000E-03 0. -1.
        -11    1    3    3    0    0 -0.16633228702E+02 -0.87128374876E+01 -0.13707092634E+01  0.18827019899E+02  0.51100000000E-03 0.  1.
        -12    1    3    3    0    0  0.96441526273E+01 -0.11469108464E+02 -0.17677715580E+02  0.23174377165E+02  0.00000000000E+00 0.  1.
</event>
<event>
 7    1  0.1205909E-011  0.5930196E+02  0.7816164E-02  0.1266605E+00
        -11   -1    0    0    0    0  0.00000000000E+00  0.00000000000E+00  0.45593999997E+02  0.45594000000E+02  0.51100000000E-03 0. -1.
         11   -1    0    0    0    0 -0.00000000000E+00 -0.00000000000E+00 -0.45593999997E+02  0.45594000000E+02  0.51100000000E-03 0.  1.
    9900012    2    1    2    0    0 -0.30171010504E+02 -0.24548295681E+01 -0.10020145367E+02  0.59301962676E+02  0.50000034009E+02 0.  0.
         12    1    1    2    0    0  0.30171010504E+02  0.24548295681E+01  0.10020145367E+02  0.31886037324E+02  0.00000000000E+00 0. -1.
         11    1    3    3    0    0 -0.67695118207E+01  0.81020605306E+01 -0.11160167812E+02  0.15362910564E+02  0.51100000000E-03 0. -1.
        -11    1    3    3    0    0 -0.25274498116E+02  0.60929049917E+01 -0.42392414945E+01  0.26341885182E+02  0.51100000000E-03 0.  1.
         12    1    3    3    0    0  0.18729994321E+01 -0.16649795090E+02  0.53792639391E+01  0.17597166930E+02  0.00000000000E+00 0. -1.
</event>
<event>
 7    1  0.1205909E-011  0.5930195E+02  0.7816164E-02  0.1266605E+00
        -11   -1    0    0    0    0  0.00000000000E+00  0.00000000000E+00  0.45593999997E+02  0.45594000000E+02  0.51100000000E-03 0. -1.
         11   -1    0    0    0    0 -0.00000000000E+00 -0.00000000000E+00 -0.45593999997E+02  0.45594000000E+02  0.51100000000E-03 0.  1.
    9900012    2    1    2    0    0 -0.14018669073E+02  0.20805407236E+02 -0.19680762524E+02  0.59301945582E+02  0.50000002834E+02 0.  0.
         12    1    1    2    0    0  0.14018669073E+02 -0.20805407236E+02  0.19680762524E+02  0.31886054418E+02  0.00000000000E+00 0. -1.
         11    1    3    3    0    0  0.46143303685E+01 -0.25566404688E+01  0.79921194864E+01  0.95761385424E+01  0.51100000000E-03 0. -1.
        -11    1    3    3    0    0 -0.31905901992E+00  0.16652358068E+02 -0.24998743484E+02  0.30038974748E+02  0.51100000000E-03 0.  1.
         12    1    3    3    0    0 -0.18313940422E+02  0.67096896366E+01 -0.26741385263E+01  0.19686832291E+02  0.00000000000E+00 0. -1.
</event>
<event>
 7    1  0.1205909E-011  0.5930195E+02  0.7816164E-02  0.1266605E+00
        -11   -1    0    0    0    0  0.00000000000E+00  0.00000000000E+00  0.45593999997E+02  0.45594000000E+02  0.51100000000E-03 0.  1.
         11   -1    0    0    0    0 -0.00000000000E+00 -0.00000000000E+00 -0.45593999997E+02  0.45594000000E+02  0.51100000000E-03 0. -1.
    9900012    2    1    2    0    0 -0.24395405730E+02  0.15547854961E+02  0.13410773157E+02  0.59301945819E+02  0.50000003266E+02 0.  0.
         12    1    1    2    0    0  0.24395405730E+02 -0.15547854961E+02 -0.13410773157E+02  0.31886054181E+02  0.00000000000E+00 0. -1.
         11    1    3    3    0    0 -0.27800036091E+01  0.15402792249E+02  0.47976183209E+01  0.16370448098E+02  0.51100000000E-03 0. -1.
        -11    1    3    3    0    0  0.60166780329E+01  0.10820798339E+02  0.35434593040E+01  0.12878128565E+02  0.51100000000E-03 0.  1.
         12    1    3    3    0    0 -0.27632080153E+02 -0.10675735627E+02  0.50696955323E+01  0.30053369155E+02  0.00000000000E+00 0. -1.
</event>
<event>
 7    1  0.1205909E-011  0.5930193E+02  0.7816164E-02  0.1266605E+00
        -11   -1    0    0    0    0  0.00000000000E+00  0.00000000000E+00  0.45593999997E+02  0.45594000000E+02  0.51100000000E-03 0. -1.
         11   -1    0    0    0    0 -0.00000000000E+00 -0.00000000000E+00 -0.45593999997E+02  0.45594000000E+02  0.51100000000E-03 0.  1.
    9900012    2    1    2    0    0 -0.19458305923E+02 -0.23296947283E+02  0.97646162142E+01  0.59301934832E+02  0.49999983228E+02 0.  0.
         12    1    1    2    0    0  0.19458305923E+02  0.23296947283E+02 -0.97646162142E+01  0.31886065168E+02  0.00000000000E+00 0. -1.
         11    1    3    3    0    0 -0.97974459580E+01 -0.18019997471E+02  0.23523918528E+01  0.20645677607E+02  0.51100000000E-03 0. -1.
        -11    1    3    3    0    0 -0.11818068262E+02 -0.53381201329E+01 -0.12863743819E+02  0.18265764953E+02  0.51100000000E-03 0.  1.
         12    1    3    3    0    0  0.21572082972E+01  0.61170320812E-01  0.20275968180E+02  0.20390492272E+02  0.00000000000E+00 0. -1.
</event>
<event>
 7    1  0.1205909E-011  0.5930195E+02  0.7816164E-02  0.1266605E+00
        -11   -1    0    0    0    0  0.00000000000E+00  0.00000000000E+00  0.45593999997E+02  0.45594000000E+02  0.51100000000E-03 0.  1.
         11   -1    0    0    0    0 -0.00000000000E+00 -0.00000000000E+00 -0.45593999997E+02  0.45594000000E+02  0.51100000000E-03 0. -1.
    9900012    2    1    2    0    0 -0.11494635848E+02  0.20787863714E+02  0.21271067801E+02  0.59301948873E+02  0.50000008837E+02 0.  0.
         12    1    1    2    0    0  0.11494635848E+02 -0.20787863714E+02 -0.21271067801E+02  0.31886051127E+02  0.00000000000E+00 0. -1.
         11    1    3    3    0    0 -0.47854344050E+00  0.70011268686E+01 -0.56058701838E+01  0.89816792435E+01  0.51100000000E-03 0. -1.
        -11    1    3    3    0    0 -0.56128887873E+01  0.16412603963E+02 -0.48647418945E+01  0.18015099316E+02  0.51100000000E-03 0.  1.
        -12    1    3    3    0    0 -0.54032036205E+01 -0.26258671180E+01  0.31741679879E+02  0.32305170314E+02  0.00000000000E+00 0.  1.
</event>
<event>
 7    1  0.1205909E-011  0.5930195E+02  0.7816164E-02  0.1266605E+00
        -11   -1    0    0    0    0  0.00000000000E+00  0.00000000000E+00  0.45593999997E+02  0.45594000000E+02  0.51100000000E-03 0. -1.
         11   -1    0    0    0    0 -0.00000000000E+00 -0.00000000000E+00 -0.45593999997E+02  0.45594000000E+02  0.51100000000E-03 0.  1.
    9900012    2    1    2    0    0 -0.96606119068E+01  0.60225009726E-01 -0.30387320477E+02  0.59301948265E+02  0.50000007727E+02 0.  0.
         12    1    1    2    0    0  0.96606119068E+01 -0.60225009726E-01  0.30387320477E+02  0.31886051735E+02  0.00000000000E+00 0. -1.
         11    1    3    3    0    0 -0.79970561578E+01  0.53762480408E+01 -0.28991682797E+02  0.30551180367E+02  0.51100000000E-03 0. -1.
        -11    1    3    3    0    0 -0.65092180327E+01 -0.97028251089E+01 -0.11708488036E+02  0.16540962089E+02  0.51100000000E-03 0.  1.
         12    1    3    3    0    0  0.48456622837E+01  0.43868020777E+01  0.10312850355E+02  0.12209805808E+02  0.00000000000E+00 0. -1.
</event>
<event>
 7    1  0.1205909E-011  0.5930204E+02  0.7816164E-02  0.1266604E+00
        -11   -1    0    0    0    0  0.00000000000E+00  0.00000000000E+00  0.45593999997E+02  0.45594000000E+02  0.51100000000E-03 0.  1.
         11   -1    0    0    0    0 -0.00000000000E+00 -0.00000000000E+00 -0.45593999997E+02  0.45594000000E+02  0.51100000000E-03 0. -1.
    9900012    2    1    2    0    0 -0.16963531124E+02 -0.74705427290E+01  0.25945024287E+02  0.59302036284E+02  0.50000168252E+02 0.  0.
         12    1    1    2    0    0  0.16963531124E+02  0.74705427290E+01 -0.25945024287E+02  0.31885963716E+02  0.00000000000E+00 0. -1.
         11    1    3    3    0    0 -0.33704461581E+02 -0.88632055512E+01  0.15122083923E+02  0.37989795545E+02  0.51100000000E-03 0. -1.
        -11    1    3    3    0    0  0.20763481770E+01  0.24966036563E+01  0.38507153470E+01  0.50370884957E+01  0.51100000000E-03 0.  1.
        -12    1    3    3    0    0  0.14664582281E+02 -0.11039408341E+01  0.69722250170E+01  0.16275152243E+02  0.00000000000E+00 0.  1.
</event>
<event>
 7    1  0.1205909E-011  0.5930196E+02  0.7816164E-02  0.1266605E+00
        -11   -1    0    0    0    0  0.00000000000E+00  0.00000000000E+00  0.45593999997E+02  0.45594000000E+02  0.51100000000E-03 0.  1.
         11   -1    0    0    0    0 -0.00000000000E+00 -0.00000000000E+00 -0.45593999997E+02  0.45594000000E+02  0.51100000000E-03 0. -1.
    9900012    2    1    2    0    0 -0.23370315824E+02  0.48049497680E+01  0.21153251449E+02  0.59301964642E+02  0.50000037596E+02 0.  0.
         12    1    1    2    0    0  0.23370315824E+02 -0.48049497680E+01 -0.21153251449E+02  0.31886035358E+02  0.00000000000E+00 0. -1.
         11    1    3    3    0    0 -0.12743600101E+02  0.46166938103E+01  0.24406580827E+02  0.27917635881E+02  0.51100000000E-03 0. -1.
        -11    1    3    3    0    0 -0.11846284941E+02  0.34581092061E+01  0.11108863437E+02  0.16604211313E+02  0.51100000000E-03 0.  1.
         12    1    3    3    0    0  0.12195692185E+01 -0.32698532485E+01 -0.14362192815E+02  0.14780117449E+02  0.00000000000E+00 0. -1.
</event>
<event>
 7    1  0.1205909E-011  0.5930196E+02  0.7816164E-02  0.1266605E+00
        -11   -1    0    0    0    0  0.00000000000E+00  0.00000000000E+00  0.45593999997E+02  0.45594000000E+02  0.51100000000E-03 0. -1.
         11   -1    0    0    0    0 -0.00000000000E+00 -0.00000000000E+00 -0.45593999997E+02  0.45594000000E+02  0.51100000000E-03 0.  1.
    9900012    2    1    2    0    0 -0.13680936799E+02 -0.29561103446E+01 -0.28649838278E+02  0.59301955193E+02  0.50000020362E+02 0.  0.
         12    1    1    2    0    0  0.13680936799E+02  0.29561103446E+01  0.28649838278E+02  0.31886044807E+02  0.00000000000E+00 0. -1.
         11    1    3    3    0    0 -0.68387989286E+01 -0.80907222986E+01 -0.17064526023E+02  0.20085492444E+02  0.51100000000E-03 0. -1.
        -11    1    3    3    0    0 -0.21174063194E+02  0.40763600760E+01 -0.14119765739E+01  0.21609056937E+02  0.51100000000E-03 0.  1.
         12    1    3    3    0    0  0.14331925323E+02  0.10582518780E+01 -0.10173335682E+02  0.17607405811E+02  0.00000000000E+00 0. -1.
</event>
<event>
 7    1  0.1205909E-011  0.5930196E+02  0.7816164E-02  0.1266605E+00
        -11   -1    0    0    0    0  0.00000000000E+00  0.00000000000E+00  0.45593999997E+02  0.45594000000E+02  0.51100000000E-03 0.  1.
         11   -1    0    0    0    0 -0.00000000000E+00 -0.00000000000E+00 -0.45593999997E+02  0.45594000000E+02  0.51100000000E-03 0. -1.
    9900012    2    1    2    0    0  0.28796997336E+02 -0.33150912986E+01  0.13283926187E+02  0.59301959468E+02  0.50000028159E+02 0.  0.
         12    1    1    2    0    0 -0.28796997336E+02  0.33150912986E+01 -0.13283926187E+02  0.31886040532E+02  0.00000000000E+00 0. -1.
         11    1    3    3    0    0  0.46824309019E+01  0.15640076712E+02  0.19948422272E+01  0.16447387467E+02  0.51100000000E-03 0. -1.
        -11    1    3    3    0    0  0.26963883637E+02 -0.70681817979E+01  0.28919788748E+01  0.28024520634E+02  0.51100000000E-03 0.  1.
         12    1    3    3    0    0 -0.28493172025E+01 -0.11886986212E+02  0.83971050851E+01  0.14830051367E+02  0.00000000000E+00 0. -1.
</event>
<event>
 7    1  0.1205909E-011  0.5930196E+02  0.7816164E-02  0.1266605E+00
        -11   -1    0    0    0    0  0.00000000000E+00  0.00000000000E+00  0.45593999997E+02  0.45594000000E+02  0.51100000000E-03 0. -1.
         11   -1    0    0    0    0 -0.00000000000E+00 -0.00000000000E+00 -0.45593999997E+02  0.45594000000E+02  0.51100000000E-03 0.  1.
    9900012    2    1    2    0    0  0.72301145441E+01  0.12789797962E+02 -0.28299571728E+02  0.59301964683E+02  0.50000037670E+02 0.  0.
         12    1    1    2    0    0 -0.72301145441E+01 -0.12789797962E+02  0.28299571728E+02  0.31886035317E+02  0.00000000000E+00 0. -1.
         11    1    3    3    0    0  0.14920930809E+02 -0.63659335840E+01 -0.48110832629E+01  0.16920573543E+02  0.51100000000E-03 0. -1.
        -11    1    3    3    0    0  0.94090243688E+01 -0.83905159387E-01 -0.79212728986E+01  0.12299729438E+02  0.51100000000E-03 0.  1.
        -12    1    3    3    0    0 -0.17099840634E+02  0.19239636706E+02 -0.15567215567E+02  0.30081661702E+02  0.00000000000E+00 0.  1.
</event>
<event>
 7    1  0.1205909E-011  0.5930194E+02  0.7816164E-02  0.1266605E+00
        -11   -1    0    0    0    0  0.00000000000E+00  0.00000000000E+00  0.45593999997E+02  0.45594000000E+02  0.51100000000E-03 0. -1.
         11   -1    0    0    0    0 -0.00000000000E+00 -0.00000000000E+00 -0.45593999997E+02  0.45594000000E+02  0.51100000000E-03 0.  1.
    9900012    2    1    2    0    0 -0.87865316625E+01 -0.30522919774E+02 -0.28052329868E+01  0.59301935610E+02  0.49999984648E+02 0.  0.
         12    1    1    2    0    0  0.87865316625E+01  0.30522919774E+02  0.28052329868E+01  0.31886064390E+02  0.00000000000E+00 0. -1.
         11    1    3    3    0    0 -0.17557441718E+02 -0.10435843294E+02  0.11915208944E+02  0.23646200316E+02  0.51100000000E-03 0. -1.
        -11    1    3    3    0    0  0.11360087556E+02  0.73609685075E+00 -0.38053333221E+01  0.12003082512E+02  0.51100000000E-03 0.  1.
         12    1    3    3    0    0 -0.25891775001E+01 -0.20823173331E+02 -0.10915108609E+02  0.23652652782E+02  0.00000000000E+00 0. -1.
</event>
<event>
 7    1  0.1205909E-011  0.5930203E+02  0.7816164E-02  0.1266604E+00
        -11   -1    0    0    0    0  0.00000000000E+00  0.00000000000E+00  0.45593999997E+02  0.45594000000E+02  0.51100000000E-03 0.  1.
         11   -1    0    0    0    0 -0.00000000000E+00 -0.00000000000E+00 -0.45593999997E+02  0.45594000000E+02  0.51100000000E-03 0. -1.
    9900012    2    1    2    0    0  0.30106395829E+02  0.98739039026E+01  0.35813834078E+01  0.59302025729E+02  0.50000149003E+02 0.  0.
         12    1    1    2    0    0 -0.30106395829E+02 -0.98739039026E+01 -0.35813834078E+01  0.31885974271E+02  0.00000000000E+00 0. -1.
         11    1    3    3    0    0  0.12144404141E+02 -0.36247720747E+01 -0.11331636841E+02  0.17000926983E+02  0.51100000000E-03 0. -1.
        -11    1    3    3    0    0  0.11695952448E+02 -0.42576836434E+01 -0.62885202771E+01  0.13945202086E+02  0.51100000000E-03 0.  1.
        -12    1    3    3    0    0  0.62660392399E+01  0.17756359621E+02  0.21201540525E+02  0.28355896660E+02  0.00000000000E+00 0.  1.
</event>
<event>
 7    1  0.1205909E-011  0.5930194E+02  0.7816164E-02  0.1266605E+00
        -11   -1    0    0    0    0  0.00000000000E+00  0.00000000000E+00  0.45593999997E+02  0.45594000000E+02  0.51100000000E-03 0.  1.
         11   -1    0    0    0    0 -0.00000000000E+00 -0.00000000000E+00 -0.45593999997E+02  0.45594000000E+02  0.51100000000E-03 0. -1.
    9900012    2    1    2    0    0  0.18641959812E+02 -0.22125281343E+02  0.13404103574E+02  0.59301941405E+02  0.49999995217E+02 0.  0.
         12    1    1    2    0    0 -0.18641959812E+02  0.22125281343E+02 -0.13404103574E+02  0.31886058595E+02  0.00000000000E+00 0. -1.
         11    1    3    3    0    0 -0.10329880449E+02  0.58005401006E+00 -0.19458813316E+00  0.10347983260E+02  0.51100000000E-03 0. -1.
        -11    1    3    3    0    0 -0.52837677529E+01 -0.29161161818E+01  0.63023308996E+01  0.87258988237E+01  0.51100000000E-03 0.  1.
         12    1    3    3    0    0  0.34255608013E+02 -0.19789219171E+02  0.72963608073E+01  0.40228059322E+02  0.00000000000E+00 0. -1.
</event>
<event>
 7    1  0.1205909E-011  0.5930229E+02  0.7816164E-02  0.1266604E+00
        -11   -1    0    0    0    0  0.00000000000E+00  0.00000000000E+00  0.45593999997E+02  0.45594000000E+02  0.51100000000E-03 0. -1.
         11   -1    0    0    0    0 -0.00000000000E+00 -0.00000000000E+00 -0.45593999997E+02  0.45594000000E+02  0.51100000000E-03 0.  1.
    9900012    2    1    2    0    0 -0.17125429503E+02 -0.24505674641E+02 -0.11085576685E+02  0.59302291043E+02  0.50000632868E+02 0.  0.
         12    1    1    2    0    0  0.17125429503E+02  0.24505674641E+02  0.11085576685E+02  0.31885708957E+02  0.00000000000E+00 0. -1.
         11    1    3    3    0    0 -0.68013927688E+01 -0.21792570147E+02 -0.35155342334E+01  0.23098355751E+02  0.51100000000E-03 0. -1.
        -11    1    3    3    0    0 -0.11437217012E+02  0.64751086601E+00 -0.20126332580E+02  0.23158118808E+02  0.51100000000E-03 0.  1.
        -12    1    3    3    0    0  0.11131802787E+01 -0.33606153608E+01  0.12556290129E+02  0.13045816484E+02  0.00000000000E+00 0.  1.
</event>
<event>
 7    1  0.1205909E-011  0.5930186E+02  0.7816164E-02  0.1266605E+00
        -11   -1    0    0    0    0  0.00000000000E+00  0.00000000000E+00  0.45593999997E+02  0.45594000000E+02  0.51100000000E-03 0. -1.
         11   -1    0    0    0    0 -0.00000000000E+00 -0.00000000000E+00 -0.45593999997E+02  0.45594000000E+02  0.51100000000E-03 0.  1.
    9900012    2    1    2    0    0 -0.14233396957E+02 -0.89118300012E+01  0.27105639831E+02  0.59301858597E+02  0.49999844195E+02 0.  0.
         12    1    1    2    0    0  0.14233396957E+02  0.89118300012E+01 -0.27105639831E+02  0.31886141403E+02  0.00000000000E+00 0. -1.
         11    1    3    3    0    0 -0.78254003101E+01 -0.74276883132E+01  0.11413890712E+02  0.15706188116E+02  0.51100000000E-03 0. -1.
        -11    1    3    3    0    0 -0.20400753730E+02 -0.65454530280E+01  0.18672585239E+02  0.28420048344E+02  0.51100000000E-03 0.  1.
         12    1    3    3    0    0  0.13992757083E+02  0.50613113400E+01 -0.29808361194E+01  0.15175622137E+02  0.00000000000E+00 0. -1.
</event>
<event>
 7    1  0.1205909E-011  0.5930195E+02  0.7816164E-02  0.1266605E+00
        -11   -1    0    0    0    0  0.00000000000E+00  0.00000000000E+00  0.45593999997E+02  0.45594000000E+02  0.51100000000E-03 0. -1.
         11   -1    0    0    0    0 -0.00000000000E+00 -0.00000000000E+00 -0.45593999997E+02  0.45594000000E+02  0.51100000000E-03 0.  1.
    9900012    2    1    2    0    0  0.19140199693E+00 -0.16614039379E+02 -0.27215014402E+02  0.59301953709E+02  0.50000017656E+02 0.  0.
         12    1    1    2    0    0 -0.19140199693E+00  0.16614039379E+02  0.27215014402E+02  0.31886046291E+02  0.00000000000E+00 0. -1.
         11    1    3    3    0    0  0.14781691023E+02 -0.19714675375E+02  0.28552526846E+01  0.24805630063E+02  0.51100000000E-03 0. -1.
        -11    1    3    3    0    0 -0.18688569912E+01 -0.11037127974E+01 -0.10863152497E+02  0.11077855877E+02  0.51100000000E-03 0.  1.
        -12    1    3    3    0    0 -0.12721432035E+02  0.42043487937E+01 -0.19207114590E+02  0.23418467769E+02  0.00000000000E+00 0.  1.
</event>
<event>
 7    1  0.1205909E-011  0.5930194E+02  0.7816164E-02  0.1266605E+00
        -11   -1    0    0    0    0  0.00000000000E+00  0.00000000000E+00  0.45593999997E+02  0.45594000000E+02  0.51100000000E-03 0. -1.
         11   -1    0    0    0    0 -0.00000000000E+00 -0.00000000000E+00 -0.45593999997E+02  0.45594000000E+02  0.51100000000E-03 0.  1.
    9900012    2    1    2    0    0  0.11515147861E+01 -0.31632920536E+02 -0.38409721987E+01  0.59301941677E+02  0.49999995712E+02 0.  0.
         12    1    1    2    0    0 -0.11515147861E+01  0.31632920536E+02  0.38409721987E+01  0.31886058323E+02  0.00000000000E+00 0. -1.
         11    1    3    3    0    0  0.14010159368E+01 -0.11628826184E+02 -0.22947984628E+01  0.11935599872E+02  0.51100000000E-03 0. -1.
        -11    1    3    3    0    0 -0.17418117324E+02 -0.23247604390E+02  0.32963320349E+01  0.29235384830E+02  0.51100000000E-03 0.  1.
         12    1    3    3    0    0  0.17168616173E+02  0.32435100375E+01 -0.48425057708E+01  0.18130956975E+02  0.00000000000E+00 0. -1.
</event>
<event>
 7    1  0.1205909E-011  0.5930208E+02  0.7816164E-02  0.1266604E+00
        -11   -1    0    0    0    0  0.00000000000E+00  0.00000000000E+00  0.45593999997E+02  0.45594000000E+02  0.51100000000E-03 0.  1.
         11   -1    0    0    0    0 -0.00000000000E+00 -0.00000000000E+00 -0.45593999997E+02  0.45594000000E+02  0.51100000000E-03 0. -1.
    9900012    2    1    2    0    0  0.25214082923E+01 -0.15641073672E+02  0.27671485831E+02  0.59302081266E+02  0.50000250290E+02 0.  0.
         12    1    1    2    0    0 -0.25214082923E+01  0.15641073672E+02 -0.27671485831E+02  0.31885918734E+02  0.00000000000E+00 0. -1.
         11    1    3    3    0    0 -0.26033594075E+01 -0.97786394515E+01  0.98723522938E-02  0.10119257258E+02  0.51100000000E-03 0. -1.
        -11    1    3    3    0    0 -0.16662421895E+02 -0.63689037486E+01  0.70319452013E+01  0.19174136016E+02  0.51100000000E-03 0.  1.
        -12    1    3    3    0    0  0.21787189595E+02  0.50646952815E+00  0.20629668277E+02  0.30008687993E+02  0.00000000000E+00 0.  1.
</event>
<event>
 7    1  0.1205909E-011  0.5930200E+02  0.7816164E-02  0.1266605E+00
        -11   -1    0    0    0    0  0.00000000000E+00  0.00000000000E+00  0.45593999997E+02  0.45594000000E+02  0.51100000000E-03 0. -1.
         11   -1    0    0    0    0 -0.00000000000E+00 -0.00000000000E+00 -0.45593999997E+02  0.45594000000E+02  0.51100000000E-03 0.  1.
    9900012    2    1    2    0    0  0.14917224838E+02 -0.20968701683E+02 -0.18828353450E+02  0.59302000866E+02  0.50000103660E+02 0.  0.
         12    1    1    2    0    0 -0.14917224838E+02  0.20968701683E+02  0.18828353450E+02  0.31885999134E+02  0.00000000000E+00 0. -1.
         11    1    3    3    0    0 -0.15418014591E+00 -0.21501684716E+02 -0.10110246534E+02  0.23760540869E+02  0.51100000000E-03 0. -1.
        -11    1    3    3    0    0 -0.65512756533E+01  0.80584094411E+01  0.14575119073E+01  0.10487207284E+02  0.51100000000E-03 0.  1.
         12    1    3    3    0    0  0.21622680637E+02 -0.75254264081E+01 -0.10175618823E+02  0.25054252713E+02  0.00000000000E+00 0. -1.
</event>
<event>
 7    1  0.1265671E-011  0.5930196E+02  0.7816164E-02  0.1266605E+00
        -11   -1    0    0    0    0  0.00000000000E+00  0.00000000000E+00  0.45593999997E+02  0.45594000000E+02  0.51100000000E-03 0. -1.
         11   -1    0    0    0    0 -0.00000000000E+00 -0.00000000000E+00 -0.45593999997E+02  0.45594000000E+02  0.51100000000E-03 0.  1.
    9900012    2    1    2    0    0 -0.20177260753E+02 -0.80893797985E+00 -0.24676770449E+02  0.59301964938E+02  0.50000038135E+02 0.  0.
         12    1    1    2    0    0  0.20177260753E+02  0.80893797985E+00  0.24676770449E+02  0.31886035062E+02  0.00000000000E+00 0. -1.
         11    1    3    3    0    0  0.31115157528E+01 -0.30484966014E+01  0.10054488235E+02  0.10957536025E+02  0.51100000000E-03 0. -1.
        -11    1    3    3    0    0 -0.83743918781E+01 -0.10249806474E+02 -0.86669396144E+01  0.15821024449E+02  0.51100000000E-03 0.  1.
        -12    1    3    3    0    0 -0.14914384628E+02  0.12489365096E+02 -0.26064319070E+02  0.32523404464E+02  0.00000000000E+00 0.  1.
</event>
<event>
 7    1  0.1205909E-011  0.5930194E+02  0.7816164E-02  0.1266605E+00
        -11   -1    0    0    0    0  0.00000000000E+00  0.00000000000E+00  0.45593999997E+02  0.45594000000E+02  0.51100000000E-03 0.  1.
         11   -1    0    0    0    0 -0.00000000000E+00 -0.00000000000E+00 -0.45593999997E+02  0.45594000000E+02  0.51100000000E-03 0. -1.
    9900012    2    1    2    0    0  0.26102632042E+02  0.74158685722E+01  0.16744509186E+02  0.59301935738E+02  0.49999984882E+02 0.  0.
         12    1    1    2    0    0 -0.26102632042E+02 -0.74158685722E+01 -0.16744509186E+02  0.31886064262E+02  0.00000000000E+00 0. -1.
         11    1    3    3    0    0 -0.51207595028E+01  0.17105445065E+00 -0.57439783900E+00  0.51557124288E+01  0.51100000000E-03 0. -1.
        -11    1    3    3    0    0  0.12333214808E+02 -0.98456346177E+01  0.23146326289E+02  0.28014230838E+02  0.51100000000E-03 0.  1.
         12    1    3    3    0    0  0.18890176737E+02  0.17090448739E+02 -0.58274192638E+01  0.26131992471E+02  0.00000000000E+00 0. -1.
</event>
<event>
 7    1  0.1205909E-011  0.5930196E+02  0.7816164E-02  0.1266605E+00
        -11   -1    0    0    0    0  0.00000000000E+00  0.00000000000E+00  0.45593999997E+02  0.45594000000E+02  0.51100000000E-03 0. -1.
         11   -1    0    0    0    0 -0.00000000000E+00 -0.00000000000E+00 -0.45593999997E+02  0.45594000000E+02  0.51100000000E-03 0.  1.
    9900012    2    1    2    0    0  0.29477022387E+02 -0.36009998567E+01 -0.11612816408E+02  0.59301959893E+02  0.50000028935E+02 0.  0.
         12    1    1    2    0    0 -0.29477022387E+02  0.36009998567E+01  0.11612816408E+02  0.31886040107E+02  0.00000000000E+00 0. -1.
         11    1    3    3    0    0  0.17428661165E+02  0.68660005835E+01 -0.12867506309E+02  0.22726040414E+02  0.51100000000E-03 0. -1.
        -11    1    3    3    0    0  0.12475669293E+02 -0.13654852688E+02 -0.12582396907E+02  0.22369936040E+02  0.51100000000E-03 0.  1.
         12    1    3    3    0    0 -0.42730807146E+00  0.31878522476E+01  0.13837086808E+02  0.14205983440E+02  0.00000000000E+00 0. -1.
</event>
<event>
 7    1  0.1205909E-011  0.5930191E+02  0.7816164E-02  0.1266605E+00
        -11   -1    0    0    0    0  0.00000000000E+00  0.00000000000E+00  0.45593999997E+02  0.45594000000E+02  0.51100000000E-03 0. -1.
         11   -1    0    0    0    0 -0.00000000000E+00 -0.00000000000E+00 -0.45593999997E+02  0.45594000000E+02  0.51100000000E-03 0.  1.
    9900012    2    1    2    0    0 -0.75621934275E+00 -0.20351612650E+02 -0.24534934471E+02  0.59301905622E+02  0.49999929958E+02 0.  0.
         12    1    1    2    0    0  0.75621934275E+00  0.20351612650E+02  0.24534934471E+02  0.31886094378E+02  0.00000000000E+00 0. -1.
         11    1    3    3    0    0  0.11081667050E+02 -0.16979533850E+01 -0.83747563983E+01  0.13993674832E+02  0.51100000000E-03 0. -1.
        -11    1    3    3    0    0  0.10690033607E+02 -0.15972735983E+02 -0.42465341938E+01  0.19683449043E+02  0.51100000000E-03 0.  1.
         12    1    3    3    0    0 -0.22527919999E+02 -0.26809232816E+01 -0.11913643879E+02  0.25624781748E+02  0.00000000000E+00 0. -1.
</event>
<event>
 7    1  0.1205909E-011  0.5930179E+02  0.7816164E-02  0.1266605E+00
        -11   -1    0    0    0    0  0.00000000000E+00  0.00000000000E+00  0.45593999997E+02  0.45594000000E+02  0.51100000000E-03 0.  1.
         11   -1    0    0    0    0 -0.00000000000E+00 -0.00000000000E+00 -0.45593999997E+02  0.45594000000E+02  0.51100000000E-03 0. -1.
    9900012    2    1    2    0    0  0.25231343670E+02 -0.53537594158E+01  0.18746910797E+02  0.59301794397E+02  0.49999727109E+02 0.  0.
         12    1    1    2    0    0 -0.25231343670E+02  0.53537594158E+01 -0.18746910797E+02  0.31886205603E+02  0.00000000000E+00 0. -1.
         11    1    3    3    0    0  0.78005661320E+01 -0.34767071091E-01 -0.88122670492E+01  0.11768861098E+02  0.51100000000E-03 0. -1.
        -11    1    3    3    0    0  0.72038004878E+01  0.79726256307E+01 -0.42646841050E+01  0.11560494440E+02  0.51100000000E-03 0.  1.
        -12    1    3    3    0    0  0.10226977051E+02 -0.13291617975E+02  0.31823861952E+02  0.35972438860E+02  0.00000000000E+00 0.  1.
</event>
<event>
 7    1  0.1205909E-011  0.5930196E+02  0.7816164E-02  0.1266605E+00
        -11   -1    0    0    0    0  0.00000000000E+00  0.00000000000E+00  0.45593999997E+02  0.45594000000E+02  0.51100000000E-03 0.  1.
         11   -1    0    0    0    0 -0.00000000000E+00 -0.00000000000E+00 -0.45593999997E+02  0.45594000000E+02  0.51100000000E-03 0. -1.
    9900012    2    1    2    0    0  0.87199361262E+01  0.15915927365E+02  0.26217658421E+02  0.59301958493E+02  0.50000026381E+02 0.  0.
         12    1    1    2    0    0 -0.87199361262E+01 -0.15915927365E+02 -0.26217658421E+02  0.31886041507E+02  0.00000000000E+00 0. -1.
         11    1    3    3    0    0  0.10693523331E+02 -0.57112263970E+01 -0.87490001617E+01  0.14950403080E+02  0.51100000000E-03 0. -1.
        -11    1    3    3    0    0  0.43653290343E+01  0.10978358504E+01  0.18303803386E+01  0.48591803401E+01  0.51100000000E-03 0.  1.
        -12    1    3    3    0    0 -0.63389162387E+01  0.20529317912E+02  0.33136278244E+02  0.39492375072E+02  0.00000000000E+00 0.  1.
</event>
<event>
 7    1  0.1205909E-011  0.5930193E+02  0.7816164E-02  0.1266605E+00
        -11   -1    0    0    0    0  0.00000000000E+00  0.00000000000E+00  0.45593999997E+02  0.45594000000E+02  0.51100000000E-03 0.  1.
         11   -1    0    0    0    0 -0.00000000000E+00 -0.00000000000E+00 -0.45593999997E+02  0.45594000000E+02  0.51100000000E-03 0. -1.
    9900012    2    1    2    0    0 -0.54412616980E+01  0.21628231940E+02  0.22788891075E+02  0.59301932476E+02  0.49999978932E+02 0.  0.
         12    1    1    2    0    0  0.54412616980E+01 -0.21628231940E+02 -0.22788891075E+02  0.31886067524E+02  0.00000000000E+00 0. -1.
         11    1    3    3    0    0 -0.30544257609E+01  0.14934752681E+01 -0.10120710603E+02  0.10676552275E+02  0.51100000000E-03 0. -1.
        -11    1    3    3    0    0  0.51028160505E+01  0.68324178021E+00 -0.38083073699E+01  0.64038079499E+01  0.51100000000E-03 0.  1.
        -12    1    3    3    0    0 -0.74896519876E+01  0.19451514892E+02  0.36717909048E+02  0.42221572251E+02  0.00000000000E+00 0.  1.
</event>
<event>
 7    1  0.1205909E-011  0.5930195E+02  0.7816164E-02  0.1266605E+00
        -11   -1    0    0    0    0  0.00000000000E+00  0.00000000000E+00  0.45593999997E+02  0.45594000000E+02  0.51100000000E-03 0.  1.
         11   -1    0    0    0    0 -0.00000000000E+00 -0.00000000000E+00 -0.45593999997E+02  0.45594000000E+02  0.51100000000E-03 0. -1.
    9900012    2    1    2    0    0 -0.18112339764E+02  0.22827589381E+02 -0.12944659958E+02  0.59301954304E+02  0.50000018742E+02 0.  0.
         12    1    1    2    0    0  0.18112339764E+02 -0.22827589381E+02  0.12944659958E+02  0.31886045696E+02  0.00000000000E+00 0. -1.
         11    1    3    3    0    0  0.50669840464E+01 -0.37665205089E+01 -0.75361799265E+01  0.98313281004E+01  0.51100000000E-03 0. -1.
        -11    1    3    3    0    0 -0.32137225486E+00 -0.24101885909E+01  0.93805758366E+01  0.96905878283E+01  0.51100000000E-03 0.  1.
        -12    1    3    3    0    0 -0.22857951556E+02  0.29004298481E+02 -0.14789055868E+02  0.39780038376E+02  0.00000000000E+00 0.  1.
</event>
<event>
 7    1  0.1205909E-011  0.5930198E+02  0.7816164E-02  0.1266605E+00
        -11   -1    0    0    0    0  0.00000000000E+00  0.00000000000E+00  0.45593999997E+02  0.45594000000E+02  0.51100000000E-03 0.  1.
         11   -1    0    0    0    0 -0.00000000000E+00 -0.00000000000E+00 -0.45593999997E+02  0.45594000000E+02  0.51100000000E-03 0. -1.
    9900012    2    1    2    0    0  0.91460925895E+01  0.95807019453E+01  0.29004783113E+02  0.59301979507E+02  0.50000064706E+02 0.  0.
         12    1    1    2    0    0 -0.91460925895E+01 -0.95807019453E+01 -0.29004783113E+02  0.31886020493E+02  0.00000000000E+00 0. -1.
         11    1    3    3    0    0  0.30944754582E+00 -0.21130982788E+01 -0.48031511657E+01  0.52565391182E+01  0.51100000000E-03 0. -1.
        -11    1    3    3    0    0 -0.11173384578E+02  0.13361718500E+02  0.36208408232E+01  0.17790180796E+02  0.51100000000E-03 0.  1.
         12    1    3    3    0    0  0.20010029622E+02 -0.16679182765E+01  0.30187093456E+02  0.36255259593E+02  0.00000000000E+00 0. -1.
</event>
<event>
 7    1  0.1205909E-011  0.5930197E+02  0.7816164E-02  0.1266605E+00
        -11   -1    0    0    0    0  0.00000000000E+00  0.00000000000E+00  0.45593999997E+02  0.45594000000E+02  0.51100000000E-03 0. -1.
         11   -1    0    0    0    0 -0.00000000000E+00 -0.00000000000E+00 -0.45593999997E+02  0.45594000000E+02  0.51100000000E-03 0.  1.
    9900012    2    1    2    0    0 -0.66554353631E+01 -0.13009004124E+02 -0.28340606834E+02  0.59301968515E+02  0.50000044658E+02 0.  0.
         12    1    1    2    0    0  0.66554353631E+01  0.13009004124E+02  0.28340606834E+02  0.31886031485E+02  0.00000000000E+00 0. -1.
         11    1    3    3    0    0 -0.25953111228E+00 -0.18529899828E+02 -0.10201389248E+02  0.21154027675E+02  0.51100000000E-03 0.  1.
        -11    1    3    3    0    0 -0.10587870725E+02 -0.42523572866E+01  0.51706935110E+01  0.12526836018E+02  0.51100000000E-03 0. -1.
         12    1    3    3    0    0  0.41919664742E+01  0.97732529898E+01 -0.23309911097E+02  0.25621104821E+02  0.00000000000E+00 0. -1.
</event>
<event>
 7    1  0.1205909E-011  0.5930192E+02  0.7816164E-02  0.1266605E+00
        -11   -1    0    0    0    0  0.00000000000E+00  0.00000000000E+00  0.45593999997E+02  0.45594000000E+02  0.51100000000E-03 0. -1.
         11   -1    0    0    0    0 -0.00000000000E+00 -0.00000000000E+00 -0.45593999997E+02  0.45594000000E+02  0.51100000000E-03 0.  1.
    9900012    2    1    2    0    0  0.10604867406E+01 -0.23769365906E+02 -0.21227680874E+02  0.59301924308E+02  0.49999964037E+02 0.  0.
         12    1    1    2    0    0 -0.10604867406E+01  0.23769365906E+02  0.21227680874E+02  0.31886075692E+02  0.00000000000E+00 0. -1.
         11    1    3    3    0    0 -0.21733858049E+01 -0.22091011744E+02 -0.22828336911E+02  0.31841315489E+02  0.51100000000E-03 0. -1.
        -11    1    3    3    0    0  0.10032477457E+02 -0.11610710590E+02  0.15646602475E+01  0.15424246053E+02  0.51100000000E-03 0.  1.
         12    1    3    3    0    0 -0.67986049114E+01  0.99323564278E+01  0.35995788896E-01  0.12036362767E+02  0.00000000000E+00 0. -1.
</event>
<event>
 7    1  0.1205909E-011  0.5930197E+02  0.7816164E-02  0.1266605E+00
        -11   -1    0    0    0    0  0.00000000000E+00  0.00000000000E+00  0.45593999997E+02  0.45594000000E+02  0.51100000000E-03 0.  1.
         11   -1    0    0    0    0 -0.00000000000E+00 -0.00000000000E+00 -0.45593999997E+02  0.45594000000E+02  0.51100000000E-03 0. -1.
    9900012    2    1    2    0    0 -0.82796108645E+01 -0.93749239760E+01  0.29330494883E+02  0.59301967232E+02  0.50000042319E+02 0.  0.
         12    1    1    2    0    0  0.82796108645E+01  0.93749239760E+01 -0.29330494883E+02  0.31886032768E+02  0.00000000000E+00 0. -1.
         11    1    3    3    0    0  0.10821668322E+02  0.14557223340E+01  0.52457313647E+00  0.10931734081E+02  0.51100000000E-03 0. -1.
        -11    1    3    3    0    0  0.85402315776E+01 -0.28660000867E+01  0.12166058312E+02  0.15138113720E+02  0.51100000000E-03 0.  1.
         12    1    3    3    0    0 -0.27641510764E+02 -0.79646462233E+01  0.16639863434E+02  0.33232119431E+02  0.00000000000E+00 0. -1.
</event>
<event>
 7    1  0.1205909E-011  0.5930195E+02  0.7816164E-02  0.1266605E+00
        -11   -1    0    0    0    0  0.00000000000E+00  0.00000000000E+00  0.45593999997E+02  0.45594000000E+02  0.51100000000E-03 0. -1.
         11   -1    0    0    0    0 -0.00000000000E+00 -0.00000000000E+00 -0.45593999997E+02  0.45594000000E+02  0.51100000000E-03 0.  1.
    9900012    2    1    2    0    0 -0.11288122321E+02 -0.18217316726E+02 -0.23609914092E+02  0.59301946973E+02  0.50000005371E+02 0.  0.
         12    1    1    2    0    0  0.11288122321E+02  0.18217316726E+02  0.23609914092E+02  0.31886053027E+02  0.00000000000E+00 0. -1.
         11    1    3    3    0    0  0.37514654822E+01  0.88939921129E+01 -0.15838642698E+01  0.97818819894E+01  0.51100000000E-03 0. -1.
        -11    1    3    3    0    0  0.76872884553E+01  0.14611481082E+01 -0.44331593875E+01  0.89934565104E+01  0.51100000000E-03 0.  1.
        -12    1    3    3    0    0 -0.22726876258E+02 -0.28572456947E+02 -0.17592890435E+02  0.40526608473E+02  0.00000000000E+00 0.  1.
</event>
<event>
 7    1  0.1205909E-011  0.5930196E+02  0.7816164E-02  0.1266605E+00
        -11   -1    0    0    0    0  0.00000000000E+00  0.00000000000E+00  0.45593999997E+02  0.45594000000E+02  0.51100000000E-03 0.  1.
         11   -1    0    0    0    0 -0.00000000000E+00 -0.00000000000E+00 -0.45593999997E+02  0.45594000000E+02  0.51100000000E-03 0. -1.
    9900012    2    1    2    0    0 -0.13182136820E+02  0.23678799571E+02  0.16800753717E+02  0.59301959077E+02  0.50000027447E+02 0.  0.
         12    1    1    2    0    0  0.13182136820E+02 -0.23678799571E+02 -0.16800753717E+02  0.31886040923E+02  0.00000000000E+00 0. -1.
         11    1    3    3    0    0  0.99267777620E+01 -0.36563466421E+01 -0.79202584107E+01  0.13215153463E+02  0.51100000000E-03 0. -1.
        -11    1    3    3    0    0  0.17539548200E+01  0.19547993049E+01 -0.28244293928E+00  0.26414715800E+01  0.51100000000E-03 0.  1.
        -12    1    3    3    0    0 -0.24862869402E+02  0.25380346908E+02  0.25003455067E+02  0.43445334034E+02  0.00000000000E+00 0.  1.
</event>
<event>
 7    1  0.1205909E-011  0.5930195E+02  0.7816164E-02  0.1266605E+00
        -11   -1    0    0    0    0  0.00000000000E+00  0.00000000000E+00  0.45593999997E+02  0.45594000000E+02  0.51100000000E-03 0. -1.
         11   -1    0    0    0    0 -0.00000000000E+00 -0.00000000000E+00 -0.45593999997E+02  0.45594000000E+02  0.51100000000E-03 0.  1.
    9900012    2    1    2    0    0 -0.24154768872E+02  0.71086863448E+01 -0.19563578250E+02  0.59301954859E+02  0.50000019753E+02 0.  0.
         12    1    1    2    0    0  0.24154768872E+02 -0.71086863448E+01  0.19563578250E+02  0.31886045141E+02  0.00000000000E+00 0. -1.
         11    1    3    3    0    0 -0.13923040465E+01  0.22012547291E+01 -0.23672960546E+01  0.35196766629E+01  0.51100000000E-03 0. -1.
        -11    1    3    3    0    0  0.38284660042E+01  0.18125955987E+02 -0.18335411998E+02  0.26065202202E+02  0.51100000000E-03 0.  1.
         12    1    3    3    0    0 -0.26590930830E+02 -0.13218524372E+02  0.11391298030E+01  0.29717075994E+02  0.00000000000E+00 0. -1.
</event>
<event>
 7    1  0.1205909E-011  0.5930194E+02  0.7816164E-02  0.1266605E+00
        -11   -1    0    0    0    0  0.00000000000E+00  0.00000000000E+00  0.45593999997E+02  0.45594000000E+02  0.51100000000E-03 0.  1.
         11   -1    0    0    0    0 -0.00000000000E+00 -0.00000000000E+00 -0.45593999997E+02  0.45594000000E+02  0.51100000000E-03 0. -1.
    9900012    2    1    2    0    0 -0.67802982248E+01 -0.20106444789E+02  0.23800826399E+02  0.59301938730E+02  0.49999990338E+02 0.  0.
         12    1    1    2    0    0  0.67802982248E+01  0.20106444789E+02 -0.23800826399E+02  0.31886061270E+02  0.00000000000E+00 0. -1.
         11    1    3    3    0    0  0.34277715160E+01  0.66595949950E+00  0.87997836655E+00  0.36010389900E+01  0.51100000000E-03 0. -1.
        -11    1    3    3    0    0  0.13642924781E+02 -0.87660184658E+01  0.24013327745E+02  0.28976065744E+02  0.51100000000E-03 0.  1.
        -12    1    3    3    0    0 -0.23850994522E+02 -0.12006385822E+02 -0.10924797131E+01  0.26724833996E+02  0.00000000000E+00 0.  1.
</event>
<event>
 7    1  0.1205909E-011  0.5930194E+02  0.7816164E-02  0.1266605E+00
        -11   -1    0    0    0    0  0.00000000000E+00  0.00000000000E+00  0.45593999997E+02  0.45594000000E+02  0.51100000000E-03 0. -1.
         11   -1    0    0    0    0 -0.00000000000E+00 -0.00000000000E+00 -0.45593999997E+02  0.45594000000E+02  0.51100000000E-03 0.  1.
    9900012    2    1    2    0    0  0.24174604328E+01 -0.23982183553E+02  0.20874185989E+02  0.59301939039E+02  0.49999990902E+02 0.  0.
         12    1    1    2    0    0 -0.24174604328E+01  0.23982183553E+02 -0.20874185989E+02  0.31886060961E+02  0.00000000000E+00 0. -1.
         11    1    3    3    0    0  0.97008559748E+00  0.14920234651E+02  0.23374629782E+01  0.15133347334E+02  0.51100000000E-03 0. -1.
        -11    1    3    3    0    0  0.31040970991E+01 -0.48718523043E+01  0.10467905381E+01  0.58707865203E+01  0.51100000000E-03 0.  1.
        -12    1    3    3    0    0 -0.16567222638E+01 -0.34030565899E+02  0.17489932472E+02  0.38297805185E+02  0.00000000000E+00 0.  1.
</event>
<event>
 7    1  0.1205909E-011  0.5930193E+02  0.7816164E-02  0.1266605E+00
        -11   -1    0    0    0    0  0.00000000000E+00  0.00000000000E+00  0.45593999997E+02  0.45594000000E+02  0.51100000000E-03 0.  1.
         11   -1    0    0    0    0 -0.00000000000E+00 -0.00000000000E+00 -0.45593999997E+02  0.45594000000E+02  0.51100000000E-03 0. -1.
    9900012    2    1    2    0    0 -0.24620734940E+02 -0.20010505160E+02  0.31812439173E+01  0.59301933786E+02  0.49999981322E+02 0.  0.
         12    1    1    2    0    0  0.24620734940E+02  0.20010505160E+02 -0.31812439173E+01  0.31886066214E+02  0.00000000000E+00 0. -1.
         11    1    3    3    0    0 -0.52327438497E+01 -0.13067308101E+02 -0.10949702362E+02  0.17833455393E+02  0.51100000000E-03 0. -1.
        -11    1    3    3    0    0 -0.99657688220E+00 -0.17542063183E+02  0.43740965563E+01  0.18106624952E+02  0.51100000000E-03 0.  1.
        -12    1    3    3    0    0 -0.18391414208E+02  0.10598866124E+02  0.97568497227E+01  0.23361853441E+02  0.00000000000E+00 0.  1.
</event>
<event>
 7    1  0.1205909E-011  0.5930194E+02  0.7816164E-02  0.1266605E+00
        -11   -1    0    0    0    0  0.00000000000E+00  0.00000000000E+00  0.45593999997E+02  0.45594000000E+02  0.51100000000E-03 0. -1.
         11   -1    0    0    0    0 -0.00000000000E+00 -0.00000000000E+00 -0.45593999997E+02  0.45594000000E+02  0.51100000000E-03 0.  1.
    9900012    2    1    2    0    0 -0.93834027002E+01 -0.87012145738E+01 -0.29205504121E+02  0.59301939531E+02  0.49999991798E+02 0.  0.
         12    1    1    2    0    0  0.93834027002E+01  0.87012145738E+01  0.29205504121E+02  0.31886060469E+02  0.00000000000E+00 0. -1.
         11    1    3    3    0    0 -0.15768064600E+02 -0.38472333542E+01  0.21803884247E+01  0.16376420844E+02  0.51100000000E-03 0. -1.
        -11    1    3    3    0    0  0.27527937818E+01 -0.42136404345E+01  0.45595865053E+01  0.67913524924E+01  0.51100000000E-03 0.  1.
        -12    1    3    3    0    0  0.36318681182E+01 -0.64034078514E+00 -0.35945479051E+02  0.36134166194E+02  0.00000000000E+00 0.  1.
</event>
<event>
 7    1  0.1205909E-011  0.5930183E+02  0.7816164E-02  0.1266605E+00
        -11   -1    0    0    0    0  0.00000000000E+00  0.00000000000E+00  0.45593999997E+02  0.45594000000E+02  0.51100000000E-03 0.  1.
         11   -1    0    0    0    0 -0.00000000000E+00 -0.00000000000E+00 -0.45593999997E+02  0.45594000000E+02  0.51100000000E-03 0. -1.
    9900012    2    1    2    0    0 -0.14465078277E+02  0.39819853883E+01  0.28135978763E+02  0.59301827477E+02  0.49999787439E+02 0.  0.
         12    1    1    2    0    0  0.14465078277E+02 -0.39819853883E+01 -0.28135978763E+02  0.31886172523E+02  0.00000000000E+00 0. -1.
         11    1    3    3    0    0 -0.18832916913E+02  0.17854473751E+01 -0.95787752550E+00  0.18941597383E+02  0.51100000000E-03 0. -1.
        -11    1    3    3    0    0 -0.87302264134E+01 -0.47975406468E+00  0.24835637791E+02  0.26329753549E+02  0.51100000000E-03 0.  1.
        -12    1    3    3    0    0  0.13098065049E+02  0.26762920779E+01  0.42582184981E+01  0.14030476546E+02  0.00000000000E+00 0.  1.
</event>
<event>
 7    1  0.1205909E-011  0.5930194E+02  0.7816164E-02  0.1266605E+00
        -11   -1    0    0    0    0  0.00000000000E+00  0.00000000000E+00  0.45593999997E+02  0.45594000000E+02  0.51100000000E-03 0.  1.
         11   -1    0    0    0    0 -0.00000000000E+00 -0.00000000000E+00 -0.45593999997E+02  0.45594000000E+02  0.51100000000E-03 0. -1.
    9900012    2    1    2    0    0  0.21665316813E+02  0.17534429818E+02  0.15488018898E+02  0.59301938609E+02  0.49999990117E+02 0.  0.
         12    1    1    2    0    0 -0.21665316813E+02 -0.17534429818E+02 -0.15488018898E+02  0.31886061391E+02  0.00000000000E+00 0. -1.
         11    1    3    3    0    0  0.14488093969E+02  0.20460685913E+02  0.16121705306E+02  0.29806944109E+02  0.51100000000E-03 0. -1.
        -11    1    3    3    0    0 -0.52823029313E+01  0.75709053358E+01  0.69198051681E+01  0.11537115570E+02  0.51100000000E-03 0.  1.
         12    1    3    3    0    0  0.12459525776E+02 -0.10497161430E+02 -0.75534915766E+01  0.17957878929E+02  0.00000000000E+00 0. -1.
</event>
<event>
 7    1  0.1205909E-011  0.5930192E+02  0.7816164E-02  0.1266605E+00
        -11   -1    0    0    0    0  0.00000000000E+00  0.00000000000E+00  0.45593999997E+02  0.45594000000E+02  0.51100000000E-03 0.  1.
         11   -1    0    0    0    0 -0.00000000000E+00 -0.00000000000E+00 -0.45593999997E+02  0.45594000000E+02  0.51100000000E-03 0. -1.
    9900012    2    1    2    0    0  0.89582677729E+01  0.19754760884E+02  0.23371374759E+02  0.59301916872E+02  0.49999950475E+02 0.  0.
         12    1    1    2    0    0 -0.89582677729E+01 -0.19754760884E+02 -0.23371374759E+02  0.31886083128E+02  0.00000000000E+00 0. -1.
         11    1    3    3    0    0  0.86079992588E+01  0.13058616728E+02  0.23694591633E+02  0.28391174597E+02  0.51100000000E-03 0. -1.
        -11    1    3    3    0    0 -0.14158595262E+02  0.15072312506E+01  0.42117187498E+01  0.14848439006E+02  0.51100000000E-03 0.  1.
         12    1    3    3    0    0  0.14508863776E+02  0.51889129056E+01 -0.45349356232E+01  0.16062303269E+02  0.00000000000E+00 0. -1.
</event>
<event>
 7    1  0.1205909E-011  0.5930197E+02  0.7816164E-02  0.1266605E+00
        -11   -1    0    0    0    0  0.00000000000E+00  0.00000000000E+00  0.45593999997E+02  0.45594000000E+02  0.51100000000E-03 0. -1.
         11   -1    0    0    0    0 -0.00000000000E+00 -0.00000000000E+00 -0.45593999997E+02  0.45594000000E+02  0.51100000000E-03 0.  1.
    9900012    2    1    2    0    0  0.17849639984E+02  0.18691640365E+02 -0.18674362284E+02  0.59301970554E+02  0.50000048378E+02 0.  0.
         12    1    1    2    0    0 -0.17849639984E+02 -0.18691640365E+02  0.18674362284E+02  0.31886029446E+02  0.00000000000E+00 0. -1.
         11    1    3    3    0    0  0.17184974643E+02  0.17602564802E+02  0.62549645062E+01  0.25383030204E+02  0.51100000000E-03 0. -1.
        -11    1    3    3    0    0  0.65376821271E+01 -0.66308919322E+01 -0.27470994199E+01  0.97085823319E+01  0.51100000000E-03 0.  1.
        -12    1    3    3    0    0 -0.58730167859E+01  0.77199674950E+01 -0.22182227370E+02  0.24210358019E+02  0.00000000000E+00 0.  1.
</event>
<event>
 7    1  0.1205909E-011  0.5930185E+02  0.7816164E-02  0.1266605E+00
        -11   -1    0    0    0    0  0.00000000000E+00  0.00000000000E+00  0.45593999997E+02  0.45594000000E+02  0.51100000000E-03 0.  1.
         11   -1    0    0    0    0 -0.00000000000E+00 -0.00000000000E+00 -0.45593999997E+02  0.45594000000E+02  0.51100000000E-03 0. -1.
    9900012    2    1    2    0    0 -0.54133774756E+01 -0.79205071295E+01  0.30408674512E+02  0.59301849802E+02  0.49999828154E+02 0.  0.
         12    1    1    2    0    0  0.54133774756E+01  0.79205071295E+01 -0.30408674512E+02  0.31886150198E+02  0.00000000000E+00 0. -1.
         11    1    3    3    0    0  0.23628200862E+01  0.13540198002E+02  0.14505282725E+02  0.19983070532E+02  0.51100000000E-03 0. -1.
        -11    1    3    3    0    0 -0.22109246515E+01  0.67443294783E+01  0.19373598925E+01  0.73571415333E+01  0.51100000000E-03 0.  1.
         12    1    3    3    0    0 -0.55652729103E+01 -0.28205034610E+02  0.13966031894E+02  0.31961637736E+02  0.00000000000E+00 0. -1.
</event>
<event>
 7    1  0.1205909E-011  0.5930197E+02  0.7816164E-02  0.1266605E+00
        -11   -1    0    0    0    0  0.00000000000E+00  0.00000000000E+00  0.45593999997E+02  0.45594000000E+02  0.51100000000E-03 0. -1.
         11   -1    0    0    0    0 -0.00000000000E+00 -0.00000000000E+00 -0.45593999997E+02  0.45594000000E+02  0.51100000000E-03 0.  1.
    9900012    2    1    2    0    0 -0.11707604199E+01 -0.29978117517E+02  0.10800954633E+02  0.59301971229E+02  0.50000049608E+02 0.  0.
         12    1    1    2    0    0  0.11707604199E+01  0.29978117517E+02 -0.10800954633E+02  0.31886028771E+02  0.00000000000E+00 0. -1.
         11    1    3    3    0    0 -0.34341114550E+01 -0.18906250634E+02 -0.80902145266E+01  0.20849244732E+02  0.51100000000E-03 0. -1.
        -11    1    3    3    0    0 -0.83130543078E+01 -0.14762488017E+02  0.53755161057E+00  0.16950719347E+02  0.51100000000E-03 0.  1.
         12    1    3    3    0    0  0.10576405343E+02  0.36906211349E+01  0.18353617549E+02  0.21502007150E+02  0.00000000000E+00 0. -1.
</event>
<event>
 7    1  0.1205909E-011  0.5930191E+02  0.7816164E-02  0.1266605E+00
        -11   -1    0    0    0    0  0.00000000000E+00  0.00000000000E+00  0.45593999997E+02  0.45594000000E+02  0.51100000000E-03 0.  1.
         11   -1    0    0    0    0 -0.00000000000E+00 -0.00000000000E+00 -0.45593999997E+02  0.45594000000E+02  0.51100000000E-03 0. -1.
    9900012    2    1    2    0    0  0.21834559442E+01 -0.55406198522E+01  0.31325014289E+02  0.59301914188E+02  0.49999945580E+02 0.  0.
         12    1    1    2    0    0 -0.21834559442E+01  0.55406198522E+01 -0.31325014289E+02  0.31886085812E+02  0.00000000000E+00 0. -1.
         11    1    3    3    0    0 -0.12402864450E+02 -0.67913405260E+01  0.15290563162E+00  0.14141312991E+02  0.51100000000E-03 0. -1.
        -11    1    3    3    0    0  0.21153318321E+02  0.74463677147E+00  0.10824770153E+02  0.23773788277E+02  0.51100000000E-03 0.  1.
        -12    1    3    3    0    0 -0.65669979268E+01  0.50608390233E+00  0.20347338504E+02  0.21386812921E+02  0.00000000000E+00 0.  1.
</event>
<event>
 7    1  0.1205909E-011  0.5930194E+02  0.7816164E-02  0.1266605E+00
        -11   -1    0    0    0    0  0.00000000000E+00  0.00000000000E+00  0.45593999997E+02  0.45594000000E+02  0.51100000000E-03 0. -1.
         11   -1    0    0    0    0 -0.00000000000E+00 -0.00000000000E+00 -0.45593999997E+02  0.45594000000E+02  0.51100000000E-03 0.  1.
    9900012    2    1    2    0    0 -0.17709657005E+02 -0.22916352267E+02 -0.13339016532E+02  0.59301944827E+02  0.50000001457E+02 0.  0.
         12    1    1    2    0    0  0.17709657005E+02  0.22916352267E+02  0.13339016532E+02  0.31886055173E+02  0.00000000000E+00 0. -1.
         11    1    3    3    0    0  0.23379121265E+01  0.86315556676E+01 -0.99256490198E+01  0.13359943678E+02  0.51100000000E-03 0. -1.
        -11    1    3    3    0    0 -0.14300328583E+02 -0.21555345150E+02 -0.14747216673E+02  0.29776042416E+02  0.51100000000E-03 0.  1.
         12    1    3    3    0    0 -0.57472405493E+01 -0.99925627844E+01  0.11333849161E+02  0.16165958732E+02  0.00000000000E+00 0. -1.
</event>
<event>
 7    1  0.1205909E-011  0.5930194E+02  0.7816164E-02  0.1266605E+00
        -11   -1    0    0    0    0  0.00000000000E+00  0.00000000000E+00  0.45593999997E+02  0.45594000000E+02  0.51100000000E-03 0.  1.
         11   -1    0    0    0    0 -0.00000000000E+00 -0.00000000000E+00 -0.45593999997E+02  0.45594000000E+02  0.51100000000E-03 0. -1.
    9900012    2    1    2    0    0 -0.23478664487E+02  0.14962962946E+02  0.15542930192E+02  0.59301943092E+02  0.49999998293E+02 0.  0.
         12    1    1    2    0    0  0.23478664487E+02 -0.14962962946E+02 -0.15542930192E+02  0.31886056908E+02  0.00000000000E+00 0. -1.
         11    1    3    3    0    0  0.50096546847E+01 -0.34393091593E+01  0.24539525292E+01  0.65534243591E+01  0.51100000000E-03 0. -1.
        -11    1    3    3    0    0 -0.18687559534E+02 -0.61072426254E+01  0.17090996951E+02  0.26050440896E+02  0.51100000000E-03 0.  1.
        -12    1    3    3    0    0 -0.98007596375E+01  0.24509514731E+02 -0.40020192879E+01  0.26698077837E+02  0.00000000000E+00 0.  1.
</event>
<event>
 7    1  0.1205909E-011  0.5930195E+02  0.7816164E-02  0.1266605E+00
        -11   -1    0    0    0    0  0.00000000000E+00  0.00000000000E+00  0.45593999997E+02  0.45594000000E+02  0.51100000000E-03 0.  1.
         11   -1    0    0    0    0 -0.00000000000E+00 -0.00000000000E+00 -0.45593999997E+02  0.45594000000E+02  0.51100000000E-03 0. -1.
    9900012    2    1    2    0    0  0.22650325566E+02 -0.34530767991E+01  0.22175646109E+02  0.59301948693E+02  0.50000008508E+02 0.  0.
         12    1    1    2    0    0 -0.22650325566E+02  0.34530767991E+01 -0.22175646109E+02  0.31886051307E+02  0.00000000000E+00 0. -1.
         11    1    3    3    0    0  0.10597203000E+02  0.14654520821E+02  0.11472597932E+01  0.18121034662E+02  0.51100000000E-03 0. -1.
        -11    1    3    3    0    0  0.96449887408E+01 -0.18080597750E+02  0.48621378325E+00  0.20498054223E+02  0.51100000000E-03 0.  1.
         12    1    3    3    0    0  0.24081338244E+01 -0.26999869538E-01  0.20542172533E+02  0.20682859809E+02  0.00000000000E+00 0. -1.
</event>
<event>
 7    1  0.1205909E-011  0.5930198E+02  0.7816164E-02  0.1266605E+00
        -11   -1    0    0    0    0  0.00000000000E+00  0.00000000000E+00  0.45593999997E+02  0.45594000000E+02  0.51100000000E-03 0. -1.
         11   -1    0    0    0    0 -0.00000000000E+00 -0.00000000000E+00 -0.45593999997E+02  0.45594000000E+02  0.51100000000E-03 0.  1.
    9900012    2    1    2    0    0 -0.29331300441E+02  0.95532403914E+01 -0.80702533251E+01  0.59301975220E+02  0.50000056887E+02 0.  0.
         12    1    1    2    0    0  0.29331300441E+02 -0.95532403914E+01  0.80702533251E+01  0.31886024780E+02  0.00000000000E+00 0. -1.
         11    1    3    3    0    0 -0.12311873116E+01  0.94247909500E+01  0.14455744000E+02  0.17300608125E+02  0.51100000000E-03 0. -1.
        -11    1    3    3    0    0 -0.48228206172E+00  0.28115025468E+01  0.31125841786E+01  0.42220046290E+01  0.51100000000E-03 0.  1.
        -12    1    3    3    0    0 -0.27617831068E+02 -0.26830531054E+01 -0.25638581503E+02  0.37779362466E+02  0.00000000000E+00 0.  1.
</event>
<event>
 7    1  0.1205909E-011  0.5930209E+02  0.7816164E-02  0.1266604E+00
        -11   -1    0    0    0    0  0.00000000000E+00  0.00000000000E+00  0.45593999997E+02  0.45594000000E+02  0.51100000000E-03 0.  1.
         11   -1    0    0    0    0 -0.00000000000E+00 -0.00000000000E+00 -0.45593999997E+02  0.45594000000E+02  0.51100000000E-03 0. -1.
    9900012    2    1    2    0    0 -0.33907870494E+01  0.31397614503E+02 -0.44049205177E+01  0.59302094680E+02  0.50000274753E+02 0.  0.
         12    1    1    2    0    0  0.33907870494E+01 -0.31397614503E+02  0.44049205177E+01  0.31885905320E+02  0.00000000000E+00 0. -1.
         11    1    3    3    0    0 -0.18405012746E+02  0.82456970730E+01 -0.88046433898E+01  0.22005857399E+02  0.51100000000E-03 0. -1.
        -11    1    3    3    0    0 -0.46146671549E+01  0.13990928566E+02  0.51917122328E+01  0.15620342866E+02  0.51100000000E-03 0.  1.
         12    1    3    3    0    0  0.19628892851E+02  0.91609888642E+01 -0.79198936067E+00  0.21675894415E+02  0.00000000000E+00 0. -1.
</event>
<event>
 7    1  0.1205909E-011  0.5930197E+02  0.7816164E-02  0.1266605E+00
        -11   -1    0    0    0    0  0.00000000000E+00  0.00000000000E+00  0.45593999997E+02  0.45594000000E+02  0.51100000000E-03 0.  1.
         11   -1    0    0    0    0 -0.00000000000E+00 -0.00000000000E+00 -0.45593999997E+02  0.45594000000E+02  0.51100000000E-03 0. -1.
    9900012    2    1    2    0    0  0.25500233896E+02  0.19119857336E+02 -0.94239049397E+00  0.59301968997E+02  0.50000045537E+02 0.  0.
         12    1    1    2    0    0 -0.25500233896E+02 -0.19119857336E+02  0.94239049397E+00  0.31886031003E+02  0.00000000000E+00 0. -1.
         11    1    3    3    0    0  0.76870542728E+01  0.12193786545E+02 -0.29659320239E+01  0.14716520877E+02  0.51100000000E-03 0. -1.
        -11    1    3    3    0    0  0.25809799353E+02 -0.82780627588E+01 -0.10900854792E+01  0.27126746069E+02  0.51100000000E-03 0.  1.
         12    1    3    3    0    0 -0.79966197303E+01  0.15204133550E+02  0.31136270091E+01  0.17458702050E+02  0.00000000000E+00 0. -1.
</event>
<event>
 7    1  0.1205909E-011  0.5930198E+02  0.7816164E-02  0.1266605E+00
        -11   -1    0    0    0    0  0.00000000000E+00  0.00000000000E+00  0.45593999997E+02  0.45594000000E+02  0.51100000000E-03 0.  1.
         11   -1    0    0    0    0 -0.00000000000E+00 -0.00000000000E+00 -0.45593999997E+02  0.45594000000E+02  0.51100000000E-03 0. -1.
    9900012    2    1    2    0    0 -0.20876692366E+01  0.30741106895E+02  0.82063409292E+01  0.59301983512E+02  0.50000072011E+02 0.  0.
         12    1    1    2    0    0  0.20876692366E+01 -0.30741106895E+02 -0.82063409292E+01  0.31886016488E+02  0.00000000000E+00 0. -1.
         11    1    3    3    0    0  0.52120112228E+00  0.70848523714E+01  0.30447347984E+01  0.77289840204E+01  0.51100000000E-03 0. -1.
        -11    1    3    3    0    0 -0.11167384092E+02  0.18029663083E+02  0.22823621685E+02  0.31156009459E+02  0.51100000000E-03 0.  1.
         12    1    3    3    0    0  0.85585137334E+01  0.56265914411E+01 -0.17662015554E+02  0.20416990033E+02  0.00000000000E+00 0. -1.
</event>
<event>
 7    1  0.1205909E-011  0.5930195E+02  0.7816164E-02  0.1266605E+00
        -11   -1    0    0    0    0  0.00000000000E+00  0.00000000000E+00  0.45593999997E+02  0.45594000000E+02  0.51100000000E-03 0.  1.
         11   -1    0    0    0    0 -0.00000000000E+00 -0.00000000000E+00 -0.45593999997E+02  0.45594000000E+02  0.51100000000E-03 0. -1.
    9900012    2    1    2    0    0  0.31822752024E+02  0.18037578738E+01  0.88275731686E+00  0.59301947417E+02  0.50000006181E+02 0.  0.
         12    1    1    2    0    0 -0.31822752024E+02 -0.18037578738E+01 -0.88275731686E+00  0.31886052583E+02  0.00000000000E+00 0. -1.
         11    1    3    3    0    0  0.10429254379E+02 -0.32058061017E+01 -0.10155124078E+02  0.14905471645E+02  0.51100000000E-03 0. -1.
        -11    1    3    3    0    0  0.81151958804E+01 -0.78837622711E+01 -0.10888798735E+02  0.15702740203E+02  0.51100000000E-03 0.  1.
        -12    1    3    3    0    0  0.13278301765E+02  0.12893326247E+02  0.21926680129E+02  0.28693735570E+02  0.00000000000E+00 0.  1.
</event>
<event>
 7    1  0.1205909E-011  0.5930195E+02  0.7816164E-02  0.1266605E+00
        -11   -1    0    0    0    0  0.00000000000E+00  0.00000000000E+00  0.45593999997E+02  0.45594000000E+02  0.51100000000E-03 0.  1.
         11   -1    0    0    0    0 -0.00000000000E+00 -0.00000000000E+00 -0.45593999997E+02  0.45594000000E+02  0.51100000000E-03 0. -1.
    9900012    2    1    2    0    0  0.28166978112E+01 -0.98679521285E+01  0.30189567635E+02  0.59301948822E+02  0.50000008743E+02 0.  0.
         12    1    1    2    0    0 -0.28166978112E+01  0.98679521285E+01 -0.30189567635E+02  0.31886051178E+02  0.00000000000E+00 0. -1.
         11    1    3    3    0    0  0.27548207636E+01 -0.14367872816E+02 -0.76812994899E+01  0.16523533787E+02  0.51100000000E-03 0. -1.
        -11    1    3    3    0    0 -0.57919388134E+01 -0.52108785158E+01  0.99093260155E+01  0.12605338253E+02  0.51100000000E-03 0.  1.
         12    1    3    3    0    0  0.58538158610E+01  0.97107992031E+01  0.27961541109E+02  0.30173076782E+02  0.00000000000E+00 0. -1.
</event>
<event>
 7    1  0.1205909E-011  0.5930199E+02  0.7816164E-02  0.1266605E+00
        -11   -1    0    0    0    0  0.00000000000E+00  0.00000000000E+00  0.45593999997E+02  0.45594000000E+02  0.51100000000E-03 0. -1.
         11   -1    0    0    0    0 -0.00000000000E+00 -0.00000000000E+00 -0.45593999997E+02  0.45594000000E+02  0.51100000000E-03 0.  1.
    9900012    2    1    2    0    0 -0.12413742148E+02  0.63010658122E+01 -0.28686464439E+02  0.59301989486E+02  0.50000082905E+02 0.  0.
         12    1    1    2    0    0  0.12413742148E+02 -0.63010658122E+01  0.28686464439E+02  0.31886010514E+02  0.00000000000E+00 0. -1.
         11    1    3    3    0    0 -0.18141261472E+02  0.53814601798E+01 -0.10310910400E+02  0.21549486188E+02  0.51100000000E-03 0. -1.
        -11    1    3    3    0    0 -0.12867575696E+02 -0.44437746651E+01 -0.80953302243E+01  0.15838434558E+02  0.51100000000E-03 0.  1.
         12    1    3    3    0    0  0.18595095020E+02  0.53633802975E+01 -0.10280223815E+02  0.21914068739E+02  0.00000000000E+00 0. -1.
</event>
<event>
 7    1  0.1205909E-011  0.5930195E+02  0.7816164E-02  0.1266605E+00
        -11   -1    0    0    0    0  0.00000000000E+00  0.00000000000E+00  0.45593999997E+02  0.45594000000E+02  0.51100000000E-03 0.  1.
         11   -1    0    0    0    0 -0.00000000000E+00 -0.00000000000E+00 -0.45593999997E+02  0.45594000000E+02  0.51100000000E-03 0. -1.
    9900012    2    1    2    0    0 -0.23566455656E+02  0.22480321162E+01  0.21360920866E+02  0.59301946296E+02  0.50000004137E+02 0.  0.
         12    1    1    2    0    0  0.23566455656E+02 -0.22480321162E+01 -0.21360920866E+02  0.31886053704E+02  0.00000000000E+00 0. -1.
         11    1    3    3    0    0 -0.16405657722E+02 -0.17072366504E+02  0.83650504693E+01  0.25111458997E+02  0.51100000000E-03 0. -1.
        -11    1    3    3    0    0  0.54284950759E+01 -0.21743560646E+01  0.58594682816E+01  0.82782698609E+01  0.51100000000E-03 0.  1.
         12    1    3    3    0    0 -0.12589293009E+02  0.21494754685E+02  0.71364021147E+01  0.25912217438E+02  0.00000000000E+00 0. -1.
</event>
<event>
 7    1  0.1205909E-011  0.5930196E+02  0.7816164E-02  0.1266605E+00
        -11   -1    0    0    0    0  0.00000000000E+00  0.00000000000E+00  0.45593999997E+02  0.45594000000E+02  0.51100000000E-03 0. -1.
         11   -1    0    0    0    0 -0.00000000000E+00 -0.00000000000E+00 -0.45593999997E+02  0.45594000000E+02  0.51100000000E-03 0.  1.
    9900012    2    1    2    0    0 -0.11554246612E+02  0.29714146642E+02 -0.53713008906E+00  0.59301958632E+02  0.50000026634E+02 0.  0.
         12    1    1    2    0    0  0.11554246612E+02 -0.29714146642E+02  0.53713008906E+00  0.31886041368E+02  0.00000000000E+00 0. -1.
         11    1    3    3    0    0  0.63925827872E+01 -0.82678853759E+00 -0.15192105644E+01  0.66224387484E+01  0.51100000000E-03 0. -1.
        -11    1    3    3    0    0  0.11233869248E+00  0.60853928827E+01 -0.16516569984E+02  0.17602321177E+02  0.51100000000E-03 0.  1.
         12    1    3    3    0    0 -0.18059168091E+02  0.24455542296E+02  0.17498650460E+02  0.35077198706E+02  0.00000000000E+00 0. -1.
</event>
<event>
 7    1  0.1205909E-011  0.5930198E+02  0.7816164E-02  0.1266605E+00
        -11   -1    0    0    0    0  0.00000000000E+00  0.00000000000E+00  0.45593999997E+02  0.45594000000E+02  0.51100000000E-03 0.  1.
         11   -1    0    0    0    0 -0.00000000000E+00 -0.00000000000E+00 -0.45593999997E+02  0.45594000000E+02  0.51100000000E-03 0. -1.
    9900012    2    1    2    0    0 -0.26995696548E+01  0.62038528819E+00  0.31765483756E+02  0.59301976220E+02  0.50000058712E+02 0.  0.
         12    1    1    2    0    0  0.26995696548E+01 -0.62038528819E+00 -0.31765483756E+02  0.31886023780E+02  0.00000000000E+00 0. -1.
         11    1    3    3    0    0 -0.21358561143E+01  0.96210668933E+01  0.14586248158E+02  0.17603563421E+02  0.51100000000E-03 0.  1.
        -11    1    3    3    0    0 -0.54372642044E+01  0.78529348604E+01  0.21589875646E+02  0.23608370520E+02  0.51100000000E-03 0. -1.
         12    1    3    3    0    0  0.48735506639E+01 -0.16853616466E+02 -0.44106400484E+01  0.18090042280E+02  0.00000000000E+00 0. -1.
</event>
<event>
 7    1  0.1205909E-011  0.5930224E+02  0.7816164E-02  0.1266604E+00
        -11   -1    0    0    0    0  0.00000000000E+00  0.00000000000E+00  0.45593999997E+02  0.45594000000E+02  0.51100000000E-03 0. -1.
         11   -1    0    0    0    0 -0.00000000000E+00 -0.00000000000E+00 -0.45593999997E+02  0.45594000000E+02  0.51100000000E-03 0.  1.
    9900012    2    1    2    0    0  0.85417166651E+01 -0.69471712133E+00 -0.30712505950E+02  0.59302241781E+02  0.50000543028E+02 0.  0.
         12    1    1    2    0    0 -0.85417166651E+01  0.69471712133E+00  0.30712505950E+02  0.31885758219E+02  0.00000000000E+00 0. -1.
         11    1    3    3    0    0 -0.32346281691E+00  0.79267074758E+01 -0.18572275978E-01  0.79333262123E+01  0.51100000000E-03 0. -1.
        -11    1    3    3    0    0  0.88042318006E+01  0.14242384870E+02 -0.61815940185E+01  0.17848588999E+02  0.51100000000E-03 0.  1.
        -12    1    3    3    0    0  0.60947681424E-01 -0.22863809467E+02 -0.24512339655E+02  0.33520326570E+02  0.00000000000E+00 0.  1.
</event>
<event>
 7    1  0.1205909E-011  0.5930194E+02  0.7816164E-02  0.1266605E+00
        -11   -1    0    0    0    0  0.00000000000E+00  0.00000000000E+00  0.45593999997E+02  0.45594000000E+02  0.51100000000E-03 0. -1.
         11   -1    0    0    0    0 -0.00000000000E+00 -0.00000000000E+00 -0.45593999997E+02  0.45594000000E+02  0.51100000000E-03 0.  1.
    9900012    2    1    2    0    0 -0.54759666349E+01  0.80396105315E+01 -0.30366092617E+02  0.59301935193E+02  0.49999983887E+02 0.  0.
         12    1    1    2    0    0  0.54759666349E+01 -0.80396105315E+01  0.30366092617E+02  0.31886064807E+02  0.00000000000E+00 0. -1.
         11    1    3    3    0    0  0.63842091357E+01  0.10272022698E+02 -0.70063444482E+01  0.13977175658E+02  0.51100000000E-03 0. -1.
        -11    1    3    3    0    0 -0.21182351438E+02 -0.40461377394E+00 -0.12064246316E+01  0.21220536878E+02  0.51100000000E-03 0.  1.
         12    1    3    3    0    0  0.93221756675E+01 -0.18277983923E+01 -0.22153323537E+02  0.24104222656E+02  0.00000000000E+00 0. -1.
</event>
<event>
 7    1  0.1205909E-011  0.5930190E+02  0.7816164E-02  0.1266605E+00
        -11   -1    0    0    0    0  0.00000000000E+00  0.00000000000E+00  0.45593999997E+02  0.45594000000E+02  0.51100000000E-03 0.  1.
         11   -1    0    0    0    0 -0.00000000000E+00 -0.00000000000E+00 -0.45593999997E+02  0.45594000000E+02  0.51100000000E-03 0. -1.
    9900012    2    1    2    0    0  0.59269894772E+01  0.30127636278E+02  0.85976462227E+01  0.59301902833E+02  0.49999924871E+02 0.  0.
         12    1    1    2    0    0 -0.59269894772E+01 -0.30127636278E+02 -0.85976462227E+01  0.31886097167E+02  0.00000000000E+00 0. -1.
         11    1    3    3    0    0  0.13718126623E+02  0.11993785700E+02 -0.10984228172E+02  0.21276540186E+02  0.51100000000E-03 0. -1.
        -11    1    3    3    0    0  0.90714587351E+01  0.95701014893E+01  0.48416470509E+01  0.14047054941E+02  0.51100000000E-03 0.  1.
        -12    1    3    3    0    0 -0.16862595881E+02  0.85637490882E+01  0.14740227344E+02  0.23978307706E+02  0.00000000000E+00 0.  1.
</event>
<event>
 7    1  0.1205909E-011  0.5930195E+02  0.7816164E-02  0.1266605E+00
        -11   -1    0    0    0    0  0.00000000000E+00  0.00000000000E+00  0.45593999997E+02  0.45594000000E+02  0.51100000000E-03 0. -1.
         11   -1    0    0    0    0 -0.00000000000E+00 -0.00000000000E+00 -0.45593999997E+02  0.45594000000E+02  0.51100000000E-03 0.  1.
    9900012    2    1    2    0    0  0.30145120653E+02  0.30748430323E+01 -0.99265999292E+01  0.59301947485E+02  0.50000006304E+02 0.  0.
         12    1    1    2    0    0 -0.30145120653E+02 -0.30748430323E+01  0.99265999292E+01  0.31886052515E+02  0.00000000000E+00 0. -1.
         11    1    3    3    0    0  0.82023919585E+01  0.16027892276E+02 -0.11230236053E+02  0.21220055766E+02  0.51100000000E-03 0. -1.
        -11    1    3    3    0    0  0.17885757752E+02  0.32233772937E+01 -0.69704685534E+01  0.19464786761E+02  0.51100000000E-03 0.  1.
         12    1    3    3    0    0  0.40569709425E+01 -0.16176426538E+02  0.82741046773E+01  0.18617104957E+02  0.00000000000E+00 0. -1.
</event>
<event>
 7    1  0.1205909E-011  0.5930189E+02  0.7816164E-02  0.1266605E+00
        -11   -1    0    0    0    0  0.00000000000E+00  0.00000000000E+00  0.45593999997E+02  0.45594000000E+02  0.51100000000E-03 0. -1.
         11   -1    0    0    0    0 -0.00000000000E+00 -0.00000000000E+00 -0.45593999997E+02  0.45594000000E+02  0.51100000000E-03 0.  1.
    9900012    2    1    2    0    0 -0.99581391040E+01  0.11942668994E+02 -0.27837598902E+02  0.59301893468E+02  0.49999907791E+02 0.  0.
         12    1    1    2    0    0  0.99581391040E+01 -0.11942668994E+02  0.27837598902E+02  0.31886106532E+02  0.00000000000E+00 0. -1.
         11    1    3    3    0    0 -0.71102862111E+01  0.14691184061E+02  0.55661013583E+00  0.16330856506E+02  0.51100000000E-03 0. -1.
        -11    1    3    3    0    0 -0.43429260559E+01  0.48023660360E+00  0.65349503558E+01  0.78611201706E+01  0.51100000000E-03 0.  1.
        -12    1    3    3    0    0  0.14950731630E+01 -0.32287516703E+01 -0.34929159394E+02  0.35109916791E+02  0.00000000000E+00 0.  1.
</event>
<event>
 7    1  0.1205909E-011  0.5930188E+02  0.7816164E-02  0.1266605E+00
        -11   -1    0    0    0    0  0.00000000000E+00  0.00000000000E+00  0.45593999997E+02  0.45594000000E+02  0.51100000000E-03 0.  1.
         11   -1    0    0    0    0 -0.00000000000E+00 -0.00000000000E+00 -0.45593999997E+02  0.45594000000E+02  0.51100000000E-03 0. -1.
    9900012    2    1    2    0    0 -0.22438418271E+02  0.22261628084E+02  0.42026137382E+01  0.59301879796E+02  0.49999882856E+02 0.  0.
         12    1    1    2    0    0  0.22438418271E+02 -0.22261628084E+02 -0.42026137382E+01  0.31886120204E+02  0.00000000000E+00 0. -1.
         11    1    3    3    0    0 -0.73250945591E+01 -0.43193310795E+01 -0.11259125183E+02  0.14109625489E+02  0.51100000000E-03 0. -1.
        -11    1    3    3    0    0 -0.62082318802E+01 -0.34271028937E+01 -0.41865856223E+01  0.82349667126E+01  0.51100000000E-03 0.  1.
        -12    1    3    3    0    0 -0.89050918316E+01  0.30008062057E+02  0.19648324544E+02  0.36957287594E+02  0.00000000000E+00 0.  1.
</event>
<event>
 7    1  0.1205909E-011  0.5930206E+02  0.7816164E-02  0.1266604E+00
        -11   -1    0    0    0    0  0.00000000000E+00  0.00000000000E+00  0.45593999997E+02  0.45594000000E+02  0.51100000000E-03 0.  1.
         11   -1    0    0    0    0 -0.00000000000E+00 -0.00000000000E+00 -0.45593999997E+02  0.45594000000E+02  0.51100000000E-03 0. -1.
    9900012    2    1    2    0    0  0.11618615388E+02 -0.24013474242E+01  0.29596531612E+02  0.59302056757E+02  0.50000205591E+02 0.  0.
         12    1    1    2    0    0 -0.11618615388E+02  0.24013474242E+01 -0.29596531612E+02  0.31885943243E+02  0.00000000000E+00 0. -1.
         11    1    3    3    0    0 -0.14724890553E+01 -0.11248267075E+02 -0.38240410080E+01  0.11971425399E+02  0.51100000000E-03 0. -1.
        -11    1    3    3    0    0  0.12346412438E+02 -0.84190717382E+01  0.91044910907E+01  0.17498755021E+02  0.51100000000E-03 0.  1.
         12    1    3    3    0    0  0.74469200582E+00  0.17265991389E+02  0.24316081530E+02  0.29831876337E+02  0.00000000000E+00 0. -1.
</event>
<event>
 7    1  0.1205909E-011  0.5930194E+02  0.7816164E-02  0.1266605E+00
        -11   -1    0    0    0    0  0.00000000000E+00  0.00000000000E+00  0.45593999997E+02  0.45594000000E+02  0.51100000000E-03 0.  1.
         11   -1    0    0    0    0 -0.00000000000E+00 -0.00000000000E+00 -0.45593999997E+02  0.45594000000E+02  0.51100000000E-03 0. -1.
    9900012    2    1    2    0    0 -0.28844814569E+02 -0.13131694013E+02  0.35008750842E+01  0.59301939699E+02  0.49999992105E+02 0.  0.
         12    1    1    2    0    0  0.28844814569E+02  0.13131694013E+02 -0.35008750842E+01  0.31886060301E+02  0.00000000000E+00 0. -1.
         11    1    3    3    0    0 -0.24644672945E+02 -0.20956734732E+02  0.49930140138E+01  0.32733390053E+02  0.51100000000E-03 0. -1.
        -11    1    3    3    0    0 -0.96466403100E+01 -0.56846774011E+01  0.24841806135E+01  0.11469279838E+02  0.51100000000E-03 0.  1.
        -12    1    3    3    0    0  0.54464986852E+01  0.13509718120E+02 -0.39763195430E+01  0.15099269807E+02  0.00000000000E+00 0.  1.
</event>
<event>
 7    1  0.1205909E-011  0.5930193E+02  0.7816164E-02  0.1266605E+00
        -11   -1    0    0    0    0  0.00000000000E+00  0.00000000000E+00  0.45593999997E+02  0.45594000000E+02  0.51100000000E-03 0.  1.
         11   -1    0    0    0    0 -0.00000000000E+00 -0.00000000000E+00 -0.45593999997E+02  0.45594000000E+02  0.51100000000E-03 0. -1.
    9900012    2    1    2    0    0 -0.16916941029E+02 -0.76054391427E+01 -0.25936383668E+02  0.59301927866E+02  0.49999970525E+02 0.  0.
         12    1    1    2    0    0  0.16916941029E+02  0.76054391427E+01  0.25936383668E+02  0.31886072134E+02  0.00000000000E+00 0. -1.
         11    1    3    3    0    0 -0.14337030513E+02 -0.23645644150E+02 -0.95832825375E+01  0.29266127787E+02  0.51100000000E-03 0. -1.
        -11    1    3    3    0    0 -0.92112906064E+01  0.40083419888E+01 -0.21453266574E+01  0.10272152007E+02  0.51100000000E-03 0.  1.
         12    1    3    3    0    0  0.66313800913E+01  0.12031863018E+02 -0.14207774474E+02  0.19763648072E+02  0.00000000000E+00 0. -1.
</event>
<event>
 7    1  0.1205909E-011  0.5930195E+02  0.7816164E-02  0.1266605E+00
        -11   -1    0    0    0    0  0.00000000000E+00  0.00000000000E+00  0.45593999997E+02  0.45594000000E+02  0.51100000000E-03 0.  1.
         11   -1    0    0    0    0 -0.00000000000E+00 -0.00000000000E+00 -0.45593999997E+02  0.45594000000E+02  0.51100000000E-03 0. -1.
    9900012    2    1    2    0    0 -0.17284871780E+02 -0.20476235996E+02  0.17282282465E+02  0.59301947873E+02  0.50000007013E+02 0.  0.
         12    1    1    2    0    0  0.17284871780E+02  0.20476235996E+02 -0.17282282465E+02  0.31886052127E+02  0.00000000000E+00 0. -1.
         11    1    3    3    0    0  0.11922336308E+01  0.45342971813E+01  0.63518672390E+01  0.78947760983E+01  0.51100000000E-03 0.  1.
        -11    1    3    3    0    0 -0.24770536112E+02 -0.62204770057E+01  0.17002694572E+02  0.30681678840E+02  0.51100000000E-03 0. -1.
         12    1    3    3    0    0  0.62934307011E+01 -0.18790056172E+02 -0.60722793464E+01  0.20725492935E+02  0.00000000000E+00 0. -1.
</event>
<event>
 7    1  0.1205909E-011  0.5930195E+02  0.7816164E-02  0.1266605E+00
        -11   -1    0    0    0    0  0.00000000000E+00  0.00000000000E+00  0.45593999997E+02  0.45594000000E+02  0.51100000000E-03 0.  1.
         11   -1    0    0    0    0 -0.00000000000E+00 -0.00000000000E+00 -0.45593999997E+02  0.45594000000E+02  0.51100000000E-03 0. -1.
    9900012    2    1    2    0    0  0.25136276814E+01 -0.47588193843E+01  0.31428573710E+02  0.59301953969E+02  0.50000018130E+02 0.  0.
         12    1    1    2    0    0 -0.25136276814E+01  0.47588193843E+01 -0.31428573710E+02  0.31886046031E+02  0.00000000000E+00 0. -1.
         11    1    3    3    0    0  0.77393760643E+01 -0.10192692331E+02  0.15097958036E+02  0.19792353471E+02  0.51100000000E-03 0. -1.
        -11    1    3    3    0    0 -0.91700566903E+01 -0.11611024922E+02  0.16300973578E+02  0.22014258545E+02  0.51100000000E-03 0.  1.
        -12    1    3    3    0    0  0.39443083074E+01  0.17044897868E+02  0.29642096382E-01  0.17495341952E+02  0.00000000000E+00 0.  1.
</event>
<event>
 7    1  0.1205909E-011  0.5930195E+02  0.7816164E-02  0.1266605E+00
        -11   -1    0    0    0    0  0.00000000000E+00  0.00000000000E+00  0.45593999997E+02  0.45594000000E+02  0.51100000000E-03 0.  1.
         11   -1    0    0    0    0 -0.00000000000E+00 -0.00000000000E+00 -0.45593999997E+02  0.45594000000E+02  0.51100000000E-03 0. -1.
    9900012    2    1    2    0    0  0.21599263972E+02 -0.22916718060E+02 -0.50016136699E+01  0.59301948033E+02  0.50000007304E+02 0.  0.
         12    1    1    2    0    0 -0.21599263972E+02  0.22916718060E+02  0.50016136699E+01  0.31886051967E+02  0.00000000000E+00 0. -1.
         11    1    3    3    0    0  0.15611041854E+01  0.50960554318E+00 -0.77232948786E+00  0.18147278546E+01  0.51100000000E-03 0. -1.
        -11    1    3    3    0    0  0.16950682284E+02  0.12165567250E+02  0.28765529029E+01  0.21061842589E+02  0.51100000000E-03 0.  1.
        -12    1    3    3    0    0  0.30874775024E+01 -0.35591890853E+02 -0.71058370849E+01  0.36425377589E+02  0.00000000000E+00 0.  1.
</event>
<event>
 7    1  0.1205909E-011  0.5930191E+02  0.7816164E-02  0.1266605E+00
        -11   -1    0    0    0    0  0.00000000000E+00  0.00000000000E+00  0.45593999997E+02  0.45594000000E+02  0.51100000000E-03 0.  1.
         11   -1    0    0    0    0 -0.00000000000E+00 -0.00000000000E+00 -0.45593999997E+02  0.45594000000E+02  0.51100000000E-03 0. -1.
    9900012    2    1    2    0    0 -0.69843541211E+01 -0.12296175853E+02  0.28578759708E+02  0.59301911348E+02  0.49999940400E+02 0.  0.
         12    1    1    2    0    0  0.69843541211E+01  0.12296175853E+02 -0.28578759708E+02  0.31886088652E+02  0.00000000000E+00 0. -1.
         11    1    3    3    0    0 -0.20545866002E+02 -0.31955442978E+01  0.14103014315E+02  0.25124472655E+02  0.51100000000E-03 0. -1.
        -11    1    3    3    0    0  0.89127408502E-01 -0.74202646387E+01  0.18569120268E+02  0.19997012246E+02  0.51100000000E-03 0.  1.
         12    1    3    3    0    0  0.13472384473E+02 -0.16803669166E+01 -0.40933748747E+01  0.14180426447E+02  0.00000000000E+00 0. -1.
</event>
<event>
 7    1  0.1205909E-011  0.5930195E+02  0.7816164E-02  0.1266605E+00
        -11   -1    0    0    0    0  0.00000000000E+00  0.00000000000E+00  0.45593999997E+02  0.45594000000E+02  0.51100000000E-03 0.  1.
         11   -1    0    0    0    0 -0.00000000000E+00 -0.00000000000E+00 -0.45593999997E+02  0.45594000000E+02  0.51100000000E-03 0. -1.
    9900012    2    1    2    0    0 -0.19399078110E+02 -0.22753199892E+02 -0.11076453408E+02  0.59301950433E+02  0.50000011682E+02 0.  0.
         12    1    1    2    0    0  0.19399078110E+02  0.22753199892E+02  0.11076453408E+02  0.31886049567E+02  0.00000000000E+00 0. -1.
         11    1    3    3    0    0 -0.21912042778E+02 -0.31037937191E+01 -0.12725224412E+02  0.25528464324E+02  0.51100000000E-03 0. -1.
        -11    1    3    3    0    0 -0.76910323706E+01  0.33232087931E+01 -0.12461717692E+01  0.84704568913E+01  0.51100000000E-03 0.  1.
        -12    1    3    3    0    0  0.10203997039E+02 -0.22972614966E+02  0.28949427722E+01  0.25303029218E+02  0.00000000000E+00 0.  1.
</event>
<event>
 7    1  0.1205909E-011  0.5930196E+02  0.7816164E-02  0.1266605E+00
        -11   -1    0    0    0    0  0.00000000000E+00  0.00000000000E+00  0.45593999997E+02  0.45594000000E+02  0.51100000000E-03 0.  1.
         11   -1    0    0    0    0 -0.00000000000E+00 -0.00000000000E+00 -0.45593999997E+02  0.45594000000E+02  0.51100000000E-03 0. -1.
    9900012    2    1    2    0    0 -0.20835695528E+02  0.20084261956E+02  0.13387160694E+02  0.59301955123E+02  0.50000020235E+02 0.  0.
         12    1    1    2    0    0  0.20835695528E+02 -0.20084261956E+02 -0.13387160694E+02  0.31886044877E+02  0.00000000000E+00 0. -1.
         11    1    3    3    0    0 -0.69590990722E+01 -0.52688274027E+01  0.71561421655E+01  0.11287159654E+02  0.51100000000E-03 0. -1.
        -11    1    3    3    0    0 -0.17297729409E+02  0.24461033118E+02  0.18524024849E+02  0.35223473434E+02  0.51100000000E-03 0.  1.
         12    1    3    3    0    0  0.34211329534E+01  0.89205624093E+00 -0.12293006320E+02  0.12791322035E+02  0.00000000000E+00 0. -1.
</event>
<event>
 7    1  0.1205909E-011  0.5930204E+02  0.7816164E-02  0.1266604E+00
        -11   -1    0    0    0    0  0.00000000000E+00  0.00000000000E+00  0.45593999997E+02  0.45594000000E+02  0.51100000000E-03 0. -1.
         11   -1    0    0    0    0 -0.00000000000E+00 -0.00000000000E+00 -0.45593999997E+02  0.45594000000E+02  0.51100000000E-03 0.  1.
    9900012    2    1    2    0    0  0.30492737961E+02 -0.89359194282E+01  0.26565080433E+01  0.59302035072E+02  0.50000166043E+02 0.  0.
         12    1    1    2    0    0 -0.30492737961E+02  0.89359194282E+01 -0.26565080433E+01  0.31885964928E+02  0.00000000000E+00 0. -1.
         11    1    3    3    0    0  0.40267382240E+01  0.10978890612E+02 -0.31453727205E+01  0.12109666784E+02  0.51100000000E-03 0. -1.
        -11    1    3    3    0    0  0.19177195357E+02  0.15526020482E+01  0.13213743498E+02  0.23340488692E+02  0.51100000000E-03 0.  1.
        -12    1    3    3    0    0  0.72888043800E+01 -0.21467412088E+02 -0.74118627346E+01  0.23851879596E+02  0.00000000000E+00 0.  1.
</event>
<event>
 7    1  0.1205909E-011  0.5930197E+02  0.7816164E-02  0.1266605E+00
        -11   -1    0    0    0    0  0.00000000000E+00  0.00000000000E+00  0.45593999997E+02  0.45594000000E+02  0.51100000000E-03 0.  1.
         11   -1    0    0    0    0 -0.00000000000E+00 -0.00000000000E+00 -0.45593999997E+02  0.45594000000E+02  0.51100000000E-03 0. -1.
    9900012    2    1    2    0    0 -0.31055075413E+02  0.47805793539E+01 -0.54265221178E+01  0.59301971866E+02  0.50000050770E+02 0.  0.
         12    1    1    2    0    0  0.31055075413E+02 -0.47805793539E+01  0.54265221178E+01  0.31886028134E+02  0.00000000000E+00 0. -1.
         11    1    3    3    0    0 -0.20020337571E+01  0.11589669363E+02  0.75488896997E+00  0.11785517924E+02  0.51100000000E-03 0. -1.
        -11    1    3    3    0    0  0.44496777847E+01 -0.12305466924E+02 -0.50821331628E+00  0.13095129997E+02  0.51100000000E-03 0.  1.
        -12    1    3    3    0    0 -0.33502719441E+02  0.54963769148E+01 -0.56731977715E+01  0.34421323944E+02  0.00000000000E+00 0.  1.
</event>
<event>
 7    1  0.1205909E-011  0.5930193E+02  0.7816164E-02  0.1266605E+00
        -11   -1    0    0    0    0  0.00000000000E+00  0.00000000000E+00  0.45593999997E+02  0.45594000000E+02  0.51100000000E-03 0.  1.
         11   -1    0    0    0    0 -0.00000000000E+00 -0.00000000000E+00 -0.45593999997E+02  0.45594000000E+02  0.51100000000E-03 0. -1.
    9900012    2    1    2    0    0 -0.17897671402E+02 -0.18022088862E+02 -0.19276911123E+02  0.59301927320E+02  0.49999969528E+02 0.  0.
         12    1    1    2    0    0  0.17897671402E+02  0.18022088862E+02  0.19276911123E+02  0.31886072680E+02  0.00000000000E+00 0. -1.
         11    1    3    3    0    0  0.12869095835E+02 -0.71692756702E+01  0.22288701537E+01  0.14898993378E+02  0.51100000000E-03 0. -1.
        -11    1    3    3    0    0  0.26673207595E+01  0.16654535669E+01 -0.18669879548E+01  0.36570452420E+01  0.51100000000E-03 0.  1.
         12    1    3    3    0    0 -0.33434087996E+02 -0.12518266758E+02 -0.19638793322E+02  0.40745888700E+02  0.00000000000E+00 0. -1.
</event>
<event>
 7    1  0.1205909E-011  0.5930192E+02  0.7816164E-02  0.1266605E+00
        -11   -1    0    0    0    0  0.00000000000E+00  0.00000000000E+00  0.45593999997E+02  0.45594000000E+02  0.51100000000E-03 0. -1.
         11   -1    0    0    0    0 -0.00000000000E+00 -0.00000000000E+00 -0.45593999997E+02  0.45594000000E+02  0.51100000000E-03 0.  1.
    9900012    2    1    2    0    0 -0.84296521417E+01 -0.28721351869E+02 -0.10988490153E+02  0.59301921466E+02  0.49999958852E+02 0.  0.
         12    1    1    2    0    0  0.84296521417E+01  0.28721351869E+02  0.10988490153E+02  0.31886078534E+02  0.00000000000E+00 0. -1.
         11    1    3    3    0    0 -0.76397935005E+01 -0.18200390691E+02  0.43537507634E+01  0.20213258322E+02  0.51100000000E-03 0. -1.
        -11    1    3    3    0    0 -0.38410845793E+01 -0.10539569307E+02  0.91074599908E+01  0.14449300318E+02  0.51100000000E-03 0.  1.
        -12    1    3    3    0    0  0.30512259382E+01  0.18608128767E-01 -0.24449700908E+02  0.24639362826E+02  0.00000000000E+00 0.  1.
</event>
<event>
 7    1  0.1205909E-011  0.5930198E+02  0.7816164E-02  0.1266605E+00
        -11   -1    0    0    0    0  0.00000000000E+00  0.00000000000E+00  0.45593999997E+02  0.45594000000E+02  0.51100000000E-03 0. -1.
         11   -1    0    0    0    0 -0.00000000000E+00 -0.00000000000E+00 -0.45593999997E+02  0.45594000000E+02  0.51100000000E-03 0.  1.
    9900012    2    1    2    0    0  0.27724596629E+01 -0.12861736675E+02 -0.29044917214E+02  0.59301983961E+02  0.50000072829E+02 0.  0.
         12    1    1    2    0    0 -0.27724596629E+01  0.12861736675E+02  0.29044917214E+02  0.31886016039E+02  0.00000000000E+00 0. -1.
         11    1    3    3    0    0 -0.16808651007E+01 -0.12476227095E+02 -0.37680889404E+01  0.13140777928E+02  0.51100000000E-03 0. -1.
        -11    1    3    3    0    0  0.62129716525E+01 -0.19286697956E+01  0.93856664875E+01  0.11419786321E+02  0.51100000000E-03 0.  1.
        -12    1    3    3    0    0 -0.17596468889E+01  0.15431602156E+01 -0.34662494761E+02  0.34741419713E+02  0.00000000000E+00 0.  1.
</event>
<event>
 7    1  0.1205909E-011  0.5930187E+02  0.7816164E-02  0.1266605E+00
        -11   -1    0    0    0    0  0.00000000000E+00  0.00000000000E+00  0.45593999997E+02  0.45594000000E+02  0.51100000000E-03 0. -1.
         11   -1    0    0    0    0 -0.00000000000E+00 -0.00000000000E+00 -0.45593999997E+02  0.45594000000E+02  0.51100000000E-03 0.  1.
    9900012    2    1    2    0    0  0.57658209204E+01 -0.21326549806E+02 -0.22992576228E+02  0.59301874818E+02  0.49999873778E+02 0.  0.
         12    1    1    2    0    0 -0.57658209204E+01  0.21326549806E+02  0.22992576228E+02  0.31886125182E+02  0.00000000000E+00 0. -1.
         11    1    3    3    0    0  0.12270125773E+02  0.64576127426E+01  0.50043549856E+01  0.14741109792E+02  0.51100000000E-03 0. -1.
        -11    1    3    3    0    0  0.15039059341E+01 -0.25330069304E+02 -0.25117543385E+02  0.35703853153E+02  0.51100000000E-03 0.  1.
        -12    1    3    3    0    0 -0.80082107867E+01 -0.24540932444E+01 -0.28793878285E+01  0.88569118729E+01  0.00000000000E+00 0.  1.
</event>
<event>
 7    1  0.1205909E-011  0.5930195E+02  0.7816164E-02  0.1266605E+00
        -11   -1    0    0    0    0  0.00000000000E+00  0.00000000000E+00  0.45593999997E+02  0.45594000000E+02  0.51100000000E-03 0.  1.
         11   -1    0    0    0    0 -0.00000000000E+00 -0.00000000000E+00 -0.45593999997E+02  0.45594000000E+02  0.51100000000E-03 0. -1.
    9900012    2    1    2    0    0 -0.24250706605E+02 -0.24870772515E+01 -0.20553293447E+02  0.59301949827E+02  0.50000010577E+02 0.  0.
         12    1    1    2    0    0  0.24250706605E+02  0.24870772515E+01  0.20553293447E+02  0.31886050173E+02  0.00000000000E+00 0. -1.
         11    1    3    3    0    0 -0.11425190228E+02  0.12002436345E+02 -0.11490588203E+02  0.20164996094E+02  0.51100000000E-03 0. -1.
        -11    1    3    3    0    0  0.85933843288E+01  0.69704584579E+00  0.43457905739E+01  0.96549481152E+01  0.51100000000E-03 0.  1.
         12    1    3    3    0    0 -0.21418900706E+02 -0.15186559442E+02 -0.13408495818E+02  0.29482005618E+02  0.00000000000E+00 0. -1.
</event>
<event>
 7    1  0.1205909E-011  0.5930195E+02  0.7816164E-02  0.1266605E+00
        -11   -1    0    0    0    0  0.00000000000E+00  0.00000000000E+00  0.45593999997E+02  0.45594000000E+02  0.51100000000E-03 0.  1.
         11   -1    0    0    0    0 -0.00000000000E+00 -0.00000000000E+00 -0.45593999997E+02  0.45594000000E+02  0.51100000000E-03 0. -1.
    9900012    2    1    2    0    0  0.30578872293E+02 -0.90276603526E+01 -0.39273628898E+00  0.59301947815E+02  0.50000006908E+02 0.  0.
         12    1    1    2    0    0 -0.30578872293E+02  0.90276603526E+01  0.39273628898E+00  0.31886052185E+02  0.00000000000E+00 0. -1.
         11    1    3    3    0    0  0.19588259512E+02 -0.59801220432E+01  0.13157751543E+02  0.24343134479E+02  0.51100000000E-03 0. -1.
        -11    1    3    3    0    0  0.15177172519E+02 -0.47590992267E+01  0.43547224428E+01  0.16491185492E+02  0.51100000000E-03 0.  1.
         12    1    3    3    0    0 -0.41865597376E+01  0.17115609174E+01 -0.17905210275E+02  0.18467627844E+02  0.00000000000E+00 0. -1.
</event>
<event>
 7    1  0.1205909E-011  0.5930195E+02  0.7816164E-02  0.1266605E+00
        -11   -1    0    0    0    0  0.00000000000E+00  0.00000000000E+00  0.45593999997E+02  0.45594000000E+02  0.51100000000E-03 0.  1.
         11   -1    0    0    0    0 -0.00000000000E+00 -0.00000000000E+00 -0.45593999997E+02  0.45594000000E+02  0.51100000000E-03 0. -1.
    9900012    2    1    2    0    0  0.57479975971E+01 -0.14095271078E+01  0.31331992799E+02  0.59301952647E+02  0.50000015720E+02 0.  0.
         12    1    1    2    0    0 -0.57479975971E+01  0.14095271078E+01 -0.31331992799E+02  0.31886047353E+02  0.00000000000E+00 0. -1.
         11    1    3    3    0    0  0.94910438903E+01  0.12025606428E+01  0.19132847749E+02  0.21391398493E+02  0.51100000000E-03 0. -1.
        -11    1    3    3    0    0  0.82053690934E+01  0.89424301579E+01  0.16743176720E+02  0.20679195004E+02  0.51100000000E-03 0.  1.
         12    1    3    3    0    0 -0.11948415387E+02 -0.11554517908E+02 -0.45440316700E+01  0.17231359150E+02  0.00000000000E+00 0. -1.
</event>
<event>
 7    1  0.1205909E-011  0.5930196E+02  0.7816164E-02  0.1266605E+00
        -11   -1    0    0    0    0  0.00000000000E+00  0.00000000000E+00  0.45593999997E+02  0.45594000000E+02  0.51100000000E-03 0. -1.
         11   -1    0    0    0    0 -0.00000000000E+00 -0.00000000000E+00 -0.45593999997E+02  0.45594000000E+02  0.51100000000E-03 0.  1.
    9900012    2    1    2    0    0 -0.11128317919E+02 -0.26841470683E+02 -0.13130703895E+02  0.59301962414E+02  0.50000033533E+02 0.  0.
         12    1    1    2    0    0  0.11128317919E+02  0.26841470683E+02  0.13130703895E+02  0.31886037586E+02  0.00000000000E+00 0. -1.
         11    1    3    3    0    0 -0.66205817370E+01 -0.20103167894E+02  0.19174375854E+01  0.21251965299E+02  0.51100000000E-03 0. -1.
        -11    1    3    3    0    0 -0.12755610000E+01 -0.44142932842E+01  0.10883949528E+02  0.11814118615E+02  0.51100000000E-03 0.  1.
        -12    1    3    3    0    0 -0.32321751817E+01 -0.23240095046E+01 -0.25932091009E+02  0.26235878500E+02  0.00000000000E+00 0.  1.
</event>
<event>
 7    1  0.1205909E-011  0.5930194E+02  0.7816164E-02  0.1266605E+00
        -11   -1    0    0    0    0  0.00000000000E+00  0.00000000000E+00  0.45593999997E+02  0.45594000000E+02  0.51100000000E-03 0. -1.
         11   -1    0    0    0    0 -0.00000000000E+00 -0.00000000000E+00 -0.45593999997E+02  0.45594000000E+02  0.51100000000E-03 0.  1.
    9900012    2    1    2    0    0  0.59888713604E+01  0.23830665674E+02 -0.20321258178E+02  0.59301941282E+02  0.49999994993E+02 0.  0.
         12    1    1    2    0    0 -0.59888713604E+01 -0.23830665674E+02  0.20321258178E+02  0.31886058718E+02  0.00000000000E+00 0. -1.
         11    1    3    3    0    0 -0.86300781560E+00 -0.12428789648E+01 -0.20928989079E+01  0.25825872126E+01  0.51100000000E-03 0. -1.
        -11    1    3    3    0    0 -0.34726132678E+01 -0.23673901055E+01 -0.26040500028E+02  0.26377475633E+02  0.51100000000E-03 0.  1.
        -12    1    3    3    0    0  0.10324492444E+02  0.27440934744E+02  0.78121407577E+01  0.30341878437E+02  0.00000000000E+00 0.  1.
</event>
<event>
 7    1  0.1205909E-011  0.5930193E+02  0.7816164E-02  0.1266605E+00
        -11   -1    0    0    0    0  0.00000000000E+00  0.00000000000E+00  0.45593999997E+02  0.45594000000E+02  0.51100000000E-03 0.  1.
         11   -1    0    0    0    0 -0.00000000000E+00 -0.00000000000E+00 -0.45593999997E+02  0.45594000000E+02  0.51100000000E-03 0. -1.
    9900012    2    1    2    0    0  0.21930981858E+02  0.64829970455E+01  0.22219901245E+02  0.59301933650E+02  0.49999981073E+02 0.  0.
         12    1    1    2    0    0 -0.21930981858E+02 -0.64829970455E+01 -0.22219901245E+02  0.31886066350E+02  0.00000000000E+00 0. -1.
         11    1    3    3    0    0  0.10511414024E+02  0.21810708621E+01  0.84099327492E+01  0.13637223471E+02  0.51100000000E-03 0. -1.
        -11    1    3    3    0    0  0.26140314724E+02  0.81459052478E+01  0.42814739881E+01  0.27712864268E+02  0.51100000000E-03 0.  1.
         12    1    3    3    0    0 -0.14720746890E+02 -0.38439790644E+01  0.95284945079E+01  0.17951845911E+02  0.00000000000E+00 0. -1.
</event>
<event>
 7    1  0.1205909E-011  0.5930195E+02  0.7816164E-02  0.1266605E+00
        -11   -1    0    0    0    0  0.00000000000E+00  0.00000000000E+00  0.45593999997E+02  0.45594000000E+02  0.51100000000E-03 0.  1.
         11   -1    0    0    0    0 -0.00000000000E+00 -0.00000000000E+00 -0.45593999997E+02  0.45594000000E+02  0.51100000000E-03 0. -1.
    9900012    2    1    2    0    0  0.96636777692E+01  0.75320884577E+01  0.29438092675E+02  0.59301947800E+02  0.50000006879E+02 0.  0.
         12    1    1    2    0    0 -0.96636777692E+01 -0.75320884577E+01 -0.29438092675E+02  0.31886052200E+02  0.00000000000E+00 0. -1.
         11    1    3    3    0    0  0.46882950274E+01 -0.13719034379E+02  0.81118402817E+01  0.16613066170E+02  0.51100000000E-03 0. -1.
        -11    1    3    3    0    0  0.11040954035E+02  0.27390394197E+01 -0.27651550858E+01  0.11706881987E+02  0.51100000000E-03 0.  1.
        -12    1    3    3    0    0 -0.60655712932E+01  0.18512083417E+02  0.24091407479E+02  0.30981999643E+02  0.00000000000E+00 0.  1.
</event>
<event>
 7    1  0.1205909E-011  0.5930194E+02  0.7816164E-02  0.1266605E+00
        -11   -1    0    0    0    0  0.00000000000E+00  0.00000000000E+00  0.45593999997E+02  0.45594000000E+02  0.51100000000E-03 0.  1.
         11   -1    0    0    0    0 -0.00000000000E+00 -0.00000000000E+00 -0.45593999997E+02  0.45594000000E+02  0.51100000000E-03 0. -1.
    9900012    2    1    2    0    0  0.13294892637E+02 -0.14455083307E+02  0.25120060923E+02  0.59301936203E+02  0.49999985730E+02 0.  0.
         12    1    1    2    0    0 -0.13294892637E+02  0.14455083307E+02 -0.25120060923E+02  0.31886063797E+02  0.00000000000E+00 0. -1.
         11    1    3    3    0    0  0.44699600086E+01  0.12144189671E+02  0.55141385840E+01  0.14066542213E+02  0.51100000000E-03 0. -1.
        -11    1    3    3    0    0  0.29920021685E+01 -0.85154237172E+00 -0.70578844321E+01  0.77130366462E+01  0.51100000000E-03 0.  1.
        -12    1    3    3    0    0  0.58329304600E+01 -0.25747730607E+02  0.26663806771E+02  0.37522357344E+02  0.00000000000E+00 0.  1.
</event>
<event>
 7    1  0.1205909E-011  0.5930192E+02  0.7816164E-02  0.1266605E+00
        -11   -1    0    0    0    0  0.00000000000E+00  0.00000000000E+00  0.45593999997E+02  0.45594000000E+02  0.51100000000E-03 0.  1.
         11   -1    0    0    0    0 -0.00000000000E+00 -0.00000000000E+00 -0.45593999997E+02  0.45594000000E+02  0.51100000000E-03 0. -1.
    9900012    2    1    2    0    0 -0.17873007058E+02  0.19946933227E+01  0.26330567672E+02  0.59301921899E+02  0.49999959642E+02 0.  0.
         12    1    1    2    0    0  0.17873007058E+02 -0.19946933227E+01 -0.26330567672E+02  0.31886078101E+02  0.00000000000E+00 0. -1.
         11    1    3    3    0    0 -0.11493518911E+02 -0.33218109667E+01  0.12801230784E+01  0.12032211784E+02  0.51100000000E-03 0. -1.
        -11    1    3    3    0    0 -0.58234553251E+01 -0.16639363542E+02  0.14866154196E+02  0.23060433470E+02  0.51100000000E-03 0.  1.
         12    1    3    3    0    0 -0.55603282131E+00  0.21955867832E+02  0.10184290398E+02  0.24209276644E+02  0.00000000000E+00 0. -1.
</event>
<event>
 7    1  0.1519746E-011  0.5930193E+02  0.7816164E-02  0.1266605E+00
        -11   -1    0    0    0    0  0.00000000000E+00  0.00000000000E+00  0.45593999997E+02  0.45594000000E+02  0.51100000000E-03 0. -1.
         11   -1    0    0    0    0 -0.00000000000E+00 -0.00000000000E+00 -0.45593999997E+02  0.45594000000E+02  0.51100000000E-03 0.  1.
    9900012    2    1    2    0    0 -0.15996954212E+02  0.24203934603E+02 -0.13228329331E+02  0.59301926375E+02  0.49999967805E+02 0.  0.
         12    1    1    2    0    0  0.15996954212E+02 -0.24203934603E+02  0.13228329331E+02  0.31886073625E+02  0.00000000000E+00 0. -1.
         11    1    3    3    0    0 -0.44305317818E+01 -0.49252631947E+01  0.11422633039E+02  0.13204710341E+02  0.51100000000E-03 0. -1.
        -11    1    3    3    0    0  0.62281531030E+01  0.75955692200E+01 -0.11786051922E+02  0.15342541609E+02  0.51100000000E-03 0.  1.
        -12    1    3    3    0    0 -0.17794575533E+02  0.21533628578E+02 -0.12864910448E+02  0.30754674425E+02  0.00000000000E+00 0.  1.
</event>
<event>
 7    1  0.1205909E-011  0.5930196E+02  0.7816164E-02  0.1266605E+00
        -11   -1    0    0    0    0  0.00000000000E+00  0.00000000000E+00  0.45593999997E+02  0.45594000000E+02  0.51100000000E-03 0.  1.
         11   -1    0    0    0    0 -0.00000000000E+00 -0.00000000000E+00 -0.45593999997E+02  0.45594000000E+02  0.51100000000E-03 0. -1.
    9900012    2    1    2    0    0 -0.67602411795E+01 -0.15832058847E+02  0.26839613919E+02  0.59301955663E+02  0.50000021220E+02 0.  0.
         12    1    1    2    0    0  0.67602411795E+01  0.15832058847E+02 -0.26839613919E+02  0.31886044337E+02  0.00000000000E+00 0. -1.
         11    1    3    3    0    0 -0.13366739628E+01 -0.21386378206E+02  0.13402541155E+02  0.25274334408E+02  0.51100000000E-03 0. -1.
        -11    1    3    3    0    0 -0.44752035900E+01 -0.67076922292E+01  0.18916613800E+02  0.20563532287E+02  0.51100000000E-03 0.  1.
         12    1    3    3    0    0 -0.94836362673E+00  0.12262011588E+02 -0.54795410367E+01  0.13464088968E+02  0.00000000000E+00 0. -1.
</event>
<event>
 7    1  0.1205909E-011  0.5930197E+02  0.7816164E-02  0.1266605E+00
        -11   -1    0    0    0    0  0.00000000000E+00  0.00000000000E+00  0.45593999997E+02  0.45594000000E+02  0.51100000000E-03 0.  1.
         11   -1    0    0    0    0 -0.00000000000E+00 -0.00000000000E+00 -0.45593999997E+02  0.45594000000E+02  0.51100000000E-03 0. -1.
    9900012    2    1    2    0    0  0.21212691637E+02  0.22399540412E+02  0.80623133806E+01  0.59301974939E+02  0.50000056375E+02 0.  0.
         12    1    1    2    0    0 -0.21212691637E+02 -0.22399540412E+02 -0.80623133806E+01  0.31886025061E+02  0.00000000000E+00 0. -1.
         11    1    3    3    0    0  0.17915455611E+01  0.15721539044E+02  0.17502959228E+01  0.15919797784E+02  0.51100000000E-03 0. -1.
        -11    1    3    3    0    0  0.80481328250E+01  0.21883963524E+02  0.71098211864E+01  0.24376830374E+02  0.51100000000E-03 0.  1.
         12    1    3    3    0    0  0.11373013251E+02 -0.15205962156E+02 -0.79780372864E+00  0.19005346782E+02  0.00000000000E+00 0. -1.
</event>
<event>
 7    1  0.1205909E-011  0.5930207E+02  0.7816164E-02  0.1266604E+00
        -11   -1    0    0    0    0  0.00000000000E+00  0.00000000000E+00  0.45593999997E+02  0.45594000000E+02  0.51100000000E-03 0. -1.
         11   -1    0    0    0    0 -0.00000000000E+00 -0.00000000000E+00 -0.45593999997E+02  0.45594000000E+02  0.51100000000E-03 0.  1.
    9900012    2    1    2    0    0  0.34373433632E+01  0.23337622172E+02 -0.21453504574E+02  0.59302065851E+02  0.50000222176E+02 0.  0.
         12    1    1    2    0    0 -0.34373433632E+01 -0.23337622172E+02  0.21453504574E+02  0.31885934149E+02  0.00000000000E+00 0. -1.
         11    1    3    3    0    0  0.23236644282E+01  0.29301573932E+01  0.39844195089E+01  0.54645070965E+01  0.51100000000E-03 0. -1.
        -11    1    3    3    0    0  0.18678951639E+02  0.43537897082E+01 -0.24257757006E+00  0.19181177318E+02  0.51100000000E-03 0.  1.
        -12    1    3    3    0    0 -0.17565272704E+02  0.16053675070E+02 -0.25195346513E+02  0.34656381437E+02  0.00000000000E+00 0.  1.
</event>
<event>
 7    1  0.1205909E-011  0.5930194E+02  0.7816164E-02  0.1266605E+00
        -11   -1    0    0    0    0  0.00000000000E+00  0.00000000000E+00  0.45593999997E+02  0.45594000000E+02  0.51100000000E-03 0. -1.
         11   -1    0    0    0    0 -0.00000000000E+00 -0.00000000000E+00 -0.45593999997E+02  0.45594000000E+02  0.51100000000E-03 0.  1.
    9900012    2    1    2    0    0 -0.30719254334E+02  0.29382772184E+00 -0.85417723968E+01  0.59301940393E+02  0.49999993372E+02 0.  0.
         12    1    1    2    0    0  0.30719254334E+02 -0.29382772184E+00  0.85417723968E+01  0.31886059607E+02  0.00000000000E+00 0. -1.
         11    1    3    3    0    0  0.42353153045E+01  0.14138896164E+02 -0.80270609751E+01  0.16801190096E+02  0.51100000000E-03 0. -1.
        -11    1    3    3    0    0 -0.21283875697E+02 -0.37848419145E+01  0.85634727502E+01  0.23252128049E+02  0.51100000000E-03 0.  1.
        -12    1    3    3    0    0 -0.13670693941E+02 -0.10060226528E+02 -0.90781841718E+01  0.19248622249E+02  0.00000000000E+00 0.  1.
</event>
<event>
 7    1  0.1205909E-011  0.5930193E+02  0.7816164E-02  0.1266605E+00
        -11   -1    0    0    0    0  0.00000000000E+00  0.00000000000E+00  0.45593999997E+02  0.45594000000E+02  0.51100000000E-03 0. -1.
         11   -1    0    0    0    0 -0.00000000000E+00 -0.00000000000E+00 -0.45593999997E+02  0.45594000000E+02  0.51100000000E-03 0.  1.
    9900012    2    1    2    0    0 -0.27699419963E+02  0.11918152406E+02 -0.10364427640E+02  0.59301928066E+02  0.49999970890E+02 0.  0.
         12    1    1    2    0    0  0.27699419963E+02 -0.11918152406E+02  0.10364427640E+02  0.31886071934E+02  0.00000000000E+00 0. -1.
         11    1    3    3    0    0 -0.85979553001E+01  0.57800826180E+01 -0.11960471420E+02  0.15823623708E+02  0.51100000000E-03 0. -1.
        -11    1    3    3    0    0 -0.20483345053E+02  0.43277491105E+01 -0.15614815348E+02  0.26117413646E+02  0.51100000000E-03 0.  1.
         12    1    3    3    0    0  0.13818803905E+01  0.18103206777E+01  0.17210859129E+02  0.17360890712E+02  0.00000000000E+00 0. -1.
</event>
<event>
 7    1  0.1205909E-011  0.5930197E+02  0.7816164E-02  0.1266605E+00
        -11   -1    0    0    0    0  0.00000000000E+00  0.00000000000E+00  0.45593999997E+02  0.45594000000E+02  0.51100000000E-03 0. -1.
         11   -1    0    0    0    0 -0.00000000000E+00 -0.00000000000E+00 -0.45593999997E+02  0.45594000000E+02  0.51100000000E-03 0.  1.
    9900012    2    1    2    0    0 -0.19139363916E+02 -0.22682681111E+02  0.11657587512E+02  0.59301974533E+02  0.50000055635E+02 0.  0.
         12    1    1    2    0    0  0.19139363916E+02  0.22682681111E+02 -0.11657587512E+02  0.31886025467E+02  0.00000000000E+00 0. -1.
         11    1    3    3    0    0 -0.22187327937E+02 -0.64321804926E+01  0.41717421251E+01  0.23474537258E+02  0.51100000000E-03 0. -1.
        -11    1    3    3    0    0  0.52362220374E+01 -0.25243705841E+02  0.55084544781E+01  0.26362962216E+02  0.51100000000E-03 0.  1.
         12    1    3    3    0    0 -0.21882580158E+01  0.89932052229E+01  0.19773909084E+01  0.94644750584E+01  0.00000000000E+00 0. -1.
</event>
<event>
 7    1  0.1205909E-011  0.5930194E+02  0.7816164E-02  0.1266605E+00
        -11   -1    0    0    0    0  0.00000000000E+00  0.00000000000E+00  0.45593999997E+02  0.45594000000E+02  0.51100000000E-03 0.  1.
         11   -1    0    0    0    0 -0.00000000000E+00 -0.00000000000E+00 -0.45593999997E+02  0.45594000000E+02  0.51100000000E-03 0. -1.
    9900012    2    1    2    0    0 -0.13773293441E+02 -0.18280803001E+01  0.28699741457E+02  0.59301942710E+02  0.49999997596E+02 0.  0.
         12    1    1    2    0    0  0.13773293441E+02  0.18280803001E+01 -0.28699741457E+02  0.31886057290E+02  0.00000000000E+00 0. -1.
         11    1    3    3    0    0  0.23994558286E+01  0.16272221435E+02  0.11760871838E+02  0.20220303790E+02  0.51100000000E-03 0. -1.
        -11    1    3    3    0    0  0.11654996688E+01 -0.30101223512E+01  0.15737228043E+02  0.16064855205E+02  0.51100000000E-03 0.  1.
         12    1    3    3    0    0 -0.17338248939E+02 -0.15090179384E+02  0.12016415763E+01  0.23016783715E+02  0.00000000000E+00 0. -1.
</event>
<event>
 7    1  0.1205909E-011  0.5930194E+02  0.7816164E-02  0.1266605E+00
        -11   -1    0    0    0    0  0.00000000000E+00  0.00000000000E+00  0.45593999997E+02  0.45594000000E+02  0.51100000000E-03 0. -1.
         11   -1    0    0    0    0 -0.00000000000E+00 -0.00000000000E+00 -0.45593999997E+02  0.45594000000E+02  0.51100000000E-03 0.  1.
    9900012    2    1    2    0    0  0.13988387160E+02 -0.19977472168E+02  0.20541333263E+02  0.59301941263E+02  0.49999994958E+02 0.  0.
         12    1    1    2    0    0 -0.13988387160E+02  0.19977472168E+02 -0.20541333263E+02  0.31886058737E+02  0.00000000000E+00 0. -1.
         11    1    3    3    0    0  0.30330233981E+01  0.46052307527E+01  0.18337399687E+02  0.19148566755E+02  0.51100000000E-03 0. -1.
        -11    1    3    3    0    0 -0.58724211267E+01 -0.17804890005E+02  0.89796893124E+01  0.20787839195E+02  0.51100000000E-03 0.  1.
        -12    1    3    3    0    0  0.16827784889E+02 -0.67778129152E+01 -0.67757557363E+01  0.19365535313E+02  0.00000000000E+00 0.  1.
</event>
<event>
 7    1  0.1205909E-011  0.5930194E+02  0.7816164E-02  0.1266605E+00
        -11   -1    0    0    0    0  0.00000000000E+00  0.00000000000E+00  0.45593999997E+02  0.45594000000E+02  0.51100000000E-03 0.  1.
         11   -1    0    0    0    0 -0.00000000000E+00 -0.00000000000E+00 -0.45593999997E+02  0.45594000000E+02  0.51100000000E-03 0. -1.
    9900012    2    1    2    0    0  0.23825058622E+02  0.20962649565E+02  0.31072063540E+01  0.59301939935E+02  0.49999992536E+02 0.  0.
         12    1    1    2    0    0 -0.23825058622E+02 -0.20962649565E+02 -0.31072063540E+01  0.31886060065E+02  0.00000000000E+00 0. -1.
         11    1    3    3    0    0 -0.38721452624E+00 -0.34323021493E+01 -0.84127109715E+01  0.90941926131E+01  0.51100000000E-03 0. -1.
        -11    1    3    3    0    0  0.19698802366E+00  0.21905494013E+02 -0.28812227483E+01  0.22095042815E+02  0.51100000000E-03 0.  1.
        -12    1    3    3    0    0  0.24015285124E+02  0.24894577022E+01  0.14401140074E+02  0.28112704507E+02  0.00000000000E+00 0.  1.
</event>
<event>
 7    1  0.1205909E-011  0.5930195E+02  0.7816164E-02  0.1266605E+00
        -11   -1    0    0    0    0  0.00000000000E+00  0.00000000000E+00  0.45593999997E+02  0.45594000000E+02  0.51100000000E-03 0.  1.
         11   -1    0    0    0    0 -0.00000000000E+00 -0.00000000000E+00 -0.45593999997E+02  0.45594000000E+02  0.51100000000E-03 0. -1.
    9900012    2    1    2    0    0 -0.16890728095E+02 -0.11467645303E+01  0.27020515790E+02  0.59301952298E+02  0.50000015084E+02 0.  0.
         12    1    1    2    0    0  0.16890728095E+02  0.11467645303E+01 -0.27020515790E+02  0.31886047702E+02  0.00000000000E+00 0. -1.
         11    1    3    3    0    0 -0.81454708509E+01  0.13455915598E+02 -0.69282376387E+01  0.17187519804E+02  0.51100000000E-03 0. -1.
        -11    1    3    3    0    0  0.26136761559E+01 -0.44038757365E+01  0.25925617553E+00  0.51276347935E+01  0.51100000000E-03 0.  1.
         12    1    3    3    0    0 -0.11358933400E+02 -0.10198804392E+02  0.33689497253E+02  0.36986797701E+02  0.00000000000E+00 0. -1.
</event>
<event>
 7    1  0.1205909E-011  0.5930199E+02  0.7816164E-02  0.1266605E+00
        -11   -1    0    0    0    0  0.00000000000E+00  0.00000000000E+00  0.45593999997E+02  0.45594000000E+02  0.51100000000E-03 0.  1.
         11   -1    0    0    0    0 -0.00000000000E+00 -0.00000000000E+00 -0.45593999997E+02  0.45594000000E+02  0.51100000000E-03 0. -1.
    9900012    2    1    2    0    0 -0.18678300198E+02  0.71332312886E+01  0.24838587485E+02  0.59301994995E+02  0.50000092953E+02 0.  0.
         12    1    1    2    0    0  0.18678300198E+02 -0.71332312886E+01 -0.24838587485E+02  0.31886005005E+02  0.00000000000E+00 0. -1.
         11    1    3    3    0    0 -0.20931638589E+02  0.75418403452E+01 -0.17863973778E+00  0.22249601394E+02  0.51100000000E-03 0. -1.
        -11    1    3    3    0    0  0.36037973595E+01 -0.24942056561E+01 -0.51616885963E+01  0.67713696317E+01  0.51100000000E-03 0.  1.
        -12    1    3    3    0    0 -0.13504589691E+01  0.20855965995E+01  0.30178915819E+02  0.30281023969E+02  0.00000000000E+00 0.  1.
</event>
<event>
 7    1  0.1205909E-011  0.5930195E+02  0.7816164E-02  0.1266605E+00
        -11   -1    0    0    0    0  0.00000000000E+00  0.00000000000E+00  0.45593999997E+02  0.45594000000E+02  0.51100000000E-03 0.  1.
         11   -1    0    0    0    0 -0.00000000000E+00 -0.00000000000E+00 -0.45593999997E+02  0.45594000000E+02  0.51100000000E-03 0. -1.
    9900012    2    1    2    0    0 -0.78099263756E+01  0.28801554353E+02  0.11233695182E+02  0.59301946770E+02  0.50000005002E+02 0.  0.
         12    1    1    2    0    0  0.78099263756E+01 -0.28801554353E+02 -0.11233695182E+02  0.31886053230E+02  0.00000000000E+00 0. -1.
         11    1    3    3    0    0  0.90449396029E+01  0.53374803728E+01  0.95773177985E+01  0.14213537407E+02  0.51100000000E-03 0. -1.
        -11    1    3    3    0    0  0.29239883043E+01  0.12933552123E+02  0.14183919296E+02  0.19416746509E+02  0.51100000000E-03 0.  1.
        -12    1    3    3    0    0 -0.19778854283E+02  0.10530521857E+02 -0.12527541913E+02  0.25671662854E+02  0.00000000000E+00 0.  1.
</event>
<event>
 7    1  0.1205909E-011  0.5930196E+02  0.7816164E-02  0.1266605E+00
        -11   -1    0    0    0    0  0.00000000000E+00  0.00000000000E+00  0.45593999997E+02  0.45594000000E+02  0.51100000000E-03 0. -1.
         11   -1    0    0    0    0 -0.00000000000E+00 -0.00000000000E+00 -0.45593999997E+02  0.45594000000E+02  0.51100000000E-03 0.  1.
    9900012    2    1    2    0    0 -0.84766111474E+01 -0.23947726207E+02 -0.19271045990E+02  0.59301956962E+02  0.50000023590E+02 0.  0.
         12    1    1    2    0    0  0.84766111474E+01  0.23947726207E+02  0.19271045990E+02  0.31886043038E+02  0.00000000000E+00 0. -1.
         11    1    3    3    0    0 -0.18654570356E+02 -0.11655756854E+02 -0.60082054512E+01  0.22802372596E+02  0.51100000000E-03 0. -1.
        -11    1    3    3    0    0  0.12328707262E+02 -0.21146506771E+02 -0.12126203930E+02  0.27316965303E+02  0.51100000000E-03 0.  1.
         12    1    3    3    0    0 -0.21507480533E+01  0.88545374179E+01 -0.11366366090E+01  0.91826190629E+01  0.00000000000E+00 0. -1.
</event>
<event>
 7    1  0.1205909E-011  0.5930203E+02  0.7816164E-02  0.1266604E+00
        -11   -1    0    0    0    0  0.00000000000E+00  0.00000000000E+00  0.45593999997E+02  0.45594000000E+02  0.51100000000E-03 0.  1.
         11   -1    0    0    0    0 -0.00000000000E+00 -0.00000000000E+00 -0.45593999997E+02  0.45594000000E+02  0.51100000000E-03 0. -1.
    9900012    2    1    2    0    0  0.12312638347E+02 -0.18276268570E+02  0.23045428837E+02  0.59302033711E+02  0.50000163561E+02 0.  0.
         12    1    1    2    0    0 -0.12312638347E+02  0.18276268570E+02 -0.23045428837E+02  0.31885966289E+02  0.00000000000E+00 0. -1.
         11    1    3    3    0    0 -0.75988630057E+01 -0.25889427674E+02  0.95984613720E+01  0.28638010497E+02  0.51100000000E-03 0. -1.
        -11    1    3    3    0    0  0.55652985961E+01  0.15542996729E+01 -0.41885597064E+01  0.71366959170E+01  0.51100000000E-03 0.  1.
        -12    1    3    3    0    0  0.14346202756E+02  0.60588594312E+01  0.17635527171E+02  0.23527327297E+02  0.00000000000E+00 0.  1.
</event>
<event>
 7    1  0.1205909E-011  0.5930194E+02  0.7816164E-02  0.1266605E+00
        -11   -1    0    0    0    0  0.00000000000E+00  0.00000000000E+00  0.45593999997E+02  0.45594000000E+02  0.51100000000E-03 0.  1.
         11   -1    0    0    0    0 -0.00000000000E+00 -0.00000000000E+00 -0.45593999997E+02  0.45594000000E+02  0.51100000000E-03 0. -1.
    9900012    2    1    2    0    0 -0.19195103404E+02 -0.73951680996E+01  0.24363506739E+02  0.59301937739E+02  0.49999988530E+02 0.  0.
         12    1    1    2    0    0  0.19195103404E+02  0.73951680996E+01 -0.24363506739E+02  0.31886062261E+02  0.00000000000E+00 0. -1.
         11    1    3    3    0    0  0.14673175745E+01  0.42103876175E+01 -0.39854906087E+01  0.59803445058E+01  0.51100000000E-03 0. -1.
        -11    1    3    3    0    0 -0.18336718817E+02  0.10674752792E+02  0.20720964658E+02  0.29657106750E+02  0.51100000000E-03 0.  1.
        -12    1    3    3    0    0 -0.23257021612E+01 -0.22280308509E+02  0.76280326898E+01  0.23664486483E+02  0.00000000000E+00 0.  1.
</event>
<event>
 7    1  0.1205909E-011  0.5930196E+02  0.7816164E-02  0.1266605E+00
        -11   -1    0    0    0    0  0.00000000000E+00  0.00000000000E+00  0.45593999997E+02  0.45594000000E+02  0.51100000000E-03 0. -1.
         11   -1    0    0    0    0 -0.00000000000E+00 -0.00000000000E+00 -0.45593999997E+02  0.45594000000E+02  0.51100000000E-03 0.  1.
    9900012    2    1    2    0    0 -0.14135272467E+02 -0.42644051035E+00 -0.28578522094E+02  0.59301957532E+02  0.50000024628E+02 0.  0.
         12    1    1    2    0    0  0.14135272467E+02  0.42644051035E+00  0.28578522094E+02  0.31886042468E+02  0.00000000000E+00 0. -1.
         11    1    3    3    0    0 -0.51889731843E+01  0.48434032969E+00  0.15425402714E+01  0.54350215283E+01  0.51100000000E-03 0. -1.
        -11    1    3    3    0    0 -0.23949613511E+02  0.83906970307E+01 -0.24669372149E+02  0.35391605028E+02  0.51100000000E-03 0.  1.
         12    1    3    3    0    0  0.15003314229E+02 -0.93014778708E+01 -0.54516902162E+01  0.18475330975E+02  0.00000000000E+00 0. -1.
</event>
<event>
 7    1  0.1205909E-011  0.5930194E+02  0.7816164E-02  0.1266605E+00
        -11   -1    0    0    0    0  0.00000000000E+00  0.00000000000E+00  0.45593999997E+02  0.45594000000E+02  0.51100000000E-03 0.  1.
         11   -1    0    0    0    0 -0.00000000000E+00 -0.00000000000E+00 -0.45593999997E+02  0.45594000000E+02  0.51100000000E-03 0. -1.
    9900012    2    1    2    0    0 -0.13374553851E+02  0.27042114051E+02 -0.10323084978E+02  0.59301941816E+02  0.49999995966E+02 0.  0.
         12    1    1    2    0    0  0.13374553851E+02 -0.27042114051E+02  0.10323084978E+02  0.31886058184E+02  0.00000000000E+00 0. -1.
         11    1    3    3    0    0  0.78914757130E+01 -0.35732313219E+01 -0.11919341676E+01  0.87443740960E+01  0.51100000000E-03 0. -1.
        -11    1    3    3    0    0  0.32831696258E+01  0.24011232332E+02 -0.57924161313E+01  0.24917274446E+02  0.51100000000E-03 0.  1.
         12    1    3    3    0    0 -0.24549199190E+02  0.66041130408E+01 -0.33387346795E+01  0.25640293274E+02  0.00000000000E+00 0. -1.
</event>
<event>
 7    1  0.1205909E-011  0.5930197E+02  0.7816164E-02  0.1266605E+00
        -11   -1    0    0    0    0  0.00000000000E+00  0.00000000000E+00  0.45593999997E+02  0.45594000000E+02  0.51100000000E-03 0.  1.
         11   -1    0    0    0    0 -0.00000000000E+00 -0.00000000000E+00 -0.45593999997E+02  0.45594000000E+02  0.51100000000E-03 0. -1.
    9900012    2    1    2    0    0  0.69980644838E+01 -0.75012313531E+01  0.30190687302E+02  0.59301968919E+02  0.50000045395E+02 0.  0.
         12    1    1    2    0    0 -0.69980644838E+01  0.75012313531E+01 -0.30190687302E+02  0.31886031081E+02  0.00000000000E+00 0. -1.
         11    1    3    3    0    0 -0.27370919499E+01 -0.10660369427E+02  0.80093270138E+01  0.13611923748E+02  0.51100000000E-03 0. -1.
        -11    1    3    3    0    0 -0.13296915474E+02  0.90134640413E+01  0.72506249189E+01  0.17624473244E+02  0.51100000000E-03 0.  1.
        -12    1    3    3    0    0  0.23032071907E+02 -0.58543259675E+01  0.14930735370E+02  0.28065571927E+02  0.00000000000E+00 0.  1.
</event>
<event>
 7    1  0.1205909E-011  0.5930197E+02  0.7816164E-02  0.1266605E+00
        -11   -1    0    0    0    0  0.00000000000E+00  0.00000000000E+00  0.45593999997E+02  0.45594000000E+02  0.51100000000E-03 0. -1.
         11   -1    0    0    0    0 -0.00000000000E+00 -0.00000000000E+00 -0.45593999997E+02  0.45594000000E+02  0.51100000000E-03 0.  1.
    9900012    2    1    2    0    0  0.15311755078E+02 -0.26398193780E+02  0.92414583885E+01  0.59301968081E+02  0.50000043867E+02 0.  0.
         12    1    1    2    0    0 -0.15311755078E+02  0.26398193780E+02 -0.92414583885E+01  0.31886031919E+02  0.00000000000E+00 0. -1.
         11    1    3    3    0    0 -0.11078441565E+02 -0.12658183766E+02  0.40770844072E+01  0.17308497950E+02  0.51100000000E-03 0. -1.
        -11    1    3    3    0    0  0.58700604524E+01 -0.10778410652E+02 -0.10385265482E+02  0.16077483799E+02  0.51100000000E-03 0.  1.
         12    1    3    3    0    0  0.20520136191E+02 -0.29615993620E+01  0.15549639464E+02  0.25915986332E+02  0.00000000000E+00 0. -1.
</event>
<event>
 7    1  0.1205909E-011  0.5930191E+02  0.7816164E-02  0.1266605E+00
        -11   -1    0    0    0    0  0.00000000000E+00  0.00000000000E+00  0.45593999997E+02  0.45594000000E+02  0.51100000000E-03 0. -1.
         11   -1    0    0    0    0 -0.00000000000E+00 -0.00000000000E+00 -0.45593999997E+02  0.45594000000E+02  0.51100000000E-03 0.  1.
    9900012    2    1    2    0    0 -0.16619620618E+02 -0.23389577339E+02 -0.13908216828E+02  0.59301911922E+02  0.49999941447E+02 0.  0.
         12    1    1    2    0    0  0.16619620618E+02  0.23389577339E+02  0.13908216828E+02  0.31886088078E+02  0.00000000000E+00 0. -1.
         11    1    3    3    0    0 -0.21221986921E+02 -0.33795129284E+02 -0.76883695519E+01  0.40639814454E+02  0.51100000000E-03 0. -1.
        -11    1    3    3    0    0  0.10340129701E+01  0.15471097593E-01 -0.75280255035E+01  0.75987229466E+01  0.51100000000E-03 0.  1.
        -12    1    3    3    0    0  0.35683533327E+01  0.10390080848E+02  0.13081782271E+01  0.11063374522E+02  0.00000000000E+00 0.  1.
</event>
<event>
 7    1  0.1205909E-011  0.5930199E+02  0.7816164E-02  0.1266605E+00
        -11   -1    0    0    0    0  0.00000000000E+00  0.00000000000E+00  0.45593999997E+02  0.45594000000E+02  0.51100000000E-03 0.  1.
         11   -1    0    0    0    0 -0.00000000000E+00 -0.00000000000E+00 -0.45593999997E+02  0.45594000000E+02  0.51100000000E-03 0. -1.
    9900012    2    1    2    0    0 -0.18762910452E+02  0.86347475104E+01  0.24292219263E+02  0.59301990687E+02  0.50000085094E+02 0.  0.
         12    1    1    2    0    0  0.18762910452E+02 -0.86347475104E+01 -0.24292219263E+02  0.31886009313E+02  0.00000000000E+00 0. -1.
         11    1    3    3    0    0  0.55557987938E+01  0.21841710962E+00  0.17843952407E+02  0.18690137614E+02  0.51100000000E-03 0.  1.
        -11    1    3    3    0    0 -0.22750776191E+02  0.16229408877E+02 -0.31653194918E+01  0.28124913823E+02  0.51100000000E-03 0. -1.
         12    1    3    3    0    0 -0.15679330550E+01 -0.78130784767E+01  0.96135863481E+01  0.12486939250E+02  0.00000000000E+00 0. -1.
</event>
<event>
 7    1  0.1205909E-011  0.5930195E+02  0.7816164E-02  0.1266605E+00
        -11   -1    0    0    0    0  0.00000000000E+00  0.00000000000E+00  0.45593999997E+02  0.45594000000E+02  0.51100000000E-03 0.  1.
         11   -1    0    0    0    0 -0.00000000000E+00 -0.00000000000E+00 -0.45593999997E+02  0.45594000000E+02  0.51100000000E-03 0. -1.
    9900012    2    1    2    0    0 -0.17944169714E+02  0.17763459199E+01  0.26297745669E+02  0.59301951972E+02  0.50000014488E+02 0.  0.
         12    1    1    2    0    0  0.17944169714E+02 -0.17763459199E+01 -0.26297745669E+02  0.31886048028E+02  0.00000000000E+00 0. -1.
         11    1    3    3    0    0 -0.89715571970E+01  0.11843952084E+02  0.55114176178E+01  0.15847516017E+02  0.51100000000E-03 0. -1.
        -11    1    3    3    0    0 -0.16905441667E+02  0.58951654335E+01  0.27818230268E+01  0.18118649869E+02  0.51100000000E-03 0.  1.
        -12    1    3    3    0    0  0.79328291498E+01 -0.15962771597E+02  0.18004505025E+02  0.25335786086E+02  0.00000000000E+00 0.  1.
</event>
<event>
 7    1  0.1205909E-011  0.5930192E+02  0.7816164E-02  0.1266605E+00
        -11   -1    0    0    0    0  0.00000000000E+00  0.00000000000E+00  0.45593999997E+02  0.45594000000E+02  0.51100000000E-03 0. -1.
         11   -1    0    0    0    0 -0.00000000000E+00 -0.00000000000E+00 -0.45593999997E+02  0.45594000000E+02  0.51100000000E-03 0.  1.
    9900012    2    1    2    0    0 -0.15968605083E+02  0.14058863696E+02 -0.23750238514E+02  0.59301924259E+02  0.49999963946E+02 0.  0.
         12    1    1    2    0    0  0.15968605083E+02 -0.14058863696E+02  0.23750238514E+02  0.31886075741E+02  0.00000000000E+00 0. -1.
         11    1    3    3    0    0 -0.41754618769E+01 -0.36508990277E+01  0.48658116540E+01  0.73783242616E+01  0.51100000000E-03 0. -1.
        -11    1    3    3    0    0 -0.23437074453E+02  0.11487518879E+02 -0.77420109466E+01  0.27224956982E+02  0.51100000000E-03 0.  1.
        -12    1    3    3    0    0  0.11643931248E+02  0.62222438451E+01 -0.20874039221E+02  0.24698643015E+02  0.00000000000E+00 0.  1.
</event>
<event>
 7    1  0.1205909E-011  0.5930200E+02  0.7816164E-02  0.1266605E+00
        -11   -1    0    0    0    0  0.00000000000E+00  0.00000000000E+00  0.45593999997E+02  0.45594000000E+02  0.51100000000E-03 0. -1.
         11   -1    0    0    0    0 -0.00000000000E+00 -0.00000000000E+00 -0.45593999997E+02  0.45594000000E+02  0.51100000000E-03 0.  1.
    9900012    2    1    2    0    0  0.10584128373E+02 -0.24228687354E+02 -0.17823123842E+02  0.59302002951E+02  0.50000107462E+02 0.  0.
         12    1    1    2    0    0 -0.10584128373E+02  0.24228687354E+02  0.17823123842E+02  0.31885997049E+02  0.00000000000E+00 0. -1.
         11    1    3    3    0    0  0.14203751551E+02 -0.15501414417E+02  0.51470523541E+01  0.21645612840E+02  0.51100000000E-03 0. -1.
        -11    1    3    3    0    0  0.99696223413E+01 -0.12018051453E+02 -0.14498834378E+02  0.21308287799E+02  0.51100000000E-03 0.  1.
         12    1    3    3    0    0 -0.13589245519E+02  0.32907785155E+01 -0.84713418180E+01  0.16348102312E+02  0.00000000000E+00 0. -1.
</event>
<event>
 7    1  0.1205909E-011  0.5930193E+02  0.7816164E-02  0.1266605E+00
        -11   -1    0    0    0    0  0.00000000000E+00  0.00000000000E+00  0.45593999997E+02  0.45594000000E+02  0.51100000000E-03 0.  1.
         11   -1    0    0    0    0 -0.00000000000E+00 -0.00000000000E+00 -0.45593999997E+02  0.45594000000E+02  0.51100000000E-03 0. -1.
    9900012    2    1    2    0    0  0.19621773327E+02  0.24935063512E+02  0.31543530538E+01  0.59301932133E+02  0.49999978306E+02 0.  0.
         12    1    1    2    0    0 -0.19621773327E+02 -0.24935063512E+02 -0.31543530538E+01  0.31886067867E+02  0.00000000000E+00 0. -1.
         11    1    3    3    0    0 -0.26827234747E+01  0.53988437927E+01  0.47198509091E+01  0.76564686641E+01  0.51100000000E-03 0. -1.
        -11    1    3    3    0    0 -0.68797467410E+00  0.90351357409E+01  0.17685978842E+02  0.19872111988E+02  0.51100000000E-03 0.  1.
        -12    1    3    3    0    0  0.22992471476E+02  0.10501083978E+02 -0.19251476697E+02  0.31773351481E+02  0.00000000000E+00 0.  1.
</event>
<event>
 7    1  0.1205909E-011  0.5930189E+02  0.7816164E-02  0.1266605E+00
        -11   -1    0    0    0    0  0.00000000000E+00  0.00000000000E+00  0.45593999997E+02  0.45594000000E+02  0.51100000000E-03 0.  1.
         11   -1    0    0    0    0 -0.00000000000E+00 -0.00000000000E+00 -0.45593999997E+02  0.45594000000E+02  0.51100000000E-03 0. -1.
    9900012    2    1    2    0    0  0.25061648160E+02  0.16194338359E+02 -0.11241951613E+02  0.59301885790E+02  0.49999893788E+02 0.  0.
         12    1    1    2    0    0 -0.25061648160E+02 -0.16194338359E+02  0.11241951613E+02  0.31886114210E+02  0.00000000000E+00 0. -1.
         11    1    3    3    0    0  0.15941233008E+02  0.20570827183E+02 -0.84056657908E+01  0.27348437952E+02  0.51100000000E-03 0. -1.
        -11    1    3    3    0    0  0.10971187716E+02  0.36136769448E+01  0.10947195862E+02  0.15914355735E+02  0.51100000000E-03 0.  1.
         12    1    3    3    0    0 -0.18507725641E+01 -0.79901657689E+01 -0.13783481685E+02  0.16039092102E+02  0.00000000000E+00 0. -1.
</event>
<event>
 7    1  0.1205909E-011  0.5930194E+02  0.7816164E-02  0.1266605E+00
        -11   -1    0    0    0    0  0.00000000000E+00  0.00000000000E+00  0.45593999997E+02  0.45594000000E+02  0.51100000000E-03 0.  1.
         11   -1    0    0    0    0 -0.00000000000E+00 -0.00000000000E+00 -0.45593999997E+02  0.45594000000E+02  0.51100000000E-03 0. -1.
    9900012    2    1    2    0    0  0.90972848163E+01 -0.22682149074E+02  0.20481224932E+02  0.59301936392E+02  0.49999986075E+02 0.  0.
         12    1    1    2    0    0 -0.90972848163E+01  0.22682149074E+02 -0.20481224932E+02  0.31886063608E+02  0.00000000000E+00 0. -1.
         11    1    3    3    0    0 -0.28008944117E+01 -0.10472197668E+02  0.62753328548E+01  0.12525643145E+02  0.51100000000E-03 0. -1.
        -11    1    3    3    0    0  0.20462765793E+02 -0.93491697770E+01  0.24379328784E+02  0.33173535109E+02  0.51100000000E-03 0.  1.
         12    1    3    3    0    0 -0.85645865650E+01 -0.28607816292E+01 -0.10173436706E+02  0.13602758138E+02  0.00000000000E+00 0. -1.
</event>
<event>
 7    1  0.1205909E-011  0.5930193E+02  0.7816164E-02  0.1266605E+00
        -11   -1    0    0    0    0  0.00000000000E+00  0.00000000000E+00  0.45593999997E+02  0.45594000000E+02  0.51100000000E-03 0.  1.
         11   -1    0    0    0    0 -0.00000000000E+00 -0.00000000000E+00 -0.45593999997E+02  0.45594000000E+02  0.51100000000E-03 0. -1.
    9900012    2    1    2    0    0  0.18787433808E+02 -0.10053785472E+02  0.23720772628E+02  0.59301932110E+02  0.49999978265E+02 0.  0.
         12    1    1    2    0    0 -0.18787433808E+02  0.10053785472E+02 -0.23720772628E+02  0.31886067890E+02  0.00000000000E+00 0. -1.
         11    1    3    3    0    0  0.24902636639E+02 -0.15572315912E+02  0.16314342684E+02  0.33597561101E+02  0.51100000000E-03 0. -1.
        -11    1    3    3    0    0  0.70848280393E+01 -0.34783194832E+01 -0.44403493170E+00  0.79051035449E+01  0.51100000000E-03 0.  1.
        -12    1    3    3    0    0 -0.13200030870E+02  0.89968499230E+01  0.78504648755E+01  0.17799267465E+02  0.00000000000E+00 0.  1.
</event>
<event>
 7    1  0.1205909E-011  0.5930196E+02  0.7816164E-02  0.1266605E+00
        -11   -1    0    0    0    0  0.00000000000E+00  0.00000000000E+00  0.45593999997E+02  0.45594000000E+02  0.51100000000E-03 0.  1.
         11   -1    0    0    0    0 -0.00000000000E+00 -0.00000000000E+00 -0.45593999997E+02  0.45594000000E+02  0.51100000000E-03 0. -1.
    9900012    2    1    2    0    0 -0.23819493290E+01 -0.88634218022E+01  0.30536623521E+02  0.59301963797E+02  0.50000036055E+02 0.  0.
         12    1    1    2    0    0  0.23819493290E+01  0.88634218022E+01 -0.30536623521E+02  0.31886036203E+02  0.00000000000E+00 0. -1.
         11    1    3    3    0    0 -0.18495812645E+02 -0.27449022911E+01  0.91897930398E+01  0.20834631515E+02  0.51100000000E-03 0. -1.
        -11    1    3    3    0    0  0.87078760731E+01 -0.10367510752E+02  0.25576306962E+02  0.28938898786E+02  0.51100000000E-03 0.  1.
         12    1    3    3    0    0  0.74059872427E+01  0.42489912404E+01 -0.42294764806E+01  0.95284334967E+01  0.00000000000E+00 0. -1.
</event>
<event>
 7    1  0.1205909E-011  0.5930194E+02  0.7816164E-02  0.1266605E+00
        -11   -1    0    0    0    0  0.00000000000E+00  0.00000000000E+00  0.45593999997E+02  0.45594000000E+02  0.51100000000E-03 0.  1.
         11   -1    0    0    0    0 -0.00000000000E+00 -0.00000000000E+00 -0.45593999997E+02  0.45594000000E+02  0.51100000000E-03 0. -1.
    9900012    2    1    2    0    0  0.82993376943E+01 -0.25709195164E+02  0.16937498534E+02  0.59301943820E+02  0.49999999621E+02 0.  0.
         12    1    1    2    0    0 -0.82993376943E+01  0.25709195164E+02 -0.16937498534E+02  0.31886056180E+02  0.00000000000E+00 0. -1.
         11    1    3    3    0    0  0.23240576193E+01 -0.30642992219E+02  0.17619663428E+02  0.35423816219E+02  0.51100000000E-03 0. -1.
        -11    1    3    3    0    0  0.11684398841E+02 -0.47597517276E+01 -0.50974344744E+00  0.12626965250E+02  0.51100000000E-03 0.  1.
         12    1    3    3    0    0 -0.57091187660E+01  0.96935487825E+01 -0.17242144641E+00  0.11251162351E+02  0.00000000000E+00 0. -1.
</event>
<event>
 7    1  0.1205909E-011  0.5930194E+02  0.7816164E-02  0.1266605E+00
        -11   -1    0    0    0    0  0.00000000000E+00  0.00000000000E+00  0.45593999997E+02  0.45594000000E+02  0.51100000000E-03 0.  1.
         11   -1    0    0    0    0 -0.00000000000E+00 -0.00000000000E+00 -0.45593999997E+02  0.45594000000E+02  0.51100000000E-03 0. -1.
    9900012    2    1    2    0    0  0.20567248131E+02  0.23153883176E+02 -0.75898966662E+01  0.59301944533E+02  0.50000000921E+02 0.  0.
         12    1    1    2    0    0 -0.20567248131E+02 -0.23153883176E+02  0.75898966662E+01  0.31886055467E+02  0.00000000000E+00 0. -1.
         11    1    3    3    0    0  0.21658850415E+02  0.12571201712E+02 -0.11299689365E+01  0.25068261684E+02  0.51100000000E-03 0.  1.
        -11    1    3    3    0    0  0.14869350403E+02  0.20677866470E+01 -0.59137591789E+01  0.16135236934E+02  0.51100000000E-03 0. -1.
        -12    1    3    3    0    0 -0.15960952687E+02  0.85148948171E+01 -0.54616855078E+00  0.18098445914E+02  0.00000000000E+00 0.  1.
</event>
<event>
 7    1  0.1205909E-011  0.5930195E+02  0.7816164E-02  0.1266605E+00
        -11   -1    0    0    0    0  0.00000000000E+00  0.00000000000E+00  0.45593999997E+02  0.45594000000E+02  0.51100000000E-03 0. -1.
         11   -1    0    0    0    0 -0.00000000000E+00 -0.00000000000E+00 -0.45593999997E+02  0.45594000000E+02  0.51100000000E-03 0.  1.
    9900012    2    1    2    0    0  0.21913858187E+02 -0.16877025084E+02 -0.15864072127E+02  0.59301953824E+02  0.50000017865E+02 0.  0.
         12    1    1    2    0    0 -0.21913858187E+02  0.16877025084E+02  0.15864072127E+02  0.31886046176E+02  0.00000000000E+00 0. -1.
         11    1    3    3    0    0  0.11438435453E+02  0.18082570708E+01  0.72468924501E+01  0.13661077911E+02  0.51100000000E-03 0.  1.
        -11    1    3    3    0    0 -0.70163697259E+01 -0.11064899171E+02  0.28641737196E+01  0.13411373127E+02  0.51100000000E-03 0. -1.
        -12    1    3    3    0    0  0.17491792460E+02 -0.76203829837E+01 -0.25975138297E+02  0.32229502786E+02  0.00000000000E+00 0.  1.
</event>
<event>
 7    1  0.1205909E-011  0.5930193E+02  0.7816164E-02  0.1266605E+00
        -11   -1    0    0    0    0  0.00000000000E+00  0.00000000000E+00  0.45593999997E+02  0.45594000000E+02  0.51100000000E-03 0. -1.
         11   -1    0    0    0    0 -0.00000000000E+00 -0.00000000000E+00 -0.45593999997E+02  0.45594000000E+02  0.51100000000E-03 0.  1.
    9900012    2    1    2    0    0  0.28905291642E+02  0.11403322174E+02  0.71533067384E+01  0.59301930333E+02  0.49999975024E+02 0.  0.
         12    1    1    2    0    0 -0.28905291642E+02 -0.11403322174E+02 -0.71533067384E+01  0.31886069667E+02  0.00000000000E+00 0. -1.
         11    1    3    3    0    0  0.11589995669E+02  0.66324567724E+01 -0.75393643822E+01  0.15334911085E+02  0.51100000000E-03 0. -1.
        -11    1    3    3    0    0  0.34672514041E+01  0.21604210532E+01 -0.12602877171E+02  0.13248462729E+02  0.51100000000E-03 0.  1.
         12    1    3    3    0    0  0.13848044569E+02  0.26104443487E+01  0.27295548292E+02  0.30718556519E+02  0.00000000000E+00 0. -1.
</event>
<event>
 7    1  0.1205909E-011  0.5930197E+02  0.7816164E-02  0.1266605E+00
        -11   -1    0    0    0    0  0.00000000000E+00  0.00000000000E+00  0.45593999997E+02  0.45594000000E+02  0.51100000000E-03 0. -1.
         11   -1    0    0    0    0 -0.00000000000E+00 -0.00000000000E+00 -0.45593999997E+02  0.45594000000E+02  0.51100000000E-03 0.  1.
    9900012    2    1    2    0    0 -0.17030540162E+02  0.25258860178E+01 -0.26838391791E+02  0.59301973714E+02  0.50000054141E+02 0.  0.
         12    1    1    2    0    0  0.17030540162E+02 -0.25258860178E+01  0.26838391791E+02  0.31886026286E+02  0.00000000000E+00 0. -1.
         11    1    3    3    0    0 -0.19071473043E+02  0.17759723089E+02 -0.14177662927E+02  0.29667068857E+02  0.51100000000E-03 0. -1.
        -11    1    3    3    0    0 -0.33334426156E+01 -0.10243028358E+02 -0.17711372074E+02  0.20729789450E+02  0.51100000000E-03 0.  1.
        -12    1    3    3    0    0  0.53743754960E+01 -0.49908087132E+01  0.50506432102E+01  0.89051154075E+01  0.00000000000E+00 0.  1.
</event>
<event>
 7    1  0.1205909E-011  0.5930196E+02  0.7816164E-02  0.1266605E+00
        -11   -1    0    0    0    0  0.00000000000E+00  0.00000000000E+00  0.45593999997E+02  0.45594000000E+02  0.51100000000E-03 0. -1.
         11   -1    0    0    0    0 -0.00000000000E+00 -0.00000000000E+00 -0.45593999997E+02  0.45594000000E+02  0.51100000000E-03 0.  1.
    9900012    2    1    2    0    0 -0.19320403593E+02  0.24790549831E+02  0.53730906789E+01  0.59301961372E+02  0.50000031633E+02 0.  0.
         12    1    1    2    0    0  0.19320403593E+02 -0.24790549831E+02 -0.53730906789E+01  0.31886038628E+02  0.00000000000E+00 0. -1.
         11    1    3    3    0    0  0.51088335571E+01  0.59429014311E+01 -0.13112120573E+02  0.15275665744E+02  0.51100000000E-03 0. -1.
        -11    1    3    3    0    0 -0.84444563614E+01  0.20038933541E+02  0.33900076059E+01  0.22008176947E+02  0.51100000000E-03 0.  1.
         12    1    3    3    0    0 -0.15984780789E+02 -0.11912851419E+01  0.15095203646E+02  0.22018118681E+02  0.00000000000E+00 0. -1.
</event>
<event>
 7    1  0.1205909E-011  0.5930194E+02  0.7816164E-02  0.1266605E+00
        -11   -1    0    0    0    0  0.00000000000E+00  0.00000000000E+00  0.45593999997E+02  0.45594000000E+02  0.51100000000E-03 0.  1.
         11   -1    0    0    0    0 -0.00000000000E+00 -0.00000000000E+00 -0.45593999997E+02  0.45594000000E+02  0.51100000000E-03 0. -1.
    9900012    2    1    2    0    0  0.15864057384E+02  0.21395813962E+02  0.17529167927E+02  0.59301938782E+02  0.49999990433E+02 0.  0.
         12    1    1    2    0    0 -0.15864057384E+02 -0.21395813962E+02 -0.17529167927E+02  0.31886061218E+02  0.00000000000E+00 0. -1.
         11    1    3    3    0    0 -0.76706415591E+01  0.18510878334E+02  0.97713054354E+01  0.22292818772E+02  0.51100000000E-03 0. -1.
        -11    1    3    3    0    0 -0.34950037382E+01 -0.66339013466E+01  0.22423172157E+01  0.78263455688E+01  0.51100000000E-03 0.  1.
        -12    1    3    3    0    0  0.27029702682E+02  0.95188369741E+01  0.55155452763E+01  0.29182774441E+02  0.00000000000E+00 0.  1.
</event>
<event>
 7    1  0.1205909E-011  0.5930196E+02  0.7816164E-02  0.1266605E+00
        -11   -1    0    0    0    0  0.00000000000E+00  0.00000000000E+00  0.45593999997E+02  0.45594000000E+02  0.51100000000E-03 0. -1.
         11   -1    0    0    0    0 -0.00000000000E+00 -0.00000000000E+00 -0.45593999997E+02  0.45594000000E+02  0.51100000000E-03 0.  1.
    9900012    2    1    2    0    0  0.29929403987E+01  0.17277945990E+02 -0.26631451660E+02  0.59301963442E+02  0.50000035406E+02 0.  0.
         12    1    1    2    0    0 -0.29929403987E+01 -0.17277945990E+02  0.26631451660E+02  0.31886036558E+02  0.00000000000E+00 0. -1.
         11    1    3    3    0    0 -0.33011450134E+01 -0.51031691166E+00  0.18545039753E+01  0.38206239027E+01  0.51100000000E-03 0. -1.
        -11    1    3    3    0    0 -0.12460170985E+02 -0.84832229893E+01 -0.11811216680E+02  0.19150085456E+02  0.51100000000E-03 0.  1.
        -12    1    3    3    0    0  0.18754256397E+02  0.26271485891E+02 -0.16674738956E+02  0.36331254082E+02  0.00000000000E+00 0.  1.
</event>
<event>
 7    1  0.1205909E-011  0.5930195E+02  0.7816164E-02  0.1266605E+00
        -11   -1    0    0    0    0  0.00000000000E+00  0.00000000000E+00  0.45593999997E+02  0.45594000000E+02  0.51100000000E-03 0.  1.
         11   -1    0    0    0    0 -0.00000000000E+00 -0.00000000000E+00 -0.45593999997E+02  0.45594000000E+02  0.51100000000E-03 0. -1.
    9900012    2    1    2    0    0  0.22357858335E+02  0.20884518447E+01  0.22638129910E+02  0.59301946838E+02  0.50000005126E+02 0.  0.
         12    1    1    2    0    0 -0.22357858335E+02 -0.20884518447E+01 -0.22638129910E+02  0.31886053162E+02  0.00000000000E+00 0. -1.
         11    1    3    3    0    0  0.18100034755E+02  0.95679932980E+01 -0.68334270217E+01  0.21583639151E+02  0.51100000000E-03 0. -1.
        -11    1    3    3    0    0  0.13096694471E+02 -0.40191381465E+01  0.20508064233E+02  0.24662878509E+02  0.51100000000E-03 0.  1.
        -12    1    3    3    0    0 -0.88388708911E+01 -0.34604033068E+01  0.89634926983E+01  0.13055429178E+02  0.00000000000E+00 0.  1.
</event>
<event>
 7    1  0.1205909E-011  0.5930194E+02  0.7816164E-02  0.1266605E+00
        -11   -1    0    0    0    0  0.00000000000E+00  0.00000000000E+00  0.45593999997E+02  0.45594000000E+02  0.51100000000E-03 0.  1.
         11   -1    0    0    0    0 -0.00000000000E+00 -0.00000000000E+00 -0.45593999997E+02  0.45594000000E+02  0.51100000000E-03 0. -1.
    9900012    2    1    2    0    0  0.18527365127E+02  0.18841992985E+01  0.25882570371E+02  0.59301938554E+02  0.49999990017E+02 0.  0.
         12    1    1    2    0    0 -0.18527365127E+02 -0.18841992985E+01 -0.25882570371E+02  0.31886061446E+02  0.00000000000E+00 0. -1.
         11    1    3    3    0    0 -0.84388343155E+01 -0.37000946855E+01  0.27814868639E+01  0.96250347907E+01  0.51100000000E-03 0. -1.
        -11    1    3    3    0    0  0.24675057599E+01 -0.12971648977E+02  0.59596456783E+01  0.14486878157E+02  0.51100000000E-03 0.  1.
        -12    1    3    3    0    0  0.24498693682E+02  0.18555942961E+02  0.17141437829E+02  0.35190025606E+02  0.00000000000E+00 0.  1.
</event>
<event>
 7    1  0.1205909E-011  0.5930193E+02  0.7816164E-02  0.1266605E+00
        -11   -1    0    0    0    0  0.00000000000E+00  0.00000000000E+00  0.45593999997E+02  0.45594000000E+02  0.51100000000E-03 0.  1.
         11   -1    0    0    0    0 -0.00000000000E+00 -0.00000000000E+00 -0.45593999997E+02  0.45594000000E+02  0.51100000000E-03 0. -1.
    9900012    2    1    2    0    0  0.26854873816E+02 -0.83488324743E+01  0.15027783372E+02  0.59301928990E+02  0.49999972575E+02 0.  0.
         12    1    1    2    0    0 -0.26854873816E+02  0.83488324743E+01 -0.15027783372E+02  0.31886071010E+02  0.00000000000E+00 0. -1.
         11    1    3    3    0    0  0.11521204555E+02 -0.23027447970E+02  0.11520356196E+02  0.28208511509E+02  0.51100000000E-03 0. -1.
        -11    1    3    3    0    0 -0.52392369555E+01  0.58911881496E+01 -0.18321402647E+01  0.80939755312E+01  0.51100000000E-03 0.  1.
        -12    1    3    3    0    0  0.20572906216E+02  0.87874273463E+01  0.53395674405E+01  0.22999441950E+02  0.00000000000E+00 0.  1.
</event>
<event>
 7    1  0.1205909E-011  0.5930199E+02  0.7816164E-02  0.1266605E+00
        -11   -1    0    0    0    0  0.00000000000E+00  0.00000000000E+00  0.45593999997E+02  0.45594000000E+02  0.51100000000E-03 0.  1.
         11   -1    0    0    0    0 -0.00000000000E+00 -0.00000000000E+00 -0.45593999997E+02  0.45594000000E+02  0.51100000000E-03 0. -1.
    9900012    2    1    2    0    0  0.19852031002E+01 -0.21971409646E+01  0.31748219564E+02  0.59301985742E+02  0.50000076077E+02 0.  0.
         12    1    1    2    0    0 -0.19852031002E+01  0.21971409646E+01 -0.31748219564E+02  0.31886014258E+02  0.00000000000E+00 0. -1.
         11    1    3    3    0    0  0.16379430314E+02 -0.63645572610E+01  0.19822213257E+02  0.26489874768E+02  0.51100000000E-03 0.  1.
        -11    1    3    3    0    0 -0.84348981778E+01 -0.91130070064E+01 -0.21047986900E+01  0.12594625114E+02  0.51100000000E-03 0. -1.
         12    1    3    3    0    0 -0.59593290365E+01  0.13280423303E+02  0.14030804996E+02  0.20217485860E+02  0.00000000000E+00 0. -1.
</event>
<event>
 7    1  0.1205909E-011  0.5930197E+02  0.7816164E-02  0.1266605E+00
        -11   -1    0    0    0    0  0.00000000000E+00  0.00000000000E+00  0.45593999997E+02  0.45594000000E+02  0.51100000000E-03 0. -1.
         11   -1    0    0    0    0 -0.00000000000E+00 -0.00000000000E+00 -0.45593999997E+02  0.45594000000E+02  0.51100000000E-03 0.  1.
    9900012    2    1    2    0    0 -0.34239262697E+01  0.18624981752E+02 -0.25653568996E+02  0.59301971421E+02  0.50000049958E+02 0.  0.
         12    1    1    2    0    0  0.34239262697E+01 -0.18624981752E+02  0.25653568996E+02  0.31886028579E+02  0.00000000000E+00 0. -1.
         11    1    3    3    0    0 -0.93469270466E+00  0.60147262308E+01  0.89447624898E+01  0.10819397319E+02  0.51100000000E-03 0. -1.
        -11    1    3    3    0    0  0.53684720696E+01  0.20907558941E+02 -0.16895468226E+02  0.27411737633E+02  0.51100000000E-03 0.  1.
         12    1    3    3    0    0 -0.78577056347E+01 -0.82973034203E+01 -0.17702863260E+02  0.21070836468E+02  0.00000000000E+00 0. -1.
</event>
<event>
 7    1  0.1205909E-011  0.5930196E+02  0.7816164E-02  0.1266605E+00
        -11   -1    0    0    0    0  0.00000000000E+00  0.00000000000E+00  0.45593999997E+02  0.45594000000E+02  0.51100000000E-03 0.  1.
         11   -1    0    0    0    0 -0.00000000000E+00 -0.00000000000E+00 -0.45593999997E+02  0.45594000000E+02  0.51100000000E-03 0. -1.
    9900012    2    1    2    0    0 -0.26158308270E+02  0.96848623945E+01 -0.15448808866E+02  0.59301963141E+02  0.50000034858E+02 0.  0.
         12    1    1    2    0    0  0.26158308270E+02 -0.96848623945E+01  0.15448808866E+02  0.31886036859E+02  0.00000000000E+00 0. -1.
         11    1    3    3    0    0 -0.35331982571E+01  0.19017978022E+02  0.63361841165E+01  0.20354709711E+02  0.51100000000E-03 0. -1.
        -11    1    3    3    0    0 -0.21606191938E+02 -0.54791149063E+01 -0.65984894851E+01  0.23246253332E+02  0.51100000000E-03 0.  1.
        -12    1    3    3    0    0 -0.10189180749E+01 -0.38540007215E+01 -0.15186503498E+02  0.15701000098E+02  0.00000000000E+00 0.  1.
</event>
<event>
 7    1  0.1205909E-011  0.5930197E+02  0.7816164E-02  0.1266605E+00
        -11   -1    0    0    0    0  0.00000000000E+00  0.00000000000E+00  0.45593999997E+02  0.45594000000E+02  0.51100000000E-03 0.  1.
         11   -1    0    0    0    0 -0.00000000000E+00 -0.00000000000E+00 -0.45593999997E+02  0.45594000000E+02  0.51100000000E-03 0. -1.
    9900012    2    1    2    0    0  0.89924426453E+01  0.28451423475E+00  0.30590424059E+02  0.59301968306E+02  0.50000044278E+02 0.  0.
         12    1    1    2    0    0 -0.89924426453E+01 -0.28451423475E+00 -0.30590424059E+02  0.31886031694E+02  0.00000000000E+00 0. -1.
         11    1    3    3    0    0  0.54150168332E+01  0.24007775150E+02  0.14351574560E+02  0.28489706344E+02  0.51100000000E-03 0. -1.
        -11    1    3    3    0    0 -0.56712698177E+00  0.55863757443E+00  0.24638244175E+01  0.25892354034E+01  0.51100000000E-03 0.  1.
        -12    1    3    3    0    0  0.41445527939E+01 -0.24281898490E+02  0.13775025081E+02  0.28223026559E+02  0.00000000000E+00 0.  1.
</event>
<event>
 7    1  0.1205909E-011  0.5930196E+02  0.7816164E-02  0.1266605E+00
        -11   -1    0    0    0    0  0.00000000000E+00  0.00000000000E+00  0.45593999997E+02  0.45594000000E+02  0.51100000000E-03 0.  1.
         11   -1    0    0    0    0 -0.00000000000E+00 -0.00000000000E+00 -0.45593999997E+02  0.45594000000E+02  0.51100000000E-03 0. -1.
    9900012    2    1    2    0    0 -0.94874420950E+01 -0.29240028817E+02  0.84692808896E+01  0.59301959770E+02  0.50000028711E+02 0.  0.
         12    1    1    2    0    0  0.94874420950E+01  0.29240028817E+02 -0.84692808896E+01  0.31886040230E+02  0.00000000000E+00 0. -1.
         11    1    3    3    0    0  0.63104113712E+01 -0.14461959090E+02  0.27491662782E+01  0.16016474889E+02  0.51100000000E-03 0. -1.
        -11    1    3    3    0    0 -0.27306423207E+02 -0.13403497317E+02  0.80443740183E+01  0.31464367820E+02  0.51100000000E-03 0.  1.
         12    1    3    3    0    0  0.11508569741E+02 -0.13745724100E+01 -0.23242594069E+01  0.11821117061E+02  0.00000000000E+00 0. -1.
</event>
<event>
 7    1  0.1205909E-011  0.5930195E+02  0.7816164E-02  0.1266605E+00
        -11   -1    0    0    0    0  0.00000000000E+00  0.00000000000E+00  0.45593999997E+02  0.45594000000E+02  0.51100000000E-03 0.  1.
         11   -1    0    0    0    0 -0.00000000000E+00 -0.00000000000E+00 -0.45593999997E+02  0.45594000000E+02  0.51100000000E-03 0. -1.
    9900012    2    1    2    0    0 -0.17326877281E+02 -0.23869721503E+01  0.26660868382E+02  0.59301949520E+02  0.50000010016E+02 0.  0.
         12    1    1    2    0    0  0.17326877281E+02  0.23869721503E+01 -0.26660868382E+02  0.31886050480E+02  0.00000000000E+00 0. -1.
         11    1    3    3    0    0 -0.38594472410E+01 -0.51892633174E+01  0.34186389356E+01  0.73151130693E+01  0.51100000000E-03 0. -1.
        -11    1    3    3    0    0 -0.28164187028E+02 -0.64419831105E+01  0.11889442175E+02  0.31242269650E+02  0.51100000000E-03 0.  1.
         12    1    3    3    0    0  0.14696756989E+02  0.92442742776E+01  0.11352787272E+02  0.20744566801E+02  0.00000000000E+00 0. -1.
</event>
<event>
 7    1  0.1205909E-011  0.5930192E+02  0.7816164E-02  0.1266605E+00
        -11   -1    0    0    0    0  0.00000000000E+00  0.00000000000E+00  0.45593999997E+02  0.45594000000E+02  0.51100000000E-03 0.  1.
         11   -1    0    0    0    0 -0.00000000000E+00 -0.00000000000E+00 -0.45593999997E+02  0.45594000000E+02  0.51100000000E-03 0. -1.
    9900012    2    1    2    0    0  0.31022438607E+02 -0.62834818819E+00  0.73440739705E+01  0.59301922457E+02  0.49999960660E+02 0.  0.
         12    1    1    2    0    0 -0.31022438607E+02  0.62834818819E+00 -0.73440739705E+01  0.31886077543E+02  0.00000000000E+00 0. -1.
         11    1    3    3    0    0  0.28127261580E+02  0.55215588125E+01 -0.10094377584E+02  0.30389585631E+02  0.51100000000E-03 0. -1.
        -11    1    3    3    0    0  0.10583120988E+02  0.30224181785E+01  0.96098363785E+01  0.14611174387E+02  0.51100000000E-03 0.  1.
        -12    1    3    3    0    0 -0.76879439611E+01 -0.91723251792E+01  0.78286151757E+01  0.14301162439E+02  0.00000000000E+00 0.  1.
</event>
<event>
 7    1  0.1205909E-011  0.5930195E+02  0.7816164E-02  0.1266605E+00
        -11   -1    0    0    0    0  0.00000000000E+00  0.00000000000E+00  0.45593999997E+02  0.45594000000E+02  0.51100000000E-03 0.  1.
         11   -1    0    0    0    0 -0.00000000000E+00 -0.00000000000E+00 -0.45593999997E+02  0.45594000000E+02  0.51100000000E-03 0. -1.
    9900012    2    1    2    0    0  0.20217737783E+02 -0.24656737142E+02 -0.92889208338E-01  0.59301949195E+02  0.50000009424E+02 0.  0.
         12    1    1    2    0    0 -0.20217737783E+02  0.24656737142E+02  0.92889208338E-01  0.31886050805E+02  0.00000000000E+00 0. -1.
         11    1    3    3    0    0  0.14169780466E-02 -0.11340435732E+02 -0.39692480598E+01  0.12015007907E+02  0.51100000000E-03 0. -1.
        -11    1    3    3    0    0  0.70885356400E+01 -0.26382008019E+02 -0.31041902051E+01  0.27493520723E+02  0.51100000000E-03 0.  1.
        -12    1    3    3    0    0  0.13127785165E+02  0.13065706609E+02  0.69805490565E+01  0.19793420565E+02  0.00000000000E+00 0.  1.
</event>
<event>
 7    1  0.1205909E-011  0.5930194E+02  0.7816164E-02  0.1266605E+00
        -11   -1    0    0    0    0  0.00000000000E+00  0.00000000000E+00  0.45593999997E+02  0.45594000000E+02  0.51100000000E-03 0. -1.
         11   -1    0    0    0    0 -0.00000000000E+00 -0.00000000000E+00 -0.45593999997E+02  0.45594000000E+02  0.51100000000E-03 0.  1.
    9900012    2    1    2    0    0 -0.29186603224E+02  0.12615599173E+02 -0.23894548294E+01  0.59301942786E+02  0.49999997736E+02 0.  0.
         12    1    1    2    0    0  0.29186603224E+02 -0.12615599173E+02  0.23894548294E+01  0.31886057214E+02  0.00000000000E+00 0. -1.
         11    1    3    3    0    0  0.63965042166E+01 -0.24887710702E+01  0.19425673313E+01  0.71332191702E+01  0.51100000000E-03 0. -1.
        -11    1    3    3    0    0  0.69828285488E+01  0.18736126684E+01  0.90956086499E+00  0.72868113878E+01  0.51100000000E-03 0.  1.
        -12    1    3    3    0    0 -0.42565935989E+02  0.13230757575E+02 -0.52415830257E+01  0.44881912228E+02  0.00000000000E+00 0.  1.
</event>
<event>
 7    1  0.1205909E-011  0.5930196E+02  0.7816164E-02  0.1266605E+00
        -11   -1    0    0    0    0  0.00000000000E+00  0.00000000000E+00  0.45593999997E+02  0.45594000000E+02  0.51100000000E-03 0. -1.
         11   -1    0    0    0    0 -0.00000000000E+00 -0.00000000000E+00 -0.45593999997E+02  0.45594000000E+02  0.51100000000E-03 0.  1.
    9900012    2    1    2    0    0 -0.15679822243E+02  0.21839681794E+02 -0.17143243311E+02  0.59301963594E+02  0.50000035684E+02 0.  0.
         12    1    1    2    0    0  0.15679822243E+02 -0.21839681794E+02  0.17143243311E+02  0.31886036406E+02  0.00000000000E+00 0. -1.
         11    1    3    3    0    0  0.13432768374E+02  0.11677923351E+02 -0.68869950137E+01  0.19085173841E+02  0.51100000000E-03 0.  1.
        -11    1    3    3    0    0  0.19639739620E+01 -0.39850147012E+01 -0.28484391095E+01  0.52774180727E+01  0.51100000000E-03 0. -1.
         12    1    3    3    0    0 -0.31076564579E+02  0.14146773145E+02 -0.74078091880E+01  0.34939371680E+02  0.00000000000E+00 0. -1.
</event>
<event>
 7    1  0.1205909E-011  0.5930195E+02  0.7816164E-02  0.1266605E+00
        -11   -1    0    0    0    0  0.00000000000E+00  0.00000000000E+00  0.45593999997E+02  0.45594000000E+02  0.51100000000E-03 0. -1.
         11   -1    0    0    0    0 -0.00000000000E+00 -0.00000000000E+00 -0.45593999997E+02  0.45594000000E+02  0.51100000000E-03 0.  1.
    9900012    2    1    2    0    0  0.11773000631E+02  0.27734526916E+02 -0.10436117567E+02  0.59301951688E+02  0.50000013970E+02 0.  0.
         12    1    1    2    0    0 -0.11773000631E+02 -0.27734526916E+02  0.10436117567E+02  0.31886048312E+02  0.00000000000E+00 0. -1.
         11    1    3    3    0    0  0.88291110245E+01  0.27054329787E+01  0.29472665459E+00  0.92390168929E+01  0.51100000000E-03 0. -1.
        -11    1    3    3    0    0  0.77261565408E+01  0.35000522218E+02 -0.18697036781E+01  0.35891863180E+02  0.51100000000E-03 0.  1.
        -12    1    3    3    0    0 -0.47822669346E+01 -0.99714282808E+01 -0.88611405434E+01  0.14171071615E+02  0.00000000000E+00 0.  1.
</event>
<event>
 7    1  0.1205909E-011  0.5930189E+02  0.7816164E-02  0.1266605E+00
        -11   -1    0    0    0    0  0.00000000000E+00  0.00000000000E+00  0.45593999997E+02  0.45594000000E+02  0.51100000000E-03 0.  1.
         11   -1    0    0    0    0 -0.00000000000E+00 -0.00000000000E+00 -0.45593999997E+02  0.45594000000E+02  0.51100000000E-03 0. -1.
    9900012    2    1    2    0    0  0.90666470278E+01 -0.30000727884E+02 -0.58716740315E+01  0.59301885188E+02  0.49999892690E+02 0.  0.
         12    1    1    2    0    0 -0.90666470278E+01  0.30000727884E+02  0.58716740315E+01  0.31886114812E+02  0.00000000000E+00 0. -1.
         11    1    3    3    0    0  0.27260969854E+02 -0.16506473661E+02  0.18672359611E+01  0.31923513599E+02  0.51100000000E-03 0.  1.
        -11    1    3    3    0    0 -0.26985703419E+01 -0.54788523309E+01 -0.78323518783E+01  0.99320612644E+01  0.51100000000E-03 0. -1.
        -12    1    3    3    0    0 -0.15495752485E+02 -0.80154018915E+01  0.93441885679E-01  0.17446310324E+02  0.00000000000E+00 0.  1.
</event>
<event>
 7    1  0.1205909E-011  0.5930194E+02  0.7816164E-02  0.1266605E+00
        -11   -1    0    0    0    0  0.00000000000E+00  0.00000000000E+00  0.45593999997E+02  0.45594000000E+02  0.51100000000E-03 0. -1.
         11   -1    0    0    0    0 -0.00000000000E+00 -0.00000000000E+00 -0.45593999997E+02  0.45594000000E+02  0.51100000000E-03 0.  1.
    9900012    2    1    2    0    0 -0.16894633263E+02  0.75318851241E+01 -0.25972352978E+02  0.59301936495E+02  0.49999986263E+02 0.  0.
         12    1    1    2    0    0  0.16894633263E+02 -0.75318851241E+01  0.25972352978E+02  0.31886063505E+02  0.00000000000E+00 0. -1.
         11    1    3    3    0    0 -0.58815681395E+01  0.80667507329E+00 -0.25109460030E+02  0.25801716061E+02  0.51100000000E-03 0. -1.
        -11    1    3    3    0    0 -0.18076103409E+02  0.11261140234E+02 -0.77286029134E+01  0.22655906450E+02  0.51100000000E-03 0.  1.
        -12    1    3    3    0    0  0.70630382858E+01 -0.45359301835E+01  0.68657099652E+01  0.10844313984E+02  0.00000000000E+00 0.  1.
</event>
<event>
 7    1  0.1205909E-011  0.5930195E+02  0.7816164E-02  0.1266605E+00
        -11   -1    0    0    0    0  0.00000000000E+00  0.00000000000E+00  0.45593999997E+02  0.45594000000E+02  0.51100000000E-03 0.  1.
         11   -1    0    0    0    0 -0.00000000000E+00 -0.00000000000E+00 -0.45593999997E+02  0.45594000000E+02  0.51100000000E-03 0. -1.
    9900012    2    1    2    0    0  0.17223565478E+02  0.23825122229E+02  0.12346358996E+02  0.59301949171E+02  0.50000009380E+02 0.  0.
         12    1    1    2    0    0 -0.17223565478E+02 -0.23825122229E+02 -0.12346358996E+02  0.31886050829E+02  0.00000000000E+00 0. -1.
         11    1    3    3    0    0  0.90864490423E+01  0.51019435624E+01 -0.12059125562E+02  0.15937876079E+02  0.51100000000E-03 0. -1.
        -11    1    3    3    0    0  0.11025394095E+02 -0.21936529325E+01  0.20034619564E+00  0.11243289865E+02  0.51100000000E-03 0.  1.
        -12    1    3    3    0    0 -0.28882776589E+01  0.20916831599E+02  0.24205138363E+02  0.32120783227E+02  0.00000000000E+00 0.  1.
</event>
<event>
 7    1  0.1205909E-011  0.5930194E+02  0.7816164E-02  0.1266605E+00
        -11   -1    0    0    0    0  0.00000000000E+00  0.00000000000E+00  0.45593999997E+02  0.45594000000E+02  0.51100000000E-03 0.  1.
         11   -1    0    0    0    0 -0.00000000000E+00 -0.00000000000E+00 -0.45593999997E+02  0.45594000000E+02  0.51100000000E-03 0. -1.
    9900012    2    1    2    0    0  0.18395494106E+02 -0.25947237452E+02  0.22511397186E+01  0.59301937765E+02  0.49999988579E+02 0.  0.
         12    1    1    2    0    0 -0.18395494106E+02  0.25947237452E+02 -0.22511397186E+01  0.31886062235E+02  0.00000000000E+00 0. -1.
         11    1    3    3    0    0 -0.15413339741E+01  0.39978195088E+00 -0.21301145324E+01  0.26594969844E+01  0.51100000000E-03 0. -1.
        -11    1    3    3    0    0 -0.70356916925E+01 -0.28232726557E+02 -0.82286725595E+00  0.29107815398E+02  0.51100000000E-03 0.  1.
         12    1    3    3    0    0  0.26972519772E+02  0.18857071537E+01  0.52041215070E+01  0.27534625383E+02  0.00000000000E+00 0. -1.
</event>
<event>
 7    1  0.1205909E-011  0.5930192E+02  0.7816164E-02  0.1266605E+00
        -11   -1    0    0    0    0  0.00000000000E+00  0.00000000000E+00  0.45593999997E+02  0.45594000000E+02  0.51100000000E-03 0.  1.
         11   -1    0    0    0    0 -0.00000000000E+00 -0.00000000000E+00 -0.45593999997E+02  0.45594000000E+02  0.51100000000E-03 0. -1.
    9900012    2    1    2    0    0 -0.30654453346E+01 -0.10686644714E+01  0.31720388356E+02  0.59301920964E+02  0.49999957937E+02 0.  0.
         12    1    1    2    0    0  0.30654453346E+01  0.10686644714E+01 -0.31720388356E+02  0.31886079036E+02  0.00000000000E+00 0. -1.
         11    1    3    3    0    0 -0.94051924202E+01 -0.10424830636E+02  0.20430035365E+02  0.24789535767E+02  0.51100000000E-03 0. -1.
        -11    1    3    3    0    0  0.65574293845E-01 -0.11133686013E+02  0.29544788377E+01  0.11519210463E+02  0.51100000000E-03 0.  1.
         12    1    3    3    0    0  0.62741727917E+01  0.20489852177E+02  0.83358741531E+01  0.22993174734E+02  0.00000000000E+00 0. -1.
</event>
<event>
 7    1  0.1205909E-011  0.5930197E+02  0.7816164E-02  0.1266605E+00
        -11   -1    0    0    0    0  0.00000000000E+00  0.00000000000E+00  0.45593999997E+02  0.45594000000E+02  0.51100000000E-03 0.  1.
         11   -1    0    0    0    0 -0.00000000000E+00 -0.00000000000E+00 -0.45593999997E+02  0.45594000000E+02  0.51100000000E-03 0. -1.
    9900012    2    1    2    0    0 -0.22173686247E+01  0.31808117438E+02 -0.21453288598E+00  0.59301967275E+02  0.50000042397E+02 0.  0.
         12    1    1    2    0    0  0.22173686247E+01 -0.31808117438E+02  0.21453288598E+00  0.31886032725E+02  0.00000000000E+00 0. -1.
         11    1    3    3    0    0  0.11436598710E+02  0.11684817993E+02 -0.16003884609E+02  0.22879140815E+02  0.51100000000E-03 0. -1.
        -11    1    3    3    0    0  0.57995779127E+01  0.71796940414E+01  0.64471849998E+01  0.11258299391E+02  0.51100000000E-03 0.  1.
        -12    1    3    3    0    0 -0.19453545247E+02  0.12943605404E+02  0.93421667235E+01  0.25164527069E+02  0.00000000000E+00 0.  1.
</event>
<event>
 7    1  0.1205909E-011  0.5930194E+02  0.7816164E-02  0.1266605E+00
        -11   -1    0    0    0    0  0.00000000000E+00  0.00000000000E+00  0.45593999997E+02  0.45594000000E+02  0.51100000000E-03 0. -1.
         11   -1    0    0    0    0 -0.00000000000E+00 -0.00000000000E+00 -0.45593999997E+02  0.45594000000E+02  0.51100000000E-03 0.  1.
    9900012    2    1    2    0    0 -0.11959218962E+02 -0.26267476498E+02  0.13554237325E+02  0.59301943655E+02  0.49999999321E+02 0.  0.
         12    1    1    2    0    0  0.11959218962E+02  0.26267476498E+02 -0.13554237325E+02  0.31886056345E+02  0.00000000000E+00 0. -1.
         11    1    3    3    0    0 -0.74804365018E+01 -0.17700060910E+02  0.23520655077E+02  0.30372196200E+02  0.51100000000E-03 0. -1.
        -11    1    3    3    0    0  0.11788257864E+01 -0.27787774572E+01  0.83638667965E+01  0.88918784541E+01  0.51100000000E-03 0.  1.
        -12    1    3    3    0    0 -0.56576082465E+01 -0.57886381309E+01 -0.18330284549E+02  0.20037869001E+02  0.00000000000E+00 0.  1.
</event>
<event>
 7    1  0.1205909E-011  0.5930177E+02  0.7816164E-02  0.1266605E+00
        -11   -1    0    0    0    0  0.00000000000E+00  0.00000000000E+00  0.45593999997E+02  0.45594000000E+02  0.51100000000E-03 0.  1.
         11   -1    0    0    0    0 -0.00000000000E+00 -0.00000000000E+00 -0.45593999997E+02  0.45594000000E+02  0.51100000000E-03 0. -1.
    9900012    2    1    2    0    0  0.27989352507E+02 -0.12910413341E+02  0.81638759455E+01  0.59301772615E+02  0.49999687384E+02 0.  0.
         12    1    1    2    0    0 -0.27989352507E+02  0.12910413341E+02 -0.81638759455E+01  0.31886227385E+02  0.00000000000E+00 0. -1.
         11    1    3    3    0    0  0.25965009706E+02 -0.90983137323E+01  0.15805056201E+02  0.31729494852E+02  0.51100000000E-03 0. -1.
        -11    1    3    3    0    0  0.21839367493E+00 -0.94101527502E+01  0.70415762553E+01  0.11755103870E+02  0.51100000000E-03 0.  1.
         12    1    3    3    0    0  0.18059491263E+01  0.55980531416E+01 -0.14682756510E+02  0.15817173893E+02  0.00000000000E+00 0. -1.
</event>
<event>
 7    1  0.1205909E-011  0.5930192E+02  0.7816164E-02  0.1266605E+00
        -11   -1    0    0    0    0  0.00000000000E+00  0.00000000000E+00  0.45593999997E+02  0.45594000000E+02  0.51100000000E-03 0.  1.
         11   -1    0    0    0    0 -0.00000000000E+00 -0.00000000000E+00 -0.45593999997E+02  0.45594000000E+02  0.51100000000E-03 0. -1.
    9900012    2    1    2    0    0  0.21769545850E+02 -0.12546624829E+02  0.19631380365E+02  0.59301921280E+02  0.49999958513E+02 0.  0.
         12    1    1    2    0    0 -0.21769545850E+02  0.12546624829E+02 -0.19631380365E+02  0.31886078720E+02  0.00000000000E+00 0. -1.
         11    1    3    3    0    0  0.60919519973E+01  0.33057507120E+01 -0.84691303204E+01  0.10943766973E+02  0.51100000000E-03 0. -1.
        -11    1    3    3    0    0  0.18202227826E+02 -0.15338054461E+02  0.40197033433E+01  0.24139905296E+02  0.51100000000E-03 0.  1.
         12    1    3    3    0    0 -0.25246339739E+01 -0.51432108050E+00  0.24080807343E+02  0.24218249011E+02  0.00000000000E+00 0. -1.
</event>
<event>
 7    1  0.1205909E-011  0.5930194E+02  0.7816164E-02  0.1266605E+00
        -11   -1    0    0    0    0  0.00000000000E+00  0.00000000000E+00  0.45593999997E+02  0.45594000000E+02  0.51100000000E-03 0.  1.
         11   -1    0    0    0    0 -0.00000000000E+00 -0.00000000000E+00 -0.45593999997E+02  0.45594000000E+02  0.51100000000E-03 0. -1.
    9900012    2    1    2    0    0 -0.11343110630E+02 -0.29797935828E+02 -0.37116492064E+00  0.59301938754E+02  0.49999990382E+02 0.  0.
         12    1    1    2    0    0  0.11343110630E+02  0.29797935828E+02  0.37116492064E+00  0.31886061246E+02  0.00000000000E+00 0. -1.
         11    1    3    3    0    0  0.70131987674E+00 -0.83083758021E+01 -0.28198640636E+01  0.88018516027E+01  0.51100000000E-03 0. -1.
        -11    1    3    3    0    0 -0.22008792605E+02 -0.41831325456E+01 -0.12408395327E+02  0.25609643197E+02  0.51100000000E-03 0.  1.
         12    1    3    3    0    0  0.99643620977E+01 -0.17306427480E+02  0.14857094470E+02  0.24890443954E+02  0.00000000000E+00 0. -1.
</event>
<event>
 7    1  0.1205909E-011  0.5930197E+02  0.7816164E-02  0.1266605E+00
        -11   -1    0    0    0    0  0.00000000000E+00  0.00000000000E+00  0.45593999997E+02  0.45594000000E+02  0.51100000000E-03 0. -1.
         11   -1    0    0    0    0 -0.00000000000E+00 -0.00000000000E+00 -0.45593999997E+02  0.45594000000E+02  0.51100000000E-03 0.  1.
    9900012    2    1    2    0    0 -0.32255908209E+01 -0.14776560291E+02 -0.28070764907E+02  0.59301968377E+02  0.50000044407E+02 0.  0.
         12    1    1    2    0    0  0.32255908209E+01  0.14776560291E+02  0.28070764907E+02  0.31886031623E+02  0.00000000000E+00 0. -1.
         11    1    3    3    0    0  0.83957064209E+01  0.60093436729E+00 -0.18682651525E+02  0.20491229262E+02  0.51100000000E-03 0. -1.
        -11    1    3    3    0    0  0.79280567460E+01  0.44258837400E+01 -0.57486026079E+01  0.10746579123E+02  0.51100000000E-03 0.  1.
        -12    1    3    3    0    0 -0.19549353988E+02 -0.19803378399E+02 -0.36395107744E+01  0.28064159991E+02  0.00000000000E+00 0.  1.
</event>
<event>
 7    1  0.1205909E-011  0.5930199E+02  0.7816164E-02  0.1266605E+00
        -11   -1    0    0    0    0  0.00000000000E+00  0.00000000000E+00  0.45593999997E+02  0.45594000000E+02  0.51100000000E-03 0.  1.
         11   -1    0    0    0    0 -0.00000000000E+00 -0.00000000000E+00 -0.45593999997E+02  0.45594000000E+02  0.51100000000E-03 0. -1.
    9900012    2    1    2    0    0  0.24578211924E+00  0.26322348548E+02  0.17994193099E+02  0.59301993238E+02  0.50000089748E+02 0.  0.
         12    1    1    2    0    0 -0.24578211924E+00 -0.26322348548E+02 -0.17994193099E+02  0.31886006762E+02  0.00000000000E+00 0. -1.
         11    1    3    3    0    0  0.79049488977E+01  0.22421671052E+01 -0.14219170899E+00  0.82180136984E+01  0.51100000000E-03 0. -1.
        -11    1    3    3    0    0 -0.16023161088E+02 -0.16817772449E+01  0.17783052429E+02  0.23995979245E+02  0.51100000000E-03 0.  1.
         12    1    3    3    0    0  0.83639943099E+01  0.25761958687E+02  0.35333237968E+00  0.27088000295E+02  0.00000000000E+00 0. -1.
</event>
<event>
 7    1  0.1205909E-011  0.5930196E+02  0.7816164E-02  0.1266605E+00
        -11   -1    0    0    0    0  0.00000000000E+00  0.00000000000E+00  0.45593999997E+02  0.45594000000E+02  0.51100000000E-03 0.  1.
         11   -1    0    0    0    0 -0.00000000000E+00 -0.00000000000E+00 -0.45593999997E+02  0.45594000000E+02  0.51100000000E-03 0. -1.
    9900012    2    1    2    0    0  0.27790822164E+02 -0.13783693151E+02 -0.73756071960E+01  0.59301959560E+02  0.50000028326E+02 0.  0.
         12    1    1    2    0    0 -0.27790822164E+02  0.13783693151E+02  0.73756071960E+01  0.31886040440E+02  0.00000000000E+00 0. -1.
         11    1    3    3    0    0 -0.59164056306E+00 -0.32972024654E+01  0.87618147713E+00  0.34625535224E+01  0.51100000000E-03 0.  1.
        -11    1    3    3    0    0  0.27245424765E+01 -0.21551588839E+02 -0.15840308161E+02  0.26885116256E+02  0.51100000000E-03 0. -1.
        -12    1    3    3    0    0  0.25657920251E+02  0.11065098153E+02  0.75885194875E+01  0.28954289782E+02  0.00000000000E+00 0.  1.
</event>
<event>
 7    1  0.1205909E-011  0.5930194E+02  0.7816164E-02  0.1266605E+00
        -11   -1    0    0    0    0  0.00000000000E+00  0.00000000000E+00  0.45593999997E+02  0.45594000000E+02  0.51100000000E-03 0.  1.
         11   -1    0    0    0    0 -0.00000000000E+00 -0.00000000000E+00 -0.45593999997E+02  0.45594000000E+02  0.51100000000E-03 0. -1.
    9900012    2    1    2    0    0 -0.29758572191E+02 -0.90714166625E+01  0.69898412398E+01  0.59301935651E+02  0.49999984723E+02 0.  0.
         12    1    1    2    0    0  0.29758572191E+02  0.90714166625E+01 -0.69898412398E+01  0.31886064349E+02  0.00000000000E+00 0. -1.
         11    1    3    3    0    0 -0.16588132726E+02 -0.12411175625E+02  0.82404360087E+01  0.22295923699E+02  0.51100000000E-03 0. -1.
        -11    1    3    3    0    0 -0.15449832566E+02 -0.11065718766E+02  0.69967201531E+01  0.20250964207E+02  0.51100000000E-03 0.  1.
         12    1    3    3    0    0  0.22793931015E+01  0.14405477729E+02 -0.82473149221E+01  0.16755047745E+02  0.00000000000E+00 0. -1.
</event>
<event>
 7    1  0.1205909E-011  0.5930194E+02  0.7816164E-02  0.1266605E+00
        -11   -1    0    0    0    0  0.00000000000E+00  0.00000000000E+00  0.45593999997E+02  0.45594000000E+02  0.51100000000E-03 0.  1.
         11   -1    0    0    0    0 -0.00000000000E+00 -0.00000000000E+00 -0.45593999997E+02  0.45594000000E+02  0.51100000000E-03 0. -1.
    9900012    2    1    2    0    0  0.34412804253E+01  0.31199467427E+02  0.56099386145E+01  0.59301943644E+02  0.49999999299E+02 0.  0.
         12    1    1    2    0    0 -0.34412804253E+01 -0.31199467427E+02 -0.56099386145E+01  0.31886056356E+02  0.00000000000E+00 0. -1.
         11    1    3    3    0    0 -0.61788319051E+01 -0.56442630669E+00 -0.46101015127E+01  0.77297850543E+01  0.51100000000E-03 0. -1.
        -11    1    3    3    0    0 -0.39763816955E+01  0.15236006445E+02  0.22067913967E+02  0.27109782937E+02  0.51100000000E-03 0.  1.
         12    1    3    3    0    0  0.13596494026E+02  0.16527887289E+02 -0.11847873840E+02  0.24462375652E+02  0.00000000000E+00 0. -1.
</event>
<event>
 7    1  0.1205909E-011  0.5930170E+02  0.7816164E-02  0.1266606E+00
        -11   -1    0    0    0    0  0.00000000000E+00  0.00000000000E+00  0.45593999997E+02  0.45594000000E+02  0.51100000000E-03 0.  1.
         11   -1    0    0    0    0 -0.00000000000E+00 -0.00000000000E+00 -0.45593999997E+02  0.45594000000E+02  0.51100000000E-03 0. -1.
    9900012    2    1    2    0    0 -0.10239430635E+02 -0.22570362415E+02  0.20061625581E+02  0.59301701685E+02  0.49999558024E+02 0.  0.
         12    1    1    2    0    0  0.10239430635E+02  0.22570362415E+02 -0.20061625581E+02  0.31886298315E+02  0.00000000000E+00 0. -1.
         11    1    3    3    0    0  0.11042507835E+02  0.68044202804E+01 -0.60110895171E+01  0.14295814495E+02  0.51100000000E-03 0.  1.
        -11    1    3    3    0    0 -0.85685312765E+01 -0.12338305426E+02  0.75576208913E+01  0.16815800392E+02  0.51100000000E-03 0. -1.
        -12    1    3    3    0    0 -0.12713407193E+02 -0.17036477269E+02  0.18515094207E+02  0.28190086798E+02  0.00000000000E+00 0.  1.
</event>
<event>
 7    1  0.1205909E-011  0.5930194E+02  0.7816164E-02  0.1266605E+00
        -11   -1    0    0    0    0  0.00000000000E+00  0.00000000000E+00  0.45593999997E+02  0.45594000000E+02  0.51100000000E-03 0. -1.
         11   -1    0    0    0    0 -0.00000000000E+00 -0.00000000000E+00 -0.45593999997E+02  0.45594000000E+02  0.51100000000E-03 0.  1.
    9900012    2    1    2    0    0  0.20017772623E+02 -0.18754378964E+02 -0.16256785767E+02  0.59301936672E+02  0.49999986584E+02 0.  0.
         12    1    1    2    0    0 -0.20017772623E+02  0.18754378964E+02  0.16256785767E+02  0.31886063328E+02  0.00000000000E+00 0. -1.
         11    1    3    3    0    0 -0.34096769955E+00 -0.14129164963E+02  0.89828704740E+01  0.16746388379E+02  0.51100000000E-03 0. -1.
        -11    1    3    3    0    0  0.23845073149E+02  0.30174362339E+01 -0.11971107437E+02  0.26851440342E+02  0.51100000000E-03 0.  1.
         12    1    3    3    0    0 -0.34863328262E+01 -0.76426502354E+01 -0.13268548803E+02  0.15704107951E+02  0.00000000000E+00 0. -1.
</event>
<event>
 7    1  0.1205909E-011  0.5930196E+02  0.7816164E-02  0.1266605E+00
        -11   -1    0    0    0    0  0.00000000000E+00  0.00000000000E+00  0.45593999997E+02  0.45594000000E+02  0.51100000000E-03 0.  1.
         11   -1    0    0    0    0 -0.00000000000E+00 -0.00000000000E+00 -0.45593999997E+02  0.45594000000E+02  0.51100000000E-03 0. -1.
    9900012    2    1    2    0    0 -0.14563749114E+01 -0.17823107065E+02  0.26399533772E+02  0.59301959846E+02  0.50000028848E+02 0.  0.
         12    1    1    2    0    0  0.14563749114E+01  0.17823107065E+02 -0.26399533772E+02  0.31886040154E+02  0.00000000000E+00 0. -1.
         11    1    3    3    0    0 -0.72821148207E+01  0.49982353918E+01  0.51688471951E+01  0.10233696052E+02  0.51100000000E-03 0. -1.
        -11    1    3    3    0    0  0.72598063528E+01  0.93719141210E+01  0.75802518629E+01  0.14071168435E+02  0.51100000000E-03 0.  1.
        -12    1    3    3    0    0 -0.14340664435E+01 -0.32193256578E+02  0.13650434714E+02  0.34997095358E+02  0.00000000000E+00 0.  1.
</event>
<event>
 7    1  0.1205909E-011  0.5930189E+02  0.7816164E-02  0.1266605E+00
        -11   -1    0    0    0    0  0.00000000000E+00  0.00000000000E+00  0.45593999997E+02  0.45594000000E+02  0.51100000000E-03 0.  1.
         11   -1    0    0    0    0 -0.00000000000E+00 -0.00000000000E+00 -0.45593999997E+02  0.45594000000E+02  0.51100000000E-03 0. -1.
    9900012    2    1    2    0    0 -0.10300514654E+02  0.29941324854E+02 -0.37603748292E+01  0.59301890877E+02  0.49999903066E+02 0.  0.
         12    1    1    2    0    0  0.10300514654E+02 -0.29941324854E+02  0.37603748292E+01  0.31886109123E+02  0.00000000000E+00 0. -1.
         11    1    3    3    0    0 -0.61325155968E+00  0.20048875794E+02  0.33827180164E+00  0.20061104809E+02  0.51100000000E-03 0.  1.
        -11    1    3    3    0    0  0.78559978093E+00 -0.13344121735E+02  0.32983635280E+00  0.13371295531E+02  0.51100000000E-03 0. -1.
         12    1    3    3    0    0 -0.10472862875E+02  0.23236570795E+02 -0.44284829837E+01  0.25869490537E+02  0.00000000000E+00 0. -1.
</event>
<event>
 7    1  0.1205909E-011  0.5930194E+02  0.7816164E-02  0.1266605E+00
        -11   -1    0    0    0    0  0.00000000000E+00  0.00000000000E+00  0.45593999997E+02  0.45594000000E+02  0.51100000000E-03 0. -1.
         11   -1    0    0    0    0 -0.00000000000E+00 -0.00000000000E+00 -0.45593999997E+02  0.45594000000E+02  0.51100000000E-03 0.  1.
    9900012    2    1    2    0    0 -0.20755247780E+02  0.72452805351E+01 -0.23096463176E+02  0.59301937031E+02  0.49999987239E+02 0.  0.
         12    1    1    2    0    0  0.20755247780E+02 -0.72452805351E+01  0.23096463176E+02  0.31886062969E+02  0.00000000000E+00 0. -1.
         11    1    3    3    0    0  0.10793761423E+00 -0.16699926782E+01 -0.59911043807E+01  0.62204387333E+01  0.51100000000E-03 0. -1.
        -11    1    3    3    0    0  0.49193860925E+01 -0.13245041920E+01 -0.23968204329E+02  0.24503662785E+02  0.51100000000E-03 0.  1.
         12    1    3    3    0    0 -0.25782571486E+02  0.10239777405E+02  0.68628455329E+01  0.28577835512E+02  0.00000000000E+00 0. -1.
</event>
<event>
 7    1  0.1205909E-011  0.5930197E+02  0.7816164E-02  0.1266605E+00
        -11   -1    0    0    0    0  0.00000000000E+00  0.00000000000E+00  0.45593999997E+02  0.45594000000E+02  0.51100000000E-03 0. -1.
         11   -1    0    0    0    0 -0.00000000000E+00 -0.00000000000E+00 -0.45593999997E+02  0.45594000000E+02  0.51100000000E-03 0.  1.
    9900012    2    1    2    0    0 -0.31024672937E+01 -0.29806280300E+02  0.10893997855E+02  0.59301971118E+02  0.50000049406E+02 0.  0.
         12    1    1    2    0    0  0.31024672937E+01  0.29806280300E+02 -0.10893997855E+02  0.31886028882E+02  0.00000000000E+00 0. -1.
         11    1    3    3    0    0 -0.11262687358E+02 -0.11967521768E+02  0.78015203156E+01  0.18191575613E+02  0.51100000000E-03 0. -1.
        -11    1    3    3    0    0 -0.61058493223E+01  0.87683963915E+01 -0.56182986700E+00  0.10699617950E+02  0.51100000000E-03 0.  1.
        -12    1    3    3    0    0  0.14266069387E+02 -0.26607154923E+02  0.36543074060E+01  0.30410777555E+02  0.00000000000E+00 0.  1.
</event>
<event>
 7    1  0.1205909E-011  0.5930188E+02  0.7816164E-02  0.1266605E+00
        -11   -1    0    0    0    0  0.00000000000E+00  0.00000000000E+00  0.45593999997E+02  0.45594000000E+02  0.51100000000E-03 0.  1.
         11   -1    0    0    0    0 -0.00000000000E+00 -0.00000000000E+00 -0.45593999997E+02  0.45594000000E+02  0.51100000000E-03 0. -1.
    9900012    2    1    2    0    0 -0.69205061337E+01 -0.26799399585E+02  0.15831096834E+02  0.59301876840E+02  0.49999877465E+02 0.  0.
         12    1    1    2    0    0  0.69205061337E+01  0.26799399585E+02 -0.15831096834E+02  0.31886123160E+02  0.00000000000E+00 0. -1.
         11    1    3    3    0    0 -0.14209003497E+02  0.83527991109E+00  0.92843118537E+01  0.16993878891E+02  0.51100000000E-03 0. -1.
        -11    1    3    3    0    0 -0.27128346722E+01  0.54125088623E+01  0.48177993807E+01  0.77373067198E+01  0.51100000000E-03 0.  1.
         12    1    3    3    0    0  0.10001332035E+02 -0.33047188358E+02  0.17289855992E+01  0.34570691229E+02  0.00000000000E+00 0. -1.
</event>
<event>
 7    1  0.1205909E-011  0.5930202E+02  0.7816164E-02  0.1266604E+00
        -11   -1    0    0    0    0  0.00000000000E+00  0.00000000000E+00  0.45593999997E+02  0.45594000000E+02  0.51100000000E-03 0.  1.
         11   -1    0    0    0    0 -0.00000000000E+00 -0.00000000000E+00 -0.45593999997E+02  0.45594000000E+02  0.51100000000E-03 0. -1.
    9900012    2    1    2    0    0 -0.28594195300E+02  0.13983475337E+02  0.18841407506E+01  0.59302022302E+02  0.50000142754E+02 0.  0.
         12    1    1    2    0    0  0.28594195300E+02 -0.13983475337E+02 -0.18841407506E+01  0.31885977698E+02  0.00000000000E+00 0. -1.
         11    1    3    3    0    0  0.75023759227E+00  0.11571956775E+02  0.13119420820E+02  0.17509775640E+02  0.51100000000E-03 0. -1.
        -11    1    3    3    0    0 -0.14668842268E+02  0.59323297210E+01  0.76846116102E+01  0.17590358872E+02  0.51100000000E-03 0.  1.
         12    1    3    3    0    0 -0.14675590625E+02 -0.35208111592E+01 -0.18919891680E+02  0.24201887790E+02  0.00000000000E+00 0. -1.
</event>
<event>
 7    1  0.1205909E-011  0.5930195E+02  0.7816164E-02  0.1266605E+00
        -11   -1    0    0    0    0  0.00000000000E+00  0.00000000000E+00  0.45593999997E+02  0.45594000000E+02  0.51100000000E-03 0. -1.
         11   -1    0    0    0    0 -0.00000000000E+00 -0.00000000000E+00 -0.45593999997E+02  0.45594000000E+02  0.51100000000E-03 0.  1.
    9900012    2    1    2    0    0  0.24120390252E+02  0.50184267258E+01  0.20242096594E+02  0.59301948077E+02  0.50000007385E+02 0.  0.
         12    1    1    2    0    0 -0.24120390252E+02 -0.50184267258E+01 -0.20242096594E+02  0.31886051923E+02  0.00000000000E+00 0. -1.
         11    1    3    3    0    0 -0.12924726624E+01 -0.65733102651E+00  0.52493092536E+01  0.54458991510E+01  0.51100000000E-03 0. -1.
        -11    1    3    3    0    0  0.37043246063E+01 -0.54258963722E+01  0.26207241989E+02  0.27018177310E+02  0.51100000000E-03 0.  1.
        -12    1    3    3    0    0  0.21708538308E+02  0.11101654125E+02 -0.11214454649E+02  0.26837871616E+02  0.00000000000E+00 0.  1.
</event>
<event>
 7    1  0.1205909E-011  0.5930196E+02  0.7816164E-02  0.1266605E+00
        -11   -1    0    0    0    0  0.00000000000E+00  0.00000000000E+00  0.45593999997E+02  0.45594000000E+02  0.51100000000E-03 0.  1.
         11   -1    0    0    0    0 -0.00000000000E+00 -0.00000000000E+00 -0.45593999997E+02  0.45594000000E+02  0.51100000000E-03 0. -1.
    9900012    2    1    2    0    0  0.11284298409E+02  0.17106117188E+02  0.24428773671E+02  0.59301958871E+02  0.50000027071E+02 0.  0.
         12    1    1    2    0    0 -0.11284298409E+02 -0.17106117188E+02 -0.24428773671E+02  0.31886041129E+02  0.00000000000E+00 0. -1.
         11    1    3    3    0    0  0.12408371814E+02 -0.78356352233E+01 -0.47957160251E+01  0.15439033742E+02  0.51100000000E-03 0. -1.
        -11    1    3    3    0    0 -0.20154381925E+01  0.72068073744E+01 -0.21724611626E+01  0.77922815275E+01  0.51100000000E-03 0.  1.
        -12    1    3    3    0    0  0.89136478744E+00  0.17734945036E+02  0.31396950859E+02  0.36070643602E+02  0.00000000000E+00 0.  1.
</event>
<event>
 7    1  0.1205909E-011  0.5930233E+02  0.7816164E-02  0.1266603E+00
        -11   -1    0    0    0    0  0.00000000000E+00  0.00000000000E+00  0.45593999997E+02  0.45594000000E+02  0.51100000000E-03 0. -1.
         11   -1    0    0    0    0 -0.00000000000E+00 -0.00000000000E+00 -0.45593999997E+02  0.45594000000E+02  0.51100000000E-03 0.  1.
    9900012    2    1    2    0    0  0.19704973723E+02  0.10791091260E+02 -0.22626591007E+02  0.59302325151E+02  0.50000695072E+02 0.  0.
         12    1    1    2    0    0 -0.19704973723E+02 -0.10791091260E+02  0.22626591007E+02  0.31885674849E+02  0.00000000000E+00 0. -1.
         11    1    3    3    0    0 -0.95186135798E+01  0.95657125019E-01 -0.28461400014E+01  0.99354752244E+01  0.51100000000E-03 0. -1.
        -11    1    3    3    0    0 -0.30623749316E+01  0.71827450827E+01 -0.14493222712E+02  0.16462790529E+02  0.51100000000E-03 0.  1.
        -12    1    3    3    0    0  0.32285962235E+02  0.35126890526E+01 -0.52872282929E+01  0.32904059397E+02  0.00000000000E+00 0.  1.
</event>
<event>
 7    1  0.1205909E-011  0.5930198E+02  0.7816164E-02  0.1266605E+00
        -11   -1    0    0    0    0  0.00000000000E+00  0.00000000000E+00  0.45593999997E+02  0.45594000000E+02  0.51100000000E-03 0. -1.
         11   -1    0    0    0    0 -0.00000000000E+00 -0.00000000000E+00 -0.45593999997E+02  0.45594000000E+02  0.51100000000E-03 0.  1.
    9900012    2    1    2    0    0 -0.25831057682E+02  0.18599466366E+02 -0.18800273367E+01  0.59301981232E+02  0.50000067852E+02 0.  0.
         12    1    1    2    0    0  0.25831057682E+02 -0.18599466366E+02  0.18800273367E+01  0.31886018768E+02  0.00000000000E+00 0. -1.
         11    1    3    3    0    0 -0.55164614097E+01  0.89575088723E+00  0.14029238644E+02  0.15101432161E+02  0.51100000000E-03 0. -1.
        -11    1    3    3    0    0 -0.72934797754E+01  0.34477911928E+00  0.87214549371E+01  0.11374422902E+02  0.51100000000E-03 0.  1.
        -12    1    3    3    0    0 -0.13021116497E+02  0.17358936359E+02 -0.24630720918E+02  0.32826126169E+02  0.00000000000E+00 0.  1.
</event>
<event>
 7    1  0.1205909E-011  0.5930196E+02  0.7816164E-02  0.1266605E+00
        -11   -1    0    0    0    0  0.00000000000E+00  0.00000000000E+00  0.45593999997E+02  0.45594000000E+02  0.51100000000E-03 0. -1.
         11   -1    0    0    0    0 -0.00000000000E+00 -0.00000000000E+00 -0.45593999997E+02  0.45594000000E+02  0.51100000000E-03 0.  1.
    9900012    2    1    2    0    0  0.17978445354E+01  0.26653683217E+01 -0.31723543516E+02  0.59301958438E+02  0.50000026281E+02 0.  0.
         12    1    1    2    0    0 -0.17978445354E+01 -0.26653683217E+01  0.31723543516E+02  0.31886041562E+02  0.00000000000E+00 0. -1.
         11    1    3    3    0    0  0.53864548299E+01  0.61160755063E+00 -0.79643949603E+01  0.96342901542E+01  0.51100000000E-03 0. -1.
        -11    1    3    3    0    0 -0.15647206424E+02  0.14963924416E+02 -0.21511729424E+01  0.21757335501E+02  0.51100000000E-03 0.  1.
         12    1    3    3    0    0  0.12058596130E+02 -0.12910163645E+02 -0.21607975613E+02  0.27910332783E+02  0.00000000000E+00 0. -1.
</event>
<event>
 7    1  0.1205909E-011  0.5930226E+02  0.7816164E-02  0.1266604E+00
        -11   -1    0    0    0    0  0.00000000000E+00  0.00000000000E+00  0.45593999997E+02  0.45594000000E+02  0.51100000000E-03 0.  1.
         11   -1    0    0    0    0 -0.00000000000E+00 -0.00000000000E+00 -0.45593999997E+02  0.45594000000E+02  0.51100000000E-03 0. -1.
    9900012    2    1    2    0    0  0.25621956817E+02  0.92271422712E+01  0.16585411461E+02  0.59302255553E+02  0.50000568144E+02 0.  0.
         12    1    1    2    0    0 -0.25621956817E+02 -0.92271422712E+01 -0.16585411461E+02  0.31885744447E+02  0.00000000000E+00 0. -1.
         11    1    3    3    0    0  0.26985391128E+02  0.18113714342E+02 -0.39958510957E+01  0.32745760151E+02  0.51100000000E-03 0. -1.
        -11    1    3    3    0    0  0.55639951139E+01 -0.28253239495E+00  0.52090973125E+01  0.76270938931E+01  0.51100000000E-03 0.  1.
        -12    1    3    3    0    0 -0.69274294256E+01 -0.86040396760E+01  0.15372165244E+02  0.18929401509E+02  0.00000000000E+00 0.  1.
</event>
<event>
 7    1  0.1205909E-011  0.5930209E+02  0.7816164E-02  0.1266604E+00
        -11   -1    0    0    0    0  0.00000000000E+00  0.00000000000E+00  0.45593999997E+02  0.45594000000E+02  0.51100000000E-03 0.  1.
         11   -1    0    0    0    0 -0.00000000000E+00 -0.00000000000E+00 -0.45593999997E+02  0.45594000000E+02  0.51100000000E-03 0. -1.
    9900012    2    1    2    0    0 -0.31170868753E+02 -0.25700222400E+01  0.62034812782E+01  0.59302090054E+02  0.50000266315E+02 0.  0.
         12    1    1    2    0    0  0.31170868753E+02  0.25700222400E+01 -0.62034812782E+01  0.31885909946E+02  0.00000000000E+00 0. -1.
         11    1    3    3    0    0 -0.18903836215E+02 -0.11998344748E+02 -0.40037945945E+01  0.22745234045E+02  0.51100000000E-03 0. -1.
        -11    1    3    3    0    0 -0.17957618040E+02  0.22875132007E+01  0.17265371603E+02  0.25016031243E+02  0.51100000000E-03 0.  1.
        -12    1    3    3    0    0  0.56905855018E+01  0.71408093075E+01 -0.70580957305E+01  0.11540824765E+02  0.00000000000E+00 0.  1.
</event>
<event>
 7    1  0.1205909E-011  0.5930211E+02  0.7816164E-02  0.1266604E+00
        -11   -1    0    0    0    0  0.00000000000E+00  0.00000000000E+00  0.45593999997E+02  0.45594000000E+02  0.51100000000E-03 0.  1.
         11   -1    0    0    0    0 -0.00000000000E+00 -0.00000000000E+00 -0.45593999997E+02  0.45594000000E+02  0.51100000000E-03 0. -1.
    9900012    2    1    2    0    0  0.28252807043E+01 -0.31690570155E+02 -0.21061102215E+01  0.59302107381E+02  0.50000297917E+02 0.  0.
         12    1    1    2    0    0 -0.28252807043E+01  0.31690570155E+02  0.21061102215E+01  0.31885892619E+02  0.00000000000E+00 0. -1.
         11    1    3    3    0    0 -0.47394259208E+01 -0.88253518526E+01 -0.15437871997E+02  0.18403175961E+02  0.51100000000E-03 0. -1.
        -11    1    3    3    0    0 -0.68207778961E+01 -0.68644088515E+01  0.16521708680E+02  0.19147061863E+02  0.51100000000E-03 0.  1.
         12    1    3    3    0    0  0.14385484521E+02 -0.16000809451E+02 -0.31899469047E+01  0.21751869558E+02  0.00000000000E+00 0. -1.
</event>
<event>
 7    1  0.1205909E-011  0.5930197E+02  0.7816164E-02  0.1266605E+00
        -11   -1    0    0    0    0  0.00000000000E+00  0.00000000000E+00  0.45593999997E+02  0.45594000000E+02  0.51100000000E-03 0.  1.
         11   -1    0    0    0    0 -0.00000000000E+00 -0.00000000000E+00 -0.45593999997E+02  0.45594000000E+02  0.51100000000E-03 0. -1.
    9900012    2    1    2    0    0  0.73065875007E+00  0.30423538217E+02  0.95180564474E+01  0.59301969541E+02  0.50000046531E+02 0.  0.
         12    1    1    2    0    0 -0.73065875007E+00 -0.30423538217E+02 -0.95180564474E+01  0.31886030459E+02  0.00000000000E+00 0. -1.
         11    1    3    3    0    0  0.31248910164E+01  0.31495547140E+01  0.48324810572E+01  0.65602981785E+01  0.51100000000E-03 0. -1.
        -11    1    3    3    0    0 -0.66504933406E+01  0.16248403005E+02  0.24217752843E+02  0.29912191744E+02  0.51100000000E-03 0.  1.
         12    1    3    3    0    0  0.42562610743E+01  0.11025580498E+02 -0.19532177452E+02  0.22829479619E+02  0.00000000000E+00 0. -1.
</event>
<event>
 7    1  0.1205909E-011  0.5930192E+02  0.7816164E-02  0.1266605E+00
        -11   -1    0    0    0    0  0.00000000000E+00  0.00000000000E+00  0.45593999997E+02  0.45594000000E+02  0.51100000000E-03 0.  1.
         11   -1    0    0    0    0 -0.00000000000E+00 -0.00000000000E+00 -0.45593999997E+02  0.45594000000E+02  0.51100000000E-03 0. -1.
    9900012    2    1    2    0    0 -0.20277691014E+01  0.93844428222E+01  0.30406291033E+02  0.59301919196E+02  0.49999954714E+02 0.  0.
         12    1    1    2    0    0  0.20277691014E+01 -0.93844428222E+01 -0.30406291033E+02  0.31886080804E+02  0.00000000000E+00 0. -1.
         11    1    3    3    0    0 -0.35792789244E+01  0.14004335596E+02 -0.28845177841E+00  0.14457380737E+02  0.51100000000E-03 0. -1.
        -11    1    3    3    0    0  0.11188317683E+02  0.90978574178E+01  0.75824221840E+01  0.16292408926E+02  0.51100000000E-03 0.  1.
         12    1    3    3    0    0 -0.96368078604E+01 -0.13717750191E+02  0.23112320628E+02  0.28552129533E+02  0.00000000000E+00 0. -1.
</event>
<event>
 7    1  0.1205909E-011  0.5930193E+02  0.7816164E-02  0.1266605E+00
        -11   -1    0    0    0    0  0.00000000000E+00  0.00000000000E+00  0.45593999997E+02  0.45594000000E+02  0.51100000000E-03 0.  1.
         11   -1    0    0    0    0 -0.00000000000E+00 -0.00000000000E+00 -0.45593999997E+02  0.45594000000E+02  0.51100000000E-03 0. -1.
    9900012    2    1    2    0    0 -0.22751473958E+02 -0.21188705002E+02  0.70803218220E+01  0.59301925547E+02  0.49999966295E+02 0.  0.
         12    1    1    2    0    0  0.22751473958E+02  0.21188705002E+02 -0.70803218220E+01  0.31886074453E+02  0.00000000000E+00 0. -1.
         11    1    3    3    0    0 -0.12451283732E+02 -0.21017752665E+02  0.20827696290E+01  0.24517714479E+02  0.51100000000E-03 0. -1.
        -11    1    3    3    0    0 -0.20817861053E+02  0.37133146781E+01  0.88572428935E+01  0.22926464984E+02  0.51100000000E-03 0.  1.
         12    1    3    3    0    0  0.10517670827E+02 -0.38842670150E+01 -0.38596907005E+01  0.11857746084E+02  0.00000000000E+00 0. -1.
</event>
<event>
 7    1  0.1205909E-011  0.5930193E+02  0.7816164E-02  0.1266605E+00
        -11   -1    0    0    0    0  0.00000000000E+00  0.00000000000E+00  0.45593999997E+02  0.45594000000E+02  0.51100000000E-03 0. -1.
         11   -1    0    0    0    0 -0.00000000000E+00 -0.00000000000E+00 -0.45593999997E+02  0.45594000000E+02  0.51100000000E-03 0.  1.
    9900012    2    1    2    0    0 -0.16908139971E+02 -0.19967438202E+02 -0.18224646829E+02  0.59301928783E+02  0.49999972197E+02 0.  0.
         12    1    1    2    0    0  0.16908139971E+02  0.19967438202E+02  0.18224646829E+02  0.31886071217E+02  0.00000000000E+00 0. -1.
         11    1    3    3    0    0  0.24016724632E+01 -0.13864918573E+02  0.10226778047E+02  0.17395142630E+02  0.51100000000E-03 0. -1.
        -11    1    3    3    0    0 -0.55550922828E+00 -0.84838524491E+01 -0.97901168427E+00  0.85582011556E+01  0.51100000000E-03 0.  1.
        -12    1    3    3    0    0 -0.18754303205E+02  0.23813328196E+01 -0.27472413191E+02  0.33348584997E+02  0.00000000000E+00 0.  1.
</event>
<event>
 7    1  0.1205909E-011  0.5930193E+02  0.7816164E-02  0.1266605E+00
        -11   -1    0    0    0    0  0.00000000000E+00  0.00000000000E+00  0.45593999997E+02  0.45594000000E+02  0.51100000000E-03 0. -1.
         11   -1    0    0    0    0 -0.00000000000E+00 -0.00000000000E+00 -0.45593999997E+02  0.45594000000E+02  0.51100000000E-03 0.  1.
    9900012    2    1    2    0    0 -0.18981293744E+02  0.25008723662E+02  0.55673652740E+01  0.59301932078E+02  0.49999978207E+02 0.  0.
         12    1    1    2    0    0  0.18981293744E+02 -0.25008723662E+02 -0.55673652740E+01  0.31886067922E+02  0.00000000000E+00 0. -1.
         11    1    3    3    0    0 -0.10816803627E+02  0.30608397145E+01 -0.11157831696E+02  0.15838850617E+02  0.51100000000E-03 0. -1.
        -11    1    3    3    0    0 -0.68569261302E+01  0.23104731417E+02 -0.24350581570E+01  0.24223450586E+02  0.51100000000E-03 0.  1.
         12    1    3    3    0    0 -0.13075639869E+01 -0.11568474693E+01  0.19160255127E+02  0.19239630875E+02  0.00000000000E+00 0. -1.
</event>
<event>
 7    1  0.1205909E-011  0.5930195E+02  0.7816164E-02  0.1266605E+00
        -11   -1    0    0    0    0  0.00000000000E+00  0.00000000000E+00  0.45593999997E+02  0.45594000000E+02  0.51100000000E-03 0.  1.
         11   -1    0    0    0    0 -0.00000000000E+00 -0.00000000000E+00 -0.45593999997E+02  0.45594000000E+02  0.51100000000E-03 0. -1.
    9900012    2    1    2    0    0 -0.16303633495E+02 -0.13903643625E+02  0.23613569803E+02  0.59301945838E+02  0.50000003302E+02 0.  0.
         12    1    1    2    0    0  0.16303633495E+02  0.13903643625E+02 -0.23613569803E+02  0.31886054162E+02  0.00000000000E+00 0. -1.
         11    1    3    3    0    0 -0.32482300638E+01 -0.11219888024E+02 -0.27568015859E+01  0.12001534946E+02  0.51100000000E-03 0. -1.
        -11    1    3    3    0    0  0.65522038502E+01 -0.12053994931E+02  0.80008488634E+00  0.13743009321E+02  0.51100000000E-03 0.  1.
        -12    1    3    3    0    0 -0.19607607281E+02  0.93702393308E+01  0.25570286502E+02  0.33557401571E+02  0.00000000000E+00 0.  1.
</event>
<event>
 7    1  0.1205909E-011  0.5930195E+02  0.7816164E-02  0.1266605E+00
        -11   -1    0    0    0    0  0.00000000000E+00  0.00000000000E+00  0.45593999997E+02  0.45594000000E+02  0.51100000000E-03 0. -1.
         11   -1    0    0    0    0 -0.00000000000E+00 -0.00000000000E+00 -0.45593999997E+02  0.45594000000E+02  0.51100000000E-03 0.  1.
    9900012    2    1    2    0    0  0.17508151370E+02 -0.25402303363E+02 -0.80565481050E+01  0.59301947440E+02  0.50000006222E+02 0.  0.
         12    1    1    2    0    0 -0.17508151370E+02  0.25402303363E+02  0.80565481050E+01  0.31886052560E+02  0.00000000000E+00 0. -1.
         11    1    3    3    0    0  0.16615065845E+02 -0.19238583649E+01 -0.12792391185E+02  0.21057229555E+02  0.51100000000E-03 0. -1.
        -11    1    3    3    0    0 -0.41971817957E+01 -0.10563956749E+02 -0.11981251230E+02  0.16515565340E+02  0.51100000000E-03 0.  1.
         12    1    3    3    0    0  0.50902673211E+01 -0.12914488249E+02  0.16717094310E+02  0.21729152544E+02  0.00000000000E+00 0. -1.
</event>
<event>
 7    1  0.1205909E-011  0.5930194E+02  0.7816164E-02  0.1266605E+00
        -11   -1    0    0    0    0  0.00000000000E+00  0.00000000000E+00  0.45593999997E+02  0.45594000000E+02  0.51100000000E-03 0. -1.
         11   -1    0    0    0    0 -0.00000000000E+00 -0.00000000000E+00 -0.45593999997E+02  0.45594000000E+02  0.51100000000E-03 0.  1.
    9900012    2    1    2    0    0  0.15765803338E+01  0.31838379786E+02 -0.74352531742E+00  0.59301939365E+02  0.49999991496E+02 0.  0.
         12    1    1    2    0    0 -0.15765803338E+01 -0.31838379786E+02  0.74352531742E+00  0.31886060635E+02  0.00000000000E+00 0. -1.
         11    1    3    3    0    0  0.32369855727E+01  0.15458189271E+02  0.17711118415E+02  0.23730094962E+02  0.51100000000E-03 0. -1.
        -11    1    3    3    0    0  0.63853966056E+01  0.14678309911E+02 -0.72003815578E+00  0.16023249572E+02  0.51100000000E-03 0.  1.
        -12    1    3    3    0    0 -0.80458018445E+01  0.17018806039E+01 -0.17734605576E+02  0.19548594831E+02  0.00000000000E+00 0.  1.
</event>
<event>
 7    1  0.1205909E-011  0.5930197E+02  0.7816164E-02  0.1266605E+00
        -11   -1    0    0    0    0  0.00000000000E+00  0.00000000000E+00  0.45593999997E+02  0.45594000000E+02  0.51100000000E-03 0.  1.
         11   -1    0    0    0    0 -0.00000000000E+00 -0.00000000000E+00 -0.45593999997E+02  0.45594000000E+02  0.51100000000E-03 0. -1.
    9900012    2    1    2    0    0  0.13850127201E+02 -0.28064872039E+02  0.61037776003E+01  0.59301965956E+02  0.50000039992E+02 0.  0.
         12    1    1    2    0    0 -0.13850127201E+02  0.28064872039E+02 -0.61037776003E+01  0.31886034044E+02  0.00000000000E+00 0. -1.
         11    1    3    3    0    0 -0.89889951571E+01 -0.11111906587E+01 -0.96454476493E+00  0.91086291767E+01  0.51100000000E-03 0. -1.
        -11    1    3    3    0    0  0.25037824110E+02 -0.33529176418E+02  0.93804364751E+01  0.42884623073E+02  0.51100000000E-03 0.  1.
         12    1    3    3    0    0 -0.21987017525E+01  0.65754950368E+01 -0.23121141098E+01  0.73087137057E+01  0.00000000000E+00 0. -1.
</event>
<event>
 7    1  0.1205909E-011  0.5930218E+02  0.7816164E-02  0.1266604E+00
        -11   -1    0    0    0    0  0.00000000000E+00  0.00000000000E+00  0.45593999997E+02  0.45594000000E+02  0.51100000000E-03 0. -1.
         11   -1    0    0    0    0 -0.00000000000E+00 -0.00000000000E+00 -0.45593999997E+02  0.45594000000E+02  0.51100000000E-03 0.  1.
    9900012    2    1    2    0    0 -0.17376395675E+02 -0.16482072292E+01 -0.26684257665E+02  0.59302183077E+02  0.50000435966E+02 0.  0.
         12    1    1    2    0    0  0.17376395675E+02  0.16482072292E+01  0.26684257665E+02  0.31885816923E+02  0.00000000000E+00 0. -1.
         11    1    3    3    0    0  0.74352281876E-02  0.71062630005E+01 -0.99866717130E+01  0.12256942575E+02  0.51100000000E-03 0. -1.
        -11    1    3    3    0    0  0.12612559690E+02 -0.52686474905E+01 -0.36419797702E+01  0.14145646864E+02  0.51100000000E-03 0.  1.
         12    1    3    3    0    0 -0.29996390593E+02 -0.34858227393E+01 -0.13055606182E+02  0.32899593638E+02  0.00000000000E+00 0. -1.
</event>
<event>
 7    1  0.1205909E-011  0.5930193E+02  0.7816164E-02  0.1266605E+00
        -11   -1    0    0    0    0  0.00000000000E+00  0.00000000000E+00  0.45593999997E+02  0.45594000000E+02  0.51100000000E-03 0. -1.
         11   -1    0    0    0    0 -0.00000000000E+00 -0.00000000000E+00 -0.45593999997E+02  0.45594000000E+02  0.51100000000E-03 0.  1.
    9900012    2    1    2    0    0 -0.18824013451E+02  0.92073246622E+01  0.24033373130E+02  0.59301931979E+02  0.49999978025E+02 0.  0.
         12    1    1    2    0    0  0.18824013451E+02 -0.92073246622E+01 -0.24033373130E+02  0.31886068021E+02  0.00000000000E+00 0. -1.
         11    1    3    3    0    0 -0.97434581776E+01  0.82150244567E+01 -0.99036429872E+01  0.16140128524E+02  0.51100000000E-03 0. -1.
        -11    1    3    3    0    0 -0.99392805574E+00 -0.64419579700E+00 -0.40858650116E+01  0.42540773805E+01  0.51100000000E-03 0.  1.
         12    1    3    3    0    0 -0.80866272178E+01  0.16364960025E+01  0.38022881129E+02  0.38907726074E+02  0.00000000000E+00 0. -1.
</event>
<event>
 7    1  0.1205909E-011  0.5930193E+02  0.7816164E-02  0.1266605E+00
        -11   -1    0    0    0    0  0.00000000000E+00  0.00000000000E+00  0.45593999997E+02  0.45594000000E+02  0.51100000000E-03 0. -1.
         11   -1    0    0    0    0 -0.00000000000E+00 -0.00000000000E+00 -0.45593999997E+02  0.45594000000E+02  0.51100000000E-03 0.  1.
    9900012    2    1    2    0    0  0.10781917805E+02 -0.17490339268E+02 -0.24383591863E+02  0.59301932958E+02  0.49999979812E+02 0.  0.
         12    1    1    2    0    0 -0.10781917805E+02  0.17490339268E+02  0.24383591863E+02  0.31886067042E+02  0.00000000000E+00 0. -1.
         11    1    3    3    0    0 -0.45491706976E+01  0.14740705548E+01 -0.47327690029E+01  0.67280711004E+01  0.51100000000E-03 0. -1.
        -11    1    3    3    0    0 -0.49990401421E+00 -0.16449892137E+02 -0.29485795581E+02  0.33767750838E+02  0.51100000000E-03 0.  1.
         12    1    3    3    0    0  0.15830992517E+02 -0.25145176861E+01  0.98349727211E+01  0.18806111020E+02  0.00000000000E+00 0. -1.
</event>
<event>
 7    1  0.1205909E-011  0.5930185E+02  0.7816164E-02  0.1266605E+00
        -11   -1    0    0    0    0  0.00000000000E+00  0.00000000000E+00  0.45593999997E+02  0.45594000000E+02  0.51100000000E-03 0.  1.
         11   -1    0    0    0    0 -0.00000000000E+00 -0.00000000000E+00 -0.45593999997E+02  0.45594000000E+02  0.51100000000E-03 0. -1.
    9900012    2    1    2    0    0 -0.45991998287E+01 -0.23440110365E+02  0.21121909530E+02  0.59301851359E+02  0.49999830993E+02 0.  0.
         12    1    1    2    0    0  0.45991998287E+01  0.23440110365E+02 -0.21121909530E+02  0.31886148641E+02  0.00000000000E+00 0. -1.
         11    1    3    3    0    0  0.13386434561E+02 -0.15724477387E+01 -0.22521685797E+01  0.13665338844E+02  0.51100000000E-03 0. -1.
        -11    1    3    3    0    0 -0.76484048904E+01  0.45837787663E+01  0.98313228049E-01  0.89173309291E+01  0.51100000000E-03 0.  1.
        -12    1    3    3    0    0 -0.10337229499E+02 -0.26451441393E+02  0.23275764881E+02  0.36719181585E+02  0.00000000000E+00 0.  1.
</event>
<event>
 7    1  0.1205909E-011  0.5930194E+02  0.7816164E-02  0.1266605E+00
        -11   -1    0    0    0    0  0.00000000000E+00  0.00000000000E+00  0.45593999997E+02  0.45594000000E+02  0.51100000000E-03 0.  1.
         11   -1    0    0    0    0 -0.00000000000E+00 -0.00000000000E+00 -0.45593999997E+02  0.45594000000E+02  0.51100000000E-03 0. -1.
    9900012    2    1    2    0    0  0.14976784464E+02 -0.19871144557E+02  0.19938769494E+02  0.59301937405E+02  0.49999987921E+02 0.  0.
         12    1    1    2    0    0 -0.14976784464E+02  0.19871144557E+02 -0.19938769494E+02  0.31886062595E+02  0.00000000000E+00 0. -1.
         11    1    3    3    0    0 -0.10606955248E+02 -0.15783673554E+02 -0.23519913427E+01  0.19161516486E+02  0.51100000000E-03 0. -1.
        -11    1    3    3    0    0  0.74195035349E+01 -0.59819128610E+01  0.19448014621E+02  0.21657737351E+02  0.51100000000E-03 0.  1.
        -12    1    3    3    0    0  0.18164236177E+02  0.18944418580E+01  0.28427462153E+01  0.18482683569E+02  0.00000000000E+00 0.  1.
</event>
<event>
 7    1  0.1205909E-011  0.5930196E+02  0.7816164E-02  0.1266605E+00
        -11   -1    0    0    0    0  0.00000000000E+00  0.00000000000E+00  0.45593999997E+02  0.45594000000E+02  0.51100000000E-03 0. -1.
         11   -1    0    0    0    0 -0.00000000000E+00 -0.00000000000E+00 -0.45593999997E+02  0.45594000000E+02  0.51100000000E-03 0.  1.
    9900012    2    1    2    0    0  0.16280425244E+01  0.21780705572E+02 -0.23230793022E+02  0.59301962270E+02  0.50000033270E+02 0.  0.
         12    1    1    2    0    0 -0.16280425244E+01 -0.21780705572E+02  0.23230793022E+02  0.31886037730E+02  0.00000000000E+00 0. -1.
         11    1    3    3    0    0 -0.16820837220E+02  0.93401640163E+01 -0.17713575189E+02  0.26152437264E+02  0.51100000000E-03 0. -1.
        -11    1    3    3    0    0 -0.55230001294E+01  0.42157040697E+01 -0.33497296165E+01  0.77133896567E+01  0.51100000000E-03 0.  1.
        -12    1    3    3    0    0  0.23971879873E+02  0.82248374861E+01 -0.21674882158E+01  0.25436135349E+02  0.00000000000E+00 0.  1.
</event>
<event>
 7    1  0.1205909E-011  0.5930201E+02  0.7816164E-02  0.1266605E+00
        -11   -1    0    0    0    0  0.00000000000E+00  0.00000000000E+00  0.45593999997E+02  0.45594000000E+02  0.51100000000E-03 0. -1.
         11   -1    0    0    0    0 -0.00000000000E+00 -0.00000000000E+00 -0.45593999997E+02  0.45594000000E+02  0.51100000000E-03 0.  1.
    9900012    2    1    2    0    0 -0.30188640998E+01  0.93392640547E+01 -0.30337785004E+02  0.59302006327E+02  0.50000113619E+02 0.  0.
         12    1    1    2    0    0  0.30188640998E+01 -0.93392640547E+01  0.30337785004E+02  0.31885993673E+02  0.00000000000E+00 0. -1.
         11    1    3    3    0    0 -0.11839340083E+02 -0.94507776259E+00 -0.32606596586E+02  0.34702352756E+02  0.51100000000E-03 0. -1.
        -11    1    3    3    0    0 -0.49797154023E+01  0.91025629298E+01 -0.82239695050E+00  0.10408196500E+02  0.51100000000E-03 0.  1.
        -12    1    3    3    0    0  0.13800191385E+02  0.11817788875E+01  0.30912085325E+01  0.14191457071E+02  0.00000000000E+00 0.  1.
</event>
<event>
 7    1  0.1205909E-011  0.5930192E+02  0.7816164E-02  0.1266605E+00
        -11   -1    0    0    0    0  0.00000000000E+00  0.00000000000E+00  0.45593999997E+02  0.45594000000E+02  0.51100000000E-03 0.  1.
         11   -1    0    0    0    0 -0.00000000000E+00 -0.00000000000E+00 -0.45593999997E+02  0.45594000000E+02  0.51100000000E-03 0. -1.
    9900012    2    1    2    0    0 -0.26452511978E+00 -0.65538041646E+01  0.31204167232E+02  0.59301915650E+02  0.49999948245E+02 0.  0.
         12    1    1    2    0    0  0.26452511978E+00  0.65538041646E+01 -0.31204167232E+02  0.31886084350E+02  0.00000000000E+00 0. -1.
         11    1    3    3    0    0 -0.66748616061E+01 -0.71154585832E+01 -0.39939610754E+01  0.10542070652E+02  0.51100000000E-03 0. -1.
        -11    1    3    3    0    0 -0.85446164233E+01 -0.96918965472E+01  0.56727192600E+01  0.14111097497E+02  0.51100000000E-03 0.  1.
        -12    1    3    3    0    0  0.14954952910E+02  0.10253550966E+02  0.29525409047E+02  0.34648747500E+02  0.00000000000E+00 0.  1.
</event>
<event>
 7    1  0.1205909E-011  0.5930176E+02  0.7816164E-02  0.1266605E+00
        -11   -1    0    0    0    0  0.00000000000E+00  0.00000000000E+00  0.45593999997E+02  0.45594000000E+02  0.51100000000E-03 0. -1.
         11   -1    0    0    0    0 -0.00000000000E+00 -0.00000000000E+00 -0.45593999997E+02  0.45594000000E+02  0.51100000000E-03 0.  1.
    9900012    2    1    2    0    0  0.17323669230E+02  0.13379534651E+02 -0.23186441674E+02  0.59301756249E+02  0.49999657535E+02 0.  0.
         12    1    1    2    0    0 -0.17323669230E+02 -0.13379534651E+02  0.23186441674E+02  0.31886243751E+02  0.00000000000E+00 0. -1.
         11    1    3    3    0    0  0.18016396057E+02 -0.34433332045E+01 -0.36700957584E+01  0.18706059809E+02  0.51100000000E-03 0. -1.
        -11    1    3    3    0    0 -0.21323105029E+01 -0.65484140332E+01  0.35319833200E+01  0.77397274413E+01  0.51100000000E-03 0.  1.
        -12    1    3    3    0    0  0.14395836760E+01  0.23371281888E+02 -0.23048329236E+02  0.32855968998E+02  0.00000000000E+00 0.  1.
</event>
<event>
 7    1  0.1205909E-011  0.5930189E+02  0.7816164E-02  0.1266605E+00
        -11   -1    0    0    0    0  0.00000000000E+00  0.00000000000E+00  0.45593999997E+02  0.45594000000E+02  0.51100000000E-03 0.  1.
         11   -1    0    0    0    0 -0.00000000000E+00 -0.00000000000E+00 -0.45593999997E+02  0.45594000000E+02  0.51100000000E-03 0. -1.
    9900012    2    1    2    0    0 -0.59904328334E+01  0.20585593152E+02  0.23602380063E+02  0.59301885850E+02  0.49999893898E+02 0.  0.
         12    1    1    2    0    0  0.59904328334E+01 -0.20585593152E+02 -0.23602380063E+02  0.31886114150E+02  0.00000000000E+00 0. -1.
         11    1    3    3    0    0  0.25167346118E+01 -0.78661699327E+01  0.82281931737E+00  0.82998562883E+01  0.51100000000E-03 0. -1.
        -11    1    3    3    0    0  0.28395478659E+01  0.19751754960E+02  0.29168675914E+02  0.35341286209E+02  0.51100000000E-03 0.  1.
         12    1    3    3    0    0 -0.11346715311E+02  0.87000081252E+01 -0.63891151686E+01  0.15660743353E+02  0.00000000000E+00 0. -1.
</event>
<event>
 7    1  0.1205909E-011  0.5930194E+02  0.7816164E-02  0.1266605E+00
        -11   -1    0    0    0    0  0.00000000000E+00  0.00000000000E+00  0.45593999997E+02  0.45594000000E+02  0.51100000000E-03 0.  1.
         11   -1    0    0    0    0 -0.00000000000E+00 -0.00000000000E+00 -0.45593999997E+02  0.45594000000E+02  0.51100000000E-03 0. -1.
    9900012    2    1    2    0    0 -0.29755720688E+02 -0.77197801959E+01  0.84689328081E+01  0.59301941246E+02  0.49999994927E+02 0.  0.
         12    1    1    2    0    0  0.29755720688E+02  0.77197801959E+01 -0.84689328081E+01  0.31886058754E+02  0.00000000000E+00 0. -1.
         11    1    3    3    0    0 -0.65700147438E+01  0.44994777260E+01  0.15555157068E+02  0.17474933626E+02  0.51100000000E-03 0. -1.
        -11    1    3    3    0    0 -0.21880819610E+02 -0.33943976209E+01  0.86223702822E+01  0.23762101582E+02  0.51100000000E-03 0.  1.
         12    1    3    3    0    0 -0.13048863342E+01 -0.88248603010E+01 -0.15708594543E+02  0.18064906038E+02  0.00000000000E+00 0. -1.
</event>
<event>
 7    1  0.1205909E-011  0.5930195E+02  0.7816164E-02  0.1266605E+00
        -11   -1    0    0    0    0  0.00000000000E+00  0.00000000000E+00  0.45593999997E+02  0.45594000000E+02  0.51100000000E-03 0.  1.
         11   -1    0    0    0    0 -0.00000000000E+00 -0.00000000000E+00 -0.45593999997E+02  0.45594000000E+02  0.51100000000E-03 0. -1.
    9900012    2    1    2    0    0 -0.10238627209E+02 -0.92918192886E+01  0.28732430542E+02  0.59301953558E+02  0.50000017381E+02 0.  0.
         12    1    1    2    0    0  0.10238627209E+02  0.92918192886E+01 -0.28732430542E+02  0.31886046442E+02  0.00000000000E+00 0. -1.
         11    1    3    3    0    0 -0.45602523049E+01  0.13760379961E+02  0.12829758142E+02  0.19358374209E+02  0.51100000000E-03 0. -1.
        -11    1    3    3    0    0  0.15306856298E+01 -0.49271661191E+01 -0.77343203371E+01  0.92972940042E+01  0.51100000000E-03 0.  1.
        -12    1    3    3    0    0 -0.72090605344E+01 -0.18125033131E+02  0.23636992738E+02  0.30646285345E+02  0.00000000000E+00 0.  1.
</event>
<event>
 7    1  0.1205909E-011  0.5930193E+02  0.7816164E-02  0.1266605E+00
        -11   -1    0    0    0    0  0.00000000000E+00  0.00000000000E+00  0.45593999997E+02  0.45594000000E+02  0.51100000000E-03 0.  1.
         11   -1    0    0    0    0 -0.00000000000E+00 -0.00000000000E+00 -0.45593999997E+02  0.45594000000E+02  0.51100000000E-03 0. -1.
    9900012    2    1    2    0    0 -0.21990077008E+02  0.55133679648E+01 -0.22422322720E+02  0.59301932991E+02  0.49999979872E+02 0.  0.
         12    1    1    2    0    0  0.21990077008E+02 -0.55133679648E+01  0.22422322720E+02  0.31886067009E+02  0.00000000000E+00 0. -1.
         11    1    3    3    0    0 -0.11822261422E+01 -0.43787586392E+01  0.74417410167E+01  0.87149696209E+01  0.51100000000E-03 0. -1.
        -11    1    3    3    0    0  0.64011215481E+01  0.78993809057E+01 -0.40564652540E-01  0.10167409774E+02  0.51100000000E-03 0.  1.
        -12    1    3    3    0    0 -0.27208972414E+02  0.19927456983E+01 -0.29823499084E+02  0.40419553596E+02  0.00000000000E+00 0.  1.
</event>
<event>
 7    1  0.1205909E-011  0.5930195E+02  0.7816164E-02  0.1266605E+00
        -11   -1    0    0    0    0  0.00000000000E+00  0.00000000000E+00  0.45593999997E+02  0.45594000000E+02  0.51100000000E-03 0.  1.
         11   -1    0    0    0    0 -0.00000000000E+00 -0.00000000000E+00 -0.45593999997E+02  0.45594000000E+02  0.51100000000E-03 0. -1.
    9900012    2    1    2    0    0 -0.47156716033E+01  0.30530242840E+02 -0.78985534909E+01  0.59301946092E+02  0.50000003765E+02 0.  0.
         12    1    1    2    0    0  0.47156716033E+01 -0.30530242840E+02  0.78985534909E+01  0.31886053908E+02  0.00000000000E+00 0. -1.
         11    1    3    3    0    0 -0.40640530612E+01  0.97413939632E+01 -0.45918538976E+01  0.11510708324E+02  0.51100000000E-03 0. -1.
        -11    1    3    3    0    0  0.83226626648E+01  0.30982974155E+02  0.40654167139E+01  0.32337888222E+02  0.51100000000E-03 0.  1.
         12    1    3    3    0    0 -0.89742812068E+01 -0.10194125278E+02 -0.73721163072E+01  0.15453349547E+02  0.00000000000E+00 0. -1.
</event>
<event>
 7    1  0.1205909E-011  0.5930194E+02  0.7816164E-02  0.1266605E+00
        -11   -1    0    0    0    0  0.00000000000E+00  0.00000000000E+00  0.45593999997E+02  0.45594000000E+02  0.51100000000E-03 0. -1.
         11   -1    0    0    0    0 -0.00000000000E+00 -0.00000000000E+00 -0.45593999997E+02  0.45594000000E+02  0.51100000000E-03 0.  1.
    9900012    2    1    2    0    0 -0.65139442107E+00  0.31200800324E+02  0.65426770591E+01  0.59301939117E+02  0.49999991043E+02 0.  0.
         12    1    1    2    0    0  0.65139442107E+00 -0.31200800324E+02 -0.65426770591E+01  0.31886060883E+02  0.00000000000E+00 0. -1.
         11    1    3    3    0    0  0.62425475008E+01  0.85180048575E+01 -0.17657514081E+01  0.10707179103E+02  0.51100000000E-03 0. -1.
        -11    1    3    3    0    0  0.25125073008E+01  0.17585146521E+02 -0.14805521408E+02  0.23124738604E+02  0.51100000000E-03 0.  1.
         12    1    3    3    0    0 -0.94064492226E+01  0.50976489458E+01  0.23113949875E+02  0.25470021409E+02  0.00000000000E+00 0. -1.
</event>
<event>
 7    1  0.1205909E-011  0.5930195E+02  0.7816164E-02  0.1266605E+00
        -11   -1    0    0    0    0  0.00000000000E+00  0.00000000000E+00  0.45593999997E+02  0.45594000000E+02  0.51100000000E-03 0. -1.
         11   -1    0    0    0    0 -0.00000000000E+00 -0.00000000000E+00 -0.45593999997E+02  0.45594000000E+02  0.51100000000E-03 0.  1.
    9900012    2    1    2    0    0  0.26436510908E+02 -0.73012267651E+01 -0.16264172514E+02  0.59301947739E+02  0.50000006768E+02 0.  0.
         12    1    1    2    0    0 -0.26436510908E+02  0.73012267651E+01  0.16264172514E+02  0.31886052261E+02  0.00000000000E+00 0. -1.
         11    1    3    3    0    0  0.46622045802E+01 -0.10526793113E+02 -0.71389242470E+01  0.13546725230E+02  0.51100000000E-03 0. -1.
        -11    1    3    3    0    0  0.14013970049E+02 -0.55127140025E+01 -0.23076700155E+02  0.27555679315E+02  0.51100000000E-03 0.  1.
         12    1    3    3    0    0  0.77603362788E+01  0.87382803508E+01  0.13951451888E+02  0.18199543193E+02  0.00000000000E+00 0. -1.
</event>
<event>
 7    1  0.1205909E-011  0.5930200E+02  0.7816164E-02  0.1266605E+00
        -11   -1    0    0    0    0  0.00000000000E+00  0.00000000000E+00  0.45593999997E+02  0.45594000000E+02  0.51100000000E-03 0. -1.
         11   -1    0    0    0    0 -0.00000000000E+00 -0.00000000000E+00 -0.45593999997E+02  0.45594000000E+02  0.51100000000E-03 0.  1.
    9900012    2    1    2    0    0 -0.31818012860E+02 -0.19976366228E+01 -0.58379075067E+00  0.59301995138E+02  0.50000093212E+02 0.  0.
         12    1    1    2    0    0  0.31818012860E+02  0.19976366228E+01  0.58379075067E+00  0.31886004862E+02  0.00000000000E+00 0. -1.
         11    1    3    3    0    0 -0.11958786263E+02 -0.41470205896E+00  0.19283580546E+02  0.22694515320E+02  0.51100000000E-03 0. -1.
        -11    1    3    3    0    0 -0.74813430236E+01 -0.12269228914E+02 -0.85665941508E+01  0.16729943431E+02  0.51100000000E-03 0.  1.
         12    1    3    3    0    0 -0.12377883573E+02  0.10686294351E+02 -0.11300777146E+02  0.19877536387E+02  0.00000000000E+00 0. -1.
</event>
<event>
 7    1  0.1205909E-011  0.5930191E+02  0.7816164E-02  0.1266605E+00
        -11   -1    0    0    0    0  0.00000000000E+00  0.00000000000E+00  0.45593999997E+02  0.45594000000E+02  0.51100000000E-03 0.  1.
         11   -1    0    0    0    0 -0.00000000000E+00 -0.00000000000E+00 -0.45593999997E+02  0.45594000000E+02  0.51100000000E-03 0. -1.
    9900012    2    1    2    0    0  0.56348960525E+01  0.66393993622E+01  0.30673914530E+02  0.59301910399E+02  0.49999938670E+02 0.  0.
         12    1    1    2    0    0 -0.56348960525E+01 -0.66393993622E+01 -0.30673914530E+02  0.31886089601E+02  0.00000000000E+00 0. -1.
         11    1    3    3    0    0  0.40931152924E+01 -0.10500382876E+02  0.67653049393E+01  0.13144618082E+02  0.51100000000E-03 0. -1.
        -11    1    3    3    0    0 -0.10674002807E+02 -0.67244268242E+01  0.88296704561E+01  0.15398549693E+02  0.51100000000E-03 0.  1.
        -12    1    3    3    0    0  0.12215783567E+02  0.23864209063E+02  0.15078939135E+02  0.30758742624E+02  0.00000000000E+00 0.  1.
</event>
<event>
 7    1  0.1205909E-011  0.5930200E+02  0.7816164E-02  0.1266605E+00
        -11   -1    0    0    0    0  0.00000000000E+00  0.00000000000E+00  0.45593999997E+02  0.45594000000E+02  0.51100000000E-03 0. -1.
         11   -1    0    0    0    0 -0.00000000000E+00 -0.00000000000E+00 -0.45593999997E+02  0.45594000000E+02  0.51100000000E-03 0.  1.
    9900012    2    1    2    0    0  0.30715599424E+02  0.85368695645E+01 -0.62512403591E+00  0.59302000408E+02  0.50000102824E+02 0.  0.
         12    1    1    2    0    0 -0.30715599424E+02 -0.85368695645E+01  0.62512403591E+00  0.31885999592E+02  0.00000000000E+00 0. -1.
         11    1    3    3    0    0  0.57173135893E+01 -0.29536079990E+01  0.16190837921E+02  0.17422821463E+02  0.51100000000E-03 0. -1.
        -11    1    3    3    0    0 -0.39220693858E+01  0.63190353820E+01  0.10245003695E+01  0.75074921041E+01  0.51100000000E-03 0.  1.
        -12    1    3    3    0    0  0.28920355220E+02  0.51714421815E+01 -0.17840462326E+02  0.34371686841E+02  0.00000000000E+00 0.  1.
</event>
<event>
 7    1  0.1205909E-011  0.5930198E+02  0.7816164E-02  0.1266605E+00
        -11   -1    0    0    0    0  0.00000000000E+00  0.00000000000E+00  0.45593999997E+02  0.45594000000E+02  0.51100000000E-03 0. -1.
         11   -1    0    0    0    0 -0.00000000000E+00 -0.00000000000E+00 -0.45593999997E+02  0.45594000000E+02  0.51100000000E-03 0.  1.
    9900012    2    1    2    0    0  0.77345793929E+01  0.11495468534E+02 -0.28718436488E+02  0.59301982539E+02  0.50000070235E+02 0.  0.
         12    1    1    2    0    0 -0.77345793929E+01 -0.11495468534E+02  0.28718436488E+02  0.31886017461E+02  0.00000000000E+00 0. -1.
         11    1    3    3    0    0  0.13488299058E+02 -0.60087773777E+00  0.46138504919E+01  0.14268247340E+02  0.51100000000E-03 0. -1.
        -11    1    3    3    0    0  0.80528016875E+00  0.16819991886E+02 -0.83883816659E+01  0.18812909143E+02  0.51100000000E-03 0.  1.
         12    1    3    3    0    0 -0.65589998341E+01 -0.47236456137E+01 -0.24943905314E+02  0.26220826056E+02  0.00000000000E+00 0. -1.
</event>
<event>
 7    1  0.1205909E-011  0.5930194E+02  0.7816164E-02  0.1266605E+00
        -11   -1    0    0    0    0  0.00000000000E+00  0.00000000000E+00  0.45593999997E+02  0.45594000000E+02  0.51100000000E-03 0.  1.
         11   -1    0    0    0    0 -0.00000000000E+00 -0.00000000000E+00 -0.45593999997E+02  0.45594000000E+02  0.51100000000E-03 0. -1.
    9900012    2    1    2    0    0 -0.25561239230E+02 -0.16096737383E+02  0.10209757182E+02  0.59301936476E+02  0.49999986227E+02 0.  0.
         12    1    1    2    0    0  0.25561239230E+02  0.16096737383E+02 -0.10209757182E+02  0.31886063524E+02  0.00000000000E+00 0. -1.
         11    1    3    3    0    0  0.42562596666E+01 -0.53215579152E+01 -0.16189885961E+01  0.70039881018E+01  0.51100000000E-03 0. -1.
        -11    1    3    3    0    0 -0.31453630210E+01 -0.21434974291E+02  0.12923952682E+01  0.21703034746E+02  0.51100000000E-03 0.  1.
        -12    1    3    3    0    0 -0.26672135876E+02  0.10659794823E+02  0.10536350509E+02  0.30594913628E+02  0.00000000000E+00 0.  1.
</event>
<event>
 7    1  0.1205909E-011  0.5930186E+02  0.7816164E-02  0.1266605E+00
        -11   -1    0    0    0    0  0.00000000000E+00  0.00000000000E+00  0.45593999997E+02  0.45594000000E+02  0.51100000000E-03 0. -1.
         11   -1    0    0    0    0 -0.00000000000E+00 -0.00000000000E+00 -0.45593999997E+02  0.45594000000E+02  0.51100000000E-03 0.  1.
    9900012    2    1    2    0    0  0.79698964787E+01 -0.27203188305E+02 -0.14601139094E+02  0.59301859333E+02  0.49999845536E+02 0.  0.
         12    1    1    2    0    0 -0.79698964787E+01  0.27203188305E+02  0.14601139094E+02  0.31886140667E+02  0.00000000000E+00 0. -1.
         11    1    3    3    0    0  0.25121538025E+01 -0.86130186477E+01 -0.10425042219E+02  0.13754145284E+02  0.51100000000E-03 0. -1.
        -11    1    3    3    0    0 -0.10684894391E+02 -0.24228994351E+01 -0.16333565553E+02  0.19667810599E+02  0.51100000000E-03 0.  1.
         12    1    3    3    0    0  0.16142637067E+02 -0.16167270222E+02  0.12157468678E+02  0.25879903450E+02  0.00000000000E+00 0. -1.
</event>
<event>
 7    1  0.1205909E-011  0.5930197E+02  0.7816164E-02  0.1266605E+00
        -11   -1    0    0    0    0  0.00000000000E+00  0.00000000000E+00  0.45593999997E+02  0.45594000000E+02  0.51100000000E-03 0.  1.
         11   -1    0    0    0    0 -0.00000000000E+00 -0.00000000000E+00 -0.45593999997E+02  0.45594000000E+02  0.51100000000E-03 0. -1.
    9900012    2    1    2    0    0 -0.15408329852E+01 -0.28703071130E+02 -0.13801392432E+02  0.59301970275E+02  0.50000047869E+02 0.  0.
         12    1    1    2    0    0  0.15408329852E+01  0.28703071130E+02  0.13801392432E+02  0.31886029725E+02  0.00000000000E+00 0. -1.
         11    1    3    3    0    0 -0.34931234168E-01  0.91990397132E+01 -0.68428149697E+01  0.11465062966E+02  0.51100000000E-03 0. -1.
        -11    1    3    3    0    0 -0.10674097504E+02 -0.29835591137E+01 -0.32214128681E+01  0.11541901214E+02  0.51100000000E-03 0.  1.
        -12    1    3    3    0    0  0.91681957532E+01 -0.34918551729E+02 -0.37371645945E+01  0.36295006095E+02  0.00000000000E+00 0.  1.
</event>
<event>
 7    1  0.1205909E-011  0.5930194E+02  0.7816164E-02  0.1266605E+00
        -11   -1    0    0    0    0  0.00000000000E+00  0.00000000000E+00  0.45593999997E+02  0.45594000000E+02  0.51100000000E-03 0.  1.
         11   -1    0    0    0    0 -0.00000000000E+00 -0.00000000000E+00 -0.45593999997E+02  0.45594000000E+02  0.51100000000E-03 0. -1.
    9900012    2    1    2    0    0 -0.25147887251E+02  0.96852245418E+01  0.17044096916E+02  0.59301936473E+02  0.49999986221E+02 0.  0.
         12    1    1    2    0    0  0.25147887251E+02 -0.96852245418E+01 -0.17044096916E+02  0.31886063527E+02  0.00000000000E+00 0. -1.
         11    1    3    3    0    0 -0.51389719894E+01 -0.13090019708E+02  0.13604818036E+02  0.19566520466E+02  0.51100000000E-03 0. -1.
        -11    1    3    3    0    0 -0.77812153065E+01  0.41417521396E+01  0.12816963001E+02  0.15555576597E+02  0.51100000000E-03 0.  1.
         12    1    3    3    0    0 -0.12227699955E+02  0.18633492110E+02 -0.93776841218E+01  0.24179839410E+02  0.00000000000E+00 0. -1.
</event>
<event>
 7    1  0.1205909E-011  0.5930195E+02  0.7816164E-02  0.1266605E+00
        -11   -1    0    0    0    0  0.00000000000E+00  0.00000000000E+00  0.45593999997E+02  0.45594000000E+02  0.51100000000E-03 0.  1.
         11   -1    0    0    0    0 -0.00000000000E+00 -0.00000000000E+00 -0.45593999997E+02  0.45594000000E+02  0.51100000000E-03 0. -1.
    9900012    2    1    2    0    0  0.22484013342E+01  0.16248132349E+02  0.27343431661E+02  0.59301947118E+02  0.50000005636E+02 0.  0.
         12    1    1    2    0    0 -0.22484013342E+01 -0.16248132349E+02 -0.27343431661E+02  0.31886052882E+02  0.00000000000E+00 0. -1.
         11    1    3    3    0    0  0.12832411572E+02  0.67736157786E+01  0.12208303395E+02  0.18962998959E+02  0.51100000000E-03 0. -1.
        -11    1    3    3    0    0  0.88141909698E+01 -0.23849800576E-01 -0.55636322854E+01  0.10423268956E+02  0.51100000000E-03 0.  1.
        -12    1    3    3    0    0 -0.19398201207E+02  0.94983663712E+01  0.20698760551E+02  0.29915679203E+02  0.00000000000E+00 0.  1.
</event>
<event>
 7    1  0.1205909E-011  0.5930196E+02  0.7816164E-02  0.1266605E+00
        -11   -1    0    0    0    0  0.00000000000E+00  0.00000000000E+00  0.45593999997E+02  0.45594000000E+02  0.51100000000E-03 0.  1.
         11   -1    0    0    0    0 -0.00000000000E+00 -0.00000000000E+00 -0.45593999997E+02  0.45594000000E+02  0.51100000000E-03 0. -1.
    9900012    2    1    2    0    0  0.22011020695E+02 -0.16730864501E+02  0.15884352150E+02  0.59301960700E+02  0.50000030407E+02 0.  0.
         12    1    1    2    0    0 -0.22011020695E+02  0.16730864501E+02 -0.15884352150E+02  0.31886039300E+02  0.00000000000E+00 0. -1.
         11    1    3    3    0    0  0.29352050247E+01  0.12534551320E+02  0.64489267626E+01  0.14398578471E+02  0.51100000000E-03 0. -1.
        -11    1    3    3    0    0  0.61144580539E+01  0.45659291933E+01  0.23789033617E+01  0.79933402377E+01  0.51100000000E-03 0.  1.
        -12    1    3    3    0    0  0.12961357617E+02 -0.33831345014E+02  0.70565220254E+01  0.36910041992E+02  0.00000000000E+00 0.  1.
</event>
<event>
 7    1  0.1205909E-011  0.5930195E+02  0.7816164E-02  0.1266605E+00
        -11   -1    0    0    0    0  0.00000000000E+00  0.00000000000E+00  0.45593999997E+02  0.45594000000E+02  0.51100000000E-03 0. -1.
         11   -1    0    0    0    0 -0.00000000000E+00 -0.00000000000E+00 -0.45593999997E+02  0.45594000000E+02  0.51100000000E-03 0.  1.
    9900012    2    1    2    0    0 -0.31485222238E+02  0.50016111131E+01 -0.62032842368E+00  0.59301950692E+02  0.50000012155E+02 0.  0.
         12    1    1    2    0    0  0.31485222238E+02 -0.50016111131E+01  0.62032842368E+00  0.31886049308E+02  0.00000000000E+00 0. -1.
         11    1    3    3    0    0  0.25176459091E-02 -0.86131877808E+01  0.22201855915E+01  0.88947307103E+01  0.51100000000E-03 0. -1.
        -11    1    3    3    0    0  0.56905286958E+01  0.68060075521E+01 -0.83838725482E+01  0.12206276042E+02  0.51100000000E-03 0.  1.
         12    1    3    3    0    0 -0.37178268580E+02  0.68087913419E+01  0.55433585330E+01  0.38200943940E+02  0.00000000000E+00 0. -1.
</event>
<event>
 7    1  0.1205909E-011  0.5930194E+02  0.7816164E-02  0.1266605E+00
        -11   -1    0    0    0    0  0.00000000000E+00  0.00000000000E+00  0.45593999997E+02  0.45594000000E+02  0.51100000000E-03 0.  1.
         11   -1    0    0    0    0 -0.00000000000E+00 -0.00000000000E+00 -0.45593999997E+02  0.45594000000E+02  0.51100000000E-03 0. -1.
    9900012    2    1    2    0    0  0.17393851922E+01 -0.16088341395E+02  0.27474731973E+02  0.59301935855E+02  0.49999985095E+02 0.  0.
         12    1    1    2    0    0 -0.17393851922E+01  0.16088341395E+02 -0.27474731973E+02  0.31886064145E+02  0.00000000000E+00 0. -1.
         11    1    3    3    0    0 -0.69138475748E+01 -0.35246727420E+01  0.78838757917E+00  0.78003949555E+01  0.51100000000E-03 0. -1.
        -11    1    3    3    0    0  0.12576593944E+02 -0.11361897947E+02 -0.64332639819E+01  0.18128715507E+02  0.51100000000E-03 0.  1.
         12    1    3    3    0    0 -0.39233611773E+01 -0.12017707058E+01  0.33119608375E+02  0.33372825393E+02  0.00000000000E+00 0. -1.
</event>
<event>
 7    1  0.1205909E-011  0.5930196E+02  0.7816164E-02  0.1266605E+00
        -11   -1    0    0    0    0  0.00000000000E+00  0.00000000000E+00  0.45593999997E+02  0.45594000000E+02  0.51100000000E-03 0.  1.
         11   -1    0    0    0    0 -0.00000000000E+00 -0.00000000000E+00 -0.45593999997E+02  0.45594000000E+02  0.51100000000E-03 0. -1.
    9900012    2    1    2    0    0 -0.26373733290E+02  0.16760967716E+02  0.63415600392E+01  0.59301964967E+02  0.50000038188E+02 0.  0.
         12    1    1    2    0    0  0.26373733290E+02 -0.16760967716E+02 -0.63415600392E+01  0.31886035033E+02  0.00000000000E+00 0. -1.
         11    1    3    3    0    0 -0.25020298281E+02  0.56912435073E+01  0.21143363098E+02  0.33248268859E+02  0.51100000000E-03 0. -1.
        -11    1    3    3    0    0 -0.62656562664E+01 -0.17374404538E+01 -0.97069799456E+00  0.65741465329E+01  0.51100000000E-03 0.  1.
         12    1    3    3    0    0  0.49122212583E+01  0.12807164662E+02 -0.13831105064E+02  0.19479549575E+02  0.00000000000E+00 0. -1.
</event>
<event>
 7    1  0.1205909E-011  0.5930193E+02  0.7816164E-02  0.1266605E+00
        -11   -1    0    0    0    0  0.00000000000E+00  0.00000000000E+00  0.45593999997E+02  0.45594000000E+02  0.51100000000E-03 0. -1.
         11   -1    0    0    0    0 -0.00000000000E+00 -0.00000000000E+00 -0.45593999997E+02  0.45594000000E+02  0.51100000000E-03 0.  1.
    9900012    2    1    2    0    0 -0.80118105545E+01  0.30353351382E+02  0.55862485005E+01  0.59301933752E+02  0.49999981260E+02 0.  0.
         12    1    1    2    0    0  0.80118105545E+01 -0.30353351382E+02 -0.55862485005E+01  0.31886066248E+02  0.00000000000E+00 0. -1.
         11    1    3    3    0    0 -0.15249701412E+02  0.78080999272E+01  0.28949587562E+00  0.17134865793E+02  0.51100000000E-03 0. -1.
        -11    1    3    3    0    0 -0.10528202508E+02  0.10666815293E+01 -0.59145597104E+01  0.12122824521E+02  0.51100000000E-03 0.  1.
         12    1    3    3    0    0  0.17766093365E+02  0.21478569925E+02  0.11211312335E+02  0.30044243438E+02  0.00000000000E+00 0. -1.
</event>
<event>
 7    1  0.1205909E-011  0.5930193E+02  0.7816164E-02  0.1266605E+00
        -11   -1    0    0    0    0  0.00000000000E+00  0.00000000000E+00  0.45593999997E+02  0.45594000000E+02  0.51100000000E-03 0.  1.
         11   -1    0    0    0    0 -0.00000000000E+00 -0.00000000000E+00 -0.45593999997E+02  0.45594000000E+02  0.51100000000E-03 0. -1.
    9900012    2    1    2    0    0 -0.30856243599E+01 -0.11540252466E+02  0.29563875221E+02  0.59301933721E+02  0.49999981203E+02 0.  0.
         12    1    1    2    0    0  0.30856243599E+01  0.11540252466E+02 -0.29563875221E+02  0.31886066279E+02  0.00000000000E+00 0. -1.
         11    1    3    3    0    0 -0.53778306586E+00  0.25904449444E+01  0.13859022253E+02  0.14109291751E+02  0.51100000000E-03 0. -1.
        -11    1    3    3    0    0 -0.12103921325E+02  0.54212161823E+01  0.19011692908E+02  0.23180572983E+02  0.51100000000E-03 0.  1.
         12    1    3    3    0    0  0.95560800307E+01 -0.19551913593E+02 -0.33068399404E+01  0.22012068987E+02  0.00000000000E+00 0. -1.
</event>
<event>
 7    1  0.1205909E-011  0.5930193E+02  0.7816164E-02  0.1266605E+00
        -11   -1    0    0    0    0  0.00000000000E+00  0.00000000000E+00  0.45593999997E+02  0.45594000000E+02  0.51100000000E-03 0.  1.
         11   -1    0    0    0    0 -0.00000000000E+00 -0.00000000000E+00 -0.45593999997E+02  0.45594000000E+02  0.51100000000E-03 0. -1.
    9900012    2    1    2    0    0 -0.22970867592E+02 -0.26162669705E+01  0.21959409596E+02  0.59301932814E+02  0.49999979549E+02 0.  0.
         12    1    1    2    0    0  0.22970867592E+02  0.26162669705E+01 -0.21959409596E+02  0.31886067186E+02  0.00000000000E+00 0. -1.
         11    1    3    3    0    0 -0.12232813682E+02 -0.28634253523E+01 -0.15237281864E+01  0.12655539624E+02  0.51100000000E-03 0. -1.
        -11    1    3    3    0    0 -0.13971608217E+02 -0.98189730092E+01 -0.37056508111E+01  0.17474264372E+02  0.51100000000E-03 0.  1.
         12    1    3    3    0    0  0.32335543076E+01  0.10066131391E+02  0.27188788593E+02  0.29172128819E+02  0.00000000000E+00 0. -1.
</event>
<event>
 7    1  0.1205909E-011  0.5930196E+02  0.7816164E-02  0.1266605E+00
        -11   -1    0    0    0    0  0.00000000000E+00  0.00000000000E+00  0.45593999997E+02  0.45594000000E+02  0.51100000000E-03 0.  1.
         11   -1    0    0    0    0 -0.00000000000E+00 -0.00000000000E+00 -0.45593999997E+02  0.45594000000E+02  0.51100000000E-03 0. -1.
    9900012    2    1    2    0    0  0.23046084180E+02  0.21835213866E+02 -0.29699859619E+01  0.59301962661E+02  0.50000033982E+02 0.  0.
         12    1    1    2    0    0 -0.23046084180E+02 -0.21835213866E+02  0.29699859619E+01  0.31886037339E+02  0.00000000000E+00 0. -1.
         11    1    3    3    0    0  0.14635311510E+02 -0.16374850387E+01  0.56652234010E+01  0.15778734318E+02  0.51100000000E-03 0. -1.
        -11    1    3    3    0    0  0.16888939362E+02  0.24511545906E+02  0.20576056851E+01  0.29837659038E+02  0.51100000000E-03 0.  1.
        -12    1    3    3    0    0 -0.84781666915E+01 -0.10388470012E+01 -0.10692815048E+02  0.13685569305E+02  0.00000000000E+00 0.  1.
</event>
<event>
 7    1  0.1205909E-011  0.5930195E+02  0.7816164E-02  0.1266605E+00
        -11   -1    0    0    0    0  0.00000000000E+00  0.00000000000E+00  0.45593999997E+02  0.45594000000E+02  0.51100000000E-03 0.  1.
         11   -1    0    0    0    0 -0.00000000000E+00 -0.00000000000E+00 -0.45593999997E+02  0.45594000000E+02  0.51100000000E-03 0. -1.
    9900012    2    1    2    0    0 -0.60151232295E+01  0.14781118805E+02  0.27605378358E+02  0.59301951406E+02  0.50000013457E+02 0.  0.
         12    1    1    2    0    0  0.60151232295E+01 -0.14781118805E+02 -0.27605378358E+02  0.31886048594E+02  0.00000000000E+00 0. -1.
         11    1    3    3    0    0 -0.19767504424E+01  0.13296920069E+02  0.16302896468E+02  0.21130548009E+02  0.51100000000E-03 0. -1.
        -11    1    3    3    0    0  0.11311788838E+02  0.61704506515E+01  0.16830390061E+02  0.21196534100E+02  0.51100000000E-03 0.  1.
         12    1    3    3    0    0 -0.15350161626E+02 -0.46862519149E+01 -0.55279081709E+01  0.16974869298E+02  0.00000000000E+00 0. -1.
</event>
<event>
 7    1  0.1205909E-011  0.5930193E+02  0.7816164E-02  0.1266605E+00
        -11   -1    0    0    0    0  0.00000000000E+00  0.00000000000E+00  0.45593999997E+02  0.45594000000E+02  0.51100000000E-03 0.  1.
         11   -1    0    0    0    0 -0.00000000000E+00 -0.00000000000E+00 -0.45593999997E+02  0.45594000000E+02  0.51100000000E-03 0. -1.
    9900012    2    1    2    0    0 -0.77251200186E+01 -0.28250522565E+02  0.12607625054E+02  0.59301926018E+02  0.49999967154E+02 0.  0.
         12    1    1    2    0    0  0.77251200186E+01  0.28250522565E+02 -0.12607625054E+02  0.31886073982E+02  0.00000000000E+00 0. -1.
         11    1    3    3    0    0 -0.48942657076E+01 -0.19977676901E+02 -0.92506210269E+00  0.20589248440E+02  0.51100000000E-03 0. -1.
        -11    1    3    3    0    0  0.30959907978E+01 -0.66308610940E+01  0.24810340183E+02  0.25867092186E+02  0.51100000000E-03 0.  1.
         12    1    3    3    0    0 -0.59268451088E+01 -0.16419845696E+01 -0.11277653026E+02  0.12845585392E+02  0.00000000000E+00 0. -1.
</event>
<event>
 7    1  0.1205909E-011  0.5930194E+02  0.7816164E-02  0.1266605E+00
        -11   -1    0    0    0    0  0.00000000000E+00  0.00000000000E+00  0.45593999997E+02  0.45594000000E+02  0.51100000000E-03 0. -1.
         11   -1    0    0    0    0 -0.00000000000E+00 -0.00000000000E+00 -0.45593999997E+02  0.45594000000E+02  0.51100000000E-03 0.  1.
    9900012    2    1    2    0    0 -0.76550215622E+01 -0.19554362969E+02 -0.23994756840E+02  0.59301940004E+02  0.49999992661E+02 0.  0.
         12    1    1    2    0    0  0.76550215622E+01  0.19554362969E+02  0.23994756840E+02  0.31886059996E+02  0.00000000000E+00 0. -1.
         11    1    3    3    0    0 -0.95524984020E+01 -0.16409968923E+02  0.45521089425E+01  0.19525854703E+02  0.51100000000E-03 0. -1.
        -11    1    3    3    0    0  0.10181192246E+02 -0.11249944813E+02 -0.10974086409E+02  0.18725610981E+02  0.51100000000E-03 0.  1.
        -12    1    3    3    0    0 -0.82837154062E+01  0.81055507671E+01 -0.17572779374E+02  0.21050474320E+02  0.00000000000E+00 0.  1.
</event>
<event>
 7    1  0.1205909E-011  0.5930196E+02  0.7816164E-02  0.1266605E+00
        -11   -1    0    0    0    0  0.00000000000E+00  0.00000000000E+00  0.45593999997E+02  0.45594000000E+02  0.51100000000E-03 0. -1.
         11   -1    0    0    0    0 -0.00000000000E+00 -0.00000000000E+00 -0.45593999997E+02  0.45594000000E+02  0.51100000000E-03 0.  1.
    9900012    2    1    2    0    0  0.30511928531E+02  0.92586489486E+01 -0.13858949068E+00  0.59301959636E+02  0.50000028466E+02 0.  0.
         12    1    1    2    0    0 -0.30511928531E+02 -0.92586489486E+01  0.13858949068E+00  0.31886040364E+02  0.00000000000E+00 0. -1.
         11    1    3    3    0    0 -0.12198637972E+01 -0.15069429918E+02 -0.22371080242E+01  0.15283338585E+02  0.51100000000E-03 0. -1.
        -11    1    3    3    0    0  0.67207337237E+01  0.83353556718E+01 -0.72075284785E+01  0.12907164018E+02  0.51100000000E-03 0.  1.
        -12    1    3    3    0    0  0.25011058604E+02  0.15992723195E+02  0.93060470121E+01  0.31111457033E+02  0.00000000000E+00 0.  1.
</event>
<event>
 7    1  0.1205909E-011  0.5930197E+02  0.7816164E-02  0.1266605E+00
        -11   -1    0    0    0    0  0.00000000000E+00  0.00000000000E+00  0.45593999997E+02  0.45594000000E+02  0.51100000000E-03 0. -1.
         11   -1    0    0    0    0 -0.00000000000E+00 -0.00000000000E+00 -0.45593999997E+02  0.45594000000E+02  0.51100000000E-03 0.  1.
    9900012    2    1    2    0    0 -0.12960026192E+02 -0.25986936345E+02 -0.13169511808E+02  0.59301965741E+02  0.50000039600E+02 0.  0.
         12    1    1    2    0    0  0.12960026192E+02  0.25986936345E+02  0.13169511808E+02  0.31886034259E+02  0.00000000000E+00 0. -1.
         11    1    3    3    0    0 -0.65975031139E+01 -0.17840064809E+02 -0.25084326928E+00  0.19022562455E+02  0.51100000000E-03 0. -1.
        -11    1    3    3    0    0  0.16986220119E+01 -0.98207045742E+01 -0.24281522918E+02  0.26247360069E+02  0.51100000000E-03 0.  1.
        -12    1    3    3    0    0 -0.80611450902E+01  0.16738330383E+01  0.11362854380E+02  0.14032043218E+02  0.00000000000E+00 0.  1.
</event>
<event>
 7    1  0.1205909E-011  0.5930192E+02  0.7816164E-02  0.1266605E+00
        -11   -1    0    0    0    0  0.00000000000E+00  0.00000000000E+00  0.45593999997E+02  0.45594000000E+02  0.51100000000E-03 0. -1.
         11   -1    0    0    0    0 -0.00000000000E+00 -0.00000000000E+00 -0.45593999997E+02  0.45594000000E+02  0.51100000000E-03 0.  1.
    9900012    2    1    2    0    0 -0.74474253122E+01 -0.57412913453E+01 -0.30467942122E+02  0.59301920479E+02  0.49999957052E+02 0.  0.
         12    1    1    2    0    0  0.74474253122E+01  0.57412913453E+01  0.30467942122E+02  0.31886079521E+02  0.00000000000E+00 0. -1.
         11    1    3    3    0    0  0.56269349026E+01  0.29149066939E+01 -0.18538043525E+02  0.19591277024E+02  0.51100000000E-03 0. -1.
        -11    1    3    3    0    0 -0.65366020110E+01 -0.94733881566E+01 -0.23629412046E+02  0.26283480799E+02  0.51100000000E-03 0.  1.
        -12    1    3    3    0    0 -0.65377582039E+01  0.81719011746E+00  0.11699513449E+02  0.13427162655E+02  0.00000000000E+00 0.  1.
</event>
<event>
 7    1  0.1205909E-011  0.5930194E+02  0.7816164E-02  0.1266605E+00
        -11   -1    0    0    0    0  0.00000000000E+00  0.00000000000E+00  0.45593999997E+02  0.45594000000E+02  0.51100000000E-03 0.  1.
         11   -1    0    0    0    0 -0.00000000000E+00 -0.00000000000E+00 -0.45593999997E+02  0.45594000000E+02  0.51100000000E-03 0. -1.
    9900012    2    1    2    0    0 -0.17996329301E+02 -0.20334098108E+02  0.16714591447E+02  0.59301937505E+02  0.49999988104E+02 0.  0.
         12    1    1    2    0    0  0.17996329301E+02  0.20334098108E+02 -0.16714591447E+02  0.31886062495E+02  0.00000000000E+00 0. -1.
         11    1    3    3    0    0 -0.68631753508E+01 -0.33274054013E+01  0.38181079985E+01  0.85295223518E+01  0.51100000000E-03 0. -1.
        -11    1    3    3    0    0 -0.28088416350E+02 -0.15422763489E+02  0.93189167689E+01  0.33371589364E+02  0.51100000000E-03 0.  1.
         12    1    3    3    0    0  0.16955262399E+02 -0.15839292178E+01  0.35775666796E+01  0.17400825789E+02  0.00000000000E+00 0. -1.
</event>
<event>
 7    1  0.1205909E-011  0.5930194E+02  0.7816164E-02  0.1266605E+00
        -11   -1    0    0    0    0  0.00000000000E+00  0.00000000000E+00  0.45593999997E+02  0.45594000000E+02  0.51100000000E-03 0.  1.
         11   -1    0    0    0    0 -0.00000000000E+00 -0.00000000000E+00 -0.45593999997E+02  0.45594000000E+02  0.51100000000E-03 0. -1.
    9900012    2    1    2    0    0  0.19354665631E+02  0.11415192342E+02  0.22623242377E+02  0.59301940451E+02  0.49999993477E+02 0.  0.
         12    1    1    2    0    0 -0.19354665631E+02 -0.11415192342E+02 -0.22623242377E+02  0.31886059549E+02  0.00000000000E+00 0. -1.
         11    1    3    3    0    0  0.22110265437E+02  0.17270267992E+01  0.12639044407E+02  0.25526298264E+02  0.51100000000E-03 0. -1.
        -11    1    3    3    0    0  0.56715698437E+01  0.18570784111E+02  0.29086991541E+01  0.19634185953E+02  0.51100000000E-03 0.  1.
         12    1    3    3    0    0 -0.84271696496E+01 -0.88826185684E+01  0.70754988156E+01  0.14141456234E+02  0.00000000000E+00 0. -1.
</event>
<event>
 7    1  0.1205909E-011  0.5930197E+02  0.7816164E-02  0.1266605E+00
        -11   -1    0    0    0    0  0.00000000000E+00  0.00000000000E+00  0.45593999997E+02  0.45594000000E+02  0.51100000000E-03 0.  1.
         11   -1    0    0    0    0 -0.00000000000E+00 -0.00000000000E+00 -0.45593999997E+02  0.45594000000E+02  0.51100000000E-03 0. -1.
    9900012    2    1    2    0    0 -0.10573944161E+02 -0.95251360941E+01  0.28533884032E+02  0.59301967781E+02  0.50000043320E+02 0.  0.
         12    1    1    2    0    0  0.10573944161E+02  0.95251360941E+01 -0.28533884032E+02  0.31886032219E+02  0.00000000000E+00 0. -1.
         11    1    3    3    0    0 -0.28717103400E+01  0.24699818455E+01  0.19185465251E+02  0.19555807520E+02  0.51100000000E-03 0.  1.
        -11    1    3    3    0    0  0.29205065300E+01  0.87558991952E+00 -0.12152282007E+02  0.12528925506E+02  0.51100000000E-03 0. -1.
         12    1    3    3    0    0 -0.10622740351E+02 -0.12870707859E+02  0.21500700787E+02  0.27217234755E+02  0.00000000000E+00 0. -1.
</event>
<event>
 7    1  0.1205909E-011  0.5930194E+02  0.7816164E-02  0.1266605E+00
        -11   -1    0    0    0    0  0.00000000000E+00  0.00000000000E+00  0.45593999997E+02  0.45594000000E+02  0.51100000000E-03 0.  1.
         11   -1    0    0    0    0 -0.00000000000E+00 -0.00000000000E+00 -0.45593999997E+02  0.45594000000E+02  0.51100000000E-03 0. -1.
    9900012    2    1    2    0    0  0.29034854947E+02 -0.24320497284E+01  0.12953103633E+02  0.59301944091E+02  0.50000000116E+02 0.  0.
         12    1    1    2    0    0 -0.29034854947E+02  0.24320497284E+01 -0.12953103633E+02  0.31886055909E+02  0.00000000000E+00 0. -1.
         11    1    3    3    0    0 -0.71277326545E+00  0.37528326784E+01 -0.10533459241E+02  0.11204711629E+02  0.51100000000E-03 0. -1.
        -11    1    3    3    0    0  0.34404285619E+00  0.45584364639E+01 -0.42728278661E+01  0.62573769838E+01  0.51100000000E-03 0.  1.
        -12    1    3    3    0    0  0.29403585356E+02 -0.10743318871E+02  0.27759390741E+02  0.41839855478E+02  0.00000000000E+00 0.  1.
</event>
<event>
 7    1  0.1205909E-011  0.5930191E+02  0.7816164E-02  0.1266605E+00
        -11   -1    0    0    0    0  0.00000000000E+00  0.00000000000E+00  0.45593999997E+02  0.45594000000E+02  0.51100000000E-03 0.  1.
         11   -1    0    0    0    0 -0.00000000000E+00 -0.00000000000E+00 -0.45593999997E+02  0.45594000000E+02  0.51100000000E-03 0. -1.
    9900012    2    1    2    0    0 -0.29595534430E+02 -0.10678431064E+02 -0.51766807673E+01  0.59301912564E+02  0.49999942618E+02 0.  0.
         12    1    1    2    0    0  0.29595534430E+02  0.10678431064E+02  0.51766807673E+01  0.31886087436E+02  0.00000000000E+00 0. -1.
         11    1    3    3    0    0 -0.14897753546E+02 -0.79714417001E+01  0.68786152735E+01  0.18242869617E+02  0.51100000000E-03 0.  1.
        -11    1    3    3    0    0 -0.68251166376E+01  0.16764202834E+02 -0.73512832644E+01  0.19536173619E+02  0.51100000000E-03 0. -1.
         12    1    3    3    0    0 -0.78726642466E+01 -0.19471192198E+02 -0.47040127764E+01  0.21522869329E+02  0.00000000000E+00 0. -1.
</event>
<event>
 7    1  0.1205909E-011  0.5930186E+02  0.7816164E-02  0.1266605E+00
        -11   -1    0    0    0    0  0.00000000000E+00  0.00000000000E+00  0.45593999997E+02  0.45594000000E+02  0.51100000000E-03 0.  1.
         11   -1    0    0    0    0 -0.00000000000E+00 -0.00000000000E+00 -0.45593999997E+02  0.45594000000E+02  0.51100000000E-03 0. -1.
    9900012    2    1    2    0    0 -0.28115498073E+02  0.66102393955E+01 -0.13511082156E+02  0.59301861354E+02  0.49999849223E+02 0.  0.
         12    1    1    2    0    0  0.28115498073E+02 -0.66102393955E+01  0.13511082156E+02  0.31886138646E+02  0.00000000000E+00 0. -1.
         11    1    3    3    0    0 -0.18287703759E+02  0.66685251673E+01  0.11149443052E+02  0.22432552626E+02  0.51100000000E-03 0. -1.
        -11    1    3    3    0    0 -0.16872643311E+02  0.13728537988E+01 -0.79989958316E+01  0.18723107500E+02  0.51100000000E-03 0.  1.
         12    1    3    3    0    0  0.70448489976E+01 -0.14311395706E+01 -0.16661529376E+02  0.18146201228E+02  0.00000000000E+00 0. -1.
</event>
<event>
 7    1  0.1205909E-011  0.5930192E+02  0.7816164E-02  0.1266605E+00
        -11   -1    0    0    0    0  0.00000000000E+00  0.00000000000E+00  0.45593999997E+02  0.45594000000E+02  0.51100000000E-03 0.  1.
         11   -1    0    0    0    0 -0.00000000000E+00 -0.00000000000E+00 -0.45593999997E+02  0.45594000000E+02  0.51100000000E-03 0. -1.
    9900012    2    1    2    0    0  0.32492227600E+01 -0.12118144396E+02  0.29314074341E+02  0.59301924252E+02  0.49999963933E+02 0.  0.
         12    1    1    2    0    0 -0.32492227600E+01  0.12118144396E+02 -0.29314074341E+02  0.31886075748E+02  0.00000000000E+00 0. -1.
         11    1    3    3    0    0 -0.54293524943E+01 -0.13449641468E+02  0.91425949783E+01  0.17145196625E+02  0.51100000000E-03 0. -1.
        -11    1    3    3    0    0  0.21035448833E+02  0.43778157192E+00  0.34115529018E+01  0.21314794247E+02  0.51100000000E-03 0.  1.
        -12    1    3    3    0    0 -0.12356873579E+02  0.89371549919E+00  0.16759926461E+02  0.20841933380E+02  0.00000000000E+00 0.  1.
</event>
<event>
 7    1  0.1205909E-011  0.5930193E+02  0.7816164E-02  0.1266605E+00
        -11   -1    0    0    0    0  0.00000000000E+00  0.00000000000E+00  0.45593999997E+02  0.45594000000E+02  0.51100000000E-03 0. -1.
         11   -1    0    0    0    0 -0.00000000000E+00 -0.00000000000E+00 -0.45593999997E+02  0.45594000000E+02  0.51100000000E-03 0.  1.
    9900012    2    1    2    0    0  0.88160839004E+01 -0.29467077166E+02  0.84077209454E+01  0.59301925554E+02  0.49999966309E+02 0.  0.
         12    1    1    2    0    0 -0.88160839004E+01  0.29467077166E+02 -0.84077209454E+01  0.31886074446E+02  0.00000000000E+00 0. -1.
         11    1    3    3    0    0  0.13506617446E+01  0.50937077502E+01  0.54360238843E+00  0.52977022954E+01  0.51100000000E-03 0. -1.
        -11    1    3    3    0    0 -0.42231884515E+01  0.40428268275E+01 -0.86331424366E+01  0.10426452803E+02  0.51100000000E-03 0.  1.
        -12    1    3    3    0    0  0.11688610607E+02 -0.38603611744E+02  0.16497260994E+02  0.43577770456E+02  0.00000000000E+00 0.  1.
</event>
<event>
 7    1  0.1205909E-011  0.5930194E+02  0.7816164E-02  0.1266605E+00
        -11   -1    0    0    0    0  0.00000000000E+00  0.00000000000E+00  0.45593999997E+02  0.45594000000E+02  0.51100000000E-03 0. -1.
         11   -1    0    0    0    0 -0.00000000000E+00 -0.00000000000E+00 -0.45593999997E+02  0.45594000000E+02  0.51100000000E-03 0.  1.
    9900012    2    1    2    0    0 -0.11433513665E+02 -0.17298428545E+02  0.24223133596E+02  0.59301936178E+02  0.49999985684E+02 0.  0.
         12    1    1    2    0    0  0.11433513665E+02  0.17298428545E+02 -0.24223133596E+02  0.31886063822E+02  0.00000000000E+00 0. -1.
         11    1    3    3    0    0 -0.32384797689E+01 -0.24821998806E+02  0.28216391332E+02  0.37719810657E+02  0.51100000000E-03 0. -1.
        -11    1    3    3    0    0  0.93177482757E+00 -0.26095191083E+01 -0.70772812810E+01  0.76003753130E+01  0.51100000000E-03 0.  1.
        -12    1    3    3    0    0 -0.91268087237E+01  0.10133089370E+02  0.30840235449E+01  0.13981750208E+02  0.00000000000E+00 0.  1.
</event>
<event>
 7    1  0.1205909E-011  0.5930193E+02  0.7816164E-02  0.1266605E+00
        -11   -1    0    0    0    0  0.00000000000E+00  0.00000000000E+00  0.45593999997E+02  0.45594000000E+02  0.51100000000E-03 0.  1.
         11   -1    0    0    0    0 -0.00000000000E+00 -0.00000000000E+00 -0.45593999997E+02  0.45594000000E+02  0.51100000000E-03 0. -1.
    9900012    2    1    2    0    0  0.18835490181E+02  0.16299238297E+02  0.19906805758E+02  0.59301925063E+02  0.49999965413E+02 0.  0.
         12    1    1    2    0    0 -0.18835490181E+02 -0.16299238297E+02 -0.19906805758E+02  0.31886074937E+02  0.00000000000E+00 0. -1.
         11    1    3    3    0    0  0.13100541721E+02 -0.10921395857E+01  0.25813642741E+01  0.13397029672E+02  0.51100000000E-03 0. -1.
        -11    1    3    3    0    0  0.20446592817E+02  0.18578893068E+02  0.96102509891E+01  0.29250561529E+02  0.51100000000E-03 0.  1.
         12    1    3    3    0    0 -0.14711644357E+02 -0.11875151854E+01  0.77151904946E+01  0.16654333861E+02  0.00000000000E+00 0. -1.
</event>
<event>
 7    1  0.1205909E-011  0.5930192E+02  0.7816164E-02  0.1266605E+00
        -11   -1    0    0    0    0  0.00000000000E+00  0.00000000000E+00  0.45593999997E+02  0.45594000000E+02  0.51100000000E-03 0.  1.
         11   -1    0    0    0    0 -0.00000000000E+00 -0.00000000000E+00 -0.45593999997E+02  0.45594000000E+02  0.51100000000E-03 0. -1.
    9900012    2    1    2    0    0  0.13117065856E+02  0.13267497852E+02  0.25858037307E+02  0.59301921387E+02  0.49999958709E+02 0.  0.
         12    1    1    2    0    0 -0.13117065856E+02 -0.13267497852E+02 -0.25858037307E+02  0.31886078613E+02  0.00000000000E+00 0. -1.
         11    1    3    3    0    0  0.20410415781E+02  0.13772929000E+02  0.21281804935E+02  0.32545258750E+02  0.51100000000E-03 0. -1.
        -11    1    3    3    0    0  0.48411466495E+01  0.38471519325E+01 -0.70635792526E+01  0.93878342014E+01  0.51100000000E-03 0.  1.
        -12    1    3    3    0    0 -0.12134496574E+02 -0.43525830797E+01  0.11639811624E+02  0.17368828436E+02  0.00000000000E+00 0.  1.
</event>
<event>
 7    1  0.1205909E-011  0.5930192E+02  0.7816164E-02  0.1266605E+00
        -11   -1    0    0    0    0  0.00000000000E+00  0.00000000000E+00  0.45593999997E+02  0.45594000000E+02  0.51100000000E-03 0.  1.
         11   -1    0    0    0    0 -0.00000000000E+00 -0.00000000000E+00 -0.45593999997E+02  0.45594000000E+02  0.51100000000E-03 0. -1.
    9900012    2    1    2    0    0  0.17121522689E+02  0.58645455439E+01  0.26252287821E+02  0.59301920757E+02  0.49999957561E+02 0.  0.
         12    1    1    2    0    0 -0.17121522689E+02 -0.58645455439E+01 -0.26252287821E+02  0.31886079243E+02  0.00000000000E+00 0. -1.
         11    1    3    3    0    0 -0.90514978018E+00 -0.32521721242E+01 -0.50617989305E+01  0.60842196150E+01  0.51100000000E-03 0. -1.
        -11    1    3    3    0    0 -0.86492826326E+00 -0.51922901214E+01  0.28923383153E+02  0.29398470554E+02  0.51100000000E-03 0.  1.
         12    1    3    3    0    0  0.18891600732E+02  0.14309007789E+02  0.23907035985E+01  0.23819230589E+02  0.00000000000E+00 0. -1.
</event>
<event>
 7    1  0.1205909E-011  0.5930191E+02  0.7816164E-02  0.1266605E+00
        -11   -1    0    0    0    0  0.00000000000E+00  0.00000000000E+00  0.45593999997E+02  0.45594000000E+02  0.51100000000E-03 0.  1.
         11   -1    0    0    0    0 -0.00000000000E+00 -0.00000000000E+00 -0.45593999997E+02  0.45594000000E+02  0.51100000000E-03 0. -1.
    9900012    2    1    2    0    0 -0.13520745615E+02 -0.28844216061E+02 -0.13869042567E+01  0.59301907960E+02  0.49999934221E+02 0.  0.
         12    1    1    2    0    0  0.13520745615E+02  0.28844216061E+02  0.13869042567E+01  0.31886092040E+02  0.00000000000E+00 0. -1.
         11    1    3    3    0    0  0.26179026850E+01 -0.84533408331E+00  0.57164003273E+01  0.63439133935E+01  0.51100000000E-03 0.  1.
        -11    1    3    3    0    0  0.98009756251E+01  0.40819871251E+01  0.17569105403E+01  0.10761434709E+02  0.51100000000E-03 0. -1.
         12    1    3    3    0    0 -0.25939623925E+02 -0.32080869102E+02 -0.88602151243E+01  0.42196559858E+02  0.00000000000E+00 0. -1.
</event>
<event>
 7    1  0.1257815E-011  0.5930195E+02  0.7816164E-02  0.1266605E+00
        -11   -1    0    0    0    0  0.00000000000E+00  0.00000000000E+00  0.45593999997E+02  0.45594000000E+02  0.51100000000E-03 0. -1.
         11   -1    0    0    0    0 -0.00000000000E+00 -0.00000000000E+00 -0.45593999997E+02  0.45594000000E+02  0.51100000000E-03 0.  1.
    9900012    2    1    2    0    0 -0.94258743329E+01  0.51418261096E+01 -0.30023899574E+02  0.59301952451E+02  0.50000015362E+02 0.  0.
         12    1    1    2    0    0  0.94258743329E+01 -0.51418261096E+01  0.30023899574E+02  0.31886047549E+02  0.00000000000E+00 0. -1.
         11    1    3    3    0    0 -0.18946221083E+01 -0.99061674466E+01 -0.63894380877E+01  0.11939290840E+02  0.51100000000E-03 0. -1.
        -11    1    3    3    0    0 -0.98112729744E+01  0.75349999171E+01 -0.32940612662E+02  0.35186947351E+02  0.51100000000E-03 0.  1.
         12    1    3    3    0    0  0.22800207499E+01  0.75129936391E+01  0.93061511755E+01  0.12175714260E+02  0.00000000000E+00 0. -1.
</event>
<event>
 7    1  0.1205909E-011  0.5930202E+02  0.7816164E-02  0.1266604E+00
        -11   -1    0    0    0    0  0.00000000000E+00  0.00000000000E+00  0.45593999997E+02  0.45594000000E+02  0.51100000000E-03 0.  1.
         11   -1    0    0    0    0 -0.00000000000E+00 -0.00000000000E+00 -0.45593999997E+02  0.45594000000E+02  0.51100000000E-03 0. -1.
    9900012    2    1    2    0    0  0.14105274084E+02  0.25333851928E+01  0.28484007748E+02  0.59302023538E+02  0.50000145008E+02 0.  0.
         12    1    1    2    0    0 -0.14105274084E+02 -0.25333851928E+01 -0.28484007748E+02  0.31885976462E+02  0.00000000000E+00 0. -1.
         11    1    3    3    0    0  0.66519136420E+01  0.20111160941E+02  0.25444955078E+01  0.21334976146E+02  0.51100000000E-03 0. -1.
        -11    1    3    3    0    0  0.50331321354E+01 -0.14158822764E+00  0.17936580116E+02  0.18629905336E+02  0.51100000000E-03 0.  1.
        -12    1    3    3    0    0  0.24202283071E+01 -0.17436187521E+02  0.80029321240E+01  0.19337142056E+02  0.00000000000E+00 0.  1.
</event>
<event>
 7    1  0.1205909E-011  0.5930198E+02  0.7816164E-02  0.1266605E+00
        -11   -1    0    0    0    0  0.00000000000E+00  0.00000000000E+00  0.45593999997E+02  0.45594000000E+02  0.51100000000E-03 0.  1.
         11   -1    0    0    0    0 -0.00000000000E+00 -0.00000000000E+00 -0.45593999997E+02  0.45594000000E+02  0.51100000000E-03 0. -1.
    9900012    2    1    2    0    0 -0.17129447080E+02 -0.22772333362E+02  0.14308071725E+02  0.59301983621E+02  0.50000072209E+02 0.  0.
         12    1    1    2    0    0  0.17129447080E+02  0.22772333362E+02 -0.14308071725E+02  0.31886016379E+02  0.00000000000E+00 0. -1.
         11    1    3    3    0    0  0.26958170231E+01 -0.10775784815E+02 -0.14110385310E+02  0.17957949261E+02  0.51100000000E-03 0. -1.
        -11    1    3    3    0    0  0.36662286078E+00 -0.63799590162E+01  0.46665859033E+00  0.64075002826E+01  0.51100000000E-03 0.  1.
        -12    1    3    3    0    0 -0.20191886964E+02 -0.56165895304E+01  0.27951798444E+02  0.34936534078E+02  0.00000000000E+00 0.  1.
</event>
<event>
 7    1  0.1205909E-011  0.5930194E+02  0.7816164E-02  0.1266605E+00
        -11   -1    0    0    0    0  0.00000000000E+00  0.00000000000E+00  0.45593999997E+02  0.45594000000E+02  0.51100000000E-03 0.  1.
         11   -1    0    0    0    0 -0.00000000000E+00 -0.00000000000E+00 -0.45593999997E+02  0.45594000000E+02  0.51100000000E-03 0. -1.
    9900012    2    1    2    0    0 -0.12989213994E+01  0.14392484133E+02  0.28423401017E+02  0.59301944714E+02  0.50000001251E+02 0.  0.
         12    1    1    2    0    0  0.12989213994E+01 -0.14392484133E+02 -0.28423401017E+02  0.31886055286E+02  0.00000000000E+00 0. -1.
         11    1    3    3    0    0  0.49412635898E+01 -0.98028609516E+01  0.10175067608E+02  0.14968105083E+02  0.51100000000E-03 0. -1.
        -11    1    3    3    0    0 -0.27594585786E+01  0.28334319673E+02  0.23410306086E+02  0.36857709021E+02  0.51100000000E-03 0.  1.
         12    1    3    3    0    0 -0.34807264105E+01 -0.41389745880E+01 -0.51619726762E+01  0.74761306098E+01  0.00000000000E+00 0. -1.
</event>
<event>
 7    1  0.1205909E-011  0.5930195E+02  0.7816164E-02  0.1266605E+00
        -11   -1    0    0    0    0  0.00000000000E+00  0.00000000000E+00  0.45593999997E+02  0.45594000000E+02  0.51100000000E-03 0.  1.
         11   -1    0    0    0    0 -0.00000000000E+00 -0.00000000000E+00 -0.45593999997E+02  0.45594000000E+02  0.51100000000E-03 0. -1.
    9900012    2    1    2    0    0 -0.67883231138E+01 -0.22685431255E+02  0.21354391179E+02  0.59301950628E+02  0.50000012038E+02 0.  0.
         12    1    1    2    0    0  0.67883231138E+01  0.22685431255E+02 -0.21354391179E+02  0.31886049372E+02  0.00000000000E+00 0. -1.
         11    1    3    3    0    0 -0.96332578738E+00 -0.89779893820E+00 -0.54108392924E+01  0.55687720025E+01  0.51100000000E-03 0. -1.
        -11    1    3    3    0    0 -0.13411423019E+02  0.67477967692E+01  0.16891959551E+02  0.22599498366E+02  0.51100000000E-03 0.  1.
        -12    1    3    3    0    0  0.75864256928E+01 -0.28535429086E+02  0.98732709200E+01  0.31133680260E+02  0.00000000000E+00 0.  1.
</event>
<event>
 7    1  0.1205909E-011  0.5930194E+02  0.7816164E-02  0.1266605E+00
        -11   -1    0    0    0    0  0.00000000000E+00  0.00000000000E+00  0.45593999997E+02  0.45594000000E+02  0.51100000000E-03 0.  1.
         11   -1    0    0    0    0 -0.00000000000E+00 -0.00000000000E+00 -0.45593999997E+02  0.45594000000E+02  0.51100000000E-03 0. -1.
    9900012    2    1    2    0    0  0.16887394180E+02 -0.26376395394E+02 -0.59852068513E+01  0.59301936943E+02  0.49999987080E+02 0.  0.
         12    1    1    2    0    0 -0.16887394180E+02  0.26376395394E+02  0.59852068513E+01  0.31886063057E+02  0.00000000000E+00 0. -1.
         11    1    3    3    0    0 -0.63956017012E+01 -0.89324348061E+01 -0.11080022041E+02  0.15603172799E+02  0.51100000000E-03 0. -1.
        -11    1    3    3    0    0  0.25155519415E+01 -0.89613579449E+01 -0.12219762346E+02  0.15360876597E+02  0.51100000000E-03 0.  1.
        -12    1    3    3    0    0  0.20767443940E+02 -0.84826026432E+01  0.17314577536E+02  0.28337887547E+02  0.00000000000E+00 0.  1.
</event>
<event>
 7    1  0.1205909E-011  0.5930194E+02  0.7816164E-02  0.1266605E+00
        -11   -1    0    0    0    0  0.00000000000E+00  0.00000000000E+00  0.45593999997E+02  0.45594000000E+02  0.51100000000E-03 0.  1.
         11   -1    0    0    0    0 -0.00000000000E+00 -0.00000000000E+00 -0.45593999997E+02  0.45594000000E+02  0.51100000000E-03 0. -1.
    9900012    2    1    2    0    0  0.14788635768E+02 -0.27897866179E+02 -0.44413936666E+01  0.59301942500E+02  0.49999997213E+02 0.  0.
         12    1    1    2    0    0 -0.14788635768E+02  0.27897866179E+02  0.44413936666E+01  0.31886057500E+02  0.00000000000E+00 0. -1.
         11    1    3    3    0    0  0.13101306167E+02 -0.12838766850E+02  0.10942413026E+02  0.21359179773E+02  0.51100000000E-03 0. -1.
        -11    1    3    3    0    0  0.13595909590E+01 -0.62402802964E+01  0.95525515022E+01  0.11490901889E+02  0.51100000000E-03 0.  1.
         12    1    3    3    0    0  0.32773864191E+00 -0.88188190328E+01 -0.24936358195E+02  0.26451860838E+02  0.00000000000E+00 0. -1.
</event>
<event>
 7    1  0.1205909E-011  0.5930196E+02  0.7816164E-02  0.1266605E+00
        -11   -1    0    0    0    0  0.00000000000E+00  0.00000000000E+00  0.45593999997E+02  0.45594000000E+02  0.51100000000E-03 0.  1.
         11   -1    0    0    0    0 -0.00000000000E+00 -0.00000000000E+00 -0.45593999997E+02  0.45594000000E+02  0.51100000000E-03 0. -1.
    9900012    2    1    2    0    0  0.23795269593E+02 -0.36519750683E+00  0.21221954338E+02  0.59301959635E+02  0.50000028463E+02 0.  0.
         12    1    1    2    0    0 -0.23795269593E+02  0.36519750683E+00 -0.21221954338E+02  0.31886040365E+02  0.00000000000E+00 0. -1.
         11    1    3    3    0    0  0.59642139830E+01  0.95606827574E+01 -0.49728015159E+01  0.12316950045E+02  0.51100000000E-03 0. -1.
        -11    1    3    3    0    0  0.17439484070E+02  0.56884436399E+01  0.25418685719E+02  0.31346508252E+02  0.51100000000E-03 0.  1.
         12    1    3    3    0    0  0.39157154068E+00 -0.15614323904E+02  0.77607013567E+00  0.15638501338E+02  0.00000000000E+00 0. -1.
</event>
<event>
 7    1  0.1205909E-011  0.5930195E+02  0.7816164E-02  0.1266605E+00
        -11   -1    0    0    0    0  0.00000000000E+00  0.00000000000E+00  0.45593999997E+02  0.45594000000E+02  0.51100000000E-03 0.  1.
         11   -1    0    0    0    0 -0.00000000000E+00 -0.00000000000E+00 -0.45593999997E+02  0.45594000000E+02  0.51100000000E-03 0. -1.
    9900012    2    1    2    0    0 -0.30303103317E+02  0.30873969322E+01  0.94292276794E+01  0.59301946229E+02  0.50000004014E+02 0.  0.
         12    1    1    2    0    0  0.30303103317E+02 -0.30873969322E+01 -0.94292276794E+01  0.31886053771E+02  0.00000000000E+00 0. -1.
         11    1    3    3    0    0  0.67769105210E+01  0.21928629413E+01  0.45505655244E+01  0.84523849262E+01  0.51100000000E-03 0. -1.
        -11    1    3    3    0    0  0.55705617984E+01 -0.49872555849E+01 -0.31301656893E+00  0.74834388253E+01  0.51100000000E-03 0.  1.
        -12    1    3    3    0    0 -0.42650575637E+02  0.58817895758E+01  0.51916787240E+01  0.43366122477E+02  0.00000000000E+00 0.  1.
</event>
<event>
 7    1  0.1205909E-011  0.5930194E+02  0.7816164E-02  0.1266605E+00
        -11   -1    0    0    0    0  0.00000000000E+00  0.00000000000E+00  0.45593999997E+02  0.45594000000E+02  0.51100000000E-03 0.  1.
         11   -1    0    0    0    0 -0.00000000000E+00 -0.00000000000E+00 -0.45593999997E+02  0.45594000000E+02  0.51100000000E-03 0. -1.
    9900012    2    1    2    0    0  0.20105589694E+02 -0.20490506251E+01  0.24663480480E+02  0.59301943254E+02  0.49999998589E+02 0.  0.
         12    1    1    2    0    0 -0.20105589694E+02  0.20490506251E+01 -0.24663480480E+02  0.31886056746E+02  0.00000000000E+00 0. -1.
         11    1    3    3    0    0  0.18609332616E+02 -0.41414135618E+01  0.70219120808E+01  0.20316638901E+02  0.51100000000E-03 0.  1.
        -11    1    3    3    0    0 -0.13222099176E+01 -0.95635316214E+01 -0.67671043177E+01  0.11789956626E+02  0.51100000000E-03 0. -1.
        -12    1    3    3    0    0  0.28184669957E+01  0.11655894558E+02  0.24408672717E+02  0.27195347726E+02  0.00000000000E+00 0.  1.
</event>
<event>
 7    1  0.1205909E-011  0.5930194E+02  0.7816164E-02  0.1266605E+00
        -11   -1    0    0    0    0  0.00000000000E+00  0.00000000000E+00  0.45593999997E+02  0.45594000000E+02  0.51100000000E-03 0.  1.
         11   -1    0    0    0    0 -0.00000000000E+00 -0.00000000000E+00 -0.45593999997E+02  0.45594000000E+02  0.51100000000E-03 0. -1.
    9900012    2    1    2    0    0  0.15806854319E+02  0.15679477555E+02  0.22825826299E+02  0.59301937118E+02  0.49999987399E+02 0.  0.
         12    1    1    2    0    0 -0.15806854319E+02 -0.15679477555E+02 -0.22825826299E+02  0.31886062882E+02  0.00000000000E+00 0. -1.
         11    1    3    3    0    0  0.13169391855E+02  0.26074107697E+01  0.15318538585E+02  0.20368826608E+02  0.51100000000E-03 0.  1.
        -11    1    3    3    0    0  0.18847725694E+02  0.90089243398E+01  0.74011436257E+00  0.20903235422E+02  0.51100000000E-03 0. -1.
         12    1    3    3    0    0 -0.16210263230E+02  0.40631424459E+01  0.67671733515E+01  0.18029875088E+02  0.00000000000E+00 0. -1.
</event>
<event>
 7    1  0.1205909E-011  0.5930214E+02  0.7816164E-02  0.1266604E+00
        -11   -1    0    0    0    0  0.00000000000E+00  0.00000000000E+00  0.45593999997E+02  0.45594000000E+02  0.51100000000E-03 0. -1.
         11   -1    0    0    0    0 -0.00000000000E+00 -0.00000000000E+00 -0.45593999997E+02  0.45594000000E+02  0.51100000000E-03 0.  1.
    9900012    2    1    2    0    0  0.16339651801E+02  0.85108152570E+01 -0.26024790708E+02  0.59302142183E+02  0.50000361387E+02 0.  0.
         12    1    1    2    0    0 -0.16339651801E+02 -0.85108152570E+01  0.26024790708E+02  0.31885857817E+02  0.00000000000E+00 0. -1.
         11    1    3    3    0    0  0.37145224316E+01  0.42540275857E+01  0.41941403973E+01  0.70345747226E+01  0.51100000000E-03 0. -1.
        -11    1    3    3    0    0 -0.53059535602E+01  0.18338145782E+02 -0.18701517722E+02  0.26724286694E+02  0.51100000000E-03 0.  1.
        -12    1    3    3    0    0  0.17931082930E+02 -0.14081358111E+02 -0.11517413383E+02  0.25543280767E+02  0.00000000000E+00 0.  1.
</event>
<event>
 7    1  0.1205909E-011  0.5930195E+02  0.7816164E-02  0.1266605E+00
        -11   -1    0    0    0    0  0.00000000000E+00  0.00000000000E+00  0.45593999997E+02  0.45594000000E+02  0.51100000000E-03 0.  1.
         11   -1    0    0    0    0 -0.00000000000E+00 -0.00000000000E+00 -0.45593999997E+02  0.45594000000E+02  0.51100000000E-03 0. -1.
    9900012    2    1    2    0    0 -0.24334485187E+02  0.20558847914E+02  0.13736682313E+01  0.59301947230E+02  0.50000005839E+02 0.  0.
         12    1    1    2    0    0  0.24334485187E+02 -0.20558847914E+02 -0.13736682313E+01  0.31886052770E+02  0.00000000000E+00 0. -1.
         11    1    3    3    0    0 -0.85947100438E+01  0.20107262568E+02 -0.34786801279E+01  0.22142092593E+02  0.51100000000E-03 0. -1.
        -11    1    3    3    0    0 -0.16426474132E+02  0.14349806140E+02 -0.15003838851E+01  0.21863145719E+02  0.51100000000E-03 0.  1.
         12    1    3    3    0    0  0.68669898915E+00 -0.13898220794E+02  0.63527322443E+01  0.15296708917E+02  0.00000000000E+00 0. -1.
</event>
<event>
 7    1  0.1205909E-011  0.5930195E+02  0.7816164E-02  0.1266605E+00
        -11   -1    0    0    0    0  0.00000000000E+00  0.00000000000E+00  0.45593999997E+02  0.45594000000E+02  0.51100000000E-03 0.  1.
         11   -1    0    0    0    0 -0.00000000000E+00 -0.00000000000E+00 -0.45593999997E+02  0.45594000000E+02  0.51100000000E-03 0. -1.
    9900012    2    1    2    0    0 -0.23308393541E+01  0.68905796853E+01  0.31045245570E+02  0.59301950182E+02  0.50000011225E+02 0.  0.
         12    1    1    2    0    0  0.23308393541E+01 -0.68905796853E+01 -0.31045245570E+02  0.31886049818E+02  0.00000000000E+00 0. -1.
         11    1    3    3    0    0  0.55102610632E+01  0.68299107262E+01  0.10040359579E+02  0.13334897009E+02  0.51100000000E-03 0. -1.
        -11    1    3    3    0    0  0.51791339881E+01  0.38634020702E+01  0.29342353651E+02  0.30045349431E+02  0.51100000000E-03 0.  1.
        -12    1    3    3    0    0 -0.13020234405E+02 -0.38027331111E+01 -0.83374676595E+01  0.15921703742E+02  0.00000000000E+00 0.  1.
</event>
<event>
 7    1  0.1205909E-011  0.5930193E+02  0.7816164E-02  0.1266605E+00
        -11   -1    0    0    0    0  0.00000000000E+00  0.00000000000E+00  0.45593999997E+02  0.45594000000E+02  0.51100000000E-03 0. -1.
         11   -1    0    0    0    0 -0.00000000000E+00 -0.00000000000E+00 -0.45593999997E+02  0.45594000000E+02  0.51100000000E-03 0.  1.
    9900012    2    1    2    0    0  0.26497572050E+02  0.79541179054E+01 -0.15853457890E+02  0.59301930263E+02  0.49999974897E+02 0.  0.
         12    1    1    2    0    0 -0.26497572050E+02 -0.79541179054E+01  0.15853457890E+02  0.31886069737E+02  0.00000000000E+00 0. -1.
         11    1    3    3    0    0 -0.49440932090E+01 -0.15495215368E+01 -0.49681650684E+01  0.71782824590E+01  0.51100000000E-03 0.  1.
        -11    1    3    3    0    0  0.39512403562E+02  0.13567682386E+02 -0.73400243462E+01  0.42416836259E+02  0.51100000000E-03 0. -1.
         12    1    3    3    0    0 -0.80707383034E+01 -0.40640429439E+01 -0.35452684749E+01  0.97068115451E+01  0.00000000000E+00 0. -1.
</event>
<event>
 7    1  0.1205909E-011  0.5930199E+02  0.7816164E-02  0.1266605E+00
        -11   -1    0    0    0    0  0.00000000000E+00  0.00000000000E+00  0.45593999997E+02  0.45594000000E+02  0.51100000000E-03 0.  1.
         11   -1    0    0    0    0 -0.00000000000E+00 -0.00000000000E+00 -0.45593999997E+02  0.45594000000E+02  0.51100000000E-03 0. -1.
    9900012    2    1    2    0    0 -0.71156867319E+00  0.60944965583E+01  0.31290068542E+02  0.59301990409E+02  0.50000084589E+02 0.  0.
         12    1    1    2    0    0  0.71156867319E+00 -0.60944965583E+01 -0.31290068542E+02  0.31886009591E+02  0.00000000000E+00 0. -1.
         11    1    3    3    0    0  0.67332693296E+01  0.73286602083E+01 -0.29404904776E+01  0.10377507447E+02  0.51100000000E-03 0. -1.
        -11    1    3    3    0    0 -0.15588751777E+02 -0.12601095930E+02  0.14492437071E+02  0.24735147728E+02  0.51100000000E-03 0.  1.
         12    1    3    3    0    0  0.81439137746E+01  0.11366932280E+02  0.19738121948E+02  0.24189335234E+02  0.00000000000E+00 0. -1.
</event>
<event>
 7    1  0.1205909E-011  0.5930195E+02  0.7816164E-02  0.1266605E+00
        -11   -1    0    0    0    0  0.00000000000E+00  0.00000000000E+00  0.45593999997E+02  0.45594000000E+02  0.51100000000E-03 0.  1.
         11   -1    0    0    0    0 -0.00000000000E+00 -0.00000000000E+00 -0.45593999997E+02  0.45594000000E+02  0.51100000000E-03 0. -1.
    9900012    2    1    2    0    0  0.28013421896E+02 -0.12319262127E+02  0.89556732944E+01  0.59301951172E+02  0.50000013030E+02 0.  0.
         12    1    1    2    0    0 -0.28013421896E+02  0.12319262127E+02 -0.89556732944E+01  0.31886048828E+02  0.00000000000E+00 0. -1.
         11    1    3    3    0    0 -0.66423645357E+01  0.67819520352E+00 -0.46463661269E+01  0.81344744025E+01  0.51100000000E-03 0. -1.
        -11    1    3    3    0    0  0.20602181317E+02  0.65811568035E+01 -0.30951767199E+01  0.21848149100E+02  0.51100000000E-03 0.  1.
         12    1    3    3    0    0  0.14053605115E+02 -0.19578614134E+02  0.16697216141E+02  0.29319327669E+02  0.00000000000E+00 0. -1.
</event>
<event>
 7    1  0.1205909E-011  0.5930196E+02  0.7816164E-02  0.1266605E+00
        -11   -1    0    0    0    0  0.00000000000E+00  0.00000000000E+00  0.45593999997E+02  0.45594000000E+02  0.51100000000E-03 0. -1.
         11   -1    0    0    0    0 -0.00000000000E+00 -0.00000000000E+00 -0.45593999997E+02  0.45594000000E+02  0.51100000000E-03 0.  1.
    9900012    2    1    2    0    0 -0.81637608103E+00 -0.33454146168E+01 -0.31699551508E+02  0.59301955488E+02  0.50000020900E+02 0.  0.
         12    1    1    2    0    0  0.81637608103E+00  0.33454146168E+01  0.31699551508E+02  0.31886044512E+02  0.00000000000E+00 0. -1.
         11    1    3    3    0    0  0.10066040298E+01  0.77993690900E+01 -0.11251144987E+02  0.13727041694E+02  0.51100000000E-03 0. -1.
        -11    1    3    3    0    0 -0.87657251464E+01  0.59885267037E+01 -0.24454413447E+02  0.26659308444E+02  0.51100000000E-03 0.  1.
         12    1    3    3    0    0  0.69427450356E+01 -0.17133310411E+02  0.40060069267E+01  0.18915605350E+02  0.00000000000E+00 0. -1.
</event>
<event>
 7    1  0.1205909E-011  0.5930195E+02  0.7816164E-02  0.1266605E+00
        -11   -1    0    0    0    0  0.00000000000E+00  0.00000000000E+00  0.45593999997E+02  0.45594000000E+02  0.51100000000E-03 0. -1.
         11   -1    0    0    0    0 -0.00000000000E+00 -0.00000000000E+00 -0.45593999997E+02  0.45594000000E+02  0.51100000000E-03 0.  1.
    9900012    2    1    2    0    0 -0.75018013057E+01 -0.30911753917E+02  0.22150618354E+01  0.59301952080E+02  0.50000014685E+02 0.  0.
         12    1    1    2    0    0  0.75018013057E+01  0.30911753917E+02 -0.22150618354E+01  0.31886047920E+02  0.00000000000E+00 0. -1.
         11    1    3    3    0    0 -0.14821458622E+02 -0.60237310029E+01  0.78777259484E+01  0.17833102289E+02  0.51100000000E-03 0. -1.
        -11    1    3    3    0    0  0.12993143748E+02  0.14437998225E+01 -0.63289151048E+01  0.14524514072E+02  0.51100000000E-03 0.  1.
        -12    1    3    3    0    0 -0.56734864319E+01 -0.26331822736E+02  0.66625099173E+00  0.26944335718E+02  0.00000000000E+00 0.  1.
</event>
<event>
 7    1  0.1205909E-011  0.5930196E+02  0.7816164E-02  0.1266605E+00
        -11   -1    0    0    0    0  0.00000000000E+00  0.00000000000E+00  0.45593999997E+02  0.45594000000E+02  0.51100000000E-03 0.  1.
         11   -1    0    0    0    0 -0.00000000000E+00 -0.00000000000E+00 -0.45593999997E+02  0.45594000000E+02  0.51100000000E-03 0. -1.
    9900012    2    1    2    0    0  0.18133414420E+02 -0.28369561912E+01  0.26073939638E+02  0.59301962818E+02  0.50000034268E+02 0.  0.
         12    1    1    2    0    0 -0.18133414420E+02  0.28369561912E+01 -0.26073939638E+02  0.31886037182E+02  0.00000000000E+00 0. -1.
         11    1    3    3    0    0 -0.12816931221E+01 -0.53407507977E+00  0.14792103267E+02  0.14857129358E+02  0.51100000000E-03 0. -1.
        -11    1    3    3    0    0  0.16226934282E+02  0.16247358867E+02  0.11367428729E+02  0.25622421870E+02  0.51100000000E-03 0.  1.
        -12    1    3    3    0    0  0.31881732603E+01 -0.18550239978E+02 -0.85592357766E-01  0.18822411589E+02  0.00000000000E+00 0.  1.
</event>
<event>
 7    1  0.1205909E-011  0.5930213E+02  0.7816164E-02  0.1266604E+00
        -11   -1    0    0    0    0  0.00000000000E+00  0.00000000000E+00  0.45593999997E+02  0.45594000000E+02  0.51100000000E-03 0.  1.
         11   -1    0    0    0    0 -0.00000000000E+00 -0.00000000000E+00 -0.45593999997E+02  0.45594000000E+02  0.51100000000E-03 0. -1.
    9900012    2    1    2    0    0 -0.14264091648E+02 -0.18617966863E+02  0.21601296526E+02  0.59302125192E+02  0.50000330399E+02 0.  0.
         12    1    1    2    0    0  0.14264091648E+02  0.18617966863E+02 -0.21601296526E+02  0.31885874808E+02  0.00000000000E+00 0. -1.
         11    1    3    3    0    0 -0.56647026388E+01 -0.20489664515E+02  0.10636694106E+02  0.23770874399E+02  0.51100000000E-03 0. -1.
        -11    1    3    3    0    0 -0.51961439442E+01 -0.11661529591E+02  0.16200805562E+02  0.20626615946E+02  0.51100000000E-03 0.  1.
         12    1    3    3    0    0 -0.34032450650E+01  0.13533227243E+02 -0.52362031413E+01  0.14904634847E+02  0.00000000000E+00 0. -1.
</event>
<event>
 7    1  0.1205909E-011  0.5930195E+02  0.7816164E-02  0.1266605E+00
        -11   -1    0    0    0    0  0.00000000000E+00  0.00000000000E+00  0.45593999997E+02  0.45594000000E+02  0.51100000000E-03 0. -1.
         11   -1    0    0    0    0 -0.00000000000E+00 -0.00000000000E+00 -0.45593999997E+02  0.45594000000E+02  0.51100000000E-03 0.  1.
    9900012    2    1    2    0    0 -0.30934672514E+02 -0.65842786199E+01  0.40513507419E+01  0.59301950835E+02  0.50000012415E+02 0.  0.
         12    1    1    2    0    0  0.30934672514E+02  0.65842786199E+01 -0.40513507419E+01  0.31886049165E+02  0.00000000000E+00 0. -1.
         11    1    3    3    0    0 -0.36049955848E+00 -0.16469531502E+02  0.62164819955E+01  0.17607386986E+02  0.51100000000E-03 0. -1.
        -11    1    3    3    0    0 -0.76737087924E+01 -0.89517101922E+01 -0.24422476645E+01  0.12040909264E+02  0.51100000000E-03 0.  1.
        -12    1    3    3    0    0 -0.22900464163E+02  0.18836963074E+02  0.27711641093E+00  0.29653654585E+02  0.00000000000E+00 0.  1.
</event>
<event>
 7    1  0.1205909E-011  0.5930193E+02  0.7816164E-02  0.1266605E+00
        -11   -1    0    0    0    0  0.00000000000E+00  0.00000000000E+00  0.45593999997E+02  0.45594000000E+02  0.51100000000E-03 0.  1.
         11   -1    0    0    0    0 -0.00000000000E+00 -0.00000000000E+00 -0.45593999997E+02  0.45594000000E+02  0.51100000000E-03 0. -1.
    9900012    2    1    2    0    0 -0.14791843900E+02  0.27230658922E+02  0.75109123668E+01  0.59301933515E+02  0.49999980827E+02 0.  0.
         12    1    1    2    0    0  0.14791843900E+02 -0.27230658922E+02 -0.75109123668E+01  0.31886066485E+02  0.00000000000E+00 0. -1.
         11    1    3    3    0    0 -0.76220955932E-02 -0.88155087756E+01  0.19198843594E+01  0.90221510342E+01  0.51100000000E-03 0. -1.
        -11    1    3    3    0    0  0.94839843063E+01  0.82338904755E+01 -0.16410559117E+01  0.12666332360E+02  0.51100000000E-03 0.  1.
        -12    1    3    3    0    0 -0.24268206111E+02  0.27812277223E+02  0.72320839192E+01  0.37613450121E+02  0.00000000000E+00 0.  1.
</event>
<event>
 7    1  0.1205909E-011  0.5930192E+02  0.7816164E-02  0.1266605E+00
        -11   -1    0    0    0    0  0.00000000000E+00  0.00000000000E+00  0.45593999997E+02  0.45594000000E+02  0.51100000000E-03 0.  1.
         11   -1    0    0    0    0 -0.00000000000E+00 -0.00000000000E+00 -0.45593999997E+02  0.45594000000E+02  0.51100000000E-03 0. -1.
    9900012    2    1    2    0    0 -0.95875209859E+01 -0.30367895946E+02 -0.16100365085E+01  0.59301923409E+02  0.49999962396E+02 0.  0.
         12    1    1    2    0    0  0.95875209859E+01  0.30367895946E+02  0.16100365085E+01  0.31886076591E+02  0.00000000000E+00 0. -1.
         11    1    3    3    0    0 -0.80624671587E+01 -0.99935819765E+01  0.24836220413E+01  0.13078357546E+02  0.51100000000E-03 0. -1.
        -11    1    3    3    0    0 -0.87645917602E+00 -0.25138704948E+02  0.13106638178E+02  0.28363826112E+02  0.51100000000E-03 0.  1.
         12    1    3    3    0    0 -0.64859465122E+00  0.47643909786E+01 -0.17200296727E+02  0.17859739750E+02  0.00000000000E+00 0. -1.
</event>
<event>
 7    1  0.1205909E-011  0.5930201E+02  0.7816164E-02  0.1266605E+00
        -11   -1    0    0    0    0  0.00000000000E+00  0.00000000000E+00  0.45593999997E+02  0.45594000000E+02  0.51100000000E-03 0.  1.
         11   -1    0    0    0    0 -0.00000000000E+00 -0.00000000000E+00 -0.45593999997E+02  0.45594000000E+02  0.51100000000E-03 0. -1.
    9900012    2    1    2    0    0 -0.17858234613E+02  0.21436572762E+02  0.15436106251E+02  0.59302006657E+02  0.50000114221E+02 0.  0.
         12    1    1    2    0    0  0.17858234613E+02 -0.21436572762E+02 -0.15436106251E+02  0.31885993343E+02  0.00000000000E+00 0. -1.
         11    1    3    3    0    0 -0.76102056716E+01 -0.42873009468E+01 -0.29601516539E+01  0.92227261614E+01  0.51100000000E-03 0. -1.
        -11    1    3    3    0    0 -0.16976836632E+02  0.25062912920E+01  0.19380518518E+02  0.25886270035E+02  0.51100000000E-03 0.  1.
         12    1    3    3    0    0  0.67288076901E+01  0.23217582416E+02 -0.98426061299E+00  0.24193010461E+02  0.00000000000E+00 0. -1.
</event>
<event>
 7    1  0.1205909E-011  0.5930197E+02  0.7816164E-02  0.1266605E+00
        -11   -1    0    0    0    0  0.00000000000E+00  0.00000000000E+00  0.45593999997E+02  0.45594000000E+02  0.51100000000E-03 0. -1.
         11   -1    0    0    0    0 -0.00000000000E+00 -0.00000000000E+00 -0.45593999997E+02  0.45594000000E+02  0.51100000000E-03 0.  1.
    9900012    2    1    2    0    0  0.16647572057E+02 -0.21830402940E+02  0.16217599427E+02  0.59301973608E+02  0.50000053947E+02 0.  0.
         12    1    1    2    0    0 -0.16647572057E+02  0.21830402940E+02 -0.16217599427E+02  0.31886026392E+02  0.00000000000E+00 0. -1.
         11    1    3    3    0    0  0.57283407480E+01  0.11700694821E+02  0.89401958754E+01  0.15800229415E+02  0.51100000000E-03 0. -1.
        -11    1    3    3    0    0  0.12817791911E+02 -0.52516087724E+01 -0.12378201891E+01  0.13907098305E+02  0.51100000000E-03 0.  1.
         12    1    3    3    0    0 -0.18985606028E+01 -0.28279488989E+02  0.85152237413E+01  0.29594645887E+02  0.00000000000E+00 0. -1.
</event>
<event>
 7    1  0.1207258E-011  0.5930190E+02  0.7816164E-02  0.1266605E+00
        -11   -1    0    0    0    0  0.00000000000E+00  0.00000000000E+00  0.45593999997E+02  0.45594000000E+02  0.51100000000E-03 0. -1.
         11   -1    0    0    0    0 -0.00000000000E+00 -0.00000000000E+00 -0.45593999997E+02  0.45594000000E+02  0.51100000000E-03 0.  1.
    9900012    2    1    2    0    0 -0.98662832909E+01  0.27329081080E+01 -0.30197868842E+02  0.59301896204E+02  0.49999912781E+02 0.  0.
         12    1    1    2    0    0  0.98662832909E+01 -0.27329081080E+01  0.30197868842E+02  0.31886103796E+02  0.00000000000E+00 0. -1.
         11    1    3    3    0    0  0.21727233162E+01 -0.67497581949E+00  0.91628827238E+01  0.94411195860E+01  0.51100000000E-03 0. -1.
        -11    1    3    3    0    0 -0.14092947921E+02 -0.44384811320E+01 -0.67277860132E+01  0.16234974615E+02  0.51100000000E-03 0.  1.
        -12    1    3    3    0    0  0.20539413138E+01  0.78463650595E+01 -0.32632965553E+02  0.33625802003E+02  0.00000000000E+00 0.  1.
</event>
<event>
 7    1  0.1205909E-011  0.5930193E+02  0.7816164E-02  0.1266605E+00
        -11   -1    0    0    0    0  0.00000000000E+00  0.00000000000E+00  0.45593999997E+02  0.45594000000E+02  0.51100000000E-03 0.  1.
         11   -1    0    0    0    0 -0.00000000000E+00 -0.00000000000E+00 -0.45593999997E+02  0.45594000000E+02  0.51100000000E-03 0. -1.
    9900012    2    1    2    0    0  0.12682043410E+02  0.16937572582E+02  0.23853849639E+02  0.59301925725E+02  0.49999966620E+02 0.  0.
         12    1    1    2    0    0 -0.12682043410E+02 -0.16937572582E+02 -0.23853849639E+02  0.31886074275E+02  0.00000000000E+00 0. -1.
         11    1    3    3    0    0  0.11633457184E+02  0.11582831658E+02 -0.78129691328E+01  0.18180808623E+02  0.51100000000E-03 0.  1.
        -11    1    3    3    0    0 -0.72757475677E-02  0.24315764795E+01 -0.43430242622E+01  0.49773966203E+01  0.51100000000E-03 0. -1.
        -12    1    3    3    0    0  0.10558619737E+01  0.29231644451E+01  0.36009843034E+02  0.36143720481E+02  0.00000000000E+00 0.  1.
</event>
<event>
 7    1  0.1205909E-011  0.5930194E+02  0.7816164E-02  0.1266605E+00
        -11   -1    0    0    0    0  0.00000000000E+00  0.00000000000E+00  0.45593999997E+02  0.45594000000E+02  0.51100000000E-03 0. -1.
         11   -1    0    0    0    0 -0.00000000000E+00 -0.00000000000E+00 -0.45593999997E+02  0.45594000000E+02  0.51100000000E-03 0.  1.
    9900012    2    1    2    0    0  0.47944216903E+01 -0.31320390446E+02 -0.35732035584E+01  0.59301935321E+02  0.49999984121E+02 0.  0.
         12    1    1    2    0    0 -0.47944216903E+01  0.31320390446E+02  0.35732035584E+01  0.31886064679E+02  0.00000000000E+00 0. -1.
         11    1    3    3    0    0 -0.10577026249E+00  0.29140822936E+01  0.67225765268E+00  0.29924895279E+01  0.51100000000E-03 0. -1.
        -11    1    3    3    0    0  0.21280785084E+01  0.60217836723E+01 -0.13478404485E+02  0.14915025459E+02  0.51100000000E-03 0.  1.
         12    1    3    3    0    0  0.27721134444E+01 -0.40256256412E+02  0.92329432734E+01  0.41394420334E+02  0.00000000000E+00 0. -1.
</event>
<event>
 7    1  0.1205909E-011  0.5930194E+02  0.7816164E-02  0.1266605E+00
        -11   -1    0    0    0    0  0.00000000000E+00  0.00000000000E+00  0.45593999997E+02  0.45594000000E+02  0.51100000000E-03 0.  1.
         11   -1    0    0    0    0 -0.00000000000E+00 -0.00000000000E+00 -0.45593999997E+02  0.45594000000E+02  0.51100000000E-03 0. -1.
    9900012    2    1    2    0    0 -0.95055324725E+01  0.47579871003E+01  0.30062061515E+02  0.59301935154E+02  0.49999983816E+02 0.  0.
         12    1    1    2    0    0  0.95055324725E+01 -0.47579871003E+01 -0.30062061515E+02  0.31886064846E+02  0.00000000000E+00 0. -1.
         11    1    3    3    0    0  0.26499928955E+01  0.17753086888E+01 -0.65450821462E+01  0.72809534986E+01  0.51100000000E-03 0. -1.
        -11    1    3    3    0    0 -0.10513385388E+02 -0.13036007305E+02  0.66673586070E+01  0.18025604839E+02  0.51100000000E-03 0.  1.
        -12    1    3    3    0    0 -0.16421399796E+01  0.16018685716E+02  0.29939785054E+02  0.33995376816E+02  0.00000000000E+00 0.  1.
</event>
<event>
 7    1  0.1205909E-011  0.5930192E+02  0.7816164E-02  0.1266605E+00
        -11   -1    0    0    0    0  0.00000000000E+00  0.00000000000E+00  0.45593999997E+02  0.45594000000E+02  0.51100000000E-03 0.  1.
         11   -1    0    0    0    0 -0.00000000000E+00 -0.00000000000E+00 -0.45593999997E+02  0.45594000000E+02  0.51100000000E-03 0. -1.
    9900012    2    1    2    0    0  0.21557001393E+02 -0.20296963201E+02  0.11834316967E+02  0.59301920242E+02  0.49999956621E+02 0.  0.
         12    1    1    2    0    0 -0.21557001393E+02  0.20296963201E+02 -0.11834316967E+02  0.31886079758E+02  0.00000000000E+00 0. -1.
         11    1    3    3    0    0  0.83404156792E+01  0.42282718659E+01  0.44828592667E+01  0.10369997307E+02  0.51100000000E-03 0. -1.
        -11    1    3    3    0    0  0.18837581473E+02  0.38731444744E+01  0.78740393533E+00  0.19247746078E+02  0.51100000000E-03 0.  1.
        -12    1    3    3    0    0 -0.56209957585E+01 -0.28398379542E+02  0.65640537645E+01  0.29684176858E+02  0.00000000000E+00 0.  1.
</event>
<event>
 7    1  0.1205909E-011  0.5930195E+02  0.7816164E-02  0.1266605E+00
        -11   -1    0    0    0    0  0.00000000000E+00  0.00000000000E+00  0.45593999997E+02  0.45594000000E+02  0.51100000000E-03 0.  1.
         11   -1    0    0    0    0 -0.00000000000E+00 -0.00000000000E+00 -0.45593999997E+02  0.45594000000E+02  0.51100000000E-03 0. -1.
    9900012    2    1    2    0    0  0.27981604858E+02  0.14583544706E+02 -0.45902234205E+01  0.59301950736E+02  0.50000012234E+02 0.  0.
         12    1    1    2    0    0 -0.27981604858E+02 -0.14583544706E+02  0.45902234205E+01  0.31886049264E+02  0.00000000000E+00 0. -1.
         11    1    3    3    0    0 -0.22791241196E+01 -0.47467678097E+01 -0.96113558865E+01  0.10959214097E+02  0.51100000000E-03 0. -1.
        -11    1    3    3    0    0 -0.27524590582E+01  0.13913742990E+02  0.45137563776E+01  0.14884296146E+02  0.51100000000E-03 0.  1.
         12    1    3    3    0    0  0.33013188036E+02  0.54165695258E+01  0.50737608840E+00  0.33458440493E+02  0.00000000000E+00 0. -1.
</event>
<event>
 7    1  0.1205909E-011  0.5930196E+02  0.7816164E-02  0.1266605E+00
        -11   -1    0    0    0    0  0.00000000000E+00  0.00000000000E+00  0.45593999997E+02  0.45594000000E+02  0.51100000000E-03 0.  1.
         11   -1    0    0    0    0 -0.00000000000E+00 -0.00000000000E+00 -0.45593999997E+02  0.45594000000E+02  0.51100000000E-03 0. -1.
    9900012    2    1    2    0    0  0.82703009182E+01  0.17337109905E+02  0.25450863662E+02  0.59301957312E+02  0.50000024228E+02 0.  0.
         12    1    1    2    0    0 -0.82703009182E+01 -0.17337109905E+02 -0.25450863662E+02  0.31886042688E+02  0.00000000000E+00 0. -1.
         11    1    3    3    0    0  0.80370605709E+01  0.16430834008E+02  0.20046489819E+02  0.27137214358E+02  0.51100000000E-03 0. -1.
        -11    1    3    3    0    0  0.45346233356E+01  0.51547794279E+01  0.17414384539E+02  0.18718850095E+02  0.51100000000E-03 0.  1.
        -12    1    3    3    0    0 -0.43013829882E+01 -0.42485035307E+01 -0.12010010696E+02  0.13445892859E+02  0.00000000000E+00 0.  1.
</event>
<event>
 7    1  0.1205909E-011  0.5930197E+02  0.7816164E-02  0.1266605E+00
        -11   -1    0    0    0    0  0.00000000000E+00  0.00000000000E+00  0.45593999997E+02  0.45594000000E+02  0.51100000000E-03 0. -1.
         11   -1    0    0    0    0 -0.00000000000E+00 -0.00000000000E+00 -0.45593999997E+02  0.45594000000E+02  0.51100000000E-03 0.  1.
    9900012    2    1    2    0    0  0.23201393828E+01  0.25774226072E+02 -0.18628617301E+02  0.59301966083E+02  0.50000040224E+02 0.  0.
         12    1    1    2    0    0 -0.23201393828E+01 -0.25774226072E+02  0.18628617301E+02  0.31886033917E+02  0.00000000000E+00 0. -1.
         11    1    3    3    0    0 -0.57262716375E+01  0.16452993148E+02 -0.21968008581E+02  0.28037199783E+02  0.51100000000E-03 0. -1.
        -11    1    3    3    0    0 -0.32583977158E+01 -0.27729222524E+01 -0.94313097182E+01  0.10356440351E+02  0.51100000000E-03 0.  1.
         12    1    3    3    0    0  0.11304808736E+02  0.12094155177E+02  0.12770700998E+02  0.20908325949E+02  0.00000000000E+00 0. -1.
</event>
<event>
 7    1  0.1205909E-011  0.5930190E+02  0.7816164E-02  0.1266605E+00
        -11   -1    0    0    0    0  0.00000000000E+00  0.00000000000E+00  0.45593999997E+02  0.45594000000E+02  0.51100000000E-03 0.  1.
         11   -1    0    0    0    0 -0.00000000000E+00 -0.00000000000E+00 -0.45593999997E+02  0.45594000000E+02  0.51100000000E-03 0. -1.
    9900012    2    1    2    0    0 -0.63290654480E+01 -0.82267393693E+00  0.31240825868E+02  0.59301904868E+02  0.49999928583E+02 0.  0.
         12    1    1    2    0    0  0.63290654480E+01  0.82267393693E+00 -0.31240825868E+02  0.31886095132E+02  0.00000000000E+00 0. -1.
         11    1    3    3    0    0 -0.16071002382E+02 -0.32139182197E+01  0.18158651884E+02  0.24461051212E+02  0.51100000000E-03 0. -1.
        -11    1    3    3    0    0 -0.79442821827E+01 -0.52121314742E+01  0.12341450600E+02  0.15575279679E+02  0.51100000000E-03 0.  1.
         12    1    3    3    0    0  0.17686219117E+02  0.76033757570E+01  0.74072338350E+00  0.19265573977E+02  0.00000000000E+00 0. -1.
</event>
<event>
 7    1  0.1205909E-011  0.5930195E+02  0.7816164E-02  0.1266605E+00
        -11   -1    0    0    0    0  0.00000000000E+00  0.00000000000E+00  0.45593999997E+02  0.45594000000E+02  0.51100000000E-03 0.  1.
         11   -1    0    0    0    0 -0.00000000000E+00 -0.00000000000E+00 -0.45593999997E+02  0.45594000000E+02  0.51100000000E-03 0. -1.
    9900012    2    1    2    0    0 -0.19019921748E+02 -0.18133890774E+02  0.18058931540E+02  0.59301946210E+02  0.50000003980E+02 0.  0.
         12    1    1    2    0    0  0.19019921748E+02  0.18133890774E+02 -0.18058931540E+02  0.31886053790E+02  0.00000000000E+00 0. -1.
         11    1    3    3    0    0 -0.20648091033E+01  0.13084211572E+02  0.61172973169E+01  0.14590454270E+02  0.51100000000E-03 0. -1.
        -11    1    3    3    0    0  0.30650088573E+01 -0.14654716044E+02  0.11234600308E+02  0.18718205736E+02  0.51100000000E-03 0.  1.
        -12    1    3    3    0    0 -0.20020121502E+02 -0.16563386301E+02  0.70703391513E+00  0.25993286204E+02  0.00000000000E+00 0.  1.
</event>
<event>
 7    1  0.1205909E-011  0.5930192E+02  0.7816164E-02  0.1266605E+00
        -11   -1    0    0    0    0  0.00000000000E+00  0.00000000000E+00  0.45593999997E+02  0.45594000000E+02  0.51100000000E-03 0.  1.
         11   -1    0    0    0    0 -0.00000000000E+00 -0.00000000000E+00 -0.45593999997E+02  0.45594000000E+02  0.51100000000E-03 0. -1.
    9900012    2    1    2    0    0 -0.18298170055E+02 -0.13929356296E+02  0.22087830987E+02  0.59301917270E+02  0.49999951200E+02 0.  0.
         12    1    1    2    0    0  0.18298170055E+02  0.13929356296E+02 -0.22087830987E+02  0.31886082730E+02  0.00000000000E+00 0. -1.
         11    1    3    3    0    0  0.61498773253E+01 -0.14437921053E+02  0.46713984408E+01  0.16373653200E+02  0.51100000000E-03 0. -1.
        -11    1    3    3    0    0 -0.43730755065E+01 -0.68067125533E+01  0.19838849898E+02  0.21425104217E+02  0.51100000000E-03 0.  1.
         12    1    3    3    0    0 -0.20074971874E+02  0.73152773104E+01 -0.24224173514E+01  0.21503159853E+02  0.00000000000E+00 0. -1.
</event>
<event>
 7    1  0.1205909E-011  0.5930194E+02  0.7816164E-02  0.1266605E+00
        -11   -1    0    0    0    0  0.00000000000E+00  0.00000000000E+00  0.45593999997E+02  0.45594000000E+02  0.51100000000E-03 0.  1.
         11   -1    0    0    0    0 -0.00000000000E+00 -0.00000000000E+00 -0.45593999997E+02  0.45594000000E+02  0.51100000000E-03 0. -1.
    9900012    2    1    2    0    0  0.25226857573E+02 -0.13133612263E+01 -0.19457688957E+02  0.59301938464E+02  0.49999989854E+02 0.  0.
         12    1    1    2    0    0 -0.25226857573E+02  0.13133612263E+01  0.19457688957E+02  0.31886061536E+02  0.00000000000E+00 0. -1.
         11    1    3    3    0    0  0.68716517363E+01 -0.14364615243E+02 -0.74705536475E+01  0.17588943707E+02  0.51100000000E-03 0. -1.
        -11    1    3    3    0    0  0.90960669911E+01 -0.95906222554E+01  0.22520210268E+01  0.13408581913E+02  0.51100000000E-03 0.  1.
         12    1    3    3    0    0  0.92591388457E+01  0.22641876272E+02 -0.14239156336E+02  0.28304412844E+02  0.00000000000E+00 0. -1.
</event>
<event>
 7    1  0.1205909E-011  0.5930194E+02  0.7816164E-02  0.1266605E+00
        -11   -1    0    0    0    0  0.00000000000E+00  0.00000000000E+00  0.45593999997E+02  0.45594000000E+02  0.51100000000E-03 0. -1.
         11   -1    0    0    0    0 -0.00000000000E+00 -0.00000000000E+00 -0.45593999997E+02  0.45594000000E+02  0.51100000000E-03 0.  1.
    9900012    2    1    2    0    0 -0.15721987359E+00 -0.80347692080E+01 -0.30856745061E+02  0.59301937997E+02  0.49999989001E+02 0.  0.
         12    1    1    2    0    0  0.15721987359E+00  0.80347692080E+01  0.30856745061E+02  0.31886062003E+02  0.00000000000E+00 0. -1.
         11    1    3    3    0    0 -0.42641276185E+01  0.18567252691E+01 -0.65045929984E+01  0.79962455820E+01  0.51100000000E-03 0.  1.
        -11    1    3    3    0    0  0.20356234938E+02  0.39788808884E+01 -0.27491637761E+01  0.20922851041E+02  0.51100000000E-03 0. -1.
         12    1    3    3    0    0 -0.16249327193E+02 -0.13870375365E+02 -0.21602988287E+02  0.30382841373E+02  0.00000000000E+00 0. -1.
</event>
<event>
 7    1  0.1205909E-011  0.5930201E+02  0.7816164E-02  0.1266605E+00
        -11   -1    0    0    0    0  0.00000000000E+00  0.00000000000E+00  0.45593999997E+02  0.45594000000E+02  0.51100000000E-03 0.  1.
         11   -1    0    0    0    0 -0.00000000000E+00 -0.00000000000E+00 -0.45593999997E+02  0.45594000000E+02  0.51100000000E-03 0. -1.
    9900012    2    1    2    0    0 -0.24640166908E+02  0.87546666569E+01  0.18246489834E+02  0.59302009271E+02  0.50000118987E+02 0.  0.
         12    1    1    2    0    0  0.24640166908E+02 -0.87546666569E+01 -0.18246489834E+02  0.31885990729E+02  0.00000000000E+00 0. -1.
         11    1    3    3    0    0 -0.19376851941E+02  0.57609601895E+01  0.82956267123E+01  0.21851052063E+02  0.51100000000E-03 0.  1.
        -11    1    3    3    0    0 -0.19949881043E+02 -0.10943557747E+01  0.96855758776E+01  0.22203732761E+02  0.51100000000E-03 0. -1.
        -12    1    3    3    0    0  0.14686566076E+02  0.40880622420E+01  0.26528724444E+00  0.15247224446E+02  0.00000000000E+00 0.  1.
</event>
<event>
 7    1  0.1205909E-011  0.5930196E+02  0.7816164E-02  0.1266605E+00
        -11   -1    0    0    0    0  0.00000000000E+00  0.00000000000E+00  0.45593999997E+02  0.45594000000E+02  0.51100000000E-03 0. -1.
         11   -1    0    0    0    0 -0.00000000000E+00 -0.00000000000E+00 -0.45593999997E+02  0.45594000000E+02  0.51100000000E-03 0.  1.
    9900012    2    1    2    0    0 -0.24824439140E+02 -0.19670112552E+02 -0.36815071349E+01  0.59301959148E+02  0.50000027576E+02 0.  0.
         12    1    1    2    0    0  0.24824439140E+02  0.19670112552E+02  0.36815071349E+01  0.31886040852E+02  0.00000000000E+00 0. -1.
         11    1    3    3    0    0  0.17105834387E+01  0.75329647136E+01  0.34908645832E+01  0.84768973614E+01  0.51100000000E-03 0. -1.
        -11    1    3    3    0    0 -0.28547081719E+02 -0.13427794676E+02  0.54719951322E+01  0.32018498958E+02  0.51100000000E-03 0.  1.
         12    1    3    3    0    0  0.20120591399E+01 -0.13775282590E+02 -0.12644366850E+02  0.18806562829E+02  0.00000000000E+00 0. -1.
</event>
<event>
 7    1  0.1205909E-011  0.5930194E+02  0.7816164E-02  0.1266605E+00
        -11   -1    0    0    0    0  0.00000000000E+00  0.00000000000E+00  0.45593999997E+02  0.45594000000E+02  0.51100000000E-03 0.  1.
         11   -1    0    0    0    0 -0.00000000000E+00 -0.00000000000E+00 -0.45593999997E+02  0.45594000000E+02  0.51100000000E-03 0. -1.
    9900012    2    1    2    0    0 -0.96182063677E+00 -0.22743857425E+02  0.22327397080E+02  0.59301940195E+02  0.49999993009E+02 0.  0.
         12    1    1    2    0    0  0.96182063677E+00  0.22743857425E+02 -0.22327397080E+02  0.31886059805E+02  0.00000000000E+00 0. -1.
         11    1    3    3    0    0 -0.10399268881E+02  0.20669857205E+00  0.11234107771E+02  0.15309888806E+02  0.51100000000E-03 0.  1.
        -11    1    3    3    0    0 -0.19876959087E+01  0.14169166063E+01  0.16383266879E+02  0.16564118497E+02  0.51100000000E-03 0. -1.
        -12    1    3    3    0    0  0.11425144153E+02 -0.24367472604E+02 -0.52899775701E+01  0.27427932892E+02  0.00000000000E+00 0.  1.
</event>
<event>
 7    1  0.1205909E-011  0.5930195E+02  0.7816164E-02  0.1266605E+00
        -11   -1    0    0    0    0  0.00000000000E+00  0.00000000000E+00  0.45593999997E+02  0.45594000000E+02  0.51100000000E-03 0.  1.
         11   -1    0    0    0    0 -0.00000000000E+00 -0.00000000000E+00 -0.45593999997E+02  0.45594000000E+02  0.51100000000E-03 0. -1.
    9900012    2    1    2    0    0 -0.85058925915E+01  0.16508008728E+02  0.25920181028E+02  0.59301947477E+02  0.50000006291E+02 0.  0.
         12    1    1    2    0    0  0.85058925915E+01 -0.16508008728E+02 -0.25920181028E+02  0.31886052523E+02  0.00000000000E+00 0. -1.
         11    1    3    3    0    0 -0.21941762792E+01 -0.55283474873E+01 -0.22004486383E+01  0.63418459422E+01  0.51100000000E-03 0. -1.
        -11    1    3    3    0    0 -0.14709895731E+02 -0.47743036254E+01  0.16330381869E+02  0.22491251183E+02  0.51100000000E-03 0.  1.
        -12    1    3    3    0    0  0.83981794183E+01  0.26810659841E+02  0.11790247797E+02  0.30468850352E+02  0.00000000000E+00 0.  1.
</event>
<event>
 7    1  0.1205909E-011  0.5930194E+02  0.7816164E-02  0.1266605E+00
        -11   -1    0    0    0    0  0.00000000000E+00  0.00000000000E+00  0.45593999997E+02  0.45594000000E+02  0.51100000000E-03 0.  1.
         11   -1    0    0    0    0 -0.00000000000E+00 -0.00000000000E+00 -0.45593999997E+02  0.45594000000E+02  0.51100000000E-03 0. -1.
    9900012    2    1    2    0    0 -0.12382475366E+02  0.37741233059E+01  0.29140198095E+02  0.59301939598E+02  0.49999991922E+02 0.  0.
         12    1    1    2    0    0  0.12382475366E+02 -0.37741233059E+01 -0.29140198095E+02  0.31886060402E+02  0.00000000000E+00 0. -1.
         11    1    3    3    0    0 -0.65808314706E+01 -0.83616492441E+01  0.25039221135E+02  0.27206380065E+02  0.51100000000E-03 0. -1.
        -11    1    3    3    0    0  0.54482075900E+01  0.11679689427E+02  0.12573075458E+02  0.18005008686E+02  0.51100000000E-03 0.  1.
         12    1    3    3    0    0 -0.11249851485E+02  0.45608312319E+00 -0.84720984970E+01  0.14090550848E+02  0.00000000000E+00 0. -1.
</event>
<event>
 7    1  0.1205909E-011  0.5930194E+02  0.7816164E-02  0.1266605E+00
        -11   -1    0    0    0    0  0.00000000000E+00  0.00000000000E+00  0.45593999997E+02  0.45594000000E+02  0.51100000000E-03 0.  1.
         11   -1    0    0    0    0 -0.00000000000E+00 -0.00000000000E+00 -0.45593999997E+02  0.45594000000E+02  0.51100000000E-03 0. -1.
    9900012    2    1    2    0    0 -0.17865684513E+02 -0.10079255789E+02  0.24412020524E+02  0.59301939935E+02  0.49999992536E+02 0.  0.
         12    1    1    2    0    0  0.17865684513E+02  0.10079255789E+02 -0.24412020524E+02  0.31886060065E+02  0.00000000000E+00 0. -1.
         11    1    3    3    0    0 -0.70365380408E+01 -0.18267776886E+02  0.13194488583E+02  0.23607606172E+02  0.51100000000E-03 0. -1.
        -11    1    3    3    0    0 -0.37866081659E+01  0.43795882468E+01  0.21725462748E+02  0.22483659099E+02  0.51100000000E-03 0.  1.
         12    1    3    3    0    0 -0.70425383062E+01  0.38089328498E+01 -0.10507930806E+02  0.13210674664E+02  0.00000000000E+00 0. -1.
</event>
<event>
 7    1  0.1205909E-011  0.5930191E+02  0.7816164E-02  0.1266605E+00
        -11   -1    0    0    0    0  0.00000000000E+00  0.00000000000E+00  0.45593999997E+02  0.45594000000E+02  0.51100000000E-03 0.  1.
         11   -1    0    0    0    0 -0.00000000000E+00 -0.00000000000E+00 -0.45593999997E+02  0.45594000000E+02  0.51100000000E-03 0. -1.
    9900012    2    1    2    0    0  0.10496697635E+02  0.13475290804E+02  0.26925056008E+02  0.59301909545E+02  0.49999937112E+02 0.  0.
         12    1    1    2    0    0 -0.10496697635E+02 -0.13475290804E+02 -0.26925056008E+02  0.31886090455E+02  0.00000000000E+00 0. -1.
         11    1    3    3    0    0  0.10393514872E+02  0.10778176065E+02 -0.37833308406E+01  0.15443698494E+02  0.51100000000E-03 0. -1.
        -11    1    3    3    0    0  0.79903171585E+01  0.13368941468E+02  0.24906377525E+02  0.29375183505E+02  0.51100000000E-03 0.  1.
         12    1    3    3    0    0 -0.78871343954E+01 -0.10671826729E+02  0.58020093238E+01  0.14483027546E+02  0.00000000000E+00 0. -1.
</event>
<event>
 7    1  0.1205909E-011  0.5930195E+02  0.7816164E-02  0.1266605E+00
        -11   -1    0    0    0    0  0.00000000000E+00  0.00000000000E+00  0.45593999997E+02  0.45594000000E+02  0.51100000000E-03 0.  1.
         11   -1    0    0    0    0 -0.00000000000E+00 -0.00000000000E+00 -0.45593999997E+02  0.45594000000E+02  0.51100000000E-03 0. -1.
    9900012    2    1    2    0    0 -0.28479419912E+02 -0.65824797275E+00  0.14325130593E+02  0.59301952653E+02  0.50000015731E+02 0.  0.
         12    1    1    2    0    0  0.28479419912E+02  0.65824797275E+00 -0.14325130593E+02  0.31886047347E+02  0.00000000000E+00 0. -1.
         11    1    3    3    0    0  0.94379300043E+01 -0.76177722986E+01  0.65155435527E+01  0.13767980448E+02  0.51100000000E-03 0. -1.
        -11    1    3    3    0    0  0.15572286845E+01 -0.18182331746E+01 -0.28420427872E+01  0.37159306396E+01  0.51100000000E-03 0.  1.
        -12    1    3    3    0    0 -0.39474578601E+02  0.87777575004E+01  0.10651629827E+02  0.41818041566E+02  0.00000000000E+00 0.  1.
</event>
<event>
 7    1  0.1205909E-011  0.5930194E+02  0.7816164E-02  0.1266605E+00
        -11   -1    0    0    0    0  0.00000000000E+00  0.00000000000E+00  0.45593999997E+02  0.45594000000E+02  0.51100000000E-03 0.  1.
         11   -1    0    0    0    0 -0.00000000000E+00 -0.00000000000E+00 -0.45593999997E+02  0.45594000000E+02  0.51100000000E-03 0. -1.
    9900012    2    1    2    0    0 -0.21915677861E+01 -0.46539434105E+01  0.31468373334E+02  0.59301942249E+02  0.49999996756E+02 0.  0.
         12    1    1    2    0    0  0.21915677861E+01  0.46539434105E+01 -0.31468373334E+02  0.31886057751E+02  0.00000000000E+00 0. -1.
         11    1    3    3    0    0 -0.11388380607E+02  0.11686696625E+02 -0.83195823796E+00  0.16339101739E+02  0.51100000000E-03 0. -1.
        -11    1    3    3    0    0 -0.13911492245E+01 -0.16400299973E+02  0.13097910088E+02  0.21034742316E+02  0.51100000000E-03 0.  1.
        -12    1    3    3    0    0  0.10587962046E+02  0.59659937111E-01  0.19202421484E+02  0.21928098194E+02  0.00000000000E+00 0.  1.
</event>
<event>
 7    1  0.1205909E-011  0.5930194E+02  0.7816164E-02  0.1266605E+00
        -11   -1    0    0    0    0  0.00000000000E+00  0.00000000000E+00  0.45593999997E+02  0.45594000000E+02  0.51100000000E-03 0.  1.
         11   -1    0    0    0    0 -0.00000000000E+00 -0.00000000000E+00 -0.45593999997E+02  0.45594000000E+02  0.51100000000E-03 0. -1.
    9900012    2    1    2    0    0  0.27288917145E+01 -0.41500763673E+01  0.31496841136E+02  0.59301937443E+02  0.49999987991E+02 0.  0.
         12    1    1    2    0    0 -0.27288917145E+01  0.41500763673E+01 -0.31496841136E+02  0.31886062557E+02  0.00000000000E+00 0. -1.
         11    1    3    3    0    0 -0.90021676738E+01 -0.87055495925E+01 -0.16081493983E+01  0.12625837053E+02  0.51100000000E-03 0. -1.
        -11    1    3    3    0    0  0.20593663751E+01  0.14907869402E+02  0.27678003498E+02  0.31504879588E+02  0.51100000000E-03 0.  1.
         12    1    3    3    0    0  0.96716930133E+01 -0.10352396177E+02  0.54269870363E+01  0.15171220802E+02  0.00000000000E+00 0. -1.
</event>
<event>
 7    1  0.1205909E-011  0.5930190E+02  0.7816164E-02  0.1266605E+00
        -11   -1    0    0    0    0  0.00000000000E+00  0.00000000000E+00  0.45593999997E+02  0.45594000000E+02  0.51100000000E-03 0.  1.
         11   -1    0    0    0    0 -0.00000000000E+00 -0.00000000000E+00 -0.45593999997E+02  0.45594000000E+02  0.51100000000E-03 0. -1.
    9900012    2    1    2    0    0  0.15880812665E+02 -0.18189648343E+01  0.27590120578E+02  0.59301896483E+02  0.49999913290E+02 0.  0.
         12    1    1    2    0    0 -0.15880812665E+02  0.18189648343E+01 -0.27590120578E+02  0.31886103517E+02  0.00000000000E+00 0. -1.
         11    1    3    3    0    0  0.13300169421E+02 -0.76314992539E+01 -0.29044429620E+01  0.15606731774E+02  0.51100000000E-03 0. -1.
        -11    1    3    3    0    0  0.70686415742E+01  0.10987673082E+02  0.65716724408E+00  0.13081533645E+02  0.51100000000E-03 0.  1.
        -12    1    3    3    0    0 -0.44879983302E+01 -0.51751386623E+01  0.29837396296E+02  0.30613631064E+02  0.00000000000E+00 0.  1.
</event>
<event>
 7    1  0.1205909E-011  0.5930206E+02  0.7816164E-02  0.1266604E+00
        -11   -1    0    0    0    0  0.00000000000E+00  0.00000000000E+00  0.45593999997E+02  0.45594000000E+02  0.51100000000E-03 0. -1.
         11   -1    0    0    0    0 -0.00000000000E+00 -0.00000000000E+00 -0.45593999997E+02  0.45594000000E+02  0.51100000000E-03 0.  1.
    9900012    2    1    2    0    0 -0.26666873737E+02  0.13671805465E+02  0.10893710969E+02  0.59302057043E+02  0.50000206113E+02 0.  0.
         12    1    1    2    0    0  0.26666873737E+02 -0.13671805465E+02 -0.10893710969E+02  0.31885942957E+02  0.00000000000E+00 0. -1.
         11    1    3    3    0    0  0.57097898390E+01  0.74243654817E+01  0.10969952224E+02  0.14424380571E+02  0.51100000000E-03 0. -1.
        -11    1    3    3    0    0  0.73827614733E+00 -0.76997369247E+01 -0.40416879470E+01  0.87273273171E+01  0.51100000000E-03 0.  1.
        -12    1    3    3    0    0 -0.33114939723E+02  0.13947176908E+02  0.39654466916E+01  0.36150349155E+02  0.00000000000E+00 0.  1.
</event>
<event>
 7    1  0.1205909E-011  0.5930194E+02  0.7816164E-02  0.1266605E+00
        -11   -1    0    0    0    0  0.00000000000E+00  0.00000000000E+00  0.45593999997E+02  0.45594000000E+02  0.51100000000E-03 0.  1.
         11   -1    0    0    0    0 -0.00000000000E+00 -0.00000000000E+00 -0.45593999997E+02  0.45594000000E+02  0.51100000000E-03 0. -1.
    9900012    2    1    2    0    0  0.98190734925E+01 -0.30332038912E+02 -0.52352125109E+00  0.59301939358E+02  0.49999991483E+02 0.  0.
         12    1    1    2    0    0 -0.98190734925E+01  0.30332038912E+02  0.52352125109E+00  0.31886060642E+02  0.00000000000E+00 0. -1.
         11    1    3    3    0    0  0.34259408026E+01  0.42374152361E+01 -0.64656399867E+01  0.84556051802E+01  0.51100000000E-03 0. -1.
        -11    1    3    3    0    0  0.20228154025E+02 -0.21643984984E+02 -0.32440166940E+01  0.29802079556E+02  0.51100000000E-03 0.  1.
         12    1    3    3    0    0 -0.13835021335E+02 -0.12925469163E+02  0.91861354296E+01  0.21044254621E+02  0.00000000000E+00 0. -1.
</event>
<event>
 7    1  0.1205909E-011  0.5930193E+02  0.7816164E-02  0.1266605E+00
        -11   -1    0    0    0    0  0.00000000000E+00  0.00000000000E+00  0.45593999997E+02  0.45594000000E+02  0.51100000000E-03 0.  1.
         11   -1    0    0    0    0 -0.00000000000E+00 -0.00000000000E+00 -0.45593999997E+02  0.45594000000E+02  0.51100000000E-03 0. -1.
    9900012    2    1    2    0    0  0.46346542814E+00 -0.23628910305E+02  0.21405171414E+02  0.59301928343E+02  0.49999971395E+02 0.  0.
         12    1    1    2    0    0 -0.46346542814E+00  0.23628910305E+02 -0.21405171414E+02  0.31886071657E+02  0.00000000000E+00 0. -1.
         11    1    3    3    0    0  0.16336340541E+02 -0.10366231864E+02  0.46701406639E+01  0.19903391656E+02  0.51100000000E-03 0. -1.
        -11    1    3    3    0    0  0.57910894984E+01 -0.16828936415E+01 -0.40133351553E+01  0.72440118662E+01  0.51100000000E-03 0.  1.
        -12    1    3    3    0    0 -0.21663964611E+02 -0.11579784800E+02  0.20748365906E+02  0.32154524821E+02  0.00000000000E+00 0.  1.
</event>
<event>
 7    1  0.1205909E-011  0.5930194E+02  0.7816164E-02  0.1266605E+00
        -11   -1    0    0    0    0  0.00000000000E+00  0.00000000000E+00  0.45593999997E+02  0.45594000000E+02  0.51100000000E-03 0. -1.
         11   -1    0    0    0    0 -0.00000000000E+00 -0.00000000000E+00 -0.45593999997E+02  0.45594000000E+02  0.51100000000E-03 0.  1.
    9900012    2    1    2    0    0 -0.67919695094E+01  0.10436520908E+02 -0.29354201441E+02  0.59301937829E+02  0.49999988696E+02 0.  0.
         12    1    1    2    0    0  0.67919695094E+01 -0.10436520908E+02  0.29354201441E+02  0.31886062171E+02  0.00000000000E+00 0. -1.
         11    1    3    3    0    0 -0.72963221842E+01  0.75865722535E+00 -0.52375837622E+01  0.90135543560E+01  0.51100000000E-03 0. -1.
        -11    1    3    3    0    0  0.45206849200E-01 -0.12363138150E+02 -0.25354207027E+02  0.28207889727E+02  0.51100000000E-03 0.  1.
         12    1    3    3    0    0  0.45914582562E+00  0.22041001833E+02  0.12375893482E+01  0.22080493747E+02  0.00000000000E+00 0. -1.
</event>
<event>
 7    1  0.1205909E-011  0.5930194E+02  0.7816164E-02  0.1266605E+00
        -11   -1    0    0    0    0  0.00000000000E+00  0.00000000000E+00  0.45593999997E+02  0.45594000000E+02  0.51100000000E-03 0.  1.
         11   -1    0    0    0    0 -0.00000000000E+00 -0.00000000000E+00 -0.45593999997E+02  0.45594000000E+02  0.51100000000E-03 0. -1.
    9900012    2    1    2    0    0 -0.94141830782E+01  0.30185684502E+02  0.41131730863E+01  0.59301943726E+02  0.49999999450E+02 0.  0.
         12    1    1    2    0    0  0.94141830782E+01 -0.30185684502E+02 -0.41131730863E+01  0.31886056274E+02  0.00000000000E+00 0. -1.
         11    1    3    3    0    0 -0.28259989738E+01  0.23496984108E+02  0.57452861516E+01  0.24353702913E+02  0.51100000000E-03 0. -1.
        -11    1    3    3    0    0  0.14578502856E+01  0.18838693961E+02  0.40199699580E+01  0.19317915941E+02  0.51100000000E-03 0.  1.
         12    1    3    3    0    0 -0.80460343901E+01 -0.12149993567E+02 -0.56520830233E+01  0.15630324871E+02  0.00000000000E+00 0. -1.
</event>
<event>
 7    1  0.1205909E-011  0.5930177E+02  0.7816164E-02  0.1266605E+00
        -11   -1    0    0    0    0  0.00000000000E+00  0.00000000000E+00  0.45593999997E+02  0.45594000000E+02  0.51100000000E-03 0.  1.
         11   -1    0    0    0    0 -0.00000000000E+00 -0.00000000000E+00 -0.45593999997E+02  0.45594000000E+02  0.51100000000E-03 0. -1.
    9900012    2    1    2    0    0  0.61117868671E+01  0.29374944295E+02  0.10793058009E+02  0.59301774256E+02  0.49999690376E+02 0.  0.
         12    1    1    2    0    0 -0.61117868671E+01 -0.29374944295E+02 -0.10793058009E+02  0.31886225744E+02  0.00000000000E+00 0. -1.
         11    1    3    3    0    0 -0.12935182119E+02  0.15956438778E+02  0.32326195488E+01  0.20793669814E+02  0.51100000000E-03 0. -1.
        -11    1    3    3    0    0  0.42383873147E+01 -0.93808885338E+01  0.41878712808E+01  0.11113202187E+02  0.51100000000E-03 0.  1.
        -12    1    3    3    0    0  0.14808581671E+02  0.22799394051E+02  0.33725671795E+01  0.27394902255E+02  0.00000000000E+00 0.  1.
</event>
<event>
 7    1  0.1205909E-011  0.5930194E+02  0.7816164E-02  0.1266605E+00
        -11   -1    0    0    0    0  0.00000000000E+00  0.00000000000E+00  0.45593999997E+02  0.45594000000E+02  0.51100000000E-03 0.  1.
         11   -1    0    0    0    0 -0.00000000000E+00 -0.00000000000E+00 -0.45593999997E+02  0.45594000000E+02  0.51100000000E-03 0. -1.
    9900012    2    1    2    0    0 -0.22406914008E+02 -0.10123826010E+02  0.20301698638E+02  0.59301943235E+02  0.49999998555E+02 0.  0.
         12    1    1    2    0    0  0.22406914008E+02  0.10123826010E+02 -0.20301698638E+02  0.31886056765E+02  0.00000000000E+00 0. -1.
         11    1    3    3    0    0 -0.15841238532E+02 -0.60694923340E+01  0.25764696349E+02  0.30848065638E+02  0.51100000000E-03 0. -1.
        -11    1    3    3    0    0 -0.10682799179E+02 -0.10716402153E+02  0.44951125026E+01  0.15785104057E+02  0.51100000000E-03 0.  1.
         12    1    3    3    0    0  0.41171237042E+01  0.66620684767E+01 -0.99581102135E+01  0.12668773540E+02  0.00000000000E+00 0. -1.
</event>
<event>
 7    1  0.1205909E-011  0.5930177E+02  0.7816164E-02  0.1266605E+00
        -11   -1    0    0    0    0  0.00000000000E+00  0.00000000000E+00  0.45593999997E+02  0.45594000000E+02  0.51100000000E-03 0.  1.
         11   -1    0    0    0    0 -0.00000000000E+00 -0.00000000000E+00 -0.45593999997E+02  0.45594000000E+02  0.51100000000E-03 0. -1.
    9900012    2    1    2    0    0 -0.84014128081E+01  0.27931810114E+02  0.12882611253E+02  0.59301773724E+02  0.49999689406E+02 0.  0.
         12    1    1    2    0    0  0.84014128081E+01 -0.27931810114E+02 -0.12882611253E+02  0.31886226276E+02  0.00000000000E+00 0. -1.
         11    1    3    3    0    0  0.19752599588E+01 -0.25833913427E+01  0.64271235427E-01  0.32526441224E+01  0.51100000000E-03 0. -1.
        -11    1    3    3    0    0  0.42229409208E+01  0.51857081447E+01  0.23873833401E+02  0.24792836072E+02  0.51100000000E-03 0.  1.
         12    1    3    3    0    0 -0.14599613688E+02  0.25329493312E+02 -0.11055493383E+02  0.31256293530E+02  0.00000000000E+00 0. -1.
</event>
<event>
 7    1  0.1205909E-011  0.5930196E+02  0.7816164E-02  0.1266605E+00
        -11   -1    0    0    0    0  0.00000000000E+00  0.00000000000E+00  0.45593999997E+02  0.45594000000E+02  0.51100000000E-03 0.  1.
         11   -1    0    0    0    0 -0.00000000000E+00 -0.00000000000E+00 -0.45593999997E+02  0.45594000000E+02  0.51100000000E-03 0. -1.
    9900012    2    1    2    0    0  0.14966587092E+02 -0.12712223861E+02  0.25122108345E+02  0.59301957718E+02  0.50000024968E+02 0.  0.
         12    1    1    2    0    0 -0.14966587092E+02  0.12712223861E+02 -0.25122108345E+02  0.31886042282E+02  0.00000000000E+00 0. -1.
         11    1    3    3    0    0  0.12723595306E+02  0.14369524064E+02  0.13306667364E+00  0.19193509485E+02  0.51100000000E-03 0. -1.
        -11    1    3    3    0    0  0.10023868887E+01  0.12347121835E+01  0.54636288040E+01  0.56903895842E+01  0.51100000000E-03 0.  1.
         12    1    3    3    0    0  0.12406048975E+01 -0.28316460108E+02  0.19525412867E+02  0.34418058650E+02  0.00000000000E+00 0. -1.
</event>
<event>
 7    1  0.1205909E-011  0.5930199E+02  0.7816164E-02  0.1266605E+00
        -11   -1    0    0    0    0  0.00000000000E+00  0.00000000000E+00  0.45593999997E+02  0.45594000000E+02  0.51100000000E-03 0.  1.
         11   -1    0    0    0    0 -0.00000000000E+00 -0.00000000000E+00 -0.45593999997E+02  0.45594000000E+02  0.51100000000E-03 0. -1.
    9900012    2    1    2    0    0  0.16196136252E+02 -0.26812396568E+02  0.59580395620E+01  0.59301989358E+02  0.50000082672E+02 0.  0.
         12    1    1    2    0    0 -0.16196136252E+02  0.26812396568E+02 -0.59580395620E+01  0.31886010642E+02  0.00000000000E+00 0. -1.
         11    1    3    3    0    0  0.81666831209E+01 -0.48667323884E+01  0.13297941954E+02  0.16346713976E+02  0.51100000000E-03 0. -1.
        -11    1    3    3    0    0  0.14665040470E+02 -0.85572744979E+01  0.10282963043E+02  0.19850181058E+02  0.51100000000E-03 0.  1.
         12    1    3    3    0    0 -0.66355873395E+01 -0.13388389682E+02 -0.17622865435E+02  0.23105094325E+02  0.00000000000E+00 0. -1.
</event>
<event>
 7    1  0.1205909E-011  0.5930194E+02  0.7816164E-02  0.1266605E+00
        -11   -1    0    0    0    0  0.00000000000E+00  0.00000000000E+00  0.45593999997E+02  0.45594000000E+02  0.51100000000E-03 0.  1.
         11   -1    0    0    0    0 -0.00000000000E+00 -0.00000000000E+00 -0.45593999997E+02  0.45594000000E+02  0.51100000000E-03 0. -1.
    9900012    2    1    2    0    0 -0.46747218860E+01  0.29862551486E+02 -0.10153597438E+02  0.59301944319E+02  0.50000000532E+02 0.  0.
         12    1    1    2    0    0  0.46747218860E+01 -0.29862551486E+02  0.10153597438E+02  0.31886055681E+02  0.00000000000E+00 0. -1.
         11    1    3    3    0    0  0.14111320936E+02  0.28508691069E+02 -0.10687100456E+02  0.33557249015E+02  0.51100000000E-03 0. -1.
        -11    1    3    3    0    0 -0.73069996996E+01  0.29133696955E+01 -0.81043996228E+01  0.11294302152E+02  0.51100000000E-03 0.  1.
        -12    1    3    3    0    0 -0.11479043123E+02 -0.15595092792E+01  0.86379026414E+01  0.14450393152E+02  0.00000000000E+00 0.  1.
</event>
<event>
 7    1  0.1205909E-011  0.5930194E+02  0.7816164E-02  0.1266605E+00
        -11   -1    0    0    0    0  0.00000000000E+00  0.00000000000E+00  0.45593999997E+02  0.45594000000E+02  0.51100000000E-03 0.  1.
         11   -1    0    0    0    0 -0.00000000000E+00 -0.00000000000E+00 -0.45593999997E+02  0.45594000000E+02  0.51100000000E-03 0. -1.
    9900012    2    1    2    0    0  0.56973925307E+01 -0.15942197588E+02  0.27020493590E+02  0.59301936909E+02  0.49999987017E+02 0.  0.
         12    1    1    2    0    0 -0.56973925307E+01  0.15942197588E+02 -0.27020493590E+02  0.31886063091E+02  0.00000000000E+00 0. -1.
         11    1    3    3    0    0  0.12255472969E+02 -0.20454787656E+02  0.30765304735E+01  0.24042878276E+02  0.51100000000E-03 0. -1.
        -11    1    3    3    0    0  0.86415836815E+01  0.13171446644E+01  0.14930604522E+02  0.17301294467E+02  0.51100000000E-03 0.  1.
        -12    1    3    3    0    0 -0.15199664120E+02  0.31954454036E+01  0.90133585945E+01  0.17957764166E+02  0.00000000000E+00 0.  1.
</event>
<event>
 7    1  0.1205909E-011  0.5930194E+02  0.7816164E-02  0.1266605E+00
        -11   -1    0    0    0    0  0.00000000000E+00  0.00000000000E+00  0.45593999997E+02  0.45594000000E+02  0.51100000000E-03 0.  1.
         11   -1    0    0    0    0 -0.00000000000E+00 -0.00000000000E+00 -0.45593999997E+02  0.45594000000E+02  0.51100000000E-03 0. -1.
    9900012    2    1    2    0    0 -0.20979226809E+02  0.17053608739E+02  0.16904661895E+02  0.59301935296E+02  0.49999984076E+02 0.  0.
         12    1    1    2    0    0  0.20979226809E+02 -0.17053608739E+02 -0.16904661895E+02  0.31886064704E+02  0.00000000000E+00 0. -1.
         11    1    3    3    0    0 -0.38170244656E+01  0.18918079960E+02 -0.18193510661E+01  0.19384877191E+02  0.51100000000E-03 0. -1.
        -11    1    3    3    0    0 -0.24701740303E+01  0.66454271096E+01  0.21566682872E+02  0.22702098396E+02  0.51100000000E-03 0.  1.
         12    1    3    3    0    0 -0.14692028313E+02 -0.85098983313E+01 -0.28426699110E+01  0.17214959709E+02  0.00000000000E+00 0. -1.
</event>
<event>
 7    1  0.1205909E-011  0.5930195E+02  0.7816164E-02  0.1266605E+00
        -11   -1    0    0    0    0  0.00000000000E+00  0.00000000000E+00  0.45593999997E+02  0.45594000000E+02  0.51100000000E-03 0. -1.
         11   -1    0    0    0    0 -0.00000000000E+00 -0.00000000000E+00 -0.45593999997E+02  0.45594000000E+02  0.51100000000E-03 0.  1.
    9900012    2    1    2    0    0  0.96643154594E+01  0.16150509885E+02 -0.25738731803E+02  0.59301948541E+02  0.50000008230E+02 0.  0.
         12    1    1    2    0    0 -0.96643154594E+01 -0.16150509885E+02  0.25738731803E+02  0.31886051459E+02  0.00000000000E+00 0. -1.
         11    1    3    3    0    0  0.34388213414E+01  0.10397381108E+02  0.79694600050E+01  0.13544124895E+02  0.51100000000E-03 0. -1.
        -11    1    3    3    0    0  0.18022156206E+02  0.63642530389E+01 -0.20054488483E+02  0.27703507713E+02  0.51100000000E-03 0.  1.
         12    1    3    3    0    0 -0.11796662088E+02 -0.61112426211E+00 -0.13653703325E+02  0.18054315932E+02  0.00000000000E+00 0. -1.
</event>
<event>
 7    1  0.1205909E-011  0.5930192E+02  0.7816164E-02  0.1266605E+00
        -11   -1    0    0    0    0  0.00000000000E+00  0.00000000000E+00  0.45593999997E+02  0.45594000000E+02  0.51100000000E-03 0.  1.
         11   -1    0    0    0    0 -0.00000000000E+00 -0.00000000000E+00 -0.45593999997E+02  0.45594000000E+02  0.51100000000E-03 0. -1.
    9900012    2    1    2    0    0 -0.27501043233E+02 -0.36703426633E+01  0.15714435869E+02  0.59301917004E+02  0.49999950715E+02 0.  0.
         12    1    1    2    0    0  0.27501043233E+02  0.36703426633E+01 -0.15714435869E+02  0.31886082996E+02  0.00000000000E+00 0. -1.
         11    1    3    3    0    0 -0.20388559745E+02  0.32313200705E+01 -0.75317786628E+01  0.21974132246E+02  0.51100000000E-03 0. -1.
        -11    1    3    3    0    0 -0.70998077113E+01 -0.17068132467E+02  0.11405045176E+02  0.21721037525E+02  0.51100000000E-03 0.  1.
        -12    1    3    3    0    0 -0.12675776685E-01  0.10166469733E+02  0.11841169356E+02  0.15606747234E+02  0.00000000000E+00 0.  1.
</event>
<event>
 7    1  0.1205909E-011  0.5930200E+02  0.7816164E-02  0.1266605E+00
        -11   -1    0    0    0    0  0.00000000000E+00  0.00000000000E+00  0.45593999997E+02  0.45594000000E+02  0.51100000000E-03 0.  1.
         11   -1    0    0    0    0 -0.00000000000E+00 -0.00000000000E+00 -0.45593999997E+02  0.45594000000E+02  0.51100000000E-03 0. -1.
    9900012    2    1    2    0    0 -0.45768581225E+01 -0.20925253009E+02  0.23619976138E+02  0.59301998110E+02  0.50000098634E+02 0.  0.
         12    1    1    2    0    0  0.45768581225E+01  0.20925253009E+02 -0.23619976138E+02  0.31886001890E+02  0.00000000000E+00 0. -1.
         11    1    3    3    0    0  0.84424840568E+01 -0.22854385679E+02  0.57705829347E+01  0.25037933411E+02  0.51100000000E-03 0. -1.
        -11    1    3    3    0    0 -0.35314619096E+01 -0.10249827970E+02  0.15090510979E+02  0.18581004238E+02  0.51100000000E-03 0.  1.
         12    1    3    3    0    0 -0.94878802698E+01  0.12178960641E+02  0.27588822242E+01  0.15683060461E+02  0.00000000000E+00 0. -1.
</event>
<event>
 7    1  0.1205909E-011  0.5930194E+02  0.7816164E-02  0.1266605E+00
        -11   -1    0    0    0    0  0.00000000000E+00  0.00000000000E+00  0.45593999997E+02  0.45594000000E+02  0.51100000000E-03 0.  1.
         11   -1    0    0    0    0 -0.00000000000E+00 -0.00000000000E+00 -0.45593999997E+02  0.45594000000E+02  0.51100000000E-03 0. -1.
    9900012    2    1    2    0    0 -0.12782754611E+02 -0.26688665056E+02  0.11875896987E+02  0.59301943688E+02  0.49999999380E+02 0.  0.
         12    1    1    2    0    0  0.12782754611E+02  0.26688665056E+02 -0.11875896987E+02  0.31886056312E+02  0.00000000000E+00 0. -1.
         11    1    3    3    0    0  0.46818184655E+01  0.50990401949E+00  0.13913834885E+02  0.14689255520E+02  0.51100000000E-03 0. -1.
        -11    1    3    3    0    0 -0.16988113906E+02 -0.26363215328E+02  0.97054183246E+01  0.32830021042E+02  0.51100000000E-03 0.  1.
         12    1    3    3    0    0 -0.47645917070E+00 -0.83535374711E+00 -0.11743356223E+02  0.11782667126E+02  0.00000000000E+00 0. -1.
</event>
<event>
 7    1  0.1205909E-011  0.5930194E+02  0.7816164E-02  0.1266605E+00
        -11   -1    0    0    0    0  0.00000000000E+00  0.00000000000E+00  0.45593999997E+02  0.45594000000E+02  0.51100000000E-03 0. -1.
         11   -1    0    0    0    0 -0.00000000000E+00 -0.00000000000E+00 -0.45593999997E+02  0.45594000000E+02  0.51100000000E-03 0.  1.
    9900012    2    1    2    0    0  0.14244049714E+02  0.10389952969E+02 -0.26568346081E+02  0.59301935827E+02  0.49999985044E+02 0.  0.
         12    1    1    2    0    0 -0.14244049714E+02 -0.10389952969E+02  0.26568346081E+02  0.31886064173E+02  0.00000000000E+00 0. -1.
         11    1    3    3    0    0 -0.46851278080E+00 -0.99307411508E+00 -0.16340135552E+02  0.16376987835E+02  0.51100000000E-03 0.  1.
        -11    1    3    3    0    0  0.16609382008E+02  0.19339541932E+02 -0.18340493546E+02  0.31404826963E+02  0.51100000000E-03 0. -1.
         12    1    3    3    0    0 -0.18968195135E+01 -0.79565148481E+01  0.81122830163E+01  0.11520121029E+02  0.00000000000E+00 0. -1.
</event>
<event>
 7    1  0.1205909E-011  0.5930191E+02  0.7816164E-02  0.1266605E+00
        -11   -1    0    0    0    0  0.00000000000E+00  0.00000000000E+00  0.45593999997E+02  0.45594000000E+02  0.51100000000E-03 0. -1.
         11   -1    0    0    0    0 -0.00000000000E+00 -0.00000000000E+00 -0.45593999997E+02  0.45594000000E+02  0.51100000000E-03 0.  1.
    9900012    2    1    2    0    0  0.21669181762E+02 -0.71366527032E+01 -0.22276382124E+02  0.59301914467E+02  0.49999946089E+02 0.  0.
         12    1    1    2    0    0 -0.21669181762E+02  0.71366527032E+01  0.22276382124E+02  0.31886085533E+02  0.00000000000E+00 0. -1.
         11    1    3    3    0    0 -0.28346870955E+01  0.11385536178E+02 -0.53102028442E+01  0.12878825237E+02  0.51100000000E-03 0. -1.
        -11    1    3    3    0    0  0.32705975876E+01 -0.36464716266E+01 -0.19750047654E+02  0.20348413857E+02  0.51100000000E-03 0.  1.
         12    1    3    3    0    0  0.21233271270E+02 -0.14875717254E+02  0.27838683742E+01  0.26074675373E+02  0.00000000000E+00 0. -1.
</event>
<event>
 7    1  0.1205909E-011  0.5930194E+02  0.7816164E-02  0.1266605E+00
        -11   -1    0    0    0    0  0.00000000000E+00  0.00000000000E+00  0.45593999997E+02  0.45594000000E+02  0.51100000000E-03 0.  1.
         11   -1    0    0    0    0 -0.00000000000E+00 -0.00000000000E+00 -0.45593999997E+02  0.45594000000E+02  0.51100000000E-03 0. -1.
    9900012    2    1    2    0    0 -0.29715161453E+02 -0.37196805455E+01 -0.10949607064E+02  0.59301941316E+02  0.49999995054E+02 0.  0.
         12    1    1    2    0    0  0.29715161453E+02  0.37196805455E+01  0.10949607064E+02  0.31886058684E+02  0.00000000000E+00 0. -1.
         11    1    3    3    0    0  0.95926922872E+01  0.81324991132E+01 -0.12715974255E+01  0.12640183836E+02  0.51100000000E-03 0. -1.
        -11    1    3    3    0    0 -0.50556776986E+01 -0.80341130702E+01 -0.75552411726E+01  0.12132127565E+02  0.51100000000E-03 0.  1.
        -12    1    3    3    0    0 -0.34252176042E+02 -0.38180665885E+01 -0.21227684655E+01  0.34529629915E+02  0.00000000000E+00 0.  1.
</event>
<event>
 7    1  0.1205909E-011  0.5930194E+02  0.7816164E-02  0.1266605E+00
        -11   -1    0    0    0    0  0.00000000000E+00  0.00000000000E+00  0.45593999997E+02  0.45594000000E+02  0.51100000000E-03 0. -1.
         11   -1    0    0    0    0 -0.00000000000E+00 -0.00000000000E+00 -0.45593999997E+02  0.45594000000E+02  0.51100000000E-03 0.  1.
    9900012    2    1    2    0    0  0.25602815790E+02 -0.18965505168E+02 -0.12354531792E+01  0.59301938669E+02  0.49999990227E+02 0.  0.
         12    1    1    2    0    0 -0.25602815790E+02  0.18965505168E+02  0.12354531792E+01  0.31886061331E+02  0.00000000000E+00 0. -1.
         11    1    3    3    0    0  0.23730889570E+02  0.46962914091E+01 -0.20538737651E+00  0.24191991588E+02  0.51100000000E-03 0. -1.
        -11    1    3    3    0    0  0.36645622660E+01  0.67119155879E+00 -0.87571444566E+01  0.95166745245E+01  0.51100000000E-03 0.  1.
         12    1    3    3    0    0 -0.17926360460E+01 -0.24332988136E+02  0.77270786539E+01  0.25593272556E+02  0.00000000000E+00 0. -1.
</event>
<event>
 7    1  0.1205909E-011  0.5930195E+02  0.7816164E-02  0.1266605E+00
        -11   -1    0    0    0    0  0.00000000000E+00  0.00000000000E+00  0.45593999997E+02  0.45594000000E+02  0.51100000000E-03 0.  1.
         11   -1    0    0    0    0 -0.00000000000E+00 -0.00000000000E+00 -0.45593999997E+02  0.45594000000E+02  0.51100000000E-03 0. -1.
    9900012    2    1    2    0    0 -0.22211517869E+01  0.45531143251E+01  0.31481034302E+02  0.59301954681E+02  0.50000019430E+02 0.  0.
         12    1    1    2    0    0  0.22211517869E+01 -0.45531143251E+01 -0.31481034302E+02  0.31886045319E+02  0.00000000000E+00 0. -1.
         11    1    3    3    0    0  0.12478670917E+01  0.82647122257E+01  0.23816850222E+02  0.25240938873E+02  0.51100000000E-03 0.  1.
        -11    1    3    3    0    0  0.14404042283E+02 -0.86999018240E-02  0.38130115728E+00  0.14409090901E+02  0.51100000000E-03 0. -1.
        -12    1    3    3    0    0 -0.17873061161E+02 -0.37028979988E+01  0.72828829234E+01  0.19651924907E+02  0.00000000000E+00 0.  1.
</event>
<event>
 7    1  0.1205909E-011  0.5930194E+02  0.7816164E-02  0.1266605E+00
        -11   -1    0    0    0    0  0.00000000000E+00  0.00000000000E+00  0.45593999997E+02  0.45594000000E+02  0.51100000000E-03 0. -1.
         11   -1    0    0    0    0 -0.00000000000E+00 -0.00000000000E+00 -0.45593999997E+02  0.45594000000E+02  0.51100000000E-03 0.  1.
    9900012    2    1    2    0    0 -0.17416084445E+02  0.19423359674E+02 -0.18333947509E+02  0.59301944589E+02  0.50000001024E+02 0.  0.
         12    1    1    2    0    0  0.17416084445E+02 -0.19423359674E+02  0.18333947509E+02  0.31886055411E+02  0.00000000000E+00 0. -1.
         11    1    3    3    0    0 -0.11981196557E+02  0.28714165450E+02 -0.13169926231E+02  0.33786081832E+02  0.51100000000E-03 0.  1.
        -11    1    3    3    0    0 -0.10774328637E+02  0.15283863962E+01  0.25742117612E+01  0.11182517114E+02  0.51100000000E-03 0. -1.
        -12    1    3    3    0    0  0.53394407487E+01 -0.10819192172E+02 -0.77382330392E+01  0.14333345643E+02  0.00000000000E+00 0.  1.
</event>
<event>
 7    1  0.1205909E-011  0.5930200E+02  0.7816164E-02  0.1266605E+00
        -11   -1    0    0    0    0  0.00000000000E+00  0.00000000000E+00  0.45593999997E+02  0.45594000000E+02  0.51100000000E-03 0. -1.
         11   -1    0    0    0    0 -0.00000000000E+00 -0.00000000000E+00 -0.45593999997E+02  0.45594000000E+02  0.51100000000E-03 0.  1.
    9900012    2    1    2    0    0  0.13719530847E+02  0.11293354050E+02 -0.26475491255E+02  0.59301999788E+02  0.50000101693E+02 0.  0.
         12    1    1    2    0    0 -0.13719530847E+02 -0.11293354050E+02  0.26475491255E+02  0.31886000212E+02  0.00000000000E+00 0. -1.
         11    1    3    3    0    0  0.10625421853E+00  0.18801564241E+02 -0.33696136321E+01  0.19101424139E+02  0.51100000000E-03 0. -1.
        -11    1    3    3    0    0  0.76217617450E+01  0.10475225132E+02 -0.14313567637E+02  0.19305434790E+02  0.51100000000E-03 0.  1.
         12    1    3    3    0    0  0.59915148833E+01 -0.17983435323E+02 -0.87923099852E+01  0.20895140858E+02  0.00000000000E+00 0. -1.
</event>
<event>
 7    1  0.1205909E-011  0.5930194E+02  0.7816164E-02  0.1266605E+00
        -11   -1    0    0    0    0  0.00000000000E+00  0.00000000000E+00  0.45593999997E+02  0.45594000000E+02  0.51100000000E-03 0.  1.
         11   -1    0    0    0    0 -0.00000000000E+00 -0.00000000000E+00 -0.45593999997E+02  0.45594000000E+02  0.51100000000E-03 0. -1.
    9900012    2    1    2    0    0  0.19883498651E+02  0.17898530245E+02 -0.17349638082E+02  0.59301939643E+02  0.49999992003E+02 0.  0.
         12    1    1    2    0    0 -0.19883498651E+02 -0.17898530245E+02  0.17349638082E+02  0.31886060357E+02  0.00000000000E+00 0. -1.
         11    1    3    3    0    0 -0.21677678002E+00  0.48870905022E+01 -0.19805106309E+02  0.20400315731E+02  0.51100000000E-03 0. -1.
        -11    1    3    3    0    0  0.26367854375E+02  0.13068650003E+02 -0.42371767030E+01  0.29732255614E+02  0.51100000000E-03 0.  1.
         12    1    3    3    0    0 -0.62675789437E+01 -0.57210260416E-01  0.66926449299E+01  0.91693682981E+01  0.00000000000E+00 0. -1.
</event>
<event>
 7    1  0.1205909E-011  0.5930191E+02  0.7816164E-02  0.1266605E+00
        -11   -1    0    0    0    0  0.00000000000E+00  0.00000000000E+00  0.45593999997E+02  0.45594000000E+02  0.51100000000E-03 0. -1.
         11   -1    0    0    0    0 -0.00000000000E+00 -0.00000000000E+00 -0.45593999997E+02  0.45594000000E+02  0.51100000000E-03 0.  1.
    9900012    2    1    2    0    0 -0.98703213373E+00  0.26661200305E+02 -0.17462210122E+02  0.59301911866E+02  0.49999941345E+02 0.  0.
         12    1    1    2    0    0  0.98703213373E+00 -0.26661200305E+02  0.17462210122E+02  0.31886088134E+02  0.00000000000E+00 0. -1.
         11    1    3    3    0    0 -0.17755468253E+01  0.22563188896E+02 -0.31544674780E+00  0.22635140083E+02  0.51100000000E-03 0. -1.
        -11    1    3    3    0    0  0.36038392057E+01  0.10186277653E+02 -0.24461827213E+02  0.26741894105E+02  0.51100000000E-03 0.  1.
         12    1    3    3    0    0 -0.28153245141E+01 -0.60882662435E+01  0.73150638388E+01  0.99248776787E+01  0.00000000000E+00 0. -1.
</event>
<event>
 7    1  0.1205909E-011  0.5930195E+02  0.7816164E-02  0.1266605E+00
        -11   -1    0    0    0    0  0.00000000000E+00  0.00000000000E+00  0.45593999997E+02  0.45594000000E+02  0.51100000000E-03 0. -1.
         11   -1    0    0    0    0 -0.00000000000E+00 -0.00000000000E+00 -0.45593999997E+02  0.45594000000E+02  0.51100000000E-03 0.  1.
    9900012    2    1    2    0    0 -0.18364182891E+02 -0.89020086181E+01 -0.24499619487E+02  0.59301947788E+02  0.50000006858E+02 0.  0.
         12    1    1    2    0    0  0.18364182891E+02  0.89020086181E+01  0.24499619487E+02  0.31886052212E+02  0.00000000000E+00 0. -1.
         11    1    3    3    0    0 -0.22985106727E+02  0.10481439511E+02 -0.14514126609E+02  0.29134782940E+02  0.51100000000E-03 0. -1.
        -11    1    3    3    0    0 -0.66032628496E+01 -0.89773073007E+01  0.12014267600E+01  0.11208860475E+02  0.51100000000E-03 0.  1.
        -12    1    3    3    0    0  0.11224186686E+02 -0.10406140829E+02 -0.11186919637E+02  0.18958304373E+02  0.00000000000E+00 0.  1.
</event>
<event>
 7    1  0.1205909E-011  0.5930198E+02  0.7816164E-02  0.1266605E+00
        -11   -1    0    0    0    0  0.00000000000E+00  0.00000000000E+00  0.45593999997E+02  0.45594000000E+02  0.51100000000E-03 0. -1.
         11   -1    0    0    0    0 -0.00000000000E+00 -0.00000000000E+00 -0.45593999997E+02  0.45594000000E+02  0.51100000000E-03 0.  1.
    9900012    2    1    2    0    0  0.97043635993E+01 -0.27080438646E+02 -0.13754769920E+02  0.59301976014E+02  0.50000058335E+02 0.  0.
         12    1    1    2    0    0 -0.97043635993E+01  0.27080438646E+02  0.13754769920E+02  0.31886023986E+02  0.00000000000E+00 0. -1.
         11    1    3    3    0    0  0.13484678871E+00 -0.13840813266E+01 -0.10222272877E+01  0.17259240029E+01  0.51100000000E-03 0. -1.
        -11    1    3    3    0    0  0.20625469728E+02 -0.32177239649E+02  0.17213243052E+01  0.38258955952E+02  0.51100000000E-03 0.  1.
         12    1    3    3    0    0 -0.11055952917E+02  0.64808823303E+01 -0.14453866938E+02  0.19317096058E+02  0.00000000000E+00 0. -1.
</event>
<event>
 7    1  0.1205909E-011  0.5930195E+02  0.7816164E-02  0.1266605E+00
        -11   -1    0    0    0    0  0.00000000000E+00  0.00000000000E+00  0.45593999997E+02  0.45594000000E+02  0.51100000000E-03 0. -1.
         11   -1    0    0    0    0 -0.00000000000E+00 -0.00000000000E+00 -0.45593999997E+02  0.45594000000E+02  0.51100000000E-03 0.  1.
    9900012    2    1    2    0    0 -0.30440827202E+02 -0.68434940066E+01  0.65759096884E+01  0.59301953534E+02  0.50000017338E+02 0.  0.
         12    1    1    2    0    0  0.30440827202E+02  0.68434940066E+01 -0.65759096884E+01  0.31886046466E+02  0.00000000000E+00 0. -1.
         11    1    3    3    0    0 -0.12485520953E+02 -0.10298607358E+02  0.10943950222E+02  0.19537645551E+02  0.51100000000E-03 0. -1.
        -11    1    3    3    0    0 -0.40680516307E+01 -0.11797699421E+02  0.88195363392E+01  0.15281327730E+02  0.51100000000E-03 0.  1.
        -12    1    3    3    0    0 -0.13887254618E+02  0.15252812772E+02 -0.13187576872E+02  0.24482980253E+02  0.00000000000E+00 0.  1.
</event>
<event>
 7    1  0.1205909E-011  0.5930194E+02  0.7816164E-02  0.1266605E+00
        -11   -1    0    0    0    0  0.00000000000E+00  0.00000000000E+00  0.45593999997E+02  0.45594000000E+02  0.51100000000E-03 0.  1.
         11   -1    0    0    0    0 -0.00000000000E+00 -0.00000000000E+00 -0.45593999997E+02  0.45594000000E+02  0.51100000000E-03 0. -1.
    9900012    2    1    2    0    0 -0.25462106354E+01  0.10123624065E+02  0.30128887037E+02  0.59301940555E+02  0.49999993667E+02 0.  0.
         12    1    1    2    0    0  0.25462106354E+01 -0.10123624065E+02 -0.30128887037E+02  0.31886059445E+02  0.00000000000E+00 0. -1.
         11    1    3    3    0    0  0.40676268076E+01  0.41733388475E+01 -0.50787656508E+01  0.77302138249E+01  0.51100000000E-03 0. -1.
        -11    1    3    3    0    0  0.31640301355E+01  0.28053821754E+01 -0.69749405913E+01  0.81566569354E+01  0.51100000000E-03 0.  1.
        -12    1    3    3    0    0 -0.97778675784E+01  0.31449030423E+01  0.42182593279E+02  0.43415069795E+02  0.00000000000E+00 0.  1.
</event>
<event>
 7    1  0.1205909E-011  0.5930194E+02  0.7816164E-02  0.1266605E+00
        -11   -1    0    0    0    0  0.00000000000E+00  0.00000000000E+00  0.45593999997E+02  0.45594000000E+02  0.51100000000E-03 0.  1.
         11   -1    0    0    0    0 -0.00000000000E+00 -0.00000000000E+00 -0.45593999997E+02  0.45594000000E+02  0.51100000000E-03 0. -1.
    9900012    2    1    2    0    0 -0.23717871078E+02  0.11942020328E+02  0.17651384111E+02  0.59301943188E+02  0.49999998469E+02 0.  0.
         12    1    1    2    0    0  0.23717871078E+02 -0.11942020328E+02 -0.17651384111E+02  0.31886056812E+02  0.00000000000E+00 0. -1.
         11    1    3    3    0    0  0.49641227505E+01  0.49965678862E+01  0.80692312433E+00  0.70893815325E+01  0.51100000000E-03 0. -1.
        -11    1    3    3    0    0  0.61303160017E+01  0.12438637373E+02  0.21678438598E+01  0.14035669604E+02  0.51100000000E-03 0.  1.
         12    1    3    3    0    0 -0.34812309830E+02 -0.54931849315E+01  0.14676617127E+02  0.38176892051E+02  0.00000000000E+00 0. -1.
</event>
<event>
 7    1  0.1205909E-011  0.5930191E+02  0.7816164E-02  0.1266605E+00
        -11   -1    0    0    0    0  0.00000000000E+00  0.00000000000E+00  0.45593999997E+02  0.45594000000E+02  0.51100000000E-03 0. -1.
         11   -1    0    0    0    0 -0.00000000000E+00 -0.00000000000E+00 -0.45593999997E+02  0.45594000000E+02  0.51100000000E-03 0.  1.
    9900012    2    1    2    0    0 -0.13191714240E+02  0.17385324134E+02 -0.23247621136E+02  0.59301910426E+02  0.49999938718E+02 0.  0.
         12    1    1    2    0    0  0.13191714240E+02 -0.17385324134E+02  0.23247621136E+02  0.31886089574E+02  0.00000000000E+00 0. -1.
         11    1    3    3    0    0 -0.20279231610E+02 -0.27167771644E+01 -0.19131092305E+02  0.28011190726E+02  0.51100000000E-03 0. -1.
        -11    1    3    3    0    0  0.52784034859E+01  0.57792896291E+01 -0.12387214491E+02  0.14652809120E+02  0.51100000000E-03 0.  1.
        -12    1    3    3    0    0  0.18091138835E+01  0.14322811669E+02  0.82706856605E+01  0.16637910580E+02  0.00000000000E+00 0.  1.
</event>
<event>
 7    1  0.1205909E-011  0.5930171E+02  0.7816164E-02  0.1266606E+00
        -11   -1    0    0    0    0  0.00000000000E+00  0.00000000000E+00  0.45593999997E+02  0.45594000000E+02  0.51100000000E-03 0.  1.
         11   -1    0    0    0    0 -0.00000000000E+00 -0.00000000000E+00 -0.45593999997E+02  0.45594000000E+02  0.51100000000E-03 0. -1.
    9900012    2    1    2    0    0  0.20644509156E+02  0.24284835390E+02  0.88669221417E+00  0.59301714370E+02  0.49999581157E+02 0.  0.
         12    1    1    2    0    0 -0.20644509156E+02 -0.24284835390E+02 -0.88669221417E+00  0.31886285630E+02  0.00000000000E+00 0. -1.
         11    1    3    3    0    0  0.74071126928E+01  0.38510365020E+01  0.44270447308E+01  0.94495780802E+01  0.51100000000E-03 0. -1.
        -11    1    3    3    0    0  0.97837991934E+01 -0.12897013417E+02 -0.35783073032E+00  0.16192088340E+02  0.51100000000E-03 0.  1.
         12    1    3    3    0    0  0.34535972695E+01  0.33330812305E+02 -0.31825217863E+01  0.33660047949E+02  0.00000000000E+00 0. -1.
</event>
<event>
 7    1  0.1205909E-011  0.5930195E+02  0.7816164E-02  0.1266605E+00
        -11   -1    0    0    0    0  0.00000000000E+00  0.00000000000E+00  0.45593999997E+02  0.45594000000E+02  0.51100000000E-03 0.  1.
         11   -1    0    0    0    0 -0.00000000000E+00 -0.00000000000E+00 -0.45593999997E+02  0.45594000000E+02  0.51100000000E-03 0. -1.
    9900012    2    1    2    0    0 -0.23195229996E+02  0.15494223913E+02  0.15447678857E+02  0.59301945818E+02  0.50000003266E+02 0.  0.
         12    1    1    2    0    0  0.23195229996E+02 -0.15494223913E+02 -0.15447678857E+02  0.31886054182E+02  0.00000000000E+00 0. -1.
         11    1    3    3    0    0  0.18481971749E+01  0.18253957554E+02 -0.13017753774E+01  0.18393406932E+02  0.51100000000E-03 0. -1.
        -11    1    3    3    0    0  0.13526365160E+01  0.84022343161E+01  0.23149160496E+01  0.88196373863E+01  0.51100000000E-03 0.  1.
        -12    1    3    3    0    0 -0.26396063687E+02 -0.11161967958E+02  0.14434538185E+02  0.32088901500E+02  0.00000000000E+00 0.  1.
</event>
<event>
 7    1  0.1205909E-011  0.5930195E+02  0.7816164E-02  0.1266605E+00
        -11   -1    0    0    0    0  0.00000000000E+00  0.00000000000E+00  0.45593999997E+02  0.45594000000E+02  0.51100000000E-03 0.  1.
         11   -1    0    0    0    0 -0.00000000000E+00 -0.00000000000E+00 -0.45593999997E+02  0.45594000000E+02  0.51100000000E-03 0. -1.
    9900012    2    1    2    0    0 -0.29274541712E+01 -0.31751224642E+02 -0.10049838657E+00  0.59301947342E+02  0.50000006045E+02 0.  0.
         12    1    1    2    0    0  0.29274541712E+01  0.31751224642E+02  0.10049838657E+00  0.31886052658E+02  0.00000000000E+00 0. -1.
         11    1    3    3    0    0  0.34337982287E+01 -0.78159771407E+01 -0.31047368488E+01  0.90840442591E+01  0.51100000000E-03 0. -1.
        -11    1    3    3    0    0  0.28173225541E+01 -0.24761319350E+02  0.19283910254E+02  0.31510782873E+02  0.51100000000E-03 0.  1.
        -12    1    3    3    0    0 -0.91785749541E+01  0.82607184944E+00 -0.16279671792E+02  0.18707120210E+02  0.00000000000E+00 0.  1.
</event>
<event>
 7    1  0.1205909E-011  0.5930192E+02  0.7816164E-02  0.1266605E+00
        -11   -1    0    0    0    0  0.00000000000E+00  0.00000000000E+00  0.45593999997E+02  0.45594000000E+02  0.51100000000E-03 0.  1.
         11   -1    0    0    0    0 -0.00000000000E+00 -0.00000000000E+00 -0.45593999997E+02  0.45594000000E+02  0.51100000000E-03 0. -1.
    9900012    2    1    2    0    0 -0.12945111017E+02 -0.24341797653E+02  0.16019456538E+02  0.59301921533E+02  0.49999958976E+02 0.  0.
         12    1    1    2    0    0  0.12945111017E+02  0.24341797653E+02 -0.16019456538E+02  0.31886078467E+02  0.00000000000E+00 0. -1.
         11    1    3    3    0    0  0.61410149780E+01  0.18649348109E+00 -0.68917339539E+01  0.92327050170E+01  0.51100000000E-03 0. -1.
        -11    1    3    3    0    0  0.46175686788E+01 -0.33628973666E+00  0.14429723781E+02  0.15154272003E+02  0.51100000000E-03 0.  1.
         12    1    3    3    0    0 -0.23703694673E+02 -0.24192001397E+02  0.84814667110E+01  0.34914944513E+02  0.00000000000E+00 0. -1.
</event>
<event>
 7    1  0.1205909E-011  0.5930194E+02  0.7816164E-02  0.1266605E+00
        -11   -1    0    0    0    0  0.00000000000E+00  0.00000000000E+00  0.45593999997E+02  0.45594000000E+02  0.51100000000E-03 0.  1.
         11   -1    0    0    0    0 -0.00000000000E+00 -0.00000000000E+00 -0.45593999997E+02  0.45594000000E+02  0.51100000000E-03 0. -1.
    9900012    2    1    2    0    0  0.85366527041E+01  0.17922784154E+02  0.24952357792E+02  0.59301940498E+02  0.49999993562E+02 0.  0.
         12    1    1    2    0    0 -0.85366527041E+01 -0.17922784154E+02 -0.24952357792E+02  0.31886059502E+02  0.00000000000E+00 0. -1.
         11    1    3    3    0    0  0.22269327495E+02  0.89985235155E+01  0.10323081830E+02  0.26143113649E+02  0.51100000000E-03 0. -1.
        -11    1    3    3    0    0  0.61454120808E+01  0.76332571711E+01  0.40463057086E+01  0.10602136333E+02  0.51100000000E-03 0.  1.
         12    1    3    3    0    0 -0.19878086871E+02  0.12910034670E+01  0.10582970253E+02  0.22556690515E+02  0.00000000000E+00 0. -1.
</event>
<event>
 7    1  0.1205909E-011  0.5930195E+02  0.7816164E-02  0.1266605E+00
        -11   -1    0    0    0    0  0.00000000000E+00  0.00000000000E+00  0.45593999997E+02  0.45594000000E+02  0.51100000000E-03 0.  1.
         11   -1    0    0    0    0 -0.00000000000E+00 -0.00000000000E+00 -0.45593999997E+02  0.45594000000E+02  0.51100000000E-03 0. -1.
    9900012    2    1    2    0    0  0.98731421476E+01  0.12317117787E+02  0.27704331603E+02  0.59301947939E+02  0.50000007134E+02 0.  0.
         12    1    1    2    0    0 -0.98731421476E+01 -0.12317117787E+02 -0.27704331603E+02  0.31886052061E+02  0.00000000000E+00 0. -1.
         11    1    3    3    0    0  0.65746720243E+01  0.44102603103E+01 -0.84399629717E+01  0.11571935165E+02  0.51100000000E-03 0. -1.
        -11    1    3    3    0    0  0.14511137780E+02 -0.22694905840E+01  0.10890755632E+02  0.18284755008E+02  0.51100000000E-03 0.  1.
        -12    1    3    3    0    0 -0.11212667657E+02  0.10176348061E+02  0.25253538943E+02  0.29445257767E+02  0.00000000000E+00 0.  1.
</event>
<event>
 7    1  0.1205909E-011  0.5930195E+02  0.7816164E-02  0.1266605E+00
        -11   -1    0    0    0    0  0.00000000000E+00  0.00000000000E+00  0.45593999997E+02  0.45594000000E+02  0.51100000000E-03 0. -1.
         11   -1    0    0    0    0 -0.00000000000E+00 -0.00000000000E+00 -0.45593999997E+02  0.45594000000E+02  0.51100000000E-03 0.  1.
    9900012    2    1    2    0    0 -0.76651023327E+01 -0.16705129115E+02 -0.26055808227E+02  0.59301948585E+02  0.50000008311E+02 0.  0.
         12    1    1    2    0    0  0.76651023327E+01  0.16705129115E+02  0.26055808227E+02  0.31886051415E+02  0.00000000000E+00 0. -1.
         11    1    3    3    0    0  0.42661230321E+01  0.68763164428E+01  0.91108322682E+01  0.12185680056E+02  0.51100000000E-03 0. -1.
        -11    1    3    3    0    0 -0.31735746554E+01  0.14216628538E+01 -0.54261353420E+00  0.35195356330E+01  0.51100000000E-03 0.  1.
        -12    1    3    3    0    0 -0.87576507094E+01 -0.25003108412E+02 -0.34624026961E+02  0.43596732896E+02  0.00000000000E+00 0.  1.
</event>
<event>
 7    1  0.1205909E-011  0.5930192E+02  0.7816164E-02  0.1266605E+00
        -11   -1    0    0    0    0  0.00000000000E+00  0.00000000000E+00  0.45593999997E+02  0.45594000000E+02  0.51100000000E-03 0.  1.
         11   -1    0    0    0    0 -0.00000000000E+00 -0.00000000000E+00 -0.45593999997E+02  0.45594000000E+02  0.51100000000E-03 0. -1.
    9900012    2    1    2    0    0  0.71259381097E+01  0.26746943652E+01  0.30964323701E+02  0.59301916418E+02  0.49999949647E+02 0.  0.
         12    1    1    2    0    0 -0.71259381097E+01 -0.26746943652E+01 -0.30964323701E+02  0.31886083582E+02  0.00000000000E+00 0. -1.
         11    1    3    3    0    0 -0.13928509789E+01  0.51586645918E+01  0.76309424467E+00  0.53976075541E+01  0.51100000000E-03 0. -1.
        -11    1    3    3    0    0  0.42797431227E+01 -0.16583251583E+02 -0.31811041078E+01  0.17419525191E+02  0.51100000000E-03 0.  1.
        -12    1    3    3    0    0  0.42390459659E+01  0.14099281357E+02  0.33382333565E+02  0.36484783673E+02  0.00000000000E+00 0.  1.
</event>
<event>
 7    1  0.1205909E-011  0.5930195E+02  0.7816164E-02  0.1266605E+00
        -11   -1    0    0    0    0  0.00000000000E+00  0.00000000000E+00  0.45593999997E+02  0.45594000000E+02  0.51100000000E-03 0.  1.
         11   -1    0    0    0    0 -0.00000000000E+00 -0.00000000000E+00 -0.45593999997E+02  0.45594000000E+02  0.51100000000E-03 0. -1.
    9900012    2    1    2    0    0  0.11449659421E+02  0.17212003513E+02  0.24276987172E+02  0.59301954903E+02  0.50000019833E+02 0.  0.
         12    1    1    2    0    0 -0.11449659421E+02 -0.17212003513E+02 -0.24276987172E+02  0.31886045097E+02  0.00000000000E+00 0. -1.
         11    1    3    3    0    0 -0.89009173916E+01  0.17418277095E+02  0.21981132759E+02  0.29424359042E+02  0.51100000000E-03 0. -1.
        -11    1    3    3    0    0 -0.17287293364E+01 -0.41531342562E+01  0.56249549299E+01  0.72025792251E+01  0.51100000000E-03 0.  1.
         12    1    3    3    0    0  0.22079306149E+02  0.39468606742E+01 -0.33291005171E+01  0.22675016636E+02  0.00000000000E+00 0. -1.
</event>
<event>
 7    1  0.1205909E-011  0.5930196E+02  0.7816164E-02  0.1266605E+00
        -11   -1    0    0    0    0  0.00000000000E+00  0.00000000000E+00  0.45593999997E+02  0.45594000000E+02  0.51100000000E-03 0.  1.
         11   -1    0    0    0    0 -0.00000000000E+00 -0.00000000000E+00 -0.45593999997E+02  0.45594000000E+02  0.51100000000E-03 0. -1.
    9900012    2    1    2    0    0  0.32226786810E+01 -0.22473575996E+02  0.22389117231E+02  0.59301955305E+02  0.50000020567E+02 0.  0.
         12    1    1    2    0    0 -0.32226786810E+01  0.22473575996E+02 -0.22389117231E+02  0.31886044695E+02  0.00000000000E+00 0. -1.
         11    1    3    3    0    0  0.12947549275E+02 -0.11398964259E+01  0.14131059144E+02  0.19199615332E+02  0.51100000000E-03 0. -1.
        -11    1    3    3    0    0  0.97732844472E+01 -0.91833621384E+01  0.10481443857E+02  0.17020925199E+02  0.51100000000E-03 0.  1.
        -12    1    3    3    0    0 -0.19498155041E+02 -0.12150317432E+02 -0.22233857703E+01  0.23081414774E+02  0.00000000000E+00 0.  1.
</event>
<event>
 7    1  0.1205909E-011  0.5930195E+02  0.7816164E-02  0.1266605E+00
        -11   -1    0    0    0    0  0.00000000000E+00  0.00000000000E+00  0.45593999997E+02  0.45594000000E+02  0.51100000000E-03 0.  1.
         11   -1    0    0    0    0 -0.00000000000E+00 -0.00000000000E+00 -0.45593999997E+02  0.45594000000E+02  0.51100000000E-03 0. -1.
    9900012    2    1    2    0    0 -0.11179166331E+02 -0.26898016748E+02 -0.12970851637E+02  0.59301952000E+02  0.50000014540E+02 0.  0.
         12    1    1    2    0    0  0.11179166331E+02  0.26898016748E+02  0.12970851637E+02  0.31886048000E+02  0.00000000000E+00 0. -1.
         11    1    3    3    0    0  0.59104046235E+01  0.10109531554E+01 -0.27200402443E+01  0.65843396242E+01  0.51100000000E-03 0. -1.
        -11    1    3    3    0    0  0.25260169904E+01  0.79363243909E+01  0.42615659276E+01  0.93555839524E+01  0.51100000000E-03 0.  1.
        -12    1    3    3    0    0 -0.19615587945E+02 -0.35845294295E+02 -0.14512377321E+02  0.43362028423E+02  0.00000000000E+00 0.  1.
</event>
<event>
 7    1  0.1205909E-011  0.5930194E+02  0.7816164E-02  0.1266605E+00
        -11   -1    0    0    0    0  0.00000000000E+00  0.00000000000E+00  0.45593999997E+02  0.45594000000E+02  0.51100000000E-03 0.  1.
         11   -1    0    0    0    0 -0.00000000000E+00 -0.00000000000E+00 -0.45593999997E+02  0.45594000000E+02  0.51100000000E-03 0. -1.
    9900012    2    1    2    0    0 -0.23353754332E+02  0.61610184379E+01  0.20817421246E+02  0.59301936948E+02  0.49999987088E+02 0.  0.
         12    1    1    2    0    0  0.23353754332E+02 -0.61610184379E+01 -0.20817421246E+02  0.31886063052E+02  0.00000000000E+00 0. -1.
         11    1    3    3    0    0 -0.39173528801E+01 -0.39658243485E+01 -0.44819975376E+01  0.71527420294E+01  0.51100000000E-03 0. -1.
        -11    1    3    3    0    0 -0.13780583565E+02 -0.14676321831E+02  0.10248171125E+02  0.22590350098E+02  0.51100000000E-03 0.  1.
        -12    1    3    3    0    0 -0.56558178874E+01  0.24803164618E+02  0.15051247659E+02  0.29558844820E+02  0.00000000000E+00 0.  1.
</event>
<event>
 7    1  0.1205909E-011  0.5930191E+02  0.7816164E-02  0.1266605E+00
        -11   -1    0    0    0    0  0.00000000000E+00  0.00000000000E+00  0.45593999997E+02  0.45594000000E+02  0.51100000000E-03 0.  1.
         11   -1    0    0    0    0 -0.00000000000E+00 -0.00000000000E+00 -0.45593999997E+02  0.45594000000E+02  0.51100000000E-03 0. -1.
    9900012    2    1    2    0    0  0.28562229749E+01  0.23790229897E+01  0.31668678017E+02  0.59301906990E+02  0.49999932452E+02 0.  0.
         12    1    1    2    0    0 -0.28562229749E+01 -0.23790229897E+01 -0.31668678017E+02  0.31886093010E+02  0.00000000000E+00 0. -1.
         11    1    3    3    0    0  0.28855543928E+01 -0.64585534406E+01 -0.30893366426E+01  0.77190244106E+01  0.51100000000E-03 0. -1.
        -11    1    3    3    0    0  0.15756385162E+02 -0.54722501342E+01  0.13179882117E+02  0.21258374533E+02  0.51100000000E-03 0.  1.
         12    1    3    3    0    0 -0.15785716580E+02  0.14309826564E+02  0.21578132543E+02  0.30324508047E+02  0.00000000000E+00 0. -1.
</event>
<event>
 7    1  0.1205909E-011  0.5930194E+02  0.7816164E-02  0.1266605E+00
        -11   -1    0    0    0    0  0.00000000000E+00  0.00000000000E+00  0.45593999997E+02  0.45594000000E+02  0.51100000000E-03 0. -1.
         11   -1    0    0    0    0 -0.00000000000E+00 -0.00000000000E+00 -0.45593999997E+02  0.45594000000E+02  0.51100000000E-03 0.  1.
    9900012    2    1    2    0    0  0.29523337070E+02 -0.80806153148E+01  0.89329031055E+01  0.59301944529E+02  0.50000000915E+02 0.  0.
         12    1    1    2    0    0 -0.29523337070E+02  0.80806153148E+01 -0.89329031055E+01  0.31886055471E+02  0.00000000000E+00 0. -1.
         11    1    3    3    0    0 -0.40042994150E+01  0.42861327314E+01 -0.27565496656E+00  0.58720808507E+01  0.51100000000E-03 0. -1.
        -11    1    3    3    0    0  0.57759975200E+01 -0.10954385604E+02  0.20079738662E+02  0.23591452187E+02  0.51100000000E-03 0.  1.
        -12    1    3    3    0    0  0.27751638965E+02 -0.14123624423E+01 -0.10871180590E+02  0.29838411491E+02  0.00000000000E+00 0.  1.
</event>
<event>
 7    1  0.1205909E-011  0.5930197E+02  0.7816164E-02  0.1266605E+00
        -11   -1    0    0    0    0  0.00000000000E+00  0.00000000000E+00  0.45593999997E+02  0.45594000000E+02  0.51100000000E-03 0.  1.
         11   -1    0    0    0    0 -0.00000000000E+00 -0.00000000000E+00 -0.45593999997E+02  0.45594000000E+02  0.51100000000E-03 0. -1.
    9900012    2    1    2    0    0 -0.27644406490E+02 -0.58258839770E+01  0.14783937091E+02  0.59301969670E+02  0.50000046766E+02 0.  0.
         12    1    1    2    0    0  0.27644406490E+02  0.58258839770E+01 -0.14783937091E+02  0.31886030330E+02  0.00000000000E+00 0. -1.
         11    1    3    3    0    0  0.11455703730E+02 -0.83371818345E+01  0.58963432132E+01  0.15346289859E+02  0.51100000000E-03 0. -1.
        -11    1    3    3    0    0 -0.14341591603E+02  0.88573894186E+01  0.72350821545E+01  0.18343418739E+02  0.51100000000E-03 0.  1.
        -12    1    3    3    0    0 -0.24758518617E+02 -0.63460915611E+01  0.16525117232E+01  0.25612261072E+02  0.00000000000E+00 0.  1.
</event>
<event>
 7    1  0.1205909E-011  0.5930193E+02  0.7816164E-02  0.1266605E+00
        -11   -1    0    0    0    0  0.00000000000E+00  0.00000000000E+00  0.45593999997E+02  0.45594000000E+02  0.51100000000E-03 0. -1.
         11   -1    0    0    0    0 -0.00000000000E+00 -0.00000000000E+00 -0.45593999997E+02  0.45594000000E+02  0.51100000000E-03 0.  1.
    9900012    2    1    2    0    0  0.24984466716E+02  0.19518419350E+02 -0.33954426006E+01  0.59301932486E+02  0.49999978951E+02 0.  0.
         12    1    1    2    0    0 -0.24984466716E+02 -0.19518419350E+02  0.33954426006E+01  0.31886067514E+02  0.00000000000E+00 0. -1.
         11    1    3    3    0    0  0.27960492072E+01  0.20955248502E+02 -0.18983305583E+01  0.21226021533E+02  0.51100000000E-03 0. -1.
        -11    1    3    3    0    0  0.60115625466E+01  0.65747908622E+01 -0.13660231419E+02  0.16308546282E+02  0.51100000000E-03 0.  1.
        -12    1    3    3    0    0  0.16176854963E+02 -0.80116200144E+01  0.12163119377E+02  0.21767364671E+02  0.00000000000E+00 0.  1.
</event>
<event>
 7    1  0.1205909E-011  0.5930196E+02  0.7816164E-02  0.1266605E+00
        -11   -1    0    0    0    0  0.00000000000E+00  0.00000000000E+00  0.45593999997E+02  0.45594000000E+02  0.51100000000E-03 0.  1.
         11   -1    0    0    0    0 -0.00000000000E+00 -0.00000000000E+00 -0.45593999997E+02  0.45594000000E+02  0.51100000000E-03 0. -1.
    9900012    2    1    2    0    0  0.31323014026E+02  0.16336021941E+01 -0.57375732982E+01  0.59301958992E+02  0.50000027292E+02 0.  0.
         12    1    1    2    0    0 -0.31323014026E+02 -0.16336021941E+01  0.57375732982E+01  0.31886041008E+02  0.00000000000E+00 0. -1.
         11    1    3    3    0    0  0.40394286531E+02  0.98648974757E+01 -0.60071212907E+00  0.41585760085E+02  0.51100000000E-03 0. -1.
        -11    1    3    3    0    0  0.22472788817E+01 -0.97588527696E+00  0.13405730383E+01  0.27928033905E+01  0.51100000000E-03 0.  1.
         12    1    3    3    0    0 -0.11318551387E+02 -0.72554100047E+01 -0.64774342074E+01  0.14923395517E+02  0.00000000000E+00 0. -1.
</event>
<event>
 7    1  0.1205909E-011  0.5930194E+02  0.7816164E-02  0.1266605E+00
        -11   -1    0    0    0    0  0.00000000000E+00  0.00000000000E+00  0.45593999997E+02  0.45594000000E+02  0.51100000000E-03 0.  1.
         11   -1    0    0    0    0 -0.00000000000E+00 -0.00000000000E+00 -0.45593999997E+02  0.45594000000E+02  0.51100000000E-03 0. -1.
    9900012    2    1    2    0    0 -0.29346548932E+01  0.31709491308E+02 -0.16176338169E+01  0.59301940702E+02  0.49999993935E+02 0.  0.
         12    1    1    2    0    0  0.29346548932E+01 -0.31709491308E+02  0.16176338169E+01  0.31886059298E+02  0.00000000000E+00 0. -1.
         11    1    3    3    0    0 -0.17310906857E+02  0.17169557438E+02  0.52324780025E+01  0.24936720417E+02  0.51100000000E-03 0. -1.
        -11    1    3    3    0    0  0.53091873270E+01  0.19614505693E+02  0.23900517426E+01  0.20460416693E+02  0.51100000000E-03 0.  1.
         12    1    3    3    0    0  0.90670646369E+01 -0.50745718224E+01 -0.92401635620E+01  0.13904803593E+02  0.00000000000E+00 0. -1.
</event>
<event>
 7    1  0.1205909E-011  0.5930196E+02  0.7816164E-02  0.1266605E+00
        -11   -1    0    0    0    0  0.00000000000E+00  0.00000000000E+00  0.45593999997E+02  0.45594000000E+02  0.51100000000E-03 0.  1.
         11   -1    0    0    0    0 -0.00000000000E+00 -0.00000000000E+00 -0.45593999997E+02  0.45594000000E+02  0.51100000000E-03 0. -1.
    9900012    2    1    2    0    0  0.22392622491E+02  0.95800588991E+01  0.20579414970E+02  0.59301962444E+02  0.50000033586E+02 0.  0.
         12    1    1    2    0    0 -0.22392622491E+02 -0.95800588991E+01 -0.20579414970E+02  0.31886037556E+02  0.00000000000E+00 0. -1.
         11    1    3    3    0    0  0.16473075357E+02 -0.44617464373E+01 -0.15742048143E+01  0.17139063978E+02  0.51100000000E-03 0. -1.
        -11    1    3    3    0    0  0.11510772623E+02 -0.24219140116E+01  0.21801218742E+02  0.24772095041E+02  0.51100000000E-03 0.  1.
        -12    1    3    3    0    0 -0.55912254890E+01  0.16463719348E+02  0.35240104286E+00  0.17390803424E+02  0.00000000000E+00 0.  1.
</event>
<event>
 7    1  0.1205909E-011  0.5930186E+02  0.7816164E-02  0.1266605E+00
        -11   -1    0    0    0    0  0.00000000000E+00  0.00000000000E+00  0.45593999997E+02  0.45594000000E+02  0.51100000000E-03 0.  1.
         11   -1    0    0    0    0 -0.00000000000E+00 -0.00000000000E+00 -0.45593999997E+02  0.45594000000E+02  0.51100000000E-03 0. -1.
    9900012    2    1    2    0    0  0.18242388350E+01  0.48544799510E+01  0.31461598836E+02  0.59301858430E+02  0.49999843890E+02 0.  0.
         12    1    1    2    0    0 -0.18242388350E+01 -0.48544799510E+01 -0.31461598836E+02  0.31886141570E+02  0.00000000000E+00 0. -1.
         11    1    3    3    0    0 -0.13782351237E+02  0.13940382765E+02  0.10986002716E+02  0.22471754119E+02  0.51100000000E-03 0. -1.
        -11    1    3    3    0    0 -0.65920596337E+01 -0.29642565149E+01  0.74236197693E+01  0.10361090562E+02  0.51100000000E-03 0.  1.
        -12    1    3    3    0    0  0.22198649706E+02 -0.61216462990E+01  0.13051976351E+02  0.26469013749E+02  0.00000000000E+00 0.  1.
</event>
<event>
 7    1  0.1205909E-011  0.5930182E+02  0.7816164E-02  0.1266605E+00
        -11   -1    0    0    0    0  0.00000000000E+00  0.00000000000E+00  0.45593999997E+02  0.45594000000E+02  0.51100000000E-03 0. -1.
         11   -1    0    0    0    0 -0.00000000000E+00 -0.00000000000E+00 -0.45593999997E+02  0.45594000000E+02  0.51100000000E-03 0.  1.
    9900012    2    1    2    0    0 -0.82559246318E+01 -0.20363022567E+02  0.23106610351E+02  0.59301820838E+02  0.49999775331E+02 0.  0.
         12    1    1    2    0    0  0.82559246318E+01  0.20363022567E+02 -0.23106610351E+02  0.31886179162E+02  0.00000000000E+00 0. -1.
         11    1    3    3    0    0 -0.30491679872E+00 -0.14741301739E+02  0.14987418057E+02  0.21024310963E+02  0.51100000000E-03 0. -1.
        -11    1    3    3    0    0 -0.11877713735E+02 -0.19462954253E+02  0.69778712787E+01  0.23844860236E+02  0.51100000000E-03 0.  1.
         12    1    3    3    0    0  0.39267059016E+01  0.13841233425E+02  0.11413210161E+01  0.14432649639E+02  0.00000000000E+00 0. -1.
</event>
<event>
 7    1  0.1205909E-011  0.5930186E+02  0.7816164E-02  0.1266605E+00
        -11   -1    0    0    0    0  0.00000000000E+00  0.00000000000E+00  0.45593999997E+02  0.45594000000E+02  0.51100000000E-03 0.  1.
         11   -1    0    0    0    0 -0.00000000000E+00 -0.00000000000E+00 -0.45593999997E+02  0.45594000000E+02  0.51100000000E-03 0. -1.
    9900012    2    1    2    0    0 -0.19430873655E+02  0.38127048609E+01  0.24992601530E+02  0.59301863505E+02  0.49999853145E+02 0.  0.
         12    1    1    2    0    0  0.19430873655E+02 -0.38127048609E+01 -0.24992601530E+02  0.31886136495E+02  0.00000000000E+00 0. -1.
         11    1    3    3    0    0 -0.10479526413E+02  0.39876765772E+01  0.22837154350E+02  0.25441258959E+02  0.51100000000E-03 0. -1.
        -11    1    3    3    0    0 -0.13176312422E+02  0.13865806700E+02  0.10682428867E+01  0.19157686384E+02  0.51100000000E-03 0.  1.
         12    1    3    3    0    0  0.42249651799E+01 -0.14040778416E+02  0.10872042930E+01  0.14702918162E+02  0.00000000000E+00 0. -1.
</event>
<event>
 7    1  0.1205909E-011  0.5930194E+02  0.7816164E-02  0.1266605E+00
        -11   -1    0    0    0    0  0.00000000000E+00  0.00000000000E+00  0.45593999997E+02  0.45594000000E+02  0.51100000000E-03 0.  1.
         11   -1    0    0    0    0 -0.00000000000E+00 -0.00000000000E+00 -0.45593999997E+02  0.45594000000E+02  0.51100000000E-03 0. -1.
    9900012    2    1    2    0    0  0.25403859019E+02  0.17544877916E+02  0.79713109482E+01  0.59301943606E+02  0.49999999230E+02 0.  0.
         12    1    1    2    0    0 -0.25403859019E+02 -0.17544877916E+02 -0.79713109482E+01  0.31886056394E+02  0.00000000000E+00 0. -1.
         11    1    3    3    0    0 -0.98799415426E+00 -0.72417804041E+01 -0.30715863077E+01  0.79280614640E+01  0.51100000000E-03 0. -1.
        -11    1    3    3    0    0  0.62276533737E+01  0.13575323906E+02 -0.11703612457E+02  0.18974921093E+02  0.51100000000E-03 0.  1.
        -12    1    3    3    0    0  0.20164199800E+02  0.11211334415E+02  0.22746509713E+02  0.32398961049E+02  0.00000000000E+00 0.  1.
</event>
<event>
 7    1  0.1205909E-011  0.5930194E+02  0.7816164E-02  0.1266605E+00
        -11   -1    0    0    0    0  0.00000000000E+00  0.00000000000E+00  0.45593999997E+02  0.45594000000E+02  0.51100000000E-03 0. -1.
         11   -1    0    0    0    0 -0.00000000000E+00 -0.00000000000E+00 -0.45593999997E+02  0.45594000000E+02  0.51100000000E-03 0.  1.
    9900012    2    1    2    0    0 -0.19980714505E+01 -0.31754821682E+02  0.20880349347E+01  0.59301939103E+02  0.49999991019E+02 0.  0.
         12    1    1    2    0    0  0.19980714505E+01  0.31754821682E+02 -0.20880349347E+01  0.31886060897E+02  0.00000000000E+00 0. -1.
         11    1    3    3    0    0 -0.41616488422E+01 -0.23759511970E+01  0.58672198263E+01  0.75755352238E+01  0.51100000000E-03 0. -1.
        -11    1    3    3    0    0  0.19505577650E+02 -0.11067775249E+02  0.81053642575E+01  0.23846595951E+02  0.51100000000E-03 0.  1.
         12    1    3    3    0    0 -0.17342000258E+02 -0.18311095236E+02 -0.11884549149E+02  0.27879807929E+02  0.00000000000E+00 0. -1.
</event>
<event>
 7    1  0.1205909E-011  0.5930194E+02  0.7816164E-02  0.1266605E+00
        -11   -1    0    0    0    0  0.00000000000E+00  0.00000000000E+00  0.45593999997E+02  0.45594000000E+02  0.51100000000E-03 0. -1.
         11   -1    0    0    0    0 -0.00000000000E+00 -0.00000000000E+00 -0.45593999997E+02  0.45594000000E+02  0.51100000000E-03 0.  1.
    9900012    2    1    2    0    0  0.73502679561E+01 -0.29649683342E+02 -0.91427857302E+01  0.59301942040E+02  0.49999996374E+02 0.  0.
         12    1    1    2    0    0 -0.73502679561E+01  0.29649683342E+02  0.91427857302E+01  0.31886057960E+02  0.00000000000E+00 0. -1.
         11    1    3    3    0    0  0.48266447294E+01 -0.87271229218E+00  0.11995931797E+02  0.12959957794E+02  0.51100000000E-03 0. -1.
        -11    1    3    3    0    0 -0.10883264740E+02 -0.16611066004E+02 -0.19395533931E+01  0.19953316337E+02  0.51100000000E-03 0.  1.
         12    1    3    3    0    0  0.13406887967E+02 -0.12165905046E+02 -0.19199164134E+02  0.26388667909E+02  0.00000000000E+00 0. -1.
</event>
<event>
 7    1  0.1205909E-011  0.5930195E+02  0.7816164E-02  0.1266605E+00
        -11   -1    0    0    0    0  0.00000000000E+00  0.00000000000E+00  0.45593999997E+02  0.45594000000E+02  0.51100000000E-03 0. -1.
         11   -1    0    0    0    0 -0.00000000000E+00 -0.00000000000E+00 -0.45593999997E+02  0.45594000000E+02  0.51100000000E-03 0.  1.
    9900012    2    1    2    0    0  0.17867467396E+02 -0.21404304952E+02 -0.15470287891E+02  0.59301945540E+02  0.50000002758E+02 0.  0.
         12    1    1    2    0    0 -0.17867467396E+02  0.21404304952E+02  0.15470287891E+02  0.31886054460E+02  0.00000000000E+00 0. -1.
         11    1    3    3    0    0  0.32196377671E+01  0.15052088866E+01 -0.54926033466E+01  0.65422024524E+01  0.51100000000E-03 0. -1.
        -11    1    3    3    0    0  0.30722802464E+01 -0.38299180927E+01 -0.25246660593E+02  0.25719662709E+02  0.51100000000E-03 0.  1.
         12    1    3    3    0    0  0.11575549383E+02 -0.19079595745E+02  0.15268976048E+02  0.27040080379E+02  0.00000000000E+00 0. -1.
</event>
<event>
 7    1  0.1205909E-011  0.5930193E+02  0.7816164E-02  0.1266605E+00
        -11   -1    0    0    0    0  0.00000000000E+00  0.00000000000E+00  0.45593999997E+02  0.45594000000E+02  0.51100000000E-03 0. -1.
         11   -1    0    0    0    0 -0.00000000000E+00 -0.00000000000E+00 -0.45593999997E+02  0.45594000000E+02  0.51100000000E-03 0.  1.
    9900012    2    1    2    0    0 -0.16538914041E+02 -0.52676895393E+01 -0.26747655587E+02  0.59301932351E+02  0.49999978704E+02 0.  0.
         12    1    1    2    0    0  0.16538914041E+02  0.52676895393E+01  0.26747655587E+02  0.31886067649E+02  0.00000000000E+00 0. -1.
         11    1    3    3    0    0  0.13756113521E+01  0.25303075896E+01 -0.10017328972E+01  0.30493002719E+01  0.51100000000E-03 0. -1.
        -11    1    3    3    0    0  0.25585934858E+01  0.16750868533E+02 -0.34857380481E+01  0.17299952810E+02  0.51100000000E-03 0.  1.
         12    1    3    3    0    0 -0.20473118879E+02 -0.24548865662E+02 -0.22260184642E+02  0.38952679269E+02  0.00000000000E+00 0. -1.
</event>
<event>
 7    1  0.1205909E-011  0.5930193E+02  0.7816164E-02  0.1266605E+00
        -11   -1    0    0    0    0  0.00000000000E+00  0.00000000000E+00  0.45593999997E+02  0.45594000000E+02  0.51100000000E-03 0.  1.
         11   -1    0    0    0    0 -0.00000000000E+00 -0.00000000000E+00 -0.45593999997E+02  0.45594000000E+02  0.51100000000E-03 0. -1.
    9900012    2    1    2    0    0 -0.50918701494E+01  0.30265542322E+02  0.86481933965E+01  0.59301930272E+02  0.49999974913E+02 0.  0.
         12    1    1    2    0    0  0.50918701494E+01 -0.30265542322E+02 -0.86481933965E+01  0.31886069728E+02  0.00000000000E+00 0. -1.
         11    1    3    3    0    0 -0.95342664045E+01 -0.27348667685E+01 -0.45836009083E+01  0.10926624806E+02  0.51100000000E-03 0. -1.
        -11    1    3    3    0    0  0.52722367006E+00  0.33661908676E+02 -0.91840411942E+00  0.33678561829E+02  0.51100000000E-03 0.  1.
         12    1    3    3    0    0  0.39151725851E+01 -0.66149958566E+00  0.14150198424E+02  0.14696743637E+02  0.00000000000E+00 0. -1.
</event>
<event>
 7    1  0.1205909E-011  0.5930196E+02  0.7816164E-02  0.1266605E+00
        -11   -1    0    0    0    0  0.00000000000E+00  0.00000000000E+00  0.45593999997E+02  0.45594000000E+02  0.51100000000E-03 0. -1.
         11   -1    0    0    0    0 -0.00000000000E+00 -0.00000000000E+00 -0.45593999997E+02  0.45594000000E+02  0.51100000000E-03 0.  1.
    9900012    2    1    2    0    0  0.57795847829E+01 -0.26323332224E+02 -0.17041062731E+02  0.59301964834E+02  0.50000037945E+02 0.  0.
         12    1    1    2    0    0 -0.57795847829E+01  0.26323332224E+02  0.17041062731E+02  0.31886035166E+02  0.00000000000E+00 0. -1.
         11    1    3    3    0    0  0.12012201780E+01 -0.16103958661E+02  0.11085475713E+02  0.19587449719E+02  0.51100000000E-03 0. -1.
        -11    1    3    3    0    0  0.40265144730E+01 -0.86902174374E+01  0.17986982102E+01  0.97451533299E+01  0.51100000000E-03 0.  1.
        -12    1    3    3    0    0  0.55185013198E+00 -0.15291561255E+01 -0.29925236654E+02  0.29969361785E+02  0.00000000000E+00 0.  1.
</event>
<event>
 7    1  0.1205909E-011  0.5930191E+02  0.7816164E-02  0.1266605E+00
        -11   -1    0    0    0    0  0.00000000000E+00  0.00000000000E+00  0.45593999997E+02  0.45594000000E+02  0.51100000000E-03 0. -1.
         11   -1    0    0    0    0 -0.00000000000E+00 -0.00000000000E+00 -0.45593999997E+02  0.45594000000E+02  0.51100000000E-03 0.  1.
    9900012    2    1    2    0    0  0.25050438824E+02 -0.17496060535E+02 -0.91151752384E+01  0.59301905238E+02  0.49999929257E+02 0.  0.
         12    1    1    2    0    0 -0.25050438824E+02  0.17496060535E+02  0.91151752384E+01  0.31886094762E+02  0.00000000000E+00 0. -1.
         11    1    3    3    0    0 -0.14720590605E+01  0.80139589927E+01 -0.37928763952E+01  0.89875696506E+01  0.51100000000E-03 0. -1.
        -11    1    3    3    0    0  0.29380666419E+01  0.59304419205E+01 -0.86262829585E+01  0.10872678369E+02  0.51100000000E-03 0.  1.
        -12    1    3    3    0    0  0.23584431243E+02 -0.31440461448E+02  0.33039841154E+01  0.39441657219E+02  0.00000000000E+00 0.  1.
</event>
<event>
 7    1  0.1205909E-011  0.5930195E+02  0.7816164E-02  0.1266605E+00
        -11   -1    0    0    0    0  0.00000000000E+00  0.00000000000E+00  0.45593999997E+02  0.45594000000E+02  0.51100000000E-03 0.  1.
         11   -1    0    0    0    0 -0.00000000000E+00 -0.00000000000E+00 -0.45593999997E+02  0.45594000000E+02  0.51100000000E-03 0. -1.
    9900012    2    1    2    0    0 -0.74995467896E+00  0.20517787322E+02  0.24396268977E+02  0.59301953387E+02  0.50000017069E+02 0.  0.
         12    1    1    2    0    0  0.74995467896E+00 -0.20517787322E+02 -0.24396268977E+02  0.31886046613E+02  0.00000000000E+00 0. -1.
         11    1    3    3    0    0 -0.44164752714E+01  0.65010102844E+01  0.12733379753E+02  0.14963533966E+02  0.51100000000E-03 0. -1.
        -11    1    3    3    0    0 -0.12388910182E+02  0.18552401972E+02  0.15568043759E+02  0.27203689109E+02  0.51100000000E-03 0.  1.
         12    1    3    3    0    0  0.16055430775E+02 -0.45356249342E+01 -0.39051545351E+01  0.17134730311E+02  0.00000000000E+00 0. -1.
</event>
<event>
 7    1  0.1205909E-011  0.5930195E+02  0.7816164E-02  0.1266605E+00
        -11   -1    0    0    0    0  0.00000000000E+00  0.00000000000E+00  0.45593999997E+02  0.45594000000E+02  0.51100000000E-03 0.  1.
         11   -1    0    0    0    0 -0.00000000000E+00 -0.00000000000E+00 -0.45593999997E+02  0.45594000000E+02  0.51100000000E-03 0. -1.
    9900012    2    1    2    0    0  0.15214232561E+02  0.25602855128E+02  0.11390404084E+02  0.59301947120E+02  0.50000005639E+02 0.  0.
         12    1    1    2    0    0 -0.15214232561E+02 -0.25602855128E+02 -0.11390404084E+02  0.31886052880E+02  0.00000000000E+00 0. -1.
         11    1    3    3    0    0  0.72453422093E+01  0.12095852708E+02  0.62614784706E+01  0.15427597006E+02  0.51100000000E-03 0. -1.
        -11    1    3    3    0    0  0.15335087727E+02  0.16314459475E+02  0.18035519342E+02  0.28750764542E+02  0.51100000000E-03 0.  1.
         12    1    3    3    0    0 -0.73661973753E+01 -0.28074570558E+01 -0.12906593728E+02  0.15123585572E+02  0.00000000000E+00 0. -1.
</event>
<event>
 7    1  0.1205909E-011  0.5930190E+02  0.7816164E-02  0.1266605E+00
        -11   -1    0    0    0    0  0.00000000000E+00  0.00000000000E+00  0.45593999997E+02  0.45594000000E+02  0.51100000000E-03 0.  1.
         11   -1    0    0    0    0 -0.00000000000E+00 -0.00000000000E+00 -0.45593999997E+02  0.45594000000E+02  0.51100000000E-03 0. -1.
    9900012    2    1    2    0    0  0.15816137125E+02 -0.27461160409E+02 -0.35295992114E+01  0.59301896520E+02  0.49999913357E+02 0.  0.
         12    1    1    2    0    0 -0.15816137125E+02  0.27461160409E+02  0.35295992114E+01  0.31886103480E+02  0.00000000000E+00 0. -1.
         11    1    3    3    0    0  0.37140770668E+01  0.48330479340E+01 -0.10901108781E+02  0.12489471314E+02  0.51100000000E-03 0. -1.
        -11    1    3    3    0    0 -0.10005962454E+02 -0.85072055737E+01 -0.13067542425E+01  0.13198463479E+02  0.51100000000E-03 0.  1.
        -12    1    3    3    0    0  0.22108022512E+02 -0.23787002769E+02  0.86782638123E+01  0.33613961726E+02  0.00000000000E+00 0.  1.
</event>
<event>
 7    1  0.1205909E-011  0.5930197E+02  0.7816164E-02  0.1266605E+00
        -11   -1    0    0    0    0  0.00000000000E+00  0.00000000000E+00  0.45593999997E+02  0.45594000000E+02  0.51100000000E-03 0.  1.
         11   -1    0    0    0    0 -0.00000000000E+00 -0.00000000000E+00 -0.45593999997E+02  0.45594000000E+02  0.51100000000E-03 0. -1.
    9900012    2    1    2    0    0 -0.13616684982E+02  0.17086843130E+02  0.23223795012E+02  0.59301969002E+02  0.50000045547E+02 0.  0.
         12    1    1    2    0    0  0.13616684982E+02 -0.17086843130E+02 -0.23223795012E+02  0.31886030998E+02  0.00000000000E+00 0. -1.
         11    1    3    3    0    0  0.36262438798E+00  0.46635436557E+01 -0.96258961900E+01  0.10702243391E+02  0.51100000000E-03 0.  1.
        -11    1    3    3    0    0 -0.83412948628E+01  0.31234473611E+01 -0.43002380373E+01  0.98906607891E+01  0.51100000000E-03 0. -1.
        -12    1    3    3    0    0 -0.56380145068E+01  0.92998521134E+01  0.37149929239E+02  0.38709064822E+02  0.00000000000E+00 0.  1.
</event>
<event>
 7    1  0.1205909E-011  0.5930196E+02  0.7816164E-02  0.1266605E+00
        -11   -1    0    0    0    0  0.00000000000E+00  0.00000000000E+00  0.45593999997E+02  0.45594000000E+02  0.51100000000E-03 0. -1.
         11   -1    0    0    0    0 -0.00000000000E+00 -0.00000000000E+00 -0.45593999997E+02  0.45594000000E+02  0.51100000000E-03 0.  1.
    9900012    2    1    2    0    0 -0.28793500875E+02 -0.18044730236E+01 -0.13579301690E+02  0.59301964657E+02  0.50000037622E+02 0.  0.
         12    1    1    2    0    0  0.28793500875E+02  0.18044730236E+01  0.13579301690E+02  0.31886035343E+02  0.00000000000E+00 0. -1.
         11    1    3    3    0    0 -0.44566871068E+01  0.85499255057E+01  0.43624608629E+01  0.10582738358E+02  0.51100000000E-03 0. -1.
        -11    1    3    3    0    0 -0.50672638197E+01  0.73631757251E+01  0.79048636546E+01  0.11932325383E+02  0.51100000000E-03 0.  1.
        -12    1    3    3    0    0 -0.19269549948E+02 -0.17717574254E+02 -0.25846626207E+02  0.36786900916E+02  0.00000000000E+00 0.  1.
</event>
<event>
 7    1  0.1205909E-011  0.5930193E+02  0.7816164E-02  0.1266605E+00
        -11   -1    0    0    0    0  0.00000000000E+00  0.00000000000E+00  0.45593999997E+02  0.45594000000E+02  0.51100000000E-03 0.  1.
         11   -1    0    0    0    0 -0.00000000000E+00 -0.00000000000E+00 -0.45593999997E+02  0.45594000000E+02  0.51100000000E-03 0. -1.
    9900012    2    1    2    0    0 -0.27882509499E+01 -0.70297859750E+01  0.30976269378E+02  0.59301929392E+02  0.49999973309E+02 0.  0.
         12    1    1    2    0    0  0.27882509499E+01  0.70297859750E+01 -0.30976269378E+02  0.31886070608E+02  0.00000000000E+00 0. -1.
         11    1    3    3    0    0 -0.14805138379E+01  0.69498734365E-01 -0.13714566845E+01  0.20193179534E+01  0.51100000000E-03 0. -1.
        -11    1    3    3    0    0 -0.22039107735E+02  0.54672222646E+01  0.19003965957E+02  0.29610192694E+02  0.51100000000E-03 0.  1.
        -12    1    3    3    0    0  0.20731370623E+02 -0.12566506974E+02  0.13343760106E+02  0.27672418745E+02  0.00000000000E+00 0.  1.
</event>
<event>
 7    1  0.1205909E-011  0.5930195E+02  0.7816164E-02  0.1266605E+00
        -11   -1    0    0    0    0  0.00000000000E+00  0.00000000000E+00  0.45593999997E+02  0.45594000000E+02  0.51100000000E-03 0. -1.
         11   -1    0    0    0    0 -0.00000000000E+00 -0.00000000000E+00 -0.45593999997E+02  0.45594000000E+02  0.51100000000E-03 0.  1.
    9900012    2    1    2    0    0  0.11771561257E+02  0.14273080145E+02 -0.25969784380E+02  0.59301950198E+02  0.50000011253E+02 0.  0.
         12    1    1    2    0    0 -0.11771561257E+02 -0.14273080145E+02  0.25969784380E+02  0.31886049802E+02  0.00000000000E+00 0. -1.
         11    1    3    3    0    0  0.31881710322E+01 -0.36373692726E+01 -0.13417273453E+00  0.48386870471E+01  0.51100000000E-03 0. -1.
        -11    1    3    3    0    0  0.11679952718E+02  0.18318718577E+02  0.59492375960E+01  0.22525322950E+02  0.51100000000E-03 0.  1.
        -12    1    3    3    0    0 -0.30965624925E+01 -0.40826915934E+00 -0.31784849241E+02  0.31937940201E+02  0.00000000000E+00 0.  1.
</event>
<event>
 7    1  0.1205909E-011  0.5930196E+02  0.7816164E-02  0.1266605E+00
        -11   -1    0    0    0    0  0.00000000000E+00  0.00000000000E+00  0.45593999997E+02  0.45594000000E+02  0.51100000000E-03 0.  1.
         11   -1    0    0    0    0 -0.00000000000E+00 -0.00000000000E+00 -0.45593999997E+02  0.45594000000E+02  0.51100000000E-03 0. -1.
    9900012    2    1    2    0    0 -0.20772558328E+02  0.48238822507E+01  0.23705501865E+02  0.59301955433E+02  0.50000020800E+02 0.  0.
         12    1    1    2    0    0  0.20772558328E+02 -0.48238822507E+01 -0.23705501865E+02  0.31886044567E+02  0.00000000000E+00 0. -1.
         11    1    3    3    0    0 -0.17930919430E+02  0.60928230632E+01  0.24999976525E+01  0.19102103366E+02  0.51100000000E-03 0. -1.
        -11    1    3    3    0    0  0.24799701360E+01  0.14356227800E+02  0.18379261982E+02  0.23453119191E+02  0.51100000000E-03 0.  1.
        -12    1    3    3    0    0 -0.53216090335E+01 -0.15625168612E+02  0.28262422311E+01  0.16746732876E+02  0.00000000000E+00 0.  1.
</event>
<event>
 7    1  0.1205909E-011  0.5930193E+02  0.7816164E-02  0.1266605E+00
        -11   -1    0    0    0    0  0.00000000000E+00  0.00000000000E+00  0.45593999997E+02  0.45594000000E+02  0.51100000000E-03 0.  1.
         11   -1    0    0    0    0 -0.00000000000E+00 -0.00000000000E+00 -0.45593999997E+02  0.45594000000E+02  0.51100000000E-03 0. -1.
    9900012    2    1    2    0    0  0.90625963875E+01 -0.64674825478E+01  0.29879125977E+02  0.59301934816E+02  0.49999983199E+02 0.  0.
         12    1    1    2    0    0 -0.90625963875E+01  0.64674825478E+01 -0.29879125977E+02  0.31886065184E+02  0.00000000000E+00 0. -1.
         11    1    3    3    0    0 -0.83727580365E+01 -0.34927587754E+01 -0.24115888762E+01  0.93871296023E+01  0.51100000000E-03 0. -1.
        -11    1    3    3    0    0  0.67714470304E+01 -0.13993517256E+02  0.16269055236E+01  0.15630669913E+02  0.51100000000E-03 0.  1.
        -12    1    3    3    0    0  0.10663907394E+02  0.11018793483E+02  0.30663809330E+02  0.34284135301E+02  0.00000000000E+00 0.  1.
</event>
<event>
 7    1  0.1205909E-011  0.5930194E+02  0.7816164E-02  0.1266605E+00
        -11   -1    0    0    0    0  0.00000000000E+00  0.00000000000E+00  0.45593999997E+02  0.45594000000E+02  0.51100000000E-03 0.  1.
         11   -1    0    0    0    0 -0.00000000000E+00 -0.00000000000E+00 -0.45593999997E+02  0.45594000000E+02  0.51100000000E-03 0. -1.
    9900012    2    1    2    0    0  0.65972866233E+01  0.26520439704E+02  0.16427508655E+02  0.59301937943E+02  0.49999988903E+02 0.  0.
         12    1    1    2    0    0 -0.65972866233E+01 -0.26520439704E+02 -0.16427508655E+02  0.31886062057E+02  0.00000000000E+00 0. -1.
         11    1    3    3    0    0 -0.90845513299E+01  0.12932687365E+02  0.15461344048E+02  0.22109650277E+02  0.51100000000E-03 0. -1.
        -11    1    3    3    0    0  0.27774145807E+01  0.21532491430E+02  0.29448105737E+01  0.21909681159E+02  0.51100000000E-03 0.  1.
         12    1    3    3    0    0  0.12904423373E+02 -0.79447390901E+01 -0.19786459659E+01  0.15282606507E+02  0.00000000000E+00 0. -1.
</event>
<event>
 7    1  0.1205909E-011  0.5930200E+02  0.7816164E-02  0.1266605E+00
        -11   -1    0    0    0    0  0.00000000000E+00  0.00000000000E+00  0.45593999997E+02  0.45594000000E+02  0.51100000000E-03 0.  1.
         11   -1    0    0    0    0 -0.00000000000E+00 -0.00000000000E+00 -0.45593999997E+02  0.45594000000E+02  0.51100000000E-03 0. -1.
    9900012    2    1    2    0    0 -0.22958585563E+02 -0.13970556454E+02  0.17159360572E+02  0.59302003796E+02  0.50000109003E+02 0.  0.
         12    1    1    2    0    0  0.22958585563E+02  0.13970556454E+02 -0.17159360572E+02  0.31885996204E+02  0.00000000000E+00 0. -1.
         11    1    3    3    0    0 -0.42191368552E+01  0.12772007192E+01 -0.52435607996E+01  0.68503494509E+01  0.51100000000E-03 0.  1.
        -11    1    3    3    0    0 -0.38414510756E+00  0.13059109562E+02  0.25648518018E+01  0.13314141919E+02  0.51100000000E-03 0. -1.
        -12    1    3    3    0    0 -0.18355303601E+02 -0.28306866735E+02  0.19838069569E+02  0.39137512426E+02  0.00000000000E+00 0.  1.
</event>
<event>
 7    1  0.1205909E-011  0.5930195E+02  0.7816164E-02  0.1266605E+00
        -11   -1    0    0    0    0  0.00000000000E+00  0.00000000000E+00  0.45593999997E+02  0.45594000000E+02  0.51100000000E-03 0.  1.
         11   -1    0    0    0    0 -0.00000000000E+00 -0.00000000000E+00 -0.45593999997E+02  0.45594000000E+02  0.51100000000E-03 0. -1.
    9900012    2    1    2    0    0  0.33636256549E+01  0.90721738865E+01  0.30382596714E+02  0.59301945060E+02  0.50000001882E+02 0.  0.
         12    1    1    2    0    0 -0.33636256549E+01 -0.90721738865E+01 -0.30382596714E+02  0.31886054940E+02  0.00000000000E+00 0. -1.
         11    1    3    3    0    0 -0.70711783911E+01  0.63166282221E+01  0.15970217907E+02  0.18572808516E+02  0.51100000000E-03 0.  1.
        -11    1    3    3    0    0  0.96572745986E+00  0.36102889334E+01 -0.12047035427E+02  0.12613400753E+02  0.51100000000E-03 0. -1.
         12    1    3    3    0    0  0.94690765861E+01 -0.85474326905E+00  0.26459414234E+02  0.28115735791E+02  0.00000000000E+00 0. -1.
</event>
<event>
 7    1  0.1205909E-011  0.5930193E+02  0.7816164E-02  0.1266605E+00
        -11   -1    0    0    0    0  0.00000000000E+00  0.00000000000E+00  0.45593999997E+02  0.45594000000E+02  0.51100000000E-03 0.  1.
         11   -1    0    0    0    0 -0.00000000000E+00 -0.00000000000E+00 -0.45593999997E+02  0.45594000000E+02  0.51100000000E-03 0. -1.
    9900012    2    1    2    0    0 -0.98282863253E+01  0.28735348622E+02  0.97162780117E+01  0.59301928888E+02  0.49999972389E+02 0.  0.
         12    1    1    2    0    0  0.98282863253E+01 -0.28735348622E+02 -0.97162780117E+01  0.31886071112E+02  0.00000000000E+00 0. -1.
         11    1    3    3    0    0 -0.49376391116E+01  0.45644992883E+01  0.94592561660E+00  0.67904130421E+01  0.51100000000E-03 0. -1.
        -11    1    3    3    0    0 -0.69911389655E+01  0.17121192190E+02  0.27072670528E+02  0.32786288839E+02  0.51100000000E-03 0.  1.
         12    1    3    3    0    0  0.21004917517E+01  0.70496571440E+01 -0.18302318133E+02  0.19725227007E+02  0.00000000000E+00 0. -1.
</event>
<event>
 7    1  0.1205909E-011  0.5930191E+02  0.7816164E-02  0.1266605E+00
        -11   -1    0    0    0    0  0.00000000000E+00  0.00000000000E+00  0.45593999997E+02  0.45594000000E+02  0.51100000000E-03 0.  1.
         11   -1    0    0    0    0 -0.00000000000E+00 -0.00000000000E+00 -0.45593999997E+02  0.45594000000E+02  0.51100000000E-03 0. -1.
    9900012    2    1    2    0    0 -0.12692874548E+01 -0.14525989734E+02  0.28356779630E+02  0.59301914957E+02  0.49999946981E+02 0.  0.
         12    1    1    2    0    0  0.12692874548E+01  0.14525989734E+02 -0.28356779630E+02  0.31886085043E+02  0.00000000000E+00 0. -1.
         11    1    3    3    0    0 -0.10494028757E+02  0.11975473859E+02 -0.20964091146E+00  0.15924213113E+02  0.51100000000E-03 0. -1.
        -11    1    3    3    0    0  0.24607495968E+00 -0.77133428744E+01 -0.37176334810E+00  0.77262163723E+01  0.51100000000E-03 0.  1.
        -12    1    3    3    0    0  0.89786663425E+01 -0.18788120719E+02  0.28938183890E+02  0.35651485471E+02  0.00000000000E+00 0.  1.
</event>
<event>
 7    1  0.1205909E-011  0.5930194E+02  0.7816164E-02  0.1266605E+00
        -11   -1    0    0    0    0  0.00000000000E+00  0.00000000000E+00  0.45593999997E+02  0.45594000000E+02  0.51100000000E-03 0.  1.
         11   -1    0    0    0    0 -0.00000000000E+00 -0.00000000000E+00 -0.45593999997E+02  0.45594000000E+02  0.51100000000E-03 0. -1.
    9900012    2    1    2    0    0 -0.12972849795E+02 -0.25528202372E+02  0.14026281212E+02  0.59301944854E+02  0.50000001507E+02 0.  0.
         12    1    1    2    0    0  0.12972849795E+02  0.25528202372E+02 -0.14026281212E+02  0.31886055146E+02  0.00000000000E+00 0. -1.
         11    1    3    3    0    0  0.47000538251E+01 -0.35737439348E+01 -0.74651180822E+01  0.95178852647E+01  0.51100000000E-03 0. -1.
        -11    1    3    3    0    0 -0.17024813333E+02  0.25940459877E+00 -0.23535740328E+01  0.17188684381E+02  0.51100000000E-03 0.  1.
        -12    1    3    3    0    0 -0.64809028749E+00 -0.22213863036E+02  0.23844973327E+02  0.32595375208E+02  0.00000000000E+00 0.  1.
</event>
<event>
 7    1  0.1205909E-011  0.5930193E+02  0.7816164E-02  0.1266605E+00
        -11   -1    0    0    0    0  0.00000000000E+00  0.00000000000E+00  0.45593999997E+02  0.45594000000E+02  0.51100000000E-03 0.  1.
         11   -1    0    0    0    0 -0.00000000000E+00 -0.00000000000E+00 -0.45593999997E+02  0.45594000000E+02  0.51100000000E-03 0. -1.
    9900012    2    1    2    0    0 -0.22996519973E+02  0.13839558896E+02 -0.17214770354E+02  0.59301927184E+02  0.49999969280E+02 0.  0.
         12    1    1    2    0    0  0.22996519973E+02 -0.13839558896E+02  0.17214770354E+02  0.31886072816E+02  0.00000000000E+00 0. -1.
         11    1    3    3    0    0 -0.22857328189E+02  0.13100312041E+02 -0.18539508110E+02  0.32214732480E+02  0.51100000000E-03 0. -1.
        -11    1    3    3    0    0 -0.12982575163E+02 -0.35637149067E+01 -0.13704427439E+00  0.13463510062E+02  0.51100000000E-03 0.  1.
        -12    1    3    3    0    0  0.12843383378E+02  0.43029617612E+01  0.14617820304E+01  0.13623684642E+02  0.00000000000E+00 0.  1.
</event>
<event>
 7    1  0.1205909E-011  0.5930193E+02  0.7816164E-02  0.1266605E+00
        -11   -1    0    0    0    0  0.00000000000E+00  0.00000000000E+00  0.45593999997E+02  0.45594000000E+02  0.51100000000E-03 0. -1.
         11   -1    0    0    0    0 -0.00000000000E+00 -0.00000000000E+00 -0.45593999997E+02  0.45594000000E+02  0.51100000000E-03 0.  1.
    9900012    2    1    2    0    0  0.27643658785E+02  0.12427511423E+02 -0.99048606412E+01  0.59301934462E+02  0.49999982554E+02 0.  0.
         12    1    1    2    0    0 -0.27643658785E+02 -0.12427511423E+02  0.99048606412E+01  0.31886065538E+02  0.00000000000E+00 0. -1.
         11    1    3    3    0    0 -0.85267205242E+01 -0.24282879945E+01  0.33581626119E+01  0.94804431263E+01  0.51100000000E-03 0. -1.
        -11    1    3    3    0    0 -0.31020475767E+01 -0.15091883592E+01  0.26990102882E+01  0.43800691169E+01  0.51100000000E-03 0.  1.
        -12    1    3    3    0    0  0.39272426886E+02  0.16364987777E+02 -0.15962033541E+02  0.45441422218E+02  0.00000000000E+00 0.  1.
</event>
<event>
 7    1  0.1205909E-011  0.5930190E+02  0.7816164E-02  0.1266605E+00
        -11   -1    0    0    0    0  0.00000000000E+00  0.00000000000E+00  0.45593999997E+02  0.45594000000E+02  0.51100000000E-03 0.  1.
         11   -1    0    0    0    0 -0.00000000000E+00 -0.00000000000E+00 -0.45593999997E+02  0.45594000000E+02  0.51100000000E-03 0. -1.
    9900012    2    1    2    0    0 -0.13622032717E+02 -0.18061604052E+02  0.22470921234E+02  0.59301896171E+02  0.49999912722E+02 0.  0.
         12    1    1    2    0    0  0.13622032717E+02  0.18061604052E+02 -0.22470921234E+02  0.31886103829E+02  0.00000000000E+00 0. -1.
         11    1    3    3    0    0 -0.13303787616E+02 -0.22100491991E+02  0.18460253584E+02  0.31720710487E+02  0.51100000000E-03 0. -1.
        -11    1    3    3    0    0 -0.85272729899E+01 -0.58608768180E+01  0.90715286395E+01  0.13760701066E+02  0.51100000000E-03 0.  1.
        -12    1    3    3    0    0  0.82090278888E+01  0.98997647570E+01 -0.50608609894E+01  0.13820484618E+02  0.00000000000E+00 0.  1.
</event>
<event>
 7    1  0.1205909E-011  0.5930193E+02  0.7816164E-02  0.1266605E+00
        -11   -1    0    0    0    0  0.00000000000E+00  0.00000000000E+00  0.45593999997E+02  0.45594000000E+02  0.51100000000E-03 0.  1.
         11   -1    0    0    0    0 -0.00000000000E+00 -0.00000000000E+00 -0.45593999997E+02  0.45594000000E+02  0.51100000000E-03 0. -1.
    9900012    2    1    2    0    0  0.28856146288E+02  0.13009950985E+02  0.38451624351E+01  0.59301932864E+02  0.49999979640E+02 0.  0.
         12    1    1    2    0    0 -0.28856146288E+02 -0.13009950985E+02 -0.38451624351E+01  0.31886067136E+02  0.00000000000E+00 0. -1.
         11    1    3    3    0    0  0.29372696466E+01 -0.13949782405E+02 -0.95540150445E+01  0.17161095124E+02  0.51100000000E-03 0. -1.
        -11    1    3    3    0    0 -0.15882231915E+01  0.12057881314E+01 -0.35887958281E+00  0.20261225876E+01  0.51100000000E-03 0.  1.
        -12    1    3    3    0    0  0.27507099833E+02  0.25753945259E+02  0.13758057062E+02  0.40114715152E+02  0.00000000000E+00 0.  1.
</event>
<event>
 7    1  0.1205909E-011  0.5930195E+02  0.7816164E-02  0.1266605E+00
        -11   -1    0    0    0    0  0.00000000000E+00  0.00000000000E+00  0.45593999997E+02  0.45594000000E+02  0.51100000000E-03 0.  1.
         11   -1    0    0    0    0 -0.00000000000E+00 -0.00000000000E+00 -0.45593999997E+02  0.45594000000E+02  0.51100000000E-03 0. -1.
    9900012    2    1    2    0    0 -0.62749674345E+01 -0.31045675591E+02 -0.36757023910E+01  0.59301953251E+02  0.50000016821E+02 0.  0.
         12    1    1    2    0    0  0.62749674345E+01  0.31045675591E+02  0.36757023910E+01  0.31886046749E+02  0.00000000000E+00 0. -1.
         11    1    3    3    0    0  0.11326764525E+01 -0.77838371052E+01  0.88671035624E+01  0.11853126249E+02  0.51100000000E-03 0. -1.
        -11    1    3    3    0    0  0.89349998385E+01 -0.26871664555E+02 -0.38173548224E+01  0.28574337721E+02  0.51100000000E-03 0.  1.
         12    1    3    3    0    0 -0.16342643726E+02  0.36098260687E+01 -0.87254511309E+01  0.18874489281E+02  0.00000000000E+00 0. -1.
</event>
<event>
 7    1  0.1205909E-011  0.5930197E+02  0.7816164E-02  0.1266605E+00
        -11   -1    0    0    0    0  0.00000000000E+00  0.00000000000E+00  0.45593999997E+02  0.45594000000E+02  0.51100000000E-03 0.  1.
         11   -1    0    0    0    0 -0.00000000000E+00 -0.00000000000E+00 -0.45593999997E+02  0.45594000000E+02  0.51100000000E-03 0. -1.
    9900012    2    1    2    0    0 -0.74510188355E+01 -0.23780224015E+02  0.19892267410E+02  0.59301967970E+02  0.50000043665E+02 0.  0.
         12    1    1    2    0    0  0.74510188355E+01  0.23780224015E+02 -0.19892267410E+02  0.31886032030E+02  0.00000000000E+00 0. -1.
         11    1    3    3    0    0 -0.91873596641E+01  0.10546783208E+02 -0.65264749244E+01  0.15434930801E+02  0.51100000000E-03 0. -1.
        -11    1    3    3    0    0 -0.14712520653E+01 -0.88881370361E+01  0.42033832754E+01  0.99414281586E+01  0.51100000000E-03 0.  1.
        -12    1    3    3    0    0  0.32075928939E+01 -0.25438870188E+02  0.22215359059E+02  0.33925609010E+02  0.00000000000E+00 0.  1.
</event>
<event>
 7    1  0.1205909E-011  0.5930194E+02  0.7816164E-02  0.1266605E+00
        -11   -1    0    0    0    0  0.00000000000E+00  0.00000000000E+00  0.45593999997E+02  0.45594000000E+02  0.51100000000E-03 0. -1.
         11   -1    0    0    0    0 -0.00000000000E+00 -0.00000000000E+00 -0.45593999997E+02  0.45594000000E+02  0.51100000000E-03 0.  1.
    9900012    2    1    2    0    0 -0.57739632932E+01 -0.30043767072E+02  0.89863521485E+01  0.59301935381E+02  0.49999984230E+02 0.  0.
         12    1    1    2    0    0  0.57739632932E+01  0.30043767072E+02 -0.89863521485E+01  0.31886064619E+02  0.00000000000E+00 0. -1.
         11    1    3    3    0    0  0.63973364034E+01 -0.15571321321E+01 -0.93670808243E+01  0.11449575405E+02  0.51100000000E-03 0. -1.
        -11    1    3    3    0    0  0.54007801030E+01 -0.25803292263E+02  0.12123209278E+02  0.29016383662E+02  0.51100000000E-03 0.  1.
         12    1    3    3    0    0 -0.17572079800E+02 -0.26833426761E+01  0.62302236943E+01  0.18835976313E+02  0.00000000000E+00 0. -1.
</event>
<event>
 7    1  0.1205909E-011  0.5930194E+02  0.7816164E-02  0.1266605E+00
        -11   -1    0    0    0    0  0.00000000000E+00  0.00000000000E+00  0.45593999997E+02  0.45594000000E+02  0.51100000000E-03 0.  1.
         11   -1    0    0    0    0 -0.00000000000E+00 -0.00000000000E+00 -0.45593999997E+02  0.45594000000E+02  0.51100000000E-03 0. -1.
    9900012    2    1    2    0    0  0.17246498930E+02 -0.25931409180E+02  0.68440799609E+01  0.59301935051E+02  0.49999983629E+02 0.  0.
         12    1    1    2    0    0 -0.17246498930E+02  0.25931409180E+02 -0.68440799609E+01  0.31886064949E+02  0.00000000000E+00 0. -1.
         11    1    3    3    0    0  0.15385617961E+02 -0.32429046483E+02  0.49479713538E+01  0.36233171495E+02  0.51100000000E-03 0. -1.
        -11    1    3    3    0    0  0.27146808467E+01 -0.23017208564E+01  0.10283785137E+02  0.10882263000E+02  0.51100000000E-03 0.  1.
         12    1    3    3    0    0 -0.85379987738E+00  0.87993581589E+01 -0.83876765298E+01  0.12186500556E+02  0.00000000000E+00 0. -1.
</event>
<event>
 7    1  0.1205909E-011  0.5930194E+02  0.7816164E-02  0.1266605E+00
        -11   -1    0    0    0    0  0.00000000000E+00  0.00000000000E+00  0.45593999997E+02  0.45594000000E+02  0.51100000000E-03 0. -1.
         11   -1    0    0    0    0 -0.00000000000E+00 -0.00000000000E+00 -0.45593999997E+02  0.45594000000E+02  0.51100000000E-03 0.  1.
    9900012    2    1    2    0    0  0.24475114103E+01 -0.31092555936E+02 -0.66320151131E+01  0.59301937666E+02  0.49999988397E+02 0.  0.
         12    1    1    2    0    0 -0.24475114103E+01  0.31092555936E+02  0.66320151131E+01  0.31886062334E+02  0.00000000000E+00 0. -1.
         11    1    3    3    0    0 -0.29585062180E+01  0.11409076036E+01 -0.13224804932E+02  0.13599628486E+02  0.51100000000E-03 0. -1.
        -11    1    3    3    0    0 -0.98019973576E+01 -0.26233385139E+02 -0.18185049800E+00  0.28005405155E+02  0.51100000000E-03 0.  1.
         12    1    3    3    0    0  0.15208014986E+02 -0.60000784005E+01  0.67746403169E+01  0.17696904024E+02  0.00000000000E+00 0. -1.
</event>
<event>
 7    1  0.1205909E-011  0.5930194E+02  0.7816164E-02  0.1266605E+00
        -11   -1    0    0    0    0  0.00000000000E+00  0.00000000000E+00  0.45593999997E+02  0.45594000000E+02  0.51100000000E-03 0.  1.
         11   -1    0    0    0    0 -0.00000000000E+00 -0.00000000000E+00 -0.45593999997E+02  0.45594000000E+02  0.51100000000E-03 0. -1.
    9900012    2    1    2    0    0 -0.18692815736E+01  0.30501178356E+01  0.31684748414E+02  0.59301941691E+02  0.49999995739E+02 0.  0.
         12    1    1    2    0    0  0.18692815736E+01 -0.30501178356E+01 -0.31684748414E+02  0.31886058309E+02  0.00000000000E+00 0. -1.
         11    1    3    3    0    0  0.28992567603E+01 -0.40138796737E+01 -0.17622218147E+01  0.52556965079E+01  0.51100000000E-03 0. -1.
        -11    1    3    3    0    0 -0.16799542636E+02  0.71690760112E+01  0.37200640333E+02  0.41442827185E+02  0.51100000000E-03 0.  1.
         12    1    3    3    0    0  0.12031004302E+02 -0.10507850189E+00 -0.37536701040E+01  0.12603417999E+02  0.00000000000E+00 0. -1.
</event>
<event>
 7    1  0.1205909E-011  0.5930194E+02  0.7816164E-02  0.1266605E+00
        -11   -1    0    0    0    0  0.00000000000E+00  0.00000000000E+00  0.45593999997E+02  0.45594000000E+02  0.51100000000E-03 0.  1.
         11   -1    0    0    0    0 -0.00000000000E+00 -0.00000000000E+00 -0.45593999997E+02  0.45594000000E+02  0.51100000000E-03 0. -1.
    9900012    2    1    2    0    0  0.17484832323E+02  0.23297631692E+02  0.12970031547E+02  0.59301941571E+02  0.49999995519E+02 0.  0.
         12    1    1    2    0    0 -0.17484832323E+02 -0.23297631692E+02 -0.12970031547E+02  0.31886058429E+02  0.00000000000E+00 0. -1.
         11    1    3    3    0    0  0.12678595688E+02 -0.39560691355E+01 -0.16124170255E+01  0.13378982044E+02  0.51100000000E-03 0. -1.
        -11    1    3    3    0    0  0.20326954801E+01 -0.56634678519E+01 -0.47338463225E+01  0.76561099973E+01  0.51100000000E-03 0.  1.
        -12    1    3    3    0    0  0.27735411547E+01  0.32917168680E+02  0.19316294895E+02  0.38266849529E+02  0.00000000000E+00 0.  1.
</event>
<event>
 7    1  0.1205909E-011  0.5930194E+02  0.7816164E-02  0.1266605E+00
        -11   -1    0    0    0    0  0.00000000000E+00  0.00000000000E+00  0.45593999997E+02  0.45594000000E+02  0.51100000000E-03 0.  1.
         11   -1    0    0    0    0 -0.00000000000E+00 -0.00000000000E+00 -0.45593999997E+02  0.45594000000E+02  0.51100000000E-03 0. -1.
    9900012    2    1    2    0    0 -0.18427615633E+02 -0.13691820814E+01  0.25985938173E+02  0.59301942542E+02  0.49999997290E+02 0.  0.
         12    1    1    2    0    0  0.18427615633E+02  0.13691820814E+01 -0.25985938173E+02  0.31886057458E+02  0.00000000000E+00 0. -1.
         11    1    3    3    0    0  0.35867069455E+01 -0.13012195539E+02  0.77269695433E+01  0.15552741174E+02  0.51100000000E-03 0. -1.
        -11    1    3    3    0    0 -0.54509044275E+01 -0.13546388733E+01  0.21700347240E+02  0.22415451728E+02  0.51100000000E-03 0.  1.
         12    1    3    3    0    0 -0.16563418151E+02  0.12997652330E+02 -0.34413786109E+01  0.21333749640E+02  0.00000000000E+00 0. -1.
</event>
<event>
 7    1  0.1205909E-011  0.5930196E+02  0.7816164E-02  0.1266605E+00
        -11   -1    0    0    0    0  0.00000000000E+00  0.00000000000E+00  0.45593999997E+02  0.45594000000E+02  0.51100000000E-03 0. -1.
         11   -1    0    0    0    0 -0.00000000000E+00 -0.00000000000E+00 -0.45593999997E+02  0.45594000000E+02  0.51100000000E-03 0.  1.
    9900012    2    1    2    0    0  0.28609635410E+02 -0.13065029581E+02 -0.52452978947E+01  0.59301962519E+02  0.50000033723E+02 0.  0.
         12    1    1    2    0    0 -0.28609635410E+02  0.13065029581E+02  0.52452978947E+01  0.31886037481E+02  0.00000000000E+00 0. -1.
         11    1    3    3    0    0  0.27287197070E+01 -0.25662209657E+01 -0.29285653447E+01  0.47547761802E+01  0.51100000000E-03 0. -1.
        -11    1    3    3    0    0  0.20542612836E+02 -0.27122040729E+02 -0.10013583311E+02  0.35466546018E+02  0.51100000000E-03 0.  1.
         12    1    3    3    0    0  0.53383028669E+01  0.16623232114E+02  0.76968507615E+01  0.19080640321E+02  0.00000000000E+00 0. -1.
</event>
<event>
 7    1  0.1205909E-011  0.5930197E+02  0.7816164E-02  0.1266605E+00
        -11   -1    0    0    0    0  0.00000000000E+00  0.00000000000E+00  0.45593999997E+02  0.45594000000E+02  0.51100000000E-03 0.  1.
         11   -1    0    0    0    0 -0.00000000000E+00 -0.00000000000E+00 -0.45593999997E+02  0.45594000000E+02  0.51100000000E-03 0. -1.
    9900012    2    1    2    0    0  0.20994987200E+02 -0.14605467026E+02 -0.19042313777E+02  0.59301970636E+02  0.50000048528E+02 0.  0.
         12    1    1    2    0    0 -0.20994987200E+02  0.14605467026E+02  0.19042313777E+02  0.31886029364E+02  0.00000000000E+00 0. -1.
         11    1    3    3    0    0 -0.10670897431E+01 -0.39215455335E+01  0.15966055197E+01  0.43665031017E+01  0.51100000000E-03 0. -1.
        -11    1    3    3    0    0  0.18193842731E+02 -0.23437124991E+02  0.81263836992E+00  0.29681225085E+02  0.51100000000E-03 0.  1.
         12    1    3    3    0    0  0.38682342127E+01  0.12753203498E+02 -0.21451557667E+02  0.25254242450E+02  0.00000000000E+00 0. -1.
</event>
<event>
 7    1  0.1205909E-011  0.5930193E+02  0.7816164E-02  0.1266605E+00
        -11   -1    0    0    0    0  0.00000000000E+00  0.00000000000E+00  0.45593999997E+02  0.45594000000E+02  0.51100000000E-03 0.  1.
         11   -1    0    0    0    0 -0.00000000000E+00 -0.00000000000E+00 -0.45593999997E+02  0.45594000000E+02  0.51100000000E-03 0. -1.
    9900012    2    1    2    0    0 -0.79648351287E+01  0.30765233717E+02  0.26044876511E+01  0.59301928429E+02  0.49999971551E+02 0.  0.
         12    1    1    2    0    0  0.79648351287E+01 -0.30765233717E+02 -0.26044876511E+01  0.31886071571E+02  0.00000000000E+00 0. -1.
         11    1    3    3    0    0 -0.31961061704E+00  0.40299315609E+01 -0.14938416393E+02  0.15475748251E+02  0.51100000000E-03 0. -1.
        -11    1    3    3    0    0  0.95795765298E+01  0.37303216645E+01  0.24521021755E+00  0.10283176286E+02  0.51100000000E-03 0.  1.
        -12    1    3    3    0    0 -0.17224801041E+02  0.23004980492E+02  0.17297693827E+02  0.33543003892E+02  0.00000000000E+00 0.  1.
</event>
<event>
 7    1  0.1205909E-011  0.5930192E+02  0.7816164E-02  0.1266605E+00
        -11   -1    0    0    0    0  0.00000000000E+00  0.00000000000E+00  0.45593999997E+02  0.45594000000E+02  0.51100000000E-03 0. -1.
         11   -1    0    0    0    0 -0.00000000000E+00 -0.00000000000E+00 -0.45593999997E+02  0.45594000000E+02  0.51100000000E-03 0.  1.
    9900012    2    1    2    0    0  0.82916742215E+01  0.28451709712E+02  0.11767337051E+02  0.59301923600E+02  0.49999962745E+02 0.  0.
         12    1    1    2    0    0 -0.82916742215E+01 -0.28451709712E+02 -0.11767337051E+02  0.31886076400E+02  0.00000000000E+00 0. -1.
         11    1    3    3    0    0  0.18904160288E+02 -0.48183428243E+01  0.55512170704E+01  0.20282990780E+02  0.51100000000E-03 0. -1.
        -11    1    3    3    0    0  0.30608940781E+01  0.14346746402E+02 -0.64944004061E+00  0.14684004138E+02  0.51100000000E-03 0.  1.
        -12    1    3    3    0    0 -0.13673380144E+02  0.18923306134E+02  0.68655600208E+01  0.24334928683E+02  0.00000000000E+00 0.  1.
</event>
<event>
 7    1  0.1205909E-011  0.5930196E+02  0.7816164E-02  0.1266605E+00
        -11   -1    0    0    0    0  0.00000000000E+00  0.00000000000E+00  0.45593999997E+02  0.45594000000E+02  0.51100000000E-03 0.  1.
         11   -1    0    0    0    0 -0.00000000000E+00 -0.00000000000E+00 -0.45593999997E+02  0.45594000000E+02  0.51100000000E-03 0. -1.
    9900012    2    1    2    0    0 -0.91999562357E+01 -0.65837119031E+01  0.29811661409E+02  0.59301958962E+02  0.50000027236E+02 0.  0.
         12    1    1    2    0    0  0.91999562357E+01  0.65837119031E+01 -0.29811661409E+02  0.31886041038E+02  0.00000000000E+00 0. -1.
         11    1    3    3    0    0 -0.16875314227E+02 -0.25118063263E+01  0.93835786037E+01  0.19471439314E+02  0.51100000000E-03 0. -1.
        -11    1    3    3    0    0  0.29249240002E+01  0.83239699182E+01  0.24422744847E+02  0.25967559025E+02  0.51100000000E-03 0.  1.
         12    1    3    3    0    0  0.47504339912E+01 -0.12395875495E+02 -0.39946620420E+01  0.13862960623E+02  0.00000000000E+00 0. -1.
</event>
<event>
 7    1  0.1205909E-011  0.5930194E+02  0.7816164E-02  0.1266605E+00
        -11   -1    0    0    0    0  0.00000000000E+00  0.00000000000E+00  0.45593999997E+02  0.45594000000E+02  0.51100000000E-03 0.  1.
         11   -1    0    0    0    0 -0.00000000000E+00 -0.00000000000E+00 -0.45593999997E+02  0.45594000000E+02  0.51100000000E-03 0. -1.
    9900012    2    1    2    0    0 -0.24327614776E+02 -0.56304191879E+01  0.19828919837E+02  0.59301944696E+02  0.50000001220E+02 0.  0.
         12    1    1    2    0    0  0.24327614776E+02  0.56304191879E+01 -0.19828919837E+02  0.31886055304E+02  0.00000000000E+00 0. -1.
         11    1    3    3    0    0 -0.18653350571E+02  0.28868192083E+01  0.73568482444E+00  0.18889744442E+02  0.51100000000E-03 0. -1.
        -11    1    3    3    0    0 -0.16741680263E+02 -0.25549373189E+01  0.21747440816E+02  0.27563794097E+02  0.51100000000E-03 0.  1.
         12    1    3    3    0    0  0.11067416058E+02 -0.59623010774E+01 -0.26542058038E+01  0.12848406157E+02  0.00000000000E+00 0. -1.
</event>
<event>
 7    1  0.1205909E-011  0.5930195E+02  0.7816164E-02  0.1266605E+00
        -11   -1    0    0    0    0  0.00000000000E+00  0.00000000000E+00  0.45593999997E+02  0.45594000000E+02  0.51100000000E-03 0.  1.
         11   -1    0    0    0    0 -0.00000000000E+00 -0.00000000000E+00 -0.45593999997E+02  0.45594000000E+02  0.51100000000E-03 0. -1.
    9900012    2    1    2    0    0  0.23264742038E+02  0.21164852084E+02  0.52460239375E+01  0.59301953631E+02  0.50000017515E+02 0.  0.
         12    1    1    2    0    0 -0.23264742038E+02 -0.21164852084E+02 -0.52460239375E+01  0.31886046369E+02  0.00000000000E+00 0. -1.
         11    1    3    3    0    0 -0.10532574277E+02  0.35928255244E+00 -0.20723889554E+01  0.10740530764E+02  0.51100000000E-03 0. -1.
        -11    1    3    3    0    0  0.42377510673E+00 -0.33044374241E+01 -0.46183036308E+01  0.56945255042E+01  0.51100000000E-03 0.  1.
        -12    1    3    3    0    0  0.33373541208E+02  0.24110006956E+02  0.11936716524E+02  0.42866897363E+02  0.00000000000E+00 0.  1.
</event>
<event>
 7    1  0.1205909E-011  0.5930205E+02  0.7816164E-02  0.1266604E+00
        -11   -1    0    0    0    0  0.00000000000E+00  0.00000000000E+00  0.45593999997E+02  0.45594000000E+02  0.51100000000E-03 0. -1.
         11   -1    0    0    0    0 -0.00000000000E+00 -0.00000000000E+00 -0.45593999997E+02  0.45594000000E+02  0.51100000000E-03 0.  1.
    9900012    2    1    2    0    0 -0.19394864429E+01  0.18224822224E+02 -0.26092295740E+02  0.59302052473E+02  0.50000197777E+02 0.  0.
         12    1    1    2    0    0  0.19394864429E+01 -0.18224822224E+02  0.26092295740E+02  0.31885947527E+02  0.00000000000E+00 0. -1.
         11    1    3    3    0    0  0.25802985257E+01  0.23615240933E+02 -0.95254317793E+01  0.25594362575E+02  0.51100000000E-03 0. -1.
        -11    1    3    3    0    0  0.11395616820E+02  0.88302082803E+00 -0.28484246999E+01  0.11779360425E+02  0.51100000000E-03 0.  1.
         12    1    3    3    0    0 -0.15915401788E+02 -0.62734395373E+01 -0.13718439261E+02  0.21928329473E+02  0.00000000000E+00 0. -1.
</event>
<event>
 7    1  0.1205909E-011  0.5930195E+02  0.7816164E-02  0.1266605E+00
        -11   -1    0    0    0    0  0.00000000000E+00  0.00000000000E+00  0.45593999997E+02  0.45594000000E+02  0.51100000000E-03 0.  1.
         11   -1    0    0    0    0 -0.00000000000E+00 -0.00000000000E+00 -0.45593999997E+02  0.45594000000E+02  0.51100000000E-03 0. -1.
    9900012    2    1    2    0    0  0.15028439538E+01  0.31450396427E+02  0.50333265059E+01  0.59301947390E+02  0.50000006131E+02 0.  0.
         12    1    1    2    0    0 -0.15028439538E+01 -0.31450396427E+02 -0.50333265059E+01  0.31886052610E+02  0.00000000000E+00 0. -1.
         11    1    3    3    0    0 -0.10891183102E+02  0.10046646935E+02 -0.13054787257E+02  0.19747922791E+02  0.51100000000E-03 0. -1.
        -11    1    3    3    0    0  0.13862020691E+02  0.16097782696E+02  0.63495195723E+00  0.21253173636E+02  0.51100000000E-03 0.  1.
        -12    1    3    3    0    0 -0.14679936352E+01  0.53059667964E+01  0.17453161805E+02  0.18300850963E+02  0.00000000000E+00 0.  1.
</event>
<event>
 7    1  0.1205909E-011  0.5930197E+02  0.7816164E-02  0.1266605E+00
        -11   -1    0    0    0    0  0.00000000000E+00  0.00000000000E+00  0.45593999997E+02  0.45594000000E+02  0.51100000000E-03 0. -1.
         11   -1    0    0    0    0 -0.00000000000E+00 -0.00000000000E+00 -0.45593999997E+02  0.45594000000E+02  0.51100000000E-03 0.  1.
    9900012    2    1    2    0    0 -0.23970718888E+02 -0.20912175689E+02 -0.21918998900E+01  0.59301970439E+02  0.50000048167E+02 0.  0.
         12    1    1    2    0    0  0.23970718888E+02  0.20912175689E+02  0.21918998900E+01  0.31886029561E+02  0.00000000000E+00 0. -1.
         11    1    3    3    0    0 -0.12122010046E+02  0.58179565675E+00 -0.11989328463E+02  0.17059472764E+02  0.51100000000E-03 0. -1.
        -11    1    3    3    0    0 -0.18511034498E+02 -0.22134153756E+02 -0.17371819992E+01  0.28906694073E+02  0.51100000000E-03 0.  1.
         12    1    3    3    0    0  0.66623256560E+01  0.64018240990E+00  0.11534610572E+02  0.13335803602E+02  0.00000000000E+00 0. -1.
</event>
<event>
 7    1  0.1226826E-011  0.5930203E+02  0.7816164E-02  0.1266604E+00
        -11   -1    0    0    0    0  0.00000000000E+00  0.00000000000E+00  0.45593999997E+02  0.45594000000E+02  0.51100000000E-03 0. -1.
         11   -1    0    0    0    0 -0.00000000000E+00 -0.00000000000E+00 -0.45593999997E+02  0.45594000000E+02  0.51100000000E-03 0.  1.
    9900012    2    1    2    0    0  0.53438560621E+01  0.98183128911E+01 -0.29862338141E+02  0.59302026518E+02  0.50000150442E+02 0.  0.
         12    1    1    2    0    0 -0.53438560621E+01 -0.98183128911E+01  0.29862338141E+02  0.31885973482E+02  0.00000000000E+00 0. -1.
         11    1    3    3    0    0  0.95451844110E+01  0.11956241446E+02  0.81455897089E+01  0.17332422996E+02  0.51100000000E-03 0. -1.
        -11    1    3    3    0    0  0.35010824153E+01  0.57763389595E+01 -0.14124808712E+02  0.15656752258E+02  0.51100000000E-03 0.  1.
        -12    1    3    3    0    0 -0.77024107643E+01 -0.79142675147E+01 -0.23883119138E+02  0.26312851263E+02  0.00000000000E+00 0.  1.
</event>
<event>
 7    1  0.1205909E-011  0.5930197E+02  0.7816164E-02  0.1266605E+00
        -11   -1    0    0    0    0  0.00000000000E+00  0.00000000000E+00  0.45593999997E+02  0.45594000000E+02  0.51100000000E-03 0. -1.
         11   -1    0    0    0    0 -0.00000000000E+00 -0.00000000000E+00 -0.45593999997E+02  0.45594000000E+02  0.51100000000E-03 0.  1.
    9900012    2    1    2    0    0 -0.11588282969E+02  0.16780468665E+02 -0.24512172317E+02  0.59301968223E+02  0.50000044126E+02 0.  0.
         12    1    1    2    0    0  0.11588282969E+02 -0.16780468665E+02  0.24512172317E+02  0.31886031777E+02  0.00000000000E+00 0. -1.
         11    1    3    3    0    0  0.34796560418E+01  0.16006582869E+02 -0.22600056160E+02  0.27912026799E+02  0.51100000000E-03 0. -1.
        -11    1    3    3    0    0 -0.35438767020E+01  0.50834252469E+01 -0.13269920609E+02  0.14645513564E+02  0.51100000000E-03 0.  1.
         12    1    3    3    0    0 -0.11524062309E+02 -0.43095394508E+01  0.11357804453E+02  0.16744427860E+02  0.00000000000E+00 0. -1.
</event>
<event>
 7    1  0.1205909E-011  0.5930191E+02  0.7816164E-02  0.1266605E+00
        -11   -1    0    0    0    0  0.00000000000E+00  0.00000000000E+00  0.45593999997E+02  0.45594000000E+02  0.51100000000E-03 0.  1.
         11   -1    0    0    0    0 -0.00000000000E+00 -0.00000000000E+00 -0.45593999997E+02  0.45594000000E+02  0.51100000000E-03 0. -1.
    9900012    2    1    2    0    0 -0.82978625089E+01 -0.26434899594E+02 -0.15781775428E+02  0.59301907822E+02  0.49999933969E+02 0.  0.
         12    1    1    2    0    0  0.82978625089E+01  0.26434899594E+02  0.15781775428E+02  0.31886092178E+02  0.00000000000E+00 0. -1.
         11    1    3    3    0    0 -0.23867083794E+02 -0.26854905939E+02 -0.85231723110E+01  0.36925169307E+02  0.51100000000E-03 0. -1.
        -11    1    3    3    0    0 -0.17039608407E+01 -0.29892508354E+01 -0.20964058368E+01  0.40291464105E+01  0.51100000000E-03 0.  1.
        -12    1    3    3    0    0  0.17273182126E+02  0.34092571807E+01 -0.51621972798E+01  0.18347592105E+02  0.00000000000E+00 0.  1.
</event>
<event>
 7    1  0.1205909E-011  0.5930199E+02  0.7816164E-02  0.1266605E+00
        -11   -1    0    0    0    0  0.00000000000E+00  0.00000000000E+00  0.45593999997E+02  0.45594000000E+02  0.51100000000E-03 0. -1.
         11   -1    0    0    0    0 -0.00000000000E+00 -0.00000000000E+00 -0.45593999997E+02  0.45594000000E+02  0.51100000000E-03 0.  1.
    9900012    2    1    2    0    0  0.89352639000E+00 -0.44222031836E+01 -0.31565225403E+02  0.59301988566E+02  0.50000081228E+02 0.  0.
         12    1    1    2    0    0 -0.89352639000E+00  0.44222031836E+01  0.31565225403E+02  0.31886011434E+02  0.00000000000E+00 0. -1.
         11    1    3    3    0    0  0.12122004155E+02  0.27648338613E+01 -0.92356469906E+01  0.15488204112E+02  0.51100000000E-03 0. -1.
        -11    1    3    3    0    0 -0.60138885574E+01 -0.11783172727E+01 -0.31259098577E+02  0.31854144649E+02  0.51100000000E-03 0.  1.
         12    1    3    3    0    0 -0.52145892079E+01 -0.60087197722E+01  0.89295201647E+01  0.11959639806E+02  0.00000000000E+00 0. -1.
</event>
<event>
 7    1  0.1205909E-011  0.5930199E+02  0.7816164E-02  0.1266605E+00
        -11   -1    0    0    0    0  0.00000000000E+00  0.00000000000E+00  0.45593999997E+02  0.45594000000E+02  0.51100000000E-03 0.  1.
         11   -1    0    0    0    0 -0.00000000000E+00 -0.00000000000E+00 -0.45593999997E+02  0.45594000000E+02  0.51100000000E-03 0. -1.
    9900012    2    1    2    0    0 -0.22936254196E+02 -0.16263403024E+02  0.15038197314E+02  0.59301993462E+02  0.50000090157E+02 0.  0.
         12    1    1    2    0    0  0.22936254196E+02  0.16263403024E+02 -0.15038197314E+02  0.31886006538E+02  0.00000000000E+00 0. -1.
         11    1    3    3    0    0  0.31651424034E+01  0.62298267800E+00  0.11604742567E+02  0.12044761690E+02  0.51100000000E-03 0. -1.
        -11    1    3    3    0    0 -0.22737861030E+02 -0.14602786619E+02  0.17778660830E+02  0.32347062965E+02  0.51100000000E-03 0.  1.
        -12    1    3    3    0    0 -0.33635355690E+01 -0.22835990836E+01 -0.14345206083E+02  0.14910168808E+02  0.00000000000E+00 0.  1.
</event>
<event>
 7    1  0.1205909E-011  0.5930195E+02  0.7816164E-02  0.1266605E+00
        -11   -1    0    0    0    0  0.00000000000E+00  0.00000000000E+00  0.45593999997E+02  0.45594000000E+02  0.51100000000E-03 0. -1.
         11   -1    0    0    0    0 -0.00000000000E+00 -0.00000000000E+00 -0.45593999997E+02  0.45594000000E+02  0.51100000000E-03 0.  1.
    9900012    2    1    2    0    0  0.36707223796E+01 -0.18740748628E+02 -0.25534886027E+02  0.59301948718E+02  0.50000008554E+02 0.  0.
         12    1    1    2    0    0 -0.36707223796E+01  0.18740748628E+02  0.25534886027E+02  0.31886051282E+02  0.00000000000E+00 0. -1.
         11    1    3    3    0    0  0.17143233527E+02 -0.17922990116E+02 -0.14689441431E+02  0.28825400609E+02  0.51100000000E-03 0. -1.
        -11    1    3    3    0    0 -0.30977048585E+01 -0.12084657956E+02 -0.82125833969E+01  0.14935905049E+02  0.51100000000E-03 0.  1.
         12    1    3    3    0    0 -0.10374806289E+02  0.11266899445E+02 -0.26328611999E+01  0.15540643060E+02  0.00000000000E+00 0. -1.
</event>
<event>
 7    1  0.1205909E-011  0.5930185E+02  0.7816164E-02  0.1266605E+00
        -11   -1    0    0    0    0  0.00000000000E+00  0.00000000000E+00  0.45593999997E+02  0.45594000000E+02  0.51100000000E-03 0.  1.
         11   -1    0    0    0    0 -0.00000000000E+00 -0.00000000000E+00 -0.45593999997E+02  0.45594000000E+02  0.51100000000E-03 0. -1.
    9900012    2    1    2    0    0 -0.98435304911E+01  0.21440352887E+02  0.21450939078E+02  0.59301849217E+02  0.49999827088E+02 0.  0.
         12    1    1    2    0    0  0.98435304911E+01 -0.21440352887E+02 -0.21450939078E+02  0.31886150783E+02  0.00000000000E+00 0. -1.
         11    1    3    3    0    0 -0.11918656186E+02  0.12069309987E+02  0.25191304852E+02  0.30369795015E+02  0.51100000000E-03 0. -1.
        -11    1    3    3    0    0  0.31836869175E+01  0.10563310430E+02  0.10123178976E+02  0.14973247559E+02  0.51100000000E-03 0.  1.
         12    1    3    3    0    0 -0.11085612229E+01 -0.11922675301E+01 -0.13863544750E+02  0.13958806643E+02  0.00000000000E+00 0. -1.
</event>
<event>
 7    1  0.1205909E-011  0.5930193E+02  0.7816164E-02  0.1266605E+00
        -11   -1    0    0    0    0  0.00000000000E+00  0.00000000000E+00  0.45593999997E+02  0.45594000000E+02  0.51100000000E-03 0. -1.
         11   -1    0    0    0    0 -0.00000000000E+00 -0.00000000000E+00 -0.45593999997E+02  0.45594000000E+02  0.51100000000E-03 0.  1.
    9900012    2    1    2    0    0 -0.30049013137E+02 -0.61731164511E+01 -0.86989071958E+01  0.59301928689E+02  0.49999972026E+02 0.  0.
         12    1    1    2    0    0  0.30049013137E+02  0.61731164511E+01  0.86989071958E+01  0.31886071311E+02  0.00000000000E+00 0. -1.
         11    1    3    3    0    0 -0.17064250379E+01 -0.65642503275E+00 -0.14615723255E+02  0.14729634984E+02  0.51100000000E-03 0. -1.
        -11    1    3    3    0    0 -0.11300406302E+01 -0.81770769765E+01 -0.99745839327E+01  0.12947351258E+02  0.51100000000E-03 0.  1.
         12    1    3    3    0    0 -0.27212547469E+02  0.26603855582E+01  0.15891399992E+02  0.31624942447E+02  0.00000000000E+00 0. -1.
</event>
<event>
 7    1  0.1205909E-011  0.5930193E+02  0.7816164E-02  0.1266605E+00
        -11   -1    0    0    0    0  0.00000000000E+00  0.00000000000E+00  0.45593999997E+02  0.45594000000E+02  0.51100000000E-03 0.  1.
         11   -1    0    0    0    0 -0.00000000000E+00 -0.00000000000E+00 -0.45593999997E+02  0.45594000000E+02  0.51100000000E-03 0. -1.
    9900012    2    1    2    0    0 -0.28115545370E+01 -0.17711863520E+02  0.26364877540E+02  0.59301925987E+02  0.49999967099E+02 0.  0.
         12    1    1    2    0    0  0.28115545370E+01  0.17711863520E+02 -0.26364877540E+02  0.31886074013E+02  0.00000000000E+00 0. -1.
         11    1    3    3    0    0 -0.28502057987E+01 -0.41269796713E+01  0.34436923084E+01  0.60839667388E+01  0.51100000000E-03 0. -1.
        -11    1    3    3    0    0 -0.12820174250E+02 -0.20391367246E+02 -0.22009460627E+01  0.24186957018E+02  0.51100000000E-03 0.  1.
         12    1    3    3    0    0  0.12858825511E+02  0.68064833976E+01  0.25122131294E+02  0.29031002231E+02  0.00000000000E+00 0. -1.
</event>
<event>
 7    1  0.1205909E-011  0.5930193E+02  0.7816164E-02  0.1266605E+00
        -11   -1    0    0    0    0  0.00000000000E+00  0.00000000000E+00  0.45593999997E+02  0.45594000000E+02  0.51100000000E-03 0.  1.
         11   -1    0    0    0    0 -0.00000000000E+00 -0.00000000000E+00 -0.45593999997E+02  0.45594000000E+02  0.51100000000E-03 0. -1.
    9900012    2    1    2    0    0 -0.13033568619E+02  0.20569702859E+01  0.29027854493E+02  0.59301931346E+02  0.49999976872E+02 0.  0.
         12    1    1    2    0    0  0.13033568619E+02 -0.20569702859E+01 -0.29027854493E+02  0.31886068654E+02  0.00000000000E+00 0. -1.
         11    1    3    3    0    0  0.60772112684E+01 -0.63769925529E+01 -0.30767147028E+01  0.93308469307E+01  0.51100000000E-03 0. -1.
        -11    1    3    3    0    0 -0.13257075294E+01 -0.94639188674E+01  0.55442581153E+00  0.95723899327E+01  0.51100000000E-03 0.  1.
        -12    1    3    3    0    0 -0.17785072358E+02  0.17897881706E+02  0.31550143384E+02  0.40398694483E+02  0.00000000000E+00 0.  1.
</event>
<event>
 7    1  0.1205909E-011  0.5930180E+02  0.7816164E-02  0.1266605E+00
        -11   -1    0    0    0    0  0.00000000000E+00  0.00000000000E+00  0.45593999997E+02  0.45594000000E+02  0.51100000000E-03 0. -1.
         11   -1    0    0    0    0 -0.00000000000E+00 -0.00000000000E+00 -0.45593999997E+02  0.45594000000E+02  0.51100000000E-03 0.  1.
    9900012    2    1    2    0    0  0.17292263202E+02 -0.22295098107E+02 -0.14853823157E+02  0.59301798774E+02  0.49999735091E+02 0.  0.
         12    1    1    2    0    0 -0.17292263202E+02  0.22295098107E+02  0.14853823157E+02  0.31886201226E+02  0.00000000000E+00 0. -1.
         11    1    3    3    0    0 -0.11619226465E+02 -0.14021416025E+02 -0.71246068102E+01  0.19554195290E+02  0.51100000000E-03 0. -1.
        -11    1    3    3    0    0  0.80455984348E+01  0.36867710140E+01 -0.12413153284E+02  0.15245009327E+02  0.51100000000E-03 0.  1.
        -12    1    3    3    0    0  0.20865891232E+02 -0.11960453096E+02  0.46839369372E+01  0.24502594156E+02  0.00000000000E+00 0.  1.
</event>
<event>
 7    1  0.1205909E-011  0.5930194E+02  0.7816164E-02  0.1266605E+00
        -11   -1    0    0    0    0  0.00000000000E+00  0.00000000000E+00  0.45593999997E+02  0.45594000000E+02  0.51100000000E-03 0.  1.
         11   -1    0    0    0    0 -0.00000000000E+00 -0.00000000000E+00 -0.45593999997E+02  0.45594000000E+02  0.51100000000E-03 0. -1.
    9900012    2    1    2    0    0 -0.33895319337E+01  0.14450252234E+02  0.28220952046E+02  0.59301939554E+02  0.49999991842E+02 0.  0.
         12    1    1    2    0    0  0.33895319337E+01 -0.14450252234E+02 -0.28220952046E+02  0.31886060446E+02  0.00000000000E+00 0. -1.
         11    1    3    3    0    0 -0.26472369364E+01 -0.42127338288E+01  0.40049458391E+01  0.63870635776E+01  0.51100000000E-03 0. -1.
        -11    1    3    3    0    0  0.17565252072E+02  0.11250814763E+02  0.25709517537E+02  0.33107373883E+02  0.51100000000E-03 0.  1.
         12    1    3    3    0    0 -0.18307547070E+02  0.74121713004E+01 -0.14935113297E+01  0.19807502094E+02  0.00000000000E+00 0. -1.
</event>
<event>
 7    1  0.1205909E-011  0.5930195E+02  0.7816164E-02  0.1266605E+00
        -11   -1    0    0    0    0  0.00000000000E+00  0.00000000000E+00  0.45593999997E+02  0.45594000000E+02  0.51100000000E-03 0. -1.
         11   -1    0    0    0    0 -0.00000000000E+00 -0.00000000000E+00 -0.45593999997E+02  0.45594000000E+02  0.51100000000E-03 0.  1.
    9900012    2    1    2    0    0 -0.10976271582E+02 -0.29530743950E+02 -0.49169841420E+01  0.59301951183E+02  0.50000013050E+02 0.  0.
         12    1    1    2    0    0  0.10976271582E+02  0.29530743950E+02  0.49169841420E+01  0.31886048817E+02  0.00000000000E+00 0. -1.
         11    1    3    3    0    0  0.84671313010E+01 -0.78345075827E+01 -0.86774085313E+01  0.14435000541E+02  0.51100000000E-03 0. -1.
        -11    1    3    3    0    0 -0.49960282526E+01 -0.23205348325E+02 -0.91434792950E+01  0.25437210992E+02  0.51100000000E-03 0.  1.
        -12    1    3    3    0    0 -0.14447374630E+02  0.15091119573E+01  0.12903903684E+02  0.19429739651E+02  0.00000000000E+00 0.  1.
</event>
<event>
 7    1  0.1205909E-011  0.5930195E+02  0.7816164E-02  0.1266605E+00
        -11   -1    0    0    0    0  0.00000000000E+00  0.00000000000E+00  0.45593999997E+02  0.45594000000E+02  0.51100000000E-03 0.  1.
         11   -1    0    0    0    0 -0.00000000000E+00 -0.00000000000E+00 -0.45593999997E+02  0.45594000000E+02  0.51100000000E-03 0. -1.
    9900012    2    1    2    0    0 -0.58934960018E+01 -0.39469978450E+01  0.31087103990E+02  0.59301950988E+02  0.50000012693E+02 0.  0.
         12    1    1    2    0    0  0.58934960018E+01  0.39469978450E+01 -0.31087103990E+02  0.31886049012E+02  0.00000000000E+00 0. -1.
         11    1    3    3    0    0 -0.14414589194E+02 -0.84849434111E+01  0.98086094945E+01  0.19390293107E+02  0.51100000000E-03 0. -1.
        -11    1    3    3    0    0  0.17674756681E+01 -0.13817836487E+02  0.11396225451E+02  0.17998070180E+02  0.51100000000E-03 0.  1.
         12    1    3    3    0    0  0.67536175237E+01  0.18355782053E+02  0.98822690454E+01  0.21913587701E+02  0.00000000000E+00 0. -1.
</event>
<event>
 7    1  0.1205909E-011  0.5930195E+02  0.7816164E-02  0.1266605E+00
        -11   -1    0    0    0    0  0.00000000000E+00  0.00000000000E+00  0.45593999997E+02  0.45594000000E+02  0.51100000000E-03 0. -1.
         11   -1    0    0    0    0 -0.00000000000E+00 -0.00000000000E+00 -0.45593999997E+02  0.45594000000E+02  0.51100000000E-03 0.  1.
    9900012    2    1    2    0    0  0.24039332855E+02 -0.32774490764E+01 -0.20690313507E+02  0.59301948667E+02  0.50000008462E+02 0.  0.
         12    1    1    2    0    0 -0.24039332855E+02  0.32774490764E+01  0.20690313507E+02  0.31886051333E+02  0.00000000000E+00 0. -1.
         11    1    3    3    0    0  0.59529949463E+01  0.10755880714E+02 -0.10336133064E+02  0.16061219311E+02  0.51100000000E-03 0. -1.
        -11    1    3    3    0    0  0.19243172457E+02  0.73204484811E+01 -0.55291017743E+01  0.21318058516E+02  0.51100000000E-03 0.  1.
         12    1    3    3    0    0 -0.11568345489E+01 -0.21353778272E+02 -0.48250786691E+01  0.21922670841E+02  0.00000000000E+00 0. -1.
</event>
<event>
 7    1  0.1205909E-011  0.5930194E+02  0.7816164E-02  0.1266605E+00
        -11   -1    0    0    0    0  0.00000000000E+00  0.00000000000E+00  0.45593999997E+02  0.45594000000E+02  0.51100000000E-03 0. -1.
         11   -1    0    0    0    0 -0.00000000000E+00 -0.00000000000E+00 -0.45593999997E+02  0.45594000000E+02  0.51100000000E-03 0.  1.
    9900012    2    1    2    0    0  0.18463069668E+02 -0.24208058145E+02 -0.94765822376E+01  0.59301942990E+02  0.49999998108E+02 0.  0.
         12    1    1    2    0    0 -0.18463069668E+02  0.24208058145E+02  0.94765822376E+01  0.31886057010E+02  0.00000000000E+00 0. -1.
         11    1    3    3    0    0  0.12327479118E+02 -0.57201186060E+01  0.10465014469E+02  0.17152347547E+02  0.51100000000E-03 0. -1.
        -11    1    3    3    0    0  0.76928287992E+01  0.73192739007E+01 -0.95634799843E+01  0.14290260146E+02  0.51100000000E-03 0.  1.
        -12    1    3    3    0    0 -0.15572382494E+01 -0.25807213440E+02 -0.10378116722E+02  0.27859335297E+02  0.00000000000E+00 0.  1.
</event>
<event>
 7    1  0.1205909E-011  0.5930193E+02  0.7816164E-02  0.1266605E+00
        -11   -1    0    0    0    0  0.00000000000E+00  0.00000000000E+00  0.45593999997E+02  0.45594000000E+02  0.51100000000E-03 0. -1.
         11   -1    0    0    0    0 -0.00000000000E+00 -0.00000000000E+00 -0.45593999997E+02  0.45594000000E+02  0.51100000000E-03 0.  1.
    9900012    2    1    2    0    0  0.25540888084E+02 -0.18971723568E+02 -0.21114327329E+01  0.59301930825E+02  0.49999975922E+02 0.  0.
         12    1    1    2    0    0 -0.25540888084E+02  0.18971723568E+02  0.21114327329E+01  0.31886069175E+02  0.00000000000E+00 0. -1.
         11    1    3    3    0    0 -0.21729691695E+01 -0.29041476598E+01  0.77169053777E+01  0.85268105122E+01  0.51100000000E-03 0. -1.
        -11    1    3    3    0    0  0.24797630659E+02 -0.28012486835E+02 -0.59464714992E+01  0.37881161922E+02  0.51100000000E-03 0.  1.
         12    1    3    3    0    0  0.29162265943E+01  0.11944910927E+02 -0.38818666113E+01  0.12893958391E+02  0.00000000000E+00 0. -1.
</event>
<event>
 7    1  0.1205909E-011  0.5930192E+02  0.7816164E-02  0.1266605E+00
        -11   -1    0    0    0    0  0.00000000000E+00  0.00000000000E+00  0.45593999997E+02  0.45594000000E+02  0.51100000000E-03 0. -1.
         11   -1    0    0    0    0 -0.00000000000E+00 -0.00000000000E+00 -0.45593999997E+02  0.45594000000E+02  0.51100000000E-03 0.  1.
    9900012    2    1    2    0    0  0.73156562513E+01  0.18480929565E+02 -0.24933077823E+02  0.59301922259E+02  0.49999960300E+02 0.  0.
         12    1    1    2    0    0 -0.73156562513E+01 -0.18480929565E+02  0.24933077823E+02  0.31886077741E+02  0.00000000000E+00 0. -1.
         11    1    3    3    0    0  0.43341753708E+01  0.54315952120E+01 -0.76061741156E+01  0.10302484537E+02  0.51100000000E-03 0. -1.
        -11    1    3    3    0    0  0.57867392958E+01  0.66121782147E+00 -0.30293419544E+02  0.30848254871E+02  0.51100000000E-03 0.  1.
         12    1    3    3    0    0 -0.28052584153E+01  0.12388116531E+02  0.12966515837E+02  0.18151182851E+02  0.00000000000E+00 0. -1.
</event>
<event>
 7    1  0.1205909E-011  0.5930191E+02  0.7816164E-02  0.1266605E+00
        -11   -1    0    0    0    0  0.00000000000E+00  0.00000000000E+00  0.45593999997E+02  0.45594000000E+02  0.51100000000E-03 0.  1.
         11   -1    0    0    0    0 -0.00000000000E+00 -0.00000000000E+00 -0.45593999997E+02  0.45594000000E+02  0.51100000000E-03 0. -1.
    9900012    2    1    2    0    0 -0.28952087120E+02 -0.30318369389E+01  0.13011805918E+02  0.59301914052E+02  0.49999945332E+02 0.  0.
         12    1    1    2    0    0  0.28952087120E+02  0.30318369389E+01 -0.13011805918E+02  0.31886085948E+02  0.00000000000E+00 0. -1.
         11    1    3    3    0    0 -0.10430856545E+02 -0.41252384159E+01 -0.33612342081E+01  0.11709750464E+02  0.51100000000E-03 0. -1.
        -11    1    3    3    0    0 -0.19234203584E+01 -0.17720004590E+02  0.13459479449E+02  0.22335077699E+02  0.51100000000E-03 0.  1.
         12    1    3    3    0    0 -0.16597810216E+02  0.18813406067E+02  0.29135606774E+01  0.25257085889E+02  0.00000000000E+00 0. -1.
</event>
<event>
 7    1  0.1205909E-011  0.5930195E+02  0.7816164E-02  0.1266605E+00
        -11   -1    0    0    0    0  0.00000000000E+00  0.00000000000E+00  0.45593999997E+02  0.45594000000E+02  0.51100000000E-03 0. -1.
         11   -1    0    0    0    0 -0.00000000000E+00 -0.00000000000E+00 -0.45593999997E+02  0.45594000000E+02  0.51100000000E-03 0.  1.
    9900012    2    1    2    0    0  0.18583679850E+02 -0.69811362074E+01 -0.24952572423E+02  0.59301948347E+02  0.50000007877E+02 0.  0.
         12    1    1    2    0    0 -0.18583679850E+02  0.69811362074E+01  0.24952572423E+02  0.31886051653E+02  0.00000000000E+00 0. -1.
         11    1    3    3    0    0  0.94200618595E+01 -0.46926224469E+01  0.20265995103E+00  0.10526126647E+02  0.51100000000E-03 0. -1.
        -11    1    3    3    0    0  0.23601734417E+02  0.60189195640E+01 -0.10259843842E+02  0.26429787289E+02  0.51100000000E-03 0.  1.
        -12    1    3    3    0    0 -0.14438116427E+02 -0.83074333244E+01 -0.14895388532E+02  0.22346034411E+02  0.00000000000E+00 0.  1.
</event>
<event>
 7    1  0.1205909E-011  0.5930194E+02  0.7816164E-02  0.1266605E+00
        -11   -1    0    0    0    0  0.00000000000E+00  0.00000000000E+00  0.45593999997E+02  0.45594000000E+02  0.51100000000E-03 0. -1.
         11   -1    0    0    0    0 -0.00000000000E+00 -0.00000000000E+00 -0.45593999997E+02  0.45594000000E+02  0.51100000000E-03 0.  1.
    9900012    2    1    2    0    0  0.14899580090E+02  0.21540466358E+02  0.18186029446E+02  0.59301939648E+02  0.49999992012E+02 0.  0.
         12    1    1    2    0    0 -0.14899580090E+02 -0.21540466358E+02 -0.18186029446E+02  0.31886060352E+02  0.00000000000E+00 0. -1.
         11    1    3    3    0    0  0.14195993863E+02  0.10139172594E+02  0.17904630349E+02  0.24998096945E+02  0.51100000000E-03 0. -1.
        -11    1    3    3    0    0  0.10862742083E+02  0.97031368203E+01  0.11877143232E+02  0.18794056542E+02  0.51100000000E-03 0.  1.
        -12    1    3    3    0    0 -0.10159155855E+02  0.16981569439E+01 -0.11595744135E+02  0.15509786161E+02  0.00000000000E+00 0.  1.
</event>
<event>
 7    1  0.1205909E-011  0.5930196E+02  0.7816164E-02  0.1266605E+00
        -11   -1    0    0    0    0  0.00000000000E+00  0.00000000000E+00  0.45593999997E+02  0.45594000000E+02  0.51100000000E-03 0. -1.
         11   -1    0    0    0    0 -0.00000000000E+00 -0.00000000000E+00 -0.45593999997E+02  0.45594000000E+02  0.51100000000E-03 0.  1.
    9900012    2    1    2    0    0  0.15268054115E+02  0.22412643929E+02 -0.16771392103E+02  0.59301957953E+02  0.50000025396E+02 0.  0.
         12    1    1    2    0    0 -0.15268054115E+02 -0.22412643929E+02  0.16771392103E+02  0.31886042047E+02  0.00000000000E+00 0. -1.
         11    1    3    3    0    0  0.15088726066E+02  0.25710960159E+02 -0.17922294821E+02  0.34784073632E+02  0.51100000000E-03 0. -1.
        -11    1    3    3    0    0  0.16216354167E+01  0.10408841167E+02  0.19439183415E+01  0.10712259082E+02  0.51100000000E-03 0.  1.
         12    1    3    3    0    0 -0.14423073672E+01 -0.13707157397E+02 -0.79301562411E+00  0.13805625238E+02  0.00000000000E+00 0. -1.
</event>
<event>
 7    1  0.1205909E-011  0.5930197E+02  0.7816164E-02  0.1266605E+00
        -11   -1    0    0    0    0  0.00000000000E+00  0.00000000000E+00  0.45593999997E+02  0.45594000000E+02  0.51100000000E-03 0.  1.
         11   -1    0    0    0    0 -0.00000000000E+00 -0.00000000000E+00 -0.45593999997E+02  0.45594000000E+02  0.51100000000E-03 0. -1.
    9900012    2    1    2    0    0  0.15589118268E+02 -0.26749942411E+02  0.76248827060E+01  0.59301970714E+02  0.50000048669E+02 0.  0.
         12    1    1    2    0    0 -0.15589118268E+02  0.26749942411E+02 -0.76248827060E+01  0.31886029286E+02  0.00000000000E+00 0. -1.
         11    1    3    3    0    0  0.25176801227E+02 -0.53730545342E+01 -0.78536601594E+01  0.26915070373E+02  0.51100000000E-03 0.  1.
        -11    1    3    3    0    0 -0.69747480676E+01 -0.10049732493E+01  0.69521382583E+00  0.70809889396E+01  0.51100000000E-03 0. -1.
        -12    1    3    3    0    0 -0.26129348913E+01 -0.20371914628E+02  0.14783329040E+02  0.25305911401E+02  0.00000000000E+00 0.  1.
</event>
<event>
 7    1  0.1205909E-011  0.5930194E+02  0.7816164E-02  0.1266605E+00
        -11   -1    0    0    0    0  0.00000000000E+00  0.00000000000E+00  0.45593999997E+02  0.45594000000E+02  0.51100000000E-03 0.  1.
         11   -1    0    0    0    0 -0.00000000000E+00 -0.00000000000E+00 -0.45593999997E+02  0.45594000000E+02  0.51100000000E-03 0. -1.
    9900012    2    1    2    0    0  0.22117847537E+01 -0.79573116570E+01  0.30797890948E+02  0.59301938979E+02  0.49999990792E+02 0.  0.
         12    1    1    2    0    0 -0.22117847537E+01  0.79573116570E+01 -0.30797890948E+02  0.31886061021E+02  0.00000000000E+00 0. -1.
         11    1    3    3    0    0 -0.22163613381E+01 -0.64362716889E+00 -0.91712691793E+01  0.94572031877E+01  0.51100000000E-03 0. -1.
        -11    1    3    3    0    0 -0.84392106082E+00  0.10833008976E+02  0.13739645842E+02  0.17516967614E+02  0.51100000000E-03 0.  1.
        -12    1    3    3    0    0  0.52720671526E+01 -0.18146693464E+02  0.26229514285E+02  0.32327768178E+02  0.00000000000E+00 0.  1.
</event>
<event>
 7    1  0.1205909E-011  0.5930194E+02  0.7816164E-02  0.1266605E+00
        -11   -1    0    0    0    0  0.00000000000E+00  0.00000000000E+00  0.45593999997E+02  0.45594000000E+02  0.51100000000E-03 0.  1.
         11   -1    0    0    0    0 -0.00000000000E+00 -0.00000000000E+00 -0.45593999997E+02  0.45594000000E+02  0.51100000000E-03 0. -1.
    9900012    2    1    2    0    0 -0.16813426877E+02 -0.70501610336E+01  0.26159598398E+02  0.59301942196E+02  0.49999996659E+02 0.  0.
         12    1    1    2    0    0  0.16813426877E+02  0.70501610336E+01 -0.26159598398E+02  0.31886057804E+02  0.00000000000E+00 0. -1.
         11    1    3    3    0    0 -0.23005001026E+02  0.83523410487E+00  0.44320132360E+01  0.23442918543E+02  0.51100000000E-03 0. -1.
        -11    1    3    3    0    0 -0.29835014323E+01 -0.15628738552E+02  0.86658823025E+01  0.18117843852E+02  0.51100000000E-03 0.  1.
         12    1    3    3    0    0  0.91750755812E+01  0.77433434134E+01  0.13061702859E+02  0.17741179801E+02  0.00000000000E+00 0. -1.
</event>
<event>
 7    1  0.1205909E-011  0.5930195E+02  0.7816164E-02  0.1266605E+00
        -11   -1    0    0    0    0  0.00000000000E+00  0.00000000000E+00  0.45593999997E+02  0.45594000000E+02  0.51100000000E-03 0. -1.
         11   -1    0    0    0    0 -0.00000000000E+00 -0.00000000000E+00 -0.45593999997E+02  0.45594000000E+02  0.51100000000E-03 0.  1.
    9900012    2    1    2    0    0  0.16295700517E+02 -0.25649637200E+02  0.96574633134E+01  0.59301947540E+02  0.50000006405E+02 0.  0.
         12    1    1    2    0    0 -0.16295700517E+02  0.25649637200E+02 -0.96574633134E+01  0.31886052460E+02  0.00000000000E+00 0. -1.
         11    1    3    3    0    0  0.62344988588E+00 -0.75093912000E+01  0.16586573562E+01  0.77156199000E+01  0.51100000000E-03 0.  1.
        -11    1    3    3    0    0  0.56506858681E+01 -0.13154261578E+02  0.26409244211E+02  0.30040190221E+02  0.51100000000E-03 0. -1.
         12    1    3    3    0    0  0.10021564763E+02 -0.49859844219E+01 -0.18410438254E+02  0.21546137419E+02  0.00000000000E+00 0. -1.
</event>
<event>
 7    1  0.1205909E-011  0.5930197E+02  0.7816164E-02  0.1266605E+00
        -11   -1    0    0    0    0  0.00000000000E+00  0.00000000000E+00  0.45593999997E+02  0.45594000000E+02  0.51100000000E-03 0.  1.
         11   -1    0    0    0    0 -0.00000000000E+00 -0.00000000000E+00 -0.45593999997E+02  0.45594000000E+02  0.51100000000E-03 0. -1.
    9900012    2    1    2    0    0  0.29128065061E+02 -0.12967395037E+02 -0.34835164288E+00  0.59301970816E+02  0.50000048856E+02 0.  0.
         12    1    1    2    0    0 -0.29128065061E+02  0.12967395037E+02  0.34835164288E+00  0.31886029184E+02  0.00000000000E+00 0. -1.
         11    1    3    3    0    0 -0.41163745712E+01  0.70273812721E+00 -0.13243197327E+02  0.13885987765E+02  0.51100000000E-03 0. -1.
        -11    1    3    3    0    0  0.14000126105E+02 -0.10162347487E+02 -0.59104009081E+01  0.18281402478E+02  0.51100000000E-03 0.  1.
        -12    1    3    3    0    0  0.19244313527E+02 -0.35077856772E+01  0.18805246593E+02  0.27134580573E+02  0.00000000000E+00 0.  1.
</event>
<event>
 7    1  0.1205909E-011  0.5930195E+02  0.7816164E-02  0.1266605E+00
        -11   -1    0    0    0    0  0.00000000000E+00  0.00000000000E+00  0.45593999997E+02  0.45594000000E+02  0.51100000000E-03 0.  1.
         11   -1    0    0    0    0 -0.00000000000E+00 -0.00000000000E+00 -0.45593999997E+02  0.45594000000E+02  0.51100000000E-03 0. -1.
    9900012    2    1    2    0    0 -0.23876284489E+02 -0.80147608433E+01  0.19555218388E+02  0.59301954171E+02  0.50000018500E+02 0.  0.
         12    1    1    2    0    0  0.23876284489E+02  0.80147608433E+01 -0.19555218388E+02  0.31886045829E+02  0.00000000000E+00 0. -1.
         11    1    3    3    0    0 -0.32619837337E+02 -0.17007580561E+02  0.17347789296E+02  0.40672562965E+02  0.51100000000E-03 0. -1.
        -11    1    3    3    0    0 -0.27521208035E+01  0.46747706768E-01  0.29618455294E+01  0.40433752567E+01  0.51100000000E-03 0.  1.
         12    1    3    3    0    0  0.11495673651E+02  0.89460720108E+01 -0.75441643779E+00  0.14586015950E+02  0.00000000000E+00 0. -1.
</event>
<event>
 7    1  0.1205909E-011  0.5930194E+02  0.7816164E-02  0.1266605E+00
        -11   -1    0    0    0    0  0.00000000000E+00  0.00000000000E+00  0.45593999997E+02  0.45594000000E+02  0.51100000000E-03 0.  1.
         11   -1    0    0    0    0 -0.00000000000E+00 -0.00000000000E+00 -0.45593999997E+02  0.45594000000E+02  0.51100000000E-03 0. -1.
    9900012    2    1    2    0    0 -0.78866300504E+00  0.26545608554E+02  0.17647360003E+02  0.59301942892E+02  0.49999997928E+02 0.  0.
         12    1    1    2    0    0  0.78866300504E+00 -0.26545608554E+02 -0.17647360003E+02  0.31886057108E+02  0.00000000000E+00 0. -1.
         11    1    3    3    0    0  0.73899947252E+01 -0.12302003751E+02  0.58477372822E+01  0.15496688353E+02  0.51100000000E-03 0. -1.
        -11    1    3    3    0    0 -0.82921105352E+01  0.89065356404E+01  0.22285640146E+01  0.12371417545E+02  0.51100000000E-03 0.  1.
        -12    1    3    3    0    0  0.11345280499E+00  0.29941076665E+02  0.95710587067E+01  0.31433836994E+02  0.00000000000E+00 0.  1.
</event>
<event>
 7    1  0.1205909E-011  0.5930196E+02  0.7816164E-02  0.1266605E+00
        -11   -1    0    0    0    0  0.00000000000E+00  0.00000000000E+00  0.45593999997E+02  0.45594000000E+02  0.51100000000E-03 0. -1.
         11   -1    0    0    0    0 -0.00000000000E+00 -0.00000000000E+00 -0.45593999997E+02  0.45594000000E+02  0.51100000000E-03 0.  1.
    9900012    2    1    2    0    0  0.21156775042E+02  0.12501318582E+02 -0.20318151069E+02  0.59301962941E+02  0.50000034493E+02 0.  0.
         12    1    1    2    0    0 -0.21156775042E+02 -0.12501318582E+02  0.20318151069E+02  0.31886037059E+02  0.00000000000E+00 0. -1.
         11    1    3    3    0    0  0.10600146880E+02 -0.96743642801E+00  0.39731448400E+01  0.11361554792E+02  0.51100000000E-03 0. -1.
        -11    1    3    3    0    0  0.16469211039E+02 -0.33858940520E+01  0.11524144653E+01  0.16853108026E+02  0.51100000000E-03 0.  1.
        -12    1    3    3    0    0 -0.59125828764E+01  0.16854649062E+02 -0.25443710375E+02  0.31087300122E+02  0.00000000000E+00 0.  1.
</event>
<event>
 7    1  0.1205909E-011  0.5930192E+02  0.7816164E-02  0.1266605E+00
        -11   -1    0    0    0    0  0.00000000000E+00  0.00000000000E+00  0.45593999997E+02  0.45594000000E+02  0.51100000000E-03 0.  1.
         11   -1    0    0    0    0 -0.00000000000E+00 -0.00000000000E+00 -0.45593999997E+02  0.45594000000E+02  0.51100000000E-03 0. -1.
    9900012    2    1    2    0    0 -0.30628690529E+02 -0.28944691814E+01 -0.83801797452E+01  0.59301920781E+02  0.49999957604E+02 0.  0.
         12    1    1    2    0    0  0.30628690529E+02  0.28944691814E+01  0.83801797452E+01  0.31886079219E+02  0.00000000000E+00 0. -1.
         11    1    3    3    0    0 -0.19269562799E+01 -0.30851815533E+01 -0.19456058599E+02  0.19793173626E+02  0.51100000000E-03 0. -1.
        -11    1    3    3    0    0 -0.10924668072E+02 -0.12101868241E+02  0.43669244112E+01  0.16878199444E+02  0.51100000000E-03 0.  1.
        -12    1    3    3    0    0 -0.17777066177E+02  0.12292580613E+02  0.67089544423E+01  0.22630547711E+02  0.00000000000E+00 0.  1.
</event>
<event>
 7    1  0.1205909E-011  0.5930192E+02  0.7816164E-02  0.1266605E+00
        -11   -1    0    0    0    0  0.00000000000E+00  0.00000000000E+00  0.45593999997E+02  0.45594000000E+02  0.51100000000E-03 0.  1.
         11   -1    0    0    0    0 -0.00000000000E+00 -0.00000000000E+00 -0.45593999997E+02  0.45594000000E+02  0.51100000000E-03 0. -1.
    9900012    2    1    2    0    0 -0.20343821742E+02  0.79276040327E+00  0.24540222248E+02  0.59301920591E+02  0.49999957256E+02 0.  0.
         12    1    1    2    0    0  0.20343821742E+02 -0.79276040327E+00 -0.24540222248E+02  0.31886079409E+02  0.00000000000E+00 0. -1.
         11    1    3    3    0    0  0.69677457045E+01  0.95508478090E+01  0.54115790346E+01  0.13002052222E+02  0.51100000000E-03 0. -1.
        -11    1    3    3    0    0  0.50158009114E+01  0.30190127350E+01 -0.16804522321E+01  0.60906991916E+01  0.51100000000E-03 0.  1.
        -12    1    3    3    0    0 -0.32327368358E+02 -0.11777100141E+02  0.20809095445E+02  0.40209169177E+02  0.00000000000E+00 0.  1.
</event>
<event>
 7    1  0.1205909E-011  0.5930195E+02  0.7816164E-02  0.1266605E+00
        -11   -1    0    0    0    0  0.00000000000E+00  0.00000000000E+00  0.45593999997E+02  0.45594000000E+02  0.51100000000E-03 0.  1.
         11   -1    0    0    0    0 -0.00000000000E+00 -0.00000000000E+00 -0.45593999997E+02  0.45594000000E+02  0.51100000000E-03 0. -1.
    9900012    2    1    2    0    0  0.99087292354E+01 -0.39950274762E+01  0.30042921380E+02  0.59301948431E+02  0.50000008031E+02 0.  0.
         12    1    1    2    0    0 -0.99087292354E+01  0.39950274762E+01 -0.30042921380E+02  0.31886051569E+02  0.00000000000E+00 0. -1.
         11    1    3    3    0    0 -0.36544820492E+01 -0.19988819642E+02  0.18721638939E+02  0.27629837397E+02  0.51100000000E-03 0. -1.
        -11    1    3    3    0    0 -0.41815683698E+01  0.51208321128E+01 -0.20666277765E+01  0.69267153967E+01  0.51100000000E-03 0.  1.
         12    1    3    3    0    0  0.17744779654E+02  0.10872960053E+02  0.13387910217E+02  0.24745395638E+02  0.00000000000E+00 0. -1.
</event>
<event>
 7    1  0.1205909E-011  0.5930194E+02  0.7816164E-02  0.1266605E+00
        -11   -1    0    0    0    0  0.00000000000E+00  0.00000000000E+00  0.45593999997E+02  0.45594000000E+02  0.51100000000E-03 0.  1.
         11   -1    0    0    0    0 -0.00000000000E+00 -0.00000000000E+00 -0.45593999997E+02  0.45594000000E+02  0.51100000000E-03 0. -1.
    9900012    2    1    2    0    0 -0.10115412093E+02 -0.27222493115E+02 -0.13165684305E+02  0.59301938210E+02  0.49999989390E+02 0.  0.
         12    1    1    2    0    0  0.10115412093E+02  0.27222493115E+02  0.13165684305E+02  0.31886061790E+02  0.00000000000E+00 0. -1.
         11    1    3    3    0    0 -0.56177801185E+00  0.40750170371E+01 -0.10958414343E+02  0.11705050345E+02  0.51100000000E-03 0. -1.
        -11    1    3    3    0    0  0.24472234082E+01 -0.17264933826E+02 -0.16684392790E+02  0.24133706832E+02  0.51100000000E-03 0.  1.
        -12    1    3    3    0    0 -0.12000857490E+02 -0.14032576326E+02  0.14477122828E+02  0.23463181034E+02  0.00000000000E+00 0.  1.
</event>
<event>
 7    1  0.1205909E-011  0.5930191E+02  0.7816164E-02  0.1266605E+00
        -11   -1    0    0    0    0  0.00000000000E+00  0.00000000000E+00  0.45593999997E+02  0.45594000000E+02  0.51100000000E-03 0.  1.
         11   -1    0    0    0    0 -0.00000000000E+00 -0.00000000000E+00 -0.45593999997E+02  0.45594000000E+02  0.51100000000E-03 0. -1.
    9900012    2    1    2    0    0 -0.26122804946E+02 -0.56172668390E+01  0.17400231222E+02  0.59301911002E+02  0.49999939770E+02 0.  0.
         12    1    1    2    0    0  0.26122804946E+02  0.56172668390E+01 -0.17400231222E+02  0.31886088998E+02  0.00000000000E+00 0. -1.
         11    1    3    3    0    0 -0.25707583275E+01  0.10494364834E+02  0.54829147385E+00  0.10818554221E+02  0.51100000000E-03 0. -1.
        -11    1    3    3    0    0 -0.88599453536E+01 -0.32729068578E+01  0.25461526278E+02  0.27156948864E+02  0.51100000000E-03 0.  1.
        -12    1    3    3    0    0 -0.14692101265E+02 -0.12838724815E+02 -0.86095865291E+01  0.21326407917E+02  0.00000000000E+00 0.  1.
</event>
<event>
 7    1  0.1205909E-011  0.5930210E+02  0.7816164E-02  0.1266604E+00
        -11   -1    0    0    0    0  0.00000000000E+00  0.00000000000E+00  0.45593999997E+02  0.45594000000E+02  0.51100000000E-03 0.  1.
         11   -1    0    0    0    0 -0.00000000000E+00 -0.00000000000E+00 -0.45593999997E+02  0.45594000000E+02  0.51100000000E-03 0. -1.
    9900012    2    1    2    0    0 -0.28879019872E+02  0.39806513911E+00  0.13511270098E+02  0.59302099287E+02  0.50000283154E+02 0.  0.
         12    1    1    2    0    0  0.28879019872E+02 -0.39806513911E+00 -0.13511270098E+02  0.31885900713E+02  0.00000000000E+00 0. -1.
         11    1    3    3    0    0 -0.57225156273E+01 -0.43123974389E+01 -0.77994425438E+01  0.10591282313E+02  0.51100000000E-03 0. -1.
        -11    1    3    3    0    0 -0.11761026761E+02 -0.10992031093E+02  0.24230555109E+02  0.29090656562E+02  0.51100000000E-03 0.  1.
         12    1    3    3    0    0 -0.11395477484E+02  0.15702493671E+02 -0.29198424673E+01  0.19620160412E+02  0.00000000000E+00 0. -1.
</event>
<event>
 7    1  0.1205909E-011  0.5930193E+02  0.7816164E-02  0.1266605E+00
        -11   -1    0    0    0    0  0.00000000000E+00  0.00000000000E+00  0.45593999997E+02  0.45594000000E+02  0.51100000000E-03 0.  1.
         11   -1    0    0    0    0 -0.00000000000E+00 -0.00000000000E+00 -0.45593999997E+02  0.45594000000E+02  0.51100000000E-03 0. -1.
    9900012    2    1    2    0    0 -0.20142597296E+02  0.47416351058E+01  0.24259311068E+02  0.59301929330E+02  0.49999973195E+02 0.  0.
         12    1    1    2    0    0  0.20142597296E+02 -0.47416351058E+01 -0.24259311068E+02  0.31886070670E+02  0.00000000000E+00 0. -1.
         11    1    3    3    0    0  0.54658547302E+00 -0.11562664991E+01 -0.95906552174E+01  0.96755555735E+01  0.51100000000E-03 0. -1.
        -11    1    3    3    0    0 -0.13335175665E+02 -0.11347268314E+02  0.15298249815E+02  0.23251319444E+02  0.51100000000E-03 0.  1.
         12    1    3    3    0    0 -0.73540071041E+01  0.17245169919E+02  0.18551716470E+02  0.26375054313E+02  0.00000000000E+00 0. -1.
</event>
<event>
 7    1  0.1205909E-011  0.5930195E+02  0.7816164E-02  0.1266605E+00
        -11   -1    0    0    0    0  0.00000000000E+00  0.00000000000E+00  0.45593999997E+02  0.45594000000E+02  0.51100000000E-03 0.  1.
         11   -1    0    0    0    0 -0.00000000000E+00 -0.00000000000E+00 -0.45593999997E+02  0.45594000000E+02  0.51100000000E-03 0. -1.
    9900012    2    1    2    0    0  0.94540027854E+01 -0.34712585329E+01  0.30253798907E+02  0.59301950499E+02  0.50000011803E+02 0.  0.
         12    1    1    2    0    0 -0.94540027854E+01  0.34712585329E+01 -0.30253798907E+02  0.31886049501E+02  0.00000000000E+00 0. -1.
         11    1    3    3    0    0 -0.61398555925E+01 -0.74303172691E+01  0.43342808095E+01  0.10568511334E+02  0.51100000000E-03 0. -1.
        -11    1    3    3    0    0 -0.13071582088E+01 -0.11873422013E+02 -0.23656407012E+01  0.12177153570E+02  0.51100000000E-03 0.  1.
        -12    1    3    3    0    0  0.16901016587E+02  0.15832480749E+02  0.28285158798E+02  0.36556285596E+02  0.00000000000E+00 0.  1.
</event>
<event>
 7    1  0.1205909E-011  0.5930206E+02  0.7816164E-02  0.1266604E+00
        -11   -1    0    0    0    0  0.00000000000E+00  0.00000000000E+00  0.45593999997E+02  0.45594000000E+02  0.51100000000E-03 0. -1.
         11   -1    0    0    0    0 -0.00000000000E+00 -0.00000000000E+00 -0.45593999997E+02  0.45594000000E+02  0.51100000000E-03 0.  1.
    9900012    2    1    2    0    0 -0.11559191342E+02  0.28681384517E+02 -0.77766657686E+01  0.59302058697E+02  0.50000209129E+02 0.  0.
         12    1    1    2    0    0  0.11559191342E+02 -0.28681384517E+02  0.77766657686E+01  0.31885941303E+02  0.00000000000E+00 0. -1.
         11    1    3    3    0    0 -0.18118766706E+02  0.32898191948E+02  0.86549905590E+01  0.38542049792E+02  0.51100000000E-03 0. -1.
        -11    1    3    3    0    0  0.43343050797E+01  0.21041887778E+01 -0.28059512465E+01  0.55755872870E+01  0.51100000000E-03 0.  1.
        -12    1    3    3    0    0  0.22252702838E+01 -0.63209962087E+01 -0.13625705081E+02  0.15184421618E+02  0.00000000000E+00 0.  1.
</event>
<event>
 7    1  0.1205909E-011  0.5930195E+02  0.7816164E-02  0.1266605E+00
        -11   -1    0    0    0    0  0.00000000000E+00  0.00000000000E+00  0.45593999997E+02  0.45594000000E+02  0.51100000000E-03 0.  1.
         11   -1    0    0    0    0 -0.00000000000E+00 -0.00000000000E+00 -0.45593999997E+02  0.45594000000E+02  0.51100000000E-03 0. -1.
    9900012    2    1    2    0    0 -0.25329874484E+02  0.14292390607E+02 -0.13070779188E+02  0.59301949144E+02  0.50000009331E+02 0.  0.
         12    1    1    2    0    0  0.25329874484E+02 -0.14292390607E+02  0.13070779188E+02  0.31886050856E+02  0.00000000000E+00 0. -1.
         11    1    3    3    0    0 -0.81890835824E+00  0.10423786089E+02 -0.32255490849E+01  0.10942124770E+02  0.51100000000E-03 0. -1.
        -11    1    3    3    0    0 -0.17096171589E+02  0.55230265319E+01  0.14353999010E+02  0.22996090818E+02  0.51100000000E-03 0.  1.
         12    1    3    3    0    0 -0.74147945367E+01 -0.16544220141E+01 -0.24199229113E+02  0.25363733556E+02  0.00000000000E+00 0. -1.
</event>
<event>
 7    1  0.1205909E-011  0.5930197E+02  0.7816164E-02  0.1266605E+00
        -11   -1    0    0    0    0  0.00000000000E+00  0.00000000000E+00  0.45593999997E+02  0.45594000000E+02  0.51100000000E-03 0.  1.
         11   -1    0    0    0    0 -0.00000000000E+00 -0.00000000000E+00 -0.45593999997E+02  0.45594000000E+02  0.51100000000E-03 0. -1.
    9900012    2    1    2    0    0  0.46310522038E+01 -0.23572814155E+02  0.20966512627E+02  0.59301970717E+02  0.50000048675E+02 0.  0.
         12    1    1    2    0    0 -0.46310522038E+01  0.23572814155E+02 -0.20966512627E+02  0.31886029283E+02  0.00000000000E+00 0. -1.
         11    1    3    3    0    0 -0.97140920643E+01 -0.54090911186E+01  0.24530036616E+01  0.11385915799E+02  0.51100000000E-03 0. -1.
        -11    1    3    3    0    0 -0.11115941824E+02 -0.14765035815E+02  0.69307244009E+01  0.19738424107E+02  0.51100000000E-03 0.  1.
         12    1    3    3    0    0  0.25461086092E+02 -0.33986872219E+01  0.11582784564E+02  0.28177630810E+02  0.00000000000E+00 0. -1.
</event>
<event>
 7    1  0.1205909E-011  0.5930225E+02  0.7816164E-02  0.1266604E+00
        -11   -1    0    0    0    0  0.00000000000E+00  0.00000000000E+00  0.45593999997E+02  0.45594000000E+02  0.51100000000E-03 0.  1.
         11   -1    0    0    0    0 -0.00000000000E+00 -0.00000000000E+00 -0.45593999997E+02  0.45594000000E+02  0.51100000000E-03 0. -1.
    9900012    2    1    2    0    0 -0.21295076849E+02 -0.54657005063E+01  0.23094300717E+02  0.59302252312E+02  0.50000562233E+02 0.  0.
         12    1    1    2    0    0  0.21295076849E+02  0.54657005063E+01 -0.23094300717E+02  0.31885747688E+02  0.00000000000E+00 0. -1.
         11    1    3    3    0    0 -0.56649797389E+01 -0.13906733881E+02  0.90997776179E+01  0.17558336927E+02  0.51100000000E-03 0. -1.
        -11    1    3    3    0    0  0.10292841082E+02  0.89580380415E+00 -0.17662254010E+01  0.10481631287E+02  0.51100000000E-03 0.  1.
        -12    1    3    3    0    0 -0.25922938192E+02  0.75452295702E+01  0.15760748500E+02  0.31262284099E+02  0.00000000000E+00 0.  1.
</event>
<event>
 7    1  0.1205909E-011  0.5930189E+02  0.7816164E-02  0.1266605E+00
        -11   -1    0    0    0    0  0.00000000000E+00  0.00000000000E+00  0.45593999997E+02  0.45594000000E+02  0.51100000000E-03 0.  1.
         11   -1    0    0    0    0 -0.00000000000E+00 -0.00000000000E+00 -0.45593999997E+02  0.45594000000E+02  0.51100000000E-03 0. -1.
    9900012    2    1    2    0    0 -0.24047979452E+02 -0.15121748846E+02  0.14482795100E+02  0.59301890833E+02  0.49999902985E+02 0.  0.
         12    1    1    2    0    0  0.24047979452E+02  0.15121748846E+02 -0.14482795100E+02  0.31886109167E+02  0.00000000000E+00 0. -1.
         11    1    3    3    0    0 -0.17526787748E+02  0.15070558236E+00  0.31997606383E+01  0.17817111700E+02  0.51100000000E-03 0. -1.
        -11    1    3    3    0    0 -0.14224397348E+02 -0.23648798010E+02  0.37818180390E+01  0.27855004491E+02  0.51100000000E-03 0.  1.
         12    1    3    3    0    0  0.77032056433E+01  0.83763435816E+01  0.75012164227E+01  0.13629774642E+02  0.00000000000E+00 0. -1.
</event>
<event>
 7    1  0.1205909E-011  0.5930195E+02  0.7816164E-02  0.1266605E+00
        -11   -1    0    0    0    0  0.00000000000E+00  0.00000000000E+00  0.45593999997E+02  0.45594000000E+02  0.51100000000E-03 0.  1.
         11   -1    0    0    0    0 -0.00000000000E+00 -0.00000000000E+00 -0.45593999997E+02  0.45594000000E+02  0.51100000000E-03 0. -1.
    9900012    2    1    2    0    0 -0.10385767341E+02  0.26874963178E+02  0.13659886046E+02  0.59301948255E+02  0.50000007710E+02 0.  0.
         12    1    1    2    0    0  0.10385767341E+02 -0.26874963178E+02 -0.13659886046E+02  0.31886051745E+02  0.00000000000E+00 0. -1.
         11    1    3    3    0    0 -0.16901222897E+02  0.14176057332E+02 -0.86592793690E+01  0.23697996885E+02  0.51100000000E-03 0. -1.
        -11    1    3    3    0    0 -0.17449635584E+01  0.58084746086E+01 -0.39363014266E+01  0.72303350047E+01  0.51100000000E-03 0.  1.
        -12    1    3    3    0    0  0.82604191149E+01  0.68904312371E+01  0.26255466841E+02  0.28373616365E+02  0.00000000000E+00 0.  1.
</event>
<event>
 7    1  0.1205909E-011  0.5930197E+02  0.7816164E-02  0.1266605E+00
        -11   -1    0    0    0    0  0.00000000000E+00  0.00000000000E+00  0.45593999997E+02  0.45594000000E+02  0.51100000000E-03 0.  1.
         11   -1    0    0    0    0 -0.00000000000E+00 -0.00000000000E+00 -0.45593999997E+02  0.45594000000E+02  0.51100000000E-03 0. -1.
    9900012    2    1    2    0    0  0.18461931927E+02 -0.18470257608E+02  0.18295503494E+02  0.59301971795E+02  0.50000050642E+02 0.  0.
         12    1    1    2    0    0 -0.18461931927E+02  0.18470257608E+02 -0.18295503494E+02  0.31886028205E+02  0.00000000000E+00 0. -1.
         11    1    3    3    0    0  0.10147473847E+02 -0.51903701947E+01  0.16961969627E+02  0.20435742759E+02  0.51100000000E-03 0. -1.
        -11    1    3    3    0    0  0.34950424551E+01  0.36897396691E+01  0.15455216105E+02  0.16269394756E+02  0.51100000000E-03 0.  1.
         12    1    3    3    0    0  0.48194156240E+01 -0.16969627082E+02 -0.14121682238E+02  0.22596834280E+02  0.00000000000E+00 0. -1.
</event>
<event>
 7    1  0.1205909E-011  0.5930196E+02  0.7816164E-02  0.1266605E+00
        -11   -1    0    0    0    0  0.00000000000E+00  0.00000000000E+00  0.45593999997E+02  0.45594000000E+02  0.51100000000E-03 0.  1.
         11   -1    0    0    0    0 -0.00000000000E+00 -0.00000000000E+00 -0.45593999997E+02  0.45594000000E+02  0.51100000000E-03 0. -1.
    9900012    2    1    2    0    0  0.15428676382E+01 -0.31667813664E+02  0.33894660377E+01  0.59301963200E+02  0.50000034966E+02 0.  0.
         12    1    1    2    0    0 -0.15428676382E+01  0.31667813664E+02 -0.33894660377E+01  0.31886036800E+02  0.00000000000E+00 0. -1.
         11    1    3    3    0    0  0.19370929800E+02 -0.29578102526E+01  0.12909658502E+02  0.23465737698E+02  0.51100000000E-03 0.  1.
        -11    1    3    3    0    0 -0.69163520592E-01  0.48792578187E-01 -0.96702131929E+00  0.97071870351E+00  0.51100000000E-03 0. -1.
        -12    1    3    3    0    0 -0.17758898641E+02 -0.28758795989E+02 -0.85531711455E+01  0.34865506799E+02  0.00000000000E+00 0.  1.
</event>
<event>
 7    1  0.1205909E-011  0.5930194E+02  0.7816164E-02  0.1266605E+00
        -11   -1    0    0    0    0  0.00000000000E+00  0.00000000000E+00  0.45593999997E+02  0.45594000000E+02  0.51100000000E-03 0.  1.
         11   -1    0    0    0    0 -0.00000000000E+00 -0.00000000000E+00 -0.45593999997E+02  0.45594000000E+02  0.51100000000E-03 0. -1.
    9900012    2    1    2    0    0  0.94686298843E+01  0.17185670519E+02  0.25134018466E+02  0.59301935531E+02  0.49999984504E+02 0.  0.
         12    1    1    2    0    0 -0.94686298843E+01 -0.17185670519E+02 -0.25134018466E+02  0.31886064469E+02  0.00000000000E+00 0. -1.
         11    1    3    3    0    0 -0.15424482498E+02  0.14355209731E+02  0.20151794685E+02  0.29156157772E+02  0.51100000000E-03 0. -1.
        -11    1    3    3    0    0  0.62457988542E+01 -0.16320337165E+01  0.84778790035E+01  0.10655888984E+02  0.51100000000E-03 0.  1.
        -12    1    3    3    0    0  0.18647313528E+02  0.44624945042E+01 -0.34956552227E+01  0.19489888775E+02  0.00000000000E+00 0.  1.
</event>
<event>
 7    1  0.1205909E-011  0.5930193E+02  0.7816164E-02  0.1266605E+00
        -11   -1    0    0    0    0  0.00000000000E+00  0.00000000000E+00  0.45593999997E+02  0.45594000000E+02  0.51100000000E-03 0.  1.
         11   -1    0    0    0    0 -0.00000000000E+00 -0.00000000000E+00 -0.45593999997E+02  0.45594000000E+02  0.51100000000E-03 0. -1.
    9900012    2    1    2    0    0  0.19021474511E+02 -0.18802485851E+02 -0.17360048922E+02  0.59301933054E+02  0.49999979986E+02 0.  0.
         12    1    1    2    0    0 -0.19021474511E+02  0.18802485851E+02  0.17360048922E+02  0.31886066946E+02  0.00000000000E+00 0. -1.
         11    1    3    3    0    0  0.37802457652E+01 -0.55072796404E+01 -0.23905373020E+02  0.24821104862E+02  0.51100000000E-03 0. -1.
        -11    1    3    3    0    0  0.15013553986E+01  0.21657483455E+01 -0.85029915513E+01  0.89019885144E+01  0.51100000000E-03 0.  1.
        -12    1    3    3    0    0  0.13739873347E+02 -0.15460954556E+02  0.15048315649E+02  0.25578839678E+02  0.00000000000E+00 0.  1.
</event>
<event>
 7    1  0.1205909E-011  0.5930190E+02  0.7816164E-02  0.1266605E+00
        -11   -1    0    0    0    0  0.00000000000E+00  0.00000000000E+00  0.45593999997E+02  0.45594000000E+02  0.51100000000E-03 0.  1.
         11   -1    0    0    0    0 -0.00000000000E+00 -0.00000000000E+00 -0.45593999997E+02  0.45594000000E+02  0.51100000000E-03 0. -1.
    9900012    2    1    2    0    0  0.24341698568E+01  0.30282526002E+02 -0.96833262263E+01  0.59301900039E+02  0.49999919774E+02 0.  0.
         12    1    1    2    0    0 -0.24341698568E+01 -0.30282526002E+02  0.96833262263E+01  0.31886099961E+02  0.00000000000E+00 0. -1.
         11    1    3    3    0    0  0.21820168121E+01  0.14191819946E+02 -0.17936906838E+02  0.22976108851E+02  0.51100000000E-03 0. -1.
        -11    1    3    3    0    0  0.12569311057E+02  0.24659591662E+01 -0.49216979438E+01  0.13721940314E+02  0.51100000000E-03 0.  1.
        -12    1    3    3    0    0 -0.12317158013E+02  0.13624746889E+02  0.13175278556E+02  0.22603850874E+02  0.00000000000E+00 0.  1.
</event>
<event>
 7    1  0.1205909E-011  0.5930207E+02  0.7816164E-02  0.1266604E+00
        -11   -1    0    0    0    0  0.00000000000E+00  0.00000000000E+00  0.45593999997E+02  0.45594000000E+02  0.51100000000E-03 0. -1.
         11   -1    0    0    0    0 -0.00000000000E+00 -0.00000000000E+00 -0.45593999997E+02  0.45594000000E+02  0.51100000000E-03 0.  1.
    9900012    2    1    2    0    0  0.19582435851E+02 -0.16574109165E+02 -0.18935150953E+02  0.59302065326E+02  0.50000221218E+02 0.  0.
         12    1    1    2    0    0 -0.19582435851E+02  0.16574109165E+02  0.18935150953E+02  0.31885934674E+02  0.00000000000E+00 0. -1.
         11    1    3    3    0    0  0.18499244224E+02 -0.10376950466E+02 -0.22952515613E+02  0.31252537674E+02  0.51100000000E-03 0. -1.
        -11    1    3    3    0    0  0.10303820433E+02 -0.73359209909E+00 -0.71562907021E+01  0.12566597382E+02  0.51100000000E-03 0.  1.
         12    1    3    3    0    0 -0.92206288065E+01 -0.54635666004E+01  0.11173655362E+02  0.15482930270E+02  0.00000000000E+00 0. -1.
</event>
<event>
 7    1  0.1205909E-011  0.5930194E+02  0.7816164E-02  0.1266605E+00
        -11   -1    0    0    0    0  0.00000000000E+00  0.00000000000E+00  0.45593999997E+02  0.45594000000E+02  0.51100000000E-03 0.  1.
         11   -1    0    0    0    0 -0.00000000000E+00 -0.00000000000E+00 -0.45593999997E+02  0.45594000000E+02  0.51100000000E-03 0. -1.
    9900012    2    1    2    0    0 -0.22724054120E+01 -0.13520340642E+02  0.28788147313E+02  0.59301939360E+02  0.49999991487E+02 0.  0.
         12    1    1    2    0    0  0.22724054120E+01  0.13520340642E+02 -0.28788147313E+02  0.31886060640E+02  0.00000000000E+00 0. -1.
         11    1    3    3    0    0 -0.22108605426E+01  0.65226033832E+01 -0.81776386242E+01  0.10691399953E+02  0.51100000000E-03 0. -1.
        -11    1    3    3    0    0  0.23576070367E+00 -0.15683542136E+02  0.51692163486E+01  0.16515140779E+02  0.51100000000E-03 0.  1.
        -12    1    3    3    0    0 -0.29730557306E+00 -0.43594018890E+01  0.31796569589E+02  0.32095398627E+02  0.00000000000E+00 0.  1.
</event>
<event>
 7    1  0.1205909E-011  0.5930194E+02  0.7816164E-02  0.1266605E+00
        -11   -1    0    0    0    0  0.00000000000E+00  0.00000000000E+00  0.45593999997E+02  0.45594000000E+02  0.51100000000E-03 0.  1.
         11   -1    0    0    0    0 -0.00000000000E+00 -0.00000000000E+00 -0.45593999997E+02  0.45594000000E+02  0.51100000000E-03 0. -1.
    9900012    2    1    2    0    0 -0.22857952724E+02 -0.10459073242E+02  0.19617409053E+02  0.59301937939E+02  0.49999988896E+02 0.  0.
         12    1    1    2    0    0  0.22857952724E+02  0.10459073242E+02 -0.19617409053E+02  0.31886062061E+02  0.00000000000E+00 0. -1.
         11    1    3    3    0    0 -0.16901238028E+01  0.34605182913E+01 -0.57828201856E+01  0.69478568547E+01  0.51100000000E-03 0. -1.
        -11    1    3    3    0    0  0.16526505036E+01 -0.16860932762E+02 -0.14381218489E+01  0.17002661615E+02  0.51100000000E-03 0.  1.
         12    1    3    3    0    0 -0.22820479424E+02  0.29413412285E+01  0.26838351088E+02  0.35351419469E+02  0.00000000000E+00 0. -1.
</event>
<event>
 7    1  0.1205909E-011  0.5930197E+02  0.7816164E-02  0.1266605E+00
        -11   -1    0    0    0    0  0.00000000000E+00  0.00000000000E+00  0.45593999997E+02  0.45594000000E+02  0.51100000000E-03 0.  1.
         11   -1    0    0    0    0 -0.00000000000E+00 -0.00000000000E+00 -0.45593999997E+02  0.45594000000E+02  0.51100000000E-03 0. -1.
    9900012    2    1    2    0    0  0.13140364221E+02  0.29025203520E+02 -0.12599812045E+01  0.59301966006E+02  0.50000040083E+02 0.  0.
         12    1    1    2    0    0 -0.13140364221E+02 -0.29025203520E+02  0.12599812045E+01  0.31886033994E+02  0.00000000000E+00 0. -1.
         11    1    3    3    0    0  0.24686392037E+01 -0.11219267233E+01  0.11208955205E+01  0.29341619110E+01  0.51100000000E-03 0. -1.
        -11    1    3    3    0    0  0.11679669239E+02  0.14775182056E+02  0.21101005271E+02  0.28283795750E+02  0.51100000000E-03 0.  1.
        -12    1    3    3    0    0 -0.10079442216E+01  0.15371948187E+02 -0.23481881996E+02  0.28084008345E+02  0.00000000000E+00 0.  1.
</event>
<event>
 7    1  0.1205909E-011  0.5930194E+02  0.7816164E-02  0.1266605E+00
        -11   -1    0    0    0    0  0.00000000000E+00  0.00000000000E+00  0.45593999997E+02  0.45594000000E+02  0.51100000000E-03 0.  1.
         11   -1    0    0    0    0 -0.00000000000E+00 -0.00000000000E+00 -0.45593999997E+02  0.45594000000E+02  0.51100000000E-03 0. -1.
    9900012    2    1    2    0    0 -0.21247043090E+02  0.20789664112E+02  0.11535767096E+02  0.59301938838E+02  0.49999990535E+02 0.  0.
         12    1    1    2    0    0  0.21247043090E+02 -0.20789664112E+02 -0.11535767096E+02  0.31886061162E+02  0.00000000000E+00 0. -1.
         11    1    3    3    0    0 -0.16432705459E+02 -0.36995149069E+01  0.81423399094E+01  0.18708765825E+02  0.51100000000E-03 0. -1.
        -11    1    3    3    0    0  0.37392866797E+01  0.92917473627E+01  0.16137909470E+02  0.18993445087E+02  0.51100000000E-03 0.  1.
         12    1    3    3    0    0 -0.85536243107E+01  0.15197431656E+02 -0.12744482284E+02  0.21599727926E+02  0.00000000000E+00 0. -1.
</event>
<event>
 7    1  0.1205909E-011  0.5930181E+02  0.7816164E-02  0.1266605E+00
        -11   -1    0    0    0    0  0.00000000000E+00  0.00000000000E+00  0.45593999997E+02  0.45594000000E+02  0.51100000000E-03 0. -1.
         11   -1    0    0    0    0 -0.00000000000E+00 -0.00000000000E+00 -0.45593999997E+02  0.45594000000E+02  0.51100000000E-03 0.  1.
    9900012    2    1    2    0    0  0.15828248726E+02  0.94940519504E+01 -0.26001130203E+02  0.59301807816E+02  0.49999751581E+02 0.  0.
         12    1    1    2    0    0 -0.15828248726E+02 -0.94940519504E+01  0.26001130203E+02  0.31886192184E+02  0.00000000000E+00 0. -1.
         11    1    3    3    0    0  0.31993206593E+01  0.57837274056E+01  0.10849732260E+02  0.12704481326E+02  0.51100000000E-03 0. -1.
        -11    1    3    3    0    0 -0.74133422684E+01 -0.10693202660E+01 -0.13634979279E+02  0.15556791110E+02  0.51100000000E-03 0.  1.
         12    1    3    3    0    0  0.20042270335E+02  0.47796448108E+01 -0.23215883184E+02  0.31040535380E+02  0.00000000000E+00 0. -1.
</event>
<event>
 7    1  0.1205909E-011  0.5930193E+02  0.7816164E-02  0.1266605E+00
        -11   -1    0    0    0    0  0.00000000000E+00  0.00000000000E+00  0.45593999997E+02  0.45594000000E+02  0.51100000000E-03 0.  1.
         11   -1    0    0    0    0 -0.00000000000E+00 -0.00000000000E+00 -0.45593999997E+02  0.45594000000E+02  0.51100000000E-03 0. -1.
    9900012    2    1    2    0    0  0.14657094983E+02  0.75791332542E+01  0.27284572845E+02  0.59301927655E+02  0.49999970141E+02 0.  0.
         12    1    1    2    0    0 -0.14657094983E+02 -0.75791332542E+01 -0.27284572845E+02  0.31886072345E+02  0.00000000000E+00 0. -1.
         11    1    3    3    0    0 -0.40210208028E+01 -0.56414990008E+01  0.60031492785E+01  0.91669471905E+01  0.51100000000E-03 0. -1.
        -11    1    3    3    0    0  0.46911651249E+01 -0.13629008215E+02  0.11106601686E+02  0.18196524296E+02  0.51100000000E-03 0.  1.
        -12    1    3    3    0    0  0.13986950661E+02  0.26849640470E+02  0.10174821880E+02  0.31938456169E+02  0.00000000000E+00 0.  1.
</event>
<event>
 7    1  0.1205909E-011  0.5930195E+02  0.7816164E-02  0.1266605E+00
        -11   -1    0    0    0    0  0.00000000000E+00  0.00000000000E+00  0.45593999997E+02  0.45594000000E+02  0.51100000000E-03 0.  1.
         11   -1    0    0    0    0 -0.00000000000E+00 -0.00000000000E+00 -0.45593999997E+02  0.45594000000E+02  0.51100000000E-03 0. -1.
    9900012    2    1    2    0    0 -0.29061870923E+02 -0.13102994836E+02 -0.66303097336E+00  0.59301946225E+02  0.50000004008E+02 0.  0.
         12    1    1    2    0    0  0.29061870923E+02  0.13102994836E+02  0.66303097336E+00  0.31886053775E+02  0.00000000000E+00 0. -1.
         11    1    3    3    0    0 -0.64459502198E+01 -0.21217408060E+02 -0.50700210116E+01  0.22747171084E+02  0.51100000000E-03 0. -1.
        -11    1    3    3    0    0  0.31811562011E+01  0.70694325726E+01 -0.48301905096E+01  0.91338585655E+01  0.51100000000E-03 0.  1.
        -12    1    3    3    0    0 -0.25797076905E+02  0.10449806508E+01  0.92371805478E+01  0.27420916576E+02  0.00000000000E+00 0.  1.
</event>
<event>
 7    1  0.1205909E-011  0.5930192E+02  0.7816164E-02  0.1266605E+00
        -11   -1    0    0    0    0  0.00000000000E+00  0.00000000000E+00  0.45593999997E+02  0.45594000000E+02  0.51100000000E-03 0.  1.
         11   -1    0    0    0    0 -0.00000000000E+00 -0.00000000000E+00 -0.45593999997E+02  0.45594000000E+02  0.51100000000E-03 0. -1.
    9900012    2    1    2    0    0 -0.28610835149E+02 -0.13616016119E+02  0.35702298360E+01  0.59301916453E+02  0.49999949710E+02 0.  0.
         12    1    1    2    0    0  0.28610835149E+02  0.13616016119E+02 -0.35702298360E+01  0.31886083547E+02  0.00000000000E+00 0. -1.
         11    1    3    3    0    0 -0.38008962432E+01  0.39582550886E+01  0.43049610645E+01  0.69747606142E+01  0.51100000000E-03 0. -1.
        -11    1    3    3    0    0  0.85797854347E+01 -0.13711715898E+02  0.73340632952E+01  0.17759852355E+02  0.51100000000E-03 0.  1.
         12    1    3    3    0    0 -0.33389724341E+02 -0.38625553091E+01 -0.80687945238E+01  0.34567303484E+02  0.00000000000E+00 0. -1.
</event>
<event>
 7    1  0.1205909E-011  0.5930183E+02  0.7816164E-02  0.1266605E+00
        -11   -1    0    0    0    0  0.00000000000E+00  0.00000000000E+00  0.45593999997E+02  0.45594000000E+02  0.51100000000E-03 0. -1.
         11   -1    0    0    0    0 -0.00000000000E+00 -0.00000000000E+00 -0.45593999997E+02  0.45594000000E+02  0.51100000000E-03 0.  1.
    9900012    2    1    2    0    0 -0.20726848913E+00 -0.79491313991E+01 -0.30878733123E+02  0.59301830435E+02  0.49999792834E+02 0.  0.
         12    1    1    2    0    0  0.20726848913E+00  0.79491313991E+01  0.30878733123E+02  0.31886169565E+02  0.00000000000E+00 0. -1.
         11    1    3    3    0    0 -0.59475830861E+01  0.20613588384E+01 -0.36299821339E+01  0.72663412651E+01  0.51100000000E-03 0. -1.
        -11    1    3    3    0    0 -0.14389752136E+02 -0.60035124801E+00 -0.26069487446E+02  0.29783276584E+02  0.51100000000E-03 0.  1.
         12    1    3    3    0    0  0.20130066733E+02 -0.94101389895E+01 -0.11792635433E+01  0.22252212586E+02  0.00000000000E+00 0. -1.
</event>
<event>
 7    1  0.1205909E-011  0.5930199E+02  0.7816164E-02  0.1266605E+00
        -11   -1    0    0    0    0  0.00000000000E+00  0.00000000000E+00  0.45593999997E+02  0.45594000000E+02  0.51100000000E-03 0.  1.
         11   -1    0    0    0    0 -0.00000000000E+00 -0.00000000000E+00 -0.45593999997E+02  0.45594000000E+02  0.51100000000E-03 0. -1.
    9900012    2    1    2    0    0  0.19501106766E+02  0.14218018666E+02  0.20839208356E+02  0.59301987003E+02  0.50000078377E+02 0.  0.
         12    1    1    2    0    0 -0.19501106766E+02 -0.14218018666E+02 -0.20839208356E+02  0.31886012997E+02  0.00000000000E+00 0. -1.
         11    1    3    3    0    0  0.12469871825E+01  0.11338381102E+01 -0.25467883584E+01  0.30539641611E+01  0.51100000000E-03 0. -1.
        -11    1    3    3    0    0 -0.78169095282E+01  0.66578692722E+01 -0.93646834419E+01  0.13897071420E+02  0.51100000000E-03 0.  1.
        -12    1    3    3    0    0  0.26071029112E+02  0.64263112839E+01  0.32750680157E+02  0.42350951423E+02  0.00000000000E+00 0.  1.
</event>
<event>
 7    1  0.1205909E-011  0.5930192E+02  0.7816164E-02  0.1266605E+00
        -11   -1    0    0    0    0  0.00000000000E+00  0.00000000000E+00  0.45593999997E+02  0.45594000000E+02  0.51100000000E-03 0.  1.
         11   -1    0    0    0    0 -0.00000000000E+00 -0.00000000000E+00 -0.45593999997E+02  0.45594000000E+02  0.51100000000E-03 0. -1.
    9900012    2    1    2    0    0 -0.21384726516E+02 -0.11594533986E+02  0.20615100407E+02  0.59301919787E+02  0.49999955791E+02 0.  0.
         12    1    1    2    0    0  0.21384726516E+02  0.11594533986E+02 -0.20615100407E+02  0.31886080213E+02  0.00000000000E+00 0. -1.
         11    1    3    3    0    0 -0.15437280033E+02  0.27475766868E+01 -0.63499135285E+01  0.16916861250E+02  0.51100000000E-03 0. -1.
        -11    1    3    3    0    0 -0.12481432184E+02  0.12475269516E+00  0.22768922891E+02  0.25965853779E+02  0.51100000000E-03 0.  1.
        -12    1    3    3    0    0  0.65339857005E+01 -0.14466863368E+02  0.41960910443E+01  0.16419204758E+02  0.00000000000E+00 0.  1.
</event>
<event>
 7    1  0.1205909E-011  0.5930195E+02  0.7816164E-02  0.1266605E+00
        -11   -1    0    0    0    0  0.00000000000E+00  0.00000000000E+00  0.45593999997E+02  0.45594000000E+02  0.51100000000E-03 0.  1.
         11   -1    0    0    0    0 -0.00000000000E+00 -0.00000000000E+00 -0.45593999997E+02  0.45594000000E+02  0.51100000000E-03 0. -1.
    9900012    2    1    2    0    0 -0.11733513625E+02  0.11503482135E+01  0.29626360276E+02  0.59301954993E+02  0.50000019998E+02 0.  0.
         12    1    1    2    0    0  0.11733513625E+02 -0.11503482135E+01 -0.29626360276E+02  0.31886045007E+02  0.00000000000E+00 0. -1.
         11    1    3    3    0    0 -0.15421242185E+02 -0.12799491115E+01  0.84388105641E+01  0.17625734148E+02  0.51100000000E-03 0.  1.
        -11    1    3    3    0    0 -0.13500567422E+02 -0.38497865513E+01  0.18433229655E+02  0.23170458196E+02  0.51100000000E-03 0. -1.
         12    1    3    3    0    0  0.17188295982E+02  0.62800838763E+01  0.27543200566E+01  0.18505762649E+02  0.00000000000E+00 0. -1.
</event>
<event>
 7    1  0.1314089E-011  0.5930182E+02  0.7816164E-02  0.1266605E+00
        -11   -1    0    0    0    0  0.00000000000E+00  0.00000000000E+00  0.45593999997E+02  0.45594000000E+02  0.51100000000E-03 0. -1.
         11   -1    0    0    0    0 -0.00000000000E+00 -0.00000000000E+00 -0.45593999997E+02  0.45594000000E+02  0.51100000000E-03 0.  1.
    9900012    2    1    2    0    0  0.15520370125E+02  0.26645587208E+02 -0.81153550000E+01  0.59301824418E+02  0.49999781859E+02 0.  0.
         12    1    1    2    0    0 -0.15520370125E+02 -0.26645587208E+02  0.81153550000E+01  0.31886175582E+02  0.00000000000E+00 0. -1.
         11    1    3    3    0    0 -0.23355113099E+01  0.11074746863E+02  0.11522063965E+02  0.16151241111E+02  0.51100000000E-03 0. -1.
        -11    1    3    3    0    0 -0.56771580104E+01  0.56213257240E+01 -0.15264913434E+02  0.17229248631E+02  0.51100000000E-03 0.  1.
        -12    1    3    3    0    0  0.23533039445E+02  0.99495146211E+01 -0.43725055304E+01  0.25921334675E+02  0.00000000000E+00 0.  1.
</event>
<event>
 7    1  0.1205909E-011  0.5930194E+02  0.7816164E-02  0.1266605E+00
        -11   -1    0    0    0    0  0.00000000000E+00  0.00000000000E+00  0.45593999997E+02  0.45594000000E+02  0.51100000000E-03 0. -1.
         11   -1    0    0    0    0 -0.00000000000E+00 -0.00000000000E+00 -0.45593999997E+02  0.45594000000E+02  0.51100000000E-03 0.  1.
    9900012    2    1    2    0    0  0.49559516325E+01 -0.24545014081E+02 -0.19740867767E+02  0.59301936696E+02  0.49999986629E+02 0.  0.
         12    1    1    2    0    0 -0.49559516325E+01  0.24545014081E+02  0.19740867767E+02  0.31886063304E+02  0.00000000000E+00 0. -1.
         11    1    3    3    0    0  0.83629374372E+01 -0.21606847774E+02  0.11035933683E+02  0.25662938760E+02  0.51100000000E-03 0. -1.
        -11    1    3    3    0    0 -0.11927160223E+01  0.19688735845E+01  0.92461250826E-01  0.23038194472E+01  0.51100000000E-03 0.  1.
        -12    1    3    3    0    0 -0.22142697824E+01 -0.49070398918E+01 -0.30869262702E+02  0.31335178489E+02  0.00000000000E+00 0.  1.
</event>
<event>
 7    1  0.1205909E-011  0.5930190E+02  0.7816164E-02  0.1266605E+00
        -11   -1    0    0    0    0  0.00000000000E+00  0.00000000000E+00  0.45593999997E+02  0.45594000000E+02  0.51100000000E-03 0.  1.
         11   -1    0    0    0    0 -0.00000000000E+00 -0.00000000000E+00 -0.45593999997E+02  0.45594000000E+02  0.51100000000E-03 0. -1.
    9900012    2    1    2    0    0  0.23531508699E+02  0.90486777252E+01  0.19522107711E+02  0.59301903348E+02  0.49999925810E+02 0.  0.
         12    1    1    2    0    0 -0.23531508699E+02 -0.90486777252E+01 -0.19522107711E+02  0.31886096652E+02  0.00000000000E+00 0. -1.
         11    1    3    3    0    0  0.62714833490E+01 -0.12924544525E+02  0.69403481597E+01  0.15954428458E+02  0.51100000000E-03 0. -1.
        -11    1    3    3    0    0  0.71840057833E+01  0.16388767426E+02  0.22077250714E+02  0.28418420720E+02  0.51100000000E-03 0.  1.
         12    1    3    3    0    0  0.10076019567E+02  0.55844548242E+01 -0.94954911632E+01  0.14929054170E+02  0.00000000000E+00 0. -1.
</event>
<event>
 7    1  0.1205909E-011  0.5930198E+02  0.7816164E-02  0.1266605E+00
        -11   -1    0    0    0    0  0.00000000000E+00  0.00000000000E+00  0.45593999997E+02  0.45594000000E+02  0.51100000000E-03 0. -1.
         11   -1    0    0    0    0 -0.00000000000E+00 -0.00000000000E+00 -0.45593999997E+02  0.45594000000E+02  0.51100000000E-03 0.  1.
    9900012    2    1    2    0    0  0.15411832311E+02  0.23341001792E+02 -0.15309852474E+02  0.59301976062E+02  0.50000058422E+02 0.  0.
         12    1    1    2    0    0 -0.15411832311E+02 -0.23341001792E+02  0.15309852474E+02  0.31886023938E+02  0.00000000000E+00 0. -1.
         11    1    3    3    0    0  0.11986145736E+02  0.91574654652E+01 -0.68677232124E+01  0.16573849454E+02  0.51100000000E-03 0.  1.
        -11    1    3    3    0    0 -0.40746599674E+01  0.18483893872E+02  0.10686704404E+02  0.21736210291E+02  0.51100000000E-03 0. -1.
         12    1    3    3    0    0  0.75003465430E+01 -0.43003575450E+01 -0.19128833665E+02  0.20991916317E+02  0.00000000000E+00 0. -1.
</event>
<event>
 7    1  0.1205909E-011  0.5930194E+02  0.7816164E-02  0.1266605E+00
        -11   -1    0    0    0    0  0.00000000000E+00  0.00000000000E+00  0.45593999997E+02  0.45594000000E+02  0.51100000000E-03 0. -1.
         11   -1    0    0    0    0 -0.00000000000E+00 -0.00000000000E+00 -0.45593999997E+02  0.45594000000E+02  0.51100000000E-03 0.  1.
    9900012    2    1    2    0    0  0.30226869166E+01  0.31470665154E+02 -0.41450352723E+01  0.59301941623E+02  0.49999995615E+02 0.  0.
         12    1    1    2    0    0 -0.30226869166E+01 -0.31470665154E+02  0.41450352723E+01  0.31886058377E+02  0.00000000000E+00 0. -1.
         11    1    3    3    0    0  0.91411188434E+01  0.27259843947E+02  0.13987466430E+02  0.31973557249E+02  0.51100000000E-03 0. -1.
        -11    1    3    3    0    0  0.49877545947E+00  0.19925130507E+01  0.37959867371E+01  0.43160631118E+01  0.51100000000E-03 0.  1.
        -12    1    3    3    0    0 -0.66172073863E+01  0.22183081557E+01 -0.21928488439E+02  0.23012321263E+02  0.00000000000E+00 0.  1.
</event>
<event>
 7    1  0.1205909E-011  0.5930199E+02  0.7816164E-02  0.1266605E+00
        -11   -1    0    0    0    0  0.00000000000E+00  0.00000000000E+00  0.45593999997E+02  0.45594000000E+02  0.51100000000E-03 0.  1.
         11   -1    0    0    0    0 -0.00000000000E+00 -0.00000000000E+00 -0.45593999997E+02  0.45594000000E+02  0.51100000000E-03 0. -1.
    9900012    2    1    2    0    0  0.26014181738E+02 -0.10086812930E+02  0.15434907783E+02  0.59301987003E+02  0.50000078376E+02 0.  0.
         12    1    1    2    0    0 -0.26014181738E+02  0.10086812930E+02 -0.15434907783E+02  0.31886012997E+02  0.00000000000E+00 0. -1.
         11    1    3    3    0    0 -0.43685098291E+01 -0.49506791664E+01  0.38624305581E+01  0.76492792088E+01  0.51100000000E-03 0. -1.
        -11    1    3    3    0    0 -0.28861234962E+01  0.65615996287E+01  0.14592610722E+02  0.16258185215E+02  0.51100000000E-03 0.  1.
        -12    1    3    3    0    0  0.33268815063E+02 -0.11697733393E+02 -0.30201334972E+01  0.35394522579E+02  0.00000000000E+00 0.  1.
</event>
<event>
 7    1  0.1205909E-011  0.5930199E+02  0.7816164E-02  0.1266605E+00
        -11   -1    0    0    0    0  0.00000000000E+00  0.00000000000E+00  0.45593999997E+02  0.45594000000E+02  0.51100000000E-03 0. -1.
         11   -1    0    0    0    0 -0.00000000000E+00 -0.00000000000E+00 -0.45593999997E+02  0.45594000000E+02  0.51100000000E-03 0.  1.
    9900012    2    1    2    0    0 -0.26119575887E+02 -0.85518954838E+01 -0.16166330734E+02  0.59301993503E+02  0.50000090232E+02 0.  0.
         12    1    1    2    0    0  0.26119575887E+02  0.85518954838E+01  0.16166330734E+02  0.31886006497E+02  0.00000000000E+00 0. -1.
         11    1    3    3    0    0  0.25263453675E+00 -0.58417017458E+01  0.20288218914E+00  0.58506807244E+01  0.51100000000E-03 0. -1.
        -11    1    3    3    0    0  0.40939325346E+01 -0.14662717797E+02 -0.13927876910E+02  0.20633500243E+02  0.51100000000E-03 0.  1.
         12    1    3    3    0    0 -0.30466142958E+02  0.11952524059E+02 -0.24413360134E+01  0.32817812536E+02  0.00000000000E+00 0. -1.
</event>
<event>
 7    1  0.1205909E-011  0.5930194E+02  0.7816164E-02  0.1266605E+00
        -11   -1    0    0    0    0  0.00000000000E+00  0.00000000000E+00  0.45593999997E+02  0.45594000000E+02  0.51100000000E-03 0.  1.
         11   -1    0    0    0    0 -0.00000000000E+00 -0.00000000000E+00 -0.45593999997E+02  0.45594000000E+02  0.51100000000E-03 0. -1.
    9900012    2    1    2    0    0  0.26778825103E+02 -0.15557463970E+02 -0.75882039656E+01  0.59301937237E+02  0.49999987616E+02 0.  0.
         12    1    1    2    0    0 -0.26778825103E+02  0.15557463970E+02  0.75882039656E+01  0.31886062763E+02  0.00000000000E+00 0. -1.
         11    1    3    3    0    0  0.86360500000E+01 -0.50324818619E+01  0.24884432237E+01  0.10300465195E+02  0.51100000000E-03 0. -1.
        -11    1    3    3    0    0  0.72914368856E+00 -0.17692710714E+02  0.10914725214E+02  0.20801319422E+02  0.51100000000E-03 0.  1.
        -12    1    3    3    0    0  0.17413631415E+02  0.71677286063E+01 -0.20991372403E+02  0.28200152620E+02  0.00000000000E+00 0.  1.
</event>
<event>
 7    1  0.1205909E-011  0.5930197E+02  0.7816164E-02  0.1266605E+00
        -11   -1    0    0    0    0  0.00000000000E+00  0.00000000000E+00  0.45593999997E+02  0.45594000000E+02  0.51100000000E-03 0.  1.
         11   -1    0    0    0    0 -0.00000000000E+00 -0.00000000000E+00 -0.45593999997E+02  0.45594000000E+02  0.51100000000E-03 0. -1.
    9900012    2    1    2    0    0 -0.20469504485E+02  0.24448278613E+02 -0.12366034821E-01  0.59301967103E+02  0.50000042084E+02 0.  0.
         12    1    1    2    0    0  0.20469504485E+02 -0.24448278613E+02  0.12366034821E-01  0.31886032897E+02  0.00000000000E+00 0. -1.
         11    1    3    3    0    0 -0.14959252651E+02  0.10584522501E+02 -0.93843961858E+01  0.20588303682E+02  0.51100000000E-03 0. -1.
        -11    1    3    3    0    0  0.48706699348E+01  0.17770954324E+02 -0.63350839403E+01  0.19484956556E+02  0.51100000000E-03 0.  1.
         12    1    3    3    0    0 -0.10380921768E+02 -0.39071982120E+01  0.15707114091E+02  0.19228706865E+02  0.00000000000E+00 0. -1.
</event>
<event>
 7    1  0.1295787E-011  0.5930201E+02  0.7816164E-02  0.1266605E+00
        -11   -1    0    0    0    0  0.00000000000E+00  0.00000000000E+00  0.45593999997E+02  0.45594000000E+02  0.51100000000E-03 0. -1.
         11   -1    0    0    0    0 -0.00000000000E+00 -0.00000000000E+00 -0.45593999997E+02  0.45594000000E+02  0.51100000000E-03 0.  1.
    9900012    2    1    2    0    0  0.83933917763E+01 -0.27640996966E+02 -0.13499716363E+02  0.59302014354E+02  0.50000128257E+02 0.  0.
         12    1    1    2    0    0 -0.83933917763E+01  0.27640996966E+02  0.13499716363E+02  0.31885985646E+02  0.00000000000E+00 0. -1.
         11    1    3    3    0    0 -0.80434912333E+01  0.77347963693E+01 -0.17318026025E+01  0.11292651000E+02  0.51100000000E-03 0. -1.
        -11    1    3    3    0    0  0.16227523038E+02 -0.63872342694E+01 -0.60692638073E+01  0.18465243810E+02  0.51100000000E-03 0.  1.
        -12    1    3    3    0    0  0.20935997190E+00 -0.28988559066E+02 -0.56986499529E+01  0.29544119543E+02  0.00000000000E+00 0.  1.
</event>
<event>
 7    1  0.1205909E-011  0.5930195E+02  0.7816164E-02  0.1266605E+00
        -11   -1    0    0    0    0  0.00000000000E+00  0.00000000000E+00  0.45593999997E+02  0.45594000000E+02  0.51100000000E-03 0. -1.
         11   -1    0    0    0    0 -0.00000000000E+00 -0.00000000000E+00 -0.45593999997E+02  0.45594000000E+02  0.51100000000E-03 0.  1.
    9900012    2    1    2    0    0 -0.28488781464E+02 -0.14275023623E+02  0.11547781072E+01  0.59301945349E+02  0.50000002409E+02 0.  0.
         12    1    1    2    0    0  0.28488781464E+02  0.14275023623E+02 -0.11547781072E+01  0.31886054651E+02  0.00000000000E+00 0. -1.
         11    1    3    3    0    0 -0.12009049215E+01  0.51147653611E+01  0.53461429842E+01  0.74956148779E+01  0.51100000000E-03 0. -1.
        -11    1    3    3    0    0 -0.66195733970E+01  0.80858958367E+01  0.10136788925E+02  0.14558672791E+02  0.51100000000E-03 0.  1.
         12    1    3    3    0    0 -0.20668303146E+02 -0.27475684821E+02 -0.14328153802E+02  0.37247657680E+02  0.00000000000E+00 0. -1.
</event>
<event>
 7    1  0.1205909E-011  0.5930195E+02  0.7816164E-02  0.1266605E+00
        -11   -1    0    0    0    0  0.00000000000E+00  0.00000000000E+00  0.45593999997E+02  0.45594000000E+02  0.51100000000E-03 0.  1.
         11   -1    0    0    0    0 -0.00000000000E+00 -0.00000000000E+00 -0.45593999997E+02  0.45594000000E+02  0.51100000000E-03 0. -1.
    9900012    2    1    2    0    0 -0.21186623367E+02 -0.21788395472E+02  0.96495015475E+01  0.59301951843E+02  0.50000014253E+02 0.  0.
         12    1    1    2    0    0  0.21186623367E+02  0.21788395472E+02 -0.96495015475E+01  0.31886048157E+02  0.00000000000E+00 0. -1.
         11    1    3    3    0    0 -0.39436630476E+01 -0.79187723260E+01  0.13946503485E+02  0.16515580314E+02  0.51100000000E-03 0. -1.
        -11    1    3    3    0    0 -0.13594753445E+02 -0.16678553685E+02  0.12829539913E+02  0.25051717883E+02  0.51100000000E-03 0.  1.
         12    1    3    3    0    0 -0.36482068746E+01  0.28089305382E+01 -0.17126541851E+02  0.17734653646E+02  0.00000000000E+00 0. -1.
</event>
<event>
 7    1  0.1205909E-011  0.5930197E+02  0.7816164E-02  0.1266605E+00
        -11   -1    0    0    0    0  0.00000000000E+00  0.00000000000E+00  0.45593999997E+02  0.45594000000E+02  0.51100000000E-03 0.  1.
         11   -1    0    0    0    0 -0.00000000000E+00 -0.00000000000E+00 -0.45593999997E+02  0.45594000000E+02  0.51100000000E-03 0. -1.
    9900012    2    1    2    0    0  0.24214467844E+01 -0.30963707592E+02 -0.72183469193E+01  0.59301966622E+02  0.50000041206E+02 0.  0.
         12    1    1    2    0    0 -0.24214467844E+01  0.30963707592E+02  0.72183469193E+01  0.31886033378E+02  0.00000000000E+00 0. -1.
         11    1    3    3    0    0  0.39403405465E-01 -0.27014004478E+02  0.41354639941E+01  0.27328740426E+02  0.51100000000E-03 0. -1.
        -11    1    3    3    0    0 -0.11506428824E+02  0.17852992689E+01  0.20672016912E+01  0.11826179470E+02  0.51100000000E-03 0.  1.
         12    1    3    3    0    0  0.13888472203E+02 -0.57350023824E+01 -0.13421012605E+02  0.20147046726E+02  0.00000000000E+00 0. -1.
</event>
<event>
 7    1  0.1205909E-011  0.5930194E+02  0.7816164E-02  0.1266605E+00
        -11   -1    0    0    0    0  0.00000000000E+00  0.00000000000E+00  0.45593999997E+02  0.45594000000E+02  0.51100000000E-03 0. -1.
         11   -1    0    0    0    0 -0.00000000000E+00 -0.00000000000E+00 -0.45593999997E+02  0.45594000000E+02  0.51100000000E-03 0.  1.
    9900012    2    1    2    0    0 -0.26429251705E+02 -0.46896871795E+00 -0.17832435578E+02  0.59301936650E+02  0.49999986545E+02 0.  0.
         12    1    1    2    0    0  0.26429251705E+02  0.46896871795E+00  0.17832435578E+02  0.31886063350E+02  0.00000000000E+00 0. -1.
         11    1    3    3    0    0 -0.17041026351E+02 -0.60962147871E+01 -0.47231755096E+01  0.18704780164E+02  0.51100000000E-03 0. -1.
        -11    1    3    3    0    0 -0.18472363883E+02 -0.92036696343E+01 -0.99854961947E+01  0.22926968763E+02  0.51100000000E-03 0.  1.
         12    1    3    3    0    0  0.90841385293E+01  0.14830915703E+02 -0.31237638733E+01  0.17670187723E+02  0.00000000000E+00 0. -1.
</event>
<event>
 7    1  0.1205909E-011  0.5930194E+02  0.7816164E-02  0.1266605E+00
        -11   -1    0    0    0    0  0.00000000000E+00  0.00000000000E+00  0.45593999997E+02  0.45594000000E+02  0.51100000000E-03 0.  1.
         11   -1    0    0    0    0 -0.00000000000E+00 -0.00000000000E+00 -0.45593999997E+02  0.45594000000E+02  0.51100000000E-03 0. -1.
    9900012    2    1    2    0    0  0.11760475047E+02 -0.29536733334E+02  0.24481933735E+01  0.59301936584E+02  0.49999986424E+02 0.  0.
         12    1    1    2    0    0 -0.11760475047E+02  0.29536733334E+02 -0.24481933735E+01  0.31886063416E+02  0.00000000000E+00 0. -1.
         11    1    3    3    0    0 -0.19989383765E+01 -0.26132717732E+01 -0.40408453852E+01  0.52108901045E+01  0.51100000000E-03 0. -1.
        -11    1    3    3    0    0 -0.10605391935E+02  0.20861580431E+01 -0.80875483525E+01  0.13499438214E+02  0.51100000000E-03 0.  1.
        -12    1    3    3    0    0  0.24364805359E+02 -0.29009619604E+02  0.14576587111E+02  0.40591608265E+02  0.00000000000E+00 0.  1.
</event>
<event>
 7    1  0.1205909E-011  0.5930196E+02  0.7816164E-02  0.1266605E+00
        -11   -1    0    0    0    0  0.00000000000E+00  0.00000000000E+00  0.45593999997E+02  0.45594000000E+02  0.51100000000E-03 0.  1.
         11   -1    0    0    0    0 -0.00000000000E+00 -0.00000000000E+00 -0.45593999997E+02  0.45594000000E+02  0.51100000000E-03 0. -1.
    9900012    2    1    2    0    0 -0.15460543827E+02 -0.72853788714E+01  0.26918663046E+02  0.59301959466E+02  0.50000028156E+02 0.  0.
         12    1    1    2    0    0  0.15460543827E+02  0.72853788714E+01 -0.26918663046E+02  0.31886040534E+02  0.00000000000E+00 0. -1.
         11    1    3    3    0    0 -0.19318999770E+02  0.81849848055E+01 -0.82887816633E+00  0.20997732441E+02  0.51100000000E-03 0. -1.
        -11    1    3    3    0    0  0.32352951486E+01  0.34377243010E+01 -0.40706372335E-03  0.47207079443E+01  0.51100000000E-03 0.  1.
        -12    1    3    3    0    0  0.62316079429E+00 -0.18908087978E+02  0.27747948276E+02  0.33583519081E+02  0.00000000000E+00 0.  1.
</event>
<event>
 7    1  0.1205909E-011  0.5930196E+02  0.7816164E-02  0.1266605E+00
        -11   -1    0    0    0    0  0.00000000000E+00  0.00000000000E+00  0.45593999997E+02  0.45594000000E+02  0.51100000000E-03 0. -1.
         11   -1    0    0    0    0 -0.00000000000E+00 -0.00000000000E+00 -0.45593999997E+02  0.45594000000E+02  0.51100000000E-03 0.  1.
    9900012    2    1    2    0    0 -0.19802338203E+01  0.19983319337E+02 -0.24768234326E+02  0.59301955884E+02  0.50000021624E+02 0.  0.
         12    1    1    2    0    0  0.19802338203E+01 -0.19983319337E+02  0.24768234326E+02  0.31886044116E+02  0.00000000000E+00 0. -1.
         11    1    3    3    0    0 -0.12046315495E+01  0.32995927752E+01  0.76516173064E+01  0.84193644248E+01  0.51100000000E-03 0. -1.
        -11    1    3    3    0    0  0.53644554599E+01  0.76576473222E-01  0.63189260757E+01  0.82892745973E+01  0.51100000000E-03 0.  1.
        -12    1    3    3    0    0 -0.61400577306E+01  0.16607150088E+02 -0.38738777708E+02  0.42593316862E+02  0.00000000000E+00 0.  1.
</event>
<event>
 7    1  0.1205909E-011  0.5930195E+02  0.7816164E-02  0.1266605E+00
        -11   -1    0    0    0    0  0.00000000000E+00  0.00000000000E+00  0.45593999997E+02  0.45594000000E+02  0.51100000000E-03 0. -1.
         11   -1    0    0    0    0 -0.00000000000E+00 -0.00000000000E+00 -0.45593999997E+02  0.45594000000E+02  0.51100000000E-03 0.  1.
    9900012    2    1    2    0    0  0.43613009316E+01  0.46643537795E+01 -0.31240083280E+02  0.59301953752E+02  0.50000017735E+02 0.  0.
         12    1    1    2    0    0 -0.43613009316E+01 -0.46643537795E+01  0.31240083280E+02  0.31886046248E+02  0.00000000000E+00 0. -1.
         11    1    3    3    0    0 -0.10022170858E+02 -0.53228537272E+01 -0.19169775989E+02  0.22276826350E+02  0.51100000000E-03 0. -1.
        -11    1    3    3    0    0 -0.28809976486E+01 -0.81800241509E+01 -0.76740720659E+01  0.11580342175E+02  0.51100000000E-03 0.  1.
         12    1    3    3    0    0  0.17264469438E+02  0.18167231658E+02 -0.43962352254E+01  0.25444785227E+02  0.00000000000E+00 0. -1.
</event>
<event>
 7    1  0.1205909E-011  0.5930163E+02  0.7816164E-02  0.1266606E+00
        -11   -1    0    0    0    0  0.00000000000E+00  0.00000000000E+00  0.45593999997E+02  0.45594000000E+02  0.51100000000E-03 0. -1.
         11   -1    0    0    0    0 -0.00000000000E+00 -0.00000000000E+00 -0.45593999997E+02  0.45594000000E+02  0.51100000000E-03 0.  1.
    9900012    2    1    2    0    0  0.12111863462E+02 -0.15335367604E+02 -0.25196621816E+02  0.59301631642E+02  0.49999430281E+02 0.  0.
         12    1    1    2    0    0 -0.12111863462E+02  0.15335367604E+02  0.25196621816E+02  0.31886368358E+02  0.00000000000E+00 0. -1.
         11    1    3    3    0    0 -0.23969207369E+01  0.12723529277E+02 -0.86585494829E+01  0.15575747356E+02  0.51100000000E-03 0. -1.
        -11    1    3    3    0    0 -0.27371950179E+01  0.35358524782E+01 -0.21510179998E+01  0.49619923428E+01  0.51100000000E-03 0.  1.
        -12    1    3    3    0    0  0.17245979217E+02 -0.31594749359E+02 -0.14387054334E+02  0.38763891944E+02  0.00000000000E+00 0.  1.
</event>
<event>
 7    1  0.1205909E-011  0.5930191E+02  0.7816164E-02  0.1266605E+00
        -11   -1    0    0    0    0  0.00000000000E+00  0.00000000000E+00  0.45593999997E+02  0.45594000000E+02  0.51100000000E-03 0.  1.
         11   -1    0    0    0    0 -0.00000000000E+00 -0.00000000000E+00 -0.45593999997E+02  0.45594000000E+02  0.51100000000E-03 0. -1.
    9900012    2    1    2    0    0 -0.19131336986E+02 -0.97659296038E+01  0.23565684613E+02  0.59301906994E+02  0.49999932459E+02 0.  0.
         12    1    1    2    0    0  0.19131336986E+02  0.97659296038E+01 -0.23565684613E+02  0.31886093006E+02  0.00000000000E+00 0. -1.
         11    1    3    3    0    0  0.43260060535E+01  0.44235485452E+01  0.13301590801E+02  0.14670188417E+02  0.51100000000E-03 0. -1.
        -11    1    3    3    0    0 -0.20276381885E+02 -0.14838556520E+02  0.21417448528E+02  0.33015474003E+02  0.51100000000E-03 0.  1.
        -12    1    3    3    0    0 -0.31809611552E+01  0.64907837105E+00 -0.11153354715E+02  0.11616244574E+02  0.00000000000E+00 0.  1.
</event>
<event>
 7    1  0.1205909E-011  0.5930194E+02  0.7816164E-02  0.1266605E+00
        -11   -1    0    0    0    0  0.00000000000E+00  0.00000000000E+00  0.45593999997E+02  0.45594000000E+02  0.51100000000E-03 0.  1.
         11   -1    0    0    0    0 -0.00000000000E+00 -0.00000000000E+00 -0.45593999997E+02  0.45594000000E+02  0.51100000000E-03 0. -1.
    9900012    2    1    2    0    0 -0.20397141875E+01 -0.29593071496E+02  0.11696591745E+02  0.59301943910E+02  0.49999999785E+02 0.  0.
         12    1    1    2    0    0  0.20397141875E+01  0.29593071496E+02 -0.11696591745E+02  0.31886056090E+02  0.00000000000E+00 0. -1.
         11    1    3    3    0    0 -0.89608237498E+01 -0.10485313165E+02 -0.10617148007E+02  0.17405803242E+02  0.51100000000E-03 0. -1.
        -11    1    3    3    0    0 -0.44349051128E+01 -0.22832561924E+02  0.12340850015E+02  0.26330416759E+02  0.51100000000E-03 0.  1.
        -12    1    3    3    0    0  0.11356014675E+02  0.37248035931E+01  0.99728897362E+01  0.15565723909E+02  0.00000000000E+00 0.  1.
</event>
<event>
 7    1  0.1205909E-011  0.5930194E+02  0.7816164E-02  0.1266605E+00
        -11   -1    0    0    0    0  0.00000000000E+00  0.00000000000E+00  0.45593999997E+02  0.45594000000E+02  0.51100000000E-03 0.  1.
         11   -1    0    0    0    0 -0.00000000000E+00 -0.00000000000E+00 -0.45593999997E+02  0.45594000000E+02  0.51100000000E-03 0. -1.
    9900012    2    1    2    0    0 -0.79649782607E+01 -0.99666117945E+01  0.29222363405E+02  0.59301941097E+02  0.49999994656E+02 0.  0.
         12    1    1    2    0    0  0.79649782607E+01  0.99666117945E+01 -0.29222363405E+02  0.31886058903E+02  0.00000000000E+00 0. -1.
         11    1    3    3    0    0 -0.20376157468E+02 -0.21931028543E+02  0.23823362214E+02  0.38258468259E+02  0.51100000000E-03 0. -1.
        -11    1    3    3    0    0 -0.18933743997E+01  0.44282983503E+00  0.84271883985E+00  0.21192310361E+01  0.51100000000E-03 0.  1.
        -12    1    3    3    0    0  0.14304553607E+02  0.11521586914E+02  0.45562823518E+01  0.18924241802E+02  0.00000000000E+00 0.  1.
</event>
<event>
 7    1  0.1205909E-011  0.5930193E+02  0.7816164E-02  0.1266605E+00
        -11   -1    0    0    0    0  0.00000000000E+00  0.00000000000E+00  0.45593999997E+02  0.45594000000E+02  0.51100000000E-03 0.  1.
         11   -1    0    0    0    0 -0.00000000000E+00 -0.00000000000E+00 -0.45593999997E+02  0.45594000000E+02  0.51100000000E-03 0. -1.
    9900012    2    1    2    0    0  0.85366816285E+01 -0.21385328362E+02  0.22057070764E+02  0.59301928228E+02  0.49999971185E+02 0.  0.
         12    1    1    2    0    0 -0.85366816285E+01  0.21385328362E+02 -0.22057070764E+02  0.31886071772E+02  0.00000000000E+00 0. -1.
         11    1    3    3    0    0  0.11969964164E+02  0.35575757715E+01  0.12957162283E+02  0.17995122732E+02  0.51100000000E-03 0. -1.
        -11    1    3    3    0    0 -0.87324098826E+01 -0.12268332322E+02  0.19094519220E+02  0.24318051420E+02  0.51100000000E-03 0.  1.
         12    1    3    3    0    0  0.52991273472E+01 -0.12674571811E+02 -0.99946107392E+01  0.16988754076E+02  0.00000000000E+00 0. -1.
</event>
<event>
 7    1  0.1205909E-011  0.5930194E+02  0.7816164E-02  0.1266605E+00
        -11   -1    0    0    0    0  0.00000000000E+00  0.00000000000E+00  0.45593999997E+02  0.45594000000E+02  0.51100000000E-03 0.  1.
         11   -1    0    0    0    0 -0.00000000000E+00 -0.00000000000E+00 -0.45593999997E+02  0.45594000000E+02  0.51100000000E-03 0. -1.
    9900012    2    1    2    0    0  0.18401922014E+02 -0.13665587273E+01  0.26004282514E+02  0.59301938380E+02  0.49999989700E+02 0.  0.
         12    1    1    2    0    0 -0.18401922014E+02  0.13665587273E+01 -0.26004282514E+02  0.31886061620E+02  0.00000000000E+00 0. -1.
         11    1    3    3    0    0  0.13792669921E+02 -0.87427538973E+01  0.41443176566E+01  0.16847814647E+02  0.51100000000E-03 0. -1.
        -11    1    3    3    0    0  0.16322448947E+02  0.67878750804E+01  0.34996452772E-01  0.17677635949E+02  0.51100000000E-03 0.  1.
        -12    1    3    3    0    0 -0.11713196854E+02  0.58832008953E+00  0.21824968405E+02  0.24776487785E+02  0.00000000000E+00 0.  1.
</event>
<event>
 7    1  0.1205909E-011  0.5930193E+02  0.7816164E-02  0.1266605E+00
        -11   -1    0    0    0    0  0.00000000000E+00  0.00000000000E+00  0.45593999997E+02  0.45594000000E+02  0.51100000000E-03 0.  1.
         11   -1    0    0    0    0 -0.00000000000E+00 -0.00000000000E+00 -0.45593999997E+02  0.45594000000E+02  0.51100000000E-03 0. -1.
    9900012    2    1    2    0    0  0.72396476793E+00  0.24766997965E+02  0.20069701693E+02  0.59301933463E+02  0.49999980733E+02 0.  0.
         12    1    1    2    0    0 -0.72396476793E+00 -0.24766997965E+02 -0.20069701693E+02  0.31886066537E+02  0.00000000000E+00 0. -1.
         11    1    3    3    0    0 -0.93183570756E+00  0.10885284869E+02  0.23419802811E+02  0.25842695456E+02  0.51100000000E-03 0. -1.
        -11    1    3    3    0    0 -0.13841093129E+01  0.87447896413E+01  0.13183843322E+02  0.15880832140E+02  0.51100000000E-03 0.  1.
        -12    1    3    3    0    0  0.30399097884E+01  0.51369234541E+01 -0.16533944440E+02  0.17578405867E+02  0.00000000000E+00 0.  1.
</event>
<event>
 7    1  0.1205909E-011  0.5930197E+02  0.7816164E-02  0.1266605E+00
        -11   -1    0    0    0    0  0.00000000000E+00  0.00000000000E+00  0.45593999997E+02  0.45594000000E+02  0.51100000000E-03 0.  1.
         11   -1    0    0    0    0 -0.00000000000E+00 -0.00000000000E+00 -0.45593999997E+02  0.45594000000E+02  0.51100000000E-03 0. -1.
    9900012    2    1    2    0    0 -0.15450452160E+02 -0.88671379446E+01  0.26445729343E+02  0.59301965317E+02  0.50000038827E+02 0.  0.
         12    1    1    2    0    0  0.15450452160E+02  0.88671379446E+01 -0.26445729343E+02  0.31886034683E+02  0.00000000000E+00 0. -1.
         11    1    3    3    0    0  0.69082169404E+01 -0.11176407743E+01  0.96229586035E+01  0.11898483716E+02  0.51100000000E-03 0. -1.
        -11    1    3    3    0    0  0.95696712530E+01  0.37424251314E+01  0.25270619263E+01  0.10581606494E+02  0.51100000000E-03 0.  1.
        -12    1    3    3    0    0 -0.31928340354E+02 -0.11491922302E+02  0.14295708814E+02  0.36821875107E+02  0.00000000000E+00 0.  1.
</event>
<event>
 7    1  0.1205909E-011  0.5930194E+02  0.7816164E-02  0.1266605E+00
        -11   -1    0    0    0    0  0.00000000000E+00  0.00000000000E+00  0.45593999997E+02  0.45594000000E+02  0.51100000000E-03 0.  1.
         11   -1    0    0    0    0 -0.00000000000E+00 -0.00000000000E+00 -0.45593999997E+02  0.45594000000E+02  0.51100000000E-03 0. -1.
    9900012    2    1    2    0    0 -0.18878759811E+01 -0.59693290749E+00  0.31824523487E+02  0.59301941921E+02  0.49999996158E+02 0.  0.
         12    1    1    2    0    0  0.18878759811E+01  0.59693290749E+00 -0.31824523487E+02  0.31886058079E+02  0.00000000000E+00 0. -1.
         11    1    3    3    0    0 -0.13349641540E+02 -0.11141155473E+01  0.38235276892E+01  0.13931028209E+02  0.51100000000E-03 0. -1.
        -11    1    3    3    0    0  0.15911490275E+01 -0.36568940211E+01  0.33214572627E+02  0.33453138331E+02  0.51100000000E-03 0.  1.
         12    1    3    3    0    0  0.98706165316E+01  0.41740766609E+01 -0.52135768295E+01  0.11917775381E+02  0.00000000000E+00 0. -1.
</event>
<event>
 7    1  0.1205909E-011  0.5930193E+02  0.7816164E-02  0.1266605E+00
        -11   -1    0    0    0    0  0.00000000000E+00  0.00000000000E+00  0.45593999997E+02  0.45594000000E+02  0.51100000000E-03 0.  1.
         11   -1    0    0    0    0 -0.00000000000E+00 -0.00000000000E+00 -0.45593999997E+02  0.45594000000E+02  0.51100000000E-03 0. -1.
    9900012    2    1    2    0    0 -0.28363497214E+02 -0.62398686853E+01 -0.13164253959E+02  0.59301929096E+02  0.49999972768E+02 0.  0.
         12    1    1    2    0    0  0.28363497214E+02  0.62398686853E+01  0.13164253959E+02  0.31886070904E+02  0.00000000000E+00 0. -1.
         11    1    3    3    0    0  0.81552121120E+01  0.62272770172E+01  0.18955952168E+01  0.10434545756E+02  0.51100000000E-03 0. -1.
        -11    1    3    3    0    0 -0.11641127226E+01  0.21170549453E+01  0.50936975674E+01  0.56376267384E+01  0.51100000000E-03 0.  1.
         12    1    3    3    0    0 -0.35354596603E+02 -0.14584200648E+02 -0.20153546743E+02  0.43229756602E+02  0.00000000000E+00 0. -1.
</event>
<event>
 7    1  0.1205909E-011  0.5930195E+02  0.7816164E-02  0.1266605E+00
        -11   -1    0    0    0    0  0.00000000000E+00  0.00000000000E+00  0.45593999997E+02  0.45594000000E+02  0.51100000000E-03 0. -1.
         11   -1    0    0    0    0 -0.00000000000E+00 -0.00000000000E+00 -0.45593999997E+02  0.45594000000E+02  0.51100000000E-03 0.  1.
    9900012    2    1    2    0    0 -0.80238187686E+01  0.11597134306E+02 -0.28597989776E+02  0.59301949586E+02  0.50000010138E+02 0.  0.
         12    1    1    2    0    0  0.80238187686E+01 -0.11597134306E+02  0.28597989776E+02  0.31886050414E+02  0.00000000000E+00 0. -1.
         11    1    3    3    0    0 -0.41403184538E+01  0.12807952952E+02 -0.54795733970E+01  0.14533121502E+02  0.51100000000E-03 0.  1.
        -11    1    3    3    0    0  0.12415878526E+02 -0.90300950354E+01 -0.21772457939E+02  0.26640881759E+02  0.51100000000E-03 0. -1.
         12    1    3    3    0    0 -0.16299378841E+02  0.78192763889E+01 -0.13459584401E+01  0.18127946325E+02  0.00000000000E+00 0. -1.
</event>
<event>
 7    1  0.1205909E-011  0.5930194E+02  0.7816164E-02  0.1266605E+00
        -11   -1    0    0    0    0  0.00000000000E+00  0.00000000000E+00  0.45593999997E+02  0.45594000000E+02  0.51100000000E-03 0. -1.
         11   -1    0    0    0    0 -0.00000000000E+00 -0.00000000000E+00 -0.45593999997E+02  0.45594000000E+02  0.51100000000E-03 0.  1.
    9900012    2    1    2    0    0 -0.21973859071E+02 -0.31732663871E+01 -0.22886699243E+02  0.59301935578E+02  0.49999984591E+02 0.  0.
         12    1    1    2    0    0  0.21973859071E+02  0.31732663871E+01  0.22886699243E+02  0.31886064422E+02  0.00000000000E+00 0. -1.
         11    1    3    3    0    0 -0.17575473905E+01  0.15799240882E+02  0.43398727118E+01  0.16478455045E+02  0.51100000000E-03 0.  1.
        -11    1    3    3    0    0 -0.13388744195E+02 -0.66119613454E+01 -0.36991603272E+01  0.15383767138E+02  0.51100000000E-03 0. -1.
        -12    1    3    3    0    0 -0.68275674849E+01 -0.12360545923E+02 -0.23527411628E+02  0.27439713395E+02  0.00000000000E+00 0.  1.
</event>
<event>
 7    1  0.1391450E-011  0.5930193E+02  0.7816164E-02  0.1266605E+00
        -11   -1    0    0    0    0  0.00000000000E+00  0.00000000000E+00  0.45593999997E+02  0.45594000000E+02  0.51100000000E-03 0. -1.
         11   -1    0    0    0    0 -0.00000000000E+00 -0.00000000000E+00 -0.45593999997E+02  0.45594000000E+02  0.51100000000E-03 0.  1.
    9900012    2    1    2    0    0  0.17797252603E+02  0.24500661744E+02 -0.99848351217E+01  0.59301928456E+02  0.49999971601E+02 0.  0.
         12    1    1    2    0    0 -0.17797252603E+02 -0.24500661744E+02  0.99848351217E+01  0.31886071544E+02  0.00000000000E+00 0. -1.
         11    1    3    3    0    0 -0.23435158013E+01  0.44094758543E+01  0.12990758675E+02  0.13917447856E+02  0.51100000000E-03 0. -1.
        -11    1    3    3    0    0 -0.66938320097E+01  0.39711313398E+01 -0.55263207985E+01  0.95455483300E+01  0.51100000000E-03 0.  1.
        -12    1    3    3    0    0  0.26834600414E+02  0.16120054550E+02 -0.17449272998E+02  0.35838932270E+02  0.00000000000E+00 0.  1.
</event>
<event>
 7    1  0.1205909E-011  0.5930195E+02  0.7816164E-02  0.1266605E+00
        -11   -1    0    0    0    0  0.00000000000E+00  0.00000000000E+00  0.45593999997E+02  0.45594000000E+02  0.51100000000E-03 0. -1.
         11   -1    0    0    0    0 -0.00000000000E+00 -0.00000000000E+00 -0.45593999997E+02  0.45594000000E+02  0.51100000000E-03 0.  1.
    9900012    2    1    2    0    0  0.41836671859E+01  0.28787956755E+02 -0.13056444957E+02  0.59301948501E+02  0.50000008159E+02 0.  0.
         12    1    1    2    0    0 -0.41836671859E+01 -0.28787956755E+02  0.13056444957E+02  0.31886051499E+02  0.00000000000E+00 0. -1.
         11    1    3    3    0    0  0.30387763283E+01  0.23850004969E+02 -0.44125111132E+01  0.24444368537E+02  0.51100000000E-03 0. -1.
        -11    1    3    3    0    0  0.13264720163E+02  0.45011800408E+01 -0.15527830496E+02  0.20912363399E+02  0.51100000000E-03 0.  1.
         12    1    3    3    0    0 -0.12119829305E+02  0.43677174549E+00  0.68838966524E+01  0.13945216566E+02  0.00000000000E+00 0. -1.
</event>
<event>
 7    1  0.1205909E-011  0.5930188E+02  0.7816164E-02  0.1266605E+00
        -11   -1    0    0    0    0  0.00000000000E+00  0.00000000000E+00  0.45593999997E+02  0.45594000000E+02  0.51100000000E-03 0.  1.
         11   -1    0    0    0    0 -0.00000000000E+00 -0.00000000000E+00 -0.45593999997E+02  0.45594000000E+02  0.51100000000E-03 0. -1.
    9900012    2    1    2    0    0  0.11447039709E+02 -0.26722000042E+02  0.13100561578E+02  0.59301878912E+02  0.49999881245E+02 0.  0.
         12    1    1    2    0    0 -0.11447039709E+02  0.26722000042E+02 -0.13100561578E+02  0.31886121088E+02  0.00000000000E+00 0. -1.
         11    1    3    3    0    0  0.34463579046E+01 -0.11693982783E+02  0.18014654278E+02  0.21752112200E+02  0.51100000000E-03 0. -1.
        -11    1    3    3    0    0  0.61575808009E+01  0.73394816647E+01  0.72570112213E+01  0.12018652360E+02  0.51100000000E-03 0.  1.
         12    1    3    3    0    0  0.18431010039E+01 -0.22367498924E+02 -0.12171103921E+02  0.25531114353E+02  0.00000000000E+00 0. -1.
</event>
<event>
 7    1  0.1205909E-011  0.5930194E+02  0.7816164E-02  0.1266605E+00
        -11   -1    0    0    0    0  0.00000000000E+00  0.00000000000E+00  0.45593999997E+02  0.45594000000E+02  0.51100000000E-03 0.  1.
         11   -1    0    0    0    0 -0.00000000000E+00 -0.00000000000E+00 -0.45593999997E+02  0.45594000000E+02  0.51100000000E-03 0. -1.
    9900012    2    1    2    0    0  0.29202739956E+02 -0.64607293467E+01  0.11053485705E+02  0.59301943630E+02  0.49999999274E+02 0.  0.
         12    1    1    2    0    0 -0.29202739956E+02  0.64607293467E+01 -0.11053485705E+02  0.31886056370E+02  0.00000000000E+00 0. -1.
         11    1    3    3    0    0  0.37926837477E+01  0.10180208014E+02  0.17360254104E+02  0.20479245787E+02  0.51100000000E-03 0. -1.
        -11    1    3    3    0    0  0.11111608119E+01 -0.12135873998E+02 -0.70867887754E+01  0.14097400166E+02  0.51100000000E-03 0.  1.
        -12    1    3    3    0    0  0.24298895396E+02 -0.45050633625E+01  0.78002037704E+00  0.24725297676E+02  0.00000000000E+00 0.  1.
</event>
<event>
 7    1  0.1205909E-011  0.5930196E+02  0.7816164E-02  0.1266605E+00
        -11   -1    0    0    0    0  0.00000000000E+00  0.00000000000E+00  0.45593999997E+02  0.45594000000E+02  0.51100000000E-03 0. -1.
         11   -1    0    0    0    0 -0.00000000000E+00 -0.00000000000E+00 -0.45593999997E+02  0.45594000000E+02  0.51100000000E-03 0.  1.
    9900012    2    1    2    0    0 -0.71197375115E+00  0.93347570440E+01 -0.30480730113E+02  0.59301960673E+02  0.50000030358E+02 0.  0.
         12    1    1    2    0    0  0.71197375115E+00 -0.93347570440E+01  0.30480730113E+02  0.31886039327E+02  0.00000000000E+00 0. -1.
         11    1    3    3    0    0 -0.14367036504E+01 -0.21177489612E+01 -0.10240228163E+01  0.27563746173E+01  0.51100000000E-03 0. -1.
        -11    1    3    3    0    0 -0.15916044934E+02  0.10102725488E+02  0.38937596280E+01  0.19249595137E+02  0.51100000000E-03 0.  1.
         12    1    3    3    0    0  0.16640774834E+02  0.13497805172E+01 -0.33350466925E+02  0.37295990919E+02  0.00000000000E+00 0. -1.
</event>
<event>
 7    1  0.1205909E-011  0.5930196E+02  0.7816164E-02  0.1266605E+00
        -11   -1    0    0    0    0  0.00000000000E+00  0.00000000000E+00  0.45593999997E+02  0.45594000000E+02  0.51100000000E-03 0. -1.
         11   -1    0    0    0    0 -0.00000000000E+00 -0.00000000000E+00 -0.45593999997E+02  0.45594000000E+02  0.51100000000E-03 0.  1.
    9900012    2    1    2    0    0 -0.19786659619E+01 -0.31824253055E+02  0.14590703409E+00  0.59301960886E+02  0.50000030745E+02 0.  0.
         12    1    1    2    0    0  0.19786659619E+01  0.31824253055E+02 -0.14590703409E+00  0.31886039114E+02  0.00000000000E+00 0. -1.
         11    1    3    3    0    0 -0.89968353249E+01  0.17513105361E-01 -0.86883708615E+01  0.12507243544E+02  0.51100000000E-03 0. -1.
        -11    1    3    3    0    0 -0.10915610135E+01 -0.27969069357E+01 -0.10534840343E+02  0.10954316737E+02  0.51100000000E-03 0.  1.
         12    1    3    3    0    0  0.81097303765E+01 -0.29044859225E+02  0.19369118239E+02  0.35840400605E+02  0.00000000000E+00 0. -1.
</event>
<event>
 7    1  0.1205909E-011  0.5930194E+02  0.7816164E-02  0.1266605E+00
        -11   -1    0    0    0    0  0.00000000000E+00  0.00000000000E+00  0.45593999997E+02  0.45594000000E+02  0.51100000000E-03 0.  1.
         11   -1    0    0    0    0 -0.00000000000E+00 -0.00000000000E+00 -0.45593999997E+02  0.45594000000E+02  0.51100000000E-03 0. -1.
    9900012    2    1    2    0    0 -0.10848990155E+02 -0.29970687355E+02  0.88219954744E+00  0.59301937779E+02  0.49999988604E+02 0.  0.
         12    1    1    2    0    0  0.10848990155E+02  0.29970687355E+02 -0.88219954744E+00  0.31886062221E+02  0.00000000000E+00 0. -1.
         11    1    3    3    0    0 -0.65143116161E+01 -0.72125332273E+01 -0.74403668392E+01  0.12239932612E+02  0.51100000000E-03 0. -1.
        -11    1    3    3    0    0 -0.10994217306E+02 -0.31736171425E+02  0.81476979882E+00  0.33596446850E+02  0.51100000000E-03 0.  1.
         12    1    3    3    0    0  0.66595387671E+01  0.89780172968E+01  0.75077965878E+01  0.13465558317E+02  0.00000000000E+00 0. -1.
</event>
<event>
 7    1  0.1205909E-011  0.5930196E+02  0.7816164E-02  0.1266605E+00
        -11   -1    0    0    0    0  0.00000000000E+00  0.00000000000E+00  0.45593999997E+02  0.45594000000E+02  0.51100000000E-03 0.  1.
         11   -1    0    0    0    0 -0.00000000000E+00 -0.00000000000E+00 -0.45593999997E+02  0.45594000000E+02  0.51100000000E-03 0. -1.
    9900012    2    1    2    0    0 -0.27600166668E+02  0.12529539199E+02  0.98975359215E+01  0.59301956502E+02  0.50000022750E+02 0.  0.
         12    1    1    2    0    0  0.27600166668E+02 -0.12529539199E+02 -0.98975359215E+01  0.31886043498E+02  0.00000000000E+00 0. -1.
         11    1    3    3    0    0 -0.52972714784E+01  0.12208876578E+02  0.13164163300E+02  0.18719320181E+02  0.51100000000E-03 0. -1.
        -11    1    3    3    0    0 -0.19265466377E+01  0.12304955796E+02 -0.10033774870E+02  0.15993753702E+02  0.51100000000E-03 0.  1.
         12    1    3    3    0    0 -0.20376348552E+02 -0.11984293175E+02  0.67671474916E+01  0.24588882618E+02  0.00000000000E+00 0. -1.
</event>
<event>
 7    1  0.1205909E-011  0.5930195E+02  0.7816164E-02  0.1266605E+00
        -11   -1    0    0    0    0  0.00000000000E+00  0.00000000000E+00  0.45593999997E+02  0.45594000000E+02  0.51100000000E-03 0.  1.
         11   -1    0    0    0    0 -0.00000000000E+00 -0.00000000000E+00 -0.45593999997E+02  0.45594000000E+02  0.51100000000E-03 0. -1.
    9900012    2    1    2    0    0 -0.21177973212E+02  0.51597369218E+01  0.23272103834E+02  0.59301948954E+02  0.50000008984E+02 0.  0.
         12    1    1    2    0    0  0.21177973212E+02 -0.51597369218E+01 -0.23272103834E+02  0.31886051046E+02  0.00000000000E+00 0. -1.
         11    1    3    3    0    0  0.14818024286E+01 -0.12773785218E+02  0.72431031275E+00  0.12879827364E+02  0.51100000000E-03 0. -1.
        -11    1    3    3    0    0 -0.16901136409E+02  0.62810906548E+01  0.27185875613E+02  0.32621654539E+02  0.51100000000E-03 0.  1.
        -12    1    3    3    0    0 -0.57586392322E+01  0.11652431485E+02 -0.46380820924E+01  0.13800467051E+02  0.00000000000E+00 0.  1.
</event>
<event>
 7    1  0.1205909E-011  0.5930195E+02  0.7816164E-02  0.1266605E+00
        -11   -1    0    0    0    0  0.00000000000E+00  0.00000000000E+00  0.45593999997E+02  0.45594000000E+02  0.51100000000E-03 0.  1.
         11   -1    0    0    0    0 -0.00000000000E+00 -0.00000000000E+00 -0.45593999997E+02  0.45594000000E+02  0.51100000000E-03 0. -1.
    9900012    2    1    2    0    0 -0.30920954065E+02  0.55664300610E+01  0.54433115874E+01  0.59301949995E+02  0.50000010882E+02 0.  0.
         12    1    1    2    0    0  0.30920954065E+02 -0.55664300610E+01 -0.54433115874E+01  0.31886050005E+02  0.00000000000E+00 0. -1.
         11    1    3    3    0    0  0.10746426192E+02 -0.58643112680E+01  0.95790098265E+01  0.15544556992E+02  0.51100000000E-03 0. -1.
        -11    1    3    3    0    0 -0.13939004126E+02  0.53988102891E+01  0.73258133090E+00  0.14965950162E+02  0.51100000000E-03 0.  1.
        -12    1    3    3    0    0 -0.27728376131E+02  0.60319310399E+01 -0.48682795701E+01  0.28791442841E+02  0.00000000000E+00 0.  1.
</event>
<event>
 7    1  0.1205909E-011  0.5930195E+02  0.7816164E-02  0.1266605E+00
        -11   -1    0    0    0    0  0.00000000000E+00  0.00000000000E+00  0.45593999997E+02  0.45594000000E+02  0.51100000000E-03 0.  1.
         11   -1    0    0    0    0 -0.00000000000E+00 -0.00000000000E+00 -0.45593999997E+02  0.45594000000E+02  0.51100000000E-03 0. -1.
    9900012    2    1    2    0    0  0.19794379926E+02 -0.24959985748E+02 -0.13791583333E+01  0.59301945950E+02  0.50000003506E+02 0.  0.
         12    1    1    2    0    0 -0.19794379926E+02  0.24959985748E+02  0.13791583333E+01  0.31886054050E+02  0.00000000000E+00 0. -1.
         11    1    3    3    0    0  0.12539992688E+02 -0.22492211435E+02 -0.13429303396E+02  0.29043022945E+02  0.51100000000E-03 0. -1.
        -11    1    3    3    0    0  0.16543195635E+02  0.10775039941E+01  0.30673800969E+01  0.16859631004E+02  0.51100000000E-03 0.  1.
         12    1    3    3    0    0 -0.92888083970E+01 -0.35452783070E+01  0.89827649654E+01  0.13399292001E+02  0.00000000000E+00 0. -1.
</event>
<event>
 7    1  0.1205909E-011  0.5930219E+02  0.7816164E-02  0.1266604E+00
        -11   -1    0    0    0    0  0.00000000000E+00  0.00000000000E+00  0.45593999997E+02  0.45594000000E+02  0.51100000000E-03 0.  1.
         11   -1    0    0    0    0 -0.00000000000E+00 -0.00000000000E+00 -0.45593999997E+02  0.45594000000E+02  0.51100000000E-03 0. -1.
    9900012    2    1    2    0    0  0.24080079841E+02 -0.18926695768E+02  0.88676101238E+01  0.59302194896E+02  0.50000457521E+02 0.  0.
         12    1    1    2    0    0 -0.24080079841E+02  0.18926695768E+02 -0.88676101238E+01  0.31885805104E+02  0.00000000000E+00 0. -1.
         11    1    3    3    0    0  0.59416401531E+01  0.12263771489E+02  0.64211238338E+01  0.15064329072E+02  0.51100000000E-03 0. -1.
        -11    1    3    3    0    0  0.19050104590E+02 -0.99163593755E+01  0.67528487070E+01  0.22513143585E+02  0.51100000000E-03 0.  1.
        -12    1    3    3    0    0 -0.91166490286E+00 -0.21274107882E+02 -0.43063624170E+01  0.21724722238E+02  0.00000000000E+00 0.  1.
</event>
<event>
 7    1  0.1205909E-011  0.5930191E+02  0.7816164E-02  0.1266605E+00
        -11   -1    0    0    0    0  0.00000000000E+00  0.00000000000E+00  0.45593999997E+02  0.45594000000E+02  0.51100000000E-03 0. -1.
         11   -1    0    0    0    0 -0.00000000000E+00 -0.00000000000E+00 -0.45593999997E+02  0.45594000000E+02  0.51100000000E-03 0.  1.
    9900012    2    1    2    0    0  0.29321535467E+01  0.11550950800E+01 -0.31729971932E+02  0.59301907611E+02  0.49999933584E+02 0.  0.
         12    1    1    2    0    0 -0.29321535467E+01 -0.11550950800E+01  0.31729971932E+02  0.31886092389E+02  0.00000000000E+00 0. -1.
         11    1    3    3    0    0  0.20488680039E+01  0.37512206799E+01  0.38609868955E+01  0.57599250651E+01  0.51100000000E-03 0. -1.
        -11    1    3    3    0    0 -0.16488425401E+01  0.16048114807E+02 -0.29746887765E+02  0.33839887744E+02  0.51100000000E-03 0.  1.
         12    1    3    3    0    0  0.25321280828E+01 -0.18644240407E+02 -0.58440710619E+01  0.19702094801E+02  0.00000000000E+00 0. -1.
</event>
<event>
 7    1  0.1205909E-011  0.5930196E+02  0.7816164E-02  0.1266605E+00
        -11   -1    0    0    0    0  0.00000000000E+00  0.00000000000E+00  0.45593999997E+02  0.45594000000E+02  0.51100000000E-03 0.  1.
         11   -1    0    0    0    0 -0.00000000000E+00 -0.00000000000E+00 -0.45593999997E+02  0.45594000000E+02  0.51100000000E-03 0. -1.
    9900012    2    1    2    0    0 -0.16062524497E+02  0.15750182254E+02  0.22597490592E+02  0.59301960496E+02  0.50000030033E+02 0.  0.
         12    1    1    2    0    0  0.16062524497E+02 -0.15750182254E+02 -0.22597490592E+02  0.31886039504E+02  0.00000000000E+00 0. -1.
         11    1    3    3    0    0 -0.16896918495E+01  0.20246276381E+01 -0.42357573148E+01  0.49895707140E+01  0.51100000000E-03 0. -1.
        -11    1    3    3    0    0  0.10135591382E+02  0.45111463299E+01 -0.57634738984E+01  0.12501931271E+02  0.51100000000E-03 0.  1.
        -12    1    3    3    0    0 -0.24508424029E+02  0.92144082856E+01  0.32596721805E+02  0.41810458511E+02  0.00000000000E+00 0.  1.
</event>
<event>
 7    1  0.1205909E-011  0.5930195E+02  0.7816164E-02  0.1266605E+00
        -11   -1    0    0    0    0  0.00000000000E+00  0.00000000000E+00  0.45593999997E+02  0.45594000000E+02  0.51100000000E-03 0.  1.
         11   -1    0    0    0    0 -0.00000000000E+00 -0.00000000000E+00 -0.45593999997E+02  0.45594000000E+02  0.51100000000E-03 0. -1.
    9900012    2    1    2    0    0 -0.91000271344E+01 -0.68053506961E+01  0.29792561772E+02  0.59301952442E+02  0.50000015345E+02 0.  0.
         12    1    1    2    0    0  0.91000271344E+01  0.68053506961E+01 -0.29792561772E+02  0.31886047558E+02  0.00000000000E+00 0. -1.
         11    1    3    3    0    0 -0.30113542134E+01  0.13854913311E+01 -0.55128574373E+01  0.64326851168E+01  0.51100000000E-03 0. -1.
        -11    1    3    3    0    0  0.11554877469E+02 -0.99025097742E+01  0.22802834137E+01  0.15387481466E+02  0.51100000000E-03 0.  1.
        -12    1    3    3    0    0 -0.17643550391E+02  0.17116677470E+01  0.33025135796E+02  0.37481785859E+02  0.00000000000E+00 0.  1.
</event>
<event>
 7    1  0.1205909E-011  0.5930199E+02  0.7816164E-02  0.1266605E+00
        -11   -1    0    0    0    0  0.00000000000E+00  0.00000000000E+00  0.45593999997E+02  0.45594000000E+02  0.51100000000E-03 0.  1.
         11   -1    0    0    0    0 -0.00000000000E+00 -0.00000000000E+00 -0.45593999997E+02  0.45594000000E+02  0.51100000000E-03 0. -1.
    9900012    2    1    2    0    0  0.85752643119E+00  0.14516995282E+02  0.28376734500E+02  0.59301991086E+02  0.50000085822E+02 0.  0.
         12    1    1    2    0    0 -0.85752643119E+00 -0.14516995282E+02 -0.28376734500E+02  0.31886008914E+02  0.00000000000E+00 0. -1.
         11    1    3    3    0    0  0.63707464515E+00  0.14010707821E+02 -0.46508301562E+01  0.14776197723E+02  0.51100000000E-03 0. -1.
        -11    1    3    3    0    0 -0.13920100001E+02 -0.33437479877E+01  0.10936119929E+02  0.18015231167E+02  0.51100000000E-03 0.  1.
        -12    1    3    3    0    0  0.14140551787E+02  0.38500354488E+01  0.22091444728E+02  0.26510562196E+02  0.00000000000E+00 0.  1.
</event>
<event>
 7    1  0.1205909E-011  0.5930194E+02  0.7816164E-02  0.1266605E+00
        -11   -1    0    0    0    0  0.00000000000E+00  0.00000000000E+00  0.45593999997E+02  0.45594000000E+02  0.51100000000E-03 0. -1.
         11   -1    0    0    0    0 -0.00000000000E+00 -0.00000000000E+00 -0.45593999997E+02  0.45594000000E+02  0.51100000000E-03 0.  1.
    9900012    2    1    2    0    0 -0.21366203555E+02 -0.44238823026E+01 -0.23251573189E+02  0.59301936512E+02  0.49999986293E+02 0.  0.
         12    1    1    2    0    0  0.21366203555E+02  0.44238823026E+01  0.23251573189E+02  0.31886063488E+02  0.00000000000E+00 0. -1.
         11    1    3    3    0    0 -0.25888484958E+02  0.40012060677E+01 -0.99854583230E+01  0.28034490928E+02  0.51100000000E-03 0.  1.
        -11    1    3    3    0    0  0.36332447468E+00  0.96628306615E+01 -0.34133037121E+01  0.10254410932E+02  0.51100000000E-03 0. -1.
        -12    1    3    3    0    0  0.41589569286E+01 -0.18087919032E+02 -0.98528111541E+01  0.21013034652E+02  0.00000000000E+00 0.  1.
</event>
<event>
 7    1  0.1205909E-011  0.5930194E+02  0.7816164E-02  0.1266605E+00
        -11   -1    0    0    0    0  0.00000000000E+00  0.00000000000E+00  0.45593999997E+02  0.45594000000E+02  0.51100000000E-03 0.  1.
         11   -1    0    0    0    0 -0.00000000000E+00 -0.00000000000E+00 -0.45593999997E+02  0.45594000000E+02  0.51100000000E-03 0. -1.
    9900012    2    1    2    0    0  0.24940685333E+02  0.88498534044E+01  0.17786592084E+02  0.59301944300E+02  0.50000000496E+02 0.  0.
         12    1    1    2    0    0 -0.24940685333E+02 -0.88498534044E+01 -0.17786592084E+02  0.31886055700E+02  0.00000000000E+00 0. -1.
         11    1    3    3    0    0  0.33156220590E+01 -0.52303780508E+01  0.25281569927E+01  0.66889298272E+01  0.51100000000E-03 0. -1.
        -11    1    3    3    0    0  0.20156083896E+02 -0.12505398093E+02  0.75726086658E+01  0.24899740997E+02  0.51100000000E-03 0.  1.
         12    1    3    3    0    0  0.14689793783E+01  0.26585629548E+02  0.76858264252E+01  0.27713273475E+02  0.00000000000E+00 0. -1.
</event>
<event>
 7    1  0.1205909E-011  0.5930194E+02  0.7816164E-02  0.1266605E+00
        -11   -1    0    0    0    0  0.00000000000E+00  0.00000000000E+00  0.45593999997E+02  0.45594000000E+02  0.51100000000E-03 0.  1.
         11   -1    0    0    0    0 -0.00000000000E+00 -0.00000000000E+00 -0.45593999997E+02  0.45594000000E+02  0.51100000000E-03 0. -1.
    9900012    2    1    2    0    0 -0.26609717180E+02  0.16559804910E+02  0.58665526120E+01  0.59301943069E+02  0.49999998251E+02 0.  0.
         12    1    1    2    0    0  0.26609717180E+02 -0.16559804910E+02 -0.58665526120E+01  0.31886056931E+02  0.00000000000E+00 0. -1.
         11    1    3    3    0    0  0.26622537037E+01  0.59344233718E+01  0.10631864937E+02  0.12463608139E+02  0.51100000000E-03 0. -1.
        -11    1    3    3    0    0 -0.28475449338E+02  0.27410875102E+01  0.98147545482E+01  0.30243911501E+02  0.51100000000E-03 0.  1.
         12    1    3    3    0    0 -0.79652154555E+00  0.78842940285E+01 -0.14580066873E+02  0.16594423429E+02  0.00000000000E+00 0. -1.
</event>
<event>
 7    1  0.1205909E-011  0.5930187E+02  0.7816164E-02  0.1266605E+00
        -11   -1    0    0    0    0  0.00000000000E+00  0.00000000000E+00  0.45593999997E+02  0.45594000000E+02  0.51100000000E-03 0. -1.
         11   -1    0    0    0    0 -0.00000000000E+00 -0.00000000000E+00 -0.45593999997E+02  0.45594000000E+02  0.51100000000E-03 0.  1.
    9900012    2    1    2    0    0  0.19375322206E+02 -0.22569463942E+02 -0.11486564354E+02  0.59301874900E+02  0.49999873928E+02 0.  0.
         12    1    1    2    0    0 -0.19375322206E+02  0.22569463942E+02  0.11486564354E+02  0.31886125100E+02  0.00000000000E+00 0. -1.
         11    1    3    3    0    0 -0.18256500211E+01 -0.87256012187E+01 -0.18237047572E+02  0.20299236908E+02  0.51100000000E-03 0. -1.
        -11    1    3    3    0    0  0.49184830317E+01 -0.81388954813E+01 -0.10801314140E+02  0.14391020895E+02  0.51100000000E-03 0.  1.
         12    1    3    3    0    0  0.16282489195E+02 -0.57049672423E+01  0.17551797359E+02  0.24611617097E+02  0.00000000000E+00 0. -1.
</event>
<event>
 7    1  0.1205909E-011  0.5930194E+02  0.7816164E-02  0.1266605E+00
        -11   -1    0    0    0    0  0.00000000000E+00  0.00000000000E+00  0.45593999997E+02  0.45594000000E+02  0.51100000000E-03 0. -1.
         11   -1    0    0    0    0 -0.00000000000E+00 -0.00000000000E+00 -0.45593999997E+02  0.45594000000E+02  0.51100000000E-03 0.  1.
    9900012    2    1    2    0    0 -0.18697299756E+02 -0.67272264644E+01 -0.24937451222E+02  0.59301936155E+02  0.49999985642E+02 0.  0.
         12    1    1    2    0    0  0.18697299756E+02  0.67272264644E+01  0.24937451222E+02  0.31886063845E+02  0.00000000000E+00 0. -1.
         11    1    3    3    0    0  0.85743014831E+01  0.12444356555E+02 -0.55917009758E+01  0.16113589794E+02  0.51100000000E-03 0. -1.
        -11    1    3    3    0    0  0.27389616602E+01 -0.43158037712E+01 -0.29805465824E+01  0.59170711808E+01  0.51100000000E-03 0.  1.
        -12    1    3    3    0    0 -0.30010562899E+02 -0.14855779248E+02 -0.16365203664E+02  0.37271275180E+02  0.00000000000E+00 0.  1.
</event>
<event>
 7    1  0.1205909E-011  0.5930195E+02  0.7816164E-02  0.1266605E+00
        -11   -1    0    0    0    0  0.00000000000E+00  0.00000000000E+00  0.45593999997E+02  0.45594000000E+02  0.51100000000E-03 0.  1.
         11   -1    0    0    0    0 -0.00000000000E+00 -0.00000000000E+00 -0.45593999997E+02  0.45594000000E+02  0.51100000000E-03 0. -1.
    9900012    2    1    2    0    0 -0.90221516057E+01  0.30581479480E+02 -0.30722375112E+00  0.59301945161E+02  0.50000002066E+02 0.  0.
         12    1    1    2    0    0  0.90221516057E+01 -0.30581479480E+02  0.30722375112E+00  0.31886054839E+02  0.00000000000E+00 0. -1.
         11    1    3    3    0    0 -0.22941534289E+02  0.18551214001E+02  0.32188767112E+00  0.29505341015E+02  0.51100000000E-03 0. -1.
        -11    1    3    3    0    0 -0.36624961638E+00  0.12331145438E+02  0.63717642257E+01  0.13884907857E+02  0.51100000000E-03 0.  1.
         12    1    3    3    0    0  0.14285632300E+02 -0.30087995913E+00 -0.70008756480E+01  0.15911696289E+02  0.00000000000E+00 0. -1.
</event>
<event>
 7    1  0.1205909E-011  0.5930195E+02  0.7816164E-02  0.1266605E+00
        -11   -1    0    0    0    0  0.00000000000E+00  0.00000000000E+00  0.45593999997E+02  0.45594000000E+02  0.51100000000E-03 0.  1.
         11   -1    0    0    0    0 -0.00000000000E+00 -0.00000000000E+00 -0.45593999997E+02  0.45594000000E+02  0.51100000000E-03 0. -1.
    9900012    2    1    2    0    0 -0.16187092398E+02  0.24518109205E+02  0.12391958741E+02  0.59301948493E+02  0.50000008143E+02 0.  0.
         12    1    1    2    0    0  0.16187092398E+02 -0.24518109205E+02 -0.12391958741E+02  0.31886051507E+02  0.00000000000E+00 0. -1.
         11    1    3    3    0    0 -0.17361492493E+02  0.34264561576E+02  0.17118589119E+02  0.42053866591E+02  0.51100000000E-03 0.  1.
        -11    1    3    3    0    0 -0.28266095240E+01 -0.29414169570E+01 -0.77795282901E+01  0.87842310872E+01  0.51100000000E-03 0. -1.
        -12    1    3    3    0    0  0.40010096189E+01 -0.68050354136E+01  0.30528979124E+01  0.84638508148E+01  0.00000000000E+00 0.  1.
</event>
<event>
 7    1  0.1205909E-011  0.5930208E+02  0.7816164E-02  0.1266604E+00
        -11   -1    0    0    0    0  0.00000000000E+00  0.00000000000E+00  0.45593999997E+02  0.45594000000E+02  0.51100000000E-03 0. -1.
         11   -1    0    0    0    0 -0.00000000000E+00 -0.00000000000E+00 -0.45593999997E+02  0.45594000000E+02  0.51100000000E-03 0.  1.
    9900012    2    1    2    0    0 -0.16559387560E+01 -0.21575043780E+02  0.23419805469E+02  0.59302079354E+02  0.50000246802E+02 0.  0.
         12    1    1    2    0    0  0.16559387560E+01  0.21575043780E+02 -0.23419805469E+02  0.31885920646E+02  0.00000000000E+00 0. -1.
         11    1    3    3    0    0 -0.11311506550E+02  0.97619101983E-01  0.19960866808E+02  0.22943319592E+02  0.51100000000E-03 0. -1.
        -11    1    3    3    0    0  0.13804327037E+02 -0.68959722218E+00 -0.27374669202E+01  0.14090021812E+02  0.51100000000E-03 0.  1.
         12    1    3    3    0    0 -0.41487592426E+01 -0.20983065660E+02  0.61964055812E+01  0.22268737949E+02  0.00000000000E+00 0. -1.
</event>
<event>
 7    1  0.1205909E-011  0.5930194E+02  0.7816164E-02  0.1266605E+00
        -11   -1    0    0    0    0  0.00000000000E+00  0.00000000000E+00  0.45593999997E+02  0.45594000000E+02  0.51100000000E-03 0. -1.
         11   -1    0    0    0    0 -0.00000000000E+00 -0.00000000000E+00 -0.45593999997E+02  0.45594000000E+02  0.51100000000E-03 0.  1.
    9900012    2    1    2    0    0  0.15656392713E+02  0.15129266053E+02 -0.23295997829E+02  0.59301939739E+02  0.49999992179E+02 0.  0.
         12    1    1    2    0    0 -0.15656392713E+02 -0.15129266053E+02  0.23295997829E+02  0.31886060261E+02  0.00000000000E+00 0. -1.
         11    1    3    3    0    0  0.75094817252E+01  0.12224445306E+02 -0.19587805399E+01  0.14479854981E+02  0.51100000000E-03 0. -1.
        -11    1    3    3    0    0  0.65900335139E+01  0.92725693377E+01 -0.31070277064E+02  0.33087326893E+02  0.51100000000E-03 0.  1.
         12    1    3    3    0    0  0.15568774740E+01 -0.63677485903E+01  0.97330597744E+01  0.11734757865E+02  0.00000000000E+00 0. -1.
</event>
<event>
 7    1  0.1205909E-011  0.5930195E+02  0.7816164E-02  0.1266605E+00
        -11   -1    0    0    0    0  0.00000000000E+00  0.00000000000E+00  0.45593999997E+02  0.45594000000E+02  0.51100000000E-03 0.  1.
         11   -1    0    0    0    0 -0.00000000000E+00 -0.00000000000E+00 -0.45593999997E+02  0.45594000000E+02  0.51100000000E-03 0. -1.
    9900012    2    1    2    0    0 -0.69360364827E+01  0.18575654094E+02  0.24971117950E+02  0.59301948837E+02  0.50000008771E+02 0.  0.
         12    1    1    2    0    0  0.69360364827E+01 -0.18575654094E+02 -0.24971117950E+02  0.31886051163E+02  0.00000000000E+00 0. -1.
         11    1    3    3    0    0 -0.12818155473E+02  0.22381093962E+02  0.11912174698E+02  0.28409828985E+02  0.51100000000E-03 0. -1.
        -11    1    3    3    0    0  0.12480072557E+02  0.51698699842E+01  0.14314455486E+02  0.19682057890E+02  0.51100000000E-03 0.  1.
         12    1    3    3    0    0 -0.65979535663E+01 -0.89753098524E+01 -0.12555122334E+01  0.11210061961E+02  0.00000000000E+00 0. -1.
</event>
<event>
 7    1  0.1208474E-011  0.5930195E+02  0.7816164E-02  0.1266605E+00
        -11   -1    0    0    0    0  0.00000000000E+00  0.00000000000E+00  0.45593999997E+02  0.45594000000E+02  0.51100000000E-03 0.  1.
         11   -1    0    0    0    0 -0.00000000000E+00 -0.00000000000E+00 -0.45593999997E+02  0.45594000000E+02  0.51100000000E-03 0. -1.
    9900012    2    1    2    0    0  0.19040172429E+02 -0.23891715326E+02 -0.91311635630E+01  0.59301947009E+02  0.50000005437E+02 0.  0.
         12    1    1    2    0    0 -0.19040172429E+02  0.23891715326E+02  0.91311635630E+01  0.31886052991E+02  0.00000000000E+00 0. -1.
         11    1    3    3    0    0 -0.36517356157E+01  0.61267423295E+01  0.22630533910E+01  0.74828841693E+01  0.51100000000E-03 0. -1.
        -11    1    3    3    0    0  0.20669878620E+02 -0.13692605494E+01  0.52912376523E+00  0.20721938346E+02  0.51100000000E-03 0.  1.
        -12    1    3    3    0    0  0.20220294249E+01 -0.28649197106E+02 -0.11923340719E+02  0.31097124493E+02  0.00000000000E+00 0.  1.
</event>
<event>
 7    1  0.1205909E-011  0.5930205E+02  0.7816164E-02  0.1266604E+00
        -11   -1    0    0    0    0  0.00000000000E+00  0.00000000000E+00  0.45593999997E+02  0.45594000000E+02  0.51100000000E-03 0.  1.
         11   -1    0    0    0    0 -0.00000000000E+00 -0.00000000000E+00 -0.45593999997E+02  0.45594000000E+02  0.51100000000E-03 0. -1.
    9900012    2    1    2    0    0 -0.18517792573E+02  0.56895426313E+01  0.25326552460E+02  0.59302050169E+02  0.50000193575E+02 0.  0.
         12    1    1    2    0    0  0.18517792573E+02 -0.56895426313E+01 -0.25326552460E+02  0.31885949831E+02  0.00000000000E+00 0. -1.
         11    1    3    3    0    0  0.28773544595E+00 -0.52280987800E+01 -0.61109102749E+01  0.80472997453E+01  0.51100000000E-03 0. -1.
        -11    1    3    3    0    0 -0.14873971408E+02  0.16878408009E+02  0.39326460629E+01  0.22838156399E+02  0.51100000000E-03 0.  1.
        -12    1    3    3    0    0 -0.39315566108E+01 -0.59607665977E+01  0.27504816672E+02  0.28416594025E+02  0.00000000000E+00 0.  1.
</event>
<event>
 7    1  0.1205909E-011  0.5930191E+02  0.7816164E-02  0.1266605E+00
        -11   -1    0    0    0    0  0.00000000000E+00  0.00000000000E+00  0.45593999997E+02  0.45594000000E+02  0.51100000000E-03 0. -1.
         11   -1    0    0    0    0 -0.00000000000E+00 -0.00000000000E+00 -0.45593999997E+02  0.45594000000E+02  0.51100000000E-03 0.  1.
    9900012    2    1    2    0    0 -0.24925395852E+02 -0.15124244057E+01 -0.19828265599E+02  0.59301907379E+02  0.49999933162E+02 0.  0.
         12    1    1    2    0    0  0.24925395852E+02  0.15124244057E+01  0.19828265599E+02  0.31886092621E+02  0.00000000000E+00 0. -1.
         11    1    3    3    0    0  0.13339310548E+01  0.22772913497E+01 -0.81270695909E+01  0.85448632726E+01  0.51100000000E-03 0. -1.
        -11    1    3    3    0    0  0.23043134648E+01  0.10729995505E+02 -0.14955281394E+02  0.18550016332E+02  0.51100000000E-03 0.  1.
         12    1    3    3    0    0 -0.28563640372E+02 -0.14519711260E+02  0.32540853866E+01  0.32207027775E+02  0.00000000000E+00 0. -1.
</event>
<event>
 7    1  0.1205909E-011  0.5930194E+02  0.7816164E-02  0.1266605E+00
        -11   -1    0    0    0    0  0.00000000000E+00  0.00000000000E+00  0.45593999997E+02  0.45594000000E+02  0.51100000000E-03 0. -1.
         11   -1    0    0    0    0 -0.00000000000E+00 -0.00000000000E+00 -0.45593999997E+02  0.45594000000E+02  0.51100000000E-03 0.  1.
    9900012    2    1    2    0    0 -0.79325701692E+01 -0.10721105394E+02 -0.28962962968E+02  0.59301937304E+02  0.49999987738E+02 0.  0.
         12    1    1    2    0    0  0.79325701692E+01  0.10721105394E+02  0.28962962968E+02  0.31886062696E+02  0.00000000000E+00 0. -1.
         11    1    3    3    0    0  0.10799583343E+02  0.26048504904E+01  0.61359204541E+01  0.12691168840E+02  0.51100000000E-03 0. -1.
        -11    1    3    3    0    0  0.15369287920E+01 -0.83810230819E+00  0.19194305693E+01  0.25978413274E+01  0.51100000000E-03 0.  1.
        -12    1    3    3    0    0 -0.20269082304E+02 -0.12487853576E+02 -0.37018313991E+02  0.44012927137E+02  0.00000000000E+00 0.  1.
</event>
<event>
 7    1  0.1205909E-011  0.5930195E+02  0.7816164E-02  0.1266605E+00
        -11   -1    0    0    0    0  0.00000000000E+00  0.00000000000E+00  0.45593999997E+02  0.45594000000E+02  0.51100000000E-03 0. -1.
         11   -1    0    0    0    0 -0.00000000000E+00 -0.00000000000E+00 -0.45593999997E+02  0.45594000000E+02  0.51100000000E-03 0.  1.
    9900012    2    1    2    0    0 -0.69499201722E+01  0.12422965500E+02 -0.28532238808E+02  0.59301951113E+02  0.50000012922E+02 0.  0.
         12    1    1    2    0    0  0.69499201722E+01 -0.12422965500E+02  0.28532238808E+02  0.31886048887E+02  0.00000000000E+00 0. -1.
         11    1    3    3    0    0 -0.10939807009E+02 -0.15715653165E+02 -0.68005415734E+01  0.20320150042E+02  0.51100000000E-03 0. -1.
        -11    1    3    3    0    0 -0.58681030796E+01  0.81391738171E+01 -0.59603488421E+01  0.11670755878E+02  0.51100000000E-03 0.  1.
        -12    1    3    3    0    0  0.98579899162E+01  0.19999444848E+02 -0.15771348392E+02  0.27311045193E+02  0.00000000000E+00 0.  1.
</event>
<event>
 7    1  0.1205909E-011  0.5930192E+02  0.7816164E-02  0.1266605E+00
        -11   -1    0    0    0    0  0.00000000000E+00  0.00000000000E+00  0.45593999997E+02  0.45594000000E+02  0.51100000000E-03 0.  1.
         11   -1    0    0    0    0 -0.00000000000E+00 -0.00000000000E+00 -0.45593999997E+02  0.45594000000E+02  0.51100000000E-03 0. -1.
    9900012    2    1    2    0    0 -0.10314543271E+01  0.69082112149E+01  0.31111649687E+02  0.59301921118E+02  0.49999958218E+02 0.  0.
         12    1    1    2    0    0  0.10314543271E+01 -0.69082112149E+01 -0.31111649687E+02  0.31886078882E+02  0.00000000000E+00 0. -1.
         11    1    3    3    0    0  0.94370456359E+01 -0.24039227225E+00  0.11953744053E+01  0.95154894256E+01  0.51100000000E-03 0. -1.
        -11    1    3    3    0    0 -0.69146220620E+01 -0.14668356241E+02  0.61867719287E+01  0.17356520972E+02  0.51100000000E-03 0.  1.
         12    1    3    3    0    0 -0.35538779011E+01  0.21816959729E+02  0.23729503353E+02  0.32429910720E+02  0.00000000000E+00 0. -1.
</event>
<event>
 7    1  0.1205909E-011  0.5930199E+02  0.7816164E-02  0.1266605E+00
        -11   -1    0    0    0    0  0.00000000000E+00  0.00000000000E+00  0.45593999997E+02  0.45594000000E+02  0.51100000000E-03 0.  1.
         11   -1    0    0    0    0 -0.00000000000E+00 -0.00000000000E+00 -0.45593999997E+02  0.45594000000E+02  0.51100000000E-03 0. -1.
    9900012    2    1    2    0    0  0.29812329789E+02 -0.14281372619E+01 -0.11220663313E+02  0.59301986316E+02  0.50000077123E+02 0.  0.
         12    1    1    2    0    0 -0.29812329789E+02  0.14281372619E+01  0.11220663313E+02  0.31886013684E+02  0.00000000000E+00 0. -1.
         11    1    3    3    0    0  0.64932290005E+01  0.45329649892E+00  0.51742351807E+01  0.83150592623E+01  0.51100000000E-03 0. -1.
        -11    1    3    3    0    0  0.26491759382E+02  0.86810785504E+01  0.36425915432E+01  0.28114816616E+02  0.51100000000E-03 0.  1.
         12    1    3    3    0    0 -0.31726585932E+01 -0.10562512311E+02 -0.20037490037E+02  0.22872110438E+02  0.00000000000E+00 0. -1.
</event>
<event>
 7    1  0.1205909E-011  0.5930198E+02  0.7816164E-02  0.1266605E+00
        -11   -1    0    0    0    0  0.00000000000E+00  0.00000000000E+00  0.45593999997E+02  0.45594000000E+02  0.51100000000E-03 0. -1.
         11   -1    0    0    0    0 -0.00000000000E+00 -0.00000000000E+00 -0.45593999997E+02  0.45594000000E+02  0.51100000000E-03 0.  1.
    9900012    2    1    2    0    0  0.20204346717E+02  0.21073832774E+02 -0.12821713892E+02  0.59301977965E+02  0.50000061894E+02 0.  0.
         12    1    1    2    0    0 -0.20204346717E+02 -0.21073832774E+02  0.12821713892E+02  0.31886022035E+02  0.00000000000E+00 0. -1.
         11    1    3    3    0    0  0.60107358094E+01  0.21941405806E+02  0.94027355844E+01  0.24616369969E+02  0.51100000000E-03 0. -1.
        -11    1    3    3    0    0  0.54175246575E+01  0.64543504919E+01  0.13050525479E+01  0.85270965809E+01  0.51100000000E-03 0.  1.
        -12    1    3    3    0    0  0.87760862505E+01 -0.73219235240E+01 -0.23529502024E+02  0.26158511416E+02  0.00000000000E+00 0.  1.
</event>
<event>
 7    1  0.1205909E-011  0.5930194E+02  0.7816164E-02  0.1266605E+00
        -11   -1    0    0    0    0  0.00000000000E+00  0.00000000000E+00  0.45593999997E+02  0.45594000000E+02  0.51100000000E-03 0.  1.
         11   -1    0    0    0    0 -0.00000000000E+00 -0.00000000000E+00 -0.45593999997E+02  0.45594000000E+02  0.51100000000E-03 0. -1.
    9900012    2    1    2    0    0  0.88807606355E+01  0.30421036574E+02  0.35233031050E+01  0.59301936579E+02  0.49999986416E+02 0.  0.
         12    1    1    2    0    0 -0.88807606355E+01 -0.30421036574E+02 -0.35233031050E+01  0.31886063421E+02  0.00000000000E+00 0. -1.
         11    1    3    3    0    0  0.53117921904E+00  0.86494792608E+01 -0.15143541785E+02  0.17447707612E+02  0.51100000000E-03 0. -1.
        -11    1    3    3    0    0  0.27830193182E+01 -0.62341796927E+01 -0.13810666194E+01  0.69654531967E+01  0.51100000000E-03 0.  1.
        -12    1    3    3    0    0  0.55665620982E+01  0.28005737006E+02  0.20047911510E+02  0.34888775770E+02  0.00000000000E+00 0.  1.
</event>
<event>
 7    1  0.1205909E-011  0.5930195E+02  0.7816164E-02  0.1266605E+00
        -11   -1    0    0    0    0  0.00000000000E+00  0.00000000000E+00  0.45593999997E+02  0.45594000000E+02  0.51100000000E-03 0. -1.
         11   -1    0    0    0    0 -0.00000000000E+00 -0.00000000000E+00 -0.45593999997E+02  0.45594000000E+02  0.51100000000E-03 0.  1.
    9900012    2    1    2    0    0 -0.11704631651E+02  0.16568721512E+02 -0.24600802025E+02  0.59301946702E+02  0.50000004878E+02 0.  0.
         12    1    1    2    0    0  0.11704631651E+02 -0.16568721512E+02  0.24600802025E+02  0.31886053298E+02  0.00000000000E+00 0. -1.
         11    1    3    3    0    0 -0.22027206767E+02  0.12859151898E+02  0.11916193077E+01  0.25533812530E+02  0.51100000000E-03 0. -1.
        -11    1    3    3    0    0 -0.27992014639E+01 -0.33121397965E+01 -0.42492794389E+00  0.43573343784E+01  0.51100000000E-03 0.  1.
         12    1    3    3    0    0  0.13121776580E+02  0.70217094100E+01 -0.25367493389E+02  0.29410799793E+02  0.00000000000E+00 0. -1.
</event>
<event>
 7    1  0.1205909E-011  0.5930194E+02  0.7816164E-02  0.1266605E+00
        -11   -1    0    0    0    0  0.00000000000E+00  0.00000000000E+00  0.45593999997E+02  0.45594000000E+02  0.51100000000E-03 0.  1.
         11   -1    0    0    0    0 -0.00000000000E+00 -0.00000000000E+00 -0.45593999997E+02  0.45594000000E+02  0.51100000000E-03 0. -1.
    9900012    2    1    2    0    0 -0.31772298666E+02  0.53071851222E+00  0.26381694491E+01  0.59301944072E+02  0.50000000080E+02 0.  0.
         12    1    1    2    0    0  0.31772298666E+02 -0.53071851222E+00 -0.26381694491E+01  0.31886055928E+02  0.00000000000E+00 0. -1.
         11    1    3    3    0    0 -0.15291109627E+02  0.28925715100E+01 -0.83563928278E+00  0.15584713563E+02  0.51100000000E-03 0. -1.
        -11    1    3    3    0    0 -0.27953694212E+02  0.59378516003E-01 -0.60624855356E+01  0.28603606015E+02  0.51100000000E-03 0.  1.
         12    1    3    3    0    0  0.11472505173E+02 -0.24212315138E+01  0.95362942674E+01  0.15113624494E+02  0.00000000000E+00 0. -1.
</event>
<event>
 7    1  0.1205909E-011  0.5930232E+02  0.7816164E-02  0.1266603E+00
        -11   -1    0    0    0    0  0.00000000000E+00  0.00000000000E+00  0.45593999997E+02  0.45594000000E+02  0.51100000000E-03 0.  1.
         11   -1    0    0    0    0 -0.00000000000E+00 -0.00000000000E+00 -0.45593999997E+02  0.45594000000E+02  0.51100000000E-03 0. -1.
    9900012    2    1    2    0    0  0.21747777662E+02 -0.77298489288E+01  0.21999544267E+02  0.59302323817E+02  0.50000692640E+02 0.  0.
         12    1    1    2    0    0 -0.21747777662E+02  0.77298489288E+01 -0.21999544267E+02  0.31885676183E+02  0.00000000000E+00 0. -1.
         11    1    3    3    0    0 -0.77301201043E+01 -0.81246379836E+01  0.60439432211E+01  0.12739456390E+02  0.51100000000E-03 0. -1.
        -11    1    3    3    0    0 -0.56218633771E+01 -0.42726547482E-01  0.92517114629E+01  0.10825956708E+02  0.51100000000E-03 0.  1.
        -12    1    3    3    0    0  0.35099761143E+02  0.43751560226E+00  0.67038895833E+01  0.35736910719E+02  0.00000000000E+00 0.  1.
</event>
<event>
 7    1  0.1205909E-011  0.5930193E+02  0.7816164E-02  0.1266605E+00
        -11   -1    0    0    0    0  0.00000000000E+00  0.00000000000E+00  0.45593999997E+02  0.45594000000E+02  0.51100000000E-03 0.  1.
         11   -1    0    0    0    0 -0.00000000000E+00 -0.00000000000E+00 -0.45593999997E+02  0.45594000000E+02  0.51100000000E-03 0. -1.
    9900012    2    1    2    0    0 -0.58996745698E+01 -0.31286472773E+02  0.17526004335E+01  0.59301934911E+02  0.49999983373E+02 0.  0.
         12    1    1    2    0    0  0.58996745698E+01  0.31286472773E+02 -0.17526004335E+01  0.31886065089E+02  0.00000000000E+00 0. -1.
         11    1    3    3    0    0 -0.91786084112E+01  0.17150744604E+01 -0.71424399239E+01  0.11755967893E+02  0.51100000000E-03 0. -1.
        -11    1    3    3    0    0  0.33405251250E+01  0.54266765058E+01 -0.33689505810E+01  0.72081727426E+01  0.51100000000E-03 0.  1.
        -12    1    3    3    0    0 -0.61591283543E-01 -0.38428223739E+02  0.12263990938E+02  0.40337794275E+02  0.00000000000E+00 0.  1.
</event>
<event>
 7    1  0.1205909E-011  0.5930195E+02  0.7816164E-02  0.1266605E+00
        -11   -1    0    0    0    0  0.00000000000E+00  0.00000000000E+00  0.45593999997E+02  0.45594000000E+02  0.51100000000E-03 0.  1.
         11   -1    0    0    0    0 -0.00000000000E+00 -0.00000000000E+00 -0.45593999997E+02  0.45594000000E+02  0.51100000000E-03 0. -1.
    9900012    2    1    2    0    0 -0.16177867934E+02  0.16421096928E+02  0.22030532689E+02  0.59301949668E+02  0.50000010286E+02 0.  0.
         12    1    1    2    0    0  0.16177867934E+02 -0.16421096928E+02 -0.22030532689E+02  0.31886050332E+02  0.00000000000E+00 0. -1.
         11    1    3    3    0    0 -0.48969181407E+01 -0.11644377087E+02  0.13749381751E+01  0.12706761203E+02  0.51100000000E-03 0. -1.
        -11    1    3    3    0    0 -0.98277174480E+01 -0.23797944279E+01  0.64239531109E+00  0.10132133228E+02  0.51100000000E-03 0.  1.
        -12    1    3    3    0    0 -0.14532323457E+01  0.30445268443E+02  0.20013199203E+02  0.36463055236E+02  0.00000000000E+00 0.  1.
</event>
<event>
 7    1  0.1205909E-011  0.5930199E+02  0.7816164E-02  0.1266605E+00
        -11   -1    0    0    0    0  0.00000000000E+00  0.00000000000E+00  0.45593999997E+02  0.45594000000E+02  0.51100000000E-03 0.  1.
         11   -1    0    0    0    0 -0.00000000000E+00 -0.00000000000E+00 -0.45593999997E+02  0.45594000000E+02  0.51100000000E-03 0. -1.
    9900012    2    1    2    0    0 -0.17407795153E+02  0.26714138251E+02 -0.20271227754E+00  0.59301990421E+02  0.50000084611E+02 0.  0.
         12    1    1    2    0    0  0.17407795153E+02 -0.26714138251E+02  0.20271227754E+00  0.31886009579E+02  0.00000000000E+00 0. -1.
         11    1    3    3    0    0  0.87128898033E+01  0.29167901812E+01  0.99721092789E+01  0.13559685742E+02  0.51100000000E-03 0.  1.
        -11    1    3    3    0    0 -0.63529095318E+00  0.12760646177E+02 -0.12497929623E+02  0.17872770646E+02  0.51100000000E-03 0. -1.
        -12    1    3    3    0    0 -0.25485394003E+02  0.11036701894E+02  0.23231080663E+01  0.27869534034E+02  0.00000000000E+00 0.  1.
</event>
<event>
 7    1  0.1205909E-011  0.5930183E+02  0.7816164E-02  0.1266605E+00
        -11   -1    0    0    0    0  0.00000000000E+00  0.00000000000E+00  0.45593999997E+02  0.45594000000E+02  0.51100000000E-03 0.  1.
         11   -1    0    0    0    0 -0.00000000000E+00 -0.00000000000E+00 -0.45593999997E+02  0.45594000000E+02  0.51100000000E-03 0. -1.
    9900012    2    1    2    0    0  0.13730316279E+02  0.20924909189E+01  0.28702401078E+02  0.59301828530E+02  0.49999789359E+02 0.  0.
         12    1    1    2    0    0 -0.13730316279E+02 -0.20924909189E+01 -0.28702401078E+02  0.31886171470E+02  0.00000000000E+00 0. -1.
         11    1    3    3    0    0 -0.37971782951E+01  0.10599705418E+01  0.12010029807E+02  0.12640526760E+02  0.51100000000E-03 0. -1.
        -11    1    3    3    0    0  0.27344449681E+02 -0.95800118364E+01  0.12895860889E+02  0.31714330885E+02  0.51100000000E-03 0.  1.
         12    1    3    3    0    0 -0.98169551063E+01  0.10612532213E+02  0.37965103825E+01  0.14946970885E+02  0.00000000000E+00 0. -1.
</event>
<event>
 7    1  0.1205909E-011  0.5930190E+02  0.7816164E-02  0.1266605E+00
        -11   -1    0    0    0    0  0.00000000000E+00  0.00000000000E+00  0.45593999997E+02  0.45594000000E+02  0.51100000000E-03 0. -1.
         11   -1    0    0    0    0 -0.00000000000E+00 -0.00000000000E+00 -0.45593999997E+02  0.45594000000E+02  0.51100000000E-03 0.  1.
    9900012    2    1    2    0    0 -0.11590677593E+01  0.24335369924E+02 -0.20571093351E+02  0.59301897242E+02  0.49999914674E+02 0.  0.
         12    1    1    2    0    0  0.11590677593E+01 -0.24335369924E+02  0.20571093351E+02  0.31886102758E+02  0.00000000000E+00 0. -1.
         11    1    3    3    0    0 -0.46813071046E+01  0.22569534721E+02 -0.47946730844E+01  0.23543309537E+02  0.51100000000E-03 0. -1.
        -11    1    3    3    0    0 -0.12706152853E+02 -0.80509038951E+00 -0.14473365491E+02  0.19276223690E+02  0.51100000000E-03 0.  1.
        -12    1    3    3    0    0  0.16228392199E+02  0.25709255932E+01 -0.13030547763E+01  0.16482364015E+02  0.00000000000E+00 0.  1.
</event>
<event>
 7    1  0.1205909E-011  0.5930192E+02  0.7816164E-02  0.1266605E+00
        -11   -1    0    0    0    0  0.00000000000E+00  0.00000000000E+00  0.45593999997E+02  0.45594000000E+02  0.51100000000E-03 0.  1.
         11   -1    0    0    0    0 -0.00000000000E+00 -0.00000000000E+00 -0.45593999997E+02  0.45594000000E+02  0.51100000000E-03 0. -1.
    9900012    2    1    2    0    0  0.22710784223E+02  0.22348895704E+02  0.12120455444E+01  0.59301922888E+02  0.49999961445E+02 0.  0.
         12    1    1    2    0    0 -0.22710784223E+02 -0.22348895704E+02 -0.12120455444E+01  0.31886077112E+02  0.00000000000E+00 0. -1.
         11    1    3    3    0    0  0.21269292966E+02  0.43555084578E+01  0.21394573656E+01  0.21815832675E+02  0.51100000000E-03 0. -1.
        -11    1    3    3    0    0  0.13006922598E+01  0.94780338823E+01  0.15940012306E+02  0.18590559949E+02  0.51100000000E-03 0.  1.
         12    1    3    3    0    0  0.14079899675E+00  0.85153533644E+01 -0.16867424127E+02  0.18895530264E+02  0.00000000000E+00 0. -1.
</event>
<event>
 7    1  0.1205909E-011  0.5930196E+02  0.7816164E-02  0.1266605E+00
        -11   -1    0    0    0    0  0.00000000000E+00  0.00000000000E+00  0.45593999997E+02  0.45594000000E+02  0.51100000000E-03 0.  1.
         11   -1    0    0    0    0 -0.00000000000E+00 -0.00000000000E+00 -0.45593999997E+02  0.45594000000E+02  0.51100000000E-03 0. -1.
    9900012    2    1    2    0    0  0.30384878414E+02  0.63936253933E+01 -0.72526137551E+01  0.59301957784E+02  0.50000025088E+02 0.  0.
         12    1    1    2    0    0 -0.30384878414E+02 -0.63936253933E+01  0.72526137551E+01  0.31886042216E+02  0.00000000000E+00 0. -1.
         11    1    3    3    0    0  0.51997502805E+01  0.16582638567E+01  0.36699024766E+01  0.65768857712E+01  0.51100000000E-03 0. -1.
        -11    1    3    3    0    0  0.88279045201E+01 -0.38233344272E+01  0.16834524068E+02  0.19389455517E+02  0.51100000000E-03 0.  1.
         12    1    3    3    0    0  0.16357223614E+02  0.85586959637E+01 -0.27757040300E+02  0.33335616496E+02  0.00000000000E+00 0. -1.
</event>
<event>
 7    1  0.1205909E-011  0.5930193E+02  0.7816164E-02  0.1266605E+00
        -11   -1    0    0    0    0  0.00000000000E+00  0.00000000000E+00  0.45593999997E+02  0.45594000000E+02  0.51100000000E-03 0.  1.
         11   -1    0    0    0    0 -0.00000000000E+00 -0.00000000000E+00 -0.45593999997E+02  0.45594000000E+02  0.51100000000E-03 0. -1.
    9900012    2    1    2    0    0  0.12170316774E+02 -0.16849201357E+02  0.24180760907E+02  0.59301931023E+02  0.49999976282E+02 0.  0.
         12    1    1    2    0    0 -0.12170316774E+02  0.16849201357E+02 -0.24180760907E+02  0.31886068977E+02  0.00000000000E+00 0. -1.
         11    1    3    3    0    0 -0.31203016992E+01 -0.11480202591E+02  0.22381668677E+02  0.25347000360E+02  0.51100000000E-03 0.  1.
        -11    1    3    3    0    0 -0.23000479312E+01  0.10104077376E+02 -0.74721267769E+00  0.10389462313E+02  0.51100000000E-03 0. -1.
         12    1    3    3    0    0  0.17590666404E+02 -0.15473076143E+02  0.25463049084E+01  0.23565468350E+02  0.00000000000E+00 0. -1.
</event>
<event>
 7    1  0.1205909E-011  0.5930191E+02  0.7816164E-02  0.1266605E+00
        -11   -1    0    0    0    0  0.00000000000E+00  0.00000000000E+00  0.45593999997E+02  0.45594000000E+02  0.51100000000E-03 0.  1.
         11   -1    0    0    0    0 -0.00000000000E+00 -0.00000000000E+00 -0.45593999997E+02  0.45594000000E+02  0.51100000000E-03 0. -1.
    9900012    2    1    2    0    0 -0.24251593299E+02  0.26133185211E+01  0.20536635127E+02  0.59301912225E+02  0.49999942000E+02 0.  0.
         12    1    1    2    0    0  0.24251593299E+02 -0.26133185211E+01 -0.20536635127E+02  0.31886087775E+02  0.00000000000E+00 0. -1.
         11    1    3    3    0    0 -0.95724378320E+01  0.17692110151E+02  0.54276768783E+01  0.20835114691E+02  0.51100000000E-03 0. -1.
        -11    1    3    3    0    0 -0.11458573764E+02  0.65546728041E+01  0.32849061480E+01  0.13603428132E+02  0.51100000000E-03 0.  1.
        -12    1    3    3    0    0 -0.32205817028E+01 -0.21633464434E+02  0.11824052101E+02  0.24863369402E+02  0.00000000000E+00 0.  1.
</event>
<event>
 7    1  0.1205909E-011  0.5930213E+02  0.7816164E-02  0.1266604E+00
        -11   -1    0    0    0    0  0.00000000000E+00  0.00000000000E+00  0.45593999997E+02  0.45594000000E+02  0.51100000000E-03 0.  1.
         11   -1    0    0    0    0 -0.00000000000E+00 -0.00000000000E+00 -0.45593999997E+02  0.45594000000E+02  0.51100000000E-03 0. -1.
    9900012    2    1    2    0    0 -0.24474731499E+02 -0.10703565646E+02  0.17410634809E+02  0.59302125323E+02  0.50000330638E+02 0.  0.
         12    1    1    2    0    0  0.24474731499E+02  0.10703565646E+02 -0.17410634809E+02  0.31885874677E+02  0.00000000000E+00 0. -1.
         11    1    3    3    0    0 -0.42492660544E+01 -0.53587700489E+01  0.28866963279E+01  0.74233209811E+01  0.51100000000E-03 0. -1.
        -11    1    3    3    0    0 -0.17312461521E+02 -0.20213089187E+02 -0.50884407803E+01  0.27095802779E+02  0.51100000000E-03 0.  1.
         12    1    3    3    0    0 -0.29130039237E+01  0.14868293591E+02  0.19612379261E+02  0.24783001562E+02  0.00000000000E+00 0. -1.
</event>
<event>
 7    1  0.1205909E-011  0.5930194E+02  0.7816164E-02  0.1266605E+00
        -11   -1    0    0    0    0  0.00000000000E+00  0.00000000000E+00  0.45593999997E+02  0.45594000000E+02  0.51100000000E-03 0. -1.
         11   -1    0    0    0    0 -0.00000000000E+00 -0.00000000000E+00 -0.45593999997E+02  0.45594000000E+02  0.51100000000E-03 0.  1.
    9900012    2    1    2    0    0  0.31507592100E+02 -0.42063673943E+01  0.25098217380E+01  0.59301935776E+02  0.49999984950E+02 0.  0.
         12    1    1    2    0    0 -0.31507592100E+02  0.42063673943E+01 -0.25098217380E+01  0.31886064224E+02  0.00000000000E+00 0. -1.
         11    1    3    3    0    0  0.19269993009E+02 -0.63879435557E+01  0.10517872166E+02  0.22864034827E+02  0.51100000000E-03 0. -1.
        -11    1    3    3    0    0  0.88485783867E+01  0.28637071860E+01 -0.21014120937E+02  0.22980240150E+02  0.51100000000E-03 0.  1.
         12    1    3    3    0    0  0.33890207043E+01 -0.68213102458E+00  0.13006070510E+02  0.13457660799E+02  0.00000000000E+00 0. -1.
</event>
<event>
 7    1  0.1205909E-011  0.5930202E+02  0.7816164E-02  0.1266605E+00
        -11   -1    0    0    0    0  0.00000000000E+00  0.00000000000E+00  0.45593999997E+02  0.45594000000E+02  0.51100000000E-03 0.  1.
         11   -1    0    0    0    0 -0.00000000000E+00 -0.00000000000E+00 -0.45593999997E+02  0.45594000000E+02  0.51100000000E-03 0. -1.
    9900012    2    1    2    0    0 -0.30541873669E+02 -0.84787385058E+00  0.91209114974E+01  0.59302016186E+02  0.50000131599E+02 0.  0.
         12    1    1    2    0    0  0.30541873669E+02  0.84787385058E+00 -0.91209114974E+01  0.31885983814E+02  0.00000000000E+00 0. -1.
         11    1    3    3    0    0  0.60877326505E+01 -0.13062472556E+02  0.73944367472E+01  0.16197727408E+02  0.51100000000E-03 0. -1.
        -11    1    3    3    0    0 -0.59050031062E+01  0.62657521786E+01  0.73348001514E+01  0.11310526317E+02  0.51100000000E-03 0.  1.
        -12    1    3    3    0    0 -0.30724603213E+02  0.59488465271E+01 -0.56083254011E+01  0.31793762461E+02  0.00000000000E+00 0.  1.
</event>
<event>
 7    1  0.1205909E-011  0.5930195E+02  0.7816164E-02  0.1266605E+00
        -11   -1    0    0    0    0  0.00000000000E+00  0.00000000000E+00  0.45593999997E+02  0.45594000000E+02  0.51100000000E-03 0.  1.
         11   -1    0    0    0    0 -0.00000000000E+00 -0.00000000000E+00 -0.45593999997E+02  0.45594000000E+02  0.51100000000E-03 0. -1.
    9900012    2    1    2    0    0  0.27028872925E+02  0.77552708129E+01  0.15033830243E+02  0.59301948994E+02  0.50000009057E+02 0.  0.
         12    1    1    2    0    0 -0.27028872925E+02 -0.77552708129E+01 -0.15033830243E+02  0.31886051006E+02  0.00000000000E+00 0. -1.
         11    1    3    3    0    0 -0.19964163571E+00  0.15692683192E+01  0.78106322316E+01  0.79692180268E+01  0.51100000000E-03 0. -1.
        -11    1    3    3    0    0  0.27447024929E+02  0.60184480790E+01  0.22534503446E+02  0.36018949743E+02  0.51100000000E-03 0.  1.
         12    1    3    3    0    0 -0.21851036807E+00  0.16755441467E+00 -0.15311305435E+02  0.15313781224E+02  0.00000000000E+00 0. -1.
</event>
<event>
 7    1  0.1205909E-011  0.5930184E+02  0.7816164E-02  0.1266605E+00
        -11   -1    0    0    0    0  0.00000000000E+00  0.00000000000E+00  0.45593999997E+02  0.45594000000E+02  0.51100000000E-03 0.  1.
         11   -1    0    0    0    0 -0.00000000000E+00 -0.00000000000E+00 -0.45593999997E+02  0.45594000000E+02  0.51100000000E-03 0. -1.
    9900012    2    1    2    0    0  0.17957792430E+02 -0.18859287989E+02 -0.18400328036E+02  0.59301841181E+02  0.49999812432E+02 0.  0.
         12    1    1    2    0    0 -0.17957792430E+02  0.18859287989E+02  0.18400328036E+02  0.31886158819E+02  0.00000000000E+00 0. -1.
         11    1    3    3    0    0  0.10944771485E+02 -0.97763993356E+01 -0.96652286479E+01  0.17572212493E+02  0.51100000000E-03 0. -1.
        -11    1    3    3    0    0 -0.11831929190E+02 -0.15532880644E+02  0.10164602933E+01  0.19552445403E+02  0.51100000000E-03 0.  1.
         12    1    3    3    0    0  0.18844950134E+02  0.64499919907E+01 -0.97515596812E+01  0.22177183285E+02  0.00000000000E+00 0. -1.
</event>
<event>
 7    1  0.1205909E-011  0.5930194E+02  0.7816164E-02  0.1266605E+00
        -11   -1    0    0    0    0  0.00000000000E+00  0.00000000000E+00  0.45593999997E+02  0.45594000000E+02  0.51100000000E-03 0. -1.
         11   -1    0    0    0    0 -0.00000000000E+00 -0.00000000000E+00 -0.45593999997E+02  0.45594000000E+02  0.51100000000E-03 0.  1.
    9900012    2    1    2    0    0  0.12517752231E+02  0.29319030258E+02  0.64912400908E+00  0.59301936929E+02  0.49999987054E+02 0.  0.
         12    1    1    2    0    0 -0.12517752231E+02 -0.29319030258E+02 -0.64912400908E+00  0.31886063071E+02  0.00000000000E+00 0. -1.
         11    1    3    3    0    0  0.14588478444E+02  0.17465745328E+02  0.57529144302E+01  0.23472792503E+02  0.51100000000E-03 0. -1.
        -11    1    3    3    0    0 -0.52764438853E+01  0.19437235549E+02  0.68852636135E+01  0.21285061456E+02  0.51100000000E-03 0.  1.
         12    1    3    3    0    0  0.32057176726E+01 -0.75839506203E+01 -0.11989054035E+02  0.14544082971E+02  0.00000000000E+00 0. -1.
</event>
<event>
 7    1  0.1205909E-011  0.5930201E+02  0.7816164E-02  0.1266605E+00
        -11   -1    0    0    0    0  0.00000000000E+00  0.00000000000E+00  0.45593999997E+02  0.45594000000E+02  0.51100000000E-03 0.  1.
         11   -1    0    0    0    0 -0.00000000000E+00 -0.00000000000E+00 -0.45593999997E+02  0.45594000000E+02  0.51100000000E-03 0. -1.
    9900012    2    1    2    0    0  0.52999215313E+01 -0.29906512811E+02  0.97070987360E+01  0.59302008677E+02  0.50000117905E+02 0.  0.
         12    1    1    2    0    0 -0.52999215313E+01  0.29906512811E+02 -0.97070987360E+01  0.31885991323E+02  0.00000000000E+00 0. -1.
         11    1    3    3    0    0  0.13747035959E+02 -0.21214700609E+02  0.14634672218E+02  0.29209898164E+02  0.51100000000E-03 0. -1.
        -11    1    3    3    0    0  0.65666153141E+01 -0.62561064727E+01  0.64229991894E+01  0.11113695323E+02  0.51100000000E-03 0.  1.
         12    1    3    3    0    0 -0.15013729742E+02 -0.24357057296E+01 -0.11350572671E+02  0.18978415190E+02  0.00000000000E+00 0. -1.
</event>
<event>
 7    1  0.1205909E-011  0.5930194E+02  0.7816164E-02  0.1266605E+00
        -11   -1    0    0    0    0  0.00000000000E+00  0.00000000000E+00  0.45593999997E+02  0.45594000000E+02  0.51100000000E-03 0.  1.
         11   -1    0    0    0    0 -0.00000000000E+00 -0.00000000000E+00 -0.45593999997E+02  0.45594000000E+02  0.51100000000E-03 0. -1.
    9900012    2    1    2    0    0  0.67139169887E+01 -0.29527853517E+02  0.99874935809E+01  0.59301939680E+02  0.49999992071E+02 0.  0.
         12    1    1    2    0    0 -0.67139169887E+01  0.29527853517E+02 -0.99874935809E+01  0.31886060320E+02  0.00000000000E+00 0. -1.
         11    1    3    3    0    0 -0.10550270707E+02  0.86386087713E+00  0.13091813636E+02  0.16835974939E+02  0.51100000000E-03 0. -1.
        -11    1    3    3    0    0  0.17288535935E+02 -0.21154794589E+02  0.75699124016E+01  0.28349997935E+02  0.51100000000E-03 0.  1.
         12    1    3    3    0    0 -0.24348239102E-01 -0.92369198060E+01 -0.10674232457E+02  0.14115966807E+02  0.00000000000E+00 0. -1.
</event>
<event>
 7    1  0.1205909E-011  0.5930193E+02  0.7816164E-02  0.1266605E+00
        -11   -1    0    0    0    0  0.00000000000E+00  0.00000000000E+00  0.45593999997E+02  0.45594000000E+02  0.51100000000E-03 0. -1.
         11   -1    0    0    0    0 -0.00000000000E+00 -0.00000000000E+00 -0.45593999997E+02  0.45594000000E+02  0.51100000000E-03 0.  1.
    9900012    2    1    2    0    0 -0.15109980827E+02 -0.28077928325E+02 -0.19907256610E+00  0.59301933929E+02  0.49999981582E+02 0.  0.
         12    1    1    2    0    0  0.15109980827E+02  0.28077928325E+02  0.19907256610E+00  0.31886066071E+02  0.00000000000E+00 0. -1.
         11    1    3    3    0    0 -0.21212983380E+01  0.64915885726E+01 -0.27676498602E+01  0.73688883045E+01  0.51100000000E-03 0. -1.
        -11    1    3    3    0    0  0.84759383255E+01 -0.21747433973E+01 -0.77898922591E+01  0.11715522225E+02  0.51100000000E-03 0.  1.
        -12    1    3    3    0    0 -0.21464620814E+02 -0.32394773501E+02  0.10358469553E+02  0.40217523399E+02  0.00000000000E+00 0.  1.
</event>
<event>
 7    1  0.1205909E-011  0.5930189E+02  0.7816164E-02  0.1266605E+00
        -11   -1    0    0    0    0  0.00000000000E+00  0.00000000000E+00  0.45593999997E+02  0.45594000000E+02  0.51100000000E-03 0. -1.
         11   -1    0    0    0    0 -0.00000000000E+00 -0.00000000000E+00 -0.45593999997E+02  0.45594000000E+02  0.51100000000E-03 0.  1.
    9900012    2    1    2    0    0  0.30456896942E+02 -0.87032241211E+01 -0.36545374171E+01  0.59301885072E+02  0.49999892479E+02 0.  0.
         12    1    1    2    0    0 -0.30456896942E+02  0.87032241211E+01  0.36545374171E+01  0.31886114928E+02  0.00000000000E+00 0. -1.
         11    1    3    3    0    0 -0.69395004698E+01 -0.17582010585E+01 -0.79155842811E+01  0.10672601019E+02  0.51100000000E-03 0. -1.
        -11    1    3    3    0    0  0.21876479602E+01  0.38780015091E+00 -0.97740999797E+01  0.10023433704E+02  0.51100000000E-03 0.  1.
         12    1    3    3    0    0  0.35208749452E+02 -0.73328232134E+01  0.14035146844E+02  0.38605850349E+02  0.00000000000E+00 0. -1.
</event>
<event>
 7    1  0.1205909E-011  0.5930195E+02  0.7816164E-02  0.1266605E+00
        -11   -1    0    0    0    0  0.00000000000E+00  0.00000000000E+00  0.45593999997E+02  0.45594000000E+02  0.51100000000E-03 0. -1.
         11   -1    0    0    0    0 -0.00000000000E+00 -0.00000000000E+00 -0.45593999997E+02  0.45594000000E+02  0.51100000000E-03 0.  1.
    9900012    2    1    2    0    0  0.14027169623E+02  0.86925807994E+01 -0.27283649550E+02  0.59301953187E+02  0.50000016704E+02 0.  0.
         12    1    1    2    0    0 -0.14027169623E+02 -0.86925807994E+01  0.27283649550E+02  0.31886046813E+02  0.00000000000E+00 0. -1.
         11    1    3    3    0    0  0.41885200776E+01  0.42498643626E+01 -0.13218013929E+02  0.14502446001E+02  0.51100000000E-03 0. -1.
        -11    1    3    3    0    0  0.19338562681E+02  0.62050087990E+01 -0.23661200565E+02  0.31182279474E+02  0.51100000000E-03 0.  1.
         12    1    3    3    0    0 -0.94999131355E+01 -0.17622923622E+01  0.95955649435E+01  0.13617227711E+02  0.00000000000E+00 0. -1.
</event>
<event>
 7    1  0.1205909E-011  0.5930194E+02  0.7816164E-02  0.1266605E+00
        -11   -1    0    0    0    0  0.00000000000E+00  0.00000000000E+00  0.45593999997E+02  0.45594000000E+02  0.51100000000E-03 0. -1.
         11   -1    0    0    0    0 -0.00000000000E+00 -0.00000000000E+00 -0.45593999997E+02  0.45594000000E+02  0.51100000000E-03 0.  1.
    9900012    2    1    2    0    0 -0.29796590043E+02  0.26138602966E+01 -0.11047707765E+02  0.59301938928E+02  0.49999990700E+02 0.  0.
         12    1    1    2    0    0  0.29796590043E+02 -0.26138602966E+01  0.11047707765E+02  0.31886061072E+02  0.00000000000E+00 0. -1.
         11    1    3    3    0    0 -0.37519414702E+01 -0.36255795047E+01 -0.53549739742E+01  0.74764723009E+01  0.51100000000E-03 0. -1.
        -11    1    3    3    0    0 -0.71250072041E+01 -0.84741679315E+01 -0.20751199694E+02  0.23519981692E+02  0.51100000000E-03 0.  1.
         12    1    3    3    0    0 -0.18919641368E+02  0.14713607733E+02  0.15058465904E+02  0.28305484935E+02  0.00000000000E+00 0. -1.
</event>
<event>
 7    1  0.1205909E-011  0.5930193E+02  0.7816164E-02  0.1266605E+00
        -11   -1    0    0    0    0  0.00000000000E+00  0.00000000000E+00  0.45593999997E+02  0.45594000000E+02  0.51100000000E-03 0. -1.
         11   -1    0    0    0    0 -0.00000000000E+00 -0.00000000000E+00 -0.45593999997E+02  0.45594000000E+02  0.51100000000E-03 0.  1.
    9900012    2    1    2    0    0  0.15144064995E+02  0.26907333208E+02 -0.79607997388E+01  0.59301927533E+02  0.49999969917E+02 0.  0.
         12    1    1    2    0    0 -0.15144064995E+02 -0.26907333208E+02  0.79607997388E+01  0.31886072467E+02  0.00000000000E+00 0. -1.
         11    1    3    3    0    0  0.95935394839E+01  0.21535868552E+02  0.10432827745E+00  0.23576270248E+02  0.51100000000E-03 0. -1.
        -11    1    3    3    0    0  0.75342379825E+01  0.23059122904E+01 -0.20924032082E+02  0.22358378570E+02  0.51100000000E-03 0.  1.
         12    1    3    3    0    0 -0.19837124716E+01  0.30655523648E+01  0.12858904066E+02  0.13367278715E+02  0.00000000000E+00 0. -1.
</event>
<event>
 7    1  0.1205909E-011  0.5930193E+02  0.7816164E-02  0.1266605E+00
        -11   -1    0    0    0    0  0.00000000000E+00  0.00000000000E+00  0.45593999997E+02  0.45594000000E+02  0.51100000000E-03 0.  1.
         11   -1    0    0    0    0 -0.00000000000E+00 -0.00000000000E+00 -0.45593999997E+02  0.45594000000E+02  0.51100000000E-03 0. -1.
    9900012    2    1    2    0    0  0.21453858694E+02  0.23263864603E+02 -0.39045763653E+01  0.59301934615E+02  0.49999982834E+02 0.  0.
         12    1    1    2    0    0 -0.21453858694E+02 -0.23263864603E+02  0.39045763653E+01  0.31886065385E+02  0.00000000000E+00 0. -1.
         11    1    3    3    0    0 -0.23059247578E+01  0.99965466736E+01 -0.79582192429E+01  0.12983893413E+02  0.51100000000E-03 0. -1.
        -11    1    3    3    0    0  0.33839148574E+02  0.12191735187E+02  0.24099984909E+01  0.36049056521E+02  0.51100000000E-03 0.  1.
         12    1    3    3    0    0 -0.10079365122E+02  0.10755827425E+01  0.16436443867E+01  0.10268984681E+02  0.00000000000E+00 0. -1.
</event>
<event>
 7    1  0.1205909E-011  0.5930194E+02  0.7816164E-02  0.1266605E+00
        -11   -1    0    0    0    0  0.00000000000E+00  0.00000000000E+00  0.45593999997E+02  0.45594000000E+02  0.51100000000E-03 0. -1.
         11   -1    0    0    0    0 -0.00000000000E+00 -0.00000000000E+00 -0.45593999997E+02  0.45594000000E+02  0.51100000000E-03 0.  1.
    9900012    2    1    2    0    0 -0.31475910166E+02  0.27355713625E+01  0.43017140390E+01  0.59301936977E+02  0.49999987141E+02 0.  0.
         12    1    1    2    0    0  0.31475910166E+02 -0.27355713625E+01 -0.43017140390E+01  0.31886063023E+02  0.00000000000E+00 0. -1.
         11    1    3    3    0    0 -0.13303378749E+02 -0.15269652636E+02  0.51718150286E+01  0.20901910168E+02  0.51100000000E-03 0. -1.
        -11    1    3    3    0    0 -0.89733845004E+01 -0.54692927990E+01  0.62172310649E+01  0.12210190641E+02  0.51100000000E-03 0.  1.
        -12    1    3    3    0    0 -0.91991469165E+01  0.23474516797E+02 -0.70873320545E+01  0.26189836168E+02  0.00000000000E+00 0.  1.
</event>
<event>
 7    1  0.1205909E-011  0.5930196E+02  0.7816164E-02  0.1266605E+00
        -11   -1    0    0    0    0  0.00000000000E+00  0.00000000000E+00  0.45593999997E+02  0.45594000000E+02  0.51100000000E-03 0. -1.
         11   -1    0    0    0    0 -0.00000000000E+00 -0.00000000000E+00 -0.45593999997E+02  0.45594000000E+02  0.51100000000E-03 0.  1.
    9900012    2    1    2    0    0 -0.40079767287E+01 -0.14919782766E+02 -0.27893653141E+02  0.59301957900E+02  0.50000025300E+02 0.  0.
         12    1    1    2    0    0  0.40079767287E+01  0.14919782766E+02  0.27893653141E+02  0.31886042100E+02  0.00000000000E+00 0. -1.
         11    1    3    3    0    0 -0.75966970738E+01 -0.40089277033E+01 -0.11646378783E+02  0.14471331894E+02  0.51100000000E-03 0.  1.
        -11    1    3    3    0    0 -0.12786364155E+02  0.54443754734E+01  0.35846483074E+01  0.14352074288E+02  0.51100000000E-03 0. -1.
         12    1    3    3    0    0  0.16375084500E+02 -0.16355230537E+02 -0.19831922665E+02  0.30478551719E+02  0.00000000000E+00 0. -1.
</event>
<event>
 7    1  0.1205909E-011  0.5930193E+02  0.7816164E-02  0.1266605E+00
        -11   -1    0    0    0    0  0.00000000000E+00  0.00000000000E+00  0.45593999997E+02  0.45594000000E+02  0.51100000000E-03 0.  1.
         11   -1    0    0    0    0 -0.00000000000E+00 -0.00000000000E+00 -0.45593999997E+02  0.45594000000E+02  0.51100000000E-03 0. -1.
    9900012    2    1    2    0    0  0.31793492648E+02 -0.19623113547E+01 -0.14298937716E+01  0.59301930364E+02  0.49999975080E+02 0.  0.
         12    1    1    2    0    0 -0.31793492648E+02  0.19623113547E+01  0.14298937716E+01  0.31886069636E+02  0.00000000000E+00 0. -1.
         11    1    3    3    0    0  0.66022463418E-01  0.85708418865E+01  0.13084431810E+02  0.15641804425E+02  0.51100000000E-03 0.  1.
        -11    1    3    3    0    0 -0.77204088850E+00 -0.83894966361E+01 -0.46806862130E+01  0.96378692991E+01  0.51100000000E-03 0. -1.
        -12    1    3    3    0    0  0.32499511074E+02 -0.21436566051E+01 -0.98336393685E+01  0.34022256640E+02  0.00000000000E+00 0.  1.
</event>
<event>
 7    1  0.1205909E-011  0.5930194E+02  0.7816164E-02  0.1266605E+00
        -11   -1    0    0    0    0  0.00000000000E+00  0.00000000000E+00  0.45593999997E+02  0.45594000000E+02  0.51100000000E-03 0.  1.
         11   -1    0    0    0    0 -0.00000000000E+00 -0.00000000000E+00 -0.45593999997E+02  0.45594000000E+02  0.51100000000E-03 0. -1.
    9900012    2    1    2    0    0  0.16350942014E+02  0.73508201048E+01  0.26369166965E+02  0.59301939921E+02  0.49999992510E+02 0.  0.
         12    1    1    2    0    0 -0.16350942014E+02 -0.73508201048E+01 -0.26369166965E+02  0.31886060079E+02  0.00000000000E+00 0. -1.
         11    1    3    3    0    0  0.16745582418E+01 -0.12216510572E+01  0.22132911117E+02  0.22229762288E+02  0.51100000000E-03 0. -1.
        -11    1    3    3    0    0  0.16287852809E+02  0.16511811761E+02  0.11770283339E+02  0.26009106999E+02  0.51100000000E-03 0.  1.
         12    1    3    3    0    0 -0.16114690369E+01 -0.79393405993E+01 -0.75340274909E+01  0.11063070634E+02  0.00000000000E+00 0. -1.
</event>
<event>
 7    1  0.1205909E-011  0.5930197E+02  0.7816164E-02  0.1266605E+00
        -11   -1    0    0    0    0  0.00000000000E+00  0.00000000000E+00  0.45593999997E+02  0.45594000000E+02  0.51100000000E-03 0.  1.
         11   -1    0    0    0    0 -0.00000000000E+00 -0.00000000000E+00 -0.45593999997E+02  0.45594000000E+02  0.51100000000E-03 0. -1.
    9900012    2    1    2    0    0  0.71016365094E+00 -0.30684307071E+02 -0.86422139040E+01  0.59301970238E+02  0.50000047801E+02 0.  0.
         12    1    1    2    0    0 -0.71016365094E+00  0.30684307071E+02  0.86422139040E+01  0.31886029762E+02  0.00000000000E+00 0. -1.
         11    1    3    3    0    0 -0.84311091391E+01 -0.95721126858E-01 -0.40834176997E-01  0.84317513922E+01  0.51100000000E-03 0. -1.
        -11    1    3    3    0    0 -0.94052602767E+01  0.42166974834E+01  0.76275064829E+00  0.10335436486E+02  0.51100000000E-03 0.  1.
         12    1    3    3    0    0  0.18546533067E+02 -0.34805283428E+02 -0.93641303753E+01  0.40534782360E+02  0.00000000000E+00 0. -1.
</event>
<event>
 7    1  0.1205909E-011  0.5930192E+02  0.7816164E-02  0.1266605E+00
        -11   -1    0    0    0    0  0.00000000000E+00  0.00000000000E+00  0.45593999997E+02  0.45594000000E+02  0.51100000000E-03 0. -1.
         11   -1    0    0    0    0 -0.00000000000E+00 -0.00000000000E+00 -0.45593999997E+02  0.45594000000E+02  0.51100000000E-03 0.  1.
    9900012    2    1    2    0    0 -0.47644307097E+01 -0.19139142430E+01 -0.31469977218E+02  0.59301916298E+02  0.49999949428E+02 0.  0.
         12    1    1    2    0    0  0.47644307097E+01  0.19139142430E+01  0.31469977218E+02  0.31886083702E+02  0.00000000000E+00 0. -1.
         11    1    3    3    0    0 -0.18603759085E+02 -0.87016566262E+01 -0.20463157559E+02  0.28992404137E+02  0.51100000000E-03 0. -1.
        -11    1    3    3    0    0 -0.17959787818E+01 -0.68746133286E+01 -0.50211976619E+01  0.87004755286E+01  0.51100000000E-03 0.  1.
         12    1    3    3    0    0  0.15635307157E+02  0.13662355712E+02 -0.59856219974E+01  0.21609036632E+02  0.00000000000E+00 0. -1.
</event>
<event>
 7    1  0.1205909E-011  0.5930198E+02  0.7816164E-02  0.1266605E+00
        -11   -1    0    0    0    0  0.00000000000E+00  0.00000000000E+00  0.45593999997E+02  0.45594000000E+02  0.51100000000E-03 0.  1.
         11   -1    0    0    0    0 -0.00000000000E+00 -0.00000000000E+00 -0.45593999997E+02  0.45594000000E+02  0.51100000000E-03 0. -1.
    9900012    2    1    2    0    0  0.31619068332E+02 -0.31518756758E+01  0.26492856883E+01  0.59301976147E+02  0.50000058578E+02 0.  0.
         12    1    1    2    0    0 -0.31619068332E+02  0.31518756758E+01 -0.26492856883E+01  0.31886023853E+02  0.00000000000E+00 0. -1.
         11    1    3    3    0    0 -0.69223679048E+01  0.21229894181E+01  0.13664104868E+01  0.73684014113E+01  0.51100000000E-03 0. -1.
        -11    1    3    3    0    0  0.16474194098E+02  0.13131642447E+02  0.78047007462E+01  0.22466696653E+02  0.51100000000E-03 0.  1.
        -12    1    3    3    0    0  0.22067242140E+02 -0.18406507541E+02 -0.65218255447E+01  0.29466878083E+02  0.00000000000E+00 0.  1.
</event>
<event>
 7    1  0.1205909E-011  0.5930193E+02  0.7816164E-02  0.1266605E+00
        -11   -1    0    0    0    0  0.00000000000E+00  0.00000000000E+00  0.45593999997E+02  0.45594000000E+02  0.51100000000E-03 0.  1.
         11   -1    0    0    0    0 -0.00000000000E+00 -0.00000000000E+00 -0.45593999997E+02  0.45594000000E+02  0.51100000000E-03 0. -1.
    9900012    2    1    2    0    0 -0.21401146009E+02  0.22165658142E+02 -0.82095003057E+01  0.59301931778E+02  0.49999977659E+02 0.  0.
         12    1    1    2    0    0  0.21401146009E+02 -0.22165658142E+02  0.82095003057E+01  0.31886068222E+02  0.00000000000E+00 0. -1.
         11    1    3    3    0    0  0.48162559794E+01 -0.25985001423E+01 -0.32729642859E+01  0.63765837348E+01  0.51100000000E-03 0. -1.
        -11    1    3    3    0    0  0.98981850494E+01  0.82496649402E+01  0.16774091642E+00  0.12886395003E+02  0.51100000000E-03 0.  1.
        -12    1    3    3    0    0 -0.36115587038E+02  0.16514493344E+02 -0.51042769362E+01  0.40038953040E+02  0.00000000000E+00 0.  1.
</event>
<event>
 7    1  0.1205909E-011  0.5930195E+02  0.7816164E-02  0.1266605E+00
        -11   -1    0    0    0    0  0.00000000000E+00  0.00000000000E+00  0.45593999997E+02  0.45594000000E+02  0.51100000000E-03 0.  1.
         11   -1    0    0    0    0 -0.00000000000E+00 -0.00000000000E+00 -0.45593999997E+02  0.45594000000E+02  0.51100000000E-03 0. -1.
    9900012    2    1    2    0    0 -0.20427214381E+02  0.19068728716E+02  0.15356840769E+02  0.59301951944E+02  0.50000014438E+02 0.  0.
         12    1    1    2    0    0  0.20427214381E+02 -0.19068728716E+02 -0.15356840769E+02  0.31886048056E+02  0.00000000000E+00 0. -1.
         11    1    3    3    0    0  0.11147287455E+02  0.10148309369E+01 -0.39249280203E+01  0.11861574923E+02  0.51100000000E-03 0. -1.
        -11    1    3    3    0    0  0.22774549925E+01  0.39074004001E+01 -0.20882493725E+01  0.49815022667E+01  0.51100000000E-03 0.  1.
        -12    1    3    3    0    0 -0.33851956828E+02  0.14146497379E+02  0.21370018162E+02  0.42458874755E+02  0.00000000000E+00 0.  1.
</event>
<event>
 7    1  0.1205909E-011  0.5930194E+02  0.7816164E-02  0.1266605E+00
        -11   -1    0    0    0    0  0.00000000000E+00  0.00000000000E+00  0.45593999997E+02  0.45594000000E+02  0.51100000000E-03 0.  1.
         11   -1    0    0    0    0 -0.00000000000E+00 -0.00000000000E+00 -0.45593999997E+02  0.45594000000E+02  0.51100000000E-03 0. -1.
    9900012    2    1    2    0    0 -0.83319349021E+01  0.30667045410E+02  0.26137811077E+01  0.59301942466E+02  0.49999997152E+02 0.  0.
         12    1    1    2    0    0  0.83319349021E+01 -0.30667045410E+02 -0.26137811077E+01  0.31886057534E+02  0.00000000000E+00 0. -1.
         11    1    3    3    0    0  0.47928815011E+01  0.64325750635E+01  0.86035703653E+01  0.11763127064E+02  0.51100000000E-03 0. -1.
        -11    1    3    3    0    0  0.13373212583E+02  0.88950979074E+01 -0.53006727041E+01  0.16913388571E+02  0.51100000000E-03 0.  1.
         12    1    3    3    0    0 -0.26498028986E+02  0.15339372439E+02 -0.68911655358E+00  0.30625426831E+02  0.00000000000E+00 0. -1.
</event>
<event>
 7    1  0.1205909E-011  0.5930192E+02  0.7816164E-02  0.1266605E+00
        -11   -1    0    0    0    0  0.00000000000E+00  0.00000000000E+00  0.45593999997E+02  0.45594000000E+02  0.51100000000E-03 0.  1.
         11   -1    0    0    0    0 -0.00000000000E+00 -0.00000000000E+00 -0.45593999997E+02  0.45594000000E+02  0.51100000000E-03 0. -1.
    9900012    2    1    2    0    0 -0.35963693721E+01 -0.28653794204E+02 -0.13518440049E+02  0.59301921278E+02  0.49999958509E+02 0.  0.
         12    1    1    2    0    0  0.35963693721E+01  0.28653794204E+02  0.13518440049E+02  0.31886078722E+02  0.00000000000E+00 0. -1.
         11    1    3    3    0    0  0.88527732540E+01 -0.28819091543E+02 -0.12200021396E+01  0.30172836081E+02  0.51100000000E-03 0. -1.
        -11    1    3    3    0    0  0.57205429198E+01 -0.46609229933E+01 -0.17948033729E+01  0.75940854522E+01  0.51100000000E-03 0.  1.
         12    1    3    3    0    0 -0.18169685546E+02  0.48262203329E+01 -0.10503634536E+02  0.21534999745E+02  0.00000000000E+00 0. -1.
</event>
<event>
 7    1  0.1205909E-011  0.5930196E+02  0.7816164E-02  0.1266605E+00
        -11   -1    0    0    0    0  0.00000000000E+00  0.00000000000E+00  0.45593999997E+02  0.45594000000E+02  0.51100000000E-03 0.  1.
         11   -1    0    0    0    0 -0.00000000000E+00 -0.00000000000E+00 -0.45593999997E+02  0.45594000000E+02  0.51100000000E-03 0. -1.
    9900012    2    1    2    0    0  0.24819296993E+02 -0.19234827639E+02  0.55446986215E+01  0.59301956340E+02  0.50000022454E+02 0.  0.
         12    1    1    2    0    0 -0.24819296993E+02  0.19234827639E+02 -0.55446986215E+01  0.31886043660E+02  0.00000000000E+00 0. -1.
         11    1    3    3    0    0  0.14272765119E+02  0.88034907489E+00 -0.48997784038E+00  0.14308281419E+02  0.51100000000E-03 0. -1.
        -11    1    3    3    0    0  0.48696142107E+01 -0.75065106561E+01 -0.16375600830E+02  0.18660684543E+02  0.51100000000E-03 0.  1.
        -12    1    3    3    0    0  0.56769176633E+01 -0.12608666058E+02  0.22410277292E+02  0.26332990378E+02  0.00000000000E+00 0.  1.
</event>
<event>
 7    1  0.1205909E-011  0.5930196E+02  0.7816164E-02  0.1266605E+00
        -11   -1    0    0    0    0  0.00000000000E+00  0.00000000000E+00  0.45593999997E+02  0.45594000000E+02  0.51100000000E-03 0.  1.
         11   -1    0    0    0    0 -0.00000000000E+00 -0.00000000000E+00 -0.45593999997E+02  0.45594000000E+02  0.51100000000E-03 0. -1.
    9900012    2    1    2    0    0 -0.15946290687E+02  0.16487936747E+02  0.22149119913E+02  0.59301956693E+02  0.50000023099E+02 0.  0.
         12    1    1    2    0    0  0.15946290687E+02 -0.16487936747E+02 -0.22149119913E+02  0.31886043307E+02  0.00000000000E+00 0. -1.
         11    1    3    3    0    0 -0.12430080425E+02  0.48537793737E+01 -0.90236911776E+00  0.13374615653E+02  0.51100000000E-03 0. -1.
        -11    1    3    3    0    0  0.21052154882E+01  0.12971746408E+02 -0.72984996944E+01  0.15032173335E+02  0.51100000000E-03 0.  1.
        -12    1    3    3    0    0 -0.56214257506E+01 -0.13375890351E+01  0.30349988725E+02  0.30895167705E+02  0.00000000000E+00 0.  1.
</event>
<event>
 7    1  0.1205909E-011  0.5930194E+02  0.7816164E-02  0.1266605E+00
        -11   -1    0    0    0    0  0.00000000000E+00  0.00000000000E+00  0.45593999997E+02  0.45594000000E+02  0.51100000000E-03 0.  1.
         11   -1    0    0    0    0 -0.00000000000E+00 -0.00000000000E+00 -0.45593999997E+02  0.45594000000E+02  0.51100000000E-03 0. -1.
    9900012    2    1    2    0    0  0.13821166053E+02  0.15986241392E+01  0.28690425776E+02  0.59301940955E+02  0.49999994396E+02 0.  0.
         12    1    1    2    0    0 -0.13821166053E+02 -0.15986241392E+01 -0.28690425776E+02  0.31886059045E+02  0.00000000000E+00 0. -1.
         11    1    3    3    0    0  0.10959648878E+02 -0.50399557668E+01  0.11124805804E+02  0.16409642352E+02  0.51100000000E-03 0. -1.
        -11    1    3    3    0    0  0.17414019508E+02 -0.66200356520E+01  0.12900374021E+02  0.22660375055E+02  0.51100000000E-03 0.  1.
         12    1    3    3    0    0 -0.14552502333E+02  0.13258615558E+02  0.46652459508E+01  0.20231923548E+02  0.00000000000E+00 0. -1.
</event>
<event>
 7    1  0.1205909E-011  0.5930193E+02  0.7816164E-02  0.1266605E+00
        -11   -1    0    0    0    0  0.00000000000E+00  0.00000000000E+00  0.45593999997E+02  0.45594000000E+02  0.51100000000E-03 0.  1.
         11   -1    0    0    0    0 -0.00000000000E+00 -0.00000000000E+00 -0.45593999997E+02  0.45594000000E+02  0.51100000000E-03 0. -1.
    9900012    2    1    2    0    0 -0.22793376879E+02  0.16878988408E+02  0.14569948063E+02  0.59301926774E+02  0.49999968533E+02 0.  0.
         12    1    1    2    0    0  0.22793376879E+02 -0.16878988408E+02 -0.14569948063E+02  0.31886073226E+02  0.00000000000E+00 0. -1.
         11    1    3    3    0    0 -0.10584951551E+02 -0.11544984890E+02  0.18540659386E+02  0.24271051196E+02  0.51100000000E-03 0. -1.
        -11    1    3    3    0    0 -0.11035365783E+02  0.13746227651E+02  0.42970617258E+01  0.18143946989E+02  0.51100000000E-03 0.  1.
        -12    1    3    3    0    0 -0.11730595447E+01  0.14677745647E+02 -0.82677730486E+01  0.16886928589E+02  0.00000000000E+00 0.  1.
</event>
<event>
 7    1  0.1205909E-011  0.5930175E+02  0.7816164E-02  0.1266605E+00
        -11   -1    0    0    0    0  0.00000000000E+00  0.00000000000E+00  0.45593999997E+02  0.45594000000E+02  0.51100000000E-03 0.  1.
         11   -1    0    0    0    0 -0.00000000000E+00 -0.00000000000E+00 -0.45593999997E+02  0.45594000000E+02  0.51100000000E-03 0. -1.
    9900012    2    1    2    0    0 -0.40621950626E+01  0.77775708127E+00  0.31616871661E+02  0.59301750480E+02  0.49999647015E+02 0.  0.
         12    1    1    2    0    0  0.40621950626E+01 -0.77775708127E+00 -0.31616871661E+02  0.31886249520E+02  0.00000000000E+00 0. -1.
         11    1    3    3    0    0 -0.90754092717E+01  0.61826522783E+01 -0.26985318626E+01  0.11307975819E+02  0.51100000000E-03 0. -1.
        -11    1    3    3    0    0 -0.86152436316E+00  0.10669251885E+02  0.27611249314E+02  0.29613447097E+02  0.51100000000E-03 0.  1.
        -12    1    3    3    0    0  0.58747385723E+01 -0.16074147082E+02  0.67041542095E+01  0.18380327565E+02  0.00000000000E+00 0.  1.
</event>
<event>
 7    1  0.1205909E-011  0.5930201E+02  0.7816164E-02  0.1266605E+00
        -11   -1    0    0    0    0  0.00000000000E+00  0.00000000000E+00  0.45593999997E+02  0.45594000000E+02  0.51100000000E-03 0.  1.
         11   -1    0    0    0    0 -0.00000000000E+00 -0.00000000000E+00 -0.45593999997E+02  0.45594000000E+02  0.51100000000E-03 0. -1.
    9900012    2    1    2    0    0 -0.15184304037E+02  0.10202229842E+02  0.26116425680E+02  0.59302011335E+02  0.50000122752E+02 0.  0.
         12    1    1    2    0    0  0.15184304037E+02 -0.10202229842E+02 -0.26116425680E+02  0.31885988665E+02  0.00000000000E+00 0. -1.
         11    1    3    3    0    0  0.10998728613E+02 -0.71737945546E+01  0.35773219386E+01  0.13610018073E+02  0.51100000000E-03 0. -1.
        -11    1    3    3    0    0 -0.13383854771E+02 -0.22753910177E+00 -0.12557005301E+01  0.13444557511E+02  0.51100000000E-03 0.  1.
        -12    1    3    3    0    0 -0.12799177879E+02  0.17603563498E+02  0.23794804272E+02  0.32247435752E+02  0.00000000000E+00 0.  1.
</event>
<event>
 7    1  0.1205909E-011  0.5930193E+02  0.7816164E-02  0.1266605E+00
        -11   -1    0    0    0    0  0.00000000000E+00  0.00000000000E+00  0.45593999997E+02  0.45594000000E+02  0.51100000000E-03 0.  1.
         11   -1    0    0    0    0 -0.00000000000E+00 -0.00000000000E+00 -0.45593999997E+02  0.45594000000E+02  0.51100000000E-03 0. -1.
    9900012    2    1    2    0    0  0.25755433655E+02  0.13040623741E+02  0.13539623649E+02  0.59301927196E+02  0.49999969303E+02 0.  0.
         12    1    1    2    0    0 -0.25755433655E+02 -0.13040623741E+02 -0.13539623649E+02  0.31886072804E+02  0.00000000000E+00 0. -1.
         11    1    3    3    0    0  0.83105224049E+01 -0.50270297669E+01  0.14384716535E+02  0.17356724373E+02  0.51100000000E-03 0. -1.
        -11    1    3    3    0    0  0.22853084378E+02  0.12264855744E+02  0.10601054110E+02  0.28019145249E+02  0.51100000000E-03 0.  1.
         12    1    3    3    0    0 -0.54081731276E+01  0.58027977635E+01 -0.11446146996E+02  0.13926057573E+02  0.00000000000E+00 0. -1.
</event>
<event>
 7    1  0.1309652E-011  0.5930209E+02  0.7816164E-02  0.1266604E+00
        -11   -1    0    0    0    0  0.00000000000E+00  0.00000000000E+00  0.45593999997E+02  0.45594000000E+02  0.51100000000E-03 0.  1.
         11   -1    0    0    0    0 -0.00000000000E+00 -0.00000000000E+00 -0.45593999997E+02  0.45594000000E+02  0.51100000000E-03 0. -1.
    9900012    2    1    2    0    0 -0.28483949509E+02 -0.15437554951E+01  0.14247544882E+02  0.59302092520E+02  0.50000270813E+02 0.  0.
         12    1    1    2    0    0  0.28483949509E+02  0.15437554951E+01 -0.14247544882E+02  0.31885907480E+02  0.00000000000E+00 0. -1.
         11    1    3    3    0    0 -0.23782851260E+02  0.71902152237E+01 -0.50542889158E+01  0.25354862368E+02  0.51100000000E-03 0. -1.
        -11    1    3    3    0    0 -0.70075891263E+01 -0.12140528044E+02 -0.19694814032E+00  0.14019183834E+02  0.51100000000E-03 0.  1.
        -12    1    3    3    0    0  0.23064908765E+01  0.34065573247E+01  0.19498781938E+02  0.19928046318E+02  0.00000000000E+00 0.  1.
</event>
<event>
 7    1  0.1205909E-011  0.5930191E+02  0.7816164E-02  0.1266605E+00
        -11   -1    0    0    0    0  0.00000000000E+00  0.00000000000E+00  0.45593999997E+02  0.45594000000E+02  0.51100000000E-03 0.  1.
         11   -1    0    0    0    0 -0.00000000000E+00 -0.00000000000E+00 -0.45593999997E+02  0.45594000000E+02  0.51100000000E-03 0. -1.
    9900012    2    1    2    0    0 -0.16047456778E+02 -0.25801626545E+02  0.96683866229E+01  0.59301913672E+02  0.49999944639E+02 0.  0.
         12    1    1    2    0    0  0.16047456778E+02  0.25801626545E+02 -0.96683866229E+01  0.31886086328E+02  0.00000000000E+00 0. -1.
         11    1    3    3    0    0 -0.21543623853E+01  0.11684492315E+02 -0.27481958527E+01  0.12195130940E+02  0.51100000000E-03 0. -1.
        -11    1    3    3    0    0 -0.16399874626E+02 -0.18413841202E+02  0.12972656550E+02  0.27862434455E+02  0.51100000000E-03 0.  1.
        -12    1    3    3    0    0  0.25067802338E+01 -0.19072277658E+02 -0.55607407424E+00  0.19244348277E+02  0.00000000000E+00 0.  1.
</event>
<event>
 7    1  0.1205909E-011  0.5930204E+02  0.7816164E-02  0.1266604E+00
        -11   -1    0    0    0    0  0.00000000000E+00  0.00000000000E+00  0.45593999997E+02  0.45594000000E+02  0.51100000000E-03 0.  1.
         11   -1    0    0    0    0 -0.00000000000E+00 -0.00000000000E+00 -0.45593999997E+02  0.45594000000E+02  0.51100000000E-03 0. -1.
    9900012    2    1    2    0    0 -0.11444127378E+02 -0.44095600718E+00  0.29758227823E+02  0.59302037308E+02  0.50000170120E+02 0.  0.
         12    1    1    2    0    0  0.11444127378E+02  0.44095600718E+00 -0.29758227823E+02  0.31885962692E+02  0.00000000000E+00 0. -1.
         11    1    3    3    0    0 -0.13595428259E+01 -0.74711183242E+01 -0.24304937698E+01  0.79732845137E+01  0.51100000000E-03 0. -1.
        -11    1    3    3    0    0  0.39145580465E+01 -0.48381546781E+01 -0.61961033780E+01  0.87819817080E+01  0.51100000000E-03 0.  1.
        -12    1    3    3    0    0 -0.13999142598E+02  0.11868316995E+02  0.38384824971E+02  0.42546771086E+02  0.00000000000E+00 0.  1.
</event>
<event>
 7    1  0.1205909E-011  0.5930193E+02  0.7816164E-02  0.1266605E+00
        -11   -1    0    0    0    0  0.00000000000E+00  0.00000000000E+00  0.45593999997E+02  0.45594000000E+02  0.51100000000E-03 0.  1.
         11   -1    0    0    0    0 -0.00000000000E+00 -0.00000000000E+00 -0.45593999997E+02  0.45594000000E+02  0.51100000000E-03 0. -1.
    9900012    2    1    2    0    0 -0.11391485641E+02 -0.11209925731E+01  0.29760689759E+02  0.59301933695E+02  0.49999981155E+02 0.  0.
         12    1    1    2    0    0  0.11391485641E+02  0.11209925731E+01 -0.29760689759E+02  0.31886066305E+02  0.00000000000E+00 0. -1.
         11    1    3    3    0    0 -0.93074008298E+01  0.13224322180E+02  0.14255922195E+02  0.21557869218E+02  0.51100000000E-03 0. -1.
        -11    1    3    3    0    0 -0.15357276621E+02 -0.24184233246E+01  0.26965381678E+01  0.15778657578E+02  0.51100000000E-03 0.  1.
         12    1    3    3    0    0  0.13273191810E+02 -0.11926891429E+02  0.12808229396E+02  0.21965406899E+02  0.00000000000E+00 0. -1.
</event>
<event>
 7    1  0.1205909E-011  0.5930192E+02  0.7816164E-02  0.1266605E+00
        -11   -1    0    0    0    0  0.00000000000E+00  0.00000000000E+00  0.45593999997E+02  0.45594000000E+02  0.51100000000E-03 0.  1.
         11   -1    0    0    0    0 -0.00000000000E+00 -0.00000000000E+00 -0.45593999997E+02  0.45594000000E+02  0.51100000000E-03 0. -1.
    9900012    2    1    2    0    0  0.13243980673E+02 -0.28162687374E+02 -0.69413355889E+01  0.59301919589E+02  0.49999955430E+02 0.  0.
         12    1    1    2    0    0 -0.13243980673E+02  0.28162687374E+02  0.69413355889E+01  0.31886080411E+02  0.00000000000E+00 0. -1.
         11    1    3    3    0    0  0.11637230438E+02  0.36922155309E+01 -0.76701228612E+01  0.14418334604E+02  0.51100000000E-03 0. -1.
        -11    1    3    3    0    0  0.50582858276E+01  0.10930418316E+01 -0.89778719848E+01  0.10362585662E+02  0.51100000000E-03 0.  1.
         12    1    3    3    0    0 -0.34515355922E+01 -0.32947944737E+02  0.97066592571E+01  0.34520999323E+02  0.00000000000E+00 0. -1.
</event>
<event>
 7    1  0.1205909E-011  0.5930195E+02  0.7816164E-02  0.1266605E+00
        -11   -1    0    0    0    0  0.00000000000E+00  0.00000000000E+00  0.45593999997E+02  0.45594000000E+02  0.51100000000E-03 0. -1.
         11   -1    0    0    0    0 -0.00000000000E+00 -0.00000000000E+00 -0.45593999997E+02  0.45594000000E+02  0.51100000000E-03 0.  1.
    9900012    2    1    2    0    0 -0.19711400337E+02 -0.21172716830E+02 -0.13412561709E+02  0.59301952067E+02  0.50000014662E+02 0.  0.
         12    1    1    2    0    0  0.19711400337E+02  0.21172716830E+02  0.13412561709E+02  0.31886047933E+02  0.00000000000E+00 0. -1.
         11    1    3    3    0    0  0.56475362705E+01 -0.11803803647E+02  0.50565024756E+01  0.14028280864E+02  0.51100000000E-03 0. -1.
        -11    1    3    3    0    0 -0.83529849484E+01  0.46882783000E+01  0.67854918723E+01  0.11738620497E+02  0.51100000000E-03 0.  1.
         12    1    3    3    0    0 -0.17005951659E+02 -0.14057191483E+02 -0.25254556056E+02  0.33535050705E+02  0.00000000000E+00 0. -1.
</event>
<event>
 7    1  0.1205909E-011  0.5930226E+02  0.7816164E-02  0.1266604E+00
        -11   -1    0    0    0    0  0.00000000000E+00  0.00000000000E+00  0.45593999997E+02  0.45594000000E+02  0.51100000000E-03 0. -1.
         11   -1    0    0    0    0 -0.00000000000E+00 -0.00000000000E+00 -0.45593999997E+02  0.45594000000E+02  0.51100000000E-03 0.  1.
    9900012    2    1    2    0    0  0.26082747927E+02  0.78905035924E+00 -0.18323983003E+02  0.59302255646E+02  0.50000568315E+02 0.  0.
         12    1    1    2    0    0 -0.26082747927E+02 -0.78905035924E+00  0.18323983003E+02  0.31885744354E+02  0.00000000000E+00 0. -1.
         11    1    3    3    0    0  0.33636796389E+01  0.59123482070E+01  0.81291119115E+00  0.68506223731E+01  0.51100000000E-03 0. -1.
        -11    1    3    3    0    0 -0.60743769994E+01  0.54982363447E+01 -0.20142517651E+02  0.21745106953E+02  0.51100000000E-03 0.  1.
        -12    1    3    3    0    0  0.28793445287E+02 -0.10621534192E+02  0.10056234566E+01  0.30706526320E+02  0.00000000000E+00 0.  1.
</event>
<event>
 7    1  0.1205909E-011  0.5930197E+02  0.7816164E-02  0.1266605E+00
        -11   -1    0    0    0    0  0.00000000000E+00  0.00000000000E+00  0.45593999997E+02  0.45594000000E+02  0.51100000000E-03 0.  1.
         11   -1    0    0    0    0 -0.00000000000E+00 -0.00000000000E+00 -0.45593999997E+02  0.45594000000E+02  0.51100000000E-03 0. -1.
    9900012    2    1    2    0    0 -0.31299070897E+02 -0.48677248798E+01  0.36595860750E+01  0.59301966149E+02  0.50000040344E+02 0.  0.
         12    1    1    2    0    0  0.31299070897E+02  0.48677248798E+01 -0.36595860750E+01  0.31886033851E+02  0.00000000000E+00 0. -1.
         11    1    3    3    0    0 -0.90717310963E+01 -0.84459925702E+01 -0.13176521225E+02  0.18090102471E+02  0.51100000000E-03 0. -1.
        -11    1    3    3    0    0 -0.13851906176E+02 -0.94168933880E+01 -0.19716058176E+01  0.16865361412E+02  0.51100000000E-03 0.  1.
         12    1    3    3    0    0 -0.83754336245E+01  0.12995161078E+02  0.18807713117E+02  0.24346502265E+02  0.00000000000E+00 0. -1.
</event>
<event>
 7    1  0.1205909E-011  0.5930195E+02  0.7816164E-02  0.1266605E+00
        -11   -1    0    0    0    0  0.00000000000E+00  0.00000000000E+00  0.45593999997E+02  0.45594000000E+02  0.51100000000E-03 0. -1.
         11   -1    0    0    0    0 -0.00000000000E+00 -0.00000000000E+00 -0.45593999997E+02  0.45594000000E+02  0.51100000000E-03 0.  1.
    9900012    2    1    2    0    0 -0.21188136474E+02  0.76399202757E+01 -0.22570213576E+02  0.59301952112E+02  0.50000014744E+02 0.  0.
         12    1    1    2    0    0  0.21188136474E+02 -0.76399202757E+01  0.22570213576E+02  0.31886047888E+02  0.00000000000E+00 0. -1.
         11    1    3    3    0    0 -0.79375706355E+01 -0.12103936487E+02 -0.76192848079E+01  0.16357377764E+02  0.51100000000E-03 0. -1.
        -11    1    3    3    0    0 -0.13611359484E+02 -0.33659254831E+01 -0.13997477973E+02  0.19812318169E+02  0.51100000000E-03 0.  1.
         12    1    3    3    0    0  0.36079364603E+00  0.23109782246E+02 -0.95345079551E+00  0.23132256179E+02  0.00000000000E+00 0. -1.
</event>
<event>
 7    1  0.1205909E-011  0.5930201E+02  0.7816164E-02  0.1266605E+00
        -11   -1    0    0    0    0  0.00000000000E+00  0.00000000000E+00  0.45593999997E+02  0.45594000000E+02  0.51100000000E-03 0.  1.
         11   -1    0    0    0    0 -0.00000000000E+00 -0.00000000000E+00 -0.45593999997E+02  0.45594000000E+02  0.51100000000E-03 0. -1.
    9900012    2    1    2    0    0  0.16779564882E+02  0.26608119201E+02  0.52125164603E+01  0.59302013534E+02  0.50000126764E+02 0.  0.
         12    1    1    2    0    0 -0.16779564882E+02 -0.26608119201E+02 -0.52125164603E+01  0.31885986466E+02  0.00000000000E+00 0. -1.
         11    1    3    3    0    0  0.31354339855E+02  0.24404760637E+02  0.87359534208E+01  0.40681738555E+02  0.51100000000E-03 0.  1.
        -11    1    3    3    0    0 -0.64876736078E+01  0.63714330319E+01 -0.26976523568E+01  0.94848508802E+01  0.51100000000E-03 0. -1.
        -12    1    3    3    0    0 -0.80871013649E+01 -0.41680744678E+01 -0.82578460371E+00  0.91354240989E+01  0.00000000000E+00 0.  1.
</event>
<event>
 7    1  0.1205909E-011  0.5930196E+02  0.7816164E-02  0.1266605E+00
        -11   -1    0    0    0    0  0.00000000000E+00  0.00000000000E+00  0.45593999997E+02  0.45594000000E+02  0.51100000000E-03 0.  1.
         11   -1    0    0    0    0 -0.00000000000E+00 -0.00000000000E+00 -0.45593999997E+02  0.45594000000E+02  0.51100000000E-03 0. -1.
    9900012    2    1    2    0    0 -0.13570148462E+02 -0.16366005543E+02  0.23763938800E+02  0.59301955184E+02  0.50000020347E+02 0.  0.
         12    1    1    2    0    0  0.13570148462E+02  0.16366005543E+02 -0.23763938800E+02  0.31886044816E+02  0.00000000000E+00 0. -1.
         11    1    3    3    0    0 -0.87583430588E+01 -0.14400363328E+02  0.13351266049E+02  0.21501984617E+02  0.51100000000E-03 0.  1.
        -11    1    3    3    0    0  0.27263127676E+00  0.13731882076E+02 -0.55765124510E+01  0.14823508510E+02  0.51100000000E-03 0. -1.
         12    1    3    3    0    0 -0.50844366797E+01 -0.15697524292E+02  0.15989185202E+02  0.22976462057E+02  0.00000000000E+00 0. -1.
</event>
<event>
 7    1  0.1205909E-011  0.5930193E+02  0.7816164E-02  0.1266605E+00
        -11   -1    0    0    0    0  0.00000000000E+00  0.00000000000E+00  0.45593999997E+02  0.45594000000E+02  0.51100000000E-03 0. -1.
         11   -1    0    0    0    0 -0.00000000000E+00 -0.00000000000E+00 -0.45593999997E+02  0.45594000000E+02  0.51100000000E-03 0.  1.
    9900012    2    1    2    0    0 -0.23733152945E+02  0.19678231335E+02  0.81379268018E+01  0.59301934237E+02  0.49999982144E+02 0.  0.
         12    1    1    2    0    0  0.23733152945E+02 -0.19678231335E+02 -0.81379268018E+01  0.31886065763E+02  0.00000000000E+00 0. -1.
         11    1    3    3    0    0 -0.20701449328E+02  0.54420571048E+00  0.12582437472E+02  0.24231465023E+02  0.51100000000E-03 0. -1.
        -11    1    3    3    0    0 -0.12971410062E+02  0.12563065604E+02  0.62003414726E+01  0.19092729795E+02  0.51100000000E-03 0.  1.
        -12    1    3    3    0    0  0.99397064455E+01  0.65709600204E+01 -0.10644852143E+02  0.15977739419E+02  0.00000000000E+00 0.  1.
</event>
<event>
 7    1  0.1205909E-011  0.5930196E+02  0.7816164E-02  0.1266605E+00
        -11   -1    0    0    0    0  0.00000000000E+00  0.00000000000E+00  0.45593999997E+02  0.45594000000E+02  0.51100000000E-03 0.  1.
         11   -1    0    0    0    0 -0.00000000000E+00 -0.00000000000E+00 -0.45593999997E+02  0.45594000000E+02  0.51100000000E-03 0. -1.
    9900012    2    1    2    0    0 -0.64381686884E+01 -0.19638394555E+02  0.24281743034E+02  0.59301959143E+02  0.50000027567E+02 0.  0.
         12    1    1    2    0    0  0.64381686884E+01  0.19638394555E+02 -0.24281743034E+02  0.31886040857E+02  0.00000000000E+00 0. -1.
         11    1    3    3    0    0  0.28389678933E+01 -0.82298364945E+01  0.18520943366E+02  0.20464977177E+02  0.51100000000E-03 0.  1.
        -11    1    3    3    0    0 -0.20170386056E+02 -0.90581000705E+01  0.12903298252E+02  0.25600561646E+02  0.51100000000E-03 0. -1.
        -12    1    3    3    0    0  0.10893249474E+02 -0.23504579905E+01 -0.71424985839E+01  0.13236420320E+02  0.00000000000E+00 0.  1.
</event>
<event>
 7    1  0.1205909E-011  0.5930188E+02  0.7816164E-02  0.1266605E+00
        -11   -1    0    0    0    0  0.00000000000E+00  0.00000000000E+00  0.45593999997E+02  0.45594000000E+02  0.51100000000E-03 0.  1.
         11   -1    0    0    0    0 -0.00000000000E+00 -0.00000000000E+00 -0.45593999997E+02  0.45594000000E+02  0.51100000000E-03 0. -1.
    9900012    2    1    2    0    0  0.30085265343E+02  0.75853976903E+01  0.73527621293E+01  0.59301881394E+02  0.49999885770E+02 0.  0.
         12    1    1    2    0    0 -0.30085265343E+02 -0.75853976903E+01 -0.73527621293E+01  0.31886118606E+02  0.00000000000E+00 0. -1.
         11    1    3    3    0    0 -0.64379692176E+01  0.43876684391E+01 -0.18782241365E+01  0.80141629723E+01  0.51100000000E-03 0. -1.
        -11    1    3    3    0    0  0.54814679757E+01  0.15921548581E+02  0.42992356597E+01  0.17378884542E+02  0.51100000000E-03 0.  1.
        -12    1    3    3    0    0  0.31041766584E+02 -0.12723819330E+02  0.49317506061E+01  0.33908833880E+02  0.00000000000E+00 0.  1.
</event>
<event>
 7    1  0.1205909E-011  0.5930193E+02  0.7816164E-02  0.1266605E+00
        -11   -1    0    0    0    0  0.00000000000E+00  0.00000000000E+00  0.45593999997E+02  0.45594000000E+02  0.51100000000E-03 0. -1.
         11   -1    0    0    0    0 -0.00000000000E+00 -0.00000000000E+00 -0.45593999997E+02  0.45594000000E+02  0.51100000000E-03 0.  1.
    9900012    2    1    2    0    0 -0.33001909989E+01  0.30608510244E+02 -0.83035905527E+01  0.59301925045E+02  0.49999965380E+02 0.  0.
         12    1    1    2    0    0  0.33001909989E+01 -0.30608510244E+02  0.83035905527E+01  0.31886074955E+02  0.00000000000E+00 0. -1.
         11    1    3    3    0    0  0.22977749566E+01 -0.71674203136E+01  0.63011206908E+01  0.98160993233E+01  0.51100000000E-03 0. -1.
        -11    1    3    3    0    0  0.85519910028E+01  0.12770419632E+02 -0.13935571479E+02  0.20746573703E+02  0.51100000000E-03 0.  1.
        -12    1    3    3    0    0 -0.14149956958E+02  0.25005510925E+02 -0.66913976419E+00  0.28739252018E+02  0.00000000000E+00 0.  1.
</event>
<event>
 7    1  0.1205909E-011  0.5930194E+02  0.7816164E-02  0.1266605E+00
        -11   -1    0    0    0    0  0.00000000000E+00  0.00000000000E+00  0.45593999997E+02  0.45594000000E+02  0.51100000000E-03 0.  1.
         11   -1    0    0    0    0 -0.00000000000E+00 -0.00000000000E+00 -0.45593999997E+02  0.45594000000E+02  0.51100000000E-03 0. -1.
    9900012    2    1    2    0    0  0.72349885316E+01  0.22103475541E+02  0.21813118849E+02  0.59301939661E+02  0.49999992036E+02 0.  0.
         12    1    1    2    0    0 -0.72349885316E+01 -0.22103475541E+02 -0.21813118849E+02  0.31886060339E+02  0.00000000000E+00 0. -1.
         11    1    3    3    0    0  0.97870912641E+00  0.40423471319E+01 -0.11371121830E+02  0.12107883953E+02  0.51100000000E-03 0. -1.
        -11    1    3    3    0    0  0.17111581774E+02  0.95613799670E+01  0.17127137830E+02  0.26030080065E+02  0.51100000000E-03 0.  1.
         12    1    3    3    0    0 -0.10855302369E+02  0.84997484417E+01  0.16057102850E+02  0.21163975643E+02  0.00000000000E+00 0. -1.
</event>
<event>
 7    1  0.1205909E-011  0.5930191E+02  0.7816164E-02  0.1266605E+00
        -11   -1    0    0    0    0  0.00000000000E+00  0.00000000000E+00  0.45593999997E+02  0.45594000000E+02  0.51100000000E-03 0.  1.
         11   -1    0    0    0    0 -0.00000000000E+00 -0.00000000000E+00 -0.45593999997E+02  0.45594000000E+02  0.51100000000E-03 0. -1.
    9900012    2    1    2    0    0 -0.28031399086E+02 -0.12295962408E+02  0.89315454438E+01  0.59301913218E+02  0.49999943811E+02 0.  0.
         12    1    1    2    0    0  0.28031399086E+02  0.12295962408E+02 -0.89315454438E+01  0.31886086782E+02  0.00000000000E+00 0. -1.
         11    1    3    3    0    0 -0.53641210346E+01  0.41007508800E+00  0.21909672659E+02  0.22560490074E+02  0.51100000000E-03 0. -1.
        -11    1    3    3    0    0 -0.17307485194E+02  0.81470342169E+00 -0.11811217936E+00  0.17327052149E+02  0.51100000000E-03 0.  1.
        -12    1    3    3    0    0 -0.53597928570E+01 -0.13520740918E+02 -0.12860015036E+02  0.19414370996E+02  0.00000000000E+00 0.  1.
</event>
<event>
 7    1  0.1205909E-011  0.5930195E+02  0.7816164E-02  0.1266605E+00
        -11   -1    0    0    0    0  0.00000000000E+00  0.00000000000E+00  0.45593999997E+02  0.45594000000E+02  0.51100000000E-03 0.  1.
         11   -1    0    0    0    0 -0.00000000000E+00 -0.00000000000E+00 -0.45593999997E+02  0.45594000000E+02  0.51100000000E-03 0. -1.
    9900012    2    1    2    0    0  0.23662393691E+02 -0.17755000378E+02  0.11898377545E+02  0.59301948162E+02  0.50000007540E+02 0.  0.
         12    1    1    2    0    0 -0.23662393691E+02  0.17755000378E+02 -0.11898377545E+02  0.31886051838E+02  0.00000000000E+00 0. -1.
         11    1    3    3    0    0 -0.22441372046E+01  0.27311242313E+01 -0.15572403229E+01  0.38626660540E+01  0.51100000000E-03 0. -1.
        -11    1    3    3    0    0 -0.78672816635E+01 -0.49944870155E+00 -0.75596691142E+01  0.10922095365E+02  0.51100000000E-03 0.  1.
        -12    1    3    3    0    0  0.33773812559E+02 -0.19986675908E+02  0.21015286982E+02  0.44517186743E+02  0.00000000000E+00 0.  1.
</event>
<event>
 7    1  0.1205909E-011  0.5930194E+02  0.7816164E-02  0.1266605E+00
        -11   -1    0    0    0    0  0.00000000000E+00  0.00000000000E+00  0.45593999997E+02  0.45594000000E+02  0.51100000000E-03 0. -1.
         11   -1    0    0    0    0 -0.00000000000E+00 -0.00000000000E+00 -0.45593999997E+02  0.45594000000E+02  0.51100000000E-03 0.  1.
    9900012    2    1    2    0    0  0.31742747083E+02 -0.73709788805E-01 -0.30188298818E+01  0.59301940988E+02  0.49999994456E+02 0.  0.
         12    1    1    2    0    0 -0.31742747083E+02  0.73709788805E-01  0.30188298818E+01  0.31886059012E+02  0.00000000000E+00 0. -1.
         11    1    3    3    0    0  0.23261268846E+02  0.52737656564E+01  0.17168006275E+02  0.29387746974E+02  0.51100000000E-03 0. -1.
        -11    1    3    3    0    0  0.36421691932E+01  0.75035764050E+01 -0.78754291766E+01  0.11471331234E+02  0.51100000000E-03 0.  1.
        -12    1    3    3    0    0  0.48393090436E+01 -0.12851051850E+02 -0.12311406980E+02  0.18442862779E+02  0.00000000000E+00 0.  1.
</event>
<event>
 7    1  0.1205909E-011  0.5930193E+02  0.7816164E-02  0.1266605E+00
        -11   -1    0    0    0    0  0.00000000000E+00  0.00000000000E+00  0.45593999997E+02  0.45594000000E+02  0.51100000000E-03 0. -1.
         11   -1    0    0    0    0 -0.00000000000E+00 -0.00000000000E+00 -0.45593999997E+02  0.45594000000E+02  0.51100000000E-03 0.  1.
    9900012    2    1    2    0    0  0.24098888136E+01  0.17865061119E+02 -0.26301204147E+02  0.59301932314E+02  0.49999978638E+02 0.  0.
         12    1    1    2    0    0 -0.24098888136E+01 -0.17865061119E+02  0.26301204147E+02  0.31886067686E+02  0.00000000000E+00 0. -1.
         11    1    3    3    0    0 -0.31844287363E+01  0.22517650359E+00  0.56500052706E+01  0.64895185225E+01  0.51100000000E-03 0. -1.
        -11    1    3    3    0    0 -0.13021786977E+02  0.33638014665E+01 -0.24926551903E+02  0.28323401745E+02  0.51100000000E-03 0.  1.
        -12    1    3    3    0    0  0.18616104527E+02  0.14276083149E+02 -0.70246575151E+01  0.24489012047E+02  0.00000000000E+00 0.  1.
</event>
<event>
 7    1  0.1205909E-011  0.5930193E+02  0.7816164E-02  0.1266605E+00
        -11   -1    0    0    0    0  0.00000000000E+00  0.00000000000E+00  0.45593999997E+02  0.45594000000E+02  0.51100000000E-03 0.  1.
         11   -1    0    0    0    0 -0.00000000000E+00 -0.00000000000E+00 -0.45593999997E+02  0.45594000000E+02  0.51100000000E-03 0. -1.
    9900012    2    1    2    0    0  0.31108646753E+02 -0.15083402910E+01  0.68336249610E+01  0.59301930576E+02  0.49999975466E+02 0.  0.
         12    1    1    2    0    0 -0.31108646753E+02  0.15083402910E+01 -0.68336249610E+01  0.31886069424E+02  0.00000000000E+00 0. -1.
         11    1    3    3    0    0  0.56638916521E+01 -0.79752829349E+01 -0.83173002434E+01  0.12839871111E+02  0.51100000000E-03 0. -1.
        -11    1    3    3    0    0 -0.57460953634E+01 -0.75755583891E+01  0.14687702361E+01  0.96210177788E+01  0.51100000000E-03 0.  1.
        -12    1    3    3    0    0  0.31190850464E+02  0.14042501033E+02  0.13682154968E+02  0.36841041686E+02  0.00000000000E+00 0.  1.
</event>
<event>
 7    1  0.1300158E-011  0.5930193E+02  0.7816164E-02  0.1266605E+00
        -11   -1    0    0    0    0  0.00000000000E+00  0.00000000000E+00  0.45593999997E+02  0.45594000000E+02  0.51100000000E-03 0. -1.
         11   -1    0    0    0    0 -0.00000000000E+00 -0.00000000000E+00 -0.45593999997E+02  0.45594000000E+02  0.51100000000E-03 0.  1.
    9900012    2    1    2    0    0 -0.29502465259E+02 -0.31058890834E+00 -0.12092547420E+02  0.59301927414E+02  0.49999969701E+02 0.  0.
         12    1    1    2    0    0  0.29502465259E+02  0.31058890834E+00  0.12092547420E+02  0.31886072586E+02  0.00000000000E+00 0. -1.
         11    1    3    3    0    0 -0.24605657804E+01 -0.12055551206E+02  0.79003595733E+01  0.14622119562E+02  0.51100000000E-03 0. -1.
        -11    1    3    3    0    0 -0.12175571567E+02  0.48972051827E+01  0.56260563922E+01  0.14278643926E+02  0.51100000000E-03 0.  1.
        -12    1    3    3    0    0 -0.14866327911E+02  0.68477571150E+01 -0.25618963386E+02  0.30401163926E+02  0.00000000000E+00 0.  1.
</event>
<event>
 7    1  0.1205909E-011  0.5930209E+02  0.7816164E-02  0.1266604E+00
        -11   -1    0    0    0    0  0.00000000000E+00  0.00000000000E+00  0.45593999997E+02  0.45594000000E+02  0.51100000000E-03 0. -1.
         11   -1    0    0    0    0 -0.00000000000E+00 -0.00000000000E+00 -0.45593999997E+02  0.45594000000E+02  0.51100000000E-03 0.  1.
    9900012    2    1    2    0    0  0.23424537062E+02  0.91951463539E+01 -0.19581926308E+02  0.59302086324E+02  0.50000259513E+02 0.  0.
         12    1    1    2    0    0 -0.23424537062E+02 -0.91951463539E+01  0.19581926308E+02  0.31885913676E+02  0.00000000000E+00 0. -1.
         11    1    3    3    0    0  0.13143501447E+02  0.15293417041E+02  0.52617453783E+01  0.20840494230E+02  0.51100000000E-03 0. -1.
        -11    1    3    3    0    0  0.16742189888E+02  0.40471926784E+01 -0.16239269683E+02  0.23672654496E+02  0.51100000000E-03 0.  1.
         12    1    3    3    0    0 -0.64611542720E+01 -0.10145463365E+02 -0.86044020036E+01  0.14788937598E+02  0.00000000000E+00 0. -1.
</event>
<event>
 7    1  0.1205909E-011  0.5930216E+02  0.7816164E-02  0.1266604E+00
        -11   -1    0    0    0    0  0.00000000000E+00  0.00000000000E+00  0.45593999997E+02  0.45594000000E+02  0.51100000000E-03 0. -1.
         11   -1    0    0    0    0 -0.00000000000E+00 -0.00000000000E+00 -0.45593999997E+02  0.45594000000E+02  0.51100000000E-03 0.  1.
    9900012    2    1    2    0    0  0.99155518962E-01 -0.77798397990E+01 -0.30922015217E+02  0.59302160444E+02  0.50000394690E+02 0.  0.
         12    1    1    2    0    0 -0.99155518962E-01  0.77798397990E+01  0.30922015217E+02  0.31885839556E+02  0.00000000000E+00 0. -1.
         11    1    3    3    0    0 -0.10085789081E+02 -0.50883265258E+00  0.17626018228E+00  0.10100154453E+02  0.51100000000E-03 0. -1.
        -11    1    3    3    0    0 -0.82648556710E+01 -0.13660250429E+02 -0.23149180341E+02  0.28121074513E+02  0.51100000000E-03 0.  1.
        -12    1    3    3    0    0  0.18449800271E+02  0.63892432822E+01 -0.79490950579E+01  0.21080931479E+02  0.00000000000E+00 0.  1.
</event>
<event>
 7    1  0.1205909E-011  0.5930194E+02  0.7816164E-02  0.1266605E+00
        -11   -1    0    0    0    0  0.00000000000E+00  0.00000000000E+00  0.45593999997E+02  0.45594000000E+02  0.51100000000E-03 0. -1.
         11   -1    0    0    0    0 -0.00000000000E+00 -0.00000000000E+00 -0.45593999997E+02  0.45594000000E+02  0.51100000000E-03 0.  1.
    9900012    2    1    2    0    0 -0.22517965160E+02 -0.15948366251E+02 -0.15978475550E+02  0.59301940006E+02  0.49999992665E+02 0.  0.
         12    1    1    2    0    0  0.22517965160E+02  0.15948366251E+02  0.15978475550E+02  0.31886059994E+02  0.00000000000E+00 0. -1.
         11    1    3    3    0    0  0.55191660708E+01 -0.99336971953E+01 -0.20148792640E+02  0.23132517788E+02  0.51100000000E-03 0. -1.
        -11    1    3    3    0    0 -0.17632159396E+02 -0.27319593870E+01 -0.82328860638E+01  0.19650370486E+02  0.51100000000E-03 0.  1.
        -12    1    3    3    0    0 -0.10404971835E+02 -0.32827096688E+01  0.12403203153E+02  0.16519051732E+02  0.00000000000E+00 0.  1.
</event>
<event>
 7    1  0.1205909E-011  0.5930198E+02  0.7816164E-02  0.1266605E+00
        -11   -1    0    0    0    0  0.00000000000E+00  0.00000000000E+00  0.45593999997E+02  0.45594000000E+02  0.51100000000E-03 0.  1.
         11   -1    0    0    0    0 -0.00000000000E+00 -0.00000000000E+00 -0.45593999997E+02  0.45594000000E+02  0.51100000000E-03 0. -1.
    9900012    2    1    2    0    0 -0.20989717168E+02  0.22134980692E+02  0.92840049207E+01  0.59301978856E+02  0.50000063518E+02 0.  0.
         12    1    1    2    0    0  0.20989717168E+02 -0.22134980692E+02 -0.92840049207E+01  0.31886021144E+02  0.00000000000E+00 0. -1.
         11    1    3    3    0    0  0.66864140717E+01 -0.27793430714E+01  0.10749837938E+01  0.73204147058E+01  0.51100000000E-03 0. -1.
        -11    1    3    3    0    0 -0.29723655877E+02  0.18706003513E+02  0.18572563320E+02  0.39728458247E+02  0.51100000000E-03 0.  1.
         12    1    3    3    0    0  0.20475246376E+01  0.62083202510E+01 -0.10363542193E+02  0.12253105903E+02  0.00000000000E+00 0. -1.
</event>
<event>
 7    1  0.1205909E-011  0.5930196E+02  0.7816164E-02  0.1266605E+00
        -11   -1    0    0    0    0  0.00000000000E+00  0.00000000000E+00  0.45593999997E+02  0.45594000000E+02  0.51100000000E-03 0.  1.
         11   -1    0    0    0    0 -0.00000000000E+00 -0.00000000000E+00 -0.45593999997E+02  0.45594000000E+02  0.51100000000E-03 0. -1.
    9900012    2    1    2    0    0 -0.17661755186E+02  0.24407835830E+02  0.10442208310E+02  0.59301956650E+02  0.50000023020E+02 0.  0.
         12    1    1    2    0    0  0.17661755186E+02 -0.24407835830E+02 -0.10442208310E+02  0.31886043350E+02  0.00000000000E+00 0. -1.
         11    1    3    3    0    0 -0.59738626586E+01 -0.27093877353E+01  0.44095626419E+01  0.79039268669E+01  0.51100000000E-03 0. -1.
        -11    1    3    3    0    0 -0.16769668531E+02 -0.14962420085E+01  0.13283905082E+02  0.21445807452E+02  0.51100000000E-03 0.  1.
         12    1    3    3    0    0  0.50817760039E+01  0.28613465573E+02 -0.72512594138E+01  0.29952222331E+02  0.00000000000E+00 0. -1.
</event>
<event>
 7    1  0.1205909E-011  0.5930194E+02  0.7816164E-02  0.1266605E+00
        -11   -1    0    0    0    0  0.00000000000E+00  0.00000000000E+00  0.45593999997E+02  0.45594000000E+02  0.51100000000E-03 0.  1.
         11   -1    0    0    0    0 -0.00000000000E+00 -0.00000000000E+00 -0.45593999997E+02  0.45594000000E+02  0.51100000000E-03 0. -1.
    9900012    2    1    2    0    0  0.15451125205E+02  0.51407710549E+01  0.27414520791E+02  0.59301941176E+02  0.49999994799E+02 0.  0.
         12    1    1    2    0    0 -0.15451125205E+02 -0.51407710549E+01 -0.27414520791E+02  0.31886058824E+02  0.00000000000E+00 0. -1.
         11    1    3    3    0    0  0.25800249363E+02  0.11962305026E+02  0.13382269371E+02  0.31429838411E+02  0.51100000000E-03 0. -1.
        -11    1    3    3    0    0  0.38841771638E+00  0.63083503587E+01  0.82250871249E+00  0.63735918769E+01  0.51100000000E-03 0.  1.
         12    1    3    3    0    0 -0.10737541875E+02 -0.13129884330E+02  0.13209742707E+02  0.21498510888E+02  0.00000000000E+00 0. -1.
</event>
<event>
 7    1  0.1205909E-011  0.5930187E+02  0.7816164E-02  0.1266605E+00
        -11   -1    0    0    0    0  0.00000000000E+00  0.00000000000E+00  0.45593999997E+02  0.45594000000E+02  0.51100000000E-03 0. -1.
         11   -1    0    0    0    0 -0.00000000000E+00 -0.00000000000E+00 -0.45593999997E+02  0.45594000000E+02  0.51100000000E-03 0.  1.
    9900012    2    1    2    0    0  0.26171644064E+02 -0.16082888591E+02 -0.85504901531E+01  0.59301872291E+02  0.49999869169E+02 0.  0.
         12    1    1    2    0    0 -0.26171644064E+02  0.16082888591E+02  0.85504901531E+01  0.31886127709E+02  0.00000000000E+00 0. -1.
         11    1    3    3    0    0  0.51540585965E+01 -0.12246666041E+02  0.30593714843E+01  0.13634694836E+02  0.51100000000E-03 0. -1.
        -11    1    3    3    0    0  0.16782389620E+02 -0.19979534094E+02 -0.14600079406E+01  0.26133541808E+02  0.51100000000E-03 0.  1.
         12    1    3    3    0    0  0.42351958472E+01  0.16143311545E+02 -0.10149853697E+02  0.19533635646E+02  0.00000000000E+00 0. -1.
</event>
<event>
 7    1  0.1205909E-011  0.5930191E+02  0.7816164E-02  0.1266605E+00
        -11   -1    0    0    0    0  0.00000000000E+00  0.00000000000E+00  0.45593999997E+02  0.45594000000E+02  0.51100000000E-03 0.  1.
         11   -1    0    0    0    0 -0.00000000000E+00 -0.00000000000E+00 -0.45593999997E+02  0.45594000000E+02  0.51100000000E-03 0. -1.
    9900012    2    1    2    0    0  0.44618030626E+01  0.21778379051E+02  0.22858629927E+02  0.59301914590E+02  0.49999946312E+02 0.  0.
         12    1    1    2    0    0 -0.44618030626E+01 -0.21778379051E+02 -0.22858629927E+02  0.31886085410E+02  0.00000000000E+00 0. -1.
         11    1    3    3    0    0  0.57299960249E+00 -0.38161553205E+00  0.34111394990E+01  0.34799183757E+01  0.51100000000E-03 0. -1.
        -11    1    3    3    0    0  0.79151243780E+01 -0.19801287747E+01  0.28563343302E+02  0.29705802206E+02  0.51100000000E-03 0.  1.
        -12    1    3    3    0    0 -0.40263209179E+01  0.24140123357E+02 -0.91158528733E+01  0.26116194008E+02  0.00000000000E+00 0.  1.
</event>
<event>
 7    1  0.1205909E-011  0.5930197E+02  0.7816164E-02  0.1266605E+00
        -11   -1    0    0    0    0  0.00000000000E+00  0.00000000000E+00  0.45593999997E+02  0.45594000000E+02  0.51100000000E-03 0.  1.
         11   -1    0    0    0    0 -0.00000000000E+00 -0.00000000000E+00 -0.45593999997E+02  0.45594000000E+02  0.51100000000E-03 0. -1.
    9900012    2    1    2    0    0  0.12501602057E+02  0.28224018244E+02 -0.79896008319E+01  0.59301968869E+02  0.50000045304E+02 0.  0.
         12    1    1    2    0    0 -0.12501602057E+02 -0.28224018244E+02  0.79896008319E+01  0.31886031131E+02  0.00000000000E+00 0. -1.
         11    1    3    3    0    0  0.18197238324E+02  0.35141463829E+01 -0.16741932666E+02  0.24975608442E+02  0.51100000000E-03 0. -1.
        -11    1    3    3    0    0  0.30407331511E+00  0.18935746120E+02 -0.37489994844E+01  0.19305697064E+02  0.51100000000E-03 0.  1.
        -12    1    3    3    0    0 -0.59997095820E+01  0.57741257412E+01  0.12501331318E+02  0.15020663363E+02  0.00000000000E+00 0.  1.
</event>
<event>
 7    1  0.1205909E-011  0.5930186E+02  0.7816164E-02  0.1266605E+00
        -11   -1    0    0    0    0  0.00000000000E+00  0.00000000000E+00  0.45593999997E+02  0.45594000000E+02  0.51100000000E-03 0.  1.
         11   -1    0    0    0    0 -0.00000000000E+00 -0.00000000000E+00 -0.45593999997E+02  0.45594000000E+02  0.51100000000E-03 0. -1.
    9900012    2    1    2    0    0  0.23247428636E+02 -0.46430898941E+01  0.21324269609E+02  0.59301863572E+02  0.49999853268E+02 0.  0.
         12    1    1    2    0    0 -0.23247428636E+02  0.46430898941E+01 -0.21324269609E+02  0.31886136428E+02  0.00000000000E+00 0. -1.
         11    1    3    3    0    0 -0.12042204707E+01  0.17289708655E+00 -0.12421964025E+01  0.17387042612E+01  0.51100000000E-03 0. -1.
        -11    1    3    3    0    0  0.10684551205E+02 -0.15990021773E+02 -0.90960906364E+01  0.21273911156E+02  0.51100000000E-03 0.  1.
        -12    1    3    3    0    0  0.13767097901E+02  0.11174034792E+02  0.31662556648E+02  0.36289248155E+02  0.00000000000E+00 0.  1.
</event>
<event>
 7    1  0.1205909E-011  0.5930202E+02  0.7816164E-02  0.1266605E+00
        -11   -1    0    0    0    0  0.00000000000E+00  0.00000000000E+00  0.45593999997E+02  0.45594000000E+02  0.51100000000E-03 0.  1.
         11   -1    0    0    0    0 -0.00000000000E+00 -0.00000000000E+00 -0.45593999997E+02  0.45594000000E+02  0.51100000000E-03 0. -1.
    9900012    2    1    2    0    0 -0.16693414631E+01 -0.85029107739E+01  0.30685983908E+02  0.59302018740E+02  0.50000136256E+02 0.  0.
         12    1    1    2    0    0  0.16693414631E+01  0.85029107739E+01 -0.30685983908E+02  0.31885981260E+02  0.00000000000E+00 0. -1.
         11    1    3    3    0    0  0.17199786082E+01  0.87508445224E+01 -0.98994767255E+00  0.89730486973E+01  0.51100000000E-03 0. -1.
        -11    1    3    3    0    0  0.59146819505E+01 -0.82727720661E+01 -0.50776531272E+01  0.11366828132E+02  0.51100000000E-03 0.  1.
        -12    1    3    3    0    0 -0.93040020217E+01 -0.89809832302E+01  0.36753584708E+02  0.38962141911E+02  0.00000000000E+00 0.  1.
</event>
<event>
 7    1  0.1205909E-011  0.5930194E+02  0.7816164E-02  0.1266605E+00
        -11   -1    0    0    0    0  0.00000000000E+00  0.00000000000E+00  0.45593999997E+02  0.45594000000E+02  0.51100000000E-03 0.  1.
         11   -1    0    0    0    0 -0.00000000000E+00 -0.00000000000E+00 -0.45593999997E+02  0.45594000000E+02  0.51100000000E-03 0. -1.
    9900012    2    1    2    0    0  0.29067476134E+02  0.91707376901E+01 -0.93648442658E+01  0.59301938677E+02  0.49999990241E+02 0.  0.
         12    1    1    2    0    0 -0.29067476134E+02 -0.91707376901E+01  0.93648442658E+01  0.31886061323E+02  0.00000000000E+00 0. -1.
         11    1    3    3    0    0  0.14400372560E+02 -0.13918823288E+02 -0.26006591199E+01  0.20195737167E+02  0.51100000000E-03 0. -1.
        -11    1    3    3    0    0  0.36733357431E+01 -0.32065645108E+01  0.61222125493E+01  0.78266811743E+01  0.51100000000E-03 0.  1.
        -12    1    3    3    0    0  0.10993767831E+02  0.26296125489E+02 -0.12886397695E+02  0.31279520336E+02  0.00000000000E+00 0.  1.
</event>
<event>
 7    1  0.1205909E-011  0.5930189E+02  0.7816164E-02  0.1266605E+00
        -11   -1    0    0    0    0  0.00000000000E+00  0.00000000000E+00  0.45593999997E+02  0.45594000000E+02  0.51100000000E-03 0.  1.
         11   -1    0    0    0    0 -0.00000000000E+00 -0.00000000000E+00 -0.45593999997E+02  0.45594000000E+02  0.51100000000E-03 0. -1.
    9900012    2    1    2    0    0  0.10499819752E+02 -0.28729730218E+02  0.90044749913E+01  0.59301887301E+02  0.49999896543E+02 0.  0.
         12    1    1    2    0    0 -0.10499819752E+02  0.28729730218E+02 -0.90044749913E+01  0.31886112699E+02  0.00000000000E+00 0. -1.
         11    1    3    3    0    0 -0.14509586831E+01 -0.21832374188E+01 -0.19410344900E+01  0.32618126677E+01  0.51100000000E-03 0. -1.
        -11    1    3    3    0    0 -0.77769057958E+01  0.88239660523E+01 -0.46408748695E+01  0.12644380588E+02  0.51100000000E-03 0.  1.
        -12    1    3    3    0    0  0.19727684231E+02 -0.35370458851E+02  0.15586384351E+02  0.43395694044E+02  0.00000000000E+00 0.  1.
</event>
<event>
 7    1  0.1205909E-011  0.5930196E+02  0.7816164E-02  0.1266605E+00
        -11   -1    0    0    0    0  0.00000000000E+00  0.00000000000E+00  0.45593999997E+02  0.45594000000E+02  0.51100000000E-03 0.  1.
         11   -1    0    0    0    0 -0.00000000000E+00 -0.00000000000E+00 -0.45593999997E+02  0.45594000000E+02  0.51100000000E-03 0. -1.
    9900012    2    1    2    0    0 -0.16283009311E+02  0.17352957364E+02  0.21223998514E+02  0.59301958627E+02  0.50000026626E+02 0.  0.
         12    1    1    2    0    0  0.16283009311E+02 -0.17352957364E+02 -0.21223998514E+02  0.31886041373E+02  0.00000000000E+00 0. -1.
         11    1    3    3    0    0 -0.21870556300E+02  0.22456566855E+02  0.40885220977E+01  0.31612254602E+02  0.51100000000E-03 0. -1.
        -11    1    3    3    0    0 -0.36421110504E+01 -0.93342412018E+01  0.33417942981E+01  0.10562226144E+02  0.51100000000E-03 0.  1.
        -12    1    3    3    0    0  0.92296580400E+01  0.42306317101E+01  0.13793682119E+02  0.17127477882E+02  0.00000000000E+00 0.  1.
</event>
<event>
 7    1  0.1205909E-011  0.5930216E+02  0.7816164E-02  0.1266604E+00
        -11   -1    0    0    0    0  0.00000000000E+00  0.00000000000E+00  0.45593999997E+02  0.45594000000E+02  0.51100000000E-03 0.  1.
         11   -1    0    0    0    0 -0.00000000000E+00 -0.00000000000E+00 -0.45593999997E+02  0.45594000000E+02  0.51100000000E-03 0. -1.
    9900012    2    1    2    0    0  0.30734680012E+02 -0.65746555593E+01  0.53721883858E+01  0.59302155817E+02  0.50000386252E+02 0.  0.
         12    1    1    2    0    0 -0.30734680012E+02  0.65746555593E+01 -0.53721883858E+01  0.31885844183E+02  0.00000000000E+00 0. -1.
         11    1    3    3    0    0 -0.29973331568E+01 -0.11366055115E+01  0.34414462629E+01  0.47031298922E+01  0.51100000000E-03 0. -1.
        -11    1    3    3    0    0  0.54260699092E+00 -0.15682480824E+02  0.10427264049E+02  0.18840447525E+02  0.51100000000E-03 0.  1.
        -12    1    3    3    0    0  0.33189406178E+02  0.10244430776E+02 -0.84965219258E+01  0.35758578400E+02  0.00000000000E+00 0.  1.
</event>
<event>
 7    1  0.1205909E-011  0.5930194E+02  0.7816164E-02  0.1266605E+00
        -11   -1    0    0    0    0  0.00000000000E+00  0.00000000000E+00  0.45593999997E+02  0.45594000000E+02  0.51100000000E-03 0. -1.
         11   -1    0    0    0    0 -0.00000000000E+00 -0.00000000000E+00 -0.45593999997E+02  0.45594000000E+02  0.51100000000E-03 0.  1.
    9900012    2    1    2    0    0  0.32361454542E+01  0.24746735815E+02 -0.19845587648E+02  0.59301938468E+02  0.49999989861E+02 0.  0.
         12    1    1    2    0    0 -0.32361454542E+01 -0.24746735815E+02  0.19845587648E+02  0.31886061532E+02  0.00000000000E+00 0. -1.
         11    1    3    3    0    0 -0.56329176735E+01  0.75249936874E+01  0.46987289499E+01  0.10508727112E+02  0.51100000000E-03 0. -1.
        -11    1    3    3    0    0  0.19205183177E+02 -0.68033869597E+00 -0.39605400372E+01  0.19621105964E+02  0.51100000000E-03 0.  1.
         12    1    3    3    0    0 -0.10336120049E+02  0.17902080824E+02 -0.20583776561E+02  0.29172105392E+02  0.00000000000E+00 0. -1.
</event>
<event>
 7    1  0.1205909E-011  0.5930195E+02  0.7816164E-02  0.1266605E+00
        -11   -1    0    0    0    0  0.00000000000E+00  0.00000000000E+00  0.45593999997E+02  0.45594000000E+02  0.51100000000E-03 0.  1.
         11   -1    0    0    0    0 -0.00000000000E+00 -0.00000000000E+00 -0.45593999997E+02  0.45594000000E+02  0.51100000000E-03 0. -1.
    9900012    2    1    2    0    0  0.34005577578E+01  0.62053113043E+01  0.31091005097E+02  0.59301948513E+02  0.50000008181E+02 0.  0.
         12    1    1    2    0    0 -0.34005577578E+01 -0.62053113043E+01 -0.31091005097E+02  0.31886051487E+02  0.00000000000E+00 0. -1.
         11    1    3    3    0    0  0.66662883926E+01  0.14664654571E+02  0.14077553375E+02  0.21393199946E+02  0.51100000000E-03 0. -1.
        -11    1    3    3    0    0  0.77676425427E+01 -0.76109282538E+01  0.22917142380E+02  0.25366472256E+02  0.51100000000E-03 0.  1.
         12    1    3    3    0    0 -0.11033373177E+02 -0.84841501279E+00 -0.59036906583E+01  0.12542276312E+02  0.00000000000E+00 0. -1.
</event>
<event>
 7    1  0.1205909E-011  0.5930193E+02  0.7816164E-02  0.1266605E+00
        -11   -1    0    0    0    0  0.00000000000E+00  0.00000000000E+00  0.45593999997E+02  0.45594000000E+02  0.51100000000E-03 0.  1.
         11   -1    0    0    0    0 -0.00000000000E+00 -0.00000000000E+00 -0.45593999997E+02  0.45594000000E+02  0.51100000000E-03 0. -1.
    9900012    2    1    2    0    0 -0.32576474725E+00  0.27962844412E+01  0.31761546448E+02  0.59301934672E+02  0.49999982937E+02 0.  0.
         12    1    1    2    0    0  0.32576474725E+00 -0.27962844412E+01 -0.31761546448E+02  0.31886065328E+02  0.00000000000E+00 0. -1.
         11    1    3    3    0    0 -0.36958098670E+01 -0.79561586498E-01 -0.53533993097E+01  0.65057071137E+01  0.51100000000E-03 0. -1.
        -11    1    3    3    0    0 -0.10001743051E+02 -0.59724378406E+01 -0.75295105472E+00  0.11673551875E+02  0.51100000000E-03 0.  1.
         12    1    3    3    0    0  0.13371788171E+02  0.88482838684E+01  0.37867896813E+02  0.41122675683E+02  0.00000000000E+00 0. -1.
</event>
<event>
 7    1  0.1205909E-011  0.5930195E+02  0.7816164E-02  0.1266605E+00
        -11   -1    0    0    0    0  0.00000000000E+00  0.00000000000E+00  0.45593999997E+02  0.45594000000E+02  0.51100000000E-03 0.  1.
         11   -1    0    0    0    0 -0.00000000000E+00 -0.00000000000E+00 -0.45593999997E+02  0.45594000000E+02  0.51100000000E-03 0. -1.
    9900012    2    1    2    0    0  0.23490614202E+02 -0.68690671415E+01  0.20438371011E+02  0.59301952134E+02  0.50000014783E+02 0.  0.
         12    1    1    2    0    0 -0.23490614202E+02  0.68690671415E+01 -0.20438371011E+02  0.31886047866E+02  0.00000000000E+00 0. -1.
         11    1    3    3    0    0  0.20971822824E+02 -0.70600842506E+01 -0.46908256855E+01  0.22620035103E+02  0.51100000000E-03 0. -1.
        -11    1    3    3    0    0  0.11899137154E+02 -0.79182455960E+01  0.14317878203E+02  0.20230909886E+02  0.51100000000E-03 0.  1.
        -12    1    3    3    0    0 -0.93803457763E+01  0.81092627052E+01  0.10811318493E+02  0.16451007144E+02  0.00000000000E+00 0.  1.
</event>
<event>
 7    1  0.1205909E-011  0.5930192E+02  0.7816164E-02  0.1266605E+00
        -11   -1    0    0    0    0  0.00000000000E+00  0.00000000000E+00  0.45593999997E+02  0.45594000000E+02  0.51100000000E-03 0.  1.
         11   -1    0    0    0    0 -0.00000000000E+00 -0.00000000000E+00 -0.45593999997E+02  0.45594000000E+02  0.51100000000E-03 0. -1.
    9900012    2    1    2    0    0  0.25975345217E+02 -0.13790044101E+02 -0.12322270950E+02  0.59301917820E+02  0.49999952203E+02 0.  0.
         12    1    1    2    0    0 -0.25975345217E+02  0.13790044101E+02  0.12322270950E+02  0.31886082180E+02  0.00000000000E+00 0. -1.
         11    1    3    3    0    0  0.51973091779E+01 -0.10757906220E+02 -0.11578218774E+02  0.16637299035E+02  0.51100000000E-03 0. -1.
        -11    1    3    3    0    0  0.21180151699E+02 -0.14711627811E+02  0.91388072947E+01  0.27359616552E+02  0.51100000000E-03 0.  1.
         12    1    3    3    0    0 -0.40211566037E+00  0.11679489930E+02 -0.98828594711E+01  0.15305002233E+02  0.00000000000E+00 0. -1.
</event>
<event>
 7    1  0.1205909E-011  0.5930194E+02  0.7816164E-02  0.1266605E+00
        -11   -1    0    0    0    0  0.00000000000E+00  0.00000000000E+00  0.45593999997E+02  0.45594000000E+02  0.51100000000E-03 0.  1.
         11   -1    0    0    0    0 -0.00000000000E+00 -0.00000000000E+00 -0.45593999997E+02  0.45594000000E+02  0.51100000000E-03 0. -1.
    9900012    2    1    2    0    0  0.53078543106E+01 -0.96818620318E+01  0.29913357961E+02  0.59301941067E+02  0.49999994600E+02 0.  0.
         12    1    1    2    0    0 -0.53078543106E+01  0.96818620318E+01 -0.29913357961E+02  0.31886058933E+02  0.00000000000E+00 0. -1.
         11    1    3    3    0    0  0.11486103267E+02 -0.52809027685E+00  0.32622471145E+02  0.34589522568E+02  0.51100000000E-03 0.  1.
        -11    1    3    3    0    0  0.13882015502E+01  0.60879631993E+01  0.27763132003E+01  0.68336165175E+01  0.51100000000E-03 0. -1.
        -12    1    3    3    0    0 -0.75664505065E+01 -0.15241734954E+02 -0.54854263844E+01  0.17878801982E+02  0.00000000000E+00 0.  1.
</event>
<event>
 7    1  0.1205909E-011  0.5930195E+02  0.7816164E-02  0.1266605E+00
        -11   -1    0    0    0    0  0.00000000000E+00  0.00000000000E+00  0.45593999997E+02  0.45594000000E+02  0.51100000000E-03 0. -1.
         11   -1    0    0    0    0 -0.00000000000E+00 -0.00000000000E+00 -0.45593999997E+02  0.45594000000E+02  0.51100000000E-03 0.  1.
    9900012    2    1    2    0    0 -0.33758245382E+01 -0.41494113491E+01 -0.31434160062E+02  0.59301949372E+02  0.50000009746E+02 0.  0.
         12    1    1    2    0    0  0.33758245382E+01  0.41494113491E+01  0.31434160062E+02  0.31886050628E+02  0.00000000000E+00 0. -1.
         11    1    3    3    0    0  0.65479730074E+01  0.13584303190E+02 -0.77240444863E-01  0.15080292107E+02  0.51100000000E-03 0. -1.
        -11    1    3    3    0    0 -0.11932266509E+02  0.12540038650E+01 -0.10485641038E+02  0.15934245447E+02  0.51100000000E-03 0.  1.
        -12    1    3    3    0    0  0.20084689639E+01 -0.18987718404E+02 -0.20871278580E+02  0.28287411818E+02  0.00000000000E+00 0.  1.
</event>
<event>
 7    1  0.1205909E-011  0.5930196E+02  0.7816164E-02  0.1266605E+00
        -11   -1    0    0    0    0  0.00000000000E+00  0.00000000000E+00  0.45593999997E+02  0.45594000000E+02  0.51100000000E-03 0.  1.
         11   -1    0    0    0    0 -0.00000000000E+00 -0.00000000000E+00 -0.45593999997E+02  0.45594000000E+02  0.51100000000E-03 0. -1.
    9900012    2    1    2    0    0  0.21883678144E+02 -0.16175343737E+02  0.16618736420E+02  0.59301960511E+02  0.50000030061E+02 0.  0.
         12    1    1    2    0    0 -0.21883678144E+02  0.16175343737E+02 -0.16618736420E+02  0.31886039489E+02  0.00000000000E+00 0. -1.
         11    1    3    3    0    0  0.11776619115E+02 -0.30100880891E+01 -0.25061888597E+01  0.12410897266E+02  0.51100000000E-03 0. -1.
        -11    1    3    3    0    0  0.17618386364E+02 -0.14802458287E+02 -0.32431860373E+01  0.23238729857E+02  0.51100000000E-03 0.  1.
        -12    1    3    3    0    0 -0.75113273354E+01  0.16372026394E+01  0.22368111317E+02  0.23652333388E+02  0.00000000000E+00 0.  1.
</event>
<event>
 7    1  0.1205909E-011  0.5930196E+02  0.7816164E-02  0.1266605E+00
        -11   -1    0    0    0    0  0.00000000000E+00  0.00000000000E+00  0.45593999997E+02  0.45594000000E+02  0.51100000000E-03 0.  1.
         11   -1    0    0    0    0 -0.00000000000E+00 -0.00000000000E+00 -0.45593999997E+02  0.45594000000E+02  0.51100000000E-03 0. -1.
    9900012    2    1    2    0    0 -0.49277737205E+01  0.18819241564E+02  0.25264060825E+02  0.59301959539E+02  0.50000028289E+02 0.  0.
         12    1    1    2    0    0  0.49277737205E+01 -0.18819241564E+02 -0.25264060825E+02  0.31886040461E+02  0.00000000000E+00 0. -1.
         11    1    3    3    0    0 -0.88130361013E+01  0.15181704438E+01  0.19892242345E+02  0.21809992036E+02  0.51100000000E-03 0. -1.
        -11    1    3    3    0    0  0.53340125904E+01  0.26677247930E+01  0.17463663219E+02  0.18453942104E+02  0.51100000000E-03 0.  1.
         12    1    3    3    0    0 -0.14487502095E+01  0.14633346327E+02 -0.12091844739E+02  0.19038025399E+02  0.00000000000E+00 0. -1.
</event>
<event>
 7    1  0.1205909E-011  0.5930199E+02  0.7816164E-02  0.1266605E+00
        -11   -1    0    0    0    0  0.00000000000E+00  0.00000000000E+00  0.45593999997E+02  0.45594000000E+02  0.51100000000E-03 0.  1.
         11   -1    0    0    0    0 -0.00000000000E+00 -0.00000000000E+00 -0.45593999997E+02  0.45594000000E+02  0.51100000000E-03 0. -1.
    9900012    2    1    2    0    0  0.19282036829E+02 -0.25278666019E+02 -0.24310369243E+01  0.59301986757E+02  0.50000077928E+02 0.  0.
         12    1    1    2    0    0 -0.19282036829E+02  0.25278666019E+02  0.24310369243E+01  0.31886013243E+02  0.00000000000E+00 0. -1.
         11    1    3    3    0    0 -0.22628036590E+01 -0.62538087313E+01  0.86903591314E+01  0.10943159788E+02  0.51100000000E-03 0. -1.
        -11    1    3    3    0    0  0.15806383954E+02 -0.29886409929E+02 -0.37095868833E+01  0.34011767188E+02  0.51100000000E-03 0.  1.
         12    1    3    3    0    0  0.57384565338E+01  0.10861552641E+02 -0.74118091724E+01  0.14347059781E+02  0.00000000000E+00 0. -1.
</event>
<event>
 7    1  0.1205909E-011  0.5930196E+02  0.7816164E-02  0.1266605E+00
        -11   -1    0    0    0    0  0.00000000000E+00  0.00000000000E+00  0.45593999997E+02  0.45594000000E+02  0.51100000000E-03 0.  1.
         11   -1    0    0    0    0 -0.00000000000E+00 -0.00000000000E+00 -0.45593999997E+02  0.45594000000E+02  0.51100000000E-03 0. -1.
    9900012    2    1    2    0    0  0.11652119359E+02 -0.27822407819E+02  0.10337384050E+02  0.59301956479E+02  0.50000022708E+02 0.  0.
         12    1    1    2    0    0 -0.11652119359E+02  0.27822407819E+02 -0.10337384050E+02  0.31886043521E+02  0.00000000000E+00 0. -1.
         11    1    3    3    0    0  0.13423393271E+02  0.44075882708E+01  0.49370982505E+01  0.14966270767E+02  0.51100000000E-03 0. -1.
        -11    1    3    3    0    0 -0.17616989903E+01 -0.55537341552E+01  0.14915583016E+02  0.16013187171E+02  0.51100000000E-03 0.  1.
         12    1    3    3    0    0 -0.95749216907E-02 -0.26676261935E+02 -0.95152972163E+01  0.28322498541E+02  0.00000000000E+00 0. -1.
</event>
<event>
 7    1  0.1205909E-011  0.5930163E+02  0.7816164E-02  0.1266606E+00
        -11   -1    0    0    0    0  0.00000000000E+00  0.00000000000E+00  0.45593999997E+02  0.45594000000E+02  0.51100000000E-03 0.  1.
         11   -1    0    0    0    0 -0.00000000000E+00 -0.00000000000E+00 -0.45593999997E+02  0.45594000000E+02  0.51100000000E-03 0. -1.
    9900012    2    1    2    0    0 -0.28881839482E+02  0.96369099685E+00  0.13477807376E+02  0.59301629183E+02  0.49999425796E+02 0.  0.
         12    1    1    2    0    0  0.28881839482E+02 -0.96369099685E+00 -0.13477807376E+02  0.31886370817E+02  0.00000000000E+00 0. -1.
         11    1    3    3    0    0  0.25939051194E+01  0.80368316034E+01 -0.34819011127E+01  0.91346943906E+01  0.51100000000E-03 0. -1.
        -11    1    3    3    0    0 -0.18224053687E+02 -0.17877022831E+02  0.20458719640E+02  0.32714878689E+02  0.51100000000E-03 0.  1.
         12    1    3    3    0    0 -0.13251690915E+02  0.10803882224E+02 -0.34990111516E+01  0.17452056104E+02  0.00000000000E+00 0. -1.
</event>
<event>
 7    1  0.1205909E-011  0.5930193E+02  0.7816164E-02  0.1266605E+00
        -11   -1    0    0    0    0  0.00000000000E+00  0.00000000000E+00  0.45593999997E+02  0.45594000000E+02  0.51100000000E-03 0. -1.
         11   -1    0    0    0    0 -0.00000000000E+00 -0.00000000000E+00 -0.45593999997E+02  0.45594000000E+02  0.51100000000E-03 0.  1.
    9900012    2    1    2    0    0 -0.14252309527E+02 -0.70721340778E+01 -0.27632919166E+02  0.59301927353E+02  0.49999969588E+02 0.  0.
         12    1    1    2    0    0  0.14252309527E+02  0.70721340778E+01  0.27632919166E+02  0.31886072647E+02  0.00000000000E+00 0. -1.
         11    1    3    3    0    0  0.20074404396E+01  0.41970244913E+01 -0.87411339578E+00  0.47338046209E+01  0.51100000000E-03 0. -1.
        -11    1    3    3    0    0 -0.37284309798E+01  0.14738298510E+02  0.35487464129E-02  0.15202587063E+02  0.51100000000E-03 0.  1.
        -12    1    3    3    0    0 -0.12531318987E+02 -0.26007457079E+02 -0.26762354516E+02  0.39365535669E+02  0.00000000000E+00 0.  1.
</event>
<event>
 7    1  0.1205909E-011  0.5930203E+02  0.7816164E-02  0.1266604E+00
        -11   -1    0    0    0    0  0.00000000000E+00  0.00000000000E+00  0.45593999997E+02  0.45594000000E+02  0.51100000000E-03 0.  1.
         11   -1    0    0    0    0 -0.00000000000E+00 -0.00000000000E+00 -0.45593999997E+02  0.45594000000E+02  0.51100000000E-03 0. -1.
    9900012    2    1    2    0    0  0.39483981126E+01  0.42027340088E+01  0.31360199996E+02  0.59302031854E+02  0.50000160174E+02 0.  0.
         12    1    1    2    0    0 -0.39483981126E+01 -0.42027340088E+01 -0.31360199996E+02  0.31885968146E+02  0.00000000000E+00 0. -1.
         11    1    3    3    0    0  0.19816931683E+02 -0.71411815516E+01  0.18522886416E+02  0.28050037018E+02  0.51100000000E-03 0. -1.
        -11    1    3    3    0    0  0.41520428225E+01  0.57780070923E+01  0.62012404146E+01  0.94382312167E+01  0.51100000000E-03 0.  1.
        -12    1    3    3    0    0 -0.20020576393E+02  0.55659084681E+01  0.66360731655E+01  0.21813763619E+02  0.00000000000E+00 0.  1.
</event>
<event>
 7    1  0.1205909E-011  0.5930195E+02  0.7816164E-02  0.1266605E+00
        -11   -1    0    0    0    0  0.00000000000E+00  0.00000000000E+00  0.45593999997E+02  0.45594000000E+02  0.51100000000E-03 0.  1.
         11   -1    0    0    0    0 -0.00000000000E+00 -0.00000000000E+00 -0.45593999997E+02  0.45594000000E+02  0.51100000000E-03 0. -1.
    9900012    2    1    2    0    0  0.13541092099E+02  0.26381399489E+02 -0.11720964619E+02  0.59301946217E+02  0.50000003993E+02 0.  0.
         12    1    1    2    0    0 -0.13541092099E+02 -0.26381399489E+02  0.11720964619E+02  0.31886053783E+02  0.00000000000E+00 0. -1.
         11    1    3    3    0    0  0.19219578589E+01  0.14446178799E+02 -0.21769108535E+02  0.26196948116E+02  0.51100000000E-03 0. -1.
        -11    1    3    3    0    0 -0.70594405840E+01  0.10706024915E+02  0.41525417653E+01  0.13479550223E+02  0.51100000000E-03 0.  1.
        -12    1    3    3    0    0  0.18678574824E+02  0.12291957753E+01  0.58956021509E+01  0.19625447878E+02  0.00000000000E+00 0.  1.
</event>
<event>
 7    1  0.1205909E-011  0.5930195E+02  0.7816164E-02  0.1266605E+00
        -11   -1    0    0    0    0  0.00000000000E+00  0.00000000000E+00  0.45593999997E+02  0.45594000000E+02  0.51100000000E-03 0. -1.
         11   -1    0    0    0    0 -0.00000000000E+00 -0.00000000000E+00 -0.45593999997E+02  0.45594000000E+02  0.51100000000E-03 0.  1.
    9900012    2    1    2    0    0 -0.80314336544E+01 -0.67884074227E+01 -0.30102051879E+02  0.59301954004E+02  0.50000018195E+02 0.  0.
         12    1    1    2    0    0  0.80314336544E+01  0.67884074227E+01  0.30102051879E+02  0.31886045996E+02  0.00000000000E+00 0. -1.
         11    1    3    3    0    0 -0.16344027761E+01 -0.36525600706E+01 -0.23461432266E+01  0.46386264998E+01  0.51100000000E-03 0. -1.
        -11    1    3    3    0    0  0.44087392835E+01 -0.20750007426E+02 -0.26521994604E+02  0.33961978568E+02  0.51100000000E-03 0.  1.
        -12    1    3    3    0    0 -0.10805770162E+02  0.17614160074E+02 -0.12339140490E+01  0.20701348936E+02  0.00000000000E+00 0.  1.
</event>
<event>
 7    1  0.1205909E-011  0.5930194E+02  0.7816164E-02  0.1266605E+00
        -11   -1    0    0    0    0  0.00000000000E+00  0.00000000000E+00  0.45593999997E+02  0.45594000000E+02  0.51100000000E-03 0.  1.
         11   -1    0    0    0    0 -0.00000000000E+00 -0.00000000000E+00 -0.45593999997E+02  0.45594000000E+02  0.51100000000E-03 0. -1.
    9900012    2    1    2    0    0  0.22594897560E+02 -0.19851305700E+02  0.10588534489E+02  0.59301940407E+02  0.49999993397E+02 0.  0.
         12    1    1    2    0    0 -0.22594897560E+02  0.19851305700E+02 -0.10588534489E+02  0.31886059593E+02  0.00000000000E+00 0. -1.
         11    1    3    3    0    0  0.14669211913E+02  0.84338824385E+01  0.80759870038E+00  0.16940140704E+02  0.51100000000E-03 0. -1.
        -11    1    3    3    0    0  0.47418319380E+01  0.48623198383E+01  0.55953464575E+01  0.87997174148E+01  0.51100000000E-03 0.  1.
        -12    1    3    3    0    0  0.31838537081E+01 -0.33147507977E+02  0.41855893310E+01  0.33562082289E+02  0.00000000000E+00 0.  1.
</event>
<event>
 7    1  0.1205909E-011  0.5930195E+02  0.7816164E-02  0.1266605E+00
        -11   -1    0    0    0    0  0.00000000000E+00  0.00000000000E+00  0.45593999997E+02  0.45594000000E+02  0.51100000000E-03 0.  1.
         11   -1    0    0    0    0 -0.00000000000E+00 -0.00000000000E+00 -0.45593999997E+02  0.45594000000E+02  0.51100000000E-03 0. -1.
    9900012    2    1    2    0    0  0.12300664276E+02 -0.13031035920E+02  0.26374339225E+02  0.59301952764E+02  0.50000015933E+02 0.  0.
         12    1    1    2    0    0 -0.12300664276E+02  0.13031035920E+02 -0.26374339225E+02  0.31886047236E+02  0.00000000000E+00 0. -1.
         11    1    3    3    0    0  0.20201672153E+01 -0.60415100839E+00 -0.40393832591E+01  0.45566096381E+01  0.51100000000E-03 0. -1.
        -11    1    3    3    0    0  0.19015444431E+02 -0.15298110890E+02  0.15522570970E+01  0.24454627907E+02  0.51100000000E-03 0.  1.
        -12    1    3    3    0    0 -0.87349473705E+01  0.28712259784E+01  0.28861465387E+02  0.30290715219E+02  0.00000000000E+00 0.  1.
</event>
<event>
 7    1  0.1205909E-011  0.5930180E+02  0.7816164E-02  0.1266605E+00
        -11   -1    0    0    0    0  0.00000000000E+00  0.00000000000E+00  0.45593999997E+02  0.45594000000E+02  0.51100000000E-03 0. -1.
         11   -1    0    0    0    0 -0.00000000000E+00 -0.00000000000E+00 -0.45593999997E+02  0.45594000000E+02  0.51100000000E-03 0.  1.
    9900012    2    1    2    0    0  0.32313149276E+01 -0.29480299889E+02 -0.11713241423E+02  0.59301803890E+02  0.49999744422E+02 0.  0.
         12    1    1    2    0    0 -0.32313149276E+01  0.29480299889E+02  0.11713241423E+02  0.31886196110E+02  0.00000000000E+00 0. -1.
         11    1    3    3    0    0  0.13057236325E+02 -0.68909423227E+01  0.57215365242E+01  0.15833903088E+02  0.51100000000E-03 0. -1.
        -11    1    3    3    0    0 -0.60054883930E+01 -0.13347154768E+02  0.76129055012E+01  0.16497538049E+02  0.51100000000E-03 0.  1.
        -12    1    3    3    0    0 -0.38204330041E+01 -0.92422027987E+01 -0.25047683449E+02  0.26970362754E+02  0.00000000000E+00 0.  1.
</event>
<event>
 7    1  0.1205909E-011  0.5930195E+02  0.7816164E-02  0.1266605E+00
        -11   -1    0    0    0    0  0.00000000000E+00  0.00000000000E+00  0.45593999997E+02  0.45594000000E+02  0.51100000000E-03 0.  1.
         11   -1    0    0    0    0 -0.00000000000E+00 -0.00000000000E+00 -0.45593999997E+02  0.45594000000E+02  0.51100000000E-03 0. -1.
    9900012    2    1    2    0    0  0.14080986863E+02  0.27310481640E+02  0.85196164534E+01  0.59301945635E+02  0.50000002932E+02 0.  0.
         12    1    1    2    0    0 -0.14080986863E+02 -0.27310481640E+02 -0.85196164534E+01  0.31886054365E+02  0.00000000000E+00 0. -1.
         11    1    3    3    0    0  0.17873294436E+02  0.75521278799E+01 -0.24666148928E+01  0.19559485648E+02  0.51100000000E-03 0. -1.
        -11    1    3    3    0    0  0.13801974441E+02  0.43403303542E+01  0.67608564789E+01  0.15970039031E+02  0.51100000000E-03 0.  1.
        -12    1    3    3    0    0 -0.17594282015E+02  0.15418023406E+02  0.42253748673E+01  0.23772420956E+02  0.00000000000E+00 0.  1.
</event>
<event>
 7    1  0.1205909E-011  0.5930195E+02  0.7816164E-02  0.1266605E+00
        -11   -1    0    0    0    0  0.00000000000E+00  0.00000000000E+00  0.45593999997E+02  0.45594000000E+02  0.51100000000E-03 0.  1.
         11   -1    0    0    0    0 -0.00000000000E+00 -0.00000000000E+00 -0.45593999997E+02  0.45594000000E+02  0.51100000000E-03 0. -1.
    9900012    2    1    2    0    0 -0.17372836667E+02  0.10489736098E+02  0.24594113742E+02  0.59301945869E+02  0.50000003358E+02 0.  0.
         12    1    1    2    0    0  0.17372836667E+02 -0.10489736098E+02 -0.24594113742E+02  0.31886054131E+02  0.00000000000E+00 0. -1.
         11    1    3    3    0    0 -0.77448206304E+01 -0.16162263864E+02  0.91855923513E+01  0.20138920699E+02  0.51100000000E-03 0. -1.
        -11    1    3    3    0    0 -0.14396092808E+02  0.12114079748E+02  0.21863229044E+01  0.18941447262E+02  0.51100000000E-03 0.  1.
        -12    1    3    3    0    0  0.47680767719E+01  0.14537920215E+02  0.13222198487E+02  0.20221577908E+02  0.00000000000E+00 0.  1.
</event>
<event>
 7    1  0.1205909E-011  0.5930195E+02  0.7816164E-02  0.1266605E+00
        -11   -1    0    0    0    0  0.00000000000E+00  0.00000000000E+00  0.45593999997E+02  0.45594000000E+02  0.51100000000E-03 0. -1.
         11   -1    0    0    0    0 -0.00000000000E+00 -0.00000000000E+00 -0.45593999997E+02  0.45594000000E+02  0.51100000000E-03 0.  1.
    9900012    2    1    2    0    0  0.31158223649E+02 -0.20530663527E+01  0.64552404859E+01  0.59301951137E+02  0.50000012965E+02 0.  0.
         12    1    1    2    0    0 -0.31158223649E+02  0.20530663527E+01 -0.64552404859E+01  0.31886048863E+02  0.00000000000E+00 0. -1.
         11    1    3    3    0    0  0.22323198304E+02 -0.49496056719E+01  0.43360379124E+01  0.23272838329E+02  0.51100000000E-03 0. -1.
        -11    1    3    3    0    0 -0.36804913536E+01 -0.14120001064E+02  0.29597039105E+01  0.14888931935E+02  0.51100000000E-03 0.  1.
        -12    1    3    3    0    0  0.12515516698E+02  0.17016540384E+02 -0.84050133707E+00  0.21140180873E+02  0.00000000000E+00 0.  1.
</event>
<event>
 7    1  0.1205909E-011  0.5930195E+02  0.7816164E-02  0.1266605E+00
        -11   -1    0    0    0    0  0.00000000000E+00  0.00000000000E+00  0.45593999997E+02  0.45594000000E+02  0.51100000000E-03 0.  1.
         11   -1    0    0    0    0 -0.00000000000E+00 -0.00000000000E+00 -0.45593999997E+02  0.45594000000E+02  0.51100000000E-03 0. -1.
    9900012    2    1    2    0    0  0.15360541257E+02  0.27936658482E+02  0.56286518098E+00  0.59301953960E+02  0.50000018115E+02 0.  0.
         12    1    1    2    0    0 -0.15360541257E+02 -0.27936658482E+02 -0.56286518098E+00  0.31886046040E+02  0.00000000000E+00 0. -1.
         11    1    3    3    0    0  0.16059192930E+02 -0.48144737620E+00 -0.80428182436E+00  0.16086526619E+02  0.51100000000E-03 0. -1.
        -11    1    3    3    0    0  0.46494274816E+01 -0.62025585918E+01 -0.20490372126E+01  0.80179462926E+01  0.51100000000E-03 0.  1.
        -12    1    3    3    0    0 -0.53480791546E+01  0.34620664450E+02  0.34161842179E+01  0.35197481049E+02  0.00000000000E+00 0.  1.
</event>
<event>
 7    1  0.1205909E-011  0.5930195E+02  0.7816164E-02  0.1266605E+00
        -11   -1    0    0    0    0  0.00000000000E+00  0.00000000000E+00  0.45593999997E+02  0.45594000000E+02  0.51100000000E-03 0.  1.
         11   -1    0    0    0    0 -0.00000000000E+00 -0.00000000000E+00 -0.45593999997E+02  0.45594000000E+02  0.51100000000E-03 0. -1.
    9900012    2    1    2    0    0  0.22209476034E+02 -0.56829798259E+01  0.22162196107E+02  0.59301952554E+02  0.50000015550E+02 0.  0.
         12    1    1    2    0    0 -0.22209476034E+02  0.56829798259E+01 -0.22162196107E+02  0.31886047446E+02  0.00000000000E+00 0. -1.
         11    1    3    3    0    0  0.32090359591E+01  0.86385001090E+01 -0.11595605691E+01  0.92879587044E+01  0.51100000000E-03 0. -1.
        -11    1    3    3    0    0  0.16200568442E+02  0.10453701811E+02  0.92561321443E+01  0.21387245777E+02  0.51100000000E-03 0.  1.
        -12    1    3    3    0    0  0.27998716331E+01 -0.24775181746E+02  0.14065624532E+02  0.28626748072E+02  0.00000000000E+00 0.  1.
</event>
<event>
 7    1  0.1205909E-011  0.5930190E+02  0.7816164E-02  0.1266605E+00
        -11   -1    0    0    0    0  0.00000000000E+00  0.00000000000E+00  0.45593999997E+02  0.45594000000E+02  0.51100000000E-03 0. -1.
         11   -1    0    0    0    0 -0.00000000000E+00 -0.00000000000E+00 -0.45593999997E+02  0.45594000000E+02  0.51100000000E-03 0.  1.
    9900012    2    1    2    0    0 -0.67548792911E+01 -0.91025165732E+01 -0.29803336964E+02  0.59301904341E+02  0.49999927620E+02 0.  0.
         12    1    1    2    0    0  0.67548792911E+01  0.91025165732E+01  0.29803336964E+02  0.31886095659E+02  0.00000000000E+00 0. -1.
         11    1    3    3    0    0  0.10156455542E+02  0.10298899051E+01  0.52880971729E+00  0.10222225901E+02  0.51100000000E-03 0. -1.
        -11    1    3    3    0    0 -0.30477490280E+01  0.91457837479E+01  0.10820350846E+01  0.97007697986E+01  0.51100000000E-03 0.  1.
        -12    1    3    3    0    0 -0.13863585805E+02 -0.19278190226E+02 -0.31414181766E+02  0.39378908641E+02  0.00000000000E+00 0.  1.
</event>
<event>
 7    1  0.1205909E-011  0.5930193E+02  0.7816164E-02  0.1266605E+00
        -11   -1    0    0    0    0  0.00000000000E+00  0.00000000000E+00  0.45593999997E+02  0.45594000000E+02  0.51100000000E-03 0.  1.
         11   -1    0    0    0    0 -0.00000000000E+00 -0.00000000000E+00 -0.45593999997E+02  0.45594000000E+02  0.51100000000E-03 0. -1.
    9900012    2    1    2    0    0  0.22080860136E+02 -0.22290807942E+02  0.56812777794E+01  0.59301930624E+02  0.49999975555E+02 0.  0.
         12    1    1    2    0    0 -0.22080860136E+02  0.22290807942E+02 -0.56812777794E+01  0.31886069376E+02  0.00000000000E+00 0. -1.
         11    1    3    3    0    0  0.54698236154E+01 -0.69200807334E+01 -0.36073172688E+00  0.88281716896E+01  0.51100000000E-03 0. -1.
        -11    1    3    3    0    0  0.39795868563E+01 -0.30281029456E+02  0.45052587248E+01  0.30871916249E+02  0.51100000000E-03 0.  1.
         12    1    3    3    0    0  0.12631449664E+02  0.14910302247E+02  0.15367507815E+01  0.19601842686E+02  0.00000000000E+00 0. -1.
</event>
<event>
 7    1  0.1205909E-011  0.5930195E+02  0.7816164E-02  0.1266605E+00
        -11   -1    0    0    0    0  0.00000000000E+00  0.00000000000E+00  0.45593999997E+02  0.45594000000E+02  0.51100000000E-03 0.  1.
         11   -1    0    0    0    0 -0.00000000000E+00 -0.00000000000E+00 -0.45593999997E+02  0.45594000000E+02  0.51100000000E-03 0. -1.
    9900012    2    1    2    0    0 -0.28053097209E+02  0.14182937015E+02  0.53468097498E+01  0.59301947565E+02  0.50000006451E+02 0.  0.
         12    1    1    2    0    0  0.28053097209E+02 -0.14182937015E+02 -0.53468097498E+01  0.31886052435E+02  0.00000000000E+00 0. -1.
         11    1    3    3    0    0  0.17526398112E+01 -0.18714497687E+01  0.39968722315E+01  0.47485848882E+01  0.51100000000E-03 0. -1.
        -11    1    3    3    0    0  0.92473302659E+01 -0.38991549276E+01 -0.30215112829E+01  0.10480746962E+02  0.51100000000E-03 0.  1.
        -12    1    3    3    0    0 -0.39053067286E+02  0.19953541711E+02  0.43714488012E+01  0.44072615714E+02  0.00000000000E+00 0.  1.
</event>
<event>
 7    1  0.1205909E-011  0.5930195E+02  0.7816164E-02  0.1266605E+00
        -11   -1    0    0    0    0  0.00000000000E+00  0.00000000000E+00  0.45593999997E+02  0.45594000000E+02  0.51100000000E-03 0.  1.
         11   -1    0    0    0    0 -0.00000000000E+00 -0.00000000000E+00 -0.45593999997E+02  0.45594000000E+02  0.51100000000E-03 0. -1.
    9900012    2    1    2    0    0  0.24116915076E+02  0.54410598938E+01  0.20136761346E+02  0.59301954728E+02  0.50000019516E+02 0.  0.
         12    1    1    2    0    0 -0.24116915076E+02 -0.54410598938E+01 -0.20136761346E+02  0.31886045272E+02  0.00000000000E+00 0. -1.
         11    1    3    3    0    0 -0.73170863108E+01  0.75473204990E+01  0.11492588104E+01  0.10574620318E+02  0.51100000000E-03 0. -1.
        -11    1    3    3    0    0  0.14187980646E+02  0.11713453118E+02  0.19246574622E+02  0.26625822310E+02  0.51100000000E-03 0.  1.
        -12    1    3    3    0    0  0.17246020740E+02 -0.13819713723E+02 -0.25907208613E+00  0.22101512100E+02  0.00000000000E+00 0.  1.
</event>
<event>
 7    1  0.1205909E-011  0.5930194E+02  0.7816164E-02  0.1266605E+00
        -11   -1    0    0    0    0  0.00000000000E+00  0.00000000000E+00  0.45593999997E+02  0.45594000000E+02  0.51100000000E-03 0. -1.
         11   -1    0    0    0    0 -0.00000000000E+00 -0.00000000000E+00 -0.45593999997E+02  0.45594000000E+02  0.51100000000E-03 0.  1.
    9900012    2    1    2    0    0  0.21137810443E+02  0.57478763947E+01 -0.23170578642E+02  0.59301939911E+02  0.49999992493E+02 0.  0.
         12    1    1    2    0    0 -0.21137810443E+02 -0.57478763947E+01  0.23170578642E+02  0.31886060089E+02  0.00000000000E+00 0. -1.
         11    1    3    3    0    0  0.80105739431E+01 -0.19891226039E+01  0.12215830676E+02  0.14742877026E+02  0.51100000000E-03 0. -1.
        -11    1    3    3    0    0 -0.27125080565E+01 -0.49578499293E+01 -0.31669837840E+01  0.64782530382E+01  0.51100000000E-03 0.  1.
         12    1    3    3    0    0  0.15839744556E+02  0.12694848928E+02 -0.32219425534E+02  0.38080809848E+02  0.00000000000E+00 0. -1.
</event>
<event>
 7    1  0.1205909E-011  0.5930198E+02  0.7816164E-02  0.1266605E+00
        -11   -1    0    0    0    0  0.00000000000E+00  0.00000000000E+00  0.45593999997E+02  0.45594000000E+02  0.51100000000E-03 0.  1.
         11   -1    0    0    0    0 -0.00000000000E+00 -0.00000000000E+00 -0.45593999997E+02  0.45594000000E+02  0.51100000000E-03 0. -1.
    9900012    2    1    2    0    0  0.22426096957E+02 -0.65191048167E+01  0.21709207228E+02  0.59301980637E+02  0.50000066766E+02 0.  0.
         12    1    1    2    0    0 -0.22426096957E+02  0.65191048167E+01 -0.21709207228E+02  0.31886019363E+02  0.00000000000E+00 0. -1.
         11    1    3    3    0    0 -0.23371886039E+01 -0.11590252383E+02  0.17899321194E+01  0.11958271536E+02  0.51100000000E-03 0. -1.
        -11    1    3    3    0    0  0.31073276466E+02  0.68655760436E-03  0.23024279806E+02  0.38673840922E+02  0.51100000000E-03 0.  1.
         12    1    3    3    0    0 -0.63099909049E+01  0.50704610091E+01 -0.31050046972E+01  0.86698681786E+01  0.00000000000E+00 0. -1.
</event>
<event>
 7    1  0.1205909E-011  0.5930194E+02  0.7816164E-02  0.1266605E+00
        -11   -1    0    0    0    0  0.00000000000E+00  0.00000000000E+00  0.45593999997E+02  0.45594000000E+02  0.51100000000E-03 0.  1.
         11   -1    0    0    0    0 -0.00000000000E+00 -0.00000000000E+00 -0.45593999997E+02  0.45594000000E+02  0.51100000000E-03 0. -1.
    9900012    2    1    2    0    0  0.54085955850E+01  0.17996559744E+02  0.25760275288E+02  0.59301939538E+02  0.49999991813E+02 0.  0.
         12    1    1    2    0    0 -0.54085955850E+01 -0.17996559744E+02 -0.25760275288E+02  0.31886060462E+02  0.00000000000E+00 0. -1.
         11    1    3    3    0    0 -0.53034600283E+01  0.28591300245E+01  0.18295735844E+02  0.19262275647E+02  0.51100000000E-03 0.  1.
        -11    1    3    3    0    0 -0.74505564910E+01  0.66302563506E+00  0.14034622526E+02  0.15903490960E+02  0.51100000000E-03 0. -1.
         12    1    3    3    0    0  0.18162612104E+02  0.14474404085E+02 -0.65700830817E+01  0.24136172931E+02  0.00000000000E+00 0. -1.
</event>
<event>
 7    1  0.1205909E-011  0.5930201E+02  0.7816164E-02  0.1266605E+00
        -11   -1    0    0    0    0  0.00000000000E+00  0.00000000000E+00  0.45593999997E+02  0.45594000000E+02  0.51100000000E-03 0.  1.
         11   -1    0    0    0    0 -0.00000000000E+00 -0.00000000000E+00 -0.45593999997E+02  0.45594000000E+02  0.51100000000E-03 0. -1.
    9900012    2    1    2    0    0 -0.31083837874E+01  0.30583749456E+02  0.84669166851E+01  0.59302008425E+02  0.50000117445E+02 0.  0.
         12    1    1    2    0    0  0.31083837874E+01 -0.30583749456E+02 -0.84669166851E+01  0.31885991575E+02  0.00000000000E+00 0. -1.
         11    1    3    3    0    0 -0.24423113996E+01  0.37184446878E+01 -0.72176298930E+01  0.84785551483E+01  0.51100000000E-03 0. -1.
        -11    1    3    3    0    0 -0.11757072297E+02  0.10684452433E+02 -0.97976142416E+01  0.18664927482E+02  0.51100000000E-03 0.  1.
         12    1    3    3    0    0  0.11090999910E+02  0.16180852335E+02  0.25482160820E+02  0.32158525795E+02  0.00000000000E+00 0. -1.
</event>
<event>
 7    1  0.1205909E-011  0.5930193E+02  0.7816164E-02  0.1266605E+00
        -11   -1    0    0    0    0  0.00000000000E+00  0.00000000000E+00  0.45593999997E+02  0.45594000000E+02  0.51100000000E-03 0.  1.
         11   -1    0    0    0    0 -0.00000000000E+00 -0.00000000000E+00 -0.45593999997E+02  0.45594000000E+02  0.51100000000E-03 0. -1.
    9900012    2    1    2    0    0  0.17996469368E+02  0.16412540106E+02  0.20578557228E+02  0.59301930941E+02  0.49999976133E+02 0.  0.
         12    1    1    2    0    0 -0.17996469368E+02 -0.16412540106E+02 -0.20578557228E+02  0.31886069059E+02  0.00000000000E+00 0. -1.
         11    1    3    3    0    0  0.28035957668E+02  0.50966875447E+01  0.13246512435E+01  0.28526230867E+02  0.51100000000E-03 0. -1.
        -11    1    3    3    0    0  0.34608480096E+01 -0.23388876852E+01  0.64921058727E+01  0.77197994452E+01  0.51100000000E-03 0.  1.
        -12    1    3    3    0    0 -0.13500336310E+02  0.13654740247E+02  0.12761800112E+02  0.23055900629E+02  0.00000000000E+00 0.  1.
</event>
<event>
 7    1  0.1205909E-011  0.5930210E+02  0.7816164E-02  0.1266604E+00
        -11   -1    0    0    0    0  0.00000000000E+00  0.00000000000E+00  0.45593999997E+02  0.45594000000E+02  0.51100000000E-03 0. -1.
         11   -1    0    0    0    0 -0.00000000000E+00 -0.00000000000E+00 -0.45593999997E+02  0.45594000000E+02  0.51100000000E-03 0.  1.
    9900012    2    1    2    0    0  0.12744496640E+02  0.12312780115E+02 -0.26508188718E+02  0.59302096879E+02  0.50000278763E+02 0.  0.
         12    1    1    2    0    0 -0.12744496640E+02 -0.12312780115E+02  0.26508188718E+02  0.31885903121E+02  0.00000000000E+00 0. -1.
         11    1    3    3    0    0  0.13469980799E+02  0.22985220623E+00 -0.14725869200E+02  0.19958568053E+02  0.51100000000E-03 0. -1.
        -11    1    3    3    0    0 -0.66667101838E+01 -0.47561831373E+01 -0.18526572852E+02  0.20255868400E+02  0.51100000000E-03 0.  1.
         12    1    3    3    0    0  0.59412260252E+01  0.16839111046E+02  0.67442533348E+01  0.19087660426E+02  0.00000000000E+00 0. -1.
</event>
<event>
 7    1  0.1205909E-011  0.5930196E+02  0.7816164E-02  0.1266605E+00
        -11   -1    0    0    0    0  0.00000000000E+00  0.00000000000E+00  0.45593999997E+02  0.45594000000E+02  0.51100000000E-03 0.  1.
         11   -1    0    0    0    0 -0.00000000000E+00 -0.00000000000E+00 -0.45593999997E+02  0.45594000000E+02  0.51100000000E-03 0. -1.
    9900012    2    1    2    0    0 -0.21831063575E+02 -0.19785141127E+02 -0.12193135604E+02  0.59301957566E+02  0.50000024691E+02 0.  0.
         12    1    1    2    0    0  0.21831063575E+02  0.19785141127E+02  0.12193135604E+02  0.31886042434E+02  0.00000000000E+00 0. -1.
         11    1    3    3    0    0 -0.10500368075E+02 -0.62741260547E+01  0.33417330528E+01  0.12680282627E+02  0.51100000000E-03 0. -1.
        -11    1    3    3    0    0 -0.16061855579E+02 -0.22880093422E+02 -0.98715040457E-01  0.27955171697E+02  0.51100000000E-03 0.  1.
         12    1    3    3    0    0  0.47311600787E+01  0.93690783501E+01 -0.15436153617E+02  0.18666503242E+02  0.00000000000E+00 0. -1.
</event>
<event>
 7    1  0.1205909E-011  0.5930195E+02  0.7816164E-02  0.1266605E+00
        -11   -1    0    0    0    0  0.00000000000E+00  0.00000000000E+00  0.45593999997E+02  0.45594000000E+02  0.51100000000E-03 0. -1.
         11   -1    0    0    0    0 -0.00000000000E+00 -0.00000000000E+00 -0.45593999997E+02  0.45594000000E+02  0.51100000000E-03 0.  1.
    9900012    2    1    2    0    0 -0.15202823250E+02 -0.26707148378E+02 -0.85042634866E+01  0.59301951221E+02  0.50000013119E+02 0.  0.
         12    1    1    2    0    0  0.15202823250E+02  0.26707148378E+02  0.85042634866E+01  0.31886048779E+02  0.00000000000E+00 0. -1.
         11    1    3    3    0    0 -0.12675437524E+01 -0.35083192519E+00  0.46995144442E+01  0.48800805810E+01  0.51100000000E-03 0. -1.
        -11    1    3    3    0    0  0.48282455062E+00 -0.13960150574E+02  0.14942546754E+02  0.20454794727E+02  0.51100000000E-03 0.  1.
        -12    1    3    3    0    0 -0.14418104048E+02 -0.12396165879E+02 -0.28146324684E+02  0.33967075913E+02  0.00000000000E+00 0.  1.
</event>
<event>
 7    1  0.1205909E-011  0.5930193E+02  0.7816164E-02  0.1266605E+00
        -11   -1    0    0    0    0  0.00000000000E+00  0.00000000000E+00  0.45593999997E+02  0.45594000000E+02  0.51100000000E-03 0.  1.
         11   -1    0    0    0    0 -0.00000000000E+00 -0.00000000000E+00 -0.45593999997E+02  0.45594000000E+02  0.51100000000E-03 0. -1.
    9900012    2    1    2    0    0 -0.15465606172E+02  0.62749881198E+01  0.27169120230E+02  0.59301928680E+02  0.49999972010E+02 0.  0.
         12    1    1    2    0    0  0.15465606172E+02 -0.62749881198E+01 -0.27169120230E+02  0.31886071320E+02  0.00000000000E+00 0. -1.
         11    1    3    3    0    0  0.43180373048E+01  0.43436693402E+01  0.30915164237E+01  0.68607859289E+01  0.51100000000E-03 0. -1.
        -11    1    3    3    0    0  0.34828153200E+01  0.17979506409E+02  0.89679416542E+01  0.20391582357E+02  0.51100000000E-03 0.  1.
         12    1    3    3    0    0 -0.23266458797E+02 -0.16048187629E+02  0.15109662152E+02  0.32049560394E+02  0.00000000000E+00 0. -1.
</event>
<event>
 7    1  0.1205909E-011  0.5930194E+02  0.7816164E-02  0.1266605E+00
        -11   -1    0    0    0    0  0.00000000000E+00  0.00000000000E+00  0.45593999997E+02  0.45594000000E+02  0.51100000000E-03 0.  1.
         11   -1    0    0    0    0 -0.00000000000E+00 -0.00000000000E+00 -0.45593999997E+02  0.45594000000E+02  0.51100000000E-03 0. -1.
    9900012    2    1    2    0    0  0.19765189839E+02  0.70656118720E+01  0.24002820567E+02  0.59301937282E+02  0.49999987697E+02 0.  0.
         12    1    1    2    0    0 -0.19765189839E+02 -0.70656118720E+01 -0.24002820567E+02  0.31886062718E+02  0.00000000000E+00 0. -1.
         11    1    3    3    0    0 -0.89795481032E-01  0.14692831415E+02  0.40120092710E+00  0.14698582267E+02  0.51100000000E-03 0. -1.
        -11    1    3    3    0    0 -0.11220749001E+01 -0.35502692549E+01 -0.66167568199E+01  0.75924261563E+01  0.51100000000E-03 0.  1.
        -12    1    3    3    0    0  0.20977060220E+02 -0.40769502879E+01  0.30218376460E+02  0.37010928859E+02  0.00000000000E+00 0.  1.
</event>
<event>
 7    1  0.1205909E-011  0.5930193E+02  0.7816164E-02  0.1266605E+00
        -11   -1    0    0    0    0  0.00000000000E+00  0.00000000000E+00  0.45593999997E+02  0.45594000000E+02  0.51100000000E-03 0.  1.
         11   -1    0    0    0    0 -0.00000000000E+00 -0.00000000000E+00 -0.45593999997E+02  0.45594000000E+02  0.51100000000E-03 0. -1.
    9900012    2    1    2    0    0  0.22736293116E+02  0.15796616430E+02  0.15819278411E+02  0.59301926477E+02  0.49999967992E+02 0.  0.
         12    1    1    2    0    0 -0.22736293116E+02 -0.15796616430E+02 -0.15819278411E+02  0.31886073523E+02  0.00000000000E+00 0. -1.
         11    1    3    3    0    0  0.11538016478E+02  0.24730231838E+02  0.17606299643E+02  0.32476021590E+02  0.51100000000E-03 0. -1.
        -11    1    3    3    0    0 -0.36838867271E+01  0.43502776028E+01 -0.36842160409E+01  0.67874431664E+01  0.51100000000E-03 0.  1.
        -12    1    3    3    0    0  0.14882163366E+02 -0.13283893011E+02  0.18971948090E+01  0.20038461720E+02  0.00000000000E+00 0.  1.
</event>
<event>
 7    1  0.1205909E-011  0.5930193E+02  0.7816164E-02  0.1266605E+00
        -11   -1    0    0    0    0  0.00000000000E+00  0.00000000000E+00  0.45593999997E+02  0.45594000000E+02  0.51100000000E-03 0.  1.
         11   -1    0    0    0    0 -0.00000000000E+00 -0.00000000000E+00 -0.45593999997E+02  0.45594000000E+02  0.51100000000E-03 0. -1.
    9900012    2    1    2    0    0 -0.88300054733E+01 -0.82618211390E+01  0.29504145805E+02  0.59301932433E+02  0.49999978855E+02 0.  0.
         12    1    1    2    0    0  0.88300054733E+01  0.82618211390E+01 -0.29504145805E+02  0.31886067567E+02  0.00000000000E+00 0. -1.
         11    1    3    3    0    0  0.79277408395E+01  0.14153076165E+02  0.13299870146E+01  0.16276593792E+02  0.51100000000E-03 0. -1.
        -11    1    3    3    0    0 -0.10813057459E+02 -0.23675053375E+01  0.13609415471E+02  0.17542619042E+02  0.51100000000E-03 0.  1.
        -12    1    3    3    0    0 -0.59446888538E+01 -0.20047391966E+02  0.14564743319E+02  0.25482719599E+02  0.00000000000E+00 0.  1.
</event>
<event>
 7    1  0.1205909E-011  0.5930191E+02  0.7816164E-02  0.1266605E+00
        -11   -1    0    0    0    0  0.00000000000E+00  0.00000000000E+00  0.45593999997E+02  0.45594000000E+02  0.51100000000E-03 0.  1.
         11   -1    0    0    0    0 -0.00000000000E+00 -0.00000000000E+00 -0.45593999997E+02  0.45594000000E+02  0.51100000000E-03 0. -1.
    9900012    2    1    2    0    0  0.77085991478E+00 -0.17283644235E+02  0.26784403085E+02  0.59301908492E+02  0.49999935191E+02 0.  0.
         12    1    1    2    0    0 -0.77085991478E+00  0.17283644235E+02 -0.26784403085E+02  0.31886091508E+02  0.00000000000E+00 0. -1.
         11    1    3    3    0    0  0.75322811104E+01  0.72747817968E+01  0.71170930229E+01  0.12661387060E+02  0.51100000000E-03 0. -1.
        -11    1    3    3    0    0 -0.39761201696E+00  0.18394197344E+01  0.19393968978E+02  0.19485060771E+02  0.51100000000E-03 0.  1.
        -12    1    3    3    0    0 -0.63638091787E+01 -0.26397845766E+02  0.27334108373E+00  0.27155460661E+02  0.00000000000E+00 0.  1.
</event>
<event>
 7    1  0.1205909E-011  0.5930196E+02  0.7816164E-02  0.1266605E+00
        -11   -1    0    0    0    0  0.00000000000E+00  0.00000000000E+00  0.45593999997E+02  0.45594000000E+02  0.51100000000E-03 0. -1.
         11   -1    0    0    0    0 -0.00000000000E+00 -0.00000000000E+00 -0.45593999997E+02  0.45594000000E+02  0.51100000000E-03 0.  1.
    9900012    2    1    2    0    0  0.91227707426E+01 -0.23679997242E+02 -0.19306792733E+02  0.59301961346E+02  0.50000031584E+02 0.  0.
         12    1    1    2    0    0 -0.91227707426E+01  0.23679997242E+02  0.19306792733E+02  0.31886038654E+02  0.00000000000E+00 0. -1.
         11    1    3    3    0    0  0.94691470338E+01  0.39416133146E+00 -0.87987799702E+01  0.12932077866E+02  0.51100000000E-03 0. -1.
        -11    1    3    3    0    0  0.12073868211E+02 -0.26480446476E+02  0.12063207515E+01  0.29128122994E+02  0.51100000000E-03 0.  1.
         12    1    3    3    0    0 -0.12420244502E+02  0.24062879029E+01 -0.11714333515E+02  0.17241760486E+02  0.00000000000E+00 0. -1.
</event>
<event>
 7    1  0.1205909E-011  0.5930194E+02  0.7816164E-02  0.1266605E+00
        -11   -1    0    0    0    0  0.00000000000E+00  0.00000000000E+00  0.45593999997E+02  0.45594000000E+02  0.51100000000E-03 0. -1.
         11   -1    0    0    0    0 -0.00000000000E+00 -0.00000000000E+00 -0.45593999997E+02  0.45594000000E+02  0.51100000000E-03 0.  1.
    9900012    2    1    2    0    0  0.27587087800E+02  0.45136681777E+01 -0.15339494450E+02  0.59301941860E+02  0.49999996047E+02 0.  0.
         12    1    1    2    0    0 -0.27587087800E+02 -0.45136681777E+01  0.15339494450E+02  0.31886058140E+02  0.00000000000E+00 0. -1.
         11    1    3    3    0    0  0.25845566707E+02 -0.38622663475E+00 -0.17102605334E+02  0.30994218798E+02  0.51100000000E-03 0. -1.
        -11    1    3    3    0    0  0.10675760940E+02 -0.48355862354E+01 -0.58066102191E+01  0.13079429972E+02  0.51100000000E-03 0.  1.
         12    1    3    3    0    0 -0.89342398465E+01  0.97354810478E+01  0.75697211032E+01  0.15228293090E+02  0.00000000000E+00 0. -1.
</event>
<event>
 7    1  0.1205909E-011  0.5930196E+02  0.7816164E-02  0.1266605E+00
        -11   -1    0    0    0    0  0.00000000000E+00  0.00000000000E+00  0.45593999997E+02  0.45594000000E+02  0.51100000000E-03 0.  1.
         11   -1    0    0    0    0 -0.00000000000E+00 -0.00000000000E+00 -0.45593999997E+02  0.45594000000E+02  0.51100000000E-03 0. -1.
    9900012    2    1    2    0    0 -0.83560394533E+01  0.48824920206E+01  0.30381858593E+02  0.59301961437E+02  0.50000031751E+02 0.  0.
         12    1    1    2    0    0  0.83560394533E+01 -0.48824920206E+01 -0.30381858593E+02  0.31886038563E+02  0.00000000000E+00 0. -1.
         11    1    3    3    0    0  0.25377217141E+01 -0.99731318215E+01  0.12103764314E+02  0.15887243331E+02  0.51100000000E-03 0. -1.
        -11    1    3    3    0    0  0.57938247811E+01 -0.59051361679E+01  0.14247769995E+02  0.16475375226E+02  0.51100000000E-03 0.  1.
         12    1    3    3    0    0 -0.16687585949E+02  0.20760760010E+02  0.40303242839E+01  0.26939342880E+02  0.00000000000E+00 0. -1.
</event>
<event>
 7    1  0.1205909E-011  0.5930197E+02  0.7816164E-02  0.1266605E+00
        -11   -1    0    0    0    0  0.00000000000E+00  0.00000000000E+00  0.45593999997E+02  0.45594000000E+02  0.51100000000E-03 0.  1.
         11   -1    0    0    0    0 -0.00000000000E+00 -0.00000000000E+00 -0.45593999997E+02  0.45594000000E+02  0.51100000000E-03 0. -1.
    9900012    2    1    2    0    0 -0.19043118274E+02  0.21414250650E+02  0.13982430835E+02  0.59301970825E+02  0.50000048871E+02 0.  0.
         12    1    1    2    0    0  0.19043118274E+02 -0.21414250650E+02 -0.13982430835E+02  0.31886029175E+02  0.00000000000E+00 0. -1.
         11    1    3    3    0    0 -0.15437399390E+02  0.25632224662E+02  0.19453382962E+02  0.35689751330E+02  0.51100000000E-03 0. -1.
        -11    1    3    3    0    0  0.41940933686E+01  0.67668563765E+01  0.19979259572E+01  0.82080736349E+01  0.51100000000E-03 0.  1.
        -12    1    3    3    0    0 -0.77998122528E+01 -0.10984830388E+02 -0.74688780842E+01  0.15404145860E+02  0.00000000000E+00 0.  1.
</event>
<event>
 7    1  0.1205909E-011  0.5930194E+02  0.7816164E-02  0.1266605E+00
        -11   -1    0    0    0    0  0.00000000000E+00  0.00000000000E+00  0.45593999997E+02  0.45594000000E+02  0.51100000000E-03 0.  1.
         11   -1    0    0    0    0 -0.00000000000E+00 -0.00000000000E+00 -0.45593999997E+02  0.45594000000E+02  0.51100000000E-03 0. -1.
    9900012    2    1    2    0    0 -0.15916855756E+02 -0.11788550664E+02  0.24988086986E+02  0.59301941681E+02  0.49999995720E+02 0.  0.
         12    1    1    2    0    0  0.15916855756E+02  0.11788550664E+02 -0.24988086986E+02  0.31886058319E+02  0.00000000000E+00 0. -1.
         11    1    3    3    0    0 -0.11337258020E+02  0.31212531685E+01  0.18368220484E+02  0.21809795156E+02  0.51100000000E-03 0. -1.
        -11    1    3    3    0    0 -0.11530798088E+02 -0.10195249609E+02  0.17785083450E+02  0.23520450946E+02  0.51100000000E-03 0.  1.
         12    1    3    3    0    0  0.69512003514E+01 -0.47145542231E+01 -0.11165216948E+02  0.13971695578E+02  0.00000000000E+00 0. -1.
</event>
<event>
 7    1  0.1205909E-011  0.5930190E+02  0.7816164E-02  0.1266605E+00
        -11   -1    0    0    0    0  0.00000000000E+00  0.00000000000E+00  0.45593999997E+02  0.45594000000E+02  0.51100000000E-03 0.  1.
         11   -1    0    0    0    0 -0.00000000000E+00 -0.00000000000E+00 -0.45593999997E+02  0.45594000000E+02  0.51100000000E-03 0. -1.
    9900012    2    1    2    0    0 -0.16118033745E+02 -0.24807372601E+01  0.27400332091E+02  0.59301901652E+02  0.49999922716E+02 0.  0.
         12    1    1    2    0    0  0.16118033745E+02  0.24807372601E+01 -0.27400332091E+02  0.31886098348E+02  0.00000000000E+00 0. -1.
         11    1    3    3    0    0 -0.71912538043E+01  0.41273579116E+01  0.28822866839E+02  0.29991780002E+02  0.51100000000E-03 0. -1.
        -11    1    3    3    0    0 -0.10198852327E+02 -0.15793718178E+02  0.29964387057E+01  0.19037772135E+02  0.51100000000E-03 0.  1.
         12    1    3    3    0    0  0.12720723866E+01  0.91856230063E+01 -0.44189734534E+01  0.10272349515E+02  0.00000000000E+00 0. -1.
</event>
<event>
 7    1  0.1205909E-011  0.5930192E+02  0.7816164E-02  0.1266605E+00
        -11   -1    0    0    0    0  0.00000000000E+00  0.00000000000E+00  0.45593999997E+02  0.45594000000E+02  0.51100000000E-03 0.  1.
         11   -1    0    0    0    0 -0.00000000000E+00 -0.00000000000E+00 -0.45593999997E+02  0.45594000000E+02  0.51100000000E-03 0. -1.
    9900012    2    1    2    0    0 -0.19306451746E+02  0.68097441906E+01  0.24446077156E+02  0.59301915523E+02  0.49999948014E+02 0.  0.
         12    1    1    2    0    0  0.19306451746E+02 -0.68097441906E+01 -0.24446077156E+02  0.31886084477E+02  0.00000000000E+00 0. -1.
         11    1    3    3    0    0 -0.17584919390E+02  0.11883322984E+01 -0.63929022170E+01  0.18748619219E+02  0.51100000000E-03 0. -1.
        -11    1    3    3    0    0 -0.72268328186E+01 -0.42738467571E+01  0.77998441029E+00  0.84321559895E+01  0.51100000000E-03 0.  1.
        -12    1    3    3    0    0  0.55053004627E+01  0.98952586493E+01  0.30058994963E+02  0.32121140315E+02  0.00000000000E+00 0.  1.
</event>
<event>
 7    1  0.1205909E-011  0.5930192E+02  0.7816164E-02  0.1266605E+00
        -11   -1    0    0    0    0  0.00000000000E+00  0.00000000000E+00  0.45593999997E+02  0.45594000000E+02  0.51100000000E-03 0.  1.
         11   -1    0    0    0    0 -0.00000000000E+00 -0.00000000000E+00 -0.45593999997E+02  0.45594000000E+02  0.51100000000E-03 0. -1.
    9900012    2    1    2    0    0 -0.20489748727E+02 -0.10107244499E+01  0.24410468029E+02  0.59301916575E+02  0.49999949933E+02 0.  0.
         12    1    1    2    0    0  0.20489748727E+02  0.10107244499E+01 -0.24410468029E+02  0.31886083425E+02  0.00000000000E+00 0. -1.
         11    1    3    3    0    0  0.72003890209E+01  0.83925557376E+01  0.66028239638E+01  0.12879358618E+02  0.51100000000E-03 0. -1.
        -11    1    3    3    0    0 -0.82118818240E+01  0.45496324836E+01 -0.71685214938E+01  0.11811937161E+02  0.51100000000E-03 0.  1.
         12    1    3    3    0    0 -0.19478255924E+02 -0.13952912671E+02  0.24976165559E+02  0.34610620796E+02  0.00000000000E+00 0. -1.
</event>
<event>
 7    1  0.1205909E-011  0.5930193E+02  0.7816164E-02  0.1266605E+00
        -11   -1    0    0    0    0  0.00000000000E+00  0.00000000000E+00  0.45593999997E+02  0.45594000000E+02  0.51100000000E-03 0.  1.
         11   -1    0    0    0    0 -0.00000000000E+00 -0.00000000000E+00 -0.45593999997E+02  0.45594000000E+02  0.51100000000E-03 0. -1.
    9900012    2    1    2    0    0 -0.31618943551E+02  0.33152623174E+01  0.24440020337E+01  0.59301926215E+02  0.49999967514E+02 0.  0.
         12    1    1    2    0    0  0.31618943551E+02 -0.33152623174E+01 -0.24440020337E+01  0.31886073785E+02  0.00000000000E+00 0. -1.
         11    1    3    3    0    0  0.60636443016E+01 -0.31328233794E+01 -0.85042818198E+01  0.10904364909E+02  0.51100000000E-03 0. -1.
        -11    1    3    3    0    0  0.10493229990E+01  0.77935793597E+01 -0.79037129143E+00  0.79035210528E+01  0.51100000000E-03 0.  1.
        -12    1    3    3    0    0 -0.38731910851E+02 -0.13454936629E+01  0.11738655145E+02  0.40494040253E+02  0.00000000000E+00 0.  1.
</event>
<event>
 7    1  0.1205909E-011  0.5930196E+02  0.7816164E-02  0.1266605E+00
        -11   -1    0    0    0    0  0.00000000000E+00  0.00000000000E+00  0.45593999997E+02  0.45594000000E+02  0.51100000000E-03 0.  1.
         11   -1    0    0    0    0 -0.00000000000E+00 -0.00000000000E+00 -0.45593999997E+02  0.45594000000E+02  0.51100000000E-03 0. -1.
    9900012    2    1    2    0    0  0.25359525478E+02  0.19101300851E+02  0.29588139218E+01  0.59301955929E+02  0.50000021706E+02 0.  0.
         12    1    1    2    0    0 -0.25359525478E+02 -0.19101300851E+02 -0.29588139218E+01  0.31886044071E+02  0.00000000000E+00 0. -1.
         11    1    3    3    0    0 -0.30749595386E+01  0.12682892017E+02 -0.33526640697E-01  0.13050373572E+02  0.51100000000E-03 0. -1.
        -11    1    3    3    0    0  0.54191462169E+01  0.17477557664E+02 -0.58794166659E+01  0.19219773886E+02  0.51100000000E-03 0.  1.
        -12    1    3    3    0    0  0.23015338800E+02 -0.11059148831E+02  0.88717572284E+01  0.27031808471E+02  0.00000000000E+00 0.  1.
</event>
<event>
 7    1  0.1205909E-011  0.5930195E+02  0.7816164E-02  0.1266605E+00
        -11   -1    0    0    0    0  0.00000000000E+00  0.00000000000E+00  0.45593999997E+02  0.45594000000E+02  0.51100000000E-03 0. -1.
         11   -1    0    0    0    0 -0.00000000000E+00 -0.00000000000E+00 -0.45593999997E+02  0.45594000000E+02  0.51100000000E-03 0.  1.
    9900012    2    1    2    0    0 -0.27287848998E+00  0.13150334122E+02 -0.29046767906E+02  0.59301945431E+02  0.50000002559E+02 0.  0.
         12    1    1    2    0    0  0.27287848998E+00 -0.13150334122E+02  0.29046767906E+02  0.31886054569E+02  0.00000000000E+00 0. -1.
         11    1    3    3    0    0  0.20858693445E+02  0.14021345087E+02 -0.13555407782E+02  0.28555775084E+02  0.51100000000E-03 0. -1.
        -11    1    3    3    0    0  0.55769882899E+00  0.42178503163E+01 -0.19994483168E+01  0.47009661887E+01  0.51100000000E-03 0.  1.
        -12    1    3    3    0    0 -0.21689270764E+02 -0.50888612814E+01 -0.13491911807E+02  0.26045204158E+02  0.00000000000E+00 0.  1.
</event>
<event>
 7    1  0.1205909E-011  0.5930202E+02  0.7816164E-02  0.1266605E+00
        -11   -1    0    0    0    0  0.00000000000E+00  0.00000000000E+00  0.45593999997E+02  0.45594000000E+02  0.51100000000E-03 0. -1.
         11   -1    0    0    0    0 -0.00000000000E+00 -0.00000000000E+00 -0.45593999997E+02  0.45594000000E+02  0.51100000000E-03 0.  1.
    9900012    2    1    2    0    0 -0.14898653930E+00  0.18841903045E+02 -0.25723072808E+02  0.59302015900E+02  0.50000131077E+02 0.  0.
         12    1    1    2    0    0  0.14898653930E+00 -0.18841903045E+02  0.25723072808E+02  0.31885984100E+02  0.00000000000E+00 0. -1.
         11    1    3    3    0    0  0.13546506890E+02  0.27835270290E+01 -0.12015756205E+02  0.18320323935E+02  0.51100000000E-03 0. -1.
        -11    1    3    3    0    0 -0.38185260239E+01 -0.13752123676E+01 -0.19663580408E+02  0.20078066261E+02  0.51100000000E-03 0.  1.
         12    1    3    3    0    0 -0.98769674052E+01  0.17433588384E+02  0.59562638049E+01  0.20903625704E+02  0.00000000000E+00 0. -1.
</event>
<event>
 7    1  0.1205909E-011  0.5930195E+02  0.7816164E-02  0.1266605E+00
        -11   -1    0    0    0    0  0.00000000000E+00  0.00000000000E+00  0.45593999997E+02  0.45594000000E+02  0.51100000000E-03 0.  1.
         11   -1    0    0    0    0 -0.00000000000E+00 -0.00000000000E+00 -0.45593999997E+02  0.45594000000E+02  0.51100000000E-03 0. -1.
    9900012    2    1    2    0    0  0.25682815722E+02 -0.11122464274E+02  0.15277564948E+02  0.59301949356E+02  0.50000009717E+02 0.  0.
         12    1    1    2    0    0 -0.25682815722E+02  0.11122464274E+02 -0.15277564948E+02  0.31886050644E+02  0.00000000000E+00 0. -1.
         11    1    3    3    0    0  0.27504219482E+01  0.14740378585E+02  0.15383742212E+02  0.21482623360E+02  0.51100000000E-03 0. -1.
        -11    1    3    3    0    0  0.13447146837E+02 -0.56828906670E+01  0.40216523228E+01  0.15142479720E+02  0.51100000000E-03 0.  1.
        -12    1    3    3    0    0  0.94852469367E+01 -0.20179952192E+02 -0.41278295870E+01  0.22676846276E+02  0.00000000000E+00 0.  1.
</event>
<event>
 7    1  0.1205909E-011  0.5930187E+02  0.7816164E-02  0.1266605E+00
        -11   -1    0    0    0    0  0.00000000000E+00  0.00000000000E+00  0.45593999997E+02  0.45594000000E+02  0.51100000000E-03 0.  1.
         11   -1    0    0    0    0 -0.00000000000E+00 -0.00000000000E+00 -0.45593999997E+02  0.45594000000E+02  0.51100000000E-03 0. -1.
    9900012    2    1    2    0    0  0.13631039707E+02  0.23038920458E+02  0.17324217303E+02  0.59301865012E+02  0.49999855893E+02 0.  0.
         12    1    1    2    0    0 -0.13631039707E+02 -0.23038920458E+02 -0.17324217303E+02  0.31886134988E+02  0.00000000000E+00 0. -1.
         11    1    3    3    0    0  0.19444128191E+02 -0.26158115293E+00 -0.24117080397E+01  0.19594868760E+02  0.51100000000E-03 0. -1.
        -11    1    3    3    0    0 -0.41534017661E+01 -0.40120655412E+01  0.81588847045E+01  0.99957398936E+01  0.51100000000E-03 0.  1.
         12    1    3    3    0    0 -0.16596867180E+01  0.27312567152E+02  0.11577040638E+02  0.29711256358E+02  0.00000000000E+00 0. -1.
</event>
<event>
 7    1  0.1205909E-011  0.5930198E+02  0.7816164E-02  0.1266605E+00
        -11   -1    0    0    0    0  0.00000000000E+00  0.00000000000E+00  0.45593999997E+02  0.45594000000E+02  0.51100000000E-03 0.  1.
         11   -1    0    0    0    0 -0.00000000000E+00 -0.00000000000E+00 -0.45593999997E+02  0.45594000000E+02  0.51100000000E-03 0. -1.
    9900012    2    1    2    0    0 -0.14005249414E+02 -0.24388131911E+02  0.15026311539E+02  0.59301983822E+02  0.50000072575E+02 0.  0.
         12    1    1    2    0    0  0.14005249414E+02  0.24388131911E+02 -0.15026311539E+02  0.31886016178E+02  0.00000000000E+00 0. -1.
         11    1    3    3    0    0 -0.62591831643E+01 -0.28016218445E+02  0.19491248046E+01  0.28772990070E+02  0.51100000000E-03 0.  1.
        -11    1    3    3    0    0  0.26046429202E+01 -0.36161665156E+01 -0.61059022243E+01  0.75592901283E+01  0.51100000000E-03 0. -1.
        -12    1    3    3    0    0 -0.10350709169E+02  0.72442530496E+01  0.19183088959E+02  0.22969703623E+02  0.00000000000E+00 0.  1.
</event>
<event>
 7    1  0.1205909E-011  0.5930194E+02  0.7816164E-02  0.1266605E+00
        -11   -1    0    0    0    0  0.00000000000E+00  0.00000000000E+00  0.45593999997E+02  0.45594000000E+02  0.51100000000E-03 0.  1.
         11   -1    0    0    0    0 -0.00000000000E+00 -0.00000000000E+00 -0.45593999997E+02  0.45594000000E+02  0.51100000000E-03 0. -1.
    9900012    2    1    2    0    0 -0.20781924230E+02 -0.20499603870E+01  0.24096272351E+02  0.59301936375E+02  0.49999986043E+02 0.  0.
         12    1    1    2    0    0  0.20781924230E+02  0.20499603870E+01 -0.24096272351E+02  0.31886063625E+02  0.00000000000E+00 0. -1.
         11    1    3    3    0    0 -0.16414158842E+00 -0.94931332271E+01  0.59956893491E+01  0.11229194627E+02  0.51100000000E-03 0. -1.
        -11    1    3    3    0    0 -0.29523116219E+02 -0.28688578046E+01  0.69474632989E+01  0.30464930378E+02  0.51100000000E-03 0.  1.
         12    1    3    3    0    0  0.89053335773E+01  0.10312030645E+02  0.11153119703E+02  0.17607811370E+02  0.00000000000E+00 0. -1.
</event>
<event>
 7    1  0.1205909E-011  0.5930192E+02  0.7816164E-02  0.1266605E+00
        -11   -1    0    0    0    0  0.00000000000E+00  0.00000000000E+00  0.45593999997E+02  0.45594000000E+02  0.51100000000E-03 0.  1.
         11   -1    0    0    0    0 -0.00000000000E+00 -0.00000000000E+00 -0.45593999997E+02  0.45594000000E+02  0.51100000000E-03 0. -1.
    9900012    2    1    2    0    0  0.29828257636E+02  0.10998421005E+02 -0.24559716934E+01  0.59301921295E+02  0.49999958541E+02 0.  0.
         12    1    1    2    0    0 -0.29828257636E+02 -0.10998421005E+02  0.24559716934E+01  0.31886078705E+02  0.00000000000E+00 0. -1.
         11    1    3    3    0    0  0.42984323258E+01 -0.85613388197E+01 -0.14528982915E+02  0.17402999387E+02  0.51100000000E-03 0. -1.
        -11    1    3    3    0    0  0.81809256983E+01 -0.53253688422E+01  0.35731780812E+01  0.10394936289E+02  0.51100000000E-03 0.  1.
         12    1    3    3    0    0  0.17348899612E+02  0.24885128667E+02  0.84998331404E+01  0.31503985620E+02  0.00000000000E+00 0. -1.
</event>
<event>
 7    1  0.1205909E-011  0.5930187E+02  0.7816164E-02  0.1266605E+00
        -11   -1    0    0    0    0  0.00000000000E+00  0.00000000000E+00  0.45593999997E+02  0.45594000000E+02  0.51100000000E-03 0.  1.
         11   -1    0    0    0    0 -0.00000000000E+00 -0.00000000000E+00 -0.45593999997E+02  0.45594000000E+02  0.51100000000E-03 0. -1.
    9900012    2    1    2    0    0  0.20912612246E+02 -0.24018235968E+02 -0.15849888802E+01  0.59301871359E+02  0.49999867470E+02 0.  0.
         12    1    1    2    0    0 -0.20912612246E+02  0.24018235968E+02  0.15849888802E+01  0.31886128641E+02  0.00000000000E+00 0. -1.
         11    1    3    3    0    0  0.23872738933E+02 -0.31058190505E+02 -0.11691033511E+02  0.40880302426E+02  0.51100000000E-03 0.  1.
        -11    1    3    3    0    0 -0.10020108959E+01 -0.26063139894E+01 -0.15274022389E+01  0.31827435189E+01  0.51100000000E-03 0. -1.
        -12    1    3    3    0    0 -0.19581157905E+01  0.96462685268E+01  0.11633446870E+02  0.15238825415E+02  0.00000000000E+00 0.  1.
</event>
<event>
 7    1  0.1205909E-011  0.5930199E+02  0.7816164E-02  0.1266605E+00
        -11   -1    0    0    0    0  0.00000000000E+00  0.00000000000E+00  0.45593999997E+02  0.45594000000E+02  0.51100000000E-03 0.  1.
         11   -1    0    0    0    0 -0.00000000000E+00 -0.00000000000E+00 -0.45593999997E+02  0.45594000000E+02  0.51100000000E-03 0. -1.
    9900012    2    1    2    0    0  0.27330923062E+00  0.16746315699E+02  0.27133075333E+02  0.59301991086E+02  0.50000085823E+02 0.  0.
         12    1    1    2    0    0 -0.27330923062E+00 -0.16746315699E+02 -0.27133075333E+02  0.31886008914E+02  0.00000000000E+00 0. -1.
         11    1    3    3    0    0  0.19905779430E+02  0.10092325257E+02  0.11365941896E+02  0.25045552884E+02  0.51100000000E-03 0. -1.
        -11    1    3    3    0    0 -0.30431493863E+01  0.50430818220E+01  0.16553854627E+02  0.17570530320E+02  0.51100000000E-03 0.  1.
         12    1    3    3    0    0 -0.16589320813E+02  0.16109086195E+01 -0.78672118981E+00  0.16685907882E+02  0.00000000000E+00 0. -1.
</event>
<event>
 7    1  0.1205909E-011  0.5930199E+02  0.7816164E-02  0.1266605E+00
        -11   -1    0    0    0    0  0.00000000000E+00  0.00000000000E+00  0.45593999997E+02  0.45594000000E+02  0.51100000000E-03 0.  1.
         11   -1    0    0    0    0 -0.00000000000E+00 -0.00000000000E+00 -0.45593999997E+02  0.45594000000E+02  0.51100000000E-03 0. -1.
    9900012    2    1    2    0    0  0.27899092536E+02 -0.15420766218E+02 -0.74702101538E+00  0.59301993109E+02  0.50000089512E+02 0.  0.
         12    1    1    2    0    0 -0.27899092536E+02  0.15420766218E+02  0.74702101538E+00  0.31886006891E+02  0.00000000000E+00 0. -1.
         11    1    3    3    0    0  0.83926138232E+01  0.63567979659E+00 -0.30396019129E+01  0.89487002206E+01  0.51100000000E-03 0. -1.
        -11    1    3    3    0    0  0.32270060862E+02 -0.95690636223E+01 -0.54167720656E+01  0.34092011183E+02  0.51100000000E-03 0.  1.
        -12    1    3    3    0    0 -0.12763582149E+02 -0.64873823922E+01  0.77093529632E+01  0.16261281705E+02  0.00000000000E+00 0.  1.
</event>
<event>
 7    1  0.1205909E-011  0.5930194E+02  0.7816164E-02  0.1266605E+00
        -11   -1    0    0    0    0  0.00000000000E+00  0.00000000000E+00  0.45593999997E+02  0.45594000000E+02  0.51100000000E-03 0.  1.
         11   -1    0    0    0    0 -0.00000000000E+00 -0.00000000000E+00 -0.45593999997E+02  0.45594000000E+02  0.51100000000E-03 0. -1.
    9900012    2    1    2    0    0  0.17006217751E+02 -0.21334810039E+02  0.16502577467E+02  0.59301943099E+02  0.49999998307E+02 0.  0.
         12    1    1    2    0    0 -0.17006217751E+02  0.21334810039E+02 -0.16502577467E+02  0.31886056901E+02  0.00000000000E+00 0. -1.
         11    1    3    3    0    0 -0.13524586585E+01 -0.61784352732E+01 -0.12838948263E+02  0.14312260465E+02  0.51100000000E-03 0. -1.
        -11    1    3    3    0    0  0.10004649180E+02 -0.12462250509E+02  0.17989205082E+01  0.16082189162E+02  0.51100000000E-03 0.  1.
         12    1    3    3    0    0  0.83540272292E+01 -0.26941242565E+01  0.27542605222E+02  0.28907493473E+02  0.00000000000E+00 0. -1.
</event>
<event>
 7    1  0.1205909E-011  0.5930193E+02  0.7816164E-02  0.1266605E+00
        -11   -1    0    0    0    0  0.00000000000E+00  0.00000000000E+00  0.45593999997E+02  0.45594000000E+02  0.51100000000E-03 0.  1.
         11   -1    0    0    0    0 -0.00000000000E+00 -0.00000000000E+00 -0.45593999997E+02  0.45594000000E+02  0.51100000000E-03 0. -1.
    9900012    2    1    2    0    0 -0.31260981962E+02  0.40498222668E+01  0.48032516978E+01  0.59301932816E+02  0.49999979552E+02 0.  0.
         12    1    1    2    0    0  0.31260981962E+02 -0.40498222668E+01 -0.48032516978E+01  0.31886067184E+02  0.00000000000E+00 0. -1.
         11    1    3    3    0    0 -0.57140333353E+00  0.68075111823E+01  0.32107243385E+01  0.75483416263E+01  0.51100000000E-03 0. -1.
        -11    1    3    3    0    0 -0.29382082400E+02  0.15341645524E+02  0.42350651528E+01  0.33415694376E+02  0.51100000000E-03 0.  1.
         12    1    3    3    0    0 -0.13074962280E+01 -0.18099334440E+02 -0.26425377935E+01  0.18337896813E+02  0.00000000000E+00 0. -1.
</event>
<event>
 7    1  0.1314117E-011  0.5930196E+02  0.7816164E-02  0.1266605E+00
        -11   -1    0    0    0    0  0.00000000000E+00  0.00000000000E+00  0.45593999997E+02  0.45594000000E+02  0.51100000000E-03 0. -1.
         11   -1    0    0    0    0 -0.00000000000E+00 -0.00000000000E+00 -0.45593999997E+02  0.45594000000E+02  0.51100000000E-03 0.  1.
    9900012    2    1    2    0    0 -0.57258287932E+01  0.24654750344E+02 -0.19392729768E+02  0.59301956066E+02  0.50000021955E+02 0.  0.
         12    1    1    2    0    0  0.57258287932E+01 -0.24654750344E+02  0.19392729768E+02  0.31886043934E+02  0.00000000000E+00 0. -1.
         11    1    3    3    0    0 -0.12055708319E+02  0.16786514555E+02 -0.44504259247E+01  0.21140800958E+02  0.51100000000E-03 0. -1.
        -11    1    3    3    0    0 -0.83286777430E+01 -0.40608396162E+01 -0.16784693393E+02  0.19172460038E+02  0.51100000000E-03 0.  1.
         12    1    3    3    0    0  0.14658557269E+02  0.11929075406E+02  0.18423895501E+01  0.18988695071E+02  0.00000000000E+00 0. -1.
</event>
<event>
 7    1  0.1205909E-011  0.5930197E+02  0.7816164E-02  0.1266605E+00
        -11   -1    0    0    0    0  0.00000000000E+00  0.00000000000E+00  0.45593999997E+02  0.45594000000E+02  0.51100000000E-03 0.  1.
         11   -1    0    0    0    0 -0.00000000000E+00 -0.00000000000E+00 -0.45593999997E+02  0.45594000000E+02  0.51100000000E-03 0. -1.
    9900012    2    1    2    0    0 -0.11003583600E+02  0.27386295713E+02  0.12067774563E+02  0.59301965003E+02  0.50000038253E+02 0.  0.
         12    1    1    2    0    0  0.11003583600E+02 -0.27386295713E+02 -0.12067774563E+02  0.31886034997E+02  0.00000000000E+00 0. -1.
         11    1    3    3    0    0  0.38559745099E+01  0.46815379354E+01  0.29272429759E+00  0.60721515658E+01  0.51100000000E-03 0.  1.
        -11    1    3    3    0    0  0.15453066243E+02  0.51078898367E+01  0.65398917517E-01  0.16275505282E+02  0.51100000000E-03 0. -1.
         12    1    3    3    0    0 -0.30312624353E+02  0.17596867941E+02  0.11709651348E+02  0.36954308155E+02  0.00000000000E+00 0. -1.
</event>
<event>
 7    1  0.1205909E-011  0.5930220E+02  0.7816164E-02  0.1266604E+00
        -11   -1    0    0    0    0  0.00000000000E+00  0.00000000000E+00  0.45593999997E+02  0.45594000000E+02  0.51100000000E-03 0. -1.
         11   -1    0    0    0    0 -0.00000000000E+00 -0.00000000000E+00 -0.45593999997E+02  0.45594000000E+02  0.51100000000E-03 0.  1.
    9900012    2    1    2    0    0  0.86740766415E+01 -0.12550774789E+02 -0.27998978470E+02  0.59302198321E+02  0.50000463767E+02 0.  0.
         12    1    1    2    0    0 -0.86740766415E+01  0.12550774789E+02  0.27998978470E+02  0.31885801679E+02  0.00000000000E+00 0. -1.
         11    1    3    3    0    0  0.69909401138E+01 -0.71123666808E+01 -0.61336013902E+01  0.11708119821E+02  0.51100000000E-03 0. -1.
        -11    1    3    3    0    0 -0.43513353474E+01 -0.11059519165E+02 -0.32228483576E+02  0.34349996176E+02  0.51100000000E-03 0.  1.
         12    1    3    3    0    0  0.60344718751E+01  0.56211110565E+01  0.10363106496E+02  0.13244082323E+02  0.00000000000E+00 0. -1.
</event>
<event>
 7    1  0.1205909E-011  0.5930177E+02  0.7816164E-02  0.1266605E+00
        -11   -1    0    0    0    0  0.00000000000E+00  0.00000000000E+00  0.45593999997E+02  0.45594000000E+02  0.51100000000E-03 0.  1.
         11   -1    0    0    0    0 -0.00000000000E+00 -0.00000000000E+00 -0.45593999997E+02  0.45594000000E+02  0.51100000000E-03 0. -1.
    9900012    2    1    2    0    0  0.49724031581E+00  0.23362226080E+02  0.21695411148E+02  0.59301769112E+02  0.49999680995E+02 0.  0.
         12    1    1    2    0    0 -0.49724031581E+00 -0.23362226080E+02 -0.21695411148E+02  0.31886230888E+02  0.00000000000E+00 0. -1.
         11    1    3    3    0    0 -0.78061530413E+00  0.32897078886E+01  0.15814864168E+01  0.37326448791E+01  0.51100000000E-03 0. -1.
        -11    1    3    3    0    0 -0.17159358702E+02  0.17132277922E+02  0.26422105101E+02  0.35862043669E+02  0.51100000000E-03 0.  1.
         12    1    3    3    0    0  0.18437214322E+02  0.29402402695E+01 -0.63081803702E+01  0.19707080564E+02  0.00000000000E+00 0. -1.
</event>
<event>
 7    1  0.1205909E-011  0.5930194E+02  0.7816164E-02  0.1266605E+00
        -11   -1    0    0    0    0  0.00000000000E+00  0.00000000000E+00  0.45593999997E+02  0.45594000000E+02  0.51100000000E-03 0.  1.
         11   -1    0    0    0    0 -0.00000000000E+00 -0.00000000000E+00 -0.45593999997E+02  0.45594000000E+02  0.51100000000E-03 0. -1.
    9900012    2    1    2    0    0 -0.21523521709E+02 -0.19658122766E+02  0.12923508773E+02  0.59301939465E+02  0.49999991679E+02 0.  0.
         12    1    1    2    0    0  0.21523521709E+02  0.19658122766E+02 -0.12923508773E+02  0.31886060535E+02  0.00000000000E+00 0. -1.
         11    1    3    3    0    0 -0.25388857001E+02 -0.13232699509E+02  0.52105147712E+01  0.29100650518E+02  0.51100000000E-03 0. -1.
        -11    1    3    3    0    0 -0.10560364680E+02 -0.38208293294E+01 -0.34805594329E+01  0.11757309776E+02  0.51100000000E-03 0.  1.
         12    1    3    3    0    0  0.14425699972E+02 -0.26045939268E+01  0.11193553435E+02  0.18443979172E+02  0.00000000000E+00 0. -1.
</event>
<event>
 7    1  0.1205909E-011  0.5930159E+02  0.7816164E-02  0.1266606E+00
        -11   -1    0    0    0    0  0.00000000000E+00  0.00000000000E+00  0.45593999997E+02  0.45594000000E+02  0.51100000000E-03 0.  1.
         11   -1    0    0    0    0 -0.00000000000E+00 -0.00000000000E+00 -0.45593999997E+02  0.45594000000E+02  0.51100000000E-03 0. -1.
    9900012    2    1    2    0    0  0.61929971246E+01 -0.31185200196E+02 -0.24234256099E+01  0.59301593550E+02  0.49999360808E+02 0.  0.
         12    1    1    2    0    0 -0.61929971246E+01  0.31185200196E+02  0.24234256099E+01  0.31886406450E+02  0.00000000000E+00 0. -1.
         11    1    3    3    0    0 -0.12815895451E+02 -0.42692990473E+01 -0.95796654297E+01  0.16560316439E+02  0.51100000000E-03 0. -1.
        -11    1    3    3    0    0  0.49213696004E+00  0.50735434479E+01  0.17305445844E+01  0.53831056766E+01  0.51100000000E-03 0.  1.
        -12    1    3    3    0    0  0.18516755615E+02 -0.31989444596E+02  0.54256952354E+01  0.37358171434E+02  0.00000000000E+00 0.  1.
</event>
<event>
 7    1  0.1205909E-011  0.5930195E+02  0.7816164E-02  0.1266605E+00
        -11   -1    0    0    0    0  0.00000000000E+00  0.00000000000E+00  0.45593999997E+02  0.45594000000E+02  0.51100000000E-03 0. -1.
         11   -1    0    0    0    0 -0.00000000000E+00 -0.00000000000E+00 -0.45593999997E+02  0.45594000000E+02  0.51100000000E-03 0.  1.
    9900012    2    1    2    0    0 -0.29723980649E+02  0.11330396371E+02  0.21970624941E+01  0.59301953033E+02  0.50000016424E+02 0.  0.
         12    1    1    2    0    0  0.29723980649E+02 -0.11330396371E+02 -0.21970624941E+01  0.31886046967E+02  0.00000000000E+00 0. -1.
         11    1    3    3    0    0  0.63439854184E+00 -0.43638308051E+01  0.26750872584E+01  0.51576712678E+01  0.51100000000E-03 0. -1.
        -11    1    3    3    0    0  0.36263816758E+01 -0.10136378439E+02 -0.35786845613E+01  0.11344769516E+02  0.51100000000E-03 0.  1.
         12    1    3    3    0    0 -0.33984760867E+02  0.25830605616E+02  0.31006597971E+01  0.42799512250E+02  0.00000000000E+00 0. -1.
</event>
<event>
 7    1  0.1205909E-011  0.5930197E+02  0.7816164E-02  0.1266605E+00
        -11   -1    0    0    0    0  0.00000000000E+00  0.00000000000E+00  0.45593999997E+02  0.45594000000E+02  0.51100000000E-03 0.  1.
         11   -1    0    0    0    0 -0.00000000000E+00 -0.00000000000E+00 -0.45593999997E+02  0.45594000000E+02  0.51100000000E-03 0. -1.
    9900012    2    1    2    0    0 -0.26891348018E+02 -0.85530094201E+01  0.14846566945E+02  0.59301966718E+02  0.50000041382E+02 0.  0.
         12    1    1    2    0    0  0.26891348018E+02  0.85530094201E+01 -0.14846566945E+02  0.31886033282E+02  0.00000000000E+00 0. -1.
         11    1    3    3    0    0 -0.16608706598E+02 -0.62431269840E+01  0.12588670590E+02  0.21755468207E+02  0.51100000000E-03 0. -1.
        -11    1    3    3    0    0 -0.56681862105E+01 -0.17641542942E+02  0.84683905901E+01  0.20373168917E+02  0.51100000000E-03 0.  1.
         12    1    3    3    0    0 -0.46144552096E+01  0.15331660505E+02 -0.62104942349E+01  0.17173329595E+02  0.00000000000E+00 0. -1.
</event>
<event>
 7    1  0.1205909E-011  0.5930186E+02  0.7816164E-02  0.1266605E+00
        -11   -1    0    0    0    0  0.00000000000E+00  0.00000000000E+00  0.45593999997E+02  0.45594000000E+02  0.51100000000E-03 0.  1.
         11   -1    0    0    0    0 -0.00000000000E+00 -0.00000000000E+00 -0.45593999997E+02  0.45594000000E+02  0.51100000000E-03 0. -1.
    9900012    2    1    2    0    0 -0.28095782153E+02 -0.10350208920E+02  0.10964773924E+02  0.59301857764E+02  0.49999842676E+02 0.  0.
         12    1    1    2    0    0  0.28095782153E+02  0.10350208920E+02 -0.10964773924E+02  0.31886142236E+02  0.00000000000E+00 0. -1.
         11    1    3    3    0    0 -0.14444021591E+02 -0.17522478413E+01  0.75246659151E+01  0.16380498455E+02  0.51100000000E-03 0. -1.
        -11    1    3    3    0    0 -0.16001216778E+02 -0.31257078376E+01  0.19719738429E+02  0.25586658082E+02  0.51100000000E-03 0.  1.
         12    1    3    3    0    0  0.23494562160E+01 -0.54722532410E+01 -0.16279630420E+02  0.17334701227E+02  0.00000000000E+00 0. -1.
</event>
<event>
 7    1  0.1205909E-011  0.5930195E+02  0.7816164E-02  0.1266605E+00
        -11   -1    0    0    0    0  0.00000000000E+00  0.00000000000E+00  0.45593999997E+02  0.45594000000E+02  0.51100000000E-03 0.  1.
         11   -1    0    0    0    0 -0.00000000000E+00 -0.00000000000E+00 -0.45593999997E+02  0.45594000000E+02  0.51100000000E-03 0. -1.
    9900012    2    1    2    0    0  0.16435119131E+02  0.35142875039E+01  0.27097171751E+02  0.59301951728E+02  0.50000014043E+02 0.  0.
         12    1    1    2    0    0 -0.16435119131E+02 -0.35142875039E+01 -0.27097171751E+02  0.31886048272E+02  0.00000000000E+00 0. -1.
         11    1    3    3    0    0 -0.15162664607E+02  0.83525956199E+01  0.59626335788E+01  0.18309157573E+02  0.51100000000E-03 0. -1.
        -11    1    3    3    0    0  0.15838015747E+02 -0.28525854033E+01  0.21442491668E+01  0.16235079027E+02  0.51100000000E-03 0.  1.
        -12    1    3    3    0    0  0.15759767992E+02 -0.19857227127E+01  0.18990289005E+02  0.24757715128E+02  0.00000000000E+00 0.  1.
</event>
<event>
 7    1  0.1205909E-011  0.5930195E+02  0.7816164E-02  0.1266605E+00
        -11   -1    0    0    0    0  0.00000000000E+00  0.00000000000E+00  0.45593999997E+02  0.45594000000E+02  0.51100000000E-03 0.  1.
         11   -1    0    0    0    0 -0.00000000000E+00 -0.00000000000E+00 -0.45593999997E+02  0.45594000000E+02  0.51100000000E-03 0. -1.
    9900012    2    1    2    0    0  0.51066543997E+01 -0.31179220275E+02 -0.43010053517E+01  0.59301947514E+02  0.50000006358E+02 0.  0.
         12    1    1    2    0    0 -0.51066543997E+01  0.31179220275E+02  0.43010053517E+01  0.31886052486E+02  0.00000000000E+00 0. -1.
         11    1    3    3    0    0 -0.27192194955E-01 -0.22112000728E+02 -0.16030904566E+02  0.27311741378E+02  0.51100000000E-03 0. -1.
        -11    1    3    3    0    0  0.15695698325E+02 -0.57185414816E+00  0.33654905494E+01  0.16062642683E+02  0.51100000000E-03 0.  1.
         12    1    3    3    0    0 -0.10561851730E+02 -0.84953653986E+01  0.83644086651E+01  0.15927563453E+02  0.00000000000E+00 0. -1.
</event>
<event>
 7    1  0.1205909E-011  0.5930198E+02  0.7816164E-02  0.1266605E+00
        -11   -1    0    0    0    0  0.00000000000E+00  0.00000000000E+00  0.45593999997E+02  0.45594000000E+02  0.51100000000E-03 0.  1.
         11   -1    0    0    0    0 -0.00000000000E+00 -0.00000000000E+00 -0.45593999997E+02  0.45594000000E+02  0.51100000000E-03 0. -1.
    9900012    2    1    2    0    0 -0.13866422716E+02 -0.70531397115E+01  0.27833326522E+02  0.59301976039E+02  0.50000058381E+02 0.  0.
         12    1    1    2    0    0  0.13866422716E+02  0.70531397115E+01 -0.27833326522E+02  0.31886023961E+02  0.00000000000E+00 0. -1.
         11    1    3    3    0    0  0.55806347996E+01  0.41335200975E+00  0.20266211294E+02  0.21024596670E+02  0.51100000000E-03 0. -1.
        -11    1    3    3    0    0  0.53825408101E+01 -0.11171822503E+02  0.30377181683E+01  0.12767501539E+02  0.51100000000E-03 0.  1.
        -12    1    3    3    0    0 -0.24829598325E+02  0.37053307818E+01  0.45293970598E+01  0.25509877830E+02  0.00000000000E+00 0.  1.
</event>
<event>
 7    1  0.1205909E-011  0.5930202E+02  0.7816164E-02  0.1266604E+00
        -11   -1    0    0    0    0  0.00000000000E+00  0.00000000000E+00  0.45593999997E+02  0.45594000000E+02  0.51100000000E-03 0.  1.
         11   -1    0    0    0    0 -0.00000000000E+00 -0.00000000000E+00 -0.45593999997E+02  0.45594000000E+02  0.51100000000E-03 0. -1.
    9900012    2    1    2    0    0  0.19158136479E+02  0.17397020097E+02  0.18628610667E+02  0.59302021311E+02  0.50000140946E+02 0.  0.
         12    1    1    2    0    0 -0.19158136479E+02 -0.17397020097E+02 -0.18628610667E+02  0.31885978689E+02  0.00000000000E+00 0. -1.
         11    1    3    3    0    0  0.68401883091E+00  0.11691879539E+02  0.77903016264E+01  0.14066155431E+02  0.51100000000E-03 0. -1.
        -11    1    3    3    0    0  0.62529020589E+01 -0.67947544005E+01  0.22432673235E+02  0.24258860242E+02  0.51100000000E-03 0.  1.
         12    1    3    3    0    0  0.12221215589E+02  0.12499894958E+02 -0.11594364195E+02  0.20977005638E+02  0.00000000000E+00 0. -1.
</event>
<event>
 7    1  0.1205909E-011  0.5930192E+02  0.7816164E-02  0.1266605E+00
        -11   -1    0    0    0    0  0.00000000000E+00  0.00000000000E+00  0.45593999997E+02  0.45594000000E+02  0.51100000000E-03 0. -1.
         11   -1    0    0    0    0 -0.00000000000E+00 -0.00000000000E+00 -0.45593999997E+02  0.45594000000E+02  0.51100000000E-03 0.  1.
    9900012    2    1    2    0    0 -0.13862641650E+02 -0.21754566255E+02 -0.18742685291E+02  0.59301917795E+02  0.49999952157E+02 0.  0.
         12    1    1    2    0    0  0.13862641650E+02  0.21754566255E+02  0.18742685291E+02  0.31886082205E+02  0.00000000000E+00 0. -1.
         11    1    3    3    0    0  0.60534523203E+01  0.30859572740E+01 -0.32140848355E+01  0.75164991107E+01  0.51100000000E-03 0. -1.
        -11    1    3    3    0    0 -0.47457767795E+01  0.93036138435E+01  0.18031760805E+01  0.10598635385E+02  0.51100000000E-03 0.  1.
        -12    1    3    3    0    0 -0.15170317191E+02 -0.34144137373E+02 -0.17331776536E+02  0.41186783299E+02  0.00000000000E+00 0.  1.
</event>
<event>
 7    1  0.1205909E-011  0.5930196E+02  0.7816164E-02  0.1266605E+00
        -11   -1    0    0    0    0  0.00000000000E+00  0.00000000000E+00  0.45593999997E+02  0.45594000000E+02  0.51100000000E-03 0. -1.
         11   -1    0    0    0    0 -0.00000000000E+00 -0.00000000000E+00 -0.45593999997E+02  0.45594000000E+02  0.51100000000E-03 0.  1.
    9900012    2    1    2    0    0 -0.14438349762E+01  0.12429900945E+01 -0.31829074577E+02  0.59301958035E+02  0.50000025545E+02 0.  0.
         12    1    1    2    0    0  0.14438349762E+01 -0.12429900945E+01  0.31829074577E+02  0.31886041965E+02  0.00000000000E+00 0. -1.
         11    1    3    3    0    0  0.35029269457E+01 -0.13337426434E+02 -0.82260532809E+01  0.16056942234E+02  0.51100000000E-03 0. -1.
        -11    1    3    3    0    0  0.48107367623E+00 -0.10524513157E+02 -0.62999214231E+01  0.12275415238E+02  0.51100000000E-03 0.  1.
         12    1    3    3    0    0 -0.54278355981E+01  0.25104929685E+02 -0.17303099873E+02  0.30969600562E+02  0.00000000000E+00 0. -1.
</event>
<event>
 7    1  0.1205909E-011  0.5930171E+02  0.7816164E-02  0.1266606E+00
        -11   -1    0    0    0    0  0.00000000000E+00  0.00000000000E+00  0.45593999997E+02  0.45594000000E+02  0.51100000000E-03 0.  1.
         11   -1    0    0    0    0 -0.00000000000E+00 -0.00000000000E+00 -0.45593999997E+02  0.45594000000E+02  0.51100000000E-03 0. -1.
    9900012    2    1    2    0    0 -0.28389332062E+01 -0.31092740951E+02 -0.64743437060E+01  0.59301714421E+02  0.49999581251E+02 0.  0.
         12    1    1    2    0    0  0.28389332062E+01  0.31092740951E+02  0.64743437060E+01  0.31886285579E+02  0.00000000000E+00 0. -1.
         11    1    3    3    0    0  0.37355584301E+01  0.21346047114E+01 -0.69684813419E+01  0.81896682798E+01  0.51100000000E-03 0. -1.
        -11    1    3    3    0    0 -0.98142728112E+01 -0.34747462963E+02 -0.12052257293E+02  0.38065247133E+02  0.51100000000E-03 0.  1.
         12    1    3    3    0    0  0.32397811749E+01  0.15201173009E+01  0.12546394929E+02  0.13046799009E+02  0.00000000000E+00 0. -1.
</event>
<event>
 7    1  0.1205909E-011  0.5930174E+02  0.7816164E-02  0.1266605E+00
        -11   -1    0    0    0    0  0.00000000000E+00  0.00000000000E+00  0.45593999997E+02  0.45594000000E+02  0.51100000000E-03 0.  1.
         11   -1    0    0    0    0 -0.00000000000E+00 -0.00000000000E+00 -0.45593999997E+02  0.45594000000E+02  0.51100000000E-03 0. -1.
    9900012    2    1    2    0    0 -0.22818121699E+02 -0.88099479067E+01  0.20456090149E+02  0.59301741452E+02  0.49999630550E+02 0.  0.
         12    1    1    2    0    0  0.22818121699E+02  0.88099479067E+01 -0.20456090149E+02  0.31886258548E+02  0.00000000000E+00 0. -1.
         11    1    3    3    0    0 -0.10441839065E+02  0.11909880537E+02  0.17051916705E+02  0.23273270527E+02  0.51100000000E-03 0. -1.
        -11    1    3    3    0    0 -0.16369908948E+02 -0.11189714703E+02  0.11481451872E+02  0.22913039333E+02  0.51100000000E-03 0.  1.
         12    1    3    3    0    0  0.39936263137E+01 -0.95301137409E+01 -0.80772784279E+01  0.13115431592E+02  0.00000000000E+00 0. -1.
</event>
<event>
 7    1  0.1205909E-011  0.5930155E+02  0.7816164E-02  0.1266606E+00
        -11   -1    0    0    0    0  0.00000000000E+00  0.00000000000E+00  0.45593999997E+02  0.45594000000E+02  0.51100000000E-03 0. -1.
         11   -1    0    0    0    0 -0.00000000000E+00 -0.00000000000E+00 -0.45593999997E+02  0.45594000000E+02  0.51100000000E-03 0.  1.
    9900012    2    1    2    0    0  0.11189825618E+02 -0.14005885239E+02 -0.26369838594E+02  0.59301554508E+02  0.49999289604E+02 0.  0.
         12    1    1    2    0    0 -0.11189825618E+02  0.14005885239E+02  0.26369838594E+02  0.31886445492E+02  0.00000000000E+00 0. -1.
         11    1    3    3    0    0 -0.42745871070E+01 -0.17044502914E+01 -0.12661598515E+02  0.13471945775E+02  0.51100000000E-03 0.  1.
        -11    1    3    3    0    0  0.39883479423E+01 -0.10584232213E+02 -0.26346792802E+02  0.28672048794E+02  0.51100000000E-03 0. -1.
         12    1    3    3    0    0  0.11476064782E+02 -0.17172027338E+01  0.12638552723E+02  0.17157559939E+02  0.00000000000E+00 0. -1.
</event>
<event>
 7    1  0.1205909E-011  0.5930196E+02  0.7816164E-02  0.1266605E+00
        -11   -1    0    0    0    0  0.00000000000E+00  0.00000000000E+00  0.45593999997E+02  0.45594000000E+02  0.51100000000E-03 0.  1.
         11   -1    0    0    0    0 -0.00000000000E+00 -0.00000000000E+00 -0.45593999997E+02  0.45594000000E+02  0.51100000000E-03 0. -1.
    9900012    2    1    2    0    0  0.13807507812E+01 -0.97890420583E+01  0.30314815017E+02  0.59301955613E+02  0.50000021129E+02 0.  0.
         12    1    1    2    0    0 -0.13807507812E+01  0.97890420583E+01 -0.30314815017E+02  0.31886044387E+02  0.00000000000E+00 0. -1.
         11    1    3    3    0    0  0.10459131930E+02 -0.52553732626E+01  0.32226636586E+00  0.11709664587E+02  0.51100000000E-03 0. -1.
        -11    1    3    3    0    0  0.38852966870E+01  0.10999753691E+02  0.23680910266E+02  0.26398401900E+02  0.51100000000E-03 0.  1.
         12    1    3    3    0    0 -0.12963677836E+02 -0.15533422487E+02  0.63116383849E+01  0.21193889126E+02  0.00000000000E+00 0. -1.
</event>
<event>
 7    1  0.1205909E-011  0.5930194E+02  0.7816164E-02  0.1266605E+00
        -11   -1    0    0    0    0  0.00000000000E+00  0.00000000000E+00  0.45593999997E+02  0.45594000000E+02  0.51100000000E-03 0.  1.
         11   -1    0    0    0    0 -0.00000000000E+00 -0.00000000000E+00 -0.45593999997E+02  0.45594000000E+02  0.51100000000E-03 0. -1.
    9900012    2    1    2    0    0  0.16809021340E+01  0.19317966537E+02  0.25312277094E+02  0.59301942941E+02  0.49999998018E+02 0.  0.
         12    1    1    2    0    0 -0.16809021340E+01 -0.19317966537E+02 -0.25312277094E+02  0.31886057059E+02  0.00000000000E+00 0. -1.
         11    1    3    3    0    0  0.18887863080E+02  0.70285639632E+01  0.13768608417E+02  0.24407512391E+02  0.51100000000E-03 0. -1.
        -11    1    3    3    0    0  0.59977018142E+01  0.67844690888E+01  0.37945893672E+01  0.98183683266E+01  0.51100000000E-03 0.  1.
        -12    1    3    3    0    0 -0.23204662760E+02  0.55049334845E+01  0.77490793102E+01  0.25076062223E+02  0.00000000000E+00 0.  1.
</event>
<event>
 7    1  0.1205909E-011  0.5930195E+02  0.7816164E-02  0.1266605E+00
        -11   -1    0    0    0    0  0.00000000000E+00  0.00000000000E+00  0.45593999997E+02  0.45594000000E+02  0.51100000000E-03 0. -1.
         11   -1    0    0    0    0 -0.00000000000E+00 -0.00000000000E+00 -0.45593999997E+02  0.45594000000E+02  0.51100000000E-03 0.  1.
    9900012    2    1    2    0    0 -0.63943195128E+00  0.30941423339E+01 -0.31729130441E+02  0.59301948056E+02  0.50000007347E+02 0.  0.
         12    1    1    2    0    0  0.63943195128E+00 -0.30941423339E+01  0.31729130441E+02  0.31886051944E+02  0.00000000000E+00 0. -1.
         11    1    3    3    0    0 -0.13109975525E+01 -0.53017165909E+01 -0.11551368819E+02  0.12777364174E+02  0.51100000000E-03 0. -1.
        -11    1    3    3    0    0 -0.14696908483E+02 -0.81125706644E+01 -0.16743460018E+02  0.23709837101E+02  0.51100000000E-03 0.  1.
         12    1    3    3    0    0  0.15368474084E+02  0.16508429589E+02 -0.34343016046E+01  0.22814746781E+02  0.00000000000E+00 0. -1.
</event>
<event>
 7    1  0.1205909E-011  0.5930193E+02  0.7816164E-02  0.1266605E+00
        -11   -1    0    0    0    0  0.00000000000E+00  0.00000000000E+00  0.45593999997E+02  0.45594000000E+02  0.51100000000E-03 0. -1.
         11   -1    0    0    0    0 -0.00000000000E+00 -0.00000000000E+00 -0.45593999997E+02  0.45594000000E+02  0.51100000000E-03 0.  1.
    9900012    2    1    2    0    0 -0.31459084020E+02  0.30931379886E+01  0.41809240689E+01  0.59301927867E+02  0.49999970527E+02 0.  0.
         12    1    1    2    0    0  0.31459084020E+02 -0.30931379886E+01 -0.41809240689E+01  0.31886072133E+02  0.00000000000E+00 0. -1.
         11    1    3    3    0    0  0.23238043754E+00 -0.80875787216E+01  0.58187458410E+01  0.99659788114E+01  0.51100000000E-03 0. -1.
        -11    1    3    3    0    0 -0.21514788041E+02 -0.11361725518E+02 -0.32687677144E+01  0.24549129390E+02  0.51100000000E-03 0.  1.
        -12    1    3    3    0    0 -0.10176676417E+02  0.22542442228E+02  0.16309459423E+01  0.24786819666E+02  0.00000000000E+00 0.  1.
</event>
<event>
 7    1  0.1205909E-011  0.5930185E+02  0.7816164E-02  0.1266605E+00
        -11   -1    0    0    0    0  0.00000000000E+00  0.00000000000E+00  0.45593999997E+02  0.45594000000E+02  0.51100000000E-03 0.  1.
         11   -1    0    0    0    0 -0.00000000000E+00 -0.00000000000E+00 -0.45593999997E+02  0.45594000000E+02  0.51100000000E-03 0. -1.
    9900012    2    1    2    0    0 -0.89058662168E+01  0.10040039622E+02  0.28924203885E+02  0.59301852239E+02  0.49999832598E+02 0.  0.
         12    1    1    2    0    0  0.89058662168E+01 -0.10040039622E+02 -0.28924203885E+02  0.31886147761E+02  0.00000000000E+00 0. -1.
         11    1    3    3    0    0 -0.14116602326E+02 -0.10625625299E+02  0.14960632235E+01  0.17731908517E+02  0.51100000000E-03 0.  1.
        -11    1    3    3    0    0 -0.23052885229E+01  0.21683063973E+00 -0.32207909252E+01  0.39667196958E+01  0.51100000000E-03 0. -1.
         12    1    3    3    0    0  0.75160246323E+01  0.20448834281E+02  0.30648931587E+02  0.37603224026E+02  0.00000000000E+00 0. -1.
</event>
<event>
 7    1  0.1205909E-011  0.5930194E+02  0.7816164E-02  0.1266605E+00
        -11   -1    0    0    0    0  0.00000000000E+00  0.00000000000E+00  0.45593999997E+02  0.45594000000E+02  0.51100000000E-03 0.  1.
         11   -1    0    0    0    0 -0.00000000000E+00 -0.00000000000E+00 -0.45593999997E+02  0.45594000000E+02  0.51100000000E-03 0. -1.
    9900012    2    1    2    0    0 -0.38163980663E+01 -0.31534628576E+02  0.27791061800E+01  0.59301935257E+02  0.49999984005E+02 0.  0.
         12    1    1    2    0    0  0.38163980663E+01  0.31534628576E+02 -0.27791061800E+01  0.31886064743E+02  0.00000000000E+00 0. -1.
         11    1    3    3    0    0  0.11097337770E+02 -0.14736634576E+01  0.45123910891E+01  0.12069973619E+02  0.51100000000E-03 0. -1.
        -11    1    3    3    0    0 -0.11547181211E+02 -0.30145349356E+02  0.10966581043E+02  0.34093186735E+02  0.51100000000E-03 0.  1.
         12    1    3    3    0    0 -0.33665546258E+01  0.84384238218E-01 -0.12699865952E+02  0.13138774903E+02  0.00000000000E+00 0. -1.
</event>
<event>
 7    1  0.1205909E-011  0.5930195E+02  0.7816164E-02  0.1266605E+00
        -11   -1    0    0    0    0  0.00000000000E+00  0.00000000000E+00  0.45593999997E+02  0.45594000000E+02  0.51100000000E-03 0.  1.
         11   -1    0    0    0    0 -0.00000000000E+00 -0.00000000000E+00 -0.45593999997E+02  0.45594000000E+02  0.51100000000E-03 0. -1.
    9900012    2    1    2    0    0  0.23578927464E+02 -0.12089207295E+02  0.17737111977E+02  0.59301954547E+02  0.50000019185E+02 0.  0.
         12    1    1    2    0    0 -0.23578927464E+02  0.12089207295E+02 -0.17737111977E+02  0.31886045453E+02  0.00000000000E+00 0. -1.
         11    1    3    3    0    0  0.10942606968E+02 -0.12600878605E+02 -0.81901835523E+01  0.18590371049E+02  0.51100000000E-03 0. -1.
        -11    1    3    3    0    0  0.18469608888E+02  0.37650238612E+01  0.61350655329E+01  0.19822736605E+02  0.51100000000E-03 0.  1.
         12    1    3    3    0    0 -0.58332883923E+01 -0.32533525511E+01  0.19792229996E+02  0.20888846893E+02  0.00000000000E+00 0. -1.
</event>
<event>
 7    1  0.1294726E-011  0.5930193E+02  0.7816164E-02  0.1266605E+00
        -11   -1    0    0    0    0  0.00000000000E+00  0.00000000000E+00  0.45593999997E+02  0.45594000000E+02  0.51100000000E-03 0.  1.
         11   -1    0    0    0    0 -0.00000000000E+00 -0.00000000000E+00 -0.45593999997E+02  0.45594000000E+02  0.51100000000E-03 0. -1.
    9900012    2    1    2    0    0 -0.24626569222E+02 -0.16858646687E+01 -0.20184430242E+02  0.59301932894E+02  0.49999979694E+02 0.  0.
         12    1    1    2    0    0  0.24626569222E+02  0.16858646687E+01  0.20184430242E+02  0.31886067106E+02  0.00000000000E+00 0. -1.
         11    1    3    3    0    0  0.47363561855E+01 -0.33921108365E+01  0.44759295079E+01  0.73466612189E+01  0.51100000000E-03 0. -1.
        -11    1    3    3    0    0 -0.12096186666E+02  0.17993490508E+02 -0.87532904721E+01  0.23381692130E+02  0.51100000000E-03 0.  1.
        -12    1    3    3    0    0 -0.17266738742E+02 -0.16287244340E+02 -0.15907069278E+02  0.28573579545E+02  0.00000000000E+00 0.  1.
</event>
<event>
 7    1  0.1205909E-011  0.5930189E+02  0.7816164E-02  0.1266605E+00
        -11   -1    0    0    0    0  0.00000000000E+00  0.00000000000E+00  0.45593999997E+02  0.45594000000E+02  0.51100000000E-03 0. -1.
         11   -1    0    0    0    0 -0.00000000000E+00 -0.00000000000E+00 -0.45593999997E+02  0.45594000000E+02  0.51100000000E-03 0.  1.
    9900012    2    1    2    0    0  0.17686747548E+02  0.20132079811E+02 -0.17280117390E+02  0.59301888080E+02  0.49999897964E+02 0.  0.
         12    1    1    2    0    0 -0.17686747548E+02 -0.20132079811E+02  0.17280117390E+02  0.31886111920E+02  0.00000000000E+00 0. -1.
         11    1    3    3    0    0  0.42252652452E+01 -0.89972840103E+01  0.30999331538E+01  0.10412183814E+02  0.51100000000E-03 0. -1.
        -11    1    3    3    0    0 -0.74220881986E+01  0.16092112693E+01  0.18396819440E+01  0.78141783991E+01  0.51100000000E-03 0.  1.
         12    1    3    3    0    0  0.20883570502E+02  0.27520152552E+02 -0.22219732488E+02  0.41075525867E+02  0.00000000000E+00 0. -1.
</event>
<event>
 7    1  0.1205909E-011  0.5930185E+02  0.7816164E-02  0.1266605E+00
        -11   -1    0    0    0    0  0.00000000000E+00  0.00000000000E+00  0.45593999997E+02  0.45594000000E+02  0.51100000000E-03 0. -1.
         11   -1    0    0    0    0 -0.00000000000E+00 -0.00000000000E+00 -0.45593999997E+02  0.45594000000E+02  0.51100000000E-03 0.  1.
    9900012    2    1    2    0    0 -0.10333323224E+02 -0.10212252112E+02 -0.28384135337E+02  0.59301846251E+02  0.49999821679E+02 0.  0.
         12    1    1    2    0    0  0.10333323224E+02  0.10212252112E+02  0.28384135337E+02  0.31886153749E+02  0.00000000000E+00 0. -1.
         11    1    3    3    0    0 -0.23808349544E+01 -0.19882818281E+01 -0.10370542512E+02  0.10824499617E+02  0.51100000000E-03 0. -1.
        -11    1    3    3    0    0 -0.78394914699E+01 -0.22227840284E+02 -0.23642452909E+02  0.33384129313E+02  0.51100000000E-03 0.  1.
         12    1    3    3    0    0 -0.11299679930E+00  0.14003870000E+02  0.56288600836E+01  0.15093217321E+02  0.00000000000E+00 0. -1.
</event>
<event>
 7    1  0.1205909E-011  0.5930197E+02  0.7816164E-02  0.1266605E+00
        -11   -1    0    0    0    0  0.00000000000E+00  0.00000000000E+00  0.45593999997E+02  0.45594000000E+02  0.51100000000E-03 0.  1.
         11   -1    0    0    0    0 -0.00000000000E+00 -0.00000000000E+00 -0.45593999997E+02  0.45594000000E+02  0.51100000000E-03 0. -1.
    9900012    2    1    2    0    0  0.70224404143E+01  0.28540387266E+02  0.12363264530E+02  0.59301973523E+02  0.50000053793E+02 0.  0.
         12    1    1    2    0    0 -0.70224404143E+01 -0.28540387266E+02 -0.12363264530E+02  0.31886026477E+02  0.00000000000E+00 0. -1.
         11    1    3    3    0    0  0.14499037909E+02  0.69072299957E+01  0.77638180834E+01  0.17838407944E+02  0.51100000000E-03 0.  1.
        -11    1    3    3    0    0  0.12191583326E+02  0.39079217960E+00  0.23905076113E+01  0.12429881311E+02  0.51100000000E-03 0. -1.
         12    1    3    3    0    0 -0.19668180820E+02  0.21242365090E+02  0.22089388353E+01  0.29033684268E+02  0.00000000000E+00 0. -1.
</event>
<event>
 7    1  0.1205909E-011  0.5930196E+02  0.7816164E-02  0.1266605E+00
        -11   -1    0    0    0    0  0.00000000000E+00  0.00000000000E+00  0.45593999997E+02  0.45594000000E+02  0.51100000000E-03 0. -1.
         11   -1    0    0    0    0 -0.00000000000E+00 -0.00000000000E+00 -0.45593999997E+02  0.45594000000E+02  0.51100000000E-03 0.  1.
    9900012    2    1    2    0    0 -0.16227448719E+02 -0.22024387693E+02 -0.16380354141E+02  0.59301956863E+02  0.50000023409E+02 0.  0.
         12    1    1    2    0    0  0.16227448719E+02  0.22024387693E+02  0.16380354141E+02  0.31886043137E+02  0.00000000000E+00 0. -1.
         11    1    3    3    0    0  0.36764917115E+01 -0.70855794647E+01 -0.25393151259E+01  0.83767624548E+01  0.51100000000E-03 0. -1.
        -11    1    3    3    0    0 -0.30407804380E+02  0.83171639881E-02 -0.11487991051E+02  0.32505516071E+02  0.51100000000E-03 0.  1.
         12    1    3    3    0    0  0.10503863949E+02 -0.14947125392E+02 -0.23530479637E+01  0.18419678338E+02  0.00000000000E+00 0. -1.
</event>
<event>
 7    1  0.1205909E-011  0.5930159E+02  0.7816164E-02  0.1266606E+00
        -11   -1    0    0    0    0  0.00000000000E+00  0.00000000000E+00  0.45593999997E+02  0.45594000000E+02  0.51100000000E-03 0.  1.
         11   -1    0    0    0    0 -0.00000000000E+00 -0.00000000000E+00 -0.45593999997E+02  0.45594000000E+02  0.51100000000E-03 0. -1.
    9900012    2    1    2    0    0  0.19223943235E+02 -0.24032894131E+02  0.83428633174E+01  0.59301586559E+02  0.49999348059E+02 0.  0.
         12    1    1    2    0    0 -0.19223943235E+02  0.24032894131E+02 -0.83428633174E+01  0.31886413441E+02  0.00000000000E+00 0. -1.
         11    1    3    3    0    0  0.11313811726E+02 -0.11369723746E+02 -0.13675428317E+02  0.21078194746E+02  0.51100000000E-03 0. -1.
        -11    1    3    3    0    0  0.21332280073E+01  0.84608566619E+01  0.98922437099E+01  0.13190649835E+02  0.51100000000E-03 0.  1.
        -12    1    3    3    0    0  0.57769035008E+01 -0.21124027046E+02  0.12126047924E+02  0.25032741978E+02  0.00000000000E+00 0.  1.
</event>
<event>
 7    1  0.1205909E-011  0.5930191E+02  0.7816164E-02  0.1266605E+00
        -11   -1    0    0    0    0  0.00000000000E+00  0.00000000000E+00  0.45593999997E+02  0.45594000000E+02  0.51100000000E-03 0.  1.
         11   -1    0    0    0    0 -0.00000000000E+00 -0.00000000000E+00 -0.45593999997E+02  0.45594000000E+02  0.51100000000E-03 0. -1.
    9900012    2    1    2    0    0  0.30996943086E+02 -0.72657762746E+01 -0.17665615365E+01  0.59301910162E+02  0.49999938236E+02 0.  0.
         12    1    1    2    0    0 -0.30996943086E+02  0.72657762746E+01  0.17665615365E+01  0.31886089838E+02  0.00000000000E+00 0. -1.
         11    1    3    3    0    0  0.19995086827E+02 -0.99797576278E+01  0.98962337827E+01  0.24440427633E+02  0.51100000000E-03 0. -1.
        -11    1    3    3    0    0  0.35719818006E+01  0.22637113342E+01  0.10586608331E+02  0.11399987684E+02  0.51100000000E-03 0.  1.
         12    1    3    3    0    0  0.74298744580E+01  0.45027001904E+00 -0.22249403650E+02  0.23461494844E+02  0.00000000000E+00 0. -1.
</event>
<event>
 7    1  0.1205909E-011  0.5930225E+02  0.7816164E-02  0.1266604E+00
        -11   -1    0    0    0    0  0.00000000000E+00  0.00000000000E+00  0.45593999997E+02  0.45594000000E+02  0.51100000000E-03 0.  1.
         11   -1    0    0    0    0 -0.00000000000E+00 -0.00000000000E+00 -0.45593999997E+02  0.45594000000E+02  0.51100000000E-03 0. -1.
    9900012    2    1    2    0    0 -0.21848661552E+02 -0.20649302096E+02  0.10627488820E+02  0.59302247582E+02  0.50000553607E+02 0.  0.
         12    1    1    2    0    0  0.21848661552E+02  0.20649302096E+02 -0.10627488820E+02  0.31885752418E+02  0.00000000000E+00 0. -1.
         11    1    3    3    0    0  0.14945658531E+01 -0.92914270180E+01 -0.71636371111E+01  0.11827173798E+02  0.51100000000E-03 0. -1.
        -11    1    3    3    0    0  0.88083485358E+00  0.10902806610E+02  0.26263893521E+01  0.11249221454E+02  0.51100000000E-03 0.  1.
        -12    1    3    3    0    0 -0.24224062259E+02 -0.22260681688E+02  0.15164736579E+02  0.36225852330E+02  0.00000000000E+00 0.  1.
</event>
<event>
 7    1  0.1205909E-011  0.5930193E+02  0.7816164E-02  0.1266605E+00
        -11   -1    0    0    0    0  0.00000000000E+00  0.00000000000E+00  0.45593999997E+02  0.45594000000E+02  0.51100000000E-03 0. -1.
         11   -1    0    0    0    0 -0.00000000000E+00 -0.00000000000E+00 -0.45593999997E+02  0.45594000000E+02  0.51100000000E-03 0.  1.
    9900012    2    1    2    0    0 -0.27223477279E+02 -0.99305478480E+01  0.13303676460E+02  0.59301932461E+02  0.49999978905E+02 0.  0.
         12    1    1    2    0    0  0.27223477279E+02  0.99305478480E+01 -0.13303676460E+02  0.31886067539E+02  0.00000000000E+00 0. -1.
         11    1    3    3    0    0 -0.14247475508E+02 -0.11150392355E+01 -0.22724088680E+01  0.14470580955E+02  0.51100000000E-03 0. -1.
        -11    1    3    3    0    0 -0.14666876780E+02  0.61169120111E+01 -0.72783631819E+01  0.17478800242E+02  0.51100000000E-03 0.  1.
         12    1    3    3    0    0  0.16908750079E+01 -0.14932420624E+02  0.22854448510E+02  0.27352551265E+02  0.00000000000E+00 0. -1.
</event>
<event>
 7    1  0.1205909E-011  0.5930194E+02  0.7816164E-02  0.1266605E+00
        -11   -1    0    0    0    0  0.00000000000E+00  0.00000000000E+00  0.45593999997E+02  0.45594000000E+02  0.51100000000E-03 0. -1.
         11   -1    0    0    0    0 -0.00000000000E+00 -0.00000000000E+00 -0.45593999997E+02  0.45594000000E+02  0.51100000000E-03 0.  1.
    9900012    2    1    2    0    0 -0.18693568596E+02  0.14991057424E+01 -0.25788059253E+02  0.59301939959E+02  0.49999992580E+02 0.  0.
         12    1    1    2    0    0  0.18693568596E+02 -0.14991057424E+01  0.25788059253E+02  0.31886060041E+02  0.00000000000E+00 0. -1.
         11    1    3    3    0    0  0.25882632549E+01 -0.93318503040E+01 -0.66543812474E+01  0.11750035184E+02  0.51100000000E-03 0. -1.
        -11    1    3    3    0    0 -0.51354437080E+01 -0.99390196404E+01 -0.18032730340E+02  0.21221127615E+02  0.51100000000E-03 0.  1.
        -12    1    3    3    0    0 -0.16146388143E+02  0.20769975687E+02 -0.11009476656E+01  0.26330777160E+02  0.00000000000E+00 0.  1.
</event>
<event>
 7    1  0.1205909E-011  0.5930195E+02  0.7816164E-02  0.1266605E+00
        -11   -1    0    0    0    0  0.00000000000E+00  0.00000000000E+00  0.45593999997E+02  0.45594000000E+02  0.51100000000E-03 0. -1.
         11   -1    0    0    0    0 -0.00000000000E+00 -0.00000000000E+00 -0.45593999997E+02  0.45594000000E+02  0.51100000000E-03 0.  1.
    9900012    2    1    2    0    0 -0.46313003062E+01 -0.15250550911E+02 -0.27616883022E+02  0.59301945470E+02  0.50000002630E+02 0.  0.
         12    1    1    2    0    0  0.46313003062E+01  0.15250550911E+02  0.27616883022E+02  0.31886054530E+02  0.00000000000E+00 0. -1.
         11    1    3    3    0    0  0.60789591614E+01 -0.15402681325E+02 -0.10909504820E+02  0.19829615029E+02  0.51100000000E-03 0. -1.
        -11    1    3    3    0    0  0.26915278913E+01 -0.14830869235E+02 -0.36730313438E+01  0.15514192347E+02  0.51100000000E-03 0.  1.
         12    1    3    3    0    0 -0.13401787359E+02  0.14982999650E+02 -0.13034346859E+02  0.23958138094E+02  0.00000000000E+00 0. -1.
</event>
<event>
 7    1  0.1205909E-011  0.5930195E+02  0.7816164E-02  0.1266605E+00
        -11   -1    0    0    0    0  0.00000000000E+00  0.00000000000E+00  0.45593999997E+02  0.45594000000E+02  0.51100000000E-03 0.  1.
         11   -1    0    0    0    0 -0.00000000000E+00 -0.00000000000E+00 -0.45593999997E+02  0.45594000000E+02  0.51100000000E-03 0. -1.
    9900012    2    1    2    0    0 -0.12217012729E+02  0.66254936126E+01  0.28697867040E+02  0.59301950727E+02  0.50000012217E+02 0.  0.
         12    1    1    2    0    0  0.12217012729E+02 -0.66254936126E+01 -0.28697867040E+02  0.31886049273E+02  0.00000000000E+00 0. -1.
         11    1    3    3    0    0  0.11353652900E+01  0.13145405143E+02  0.17532486645E+02  0.21942625617E+02  0.51100000000E-03 0. -1.
        -11    1    3    3    0    0  0.10500373478E+02  0.82667010793E+00  0.49529699273E+01  0.11639292848E+02  0.51100000000E-03 0.  1.
         12    1    3    3    0    0 -0.23852751497E+02 -0.73465816388E+01  0.62124104673E+01  0.25720032262E+02  0.00000000000E+00 0. -1.
</event>
<event>
 7    1  0.1205909E-011  0.5930189E+02  0.7816164E-02  0.1266605E+00
        -11   -1    0    0    0    0  0.00000000000E+00  0.00000000000E+00  0.45593999997E+02  0.45594000000E+02  0.51100000000E-03 0.  1.
         11   -1    0    0    0    0 -0.00000000000E+00 -0.00000000000E+00 -0.45593999997E+02  0.45594000000E+02  0.51100000000E-03 0. -1.
    9900012    2    1    2    0    0 -0.30372629629E+02 -0.95786431744E+01  0.15739010558E+01  0.59301887032E+02  0.49999896054E+02 0.  0.
         12    1    1    2    0    0  0.30372629629E+02  0.95786431744E+01 -0.15739010558E+01  0.31886112968E+02  0.00000000000E+00 0. -1.
         11    1    3    3    0    0 -0.20484885307E+02 -0.17107964152E+02  0.34819764728E+00  0.26691463154E+02  0.51100000000E-03 0. -1.
        -11    1    3    3    0    0 -0.68913174656E+01 -0.10160540910E+02  0.65236922433E+01  0.13902712280E+02  0.51100000000E-03 0.  1.
         12    1    3    3    0    0 -0.29964268568E+01  0.17689861888E+02 -0.52979888348E+01  0.18707711598E+02  0.00000000000E+00 0. -1.
</event>
<event>
 7    1  0.1205909E-011  0.5930194E+02  0.7816164E-02  0.1266605E+00
        -11   -1    0    0    0    0  0.00000000000E+00  0.00000000000E+00  0.45593999997E+02  0.45594000000E+02  0.51100000000E-03 0.  1.
         11   -1    0    0    0    0 -0.00000000000E+00 -0.00000000000E+00 -0.45593999997E+02  0.45594000000E+02  0.51100000000E-03 0. -1.
    9900012    2    1    2    0    0  0.10926607277E+02 -0.82894761485E+01  0.28785665366E+02  0.59301942044E+02  0.49999996382E+02 0.  0.
         12    1    1    2    0    0 -0.10926607277E+02  0.82894761485E+01 -0.28785665366E+02  0.31886057956E+02  0.00000000000E+00 0. -1.
         11    1    3    3    0    0 -0.52067580439E+01 -0.16743953899E+02  0.68915975840E+01  0.18840499968E+02  0.51100000000E-03 0. -1.
        -11    1    3    3    0    0 -0.28979051888E+01 -0.70720287865E+01  0.12862192300E+00  0.76438203473E+01  0.51100000000E-03 0.  1.
        -12    1    3    3    0    0  0.19031270510E+02  0.15526506537E+02  0.21765445859E+02  0.32817621729E+02  0.00000000000E+00 0.  1.
</event>
<event>
 7    1  0.1205909E-011  0.5930195E+02  0.7816164E-02  0.1266605E+00
        -11   -1    0    0    0    0  0.00000000000E+00  0.00000000000E+00  0.45593999997E+02  0.45594000000E+02  0.51100000000E-03 0. -1.
         11   -1    0    0    0    0 -0.00000000000E+00 -0.00000000000E+00 -0.45593999997E+02  0.45594000000E+02  0.51100000000E-03 0.  1.
    9900012    2    1    2    0    0 -0.20031076167E+02 -0.23894565526E+02 -0.66727944163E+01  0.59301945691E+02  0.50000003033E+02 0.  0.
         12    1    1    2    0    0  0.20031076167E+02  0.23894565526E+02  0.66727944163E+01  0.31886054309E+02  0.00000000000E+00 0. -1.
         11    1    3    3    0    0 -0.16511778857E+02  0.96431929318E+01  0.70381430064E+01  0.20375609640E+02  0.51100000000E-03 0. -1.
        -11    1    3    3    0    0  0.42136034471E+01 -0.73380464758E+01 -0.23230645636E+00  0.84649481180E+01  0.51100000000E-03 0.  1.
        -12    1    3    3    0    0 -0.77329007573E+01 -0.26199711982E+02 -0.13478630966E+02  0.30461387933E+02  0.00000000000E+00 0.  1.
</event>
<event>
 7    1  0.1205909E-011  0.5930216E+02  0.7816164E-02  0.1266604E+00
        -11   -1    0    0    0    0  0.00000000000E+00  0.00000000000E+00  0.45593999997E+02  0.45594000000E+02  0.51100000000E-03 0.  1.
         11   -1    0    0    0    0 -0.00000000000E+00 -0.00000000000E+00 -0.45593999997E+02  0.45594000000E+02  0.51100000000E-03 0. -1.
    9900012    2    1    2    0    0  0.92449090694E+01 -0.29983294779E+02  0.56780752211E+01  0.59302159134E+02  0.50000392301E+02 0.  0.
         12    1    1    2    0    0 -0.92449090694E+01  0.29983294779E+02 -0.56780752211E+01  0.31885840866E+02  0.00000000000E+00 0. -1.
         11    1    3    3    0    0  0.18610066152E+01 -0.83132572681E+01  0.14462635353E+02  0.16785154561E+02  0.51100000000E-03 0. -1.
        -11    1    3    3    0    0  0.97661949076E+01 -0.30316585635E+02 -0.33409949746E+01  0.32025555034E+02  0.51100000000E-03 0.  1.
         12    1    3    3    0    0 -0.23822924534E+01  0.86465481246E+01 -0.54435651574E+01  0.10491449539E+02  0.00000000000E+00 0. -1.
</event>
<event>
 7    1  0.1205909E-011  0.5930195E+02  0.7816164E-02  0.1266605E+00
        -11   -1    0    0    0    0  0.00000000000E+00  0.00000000000E+00  0.45593999997E+02  0.45594000000E+02  0.51100000000E-03 0. -1.
         11   -1    0    0    0    0 -0.00000000000E+00 -0.00000000000E+00 -0.45593999997E+02  0.45594000000E+02  0.51100000000E-03 0.  1.
    9900012    2    1    2    0    0  0.26487330672E+02  0.29830149470E+01 -0.17499801856E+02  0.59301950867E+02  0.50000012474E+02 0.  0.
         12    1    1    2    0    0 -0.26487330672E+02 -0.29830149470E+01  0.17499801856E+02  0.31886049133E+02  0.00000000000E+00 0. -1.
         11    1    3    3    0    0 -0.55695967964E+01 -0.11804727641E+02 -0.96834460288E+01  0.16252419217E+02  0.51100000000E-03 0. -1.
        -11    1    3    3    0    0  0.53145001681E+01  0.63985225182E+01 -0.12113832059E+02  0.14694554429E+02  0.51100000000E-03 0.  1.
        -12    1    3    3    0    0  0.26742427300E+02  0.83892200697E+01  0.42974762318E+01  0.28354977222E+02  0.00000000000E+00 0.  1.
</event>
<event>
 7    1  0.1205909E-011  0.5930197E+02  0.7816164E-02  0.1266605E+00
        -11   -1    0    0    0    0  0.00000000000E+00  0.00000000000E+00  0.45593999997E+02  0.45594000000E+02  0.51100000000E-03 0. -1.
         11   -1    0    0    0    0 -0.00000000000E+00 -0.00000000000E+00 -0.45593999997E+02  0.45594000000E+02  0.51100000000E-03 0.  1.
    9900012    2    1    2    0    0 -0.66425287650E+01  0.31019509074E+02  0.32227380733E+01  0.59301965874E+02  0.50000039842E+02 0.  0.
         12    1    1    2    0    0  0.66425287650E+01 -0.31019509074E+02 -0.32227380733E+01  0.31886034126E+02  0.00000000000E+00 0. -1.
         11    1    3    3    0    0 -0.14431275234E+02  0.76233043287E+00  0.50021087620E+01  0.15292610794E+02  0.51100000000E-03 0. -1.
        -11    1    3    3    0    0 -0.98469985562E+01  0.13610725281E+02 -0.85234052274E+01  0.18837825250E+02  0.51100000000E-03 0.  1.
         12    1    3    3    0    0  0.17635745026E+02  0.16646453361E+02  0.67440345387E+01  0.25171529829E+02  0.00000000000E+00 0. -1.
</event>
<event>
 7    1  0.1205909E-011  0.5930188E+02  0.7816164E-02  0.1266605E+00
        -11   -1    0    0    0    0  0.00000000000E+00  0.00000000000E+00  0.45593999997E+02  0.45594000000E+02  0.51100000000E-03 0. -1.
         11   -1    0    0    0    0 -0.00000000000E+00 -0.00000000000E+00 -0.45593999997E+02  0.45594000000E+02  0.51100000000E-03 0.  1.
    9900012    2    1    2    0    0  0.11210535075E+02 -0.22937714411E+01 -0.29762181475E+02  0.59301875584E+02  0.49999875175E+02 0.  0.
         12    1    1    2    0    0 -0.11210535075E+02  0.22937714411E+01  0.29762181475E+02  0.31886124416E+02  0.00000000000E+00 0. -1.
         11    1    3    3    0    0  0.12399015140E+02 -0.54288889438E+01 -0.40338462869E+01  0.14123750484E+02  0.51100000000E-03 0. -1.
        -11    1    3    3    0    0  0.16117777424E+01 -0.16523849188E+02 -0.16033472497E+02  0.23080460568E+02  0.51100000000E-03 0.  1.
         12    1    3    3    0    0 -0.28002578072E+01  0.19658966691E+02 -0.96948626918E+01  0.22097664532E+02  0.00000000000E+00 0. -1.
</event>
<event>
 7    1  0.1205909E-011  0.5930190E+02  0.7816164E-02  0.1266605E+00
        -11   -1    0    0    0    0  0.00000000000E+00  0.00000000000E+00  0.45593999997E+02  0.45594000000E+02  0.51100000000E-03 0. -1.
         11   -1    0    0    0    0 -0.00000000000E+00 -0.00000000000E+00 -0.45593999997E+02  0.45594000000E+02  0.51100000000E-03 0.  1.
    9900012    2    1    2    0    0  0.21654883129E+02  0.11322610916E+02 -0.20483841975E+02  0.59301901722E+02  0.49999922845E+02 0.  0.
         12    1    1    2    0    0 -0.21654883129E+02 -0.11322610916E+02  0.20483841975E+02  0.31886098278E+02  0.00000000000E+00 0. -1.
         11    1    3    3    0    0  0.89337012291E+01  0.32327827976E+01  0.80919917394E+00  0.95350252140E+01  0.51100000000E-03 0. -1.
        -11    1    3    3    0    0  0.19289235564E+02  0.12427489551E+02  0.39870365698E+01  0.23289773851E+02  0.51100000000E-03 0.  1.
        -12    1    3    3    0    0 -0.65680536632E+01 -0.43376614324E+01 -0.25280077719E+02  0.26477102657E+02  0.00000000000E+00 0.  1.
</event>
<event>
 7    1  0.1205909E-011  0.5930195E+02  0.7816164E-02  0.1266605E+00
        -11   -1    0    0    0    0  0.00000000000E+00  0.00000000000E+00  0.45593999997E+02  0.45594000000E+02  0.51100000000E-03 0.  1.
         11   -1    0    0    0    0 -0.00000000000E+00 -0.00000000000E+00 -0.45593999997E+02  0.45594000000E+02  0.51100000000E-03 0. -1.
    9900012    2    1    2    0    0 -0.25328931443E+02  0.16338726815E+01  0.19300144131E+02  0.59301954910E+02  0.50000019846E+02 0.  0.
         12    1    1    2    0    0  0.25328931443E+02 -0.16338726815E+01 -0.19300144131E+02  0.31886045090E+02  0.00000000000E+00 0. -1.
         11    1    3    3    0    0 -0.18303414628E+02  0.37133959093E+01 -0.11852849386E+00  0.18676679188E+02  0.51100000000E-03 0. -1.
        -11    1    3    3    0    0 -0.15893572474E+02  0.51979195432E+01  0.23153632555E+02  0.28560719779E+02  0.51100000000E-03 0.  1.
        -12    1    3    3    0    0  0.88680556580E+01 -0.72774427710E+01 -0.37349599294E+01  0.12064555943E+02  0.00000000000E+00 0.  1.
</event>
<event>
 7    1  0.1205909E-011  0.5930196E+02  0.7816164E-02  0.1266605E+00
        -11   -1    0    0    0    0  0.00000000000E+00  0.00000000000E+00  0.45593999997E+02  0.45594000000E+02  0.51100000000E-03 0.  1.
         11   -1    0    0    0    0 -0.00000000000E+00 -0.00000000000E+00 -0.45593999997E+02  0.45594000000E+02  0.51100000000E-03 0. -1.
    9900012    2    1    2    0    0 -0.13542068071E+02  0.23572280694E+02  0.16663726924E+02  0.59301955721E+02  0.50000021325E+02 0.  0.
         12    1    1    2    0    0  0.13542068071E+02 -0.23572280694E+02 -0.16663726924E+02  0.31886044279E+02  0.00000000000E+00 0. -1.
         11    1    3    3    0    0  0.66033356132E+01  0.14710958428E+02  0.67317939746E+00  0.16139067813E+02  0.51100000000E-03 0. -1.
        -11    1    3    3    0    0 -0.72562610819E+01  0.10605357009E+02  0.24468244575E+02  0.27637328290E+02  0.51100000000E-03 0.  1.
         12    1    3    3    0    0 -0.12889142603E+02 -0.17440347424E+01 -0.84776970481E+01  0.15525559618E+02  0.00000000000E+00 0. -1.
</event>
<event>
 7    1  0.1205909E-011  0.5930194E+02  0.7816164E-02  0.1266605E+00
        -11   -1    0    0    0    0  0.00000000000E+00  0.00000000000E+00  0.45593999997E+02  0.45594000000E+02  0.51100000000E-03 0.  1.
         11   -1    0    0    0    0 -0.00000000000E+00 -0.00000000000E+00 -0.45593999997E+02  0.45594000000E+02  0.51100000000E-03 0. -1.
    9900012    2    1    2    0    0  0.23899675321E+02 -0.65323142464E+01  0.20071253809E+02  0.59301939733E+02  0.49999992168E+02 0.  0.
         12    1    1    2    0    0 -0.23899675321E+02  0.65323142464E+01 -0.20071253809E+02  0.31886060267E+02  0.00000000000E+00 0. -1.
         11    1    3    3    0    0 -0.54963942791E+01 -0.34758533597E+01 -0.11949787149E+01  0.66121011063E+01  0.51100000000E-03 0. -1.
        -11    1    3    3    0    0  0.11458041651E+02 -0.17779312252E+02  0.20522738492E+02  0.29471570336E+02  0.51100000000E-03 0.  1.
        -12    1    3    3    0    0  0.17938027950E+02  0.14722851365E+02  0.74349403151E+00  0.23218268290E+02  0.00000000000E+00 0.  1.
</event>
<event>
 7    1  0.1205909E-011  0.5930193E+02  0.7816164E-02  0.1266605E+00
        -11   -1    0    0    0    0  0.00000000000E+00  0.00000000000E+00  0.45593999997E+02  0.45594000000E+02  0.51100000000E-03 0.  1.
         11   -1    0    0    0    0 -0.00000000000E+00 -0.00000000000E+00 -0.45593999997E+02  0.45594000000E+02  0.51100000000E-03 0. -1.
    9900012    2    1    2    0    0 -0.10624853531E+02 -0.23476675071E+02  0.18779771888E+02  0.59301927537E+02  0.49999969925E+02 0.  0.
         12    1    1    2    0    0  0.10624853531E+02  0.23476675071E+02 -0.18779771888E+02  0.31886072463E+02  0.00000000000E+00 0. -1.
         11    1    3    3    0    0  0.12041200166E+02 -0.74254582706E+01  0.14015159234E+02  0.19913629016E+02  0.51100000000E-03 0. -1.
        -11    1    3    3    0    0  0.43016691120E+01  0.13970515986E+00  0.66007490249E+01  0.78799595577E+01  0.51100000000E-03 0.  1.
        -12    1    3    3    0    0 -0.26967722809E+02 -0.16190921960E+02 -0.18361363716E+01  0.31508338963E+02  0.00000000000E+00 0.  1.
</event>
<event>
 7    1  0.1205909E-011  0.5930194E+02  0.7816164E-02  0.1266605E+00
        -11   -1    0    0    0    0  0.00000000000E+00  0.00000000000E+00  0.45593999997E+02  0.45594000000E+02  0.51100000000E-03 0.  1.
         11   -1    0    0    0    0 -0.00000000000E+00 -0.00000000000E+00 -0.45593999997E+02  0.45594000000E+02  0.51100000000E-03 0. -1.
    9900012    2    1    2    0    0 -0.10570791405E+02  0.24422804436E+02  0.17564325484E+02  0.59301944472E+02  0.50000000810E+02 0.  0.
         12    1    1    2    0    0  0.10570791405E+02 -0.24422804436E+02 -0.17564325484E+02  0.31886055528E+02  0.00000000000E+00 0. -1.
         11    1    3    3    0    0 -0.72214912239E+01 -0.12547977433E+02  0.14780523405E+01  0.14552879857E+02  0.51100000000E-03 0. -1.
        -11    1    3    3    0    0 -0.41261509362E+01  0.10983654779E+02  0.14568864484E+02  0.18706084745E+02  0.51100000000E-03 0.  1.
        -12    1    3    3    0    0  0.77685075499E+00  0.25987127090E+02  0.15174086589E+01  0.26042979870E+02  0.00000000000E+00 0.  1.
</event>
<event>
 7    1  0.1205909E-011  0.5930195E+02  0.7816164E-02  0.1266605E+00
        -11   -1    0    0    0    0  0.00000000000E+00  0.00000000000E+00  0.45593999997E+02  0.45594000000E+02  0.51100000000E-03 0.  1.
         11   -1    0    0    0    0 -0.00000000000E+00 -0.00000000000E+00 -0.45593999997E+02  0.45594000000E+02  0.51100000000E-03 0. -1.
    9900012    2    1    2    0    0  0.16123772181E+01  0.25375640773E+02 -0.19240511765E+02  0.59301949791E+02  0.50000010512E+02 0.  0.
         12    1    1    2    0    0 -0.16123772181E+01 -0.25375640773E+02  0.19240511765E+02  0.31886050209E+02  0.00000000000E+00 0. -1.
         11    1    3    3    0    0 -0.11435417887E+02  0.84308195578E+01 -0.14704072230E+01  0.14283192862E+02  0.51100000000E-03 0. -1.
        -11    1    3    3    0    0 -0.82383644115E+01  0.16659718526E+02 -0.23516597440E+01  0.18733584103E+02  0.51100000000E-03 0.  1.
         12    1    3    3    0    0  0.21286159517E+02  0.28510268955E+00 -0.15418444798E+02  0.26285172826E+02  0.00000000000E+00 0. -1.
</event>
<event>
 7    1  0.1205909E-011  0.5930194E+02  0.7816164E-02  0.1266605E+00
        -11   -1    0    0    0    0  0.00000000000E+00  0.00000000000E+00  0.45593999997E+02  0.45594000000E+02  0.51100000000E-03 0. -1.
         11   -1    0    0    0    0 -0.00000000000E+00 -0.00000000000E+00 -0.45593999997E+02  0.45594000000E+02  0.51100000000E-03 0.  1.
    9900012    2    1    2    0    0 -0.23020649643E+02  0.21781865470E+02  0.35101021712E+01  0.59301940497E+02  0.49999993561E+02 0.  0.
         12    1    1    2    0    0  0.23020649643E+02 -0.21781865470E+02 -0.35101021712E+01  0.31886059503E+02  0.00000000000E+00 0. -1.
         11    1    3    3    0    0 -0.50542628251E+01  0.20104253093E+02  0.23307984385E+02  0.31192766814E+02  0.51100000000E-03 0. -1.
        -11    1    3    3    0    0  0.48622753944E-01 -0.93233619953E+00  0.31192861647E+00  0.98433464028E+00  0.51100000000E-03 0.  1.
        -12    1    3    3    0    0 -0.18015009572E+02  0.26099485771E+01 -0.20109810831E+02  0.27124839043E+02  0.00000000000E+00 0.  1.
</event>
<event>
 7    1  0.1205909E-011  0.5930196E+02  0.7816164E-02  0.1266605E+00
        -11   -1    0    0    0    0  0.00000000000E+00  0.00000000000E+00  0.45593999997E+02  0.45594000000E+02  0.51100000000E-03 0.  1.
         11   -1    0    0    0    0 -0.00000000000E+00 -0.00000000000E+00 -0.45593999997E+02  0.45594000000E+02  0.51100000000E-03 0. -1.
    9900012    2    1    2    0    0 -0.79465241944E+01  0.12520718246E+02  0.28227712163E+02  0.59301962835E+02  0.50000034300E+02 0.  0.
         12    1    1    2    0    0  0.79465241944E+01 -0.12520718246E+02 -0.28227712163E+02  0.31886037165E+02  0.00000000000E+00 0. -1.
         11    1    3    3    0    0 -0.19218902556E+02 -0.79623220591E+01  0.83598699320E+00  0.20819790166E+02  0.51100000000E-03 0. -1.
        -11    1    3    3    0    0  0.50362887662E+01  0.50358345271E+01  0.18001950074E+02  0.19359598153E+02  0.51100000000E-03 0.  1.
        -12    1    3    3    0    0  0.62360895956E+01  0.15447205778E+02  0.93897750959E+01  0.19122574516E+02  0.00000000000E+00 0.  1.
</event>
<event>
 7    1  0.1205909E-011  0.5930195E+02  0.7816164E-02  0.1266605E+00
        -11   -1    0    0    0    0  0.00000000000E+00  0.00000000000E+00  0.45593999997E+02  0.45594000000E+02  0.51100000000E-03 0. -1.
         11   -1    0    0    0    0 -0.00000000000E+00 -0.00000000000E+00 -0.45593999997E+02  0.45594000000E+02  0.51100000000E-03 0.  1.
    9900012    2    1    2    0    0  0.66906674795E+01  0.12196866146E+02 -0.28691311444E+02  0.59301954032E+02  0.50000018246E+02 0.  0.
         12    1    1    2    0    0 -0.66906674795E+01 -0.12196866146E+02  0.28691311444E+02  0.31886045968E+02  0.00000000000E+00 0. -1.
         11    1    3    3    0    0  0.28149830684E+01  0.16206717422E+02 -0.25570755628E+02  0.30404693107E+02  0.51100000000E-03 0. -1.
        -11    1    3    3    0    0  0.10904405419E+02  0.11095702405E+01 -0.12148808242E+02  0.16362479813E+02  0.51100000000E-03 0.  1.
         12    1    3    3    0    0 -0.70287210079E+01 -0.51194215165E+01  0.90282524262E+01  0.12534781113E+02  0.00000000000E+00 0. -1.
</event>
<event>
 7    1  0.1205909E-011  0.5930187E+02  0.7816164E-02  0.1266605E+00
        -11   -1    0    0    0    0  0.00000000000E+00  0.00000000000E+00  0.45593999997E+02  0.45594000000E+02  0.51100000000E-03 0.  1.
         11   -1    0    0    0    0 -0.00000000000E+00 -0.00000000000E+00 -0.45593999997E+02  0.45594000000E+02  0.51100000000E-03 0. -1.
    9900012    2    1    2    0    0 -0.18370903364E+02  0.18966295410E+00  0.26061449235E+02  0.59301871375E+02  0.49999867499E+02 0.  0.
         12    1    1    2    0    0  0.18370903364E+02 -0.18966295410E+00 -0.26061449235E+02  0.31886128625E+02  0.00000000000E+00 0. -1.
         11    1    3    3    0    0  0.11211545902E+02  0.43797611792E+01  0.30869111000E+01  0.12426185653E+02  0.51100000000E-03 0. -1.
        -11    1    3    3    0    0 -0.98945294520E+00  0.78369038259E+01 -0.58928836473E+00  0.79210693562E+01  0.51100000000E-03 0.  1.
        -12    1    3    3    0    0 -0.28592996320E+02 -0.12027002051E+02  0.23563826500E+02  0.38954616366E+02  0.00000000000E+00 0.  1.
</event>
<event>
 7    1  0.1205909E-011  0.5930191E+02  0.7816164E-02  0.1266605E+00
        -11   -1    0    0    0    0  0.00000000000E+00  0.00000000000E+00  0.45593999997E+02  0.45594000000E+02  0.51100000000E-03 0.  1.
         11   -1    0    0    0    0 -0.00000000000E+00 -0.00000000000E+00 -0.45593999997E+02  0.45594000000E+02  0.51100000000E-03 0. -1.
    9900012    2    1    2    0    0 -0.67404124056E+01  0.16089309269E+02  0.26691268991E+02  0.59301907852E+02  0.49999934023E+02 0.  0.
         12    1    1    2    0    0  0.67404124056E+01 -0.16089309269E+02 -0.26691268991E+02  0.31886092148E+02  0.00000000000E+00 0. -1.
         11    1    3    3    0    0 -0.12628739444E+01 -0.24018486798E+00  0.80076761702E+01  0.81102045152E+01  0.51100000000E-03 0. -1.
        -11    1    3    3    0    0 -0.77018630318E+01 -0.23255494880E+01  0.28766114565E+02  0.29869988651E+02  0.51100000000E-03 0.  1.
         12    1    3    3    0    0  0.22243245706E+01  0.18655043625E+02 -0.10082521744E+02  0.21321714686E+02  0.00000000000E+00 0. -1.
</event>
<event>
 7    1  0.1205909E-011  0.5930193E+02  0.7816164E-02  0.1266605E+00
        -11   -1    0    0    0    0  0.00000000000E+00  0.00000000000E+00  0.45593999997E+02  0.45594000000E+02  0.51100000000E-03 0.  1.
         11   -1    0    0    0    0 -0.00000000000E+00 -0.00000000000E+00 -0.45593999997E+02  0.45594000000E+02  0.51100000000E-03 0. -1.
    9900012    2    1    2    0    0  0.28915698945E+02 -0.13379387969E+02  0.12632720467E+01  0.59301928994E+02  0.49999972582E+02 0.  0.
         12    1    1    2    0    0 -0.28915698945E+02  0.13379387969E+02 -0.12632720467E+01  0.31886071006E+02  0.00000000000E+00 0. -1.
         11    1    3    3    0    0  0.12317045918E+02  0.69731717766E-01 -0.13382833209E+01  0.12389733055E+02  0.51100000000E-03 0. -1.
        -11    1    3    3    0    0 -0.20602882862E+01 -0.12784122743E+02  0.18368932186E+02  0.22474346532E+02  0.51100000000E-03 0.  1.
         12    1    3    3    0    0  0.18658941313E+02 -0.66499694390E+00 -0.15767376819E+02  0.24437849406E+02  0.00000000000E+00 0. -1.
</event>
<event>
 7    1  0.1205909E-011  0.5930193E+02  0.7816164E-02  0.1266605E+00
        -11   -1    0    0    0    0  0.00000000000E+00  0.00000000000E+00  0.45593999997E+02  0.45594000000E+02  0.51100000000E-03 0. -1.
         11   -1    0    0    0    0 -0.00000000000E+00 -0.00000000000E+00 -0.45593999997E+02  0.45594000000E+02  0.51100000000E-03 0.  1.
    9900012    2    1    2    0    0 -0.75098561563E+01  0.26352248642E+02 -0.16305902311E+02  0.59301930971E+02  0.49999976187E+02 0.  0.
         12    1    1    2    0    0  0.75098561563E+01 -0.26352248642E+02  0.16305902311E+02  0.31886069029E+02  0.00000000000E+00 0. -1.
         11    1    3    3    0    0  0.47612233593E+01 -0.16931769363E+01 -0.88045800490E+01  0.10151685875E+02  0.51100000000E-03 0. -1.
        -11    1    3    3    0    0 -0.91928668011E+01  0.17457013081E+02 -0.22889631373E+02  0.30219055749E+02  0.51100000000E-03 0.  1.
         12    1    3    3    0    0 -0.30782127145E+01  0.10588412498E+02  0.15388309111E+02  0.18931189346E+02  0.00000000000E+00 0. -1.
</event>
<event>
 7    1  0.1205909E-011  0.5930192E+02  0.7816164E-02  0.1266605E+00
        -11   -1    0    0    0    0  0.00000000000E+00  0.00000000000E+00  0.45593999997E+02  0.45594000000E+02  0.51100000000E-03 0.  1.
         11   -1    0    0    0    0 -0.00000000000E+00 -0.00000000000E+00 -0.45593999997E+02  0.45594000000E+02  0.51100000000E-03 0. -1.
    9900012    2    1    2    0    0 -0.12110762129E+02  0.83178146538E+01  0.28299572331E+02  0.59301915353E+02  0.49999947705E+02 0.  0.
         12    1    1    2    0    0  0.12110762129E+02 -0.83178146538E+01 -0.28299572331E+02  0.31886084647E+02  0.00000000000E+00 0. -1.
         11    1    3    3    0    0  0.11026241659E+01 -0.11728173172E+01  0.11304052871E+02  0.11418094941E+02  0.51100000000E-03 0. -1.
        -11    1    3    3    0    0 -0.12661377431E+02  0.25589552831E+02  0.12444875469E+02  0.31144993470E+02  0.51100000000E-03 0.  1.
         12    1    3    3    0    0 -0.55200886366E+00 -0.16098920860E+02  0.45506439907E+01  0.16738826942E+02  0.00000000000E+00 0. -1.
</event>
<event>
 7    1  0.1205909E-011  0.5930192E+02  0.7816164E-02  0.1266605E+00
        -11   -1    0    0    0    0  0.00000000000E+00  0.00000000000E+00  0.45593999997E+02  0.45594000000E+02  0.51100000000E-03 0.  1.
         11   -1    0    0    0    0 -0.00000000000E+00 -0.00000000000E+00 -0.45593999997E+02  0.45594000000E+02  0.51100000000E-03 0. -1.
    9900012    2    1    2    0    0  0.14409926158E+02  0.16925158050E+02  0.22860776574E+02  0.59301920711E+02  0.49999957476E+02 0.  0.
         12    1    1    2    0    0 -0.14409926158E+02 -0.16925158050E+02 -0.22860776574E+02  0.31886079289E+02  0.00000000000E+00 0. -1.
         11    1    3    3    0    0 -0.75144405412E+00 -0.96095238180E+01  0.32146841815E+01  0.10160797745E+02  0.51100000000E-03 0. -1.
        -11    1    3    3    0    0  0.51249457506E+00  0.14944222928E+02  0.25504209404E+02  0.29564457499E+02  0.51100000000E-03 0.  1.
         12    1    3    3    0    0  0.14648875637E+02  0.11590458939E+02 -0.58581170122E+01  0.19576665466E+02  0.00000000000E+00 0. -1.
</event>
<event>
 7    1  0.1205909E-011  0.5930196E+02  0.7816164E-02  0.1266605E+00
        -11   -1    0    0    0    0  0.00000000000E+00  0.00000000000E+00  0.45593999997E+02  0.45594000000E+02  0.51100000000E-03 0. -1.
         11   -1    0    0    0    0 -0.00000000000E+00 -0.00000000000E+00 -0.45593999997E+02  0.45594000000E+02  0.51100000000E-03 0.  1.
    9900012    2    1    2    0    0  0.16738141659E+02 -0.82863676896E+01 -0.25843576914E+02  0.59301956918E+02  0.50000023509E+02 0.  0.
         12    1    1    2    0    0 -0.16738141659E+02  0.82863676896E+01  0.25843576914E+02  0.31886043082E+02  0.00000000000E+00 0. -1.
         11    1    3    3    0    0  0.30665100889E+02 -0.17373317737E+01 -0.10519097824E+02  0.32465645743E+02  0.51100000000E-03 0. -1.
        -11    1    3    3    0    0  0.26074976298E+01 -0.19802208836E+01  0.71538472508E+00  0.33514316648E+01  0.51100000000E-03 0.  1.
        -12    1    3    3    0    0 -0.16534456859E+02 -0.45688150323E+01 -0.16039863815E+02  0.23484879511E+02  0.00000000000E+00 0.  1.
</event>
<event>
 7    1  0.1205909E-011  0.5930194E+02  0.7816164E-02  0.1266605E+00
        -11   -1    0    0    0    0  0.00000000000E+00  0.00000000000E+00  0.45593999997E+02  0.45594000000E+02  0.51100000000E-03 0.  1.
         11   -1    0    0    0    0 -0.00000000000E+00 -0.00000000000E+00 -0.45593999997E+02  0.45594000000E+02  0.51100000000E-03 0. -1.
    9900012    2    1    2    0    0 -0.13915077837E+02  0.28439548362E+02  0.37793763108E+01  0.59301937409E+02  0.49999987930E+02 0.  0.
         12    1    1    2    0    0  0.13915077837E+02 -0.28439548362E+02 -0.37793763108E+01  0.31886062591E+02  0.00000000000E+00 0. -1.
         11    1    3    3    0    0  0.84238479024E-01  0.47326473768E+01  0.81351588126E+01  0.94120059754E+01  0.51100000000E-03 0. -1.
        -11    1    3    3    0    0 -0.18332695070E+02 -0.30142880186E+01  0.78823715350E+01  0.20181809187E+02  0.51100000000E-03 0.  1.
         12    1    3    3    0    0  0.43333787542E+01  0.26721189004E+02 -0.12238154037E+02  0.29708122247E+02  0.00000000000E+00 0. -1.
</event>
<event>
 7    1  0.1205909E-011  0.5930194E+02  0.7816164E-02  0.1266605E+00
        -11   -1    0    0    0    0  0.00000000000E+00  0.00000000000E+00  0.45593999997E+02  0.45594000000E+02  0.51100000000E-03 0.  1.
         11   -1    0    0    0    0 -0.00000000000E+00 -0.00000000000E+00 -0.45593999997E+02  0.45594000000E+02  0.51100000000E-03 0. -1.
    9900012    2    1    2    0    0  0.27096822725E+02  0.13887063532E+02  0.94674291055E+01  0.59301944283E+02  0.50000000465E+02 0.  0.
         12    1    1    2    0    0 -0.27096822725E+02 -0.13887063532E+02 -0.94674291055E+01  0.31886055717E+02  0.00000000000E+00 0. -1.
         11    1    3    3    0    0  0.15177398963E+02  0.14519436053E+02 -0.15566032238E+02  0.26143236649E+02  0.51100000000E-03 0. -1.
        -11    1    3    3    0    0  0.30678022745E+01  0.14319723020E+01 -0.24709669428E+01  0.41913760702E+01  0.51100000000E-03 0.  1.
        -12    1    3    3    0    0  0.88516214873E+01 -0.20643448233E+01  0.27504428287E+02  0.28967331563E+02  0.00000000000E+00 0.  1.
</event>
<event>
 7    1  0.1205909E-011  0.5930195E+02  0.7816164E-02  0.1266605E+00
        -11   -1    0    0    0    0  0.00000000000E+00  0.00000000000E+00  0.45593999997E+02  0.45594000000E+02  0.51100000000E-03 0.  1.
         11   -1    0    0    0    0 -0.00000000000E+00 -0.00000000000E+00 -0.45593999997E+02  0.45594000000E+02  0.51100000000E-03 0. -1.
    9900012    2    1    2    0    0  0.20393876462E+02  0.17689843842E+02 -0.16967013988E+02  0.59301947626E+02  0.50000006563E+02 0.  0.
         12    1    1    2    0    0 -0.20393876462E+02 -0.17689843842E+02  0.16967013988E+02  0.31886052374E+02  0.00000000000E+00 0. -1.
         11    1    3    3    0    0  0.14670815988E+02  0.16011591946E+01 -0.13971037545E+02  0.20322067879E+02  0.51100000000E-03 0. -1.
        -11    1    3    3    0    0  0.17401045450E+02  0.18414032335E+02 -0.72227889723E+01  0.26344670247E+02  0.51100000000E-03 0.  1.
        -12    1    3    3    0    0 -0.11677984976E+02 -0.23253476883E+01  0.42268125285E+01  0.12635209501E+02  0.00000000000E+00 0.  1.
</event>
<event>
 7    1  0.1205909E-011  0.5930191E+02  0.7816164E-02  0.1266605E+00
        -11   -1    0    0    0    0  0.00000000000E+00  0.00000000000E+00  0.45593999997E+02  0.45594000000E+02  0.51100000000E-03 0.  1.
         11   -1    0    0    0    0 -0.00000000000E+00 -0.00000000000E+00 -0.45593999997E+02  0.45594000000E+02  0.51100000000E-03 0. -1.
    9900012    2    1    2    0    0 -0.23353658049E+02  0.11996573210E+02  0.18094522844E+02  0.59301907891E+02  0.49999934095E+02 0.  0.
         12    1    1    2    0    0  0.23353658049E+02 -0.11996573210E+02 -0.18094522844E+02  0.31886092109E+02  0.00000000000E+00 0. -1.
         11    1    3    3    0    0 -0.42685398870E+01  0.70947428517E+01  0.20357582165E+02  0.21976964321E+02  0.51100000000E-03 0. -1.
        -11    1    3    3    0    0 -0.36673054625E+01  0.16040107162E+02  0.46318836045E+01  0.17093522548E+02  0.51100000000E-03 0.  1.
         12    1    3    3    0    0 -0.15417812699E+02 -0.11138276804E+02 -0.68949429260E+01  0.20231421021E+02  0.00000000000E+00 0. -1.
</event>
<event>
 7    1  0.1205909E-011  0.5930192E+02  0.7816164E-02  0.1266605E+00
        -11   -1    0    0    0    0  0.00000000000E+00  0.00000000000E+00  0.45593999997E+02  0.45594000000E+02  0.51100000000E-03 0.  1.
         11   -1    0    0    0    0 -0.00000000000E+00 -0.00000000000E+00 -0.45593999997E+02  0.45594000000E+02  0.51100000000E-03 0. -1.
    9900012    2    1    2    0    0  0.13559503722E+01  0.87929611748E+00  0.31845103671E+02  0.59301915403E+02  0.49999947796E+02 0.  0.
         12    1    1    2    0    0 -0.13559503722E+01 -0.87929611748E+00 -0.31845103671E+02  0.31886084597E+02  0.00000000000E+00 0. -1.
         11    1    3    3    0    0  0.48471080085E+01 -0.80320173079E+01  0.20450630357E+02  0.22499689783E+02  0.51100000000E-03 0. -1.
        -11    1    3    3    0    0  0.35062738847E+01  0.11826736354E+02  0.21127775797E+02  0.24465252088E+02  0.51100000000E-03 0.  1.
         12    1    3    3    0    0 -0.69974315210E+01 -0.29154229282E+01 -0.97333024821E+01  0.12336973533E+02  0.00000000000E+00 0. -1.
</event>
<event>
 7    1  0.1205909E-011  0.5930197E+02  0.7816164E-02  0.1266605E+00
        -11   -1    0    0    0    0  0.00000000000E+00  0.00000000000E+00  0.45593999997E+02  0.45594000000E+02  0.51100000000E-03 0. -1.
         11   -1    0    0    0    0 -0.00000000000E+00 -0.00000000000E+00 -0.45593999997E+02  0.45594000000E+02  0.51100000000E-03 0.  1.
    9900012    2    1    2    0    0  0.19824389389E+02 -0.17271976095E+02 -0.18038606875E+02  0.59301969973E+02  0.50000047318E+02 0.  0.
         12    1    1    2    0    0 -0.19824389389E+02  0.17271976095E+02  0.18038606875E+02  0.31886030027E+02  0.00000000000E+00 0. -1.
         11    1    3    3    0    0  0.24538605847E+02  0.40613981042E+01 -0.10720476349E+02  0.27084437319E+02  0.51100000000E-03 0. -1.
        -11    1    3    3    0    0  0.43664549021E+00 -0.50881940522E+01 -0.13228089788E+02  0.14179659295E+02  0.51100000000E-03 0.  1.
        -12    1    3    3    0    0 -0.51508619482E+01 -0.16245180147E+02  0.59099592630E+01  0.18037873359E+02  0.00000000000E+00 0.  1.
</event>
<event>
 7    1  0.1205909E-011  0.5930194E+02  0.7816164E-02  0.1266605E+00
        -11   -1    0    0    0    0  0.00000000000E+00  0.00000000000E+00  0.45593999997E+02  0.45594000000E+02  0.51100000000E-03 0.  1.
         11   -1    0    0    0    0 -0.00000000000E+00 -0.00000000000E+00 -0.45593999997E+02  0.45594000000E+02  0.51100000000E-03 0. -1.
    9900012    2    1    2    0    0 -0.81504812902E+01  0.91473726259E+01  0.29438345730E+02  0.59301937676E+02  0.49999988416E+02 0.  0.
         12    1    1    2    0    0  0.81504812902E+01 -0.91473726259E+01 -0.29438345730E+02  0.31886062324E+02  0.00000000000E+00 0. -1.
         11    1    3    3    0    0  0.36138069208E+00 -0.22871635822E+01  0.18997565907E+01  0.29951274800E+01  0.51100000000E-03 0. -1.
        -11    1    3    3    0    0  0.27547104196E+01 -0.53949561797E+01  0.34395571357E+02  0.34924909605E+02  0.51100000000E-03 0.  1.
        -12    1    3    3    0    0 -0.11266572402E+02  0.16829492388E+02 -0.68569822180E+01  0.21381900590E+02  0.00000000000E+00 0.  1.
</event>
<event>
 7    1  0.1205909E-011  0.5930192E+02  0.7816164E-02  0.1266605E+00
        -11   -1    0    0    0    0  0.00000000000E+00  0.00000000000E+00  0.45593999997E+02  0.45594000000E+02  0.51100000000E-03 0.  1.
         11   -1    0    0    0    0 -0.00000000000E+00 -0.00000000000E+00 -0.45593999997E+02  0.45594000000E+02  0.51100000000E-03 0. -1.
    9900012    2    1    2    0    0  0.24927904122E+02  0.19383996524E+02  0.44252040926E+01  0.59301919080E+02  0.49999954502E+02 0.  0.
         12    1    1    2    0    0 -0.24927904122E+02 -0.19383996524E+02 -0.44252040926E+01  0.31886080920E+02  0.00000000000E+00 0. -1.
         11    1    3    3    0    0  0.28175002938E+01  0.68055897474E+01 -0.83952083169E+01  0.11168432417E+02  0.51100000000E-03 0. -1.
        -11    1    3    3    0    0  0.31622455274E+02  0.15665272808E+01  0.67844797783E+01  0.32379976087E+02  0.51100000000E-03 0.  1.
         12    1    3    3    0    0 -0.95120514458E+01  0.11011879496E+02  0.60359326312E+01  0.15753510576E+02  0.00000000000E+00 0. -1.
</event>
<event>
 7    1  0.1205909E-011  0.5930195E+02  0.7816164E-02  0.1266605E+00
        -11   -1    0    0    0    0  0.00000000000E+00  0.00000000000E+00  0.45593999997E+02  0.45594000000E+02  0.51100000000E-03 0.  1.
         11   -1    0    0    0    0 -0.00000000000E+00 -0.00000000000E+00 -0.45593999997E+02  0.45594000000E+02  0.51100000000E-03 0. -1.
    9900012    2    1    2    0    0  0.45228669782E+01 -0.10090044405E+02  0.29907440902E+02  0.59301947515E+02  0.50000006360E+02 0.  0.
         12    1    1    2    0    0 -0.45228669782E+01  0.10090044405E+02 -0.29907440902E+02  0.31886052485E+02  0.00000000000E+00 0. -1.
         11    1    3    3    0    0 -0.11829639543E+02 -0.20115118763E+02  0.91637761660E+01  0.25070563784E+02  0.51100000000E-03 0. -1.
        -11    1    3    3    0    0  0.64522431674E+01 -0.54846184915E+01  0.40498948522E+01  0.93869127227E+01  0.51100000000E-03 0.  1.
        -12    1    3    3    0    0  0.99002633536E+01  0.15509692850E+02  0.16693769883E+02  0.24844471008E+02  0.00000000000E+00 0.  1.
</event>
<event>
 7    1  0.1205909E-011  0.5930193E+02  0.7816164E-02  0.1266605E+00
        -11   -1    0    0    0    0  0.00000000000E+00  0.00000000000E+00  0.45593999997E+02  0.45594000000E+02  0.51100000000E-03 0. -1.
         11   -1    0    0    0    0 -0.00000000000E+00 -0.00000000000E+00 -0.45593999997E+02  0.45594000000E+02  0.51100000000E-03 0.  1.
    9900012    2    1    2    0    0 -0.26484125444E+02 -0.14951625227E+02 -0.95792043791E+01  0.59301934799E+02  0.49999983169E+02 0.  0.
         12    1    1    2    0    0  0.26484125444E+02  0.14951625227E+02  0.95792043791E+01  0.31886065201E+02  0.00000000000E+00 0. -1.
         11    1    3    3    0    0 -0.22731103637E+02 -0.21336690998E+00  0.68124318525E+00  0.22742310580E+02  0.51100000000E-03 0. -1.
        -11    1    3    3    0    0 -0.16872093601E+02 -0.86348389889E+01 -0.11277294067E+02  0.22054599261E+02  0.51100000000E-03 0.  1.
        -12    1    3    3    0    0  0.13119071793E+02 -0.61034193279E+01  0.10168465027E+01  0.14505024958E+02  0.00000000000E+00 0.  1.
</event>
<event>
 7    1  0.1205909E-011  0.5930192E+02  0.7816164E-02  0.1266605E+00
        -11   -1    0    0    0    0  0.00000000000E+00  0.00000000000E+00  0.45593999997E+02  0.45594000000E+02  0.51100000000E-03 0.  1.
         11   -1    0    0    0    0 -0.00000000000E+00 -0.00000000000E+00 -0.45593999997E+02  0.45594000000E+02  0.51100000000E-03 0. -1.
    9900012    2    1    2    0    0 -0.21209712500E+02 -0.19983496908E+02  0.12943341311E+02  0.59301919380E+02  0.49999955048E+02 0.  0.
         12    1    1    2    0    0  0.21209712500E+02  0.19983496908E+02 -0.12943341311E+02  0.31886080620E+02  0.00000000000E+00 0. -1.
         11    1    3    3    0    0  0.42246826985E+01 -0.11373501562E+02 -0.71711177926E+01  0.14093594727E+02  0.51100000000E-03 0. -1.
        -11    1    3    3    0    0  0.95486548166E+00  0.71468380183E+01 -0.18347293192E+01  0.74401138219E+01  0.51100000000E-03 0.  1.
        -12    1    3    3    0    0 -0.26389260680E+02 -0.15756833364E+02  0.21949188423E+02  0.37768210831E+02  0.00000000000E+00 0.  1.
</event>
<event>
 7    1  0.1205909E-011  0.5930196E+02  0.7816164E-02  0.1266605E+00
        -11   -1    0    0    0    0  0.00000000000E+00  0.00000000000E+00  0.45593999997E+02  0.45594000000E+02  0.51100000000E-03 0. -1.
         11   -1    0    0    0    0 -0.00000000000E+00 -0.00000000000E+00 -0.45593999997E+02  0.45594000000E+02  0.51100000000E-03 0.  1.
    9900012    2    1    2    0    0 -0.30611290026E+02  0.67076717020E+01 -0.58886087221E+01  0.59301958392E+02  0.50000026197E+02 0.  0.
         12    1    1    2    0    0  0.30611290026E+02 -0.67076717020E+01  0.58886087221E+01  0.31886041608E+02  0.00000000000E+00 0. -1.
         11    1    3    3    0    0 -0.13243653307E+02 -0.15816293812E+02  0.19736359906E+01  0.20723048573E+02  0.51100000000E-03 0. -1.
        -11    1    3    3    0    0  0.44773618614E+01 -0.14383922213E+01 -0.34984639134E+01  0.58613131152E+01  0.51100000000E-03 0.  1.
         12    1    3    3    0    0 -0.21844998581E+02  0.23962357735E+02 -0.43637807993E+01  0.32717596704E+02  0.00000000000E+00 0. -1.
</event>
<event>
 7    1  0.1205909E-011  0.5930193E+02  0.7816164E-02  0.1266605E+00
        -11   -1    0    0    0    0  0.00000000000E+00  0.00000000000E+00  0.45593999997E+02  0.45594000000E+02  0.51100000000E-03 0. -1.
         11   -1    0    0    0    0 -0.00000000000E+00 -0.00000000000E+00 -0.45593999997E+02  0.45594000000E+02  0.51100000000E-03 0.  1.
    9900012    2    1    2    0    0 -0.17336001106E+02  0.80404926129E+01 -0.25525183553E+02  0.59301930139E+02  0.49999974670E+02 0.  0.
         12    1    1    2    0    0  0.17336001106E+02 -0.80404926129E+01  0.25525183553E+02  0.31886069861E+02  0.00000000000E+00 0. -1.
         11    1    3    3    0    0 -0.41948775233E+01 -0.13709280345E+02 -0.17426028588E+01  0.14442230783E+02  0.51100000000E-03 0. -1.
        -11    1    3    3    0    0 -0.53001031824E+01  0.10433110526E+02 -0.28093176065E+02  0.30432999041E+02  0.51100000000E-03 0.  1.
         12    1    3    3    0    0 -0.78410204003E+01  0.11316662432E+02  0.43105953708E+01  0.14426700314E+02  0.00000000000E+00 0. -1.
</event>
<event>
 7    1  0.1205909E-011  0.5930187E+02  0.7816164E-02  0.1266605E+00
        -11   -1    0    0    0    0  0.00000000000E+00  0.00000000000E+00  0.45593999997E+02  0.45594000000E+02  0.51100000000E-03 0. -1.
         11   -1    0    0    0    0 -0.00000000000E+00 -0.00000000000E+00 -0.45593999997E+02  0.45594000000E+02  0.51100000000E-03 0.  1.
    9900012    2    1    2    0    0 -0.23940289790E+02  0.12084627241E+02 -0.17249619160E+02  0.59301873676E+02  0.49999871695E+02 0.  0.
         12    1    1    2    0    0  0.23940289790E+02 -0.12084627241E+02  0.17249619160E+02  0.31886126324E+02  0.00000000000E+00 0. -1.
         11    1    3    3    0    0 -0.44473806238E+01 -0.12156216377E+02 -0.69401007337E+01  0.14687334322E+02  0.51100000000E-03 0. -1.
        -11    1    3    3    0    0 -0.18423546690E+02  0.12814443330E+02  0.72966591844E+01  0.23598268284E+02  0.51100000000E-03 0.  1.
         12    1    3    3    0    0 -0.10693624766E+01  0.11426400288E+02 -0.17606177610E+02  0.21016271070E+02  0.00000000000E+00 0. -1.
</event>
<event>
 7    1  0.1205909E-011  0.5930193E+02  0.7816164E-02  0.1266605E+00
        -11   -1    0    0    0    0  0.00000000000E+00  0.00000000000E+00  0.45593999997E+02  0.45594000000E+02  0.51100000000E-03 0.  1.
         11   -1    0    0    0    0 -0.00000000000E+00 -0.00000000000E+00 -0.45593999997E+02  0.45594000000E+02  0.51100000000E-03 0. -1.
    9900012    2    1    2    0    0 -0.20435267236E+02 -0.82507380993E+01  0.23044445512E+02  0.59301932585E+02  0.49999979132E+02 0.  0.
         12    1    1    2    0    0  0.20435267236E+02  0.82507380993E+01 -0.23044445512E+02  0.31886067415E+02  0.00000000000E+00 0. -1.
         11    1    3    3    0    0 -0.79157016051E+01  0.40911470258E+01 -0.39185433657E+01  0.97340021706E+01  0.51100000000E-03 0. -1.
        -11    1    3    3    0    0 -0.15688906807E+02  0.83507363807E+00 -0.36145243647E+01  0.16121536261E+02  0.51100000000E-03 0.  1.
         12    1    3    3    0    0  0.31693411759E+01 -0.13176958763E+02  0.30577513243E+02  0.33446394153E+02  0.00000000000E+00 0. -1.
</event>
<event>
 7    1  0.1205909E-011  0.5930192E+02  0.7816164E-02  0.1266605E+00
        -11   -1    0    0    0    0  0.00000000000E+00  0.00000000000E+00  0.45593999997E+02  0.45594000000E+02  0.51100000000E-03 0.  1.
         11   -1    0    0    0    0 -0.00000000000E+00 -0.00000000000E+00 -0.45593999997E+02  0.45594000000E+02  0.51100000000E-03 0. -1.
    9900012    2    1    2    0    0  0.86308727147E+01  0.27890249581E+02 -0.12820453880E+02  0.59301921169E+02  0.49999958311E+02 0.  0.
         12    1    1    2    0    0 -0.86308727147E+01 -0.27890249581E+02  0.12820453880E+02  0.31886078831E+02  0.00000000000E+00 0. -1.
         11    1    3    3    0    0  0.90208720599E+01  0.94336071570E+01 -0.27253771679E+02  0.30218159238E+02  0.51100000000E-03 0. -1.
        -11    1    3    3    0    0  0.43293177370E+01  0.16646399264E+01  0.10095269593E+02  0.11109837378E+02  0.51100000000E-03 0.  1.
        -12    1    3    3    0    0 -0.47193170822E+01  0.16792002498E+02  0.43380482062E+01  0.17973924553E+02  0.00000000000E+00 0.  1.
</event>
<event>
 7    1  0.1205909E-011  0.5930210E+02  0.7816164E-02  0.1266604E+00
        -11   -1    0    0    0    0  0.00000000000E+00  0.00000000000E+00  0.45593999997E+02  0.45594000000E+02  0.51100000000E-03 0.  1.
         11   -1    0    0    0    0 -0.00000000000E+00 -0.00000000000E+00 -0.45593999997E+02  0.45594000000E+02  0.51100000000E-03 0. -1.
    9900012    2    1    2    0    0  0.14805756870E+01 -0.28947993602E+02  0.13286531653E+02  0.59302104038E+02  0.50000291820E+02 0.  0.
         12    1    1    2    0    0 -0.14805756870E+01  0.28947993602E+02 -0.13286531653E+02  0.31885895962E+02  0.00000000000E+00 0. -1.
         11    1    3    3    0    0 -0.10564852125E+02 -0.24158011337E+02  0.87077985012E+01  0.27767811710E+02  0.51100000000E-03 0. -1.
        -11    1    3    3    0    0 -0.45320509242E+00 -0.82672279904E+01  0.13466738478E+02  0.15808399634E+02  0.51100000000E-03 0.  1.
         12    1    3    3    0    0  0.12498632905E+02  0.34772457252E+01 -0.88880053269E+01  0.15725892694E+02  0.00000000000E+00 0. -1.
</event>
<event>
 7    1  0.1539563E-011  0.5930196E+02  0.7816164E-02  0.1266605E+00
        -11   -1    0    0    0    0  0.00000000000E+00  0.00000000000E+00  0.45593999997E+02  0.45594000000E+02  0.51100000000E-03 0. -1.
         11   -1    0    0    0    0 -0.00000000000E+00 -0.00000000000E+00 -0.45593999997E+02  0.45594000000E+02  0.51100000000E-03 0.  1.
    9900012    2    1    2    0    0 -0.68298311862E+01  0.25317964901E+02 -0.18140377705E+02  0.59301964749E+02  0.50000037790E+02 0.  0.
         12    1    1    2    0    0  0.68298311862E+01 -0.25317964901E+02  0.18140377705E+02  0.31886035251E+02  0.00000000000E+00 0. -1.
         11    1    3    3    0    0 -0.71166620787E+01 -0.24328711183E+01  0.34859057689E+01  0.82895886696E+01  0.51100000000E-03 0. -1.
        -11    1    3    3    0    0 -0.62188266342E+01 -0.50395464961E+01 -0.14898472041E+02  0.16912578249E+02  0.51100000000E-03 0.  1.
        -12    1    3    3    0    0  0.65056575267E+01  0.32790382516E+02 -0.67278114322E+01  0.34099797830E+02  0.00000000000E+00 0.  1.
</event>
<event>
 7    1  0.1205909E-011  0.5930194E+02  0.7816164E-02  0.1266605E+00
        -11   -1    0    0    0    0  0.00000000000E+00  0.00000000000E+00  0.45593999997E+02  0.45594000000E+02  0.51100000000E-03 0. -1.
         11   -1    0    0    0    0 -0.00000000000E+00 -0.00000000000E+00 -0.45593999997E+02  0.45594000000E+02  0.51100000000E-03 0.  1.
    9900012    2    1    2    0    0 -0.20391531547E+02 -0.20952849591E+01 -0.24423681263E+02  0.59301937460E+02  0.49999988021E+02 0.  0.
         12    1    1    2    0    0  0.20391531547E+02  0.20952849591E+01  0.24423681263E+02  0.31886062540E+02  0.00000000000E+00 0. -1.
         11    1    3    3    0    0  0.12029702719E+02  0.42693413448E+01  0.35931984554E+01  0.13260923739E+02  0.51100000000E-03 0. -1.
        -11    1    3    3    0    0 -0.64324544415E+01 -0.70261052714E+01 -0.12671308303E+02  0.15852592211E+02  0.51100000000E-03 0.  1.
        -12    1    3    3    0    0 -0.25988779824E+02  0.66147896752E+00 -0.15345571415E+02  0.30188421510E+02  0.00000000000E+00 0.  1.
</event>
<event>
 7    1  0.1205909E-011  0.5930195E+02  0.7816164E-02  0.1266605E+00
        -11   -1    0    0    0    0  0.00000000000E+00  0.00000000000E+00  0.45593999997E+02  0.45594000000E+02  0.51100000000E-03 0. -1.
         11   -1    0    0    0    0 -0.00000000000E+00 -0.00000000000E+00 -0.45593999997E+02  0.45594000000E+02  0.51100000000E-03 0.  1.
    9900012    2    1    2    0    0  0.18952571850E+02 -0.25240041733E+02  0.45233244423E+01  0.59301950536E+02  0.50000011870E+02 0.  0.
         12    1    1    2    0    0 -0.18952571850E+02  0.25240041733E+02 -0.45233244423E+01  0.31886049464E+02  0.00000000000E+00 0. -1.
         11    1    3    3    0    0  0.21568688741E+02 -0.18852546819E+02 -0.25698153947E+01  0.28761620382E+02  0.51100000000E-03 0. -1.
        -11    1    3    3    0    0  0.64631451272E+01 -0.55253492506E+01 -0.87870448132E+01  0.12227587092E+02  0.51100000000E-03 0.  1.
         12    1    3    3    0    0 -0.90792620188E+01 -0.86214566353E+00  0.15880184650E+02  0.18312743063E+02  0.00000000000E+00 0. -1.
</event>
<event>
 7    1  0.1205909E-011  0.5930195E+02  0.7816164E-02  0.1266605E+00
        -11   -1    0    0    0    0  0.00000000000E+00  0.00000000000E+00  0.45593999997E+02  0.45594000000E+02  0.51100000000E-03 0.  1.
         11   -1    0    0    0    0 -0.00000000000E+00 -0.00000000000E+00 -0.45593999997E+02  0.45594000000E+02  0.51100000000E-03 0. -1.
    9900012    2    1    2    0    0  0.25378156696E+02  0.70274525076E+01  0.17980098844E+02  0.59301954769E+02  0.50000019590E+02 0.  0.
         12    1    1    2    0    0 -0.25378156696E+02 -0.70274525076E+01 -0.17980098844E+02  0.31886045231E+02  0.00000000000E+00 0. -1.
         11    1    3    3    0    0 -0.59798302407E+01  0.59850313613E+01  0.10002532401E+01  0.85193589494E+01  0.51100000000E-03 0. -1.
        -11    1    3    3    0    0 -0.52808816086E+01 -0.19965618547E+01 -0.53416722858E+01  0.77722218750E+01  0.51100000000E-03 0.  1.
        -12    1    3    3    0    0  0.36638868545E+02  0.30389830010E+01  0.22321517890E+02  0.43010373945E+02  0.00000000000E+00 0.  1.
</event>
<event>
 7    1  0.1205909E-011  0.5930183E+02  0.7816164E-02  0.1266605E+00
        -11   -1    0    0    0    0  0.00000000000E+00  0.00000000000E+00  0.45593999997E+02  0.45594000000E+02  0.51100000000E-03 0.  1.
         11   -1    0    0    0    0 -0.00000000000E+00 -0.00000000000E+00 -0.45593999997E+02  0.45594000000E+02  0.51100000000E-03 0. -1.
    9900012    2    1    2    0    0  0.17175730579E+02  0.21168055466E+02 -0.16541932176E+02  0.59301830377E+02  0.49999792727E+02 0.  0.
         12    1    1    2    0    0 -0.17175730579E+02 -0.21168055466E+02  0.16541932176E+02  0.31886169623E+02  0.00000000000E+00 0. -1.
         11    1    3    3    0    0  0.45606373133E+01 -0.30833671604E+01 -0.18827573162E+02  0.19615913875E+02  0.51100000000E-03 0. -1.
        -11    1    3    3    0    0  0.16098217480E+00 -0.64449282655E+01 -0.33648492132E+00  0.64557135912E+01  0.51100000000E-03 0.  1.
        -12    1    3    3    0    0  0.12454111091E+02  0.30696350892E+02  0.26221259072E+01  0.33230202910E+02  0.00000000000E+00 0.  1.
</event>
<event>
 7    1  0.1205909E-011  0.5930202E+02  0.7816164E-02  0.1266604E+00
        -11   -1    0    0    0    0  0.00000000000E+00  0.00000000000E+00  0.45593999997E+02  0.45594000000E+02  0.51100000000E-03 0. -1.
         11   -1    0    0    0    0 -0.00000000000E+00 -0.00000000000E+00 -0.45593999997E+02  0.45594000000E+02  0.51100000000E-03 0.  1.
    9900012    2    1    2    0    0 -0.35360748436E+00 -0.53648361738E+01 -0.31429432465E+02  0.59302019845E+02  0.50000138272E+02 0.  0.
         12    1    1    2    0    0  0.35360748436E+00  0.53648361738E+01  0.31429432465E+02  0.31885980155E+02  0.00000000000E+00 0. -1.
         11    1    3    3    0    0  0.99627288708E+01  0.27856364294E+01  0.34171478579E+01  0.10894615028E+02  0.51100000000E-03 0. -1.
        -11    1    3    3    0    0 -0.15437007395E+02  0.68370255765E+01 -0.12453638775E+02  0.20979495587E+02  0.51100000000E-03 0.  1.
        -12    1    3    3    0    0  0.51206710403E+01 -0.14987498180E+02 -0.22392941547E+02  0.27427909230E+02  0.00000000000E+00 0.  1.
</event>
<event>
 7    1  0.1453994E-011  0.5930193E+02  0.7816164E-02  0.1266605E+00
        -11   -1    0    0    0    0  0.00000000000E+00  0.00000000000E+00  0.45593999997E+02  0.45594000000E+02  0.51100000000E-03 0. -1.
         11   -1    0    0    0    0 -0.00000000000E+00 -0.00000000000E+00 -0.45593999997E+02  0.45594000000E+02  0.51100000000E-03 0.  1.
    9900012    2    1    2    0    0  0.47970667134E+01  0.14626444980E+02 -0.27924481126E+02  0.59301931130E+02  0.49999976478E+02 0.  0.
         12    1    1    2    0    0 -0.47970667134E+01 -0.14626444980E+02  0.27924481126E+02  0.31886068870E+02  0.00000000000E+00 0. -1.
         11    1    3    3    0    0  0.99682454105E+01  0.11077975144E+02  0.15499521417E+01  0.14982983740E+02  0.51100000000E-03 0. -1.
        -11    1    3    3    0    0  0.57795264851E+01  0.85507631182E+01 -0.30536100388E+02  0.32233087092E+02  0.51100000000E-03 0.  1.
         12    1    3    3    0    0 -0.10950705182E+02 -0.50022932821E+01  0.10616671204E+01  0.12085860298E+02  0.00000000000E+00 0. -1.
</event>
<event>
 7    1  0.1353946E-011  0.5930196E+02  0.7816164E-02  0.1266605E+00
        -11   -1    0    0    0    0  0.00000000000E+00  0.00000000000E+00  0.45593999997E+02  0.45594000000E+02  0.51100000000E-03 0.  1.
         11   -1    0    0    0    0 -0.00000000000E+00 -0.00000000000E+00 -0.45593999997E+02  0.45594000000E+02  0.51100000000E-03 0. -1.
    9900012    2    1    2    0    0 -0.28266436950E+02  0.14751931232E+02 -0.32977134092E+00  0.59301957881E+02  0.50000025264E+02 0.  0.
         12    1    1    2    0    0  0.28266436950E+02 -0.14751931232E+02  0.32977134092E+00  0.31886042119E+02  0.00000000000E+00 0. -1.
         11    1    3    3    0    0 -0.22670533818E+01 -0.97628319030E+01 -0.48536689768E+01  0.11136001105E+02  0.51100000000E-03 0.  1.
        -11    1    3    3    0    0 -0.18740251238E+02 -0.24756942135E+00  0.10770477531E+02  0.21616232179E+02  0.51100000000E-03 0. -1.
        -12    1    3    3    0    0 -0.72591323297E+01  0.24762332556E+02 -0.62465798954E+01  0.26549724597E+02  0.00000000000E+00 0.  1.
</event>
<event>
 7    1  0.1205909E-011  0.5930195E+02  0.7816164E-02  0.1266605E+00
        -11   -1    0    0    0    0  0.00000000000E+00  0.00000000000E+00  0.45593999997E+02  0.45594000000E+02  0.51100000000E-03 0.  1.
         11   -1    0    0    0    0 -0.00000000000E+00 -0.00000000000E+00 -0.45593999997E+02  0.45594000000E+02  0.51100000000E-03 0. -1.
    9900012    2    1    2    0    0 -0.20367907847E+02  0.18976371345E+02  0.15548825452E+02  0.59301947996E+02  0.50000007237E+02 0.  0.
         12    1    1    2    0    0  0.20367907847E+02 -0.18976371345E+02 -0.15548825452E+02  0.31886052004E+02  0.00000000000E+00 0. -1.
         11    1    3    3    0    0  0.47083000254E+01  0.71212553415E+01  0.21157173562E+02  0.22814608481E+02  0.51100000000E-03 0. -1.
        -11    1    3    3    0    0 -0.48680259721E+01  0.14704430850E+02 -0.74172937346E+00  0.15507034733E+02  0.51100000000E-03 0.  1.
        -12    1    3    3    0    0 -0.20208181900E+02 -0.28493148468E+01 -0.48666187363E+01  0.20980304782E+02  0.00000000000E+00 0.  1.
</event>
<event>
 7    1  0.1205909E-011  0.5930193E+02  0.7816164E-02  0.1266605E+00
        -11   -1    0    0    0    0  0.00000000000E+00  0.00000000000E+00  0.45593999997E+02  0.45594000000E+02  0.51100000000E-03 0. -1.
         11   -1    0    0    0    0 -0.00000000000E+00 -0.00000000000E+00 -0.45593999997E+02  0.45594000000E+02  0.51100000000E-03 0.  1.
    9900012    2    1    2    0    0 -0.23174865903E+02  0.72808134223E+01 -0.20655184190E+02  0.59301932703E+02  0.49999979347E+02 0.  0.
         12    1    1    2    0    0  0.23174865903E+02 -0.72808134223E+01  0.20655184190E+02  0.31886067297E+02  0.00000000000E+00 0. -1.
         11    1    3    3    0    0 -0.16799454310E+01  0.68798803052E+01 -0.31857007894E+01  0.77655430876E+01  0.51100000000E-03 0. -1.
        -11    1    3    3    0    0 -0.19423574248E+02  0.15265810792E+02 -0.24649647475E+02  0.34898787036E+02  0.51100000000E-03 0.  1.
         12    1    3    3    0    0 -0.20713462235E+01 -0.14864877675E+02  0.71801640738E+01  0.16637602580E+02  0.00000000000E+00 0. -1.
</event>
<event>
 7    1  0.1205909E-011  0.5930193E+02  0.7816164E-02  0.1266605E+00
        -11   -1    0    0    0    0  0.00000000000E+00  0.00000000000E+00  0.45593999997E+02  0.45594000000E+02  0.51100000000E-03 0.  1.
         11   -1    0    0    0    0 -0.00000000000E+00 -0.00000000000E+00 -0.45593999997E+02  0.45594000000E+02  0.51100000000E-03 0. -1.
    9900012    2    1    2    0    0  0.31783995312E+02  0.16415003634E+01  0.19505024381E+01  0.59301931864E+02  0.49999977816E+02 0.  0.
         12    1    1    2    0    0 -0.31783995312E+02 -0.16415003634E+01 -0.19505024381E+01  0.31886068136E+02  0.00000000000E+00 0. -1.
         11    1    3    3    0    0  0.20482723511E+02  0.13799434012E+01 -0.12054238531E+02  0.23806530050E+02  0.51100000000E-03 0. -1.
        -11    1    3    3    0    0  0.21306684725E+02 -0.75495463630E-01  0.13980997039E+02  0.25484285197E+02  0.51100000000E-03 0.  1.
         12    1    3    3    0    0 -0.10005412925E+02  0.33705242591E+00  0.23743929768E-01  0.10011116616E+02  0.00000000000E+00 0. -1.
</event>
<event>
 7    1  0.1205909E-011  0.5930194E+02  0.7816164E-02  0.1266605E+00
        -11   -1    0    0    0    0  0.00000000000E+00  0.00000000000E+00  0.45593999997E+02  0.45594000000E+02  0.51100000000E-03 0. -1.
         11   -1    0    0    0    0 -0.00000000000E+00 -0.00000000000E+00 -0.45593999997E+02  0.45594000000E+02  0.51100000000E-03 0.  1.
    9900012    2    1    2    0    0  0.26873536157E+02 -0.16344457963E+02 -0.52337889640E+01  0.59301940372E+02  0.49999993333E+02 0.  0.
         12    1    1    2    0    0 -0.26873536157E+02  0.16344457963E+02  0.52337889640E+01  0.31886059628E+02  0.00000000000E+00 0. -1.
         11    1    3    3    0    0  0.80031848606E+01  0.37540131299E+01 -0.11448098959E+02  0.14463836024E+02  0.51100000000E-03 0. -1.
        -11    1    3    3    0    0  0.18471336359E+02 -0.16746673498E+02 -0.11032140671E+02  0.27264435959E+02  0.51100000000E-03 0.  1.
         12    1    3    3    0    0  0.39901493699E+00 -0.33517975949E+01  0.17246450666E+02  0.17573668388E+02  0.00000000000E+00 0. -1.
</event>
<event>
 7    1  0.1205909E-011  0.5930197E+02  0.7816164E-02  0.1266605E+00
        -11   -1    0    0    0    0  0.00000000000E+00  0.00000000000E+00  0.45593999997E+02  0.45594000000E+02  0.51100000000E-03 0. -1.
         11   -1    0    0    0    0 -0.00000000000E+00 -0.00000000000E+00 -0.45593999997E+02  0.45594000000E+02  0.51100000000E-03 0.  1.
    9900012    2    1    2    0    0 -0.31642368000E+02 -0.16693252109E+01 -0.35627021774E+01  0.59301969421E+02  0.50000046311E+02 0.  0.
         12    1    1    2    0    0  0.31642368000E+02  0.16693252109E+01  0.35627021774E+01  0.31886030579E+02  0.00000000000E+00 0. -1.
         11    1    3    3    0    0  0.18782216973E+01 -0.50124185518E+00  0.11445680469E+02  0.11609589218E+02  0.51100000000E-03 0. -1.
        -11    1    3    3    0    0 -0.90295011530E+01 -0.14253464851E+02 -0.18788076939E+01  0.16977133738E+02  0.51100000000E-03 0.  1.
         12    1    3    3    0    0 -0.24491088544E+02  0.13085381496E+02 -0.13129574953E+02  0.30715246465E+02  0.00000000000E+00 0. -1.
</event>
<event>
 7    1  0.1205909E-011  0.5930196E+02  0.7816164E-02  0.1266605E+00
        -11   -1    0    0    0    0  0.00000000000E+00  0.00000000000E+00  0.45593999997E+02  0.45594000000E+02  0.51100000000E-03 0.  1.
         11   -1    0    0    0    0 -0.00000000000E+00 -0.00000000000E+00 -0.45593999997E+02  0.45594000000E+02  0.51100000000E-03 0. -1.
    9900012    2    1    2    0    0  0.24812640611E+02 -0.73281730247E+01  0.18637338521E+02  0.59301958523E+02  0.50000026435E+02 0.  0.
         12    1    1    2    0    0 -0.24812640611E+02  0.73281730247E+01 -0.18637338521E+02  0.31886041477E+02  0.00000000000E+00 0. -1.
         11    1    3    3    0    0  0.17765544343E+02  0.17297271362E+00  0.11675780494E+02  0.21259546932E+02  0.51100000000E-03 0.  1.
        -11    1    3    3    0    0  0.12095909107E+02 -0.19047317454E+02  0.10595122641E+02  0.24927253025E+02  0.51100000000E-03 0. -1.
         12    1    3    3    0    0 -0.50488128393E+01  0.11546171716E+02 -0.36335646143E+01  0.13115158565E+02  0.00000000000E+00 0. -1.
</event>
<event>
 7    1  0.1205909E-011  0.5930193E+02  0.7816164E-02  0.1266605E+00
        -11   -1    0    0    0    0  0.00000000000E+00  0.00000000000E+00  0.45593999997E+02  0.45594000000E+02  0.51100000000E-03 0.  1.
         11   -1    0    0    0    0 -0.00000000000E+00 -0.00000000000E+00 -0.45593999997E+02  0.45594000000E+02  0.51100000000E-03 0. -1.
    9900012    2    1    2    0    0 -0.31381021927E+02 -0.51262660037E+01  0.23821004062E+01  0.59301928705E+02  0.49999972054E+02 0.  0.
         12    1    1    2    0    0  0.31381021927E+02  0.51262660037E+01 -0.23821004062E+01  0.31886071295E+02  0.00000000000E+00 0. -1.
         11    1    3    3    0    0 -0.13271428674E+02 -0.12588934515E+01  0.53105514679E+01  0.14349828881E+02  0.51100000000E-03 0.  1.
        -11    1    3    3    0    0 -0.48590088731E+01  0.10329008282E+02  0.14777324545E+02  0.18672645776E+02  0.51100000000E-03 0. -1.
        -12    1    3    3    0    0 -0.13250584380E+02 -0.14196380834E+02 -0.17705775606E+02  0.26279454047E+02  0.00000000000E+00 0.  1.
</event>
<event>
 7    1  0.1205909E-011  0.5930205E+02  0.7816164E-02  0.1266604E+00
        -11   -1    0    0    0    0  0.00000000000E+00  0.00000000000E+00  0.45593999997E+02  0.45594000000E+02  0.51100000000E-03 0. -1.
         11   -1    0    0    0    0 -0.00000000000E+00 -0.00000000000E+00 -0.45593999997E+02  0.45594000000E+02  0.51100000000E-03 0.  1.
    9900012    2    1    2    0    0 -0.13932737706E+02  0.28423366679E+02 -0.38347147266E+01  0.59302047131E+02  0.50000188035E+02 0.  0.
         12    1    1    2    0    0  0.13932737706E+02 -0.28423366679E+02  0.38347147266E+01  0.31885952869E+02  0.00000000000E+00 0. -1.
         11    1    3    3    0    0 -0.91191322431E+01  0.19936849477E+02 -0.54194549664E+01  0.22583335279E+02  0.51100000000E-03 0. -1.
        -11    1    3    3    0    0  0.13566019722E+02  0.10978790002E+02 -0.27598878083E+01  0.17668834200E+02  0.51100000000E-03 0.  1.
         12    1    3    3    0    0 -0.18379625185E+02 -0.24922728003E+01  0.43446280481E+01  0.19049877652E+02  0.00000000000E+00 0. -1.
</event>
<event>
 7    1  0.2020373E-011  0.5930196E+02  0.7816164E-02  0.1266605E+00
        -11   -1    0    0    0    0  0.00000000000E+00  0.00000000000E+00  0.45593999997E+02  0.45594000000E+02  0.51100000000E-03 0. -1.
         11   -1    0    0    0    0 -0.00000000000E+00 -0.00000000000E+00 -0.45593999997E+02  0.45594000000E+02  0.51100000000E-03 0.  1.
    9900012    2    1    2    0    0  0.97578267527E+01 -0.14376310599E+01 -0.30322226698E+02  0.59301962336E+02  0.50000033390E+02 0.  0.
         12    1    1    2    0    0 -0.97578267527E+01  0.14376310599E+01  0.30322226698E+02  0.31886037664E+02  0.00000000000E+00 0. -1.
         11    1    3    3    0    0  0.85002749201E+00  0.14481049779E+02 -0.56621277334E+01  0.15571866946E+02  0.51100000000E-03 0. -1.
        -11    1    3    3    0    0 -0.68728622476E+01 -0.28064040771E+01 -0.21781431361E+02  0.23011798967E+02  0.51100000000E-03 0.  1.
        -12    1    3    3    0    0  0.15780661508E+02 -0.13112276762E+02 -0.28786676035E+01  0.20718296423E+02  0.00000000000E+00 0.  1.
</event>
<event>
 7    1  0.1205909E-011  0.5930209E+02  0.7816164E-02  0.1266604E+00
        -11   -1    0    0    0    0  0.00000000000E+00  0.00000000000E+00  0.45593999997E+02  0.45594000000E+02  0.51100000000E-03 0.  1.
         11   -1    0    0    0    0 -0.00000000000E+00 -0.00000000000E+00 -0.45593999997E+02  0.45594000000E+02  0.51100000000E-03 0. -1.
    9900012    2    1    2    0    0  0.21791004934E+02 -0.23194724258E+02  0.19666928589E+01  0.59302093862E+02  0.50000273262E+02 0.  0.
         12    1    1    2    0    0 -0.21791004934E+02  0.23194724258E+02 -0.19666928589E+01  0.31885906138E+02  0.00000000000E+00 0. -1.
         11    1    3    3    0    0  0.97930273252E+01 -0.23144477366E+01  0.11355719561E+02  0.15172752536E+02  0.51100000000E-03 0. -1.
        -11    1    3    3    0    0 -0.88696908317E+01 -0.18000606838E+02  0.20271538097E+01  0.20169348398E+02  0.51100000000E-03 0.  1.
         12    1    3    3    0    0  0.20867668440E+02 -0.28796696832E+01 -0.11416180512E+02  0.23959992928E+02  0.00000000000E+00 0. -1.
</event>
<event>
 7    1  0.1205909E-011  0.5930193E+02  0.7816164E-02  0.1266605E+00
        -11   -1    0    0    0    0  0.00000000000E+00  0.00000000000E+00  0.45593999997E+02  0.45594000000E+02  0.51100000000E-03 0.  1.
         11   -1    0    0    0    0 -0.00000000000E+00 -0.00000000000E+00 -0.45593999997E+02  0.45594000000E+02  0.51100000000E-03 0. -1.
    9900012    2    1    2    0    0  0.90392165568E+01 -0.29802876770E+02  0.68412573550E+01  0.59301926207E+02  0.49999967499E+02 0.  0.
         12    1    1    2    0    0 -0.90392165568E+01  0.29802876770E+02 -0.68412573550E+01  0.31886073793E+02  0.00000000000E+00 0. -1.
         11    1    3    3    0    0  0.11302593799E+02 -0.18475038759E+02 -0.27155456843E+01  0.21827731727E+02  0.51100000000E-03 0. -1.
        -11    1    3    3    0    0 -0.13829086326E+01 -0.20810646395E+02  0.15731341302E+02  0.26124137098E+02  0.51100000000E-03 0.  1.
         12    1    3    3    0    0 -0.88046860984E+00  0.94828083837E+01 -0.61745382628E+01  0.11350057382E+02  0.00000000000E+00 0. -1.
</event>
<event>
 7    1  0.1205909E-011  0.5930195E+02  0.7816164E-02  0.1266605E+00
        -11   -1    0    0    0    0  0.00000000000E+00  0.00000000000E+00  0.45593999997E+02  0.45594000000E+02  0.51100000000E-03 0.  1.
         11   -1    0    0    0    0 -0.00000000000E+00 -0.00000000000E+00 -0.45593999997E+02  0.45594000000E+02  0.51100000000E-03 0. -1.
    9900012    2    1    2    0    0 -0.10815676595E+02 -0.28201304991E+02  0.10218984277E+02  0.59301951278E+02  0.50000013224E+02 0.  0.
         12    1    1    2    0    0  0.10815676595E+02  0.28201304991E+02 -0.10218984277E+02  0.31886048722E+02  0.00000000000E+00 0. -1.
         11    1    3    3    0    0 -0.15750446586E+02  0.37396701885E+01  0.14678120675E+02  0.21851977658E+02  0.51100000000E-03 0. -1.
        -11    1    3    3    0    0 -0.58048521351E+01 -0.17614189308E+02 -0.59646029061E+01  0.19481592886E+02  0.51100000000E-03 0.  1.
        -12    1    3    3    0    0  0.10739622125E+02 -0.14326785871E+02  0.15054665081E+01  0.17968380734E+02  0.00000000000E+00 0.  1.
</event>
<event>
 7    1  0.1205909E-011  0.5930186E+02  0.7816164E-02  0.1266605E+00
        -11   -1    0    0    0    0  0.00000000000E+00  0.00000000000E+00  0.45593999997E+02  0.45594000000E+02  0.51100000000E-03 0.  1.
         11   -1    0    0    0    0 -0.00000000000E+00 -0.00000000000E+00 -0.45593999997E+02  0.45594000000E+02  0.51100000000E-03 0. -1.
    9900012    2    1    2    0    0 -0.31508805650E+02  0.19528638197E+00 -0.48870310662E+01  0.59301858137E+02  0.49999843356E+02 0.  0.
         12    1    1    2    0    0  0.31508805650E+02 -0.19528638197E+00  0.48870310662E+01  0.31886141863E+02  0.00000000000E+00 0. -1.
         11    1    3    3    0    0  0.17602659755E+01  0.11616634908E+01  0.13792856885E+01  0.25200054846E+01  0.51100000000E-03 0. -1.
        -11    1    3    3    0    0 -0.46014538868E+01  0.14006625211E+02  0.12552530494E+02  0.19362978845E+02  0.51100000000E-03 0.  1.
        -12    1    3    3    0    0 -0.28667617739E+02 -0.14973002320E+02 -0.18818847249E+02  0.37418873808E+02  0.00000000000E+00 0.  1.
</event>
<event>
 7    1  0.1205909E-011  0.5930192E+02  0.7816164E-02  0.1266605E+00
        -11   -1    0    0    0    0  0.00000000000E+00  0.00000000000E+00  0.45593999997E+02  0.45594000000E+02  0.51100000000E-03 0.  1.
         11   -1    0    0    0    0 -0.00000000000E+00 -0.00000000000E+00 -0.45593999997E+02  0.45594000000E+02  0.51100000000E-03 0. -1.
    9900012    2    1    2    0    0 -0.44854224107E+01  0.19848894452E+02  0.24548405103E+02  0.59301924383E+02  0.49999964172E+02 0.  0.
         12    1    1    2    0    0  0.44854224107E+01 -0.19848894452E+02 -0.24548405103E+02  0.31886075617E+02  0.00000000000E+00 0. -1.
         11    1    3    3    0    0 -0.64117197832E+01  0.50826495243E+01 -0.37440006286E+01  0.89978340578E+01  0.51100000000E-03 0. -1.
        -11    1    3    3    0    0  0.18847575917E+02  0.13969667307E+02  0.22208204961E+02  0.32304598596E+02  0.51100000000E-03 0.  1.
         12    1    3    3    0    0 -0.16921278544E+02  0.79657762122E+00  0.60842007709E+01  0.17999491729E+02  0.00000000000E+00 0. -1.
</event>
<event>
 7    1  0.1205909E-011  0.5930193E+02  0.7816164E-02  0.1266605E+00
        -11   -1    0    0    0    0  0.00000000000E+00  0.00000000000E+00  0.45593999997E+02  0.45594000000E+02  0.51100000000E-03 0.  1.
         11   -1    0    0    0    0 -0.00000000000E+00 -0.00000000000E+00 -0.45593999997E+02  0.45594000000E+02  0.51100000000E-03 0. -1.
    9900012    2    1    2    0    0 -0.11470227097E+02  0.27879133102E+02 -0.10387924398E+02  0.59301934933E+02  0.49999983413E+02 0.  0.
         12    1    1    2    0    0  0.11470227097E+02 -0.27879133102E+02  0.10387924398E+02  0.31886065067E+02  0.00000000000E+00 0. -1.
         11    1    3    3    0    0 -0.97114638676E+00 -0.11042547667E-01 -0.91932980839E-02  0.97125280963E+00  0.51100000000E-03 0. -1.
        -11    1    3    3    0    0 -0.18680861203E+02  0.21012731803E+01  0.12768071355E+02  0.22724734776E+02  0.51100000000E-03 0.  1.
         12    1    3    3    0    0  0.81817804923E+01  0.25788902469E+02 -0.23146802455E+02  0.35605947347E+02  0.00000000000E+00 0. -1.
</event>
<event>
 7    1  0.1205909E-011  0.5930203E+02  0.7816164E-02  0.1266604E+00
        -11   -1    0    0    0    0  0.00000000000E+00  0.00000000000E+00  0.45593999997E+02  0.45594000000E+02  0.51100000000E-03 0.  1.
         11   -1    0    0    0    0 -0.00000000000E+00 -0.00000000000E+00 -0.45593999997E+02  0.45594000000E+02  0.51100000000E-03 0. -1.
    9900012    2    1    2    0    0 -0.27715037057E+02 -0.35191287622E+01  0.15369049826E+02  0.59302027553E+02  0.50000152330E+02 0.  0.
         12    1    1    2    0    0  0.27715037057E+02  0.35191287622E+01 -0.15369049826E+02  0.31885972447E+02  0.00000000000E+00 0. -1.
         11    1    3    3    0    0 -0.18753714088E+02  0.16328349558E+02 -0.29562293160E+01  0.25041087904E+02  0.51100000000E-03 0. -1.
        -11    1    3    3    0    0 -0.63015644559E+01 -0.11100678557E+01  0.13176299922E+02  0.14647759048E+02  0.51100000000E-03 0.  1.
        -12    1    3    3    0    0 -0.26597585137E+01 -0.18737410465E+02  0.51489792197E+01  0.19613180601E+02  0.00000000000E+00 0.  1.
</event>
<event>
 7    1  0.1205909E-011  0.5930189E+02  0.7816164E-02  0.1266605E+00
        -11   -1    0    0    0    0  0.00000000000E+00  0.00000000000E+00  0.45593999997E+02  0.45594000000E+02  0.51100000000E-03 0.  1.
         11   -1    0    0    0    0 -0.00000000000E+00 -0.00000000000E+00 -0.45593999997E+02  0.45594000000E+02  0.51100000000E-03 0. -1.
    9900012    2    1    2    0    0 -0.15610713352E+01  0.28861399281E+02  0.13465011191E+02  0.59301892703E+02  0.49999906396E+02 0.  0.
         12    1    1    2    0    0  0.15610713352E+01 -0.28861399281E+02 -0.13465011191E+02  0.31886107297E+02  0.00000000000E+00 0. -1.
         11    1    3    3    0    0  0.13615213125E+02  0.23425325969E+02  0.23021935755E+02  0.35554598174E+02  0.51100000000E-03 0.  1.
        -11    1    3    3    0    0 -0.19720328539E+01 -0.21839182415E+00 -0.91656511898E+01  0.93779406353E+01  0.51100000000E-03 0. -1.
        -12    1    3    3    0    0 -0.13204251606E+02  0.56544651361E+01 -0.39127337361E+00  0.14369353893E+02  0.00000000000E+00 0.  1.
</event>
<event>
 7    1  0.1205909E-011  0.5930193E+02  0.7816164E-02  0.1266605E+00
        -11   -1    0    0    0    0  0.00000000000E+00  0.00000000000E+00  0.45593999997E+02  0.45594000000E+02  0.51100000000E-03 0. -1.
         11   -1    0    0    0    0 -0.00000000000E+00 -0.00000000000E+00 -0.45593999997E+02  0.45594000000E+02  0.51100000000E-03 0.  1.
    9900012    2    1    2    0    0 -0.28167619451E+02 -0.20677893449E+01  0.14799683880E+02  0.59301934372E+02  0.49999982390E+02 0.  0.
         12    1    1    2    0    0  0.28167619451E+02  0.20677893449E+01 -0.14799683880E+02  0.31886065628E+02  0.00000000000E+00 0. -1.
         11    1    3    3    0    0 -0.39144769333E+02 -0.34082530631E+01  0.16067743640E+02  0.42451166544E+02  0.51100000000E-03 0. -1.
        -11    1    3    3    0    0 -0.19122764066E+01  0.29116434876E+01 -0.16627229731E+01  0.38599374089E+01  0.51100000000E-03 0.  1.
        -12    1    3    3    0    0  0.12889426288E+02 -0.15711797694E+01  0.39466321298E+00  0.12990830418E+02  0.00000000000E+00 0.  1.
</event>
<event>
 7    1  0.1205909E-011  0.5930196E+02  0.7816164E-02  0.1266605E+00
        -11   -1    0    0    0    0  0.00000000000E+00  0.00000000000E+00  0.45593999997E+02  0.45594000000E+02  0.51100000000E-03 0. -1.
         11   -1    0    0    0    0 -0.00000000000E+00 -0.00000000000E+00 -0.45593999997E+02  0.45594000000E+02  0.51100000000E-03 0.  1.
    9900012    2    1    2    0    0 -0.17649438448E+02 -0.54758142417E+01 -0.25985239004E+02  0.59301955008E+02  0.50000020025E+02 0.  0.
         12    1    1    2    0    0  0.17649438448E+02  0.54758142417E+01  0.25985239004E+02  0.31886044992E+02  0.00000000000E+00 0. -1.
         11    1    3    3    0    0 -0.20687987258E+02  0.43778462516E+01 -0.66536221592E+01  0.22168198904E+02  0.51100000000E-03 0.  1.
        -11    1    3    3    0    0 -0.10875043358E+02  0.44481294312E+01 -0.73768044921E+01  0.13873343802E+02  0.51100000000E-03 0. -1.
         12    1    3    3    0    0  0.13913592167E+02 -0.14301789924E+02 -0.11954812352E+02  0.23260412301E+02  0.00000000000E+00 0. -1.
</event>
<event>
 7    1  0.1205909E-011  0.5930196E+02  0.7816164E-02  0.1266605E+00
        -11   -1    0    0    0    0  0.00000000000E+00  0.00000000000E+00  0.45593999997E+02  0.45594000000E+02  0.51100000000E-03 0.  1.
         11   -1    0    0    0    0 -0.00000000000E+00 -0.00000000000E+00 -0.45593999997E+02  0.45594000000E+02  0.51100000000E-03 0. -1.
    9900012    2    1    2    0    0 -0.30184622993E+00  0.31844493452E+02  0.15990303372E+01  0.59301956464E+02  0.50000022680E+02 0.  0.
         12    1    1    2    0    0  0.30184622993E+00 -0.31844493452E+02 -0.15990303372E+01  0.31886043536E+02  0.00000000000E+00 0. -1.
         11    1    3    3    0    0 -0.61673642874E+00  0.57591070281E+00 -0.75817596964E+01  0.76285724297E+01  0.51100000000E-03 0. -1.
        -11    1    3    3    0    0 -0.20058375055E+01 -0.85080761925E+01 -0.41254871272E+01  0.96659396280E+01  0.51100000000E-03 0.  1.
        -12    1    3    3    0    0  0.23207277043E+01  0.39776658942E+02  0.13306277161E+02  0.42007444406E+02  0.00000000000E+00 0.  1.
</event>
<event>
 7    1  0.1205909E-011  0.5930190E+02  0.7816164E-02  0.1266605E+00
        -11   -1    0    0    0    0  0.00000000000E+00  0.00000000000E+00  0.45593999997E+02  0.45594000000E+02  0.51100000000E-03 0.  1.
         11   -1    0    0    0    0 -0.00000000000E+00 -0.00000000000E+00 -0.45593999997E+02  0.45594000000E+02  0.51100000000E-03 0. -1.
    9900012    2    1    2    0    0 -0.20440467942E+02 -0.11355042480E+02  0.21678882415E+02  0.59301895469E+02  0.49999911440E+02 0.  0.
         12    1    1    2    0    0  0.20440467942E+02  0.11355042480E+02 -0.21678882415E+02  0.31886104531E+02  0.00000000000E+00 0. -1.
         11    1    3    3    0    0 -0.66503388683E+01 -0.23256620294E+01  0.39032115510E+00  0.70560656037E+01  0.51100000000E-03 0. -1.
        -11    1    3    3    0    0  0.90546160516E+01 -0.12455616983E+02 -0.59698672621E+01  0.16515682900E+02  0.51100000000E-03 0.  1.
         12    1    3    3    0    0 -0.22844745125E+02  0.34262365326E+01  0.27258428523E+02  0.35730146965E+02  0.00000000000E+00 0. -1.
</event>
<event>
 7    1  0.1205909E-011  0.5930195E+02  0.7816164E-02  0.1266605E+00
        -11   -1    0    0    0    0  0.00000000000E+00  0.00000000000E+00  0.45593999997E+02  0.45594000000E+02  0.51100000000E-03 0.  1.
         11   -1    0    0    0    0 -0.00000000000E+00 -0.00000000000E+00 -0.45593999997E+02  0.45594000000E+02  0.51100000000E-03 0. -1.
    9900012    2    1    2    0    0 -0.11848034225E+02  0.54996295413E+01  0.29087768170E+02  0.59301951370E+02  0.50000013391E+02 0.  0.
         12    1    1    2    0    0  0.11848034225E+02 -0.54996295413E+01 -0.29087768170E+02  0.31886048630E+02  0.00000000000E+00 0. -1.
         11    1    3    3    0    0 -0.86306048786E+01  0.12261668922E+02  0.12757736395E+02  0.19687450407E+02  0.51100000000E-03 0. -1.
        -11    1    3    3    0    0 -0.62188118339E+01  0.36982218840E+00  0.26280955288E+02  0.27009239164E+02  0.51100000000E-03 0.  1.
        -12    1    3    3    0    0  0.30013824870E+01 -0.71318615694E+01 -0.99509235129E+01  0.12605261800E+02  0.00000000000E+00 0.  1.
</event>
<event>
 7    1  0.1205909E-011  0.5930197E+02  0.7816164E-02  0.1266605E+00
        -11   -1    0    0    0    0  0.00000000000E+00  0.00000000000E+00  0.45593999997E+02  0.45594000000E+02  0.51100000000E-03 0.  1.
         11   -1    0    0    0    0 -0.00000000000E+00 -0.00000000000E+00 -0.45593999997E+02  0.45594000000E+02  0.51100000000E-03 0. -1.
    9900012    2    1    2    0    0 -0.11653939283E+02  0.29253482486E+02  0.50138198799E+01  0.59301969702E+02  0.50000046824E+02 0.  0.
         12    1    1    2    0    0  0.11653939283E+02 -0.29253482486E+02 -0.50138198799E+01  0.31886030298E+02  0.00000000000E+00 0. -1.
         11    1    3    3    0    0 -0.43769607407E+01 -0.19347551539E+01  0.68922145941E+01  0.83906903830E+01  0.51100000000E-03 0. -1.
        -11    1    3    3    0    0  0.13610968184E+02  0.32318458786E+01 -0.69941352622E+01  0.15640371192E+02  0.51100000000E-03 0.  1.
        -12    1    3    3    0    0 -0.20887946726E+02  0.27956391761E+02  0.51157405481E+01  0.35270908127E+02  0.00000000000E+00 0.  1.
</event>
<event>
 7    1  0.1205909E-011  0.5930194E+02  0.7816164E-02  0.1266605E+00
        -11   -1    0    0    0    0  0.00000000000E+00  0.00000000000E+00  0.45593999997E+02  0.45594000000E+02  0.51100000000E-03 0.  1.
         11   -1    0    0    0    0 -0.00000000000E+00 -0.00000000000E+00 -0.45593999997E+02  0.45594000000E+02  0.51100000000E-03 0. -1.
    9900012    2    1    2    0    0 -0.70261838377E+01 -0.24212523218E+02  0.19521968514E+02  0.59301940435E+02  0.49999993448E+02 0.  0.
         12    1    1    2    0    0  0.70261838377E+01  0.24212523218E+02 -0.19521968514E+02  0.31886059565E+02  0.00000000000E+00 0. -1.
         11    1    3    3    0    0 -0.12938086156E+02  0.36678247647E+01 -0.38898196006E+01  0.13999203858E+02  0.51100000000E-03 0. -1.
        -11    1    3    3    0    0  0.12147203440E+02 -0.32962308537E+01  0.12347761466E+02  0.17631985218E+02  0.51100000000E-03 0.  1.
        -12    1    3    3    0    0 -0.62353011217E+01 -0.24584117129E+02  0.11064026648E+02  0.27670751359E+02  0.00000000000E+00 0.  1.
</event>
<event>
 7    1  0.1205909E-011  0.5930195E+02  0.7816164E-02  0.1266605E+00
        -11   -1    0    0    0    0  0.00000000000E+00  0.00000000000E+00  0.45593999997E+02  0.45594000000E+02  0.51100000000E-03 0.  1.
         11   -1    0    0    0    0 -0.00000000000E+00 -0.00000000000E+00 -0.45593999997E+02  0.45594000000E+02  0.51100000000E-03 0. -1.
    9900012    2    1    2    0    0  0.27687310330E+01  0.85491200879E+01  0.30593570383E+02  0.59301954861E+02  0.50000019758E+02 0.  0.
         12    1    1    2    0    0 -0.27687310330E+01 -0.85491200879E+01 -0.30593570383E+02  0.31886045139E+02  0.00000000000E+00 0. -1.
         11    1    3    3    0    0 -0.20777253631E+01 -0.66537945880E+01  0.38724547590E+01  0.79740724367E+01  0.51100000000E-03 0. -1.
        -11    1    3    3    0    0  0.36353628751E+00  0.35031577556E+01  0.35725506032E+02  0.35898691541E+02  0.51100000000E-03 0.  1.
        -12    1    3    3    0    0  0.44829201086E+01  0.11699756920E+02 -0.90043904080E+01  0.15429190883E+02  0.00000000000E+00 0.  1.
</event>
<event>
 7    1  0.1205909E-011  0.5930195E+02  0.7816164E-02  0.1266605E+00
        -11   -1    0    0    0    0  0.00000000000E+00  0.00000000000E+00  0.45593999997E+02  0.45594000000E+02  0.51100000000E-03 0.  1.
         11   -1    0    0    0    0 -0.00000000000E+00 -0.00000000000E+00 -0.45593999997E+02  0.45594000000E+02  0.51100000000E-03 0. -1.
    9900012    2    1    2    0    0 -0.14134237993E+01  0.30568745018E+02  0.89595788471E+01  0.59301953021E+02  0.50000016401E+02 0.  0.
         12    1    1    2    0    0  0.14134237993E+01 -0.30568745018E+02 -0.89595788471E+01  0.31886046979E+02  0.00000000000E+00 0. -1.
         11    1    3    3    0    0 -0.15205345203E+02  0.46690125379E+00  0.75061824721E+00  0.15231019255E+02  0.51100000000E-03 0. -1.
        -11    1    3    3    0    0  0.10470975214E+02  0.34932083418E+02  0.36594509558E+01  0.36650830215E+02  0.51100000000E-03 0.  1.
         12    1    3    3    0    0  0.33209461896E+01 -0.48302396539E+01  0.45495096440E+01  0.74201035511E+01  0.00000000000E+00 0. -1.
</event>
<event>
 7    1  0.1205909E-011  0.5930196E+02  0.7816164E-02  0.1266605E+00
        -11   -1    0    0    0    0  0.00000000000E+00  0.00000000000E+00  0.45593999997E+02  0.45594000000E+02  0.51100000000E-03 0. -1.
         11   -1    0    0    0    0 -0.00000000000E+00 -0.00000000000E+00 -0.45593999997E+02  0.45594000000E+02  0.51100000000E-03 0.  1.
    9900012    2    1    2    0    0 -0.87754666122E+01 -0.28477388064E+02  0.11346768892E+02  0.59301959019E+02  0.50000027340E+02 0.  0.
         12    1    1    2    0    0  0.87754666122E+01  0.28477388064E+02 -0.11346768892E+02  0.31886040981E+02  0.00000000000E+00 0. -1.
         11    1    3    3    0    0 -0.80952598018E+01  0.71412456494E+01  0.27335954871E+01  0.11135670848E+02  0.51100000000E-03 0. -1.
        -11    1    3    3    0    0 -0.50225051410E+01 -0.26566178844E+01 -0.89227962123E+01  0.10578254534E+02  0.51100000000E-03 0.  1.
         12    1    3    3    0    0  0.43422983305E+01 -0.32962015829E+02  0.17535969617E+02  0.37588033637E+02  0.00000000000E+00 0. -1.
</event>
<event>
 7    1  0.1205909E-011  0.5930195E+02  0.7816164E-02  0.1266605E+00
        -11   -1    0    0    0    0  0.00000000000E+00  0.00000000000E+00  0.45593999997E+02  0.45594000000E+02  0.51100000000E-03 0.  1.
         11   -1    0    0    0    0 -0.00000000000E+00 -0.00000000000E+00 -0.45593999997E+02  0.45594000000E+02  0.51100000000E-03 0. -1.
    9900012    2    1    2    0    0 -0.31204863397E+02  0.12633723023E+01 -0.64327657056E+01  0.59301951581E+02  0.50000013775E+02 0.  0.
         12    1    1    2    0    0  0.31204863397E+02 -0.12633723023E+01  0.64327657056E+01  0.31886048419E+02  0.00000000000E+00 0. -1.
         11    1    3    3    0    0 -0.24721250507E-01 -0.58231910003E+01  0.11873995836E+02  0.13225049789E+02  0.51100000000E-03 0. -1.
        -11    1    3    3    0    0 -0.17637507287E+02  0.17627563203E+02 -0.12953266743E+02  0.28099817924E+02  0.51100000000E-03 0.  1.
         12    1    3    3    0    0 -0.13542634859E+02 -0.10540999900E+02 -0.53534947984E+01  0.17977083868E+02  0.00000000000E+00 0. -1.
</event>
<event>
 7    1  0.1205909E-011  0.5930194E+02  0.7816164E-02  0.1266605E+00
        -11   -1    0    0    0    0  0.00000000000E+00  0.00000000000E+00  0.45593999997E+02  0.45594000000E+02  0.51100000000E-03 0.  1.
         11   -1    0    0    0    0 -0.00000000000E+00 -0.00000000000E+00 -0.45593999997E+02  0.45594000000E+02  0.51100000000E-03 0. -1.
    9900012    2    1    2    0    0 -0.14529986932E+02 -0.13158747359E+01  0.28352582364E+02  0.59301937633E+02  0.49999988337E+02 0.  0.
         12    1    1    2    0    0  0.14529986932E+02  0.13158747359E+01 -0.28352582364E+02  0.31886062367E+02  0.00000000000E+00 0. -1.
         11    1    3    3    0    0  0.11700809982E+02 -0.43581062693E+01  0.10799651089E+02  0.16508619216E+02  0.51100000000E-03 0. -1.
        -11    1    3    3    0    0 -0.21941251153E+02 -0.10646909407E+02  0.13551847959E+02  0.27900318376E+02  0.51100000000E-03 0.  1.
         12    1    3    3    0    0 -0.42895457607E+01  0.13689140941E+02  0.40010833158E+01  0.14893000041E+02  0.00000000000E+00 0. -1.
</event>
<event>
 7    1  0.1205909E-011  0.5930189E+02  0.7816164E-02  0.1266605E+00
        -11   -1    0    0    0    0  0.00000000000E+00  0.00000000000E+00  0.45593999997E+02  0.45594000000E+02  0.51100000000E-03 0. -1.
         11   -1    0    0    0    0 -0.00000000000E+00 -0.00000000000E+00 -0.45593999997E+02  0.45594000000E+02  0.51100000000E-03 0.  1.
    9900012    2    1    2    0    0 -0.19412994438E+02  0.19671904594E+02 -0.15902062046E+02  0.59301893924E+02  0.49999908623E+02 0.  0.
         12    1    1    2    0    0  0.19412994438E+02 -0.19671904594E+02  0.15902062046E+02  0.31886106076E+02  0.00000000000E+00 0. -1.
         11    1    3    3    0    0 -0.18376801617E+02  0.63369241675E+01 -0.29699801277E+01  0.19664288133E+02  0.51100000000E-03 0. -1.
        -11    1    3    3    0    0 -0.10071215716E+02 -0.90469586747E+00 -0.19156454779E+02  0.21661431637E+02  0.51100000000E-03 0.  1.
        -12    1    3    3    0    0  0.90350228952E+01  0.14239676294E+02  0.62243728612E+01  0.17976174153E+02  0.00000000000E+00 0.  1.
</event>
<event>
 7    1  0.1205909E-011  0.5930195E+02  0.7816164E-02  0.1266605E+00
        -11   -1    0    0    0    0  0.00000000000E+00  0.00000000000E+00  0.45593999997E+02  0.45594000000E+02  0.51100000000E-03 0.  1.
         11   -1    0    0    0    0 -0.00000000000E+00 -0.00000000000E+00 -0.45593999997E+02  0.45594000000E+02  0.51100000000E-03 0. -1.
    9900012    2    1    2    0    0 -0.20963289332E+02  0.22559534169E+02 -0.82660989902E+01  0.59301945462E+02  0.50000002615E+02 0.  0.
         12    1    1    2    0    0  0.20963289332E+02 -0.22559534169E+02  0.82660989902E+01  0.31886054538E+02  0.00000000000E+00 0. -1.
         11    1    3    3    0    0 -0.36948771810E+01  0.64388078646E+01 -0.43581049679E+01  0.86083356854E+01  0.51100000000E-03 0. -1.
        -11    1    3    3    0    0 -0.29299627715E+02  0.34959053730E+01 -0.11505259734E+02  0.31671131026E+02  0.51100000000E-03 0.  1.
         12    1    3    3    0    0  0.12031215565E+02  0.12624820931E+02  0.75972657122E+01  0.19022478750E+02  0.00000000000E+00 0. -1.
</event>
<event>
 7    1  0.1205909E-011  0.5930195E+02  0.7816164E-02  0.1266605E+00
        -11   -1    0    0    0    0  0.00000000000E+00  0.00000000000E+00  0.45593999997E+02  0.45594000000E+02  0.51100000000E-03 0.  1.
         11   -1    0    0    0    0 -0.00000000000E+00 -0.00000000000E+00 -0.45593999997E+02  0.45594000000E+02  0.51100000000E-03 0. -1.
    9900012    2    1    2    0    0 -0.14118251109E+02  0.20021948514E+02  0.20408736364E+02  0.59301953575E+02  0.50000017412E+02 0.  0.
         12    1    1    2    0    0  0.14118251109E+02 -0.20021948514E+02 -0.20408736364E+02  0.31886046425E+02  0.00000000000E+00 0. -1.
         11    1    3    3    0    0 -0.23779618048E+02  0.13307730962E+02  0.14744467202E+02  0.30983306008E+02  0.51100000000E-03 0. -1.
        -11    1    3    3    0    0 -0.50931326053E+00  0.93571271257E+01  0.12618450555E+02  0.15717522792E+02  0.51100000000E-03 0.  1.
         12    1    3    3    0    0  0.10170680200E+02 -0.26429095737E+01 -0.69541813934E+01  0.12601124775E+02  0.00000000000E+00 0. -1.
</event>
<event>
 7    1  0.1205909E-011  0.5930192E+02  0.7816164E-02  0.1266605E+00
        -11   -1    0    0    0    0  0.00000000000E+00  0.00000000000E+00  0.45593999997E+02  0.45594000000E+02  0.51100000000E-03 0. -1.
         11   -1    0    0    0    0 -0.00000000000E+00 -0.00000000000E+00 -0.45593999997E+02  0.45594000000E+02  0.51100000000E-03 0.  1.
    9900012    2    1    2    0    0 -0.25611427388E+02  0.18631545248E+02 -0.36935325894E+01  0.59301923506E+02  0.49999962574E+02 0.  0.
         12    1    1    2    0    0  0.25611427388E+02 -0.18631545248E+02  0.36935325894E+01  0.31886076494E+02  0.00000000000E+00 0. -1.
         11    1    3    3    0    0 -0.46406175094E+01  0.11944662645E+02 -0.47095705613E-01  0.12814543099E+02  0.51100000000E-03 0. -1.
        -11    1    3    3    0    0  0.42575692866E+00 -0.71684386250E+01 -0.16459228361E+02  0.17957560519E+02  0.51100000000E-03 0.  1.
         12    1    3    3    0    0 -0.21396566807E+02  0.13855321228E+02  0.12812791477E+02  0.28529819889E+02  0.00000000000E+00 0. -1.
</event>
<event>
 7    1  0.1205909E-011  0.5930194E+02  0.7816164E-02  0.1266605E+00
        -11   -1    0    0    0    0  0.00000000000E+00  0.00000000000E+00  0.45593999997E+02  0.45594000000E+02  0.51100000000E-03 0.  1.
         11   -1    0    0    0    0 -0.00000000000E+00 -0.00000000000E+00 -0.45593999997E+02  0.45594000000E+02  0.51100000000E-03 0. -1.
    9900012    2    1    2    0    0 -0.86547156269E+01 -0.11799838514E+02  0.28329853747E+02  0.59301938706E+02  0.49999990294E+02 0.  0.
         12    1    1    2    0    0  0.86547156269E+01  0.11799838514E+02 -0.28329853747E+02  0.31886061294E+02  0.00000000000E+00 0. -1.
         11    1    3    3    0    0 -0.88245687914E+01  0.10437662416E+02  0.16552652666E+01  0.13767996021E+02  0.51100000000E-03 0. -1.
        -11    1    3    3    0    0 -0.13531964361E+01 -0.97083896900E+01 -0.53107666897E+01  0.11148462408E+02  0.51100000000E-03 0.  1.
        -12    1    3    3    0    0  0.15230496005E+01 -0.12529111240E+02  0.31985355170E+02  0.34385480277E+02  0.00000000000E+00 0.  1.
</event>
<event>
 7    1  0.1205909E-011  0.5930194E+02  0.7816164E-02  0.1266605E+00
        -11   -1    0    0    0    0  0.00000000000E+00  0.00000000000E+00  0.45593999997E+02  0.45594000000E+02  0.51100000000E-03 0.  1.
         11   -1    0    0    0    0 -0.00000000000E+00 -0.00000000000E+00 -0.45593999997E+02  0.45594000000E+02  0.51100000000E-03 0. -1.
    9900012    2    1    2    0    0 -0.10238916440E+01 -0.19163504809E+02  0.25464338324E+02  0.59301940398E+02  0.49999993380E+02 0.  0.
         12    1    1    2    0    0  0.10238916440E+01  0.19163504809E+02 -0.25464338324E+02  0.31886059602E+02  0.00000000000E+00 0. -1.
         11    1    3    3    0    0 -0.38465466141E+01 -0.21527365121E+02  0.52882823814E+01  0.22498651087E+02  0.51100000000E-03 0. -1.
        -11    1    3    3    0    0 -0.13212020438E+02  0.40749215274E+01  0.51266427047E+01  0.14746014214E+02  0.51100000000E-03 0.  1.
        -12    1    3    3    0    0  0.16034675408E+02 -0.17110612153E+01  0.15049413238E+02  0.22057275097E+02  0.00000000000E+00 0.  1.
</event>
<event>
 7    1  0.1205909E-011  0.5930193E+02  0.7816164E-02  0.1266605E+00
        -11   -1    0    0    0    0  0.00000000000E+00  0.00000000000E+00  0.45593999997E+02  0.45594000000E+02  0.51100000000E-03 0. -1.
         11   -1    0    0    0    0 -0.00000000000E+00 -0.00000000000E+00 -0.45593999997E+02  0.45594000000E+02  0.51100000000E-03 0.  1.
    9900012    2    1    2    0    0 -0.79674175519E+01 -0.28207713207E+02 -0.12552551928E+02  0.59301931150E+02  0.49999976513E+02 0.  0.
         12    1    1    2    0    0  0.79674175519E+01  0.28207713207E+02  0.12552551928E+02  0.31886068850E+02  0.00000000000E+00 0. -1.
         11    1    3    3    0    0  0.57160742043E+01 -0.41225413406E+01  0.85733486706E+01  0.11098250272E+02  0.51100000000E-03 0. -1.
        -11    1    3    3    0    0 -0.18496368608E+02  0.18766959139E+00 -0.75495010084E+01  0.19978634520E+02  0.51100000000E-03 0.  1.
        -12    1    3    3    0    0  0.48128768516E+01 -0.24272841458E+02 -0.13576399590E+02  0.28225046357E+02  0.00000000000E+00 0.  1.
</event>
<event>
 7    1  0.1205909E-011  0.5930194E+02  0.7816164E-02  0.1266605E+00
        -11   -1    0    0    0    0  0.00000000000E+00  0.00000000000E+00  0.45593999997E+02  0.45594000000E+02  0.51100000000E-03 0.  1.
         11   -1    0    0    0    0 -0.00000000000E+00 -0.00000000000E+00 -0.45593999997E+02  0.45594000000E+02  0.51100000000E-03 0. -1.
    9900012    2    1    2    0    0 -0.18837587891E+02  0.22498423209E+02  0.12477467545E+02  0.59301937829E+02  0.49999988695E+02 0.  0.
         12    1    1    2    0    0  0.18837587891E+02 -0.22498423209E+02 -0.12477467545E+02  0.31886062171E+02  0.00000000000E+00 0. -1.
         11    1    3    3    0    0 -0.12171307988E+01  0.13327359784E+02 -0.13277129162E+02  0.18851580444E+02  0.51100000000E-03 0. -1.
        -11    1    3    3    0    0 -0.10100666495E+02 -0.43596054568E+01  0.73079718865E+00  0.11025592418E+02  0.51100000000E-03 0.  1.
         12    1    3    3    0    0 -0.75197905971E+01  0.13530668882E+02  0.25023799518E+02  0.29424764967E+02  0.00000000000E+00 0. -1.
</event>
<event>
 7    1  0.1205909E-011  0.5930191E+02  0.7816164E-02  0.1266605E+00
        -11   -1    0    0    0    0  0.00000000000E+00  0.00000000000E+00  0.45593999997E+02  0.45594000000E+02  0.51100000000E-03 0.  1.
         11   -1    0    0    0    0 -0.00000000000E+00 -0.00000000000E+00 -0.45593999997E+02  0.45594000000E+02  0.51100000000E-03 0. -1.
    9900012    2    1    2    0    0  0.27651445315E+02 -0.90512910031E+01  0.13045855593E+02  0.59301911419E+02  0.49999940530E+02 0.  0.
         12    1    1    2    0    0 -0.27651445315E+02  0.90512910031E+01 -0.13045855593E+02  0.31886088581E+02  0.00000000000E+00 0. -1.
         11    1    3    3    0    0  0.79946813481E+01 -0.12433787472E+02 -0.96684030563E+00  0.14813803738E+02  0.51100000000E-03 0. -1.
        -11    1    3    3    0    0  0.55805560917E+01  0.12464960952E+02  0.22027313740E+02  0.25917569498E+02  0.51100000000E-03 0.  1.
         12    1    3    3    0    0  0.14076207876E+02 -0.90824644830E+01 -0.80146178417E+01  0.18570538183E+02  0.00000000000E+00 0. -1.
</event>
<event>
 7    1  0.1205909E-011  0.5930193E+02  0.7816164E-02  0.1266605E+00
        -11   -1    0    0    0    0  0.00000000000E+00  0.00000000000E+00  0.45593999997E+02  0.45594000000E+02  0.51100000000E-03 0.  1.
         11   -1    0    0    0    0 -0.00000000000E+00 -0.00000000000E+00 -0.45593999997E+02  0.45594000000E+02  0.51100000000E-03 0. -1.
    9900012    2    1    2    0    0  0.29055126997E+01 -0.31540440338E+02  0.36714960297E+01  0.59301933076E+02  0.49999980026E+02 0.  0.
         12    1    1    2    0    0 -0.29055126997E+01  0.31540440338E+02 -0.36714960297E+01  0.31886066924E+02  0.00000000000E+00 0. -1.
         11    1    3    3    0    0  0.52256239586E+01  0.63316830767E+01 -0.39520386976E+01  0.91113098108E+01  0.51100000000E-03 0. -1.
        -11    1    3    3    0    0  0.18182294048E+01  0.47362323598E+01  0.52730330820E+01  0.73172900230E+01  0.51100000000E-03 0.  1.
        -12    1    3    3    0    0 -0.41383406637E+01 -0.42608355775E+02  0.23505016453E+01  0.42873333242E+02  0.00000000000E+00 0.  1.
</event>
<event>
 7    1  0.1205909E-011  0.5930195E+02  0.7816164E-02  0.1266605E+00
        -11   -1    0    0    0    0  0.00000000000E+00  0.00000000000E+00  0.45593999997E+02  0.45594000000E+02  0.51100000000E-03 0.  1.
         11   -1    0    0    0    0 -0.00000000000E+00 -0.00000000000E+00 -0.45593999997E+02  0.45594000000E+02  0.51100000000E-03 0. -1.
    9900012    2    1    2    0    0  0.21902089280E+02  0.17425593753E+02  0.15276365875E+02  0.59301949966E+02  0.50000010829E+02 0.  0.
         12    1    1    2    0    0 -0.21902089280E+02 -0.17425593753E+02 -0.15276365875E+02  0.31886050034E+02  0.00000000000E+00 0. -1.
         11    1    3    3    0    0 -0.42902035240E+01 -0.42804116311E+01  0.53759804920E+01  0.81011688367E+01  0.51100000000E-03 0. -1.
        -11    1    3    3    0    0  0.20132348134E+01 -0.45870675532E+01  0.14354677157E+02  0.15203652841E+02  0.51100000000E-03 0.  1.
         12    1    3    3    0    0  0.24179057990E+02  0.26293072937E+02 -0.44542917748E+01  0.35997128288E+02  0.00000000000E+00 0. -1.
</event>
<event>
 7    1  0.1205909E-011  0.5930193E+02  0.7816164E-02  0.1266605E+00
        -11   -1    0    0    0    0  0.00000000000E+00  0.00000000000E+00  0.45593999997E+02  0.45594000000E+02  0.51100000000E-03 0.  1.
         11   -1    0    0    0    0 -0.00000000000E+00 -0.00000000000E+00 -0.45593999997E+02  0.45594000000E+02  0.51100000000E-03 0. -1.
    9900012    2    1    2    0    0  0.10138421625E+02  0.37447989354E+00  0.30229014492E+02  0.59301934934E+02  0.49999983416E+02 0.  0.
         12    1    1    2    0    0 -0.10138421625E+02 -0.37447989354E+00 -0.30229014492E+02  0.31886065066E+02  0.00000000000E+00 0. -1.
         11    1    3    3    0    0 -0.58994380739E+01  0.65834483850E+01 -0.88397975642E+01  0.12501487250E+02  0.51100000000E-03 0. -1.
        -11    1    3    3    0    0  0.81445248289E+01 -0.11806888182E+02  0.14505088781E+02  0.20399350334E+02  0.51100000000E-03 0.  1.
        -12    1    3    3    0    0  0.78933348696E+01  0.55979196901E+01  0.24563723274E+02  0.26401097351E+02  0.00000000000E+00 0.  1.
</event>
<event>
 7    1  0.1205909E-011  0.5930191E+02  0.7816164E-02  0.1266605E+00
        -11   -1    0    0    0    0  0.00000000000E+00  0.00000000000E+00  0.45593999997E+02  0.45594000000E+02  0.51100000000E-03 0.  1.
         11   -1    0    0    0    0 -0.00000000000E+00 -0.00000000000E+00 -0.45593999997E+02  0.45594000000E+02  0.51100000000E-03 0. -1.
    9900012    2    1    2    0    0 -0.78043469944E+01 -0.28235490555E+02  0.12592534420E+02  0.59301910838E+02  0.49999939470E+02 0.  0.
         12    1    1    2    0    0  0.78043469944E+01  0.28235490555E+02 -0.12592534420E+02  0.31886089162E+02  0.00000000000E+00 0. -1.
         11    1    3    3    0    0  0.62164469475E+01 -0.24379929401E+02  0.15704438557E+01  0.25208956036E+02  0.51100000000E-03 0. -1.
        -11    1    3    3    0    0 -0.42775108672E+01 -0.97535806902E+01 -0.70206705251E+01  0.12756145593E+02  0.51100000000E-03 0.  1.
        -12    1    3    3    0    0 -0.97432830747E+01  0.58980195361E+01  0.18042761089E+02  0.21336809209E+02  0.00000000000E+00 0.  1.
</event>
<event>
 7    1  0.1205909E-011  0.5930195E+02  0.7816164E-02  0.1266605E+00
        -11   -1    0    0    0    0  0.00000000000E+00  0.00000000000E+00  0.45593999997E+02  0.45594000000E+02  0.51100000000E-03 0.  1.
         11   -1    0    0    0    0 -0.00000000000E+00 -0.00000000000E+00 -0.45593999997E+02  0.45594000000E+02  0.51100000000E-03 0. -1.
    9900012    2    1    2    0    0  0.24568228276E+02 -0.18566429306E+02 -0.82710330943E+01  0.59301950915E+02  0.50000012561E+02 0.  0.
         12    1    1    2    0    0 -0.24568228276E+02  0.18566429306E+02  0.82710330943E+01  0.31886049085E+02  0.00000000000E+00 0. -1.
         11    1    3    3    0    0 -0.68585100178E+01 -0.43440234748E+01  0.43152166766E+01  0.91940630214E+01  0.51100000000E-03 0. -1.
        -11    1    3    3    0    0  0.22653470999E+02 -0.24182886052E+02 -0.21185311892E+01  0.33203612767E+02  0.51100000000E-03 0.  1.
         12    1    3    3    0    0  0.87732672949E+01  0.99604802208E+01 -0.10467718582E+02  0.16904275127E+02  0.00000000000E+00 0. -1.
</event>
<event>
 7    1  0.1205909E-011  0.5930190E+02  0.7816164E-02  0.1266605E+00
        -11   -1    0    0    0    0  0.00000000000E+00  0.00000000000E+00  0.45593999997E+02  0.45594000000E+02  0.51100000000E-03 0. -1.
         11   -1    0    0    0    0 -0.00000000000E+00 -0.00000000000E+00 -0.45593999997E+02  0.45594000000E+02  0.51100000000E-03 0.  1.
    9900012    2    1    2    0    0  0.26839526493E+01  0.18545480446E+02 -0.25798934373E+02  0.59301898615E+02  0.49999917178E+02 0.  0.
         12    1    1    2    0    0 -0.26839526493E+01 -0.18545480446E+02  0.25798934373E+02  0.31886101385E+02  0.00000000000E+00 0. -1.
         11    1    3    3    0    0  0.63110466082E+01  0.22332422125E+02 -0.11097425003E+02  0.25723903848E+02  0.51100000000E-03 0. -1.
        -11    1    3    3    0    0 -0.50713786451E+00  0.12802081896E+02 -0.33717053133E+01  0.13248354112E+02  0.51100000000E-03 0.  1.
         12    1    3    3    0    0 -0.31199560943E+01 -0.16589023575E+02 -0.11329804056E+02  0.20329640655E+02  0.00000000000E+00 0. -1.
</event>
<event>
 7    1  0.1205909E-011  0.5930195E+02  0.7816164E-02  0.1266605E+00
        -11   -1    0    0    0    0  0.00000000000E+00  0.00000000000E+00  0.45593999997E+02  0.45594000000E+02  0.51100000000E-03 0. -1.
         11   -1    0    0    0    0 -0.00000000000E+00 -0.00000000000E+00 -0.45593999997E+02  0.45594000000E+02  0.51100000000E-03 0.  1.
    9900012    2    1    2    0    0  0.16997493023E+02 -0.98765727026E+01 -0.25104949087E+02  0.59301954054E+02  0.50000018286E+02 0.  0.
         12    1    1    2    0    0 -0.16997493023E+02  0.98765727026E+01  0.25104949087E+02  0.31886045946E+02  0.00000000000E+00 0. -1.
         11    1    3    3    0    0 -0.59640111206E+01 -0.12690637488E+02 -0.75900036121E+01  0.15944587282E+02  0.51100000000E-03 0. -1.
        -11    1    3    3    0    0  0.91263956710E+01 -0.69350630480E+01  0.71014332037E+01  0.13483936785E+02  0.51100000000E-03 0.  1.
        -12    1    3    3    0    0  0.13835108473E+02  0.97491278330E+01 -0.24616378678E+02  0.29873429987E+02  0.00000000000E+00 0.  1.
</event>
<event>
 7    1  0.1205909E-011  0.5930193E+02  0.7816164E-02  0.1266605E+00
        -11   -1    0    0    0    0  0.00000000000E+00  0.00000000000E+00  0.45593999997E+02  0.45594000000E+02  0.51100000000E-03 0.  1.
         11   -1    0    0    0    0 -0.00000000000E+00 -0.00000000000E+00 -0.45593999997E+02  0.45594000000E+02  0.51100000000E-03 0. -1.
    9900012    2    1    2    0    0  0.85053503344E-01  0.96283733631E+01  0.30397515687E+02  0.59301925176E+02  0.49999965620E+02 0.  0.
         12    1    1    2    0    0 -0.85053503344E-01 -0.96283733631E+01 -0.30397515687E+02  0.31886074824E+02  0.00000000000E+00 0. -1.
         11    1    3    3    0    0  0.61554157970E+01 -0.11243311502E+01 -0.30558618149E+01  0.69635878584E+01  0.51100000000E-03 0. -1.
        -11    1    3    3    0    0  0.20796080042E+01  0.50968082148E+01 -0.80019713205E+01  0.97125572690E+01  0.51100000000E-03 0.  1.
        -12    1    3    3    0    0 -0.81499702978E+01  0.56558962985E+01  0.41455348822E+02  0.42625780049E+02  0.00000000000E+00 0.  1.
</event>
<event>
 7    1  0.1205909E-011  0.5930194E+02  0.7816164E-02  0.1266605E+00
        -11   -1    0    0    0    0  0.00000000000E+00  0.00000000000E+00  0.45593999997E+02  0.45594000000E+02  0.51100000000E-03 0. -1.
         11   -1    0    0    0    0 -0.00000000000E+00 -0.00000000000E+00 -0.45593999997E+02  0.45594000000E+02  0.51100000000E-03 0.  1.
    9900012    2    1    2    0    0  0.27559771006E+02 -0.57451731748E+01 -0.14972399183E+02  0.59301941448E+02  0.49999995294E+02 0.  0.
         12    1    1    2    0    0 -0.27559771006E+02  0.57451731748E+01  0.14972399183E+02  0.31886058552E+02  0.00000000000E+00 0. -1.
         11    1    3    3    0    0  0.56504237231E+01  0.58140359221E+01  0.29420558398E+01  0.86247315773E+01  0.51100000000E-03 0. -1.
        -11    1    3    3    0    0  0.29004567129E+02 -0.10821417940E+02 -0.25614647982E+02  0.40180569833E+02  0.51100000000E-03 0.  1.
         12    1    3    3    0    0 -0.70952198466E+01 -0.73779115649E+00  0.77001929591E+01  0.10496640037E+02  0.00000000000E+00 0. -1.
</event>
<event>
 7    1  0.1205909E-011  0.5930194E+02  0.7816164E-02  0.1266605E+00
        -11   -1    0    0    0    0  0.00000000000E+00  0.00000000000E+00  0.45593999997E+02  0.45594000000E+02  0.51100000000E-03 0. -1.
         11   -1    0    0    0    0 -0.00000000000E+00 -0.00000000000E+00 -0.45593999997E+02  0.45594000000E+02  0.51100000000E-03 0.  1.
    9900012    2    1    2    0    0 -0.35107519366E+01 -0.43516454593E+01 -0.31392011417E+02  0.59301943828E+02  0.49999999636E+02 0.  0.
         12    1    1    2    0    0  0.35107519366E+01  0.43516454593E+01  0.31392011417E+02  0.31886056172E+02  0.00000000000E+00 0. -1.
         11    1    3    3    0    0  0.13834719071E+02  0.79290321240E+01  0.26069716910E+01  0.16157515398E+02  0.51100000000E-03 0. -1.
        -11    1    3    3    0    0 -0.21552799762E+01 -0.46758317868E+01 -0.12188351934E-01  0.51486681279E+01  0.51100000000E-03 0.  1.
        -12    1    3    3    0    0 -0.15190191031E+02 -0.76048457966E+01 -0.33986794756E+02  0.37995760302E+02  0.00000000000E+00 0.  1.
</event>
<event>
 7    1  0.1205909E-011  0.5930194E+02  0.7816164E-02  0.1266605E+00
        -11   -1    0    0    0    0  0.00000000000E+00  0.00000000000E+00  0.45593999997E+02  0.45594000000E+02  0.51100000000E-03 0. -1.
         11   -1    0    0    0    0 -0.00000000000E+00 -0.00000000000E+00 -0.45593999997E+02  0.45594000000E+02  0.51100000000E-03 0.  1.
    9900012    2    1    2    0    0 -0.85706088202E+01  0.14017605051E+02 -0.27327135172E+02  0.59301938726E+02  0.49999990330E+02 0.  0.
         12    1    1    2    0    0  0.85706088202E+01 -0.14017605051E+02  0.27327135172E+02  0.31886061274E+02  0.00000000000E+00 0. -1.
         11    1    3    3    0    0  0.50688560165E+01  0.78666717898E+01  0.42999270773E+01  0.10298893120E+02  0.51100000000E-03 0. -1.
        -11    1    3    3    0    0 -0.24876794724E+02  0.17462756143E+01 -0.17741323464E+02  0.30604884459E+02  0.51100000000E-03 0.  1.
         12    1    3    3    0    0  0.11237329887E+02  0.44046576466E+01 -0.13885738785E+02  0.18398161147E+02  0.00000000000E+00 0. -1.
</event>
<event>
 7    1  0.1205909E-011  0.5930192E+02  0.7816164E-02  0.1266605E+00
        -11   -1    0    0    0    0  0.00000000000E+00  0.00000000000E+00  0.45593999997E+02  0.45594000000E+02  0.51100000000E-03 0. -1.
         11   -1    0    0    0    0 -0.00000000000E+00 -0.00000000000E+00 -0.45593999997E+02  0.45594000000E+02  0.51100000000E-03 0.  1.
    9900012    2    1    2    0    0 -0.11444011023E+02 -0.28637753843E+02  0.81015837551E+01  0.59301921646E+02  0.49999959181E+02 0.  0.
         12    1    1    2    0    0  0.11444011023E+02  0.28637753843E+02 -0.81015837551E+01  0.31886078354E+02  0.00000000000E+00 0. -1.
         11    1    3    3    0    0 -0.64584910814E+01  0.55794937432E+01  0.11581333362E+02  0.14386456832E+02  0.51100000000E-03 0. -1.
        -11    1    3    3    0    0 -0.63902718126E+01 -0.20005842728E+02 -0.15618650623E+02  0.26172725587E+02  0.51100000000E-03 0.  1.
         12    1    3    3    0    0  0.14047518708E+01 -0.14211404858E+02  0.12138901016E+02  0.18742739227E+02  0.00000000000E+00 0. -1.
</event>
<event>
 7    1  0.1205909E-011  0.5930195E+02  0.7816164E-02  0.1266605E+00
        -11   -1    0    0    0    0  0.00000000000E+00  0.00000000000E+00  0.45593999997E+02  0.45594000000E+02  0.51100000000E-03 0.  1.
         11   -1    0    0    0    0 -0.00000000000E+00 -0.00000000000E+00 -0.45593999997E+02  0.45594000000E+02  0.51100000000E-03 0. -1.
    9900012    2    1    2    0    0 -0.29119208669E+02 -0.51046325558E+01 -0.11947152407E+02  0.59301952305E+02  0.50000015095E+02 0.  0.
         12    1    1    2    0    0  0.29119208669E+02  0.51046325558E+01  0.11947152407E+02  0.31886047695E+02  0.00000000000E+00 0. -1.
         11    1    3    3    0    0 -0.72213447595E+01 -0.20343650838E+02 -0.27125595653E+01  0.21757066190E+02  0.51100000000E-03 0. -1.
        -11    1    3    3    0    0 -0.25901316702E+02  0.88881678776E+01 -0.11503701138E+02  0.29702068535E+02  0.51100000000E-03 0.  1.
        -12    1    3    3    0    0  0.40034527926E+01  0.63508504047E+01  0.22691082967E+01  0.78428175796E+01  0.00000000000E+00 0.  1.
</event>
<event>
 7    1  0.1205909E-011  0.5930198E+02  0.7816164E-02  0.1266605E+00
        -11   -1    0    0    0    0  0.00000000000E+00  0.00000000000E+00  0.45593999997E+02  0.45594000000E+02  0.51100000000E-03 0.  1.
         11   -1    0    0    0    0 -0.00000000000E+00 -0.00000000000E+00 -0.45593999997E+02  0.45594000000E+02  0.51100000000E-03 0. -1.
    9900012    2    1    2    0    0  0.16387590436E+01  0.24475350704E+02  0.20371295208E+02  0.59301984386E+02  0.50000073604E+02 0.  0.
         12    1    1    2    0    0 -0.16387590436E+01 -0.24475350704E+02 -0.20371295208E+02  0.31886015614E+02  0.00000000000E+00 0. -1.
         11    1    3    3    0    0  0.28086705155E+01  0.76706202129E+01  0.65092488557E+01  0.10444968427E+02  0.51100000000E-03 0.  1.
        -11    1    3    3    0    0  0.20341777512E+02  0.20076258415E+01  0.33619126494E+01  0.20715234268E+02  0.51100000000E-03 0. -1.
        -12    1    3    3    0    0 -0.21511688984E+02  0.14797104650E+02  0.10500133703E+02  0.28141781691E+02  0.00000000000E+00 0.  1.
</event>
<event>
 7    1  0.1205909E-011  0.5930191E+02  0.7816164E-02  0.1266605E+00
        -11   -1    0    0    0    0  0.00000000000E+00  0.00000000000E+00  0.45593999997E+02  0.45594000000E+02  0.51100000000E-03 0.  1.
         11   -1    0    0    0    0 -0.00000000000E+00 -0.00000000000E+00 -0.45593999997E+02  0.45594000000E+02  0.51100000000E-03 0. -1.
    9900012    2    1    2    0    0 -0.11634468338E+01 -0.18528323221E+02  0.25924317709E+02  0.59301911833E+02  0.49999941284E+02 0.  0.
         12    1    1    2    0    0  0.11634468338E+01  0.18528323221E+02 -0.25924317709E+02  0.31886088167E+02  0.00000000000E+00 0. -1.
         11    1    3    3    0    0  0.86516303097E+01 -0.20699031664E+02  0.12292787879E+02  0.25581502164E+02  0.51100000000E-03 0. -1.
        -11    1    3    3    0    0  0.81087547640E+01  0.27188155477E-01  0.13405832022E+02  0.15667449552E+02  0.51100000000E-03 0.  1.
         12    1    3    3    0    0 -0.17923831907E+02  0.21435202881E+01  0.22569780827E+00  0.18052960117E+02  0.00000000000E+00 0. -1.
</event>
<event>
 7    1  0.1205909E-011  0.5930198E+02  0.7816164E-02  0.1266605E+00
        -11   -1    0    0    0    0  0.00000000000E+00  0.00000000000E+00  0.45593999997E+02  0.45594000000E+02  0.51100000000E-03 0.  1.
         11   -1    0    0    0    0 -0.00000000000E+00 -0.00000000000E+00 -0.45593999997E+02  0.45594000000E+02  0.51100000000E-03 0. -1.
    9900012    2    1    2    0    0 -0.23880480463E+02  0.21076848182E+02 -0.14856504039E+01  0.59301983730E+02  0.50000072407E+02 0.  0.
         12    1    1    2    0    0  0.23880480463E+02 -0.21076848182E+02  0.14856504039E+01  0.31886016270E+02  0.00000000000E+00 0. -1.
         11    1    3    3    0    0  0.59613535831E+01  0.13904370599E+02 -0.67785929645E+01  0.16577653065E+02  0.51100000000E-03 0. -1.
        -11    1    3    3    0    0 -0.58691085884E+01  0.26114418850E+01 -0.11450793576E+02  0.13129613023E+02  0.51100000000E-03 0.  1.
         12    1    3    3    0    0 -0.23972725458E+02  0.45610356978E+01  0.16743736137E+02  0.29594717642E+02  0.00000000000E+00 0. -1.
</event>
<event>
 7    1  0.1205909E-011  0.5930197E+02  0.7816164E-02  0.1266605E+00
        -11   -1    0    0    0    0  0.00000000000E+00  0.00000000000E+00  0.45593999997E+02  0.45594000000E+02  0.51100000000E-03 0.  1.
         11   -1    0    0    0    0 -0.00000000000E+00 -0.00000000000E+00 -0.45593999997E+02  0.45594000000E+02  0.51100000000E-03 0. -1.
    9900012    2    1    2    0    0  0.13574119023E+02 -0.26498944190E+02  0.11413520117E+02  0.59301965567E+02  0.50000039282E+02 0.  0.
         12    1    1    2    0    0 -0.13574119023E+02  0.26498944190E+02 -0.11413520117E+02  0.31886034433E+02  0.00000000000E+00 0. -1.
         11    1    3    3    0    0 -0.35270503611E+01 -0.49646964799E+01 -0.12455254246E+02  0.13864402403E+02  0.51100000000E-03 0. -1.
        -11    1    3    3    0    0  0.83283180210E+01 -0.38471213485E+01 -0.50116614996E+01  0.10453610619E+02  0.51100000000E-03 0.  1.
        -12    1    3    3    0    0  0.87728513633E+01 -0.17687126361E+02  0.28880435864E+02  0.34983952544E+02  0.00000000000E+00 0.  1.
</event>
<event>
 7    1  0.1205909E-011  0.5930191E+02  0.7816164E-02  0.1266605E+00
        -11   -1    0    0    0    0  0.00000000000E+00  0.00000000000E+00  0.45593999997E+02  0.45594000000E+02  0.51100000000E-03 0.  1.
         11   -1    0    0    0    0 -0.00000000000E+00 -0.00000000000E+00 -0.45593999997E+02  0.45594000000E+02  0.51100000000E-03 0. -1.
    9900012    2    1    2    0    0 -0.15860265745E+02  0.24558706029E+00  0.27660699138E+02  0.59301911822E+02  0.49999941264E+02 0.  0.
         12    1    1    2    0    0  0.15860265745E+02 -0.24558706029E+00 -0.27660699138E+02  0.31886088178E+02  0.00000000000E+00 0. -1.
         11    1    3    3    0    0 -0.12826055664E+02  0.11487907027E+02  0.11397142197E+02  0.20648839248E+02  0.51100000000E-03 0. -1.
        -11    1    3    3    0    0 -0.17551338410E+02 -0.98717538106E+01  0.12082611314E+02  0.23483834860E+02  0.51100000000E-03 0.  1.
         12    1    3    3    0    0  0.14517128329E+02 -0.13705661558E+01  0.41809456261E+01  0.15169237715E+02  0.00000000000E+00 0. -1.
</event>
<event>
 7    1  0.1205909E-011  0.5930195E+02  0.7816164E-02  0.1266605E+00
        -11   -1    0    0    0    0  0.00000000000E+00  0.00000000000E+00  0.45593999997E+02  0.45594000000E+02  0.51100000000E-03 0.  1.
         11   -1    0    0    0    0 -0.00000000000E+00 -0.00000000000E+00 -0.45593999997E+02  0.45594000000E+02  0.51100000000E-03 0. -1.
    9900012    2    1    2    0    0  0.23213366559E+02  0.11595933936E+01  0.21829220596E+02  0.59301954217E+02  0.50000018584E+02 0.  0.
         12    1    1    2    0    0 -0.23213366559E+02 -0.11595933936E+01 -0.21829220596E+02  0.31886045783E+02  0.00000000000E+00 0. -1.
         11    1    3    3    0    0 -0.37233301519E+01  0.17079366394E+02  0.11763305853E+02  0.21069962237E+02  0.51100000000E-03 0. -1.
        -11    1    3    3    0    0  0.38431466550E+01 -0.38444115781E+01  0.10876584053E+02  0.12159332116E+02  0.51100000000E-03 0.  1.
         12    1    3    3    0    0  0.23093550056E+02 -0.12075361422E+02 -0.81066931041E+00  0.26072659864E+02  0.00000000000E+00 0. -1.
</event>
<event>
 7    1  0.1205909E-011  0.5930194E+02  0.7816164E-02  0.1266605E+00
        -11   -1    0    0    0    0  0.00000000000E+00  0.00000000000E+00  0.45593999997E+02  0.45594000000E+02  0.51100000000E-03 0.  1.
         11   -1    0    0    0    0 -0.00000000000E+00 -0.00000000000E+00 -0.45593999997E+02  0.45594000000E+02  0.51100000000E-03 0. -1.
    9900012    2    1    2    0    0  0.16100358108E+02  0.23797841058E+01  0.27419628760E+02  0.59301938078E+02  0.49999989148E+02 0.  0.
         12    1    1    2    0    0 -0.16100358108E+02 -0.23797841058E+01 -0.27419628760E+02  0.31886061922E+02  0.00000000000E+00 0. -1.
         11    1    3    3    0    0  0.56530610636E+01 -0.95503202479E+01  0.18719427417E+01  0.11254771704E+02  0.51100000000E-03 0. -1.
        -11    1    3    3    0    0  0.77554702715E+01 -0.46794456826E+00  0.32612908590E+02  0.33525633450E+02  0.51100000000E-03 0.  1.
        -12    1    3    3    0    0  0.26918267731E+01  0.12398048922E+02 -0.70652225722E+01  0.14521532923E+02  0.00000000000E+00 0.  1.
</event>
<event>
 7    1  0.1205909E-011  0.5930194E+02  0.7816164E-02  0.1266605E+00
        -11   -1    0    0    0    0  0.00000000000E+00  0.00000000000E+00  0.45593999997E+02  0.45594000000E+02  0.51100000000E-03 0.  1.
         11   -1    0    0    0    0 -0.00000000000E+00 -0.00000000000E+00 -0.45593999997E+02  0.45594000000E+02  0.51100000000E-03 0. -1.
    9900012    2    1    2    0    0 -0.28263456522E+02  0.14658588473E+02  0.17388605627E+01  0.59301939932E+02  0.49999992530E+02 0.  0.
         12    1    1    2    0    0  0.28263456522E+02 -0.14658588473E+02 -0.17388605627E+01  0.31886060068E+02  0.00000000000E+00 0. -1.
         11    1    3    3    0    0 -0.19138576111E+02 -0.63951383197E+01 -0.17701101912E+02  0.26842352707E+02  0.51100000000E-03 0. -1.
        -11    1    3    3    0    0  0.13196000404E+01 -0.15440017086E+00  0.40219561020E+01  0.42357189268E+01  0.51100000000E-03 0.  1.
        -12    1    3    3    0    0 -0.10444480452E+02  0.21208126964E+02  0.15418006373E+02  0.28223868299E+02  0.00000000000E+00 0.  1.
</event>
<event>
 7    1  0.1205909E-011  0.5930194E+02  0.7816164E-02  0.1266605E+00
        -11   -1    0    0    0    0  0.00000000000E+00  0.00000000000E+00  0.45593999997E+02  0.45594000000E+02  0.51100000000E-03 0. -1.
         11   -1    0    0    0    0 -0.00000000000E+00 -0.00000000000E+00 -0.45593999997E+02  0.45594000000E+02  0.51100000000E-03 0.  1.
    9900012    2    1    2    0    0 -0.10938224251E+02  0.28711308198E+00 -0.29949856136E+02  0.59301936175E+02  0.49999985678E+02 0.  0.
         12    1    1    2    0    0  0.10938224251E+02 -0.28711308198E+00  0.29949856136E+02  0.31886063825E+02  0.00000000000E+00 0. -1.
         11    1    3    3    0    0 -0.56347247797E+01 -0.23422588119E+01  0.19684039801E+01  0.64117793298E+01  0.51100000000E-03 0. -1.
        -11    1    3    3    0    0 -0.23560647461E+02 -0.57308102970E+00 -0.16349337173E+02  0.28683328902E+02  0.51100000000E-03 0.  1.
        -12    1    3    3    0    0  0.18257147989E+02  0.32024529236E+01 -0.15568922944E+02  0.24206827943E+02  0.00000000000E+00 0.  1.
</event>
<event>
 7    1  0.1205909E-011  0.5930202E+02  0.7816164E-02  0.1266605E+00
        -11   -1    0    0    0    0  0.00000000000E+00  0.00000000000E+00  0.45593999997E+02  0.45594000000E+02  0.51100000000E-03 0. -1.
         11   -1    0    0    0    0 -0.00000000000E+00 -0.00000000000E+00 -0.45593999997E+02  0.45594000000E+02  0.51100000000E-03 0.  1.
    9900012    2    1    2    0    0  0.35447708122E+00  0.22788391380E+02  0.22299765578E+02  0.59302015923E+02  0.50000131120E+02 0.  0.
         12    1    1    2    0    0 -0.35447708122E+00 -0.22788391380E+02 -0.22299765578E+02  0.31885984077E+02  0.00000000000E+00 0. -1.
         11    1    3    3    0    0 -0.72894135123E+01 -0.59106968680E+01  0.57485671864E+01  0.11005358321E+02  0.51100000000E-03 0. -1.
        -11    1    3    3    0    0  0.18637993589E+02  0.59879886817E+01  0.11021526042E+02  0.22465637094E+02  0.51100000000E-03 0.  1.
         12    1    3    3    0    0 -0.10994102996E+02  0.22711099566E+02  0.55296723498E+01  0.25831020508E+02  0.00000000000E+00 0. -1.
</event>
<event>
 7    1  0.1205909E-011  0.5930195E+02  0.7816164E-02  0.1266605E+00
        -11   -1    0    0    0    0  0.00000000000E+00  0.00000000000E+00  0.45593999997E+02  0.45594000000E+02  0.51100000000E-03 0. -1.
         11   -1    0    0    0    0 -0.00000000000E+00 -0.00000000000E+00 -0.45593999997E+02  0.45594000000E+02  0.51100000000E-03 0.  1.
    9900012    2    1    2    0    0 -0.21459887902E+02 -0.20717430117E+02  0.11268611963E+02  0.59301947955E+02  0.50000007163E+02 0.  0.
         12    1    1    2    0    0  0.21459887902E+02  0.20717430117E+02 -0.11268611963E+02  0.31886052045E+02  0.00000000000E+00 0. -1.
         11    1    3    3    0    0 -0.25980006058E+01  0.22638654190E+01 -0.89001409004E+01  0.95439615513E+01  0.51100000000E-03 0. -1.
        -11    1    3    3    0    0  0.10960457805E+01 -0.18205517482E+02 -0.33513672432E+01  0.18543835790E+02  0.51100000000E-03 0.  1.
         12    1    3    3    0    0 -0.19957933077E+02 -0.47757780536E+01  0.23520120107E+02  0.31214150614E+02  0.00000000000E+00 0. -1.
</event>
<event>
 7    1  0.1205909E-011  0.5930200E+02  0.7816164E-02  0.1266605E+00
        -11   -1    0    0    0    0  0.00000000000E+00  0.00000000000E+00  0.45593999997E+02  0.45594000000E+02  0.51100000000E-03 0.  1.
         11   -1    0    0    0    0 -0.00000000000E+00 -0.00000000000E+00 -0.45593999997E+02  0.45594000000E+02  0.51100000000E-03 0. -1.
    9900012    2    1    2    0    0 -0.15859254413E+02  0.15401828311E+02  0.22977923330E+02  0.59301996387E+02  0.50000095490E+02 0.  0.
         12    1    1    2    0    0  0.15859254413E+02 -0.15401828311E+02 -0.22977923330E+02  0.31886003613E+02  0.00000000000E+00 0. -1.
         11    1    3    3    0    0 -0.22067186245E+02  0.32772403759E+01  0.13087527352E+02  0.25864732469E+02  0.51100000000E-03 0. -1.
        -11    1    3    3    0    0 -0.44476177466E+01 -0.60111053558E+01 -0.37520499718E+01  0.83661562543E+01  0.51100000000E-03 0.  1.
        -12    1    3    3    0    0  0.10655549578E+02  0.18135693291E+02  0.13642445951E+02  0.25071107663E+02  0.00000000000E+00 0.  1.
</event>
<event>
 7    1  0.1205909E-011  0.5930195E+02  0.7816164E-02  0.1266605E+00
        -11   -1    0    0    0    0  0.00000000000E+00  0.00000000000E+00  0.45593999997E+02  0.45594000000E+02  0.51100000000E-03 0. -1.
         11   -1    0    0    0    0 -0.00000000000E+00 -0.00000000000E+00 -0.45593999997E+02  0.45594000000E+02  0.51100000000E-03 0.  1.
    9900012    2    1    2    0    0 -0.24428564903E+02 -0.11147436740E+02 -0.17195932602E+02  0.59301949332E+02  0.50000009675E+02 0.  0.
         12    1    1    2    0    0  0.24428564903E+02  0.11147436740E+02  0.17195932602E+02  0.31886050668E+02  0.00000000000E+00 0. -1.
         11    1    3    3    0    0 -0.66698646623E+01 -0.24431127184E+02 -0.14254264398E+02  0.29061161778E+02  0.51100000000E-03 0. -1.
        -11    1    3    3    0    0 -0.61198679787E+01  0.67223964380E+01 -0.11283194924E+02  0.14489785571E+02  0.51100000000E-03 0.  1.
         12    1    3    3    0    0 -0.11638832262E+02  0.65612940060E+01  0.83415267195E+01  0.15751001983E+02  0.00000000000E+00 0. -1.
</event>
<event>
 7    1  0.1205909E-011  0.5930194E+02  0.7816164E-02  0.1266605E+00
        -11   -1    0    0    0    0  0.00000000000E+00  0.00000000000E+00  0.45593999997E+02  0.45594000000E+02  0.51100000000E-03 0.  1.
         11   -1    0    0    0    0 -0.00000000000E+00 -0.00000000000E+00 -0.45593999997E+02  0.45594000000E+02  0.51100000000E-03 0. -1.
    9900012    2    1    2    0    0 -0.27499363766E+02  0.69537683490E+01  0.14565410195E+02  0.59301936023E+02  0.49999985402E+02 0.  0.
         12    1    1    2    0    0  0.27499363766E+02 -0.69537683490E+01 -0.14565410195E+02  0.31886063977E+02  0.00000000000E+00 0. -1.
         11    1    3    3    0    0  0.39516558602E+01 -0.24116228794E+01  0.43480458179E+01  0.63511425465E+01  0.51100000000E-03 0.  1.
        -11    1    3    3    0    0 -0.40456155916E+02  0.88026933145E+01  0.13186773374E+02  0.43452030487E+02  0.51100000000E-03 0. -1.
         12    1    3    3    0    0  0.90051362907E+01  0.56269791401E+00 -0.29694089969E+01  0.94987629904E+01  0.00000000000E+00 0. -1.
</event>
<event>
 7    1  0.1205909E-011  0.5930205E+02  0.7816164E-02  0.1266604E+00
        -11   -1    0    0    0    0  0.00000000000E+00  0.00000000000E+00  0.45593999997E+02  0.45594000000E+02  0.51100000000E-03 0.  1.
         11   -1    0    0    0    0 -0.00000000000E+00 -0.00000000000E+00 -0.45593999997E+02  0.45594000000E+02  0.51100000000E-03 0. -1.
    9900012    2    1    2    0    0  0.29146043956E+02 -0.12757960966E+02 -0.21110198094E+01  0.59302049317E+02  0.50000192023E+02 0.  0.
         12    1    1    2    0    0 -0.29146043956E+02  0.12757960966E+02  0.21110198094E+01  0.31885950683E+02  0.00000000000E+00 0. -1.
         11    1    3    3    0    0  0.19728871410E+02 -0.12838704026E+02 -0.26915332217E+01  0.23691877079E+02  0.51100000000E-03 0.  1.
        -11    1    3    3    0    0  0.16382679664E+02 -0.12760296269E+02  0.23348846774E+01  0.20896627493E+02  0.51100000000E-03 0. -1.
         12    1    3    3    0    0 -0.69655071176E+01  0.12841039329E+02 -0.17543712650E+01  0.14713544746E+02  0.00000000000E+00 0. -1.
</event>
<event>
 7    1  0.1205909E-011  0.5930172E+02  0.7816164E-02  0.1266606E+00
        -11   -1    0    0    0    0  0.00000000000E+00  0.00000000000E+00  0.45593999997E+02  0.45594000000E+02  0.51100000000E-03 0.  1.
         11   -1    0    0    0    0 -0.00000000000E+00 -0.00000000000E+00 -0.45593999997E+02  0.45594000000E+02  0.51100000000E-03 0. -1.
    9900012    2    1    2    0    0 -0.17442309027E+01 -0.16131561507E+02  0.27449322530E+02  0.59301718852E+02  0.49999589332E+02 0.  0.
         12    1    1    2    0    0  0.17442309027E+01  0.16131561507E+02 -0.27449322530E+02  0.31886281148E+02  0.00000000000E+00 0. -1.
         11    1    3    3    0    0  0.88898040476E+01 -0.35736613902E+01 -0.81682783013E+00  0.96159700344E+01  0.51100000000E-03 0. -1.
        -11    1    3    3    0    0  0.69663759882E+01  0.77645144167E+01  0.18201942156E+02  0.20979246341E+02  0.51100000000E-03 0.  1.
         12    1    3    3    0    0 -0.17600410938E+02 -0.20322414533E+02  0.10064208205E+02  0.28706502477E+02  0.00000000000E+00 0. -1.
</event>
<event>
 7    1  0.1205909E-011  0.5930192E+02  0.7816164E-02  0.1266605E+00
        -11   -1    0    0    0    0  0.00000000000E+00  0.00000000000E+00  0.45593999997E+02  0.45594000000E+02  0.51100000000E-03 0. -1.
         11   -1    0    0    0    0 -0.00000000000E+00 -0.00000000000E+00 -0.45593999997E+02  0.45594000000E+02  0.51100000000E-03 0.  1.
    9900012    2    1    2    0    0 -0.15790203428E+02 -0.27510236147E+02  0.32524209939E+01  0.59301923736E+02  0.49999962993E+02 0.  0.
         12    1    1    2    0    0  0.15790203428E+02  0.27510236147E+02 -0.32524209939E+01  0.31886076264E+02  0.00000000000E+00 0. -1.
         11    1    3    3    0    0  0.50319498081E+01  0.20699078118E+01  0.96086115074E+01  0.11042212305E+02  0.51100000000E-03 0. -1.
        -11    1    3    3    0    0 -0.87542204673E+01 -0.76762523867E+01  0.12392403447E+02  0.17003908085E+02  0.51100000000E-03 0.  1.
        -12    1    3    3    0    0 -0.12067932769E+02 -0.21903891572E+02 -0.18748593961E+02  0.31255803347E+02  0.00000000000E+00 0.  1.
</event>
<event>
 7    1  0.1205909E-011  0.5930199E+02  0.7816164E-02  0.1266605E+00
        -11   -1    0    0    0    0  0.00000000000E+00  0.00000000000E+00  0.45593999997E+02  0.45594000000E+02  0.51100000000E-03 0.  1.
         11   -1    0    0    0    0 -0.00000000000E+00 -0.00000000000E+00 -0.45593999997E+02  0.45594000000E+02  0.51100000000E-03 0. -1.
    9900012    2    1    2    0    0  0.10094285307E+02  0.64431254810E+01  0.29551801268E+02  0.59301993351E+02  0.50000089953E+02 0.  0.
         12    1    1    2    0    0 -0.10094285307E+02 -0.64431254810E+01 -0.29551801268E+02  0.31886006649E+02  0.00000000000E+00 0. -1.
         11    1    3    3    0    0 -0.10384749746E+02  0.11091762960E+02  0.80319138351E+00  0.15215628462E+02  0.51100000000E-03 0. -1.
        -11    1    3    3    0    0  0.39172551784E+01 -0.92120500989E+01  0.24388135118E+02  0.26362622971E+02  0.51100000000E-03 0.  1.
         12    1    3    3    0    0  0.16561779874E+02  0.45634126202E+01  0.43604747674E+01  0.17723741917E+02  0.00000000000E+00 0. -1.
</event>
<event>
 7    1  0.1205909E-011  0.5930195E+02  0.7816164E-02  0.1266605E+00
        -11   -1    0    0    0    0  0.00000000000E+00  0.00000000000E+00  0.45593999997E+02  0.45594000000E+02  0.51100000000E-03 0. -1.
         11   -1    0    0    0    0 -0.00000000000E+00 -0.00000000000E+00 -0.45593999997E+02  0.45594000000E+02  0.51100000000E-03 0.  1.
    9900012    2    1    2    0    0  0.19945896460E+02  0.18607553233E+02 -0.16511827753E+02  0.59301948526E+02  0.50000008203E+02 0.  0.
         12    1    1    2    0    0 -0.19945896460E+02 -0.18607553233E+02  0.16511827753E+02  0.31886051474E+02  0.00000000000E+00 0. -1.
         11    1    3    3    0    0 -0.68666059613E+01  0.13783195841E+02 -0.12824826296E+01  0.15452233721E+02  0.51100000000E-03 0. -1.
        -11    1    3    3    0    0  0.22291030835E+02  0.58135598166E+01 -0.24412738520E+02  0.33565895425E+02  0.51100000000E-03 0.  1.
         12    1    3    3    0    0  0.45214715866E+01 -0.98920242466E+00  0.91833933967E+01  0.10283819379E+02  0.00000000000E+00 0. -1.
</event>
<event>
 7    1  0.1205909E-011  0.5930193E+02  0.7816164E-02  0.1266605E+00
        -11   -1    0    0    0    0  0.00000000000E+00  0.00000000000E+00  0.45593999997E+02  0.45594000000E+02  0.51100000000E-03 0.  1.
         11   -1    0    0    0    0 -0.00000000000E+00 -0.00000000000E+00 -0.45593999997E+02  0.45594000000E+02  0.51100000000E-03 0. -1.
    9900012    2    1    2    0    0  0.11168528817E+02  0.16051046487E+02  0.25186296355E+02  0.59301926968E+02  0.49999968888E+02 0.  0.
         12    1    1    2    0    0 -0.11168528817E+02 -0.16051046487E+02 -0.25186296355E+02  0.31886073032E+02  0.00000000000E+00 0. -1.
         11    1    3    3    0    0  0.79462762490E+00 -0.18240919177E+01 -0.79323121461E+01  0.81780389233E+01  0.51100000000E-03 0. -1.
        -11    1    3    3    0    0  0.15611943655E+02 -0.19213632907E+01  0.53364276096E+01  0.16610294443E+02  0.51100000000E-03 0.  1.
        -12    1    3    3    0    0 -0.52380424629E+01  0.19796501696E+02  0.27782180892E+02  0.34513593602E+02  0.00000000000E+00 0.  1.
</event>
<event>
 7    1  0.1205909E-011  0.5930195E+02  0.7816164E-02  0.1266605E+00
        -11   -1    0    0    0    0  0.00000000000E+00  0.00000000000E+00  0.45593999997E+02  0.45594000000E+02  0.51100000000E-03 0.  1.
         11   -1    0    0    0    0 -0.00000000000E+00 -0.00000000000E+00 -0.45593999997E+02  0.45594000000E+02  0.51100000000E-03 0. -1.
    9900012    2    1    2    0    0  0.27695935563E+02  0.88110852131E+01  0.13115636406E+02  0.59301953088E+02  0.50000016524E+02 0.  0.
         12    1    1    2    0    0 -0.27695935563E+02 -0.88110852131E+01 -0.13115636406E+02  0.31886046912E+02  0.00000000000E+00 0. -1.
         11    1    3    3    0    0  0.96649235840E+01  0.25615127009E+02  0.92966743855E+01  0.28913208650E+02  0.51100000000E-03 0. -1.
        -11    1    3    3    0    0 -0.11480227171E+01  0.21039809440E+01 -0.16460004333E+01  0.29075779713E+01  0.51100000000E-03 0.  1.
        -12    1    3    3    0    0  0.19179034696E+02 -0.18908022739E+02  0.54649624535E+01  0.27481166467E+02  0.00000000000E+00 0.  1.
</event>
<event>
 7    1  0.1205909E-011  0.5930192E+02  0.7816164E-02  0.1266605E+00
        -11   -1    0    0    0    0  0.00000000000E+00  0.00000000000E+00  0.45593999997E+02  0.45594000000E+02  0.51100000000E-03 0.  1.
         11   -1    0    0    0    0 -0.00000000000E+00 -0.00000000000E+00 -0.45593999997E+02  0.45594000000E+02  0.51100000000E-03 0. -1.
    9900012    2    1    2    0    0  0.26331417466E+02 -0.15121111608E+02  0.97329743754E+01  0.59301916010E+02  0.49999948902E+02 0.  0.
         12    1    1    2    0    0 -0.26331417466E+02  0.15121111608E+02 -0.97329743754E+01  0.31886083990E+02  0.00000000000E+00 0. -1.
         11    1    3    3    0    0  0.25174983445E+01 -0.90271418130E+01 -0.17687185219E+02  0.20016583336E+02  0.51100000000E-03 0. -1.
        -11    1    3    3    0    0  0.15485743118E+02 -0.94985644755E+01  0.13192561496E+02  0.22451606760E+02  0.51100000000E-03 0.  1.
        -12    1    3    3    0    0  0.83281760038E+01  0.34045946808E+01  0.14227598098E+02  0.16833725913E+02  0.00000000000E+00 0.  1.
</event>
<event>
 7    1  0.1205909E-011  0.5930194E+02  0.7816164E-02  0.1266605E+00
        -11   -1    0    0    0    0  0.00000000000E+00  0.00000000000E+00  0.45593999997E+02  0.45594000000E+02  0.51100000000E-03 0.  1.
         11   -1    0    0    0    0 -0.00000000000E+00 -0.00000000000E+00 -0.45593999997E+02  0.45594000000E+02  0.51100000000E-03 0. -1.
    9900012    2    1    2    0    0 -0.89793346672E+01 -0.30065265164E+02 -0.56720548550E+01  0.59301939931E+02  0.49999992529E+02 0.  0.
         12    1    1    2    0    0  0.89793346672E+01  0.30065265164E+02  0.56720548550E+01  0.31886060069E+02  0.00000000000E+00 0. -1.
         11    1    3    3    0    0 -0.88119779079E+00 -0.25780920420E+02 -0.17394546141E+02  0.31112740203E+02  0.51100000000E-03 0. -1.
        -11    1    3    3    0    0  0.59792806646E+01 -0.89309498609E+01  0.39488523911E+01  0.11450200791E+02  0.51100000000E-03 0.  1.
        -12    1    3    3    0    0 -0.14077417541E+02  0.46466051170E+01  0.77736388952E+01  0.16738998937E+02  0.00000000000E+00 0.  1.
</event>
<event>
 7    1  0.1205909E-011  0.5930191E+02  0.7816164E-02  0.1266605E+00
        -11   -1    0    0    0    0  0.00000000000E+00  0.00000000000E+00  0.45593999997E+02  0.45594000000E+02  0.51100000000E-03 0. -1.
         11   -1    0    0    0    0 -0.00000000000E+00 -0.00000000000E+00 -0.45593999997E+02  0.45594000000E+02  0.51100000000E-03 0.  1.
    9900012    2    1    2    0    0 -0.18302742308E+02  0.41112754701E+01 -0.25784295679E+02  0.59301907959E+02  0.49999934219E+02 0.  0.
         12    1    1    2    0    0  0.18302742308E+02 -0.41112754701E+01  0.25784295679E+02  0.31886092041E+02  0.00000000000E+00 0. -1.
         11    1    3    3    0    0  0.52965256193E+01 -0.37945555306E+01 -0.21380065283E+02  0.22350817145E+02  0.51100000000E-03 0. -1.
        -11    1    3    3    0    0 -0.13773735858E+02  0.11672972187E+01 -0.15431153468E+02  0.20717115627E+02  0.51100000000E-03 0.  1.
         12    1    3    3    0    0 -0.98255320687E+01  0.67385337819E+01  0.11026923071E+02  0.16233975187E+02  0.00000000000E+00 0. -1.
</event>
<event>
 7    1  0.1205909E-011  0.5930192E+02  0.7816164E-02  0.1266605E+00
        -11   -1    0    0    0    0  0.00000000000E+00  0.00000000000E+00  0.45593999997E+02  0.45594000000E+02  0.51100000000E-03 0.  1.
         11   -1    0    0    0    0 -0.00000000000E+00 -0.00000000000E+00 -0.45593999997E+02  0.45594000000E+02  0.51100000000E-03 0. -1.
    9900012    2    1    2    0    0 -0.14502364585E+02 -0.24010341232E+02  0.15162688861E+02  0.59301918426E+02  0.49999953309E+02 0.  0.
         12    1    1    2    0    0  0.14502364585E+02  0.24010341232E+02 -0.15162688861E+02  0.31886081574E+02  0.00000000000E+00 0. -1.
         11    1    3    3    0    0 -0.95745498600E+01 -0.28716058483E+02 -0.95496424239E+01  0.31740820571E+02  0.51100000000E-03 0. -1.
        -11    1    3    3    0    0 -0.18749610113E+01 -0.10857463006E+01  0.18439093984E+00  0.21744709938E+01  0.51100000000E-03 0.  1.
         12    1    3    3    0    0 -0.30528537139E+01  0.57914635517E+01  0.24527940345E+02  0.25386626862E+02  0.00000000000E+00 0. -1.
</event>
<event>
 7    1  0.1205909E-011  0.5930195E+02  0.7816164E-02  0.1266605E+00
        -11   -1    0    0    0    0  0.00000000000E+00  0.00000000000E+00  0.45593999997E+02  0.45594000000E+02  0.51100000000E-03 0.  1.
         11   -1    0    0    0    0 -0.00000000000E+00 -0.00000000000E+00 -0.45593999997E+02  0.45594000000E+02  0.51100000000E-03 0. -1.
    9900012    2    1    2    0    0  0.45243585809E+01 -0.71175692710E+01 -0.30750455811E+02  0.59301950614E+02  0.50000012011E+02 0.  0.
         12    1    1    2    0    0 -0.45243585809E+01  0.71175692710E+01  0.30750455811E+02  0.31886049386E+02  0.00000000000E+00 0. -1.
         11    1    3    3    0    0 -0.22528483447E+01 -0.20454882764E+02 -0.13435066762E+02  0.24575975540E+02  0.51100000000E-03 0. -1.
        -11    1    3    3    0    0  0.32280512997E+01 -0.73712280120E+01 -0.91485807969E+01  0.12184081765E+02  0.51100000000E-03 0.  1.
        -12    1    3    3    0    0  0.35491556259E+01  0.20708541505E+02 -0.81668082520E+01  0.22541893309E+02  0.00000000000E+00 0.  1.
</event>
<event>
 7    1  0.1205909E-011  0.5930194E+02  0.7816164E-02  0.1266605E+00
        -11   -1    0    0    0    0  0.00000000000E+00  0.00000000000E+00  0.45593999997E+02  0.45594000000E+02  0.51100000000E-03 0.  1.
         11   -1    0    0    0    0 -0.00000000000E+00 -0.00000000000E+00 -0.45593999997E+02  0.45594000000E+02  0.51100000000E-03 0. -1.
    9900012    2    1    2    0    0 -0.19155041016E+02  0.13582891034E+02  0.21571056919E+02  0.59301936873E+02  0.49999986951E+02 0.  0.
         12    1    1    2    0    0  0.19155041016E+02 -0.13582891034E+02 -0.21571056919E+02  0.31886063127E+02  0.00000000000E+00 0. -1.
         11    1    3    3    0    0  0.13007579191E+02  0.14417078680E+02  0.86030878243E+01  0.21238229551E+02  0.51100000000E-03 0. -1.
        -11    1    3    3    0    0  0.97370744888E+00  0.23044510057E+01  0.87445788276E+00  0.26501466909E+01  0.51100000000E-03 0.  1.
        -12    1    3    3    0    0 -0.33136327656E+02 -0.31386386519E+01  0.12093511212E+02  0.35413560631E+02  0.00000000000E+00 0.  1.
</event>
<event>
 7    1  0.1205909E-011  0.5930194E+02  0.7816164E-02  0.1266605E+00
        -11   -1    0    0    0    0  0.00000000000E+00  0.00000000000E+00  0.45593999997E+02  0.45594000000E+02  0.51100000000E-03 0.  1.
         11   -1    0    0    0    0 -0.00000000000E+00 -0.00000000000E+00 -0.45593999997E+02  0.45594000000E+02  0.51100000000E-03 0. -1.
    9900012    2    1    2    0    0  0.35466626705E+01 -0.23471051404E+02  0.21289705781E+02  0.59301942823E+02  0.49999997802E+02 0.  0.
         12    1    1    2    0    0 -0.35466626705E+01  0.23471051404E+02 -0.21289705781E+02  0.31886057177E+02  0.00000000000E+00 0. -1.
         11    1    3    3    0    0 -0.38352092743E+01 -0.22939684676E+02  0.13706678779E+02  0.26996499896E+02  0.51100000000E-03 0.  1.
        -11    1    3    3    0    0  0.11917401085E+02 -0.16531970362E+01 -0.90330065081E+01  0.15045022961E+02  0.51100000000E-03 0. -1.
         12    1    3    3    0    0 -0.45355291397E+01  0.11218303083E+01  0.16616033509E+02  0.17260419966E+02  0.00000000000E+00 0. -1.
</event>
<event>
 7    1  0.1205909E-011  0.5930194E+02  0.7816164E-02  0.1266605E+00
        -11   -1    0    0    0    0  0.00000000000E+00  0.00000000000E+00  0.45593999997E+02  0.45594000000E+02  0.51100000000E-03 0.  1.
         11   -1    0    0    0    0 -0.00000000000E+00 -0.00000000000E+00 -0.45593999997E+02  0.45594000000E+02  0.51100000000E-03 0. -1.
    9900012    2    1    2    0    0  0.20238157596E+02  0.15438202767E+02  0.19204158135E+02  0.59301940080E+02  0.49999992799E+02 0.  0.
         12    1    1    2    0    0 -0.20238157596E+02 -0.15438202767E+02 -0.19204158135E+02  0.31886059920E+02  0.00000000000E+00 0. -1.
         11    1    3    3    0    0 -0.22654797080E+01 -0.90164721458E+01 -0.78329515318E+01  0.12156656540E+02  0.51100000000E-03 0. -1.
        -11    1    3    3    0    0  0.83656896092E+01  0.54036639272E+01  0.20093443683E+02  0.22426119276E+02  0.51100000000E-03 0.  1.
        -12    1    3    3    0    0  0.14137947695E+02  0.19051010986E+02  0.69436659843E+01  0.24719164264E+02  0.00000000000E+00 0.  1.
</event>
<event>
 7    1  0.1205909E-011  0.5930191E+02  0.7816164E-02  0.1266605E+00
        -11   -1    0    0    0    0  0.00000000000E+00  0.00000000000E+00  0.45593999997E+02  0.45594000000E+02  0.51100000000E-03 0.  1.
         11   -1    0    0    0    0 -0.00000000000E+00 -0.00000000000E+00 -0.45593999997E+02  0.45594000000E+02  0.51100000000E-03 0. -1.
    9900012    2    1    2    0    0  0.28100398634E+02  0.11643540792E+02  0.95665278871E+01  0.59301907399E+02  0.49999933198E+02 0.  0.
         12    1    1    2    0    0 -0.28100398634E+02 -0.11643540792E+02 -0.95665278871E+01  0.31886092601E+02  0.00000000000E+00 0. -1.
         11    1    3    3    0    0  0.14758999081E+02  0.18986221052E+01 -0.10243067600E+02  0.18065249898E+02  0.51100000000E-03 0. -1.
        -11    1    3    3    0    0  0.82863926250E+01  0.19028342330E+02  0.24315696237E+01  0.20896283058E+02  0.51100000000E-03 0.  1.
        -12    1    3    3    0    0  0.50550069272E+01 -0.92834236427E+01  0.17378025863E+02  0.20340374442E+02  0.00000000000E+00 0.  1.
</event>
<event>
 7    1  0.1205909E-011  0.5930194E+02  0.7816164E-02  0.1266605E+00
        -11   -1    0    0    0    0  0.00000000000E+00  0.00000000000E+00  0.45593999997E+02  0.45594000000E+02  0.51100000000E-03 0. -1.
         11   -1    0    0    0    0 -0.00000000000E+00 -0.00000000000E+00 -0.45593999997E+02  0.45594000000E+02  0.51100000000E-03 0.  1.
    9900012    2    1    2    0    0 -0.11297952447E+01  0.25848473432E+02 -0.18636009548E+02  0.59301939285E+02  0.49999991350E+02 0.  0.
         12    1    1    2    0    0  0.11297952447E+01 -0.25848473432E+02  0.18636009548E+02  0.31886060715E+02  0.00000000000E+00 0. -1.
         11    1    3    3    0    0  0.52901672082E+01  0.58118012550E+01 -0.98253141091E+01  0.12581720889E+02  0.51100000000E-03 0. -1.
        -11    1    3    3    0    0  0.16187571923E+02  0.63877962036E+01 -0.10384417106E+02  0.20265180581E+02  0.51100000000E-03 0.  1.
         12    1    3    3    0    0 -0.22607534375E+02  0.13648875974E+02  0.15737216678E+01  0.26455037815E+02  0.00000000000E+00 0. -1.
</event>
<event>
 7    1  0.1205909E-011  0.5930195E+02  0.7816164E-02  0.1266605E+00
        -11   -1    0    0    0    0  0.00000000000E+00  0.00000000000E+00  0.45593999997E+02  0.45594000000E+02  0.51100000000E-03 0. -1.
         11   -1    0    0    0    0 -0.00000000000E+00 -0.00000000000E+00 -0.45593999997E+02  0.45594000000E+02  0.51100000000E-03 0.  1.
    9900012    2    1    2    0    0 -0.21105292691E+00  0.28980837522E+02 -0.13296117605E+02  0.59301949286E+02  0.50000009589E+02 0.  0.
         12    1    1    2    0    0  0.21105292691E+00 -0.28980837522E+02  0.13296117605E+02  0.31886050714E+02  0.00000000000E+00 0. -1.
         11    1    3    3    0    0 -0.47886651815E+01  0.17043493674E+02 -0.60690283307E+01  0.18714836253E+02  0.51100000000E-03 0. -1.
        -11    1    3    3    0    0 -0.33745015268E+01  0.23786380865E+02 -0.10047509029E+02  0.26040960296E+02  0.51100000000E-03 0.  1.
         12    1    3    3    0    0  0.79521137814E+01 -0.11849037018E+02  0.28204197545E+01  0.14546152736E+02  0.00000000000E+00 0. -1.
</event>
<event>
 7    1  0.1205909E-011  0.5930199E+02  0.7816164E-02  0.1266605E+00
        -11   -1    0    0    0    0  0.00000000000E+00  0.00000000000E+00  0.45593999997E+02  0.45594000000E+02  0.51100000000E-03 0.  1.
         11   -1    0    0    0    0 -0.00000000000E+00 -0.00000000000E+00 -0.45593999997E+02  0.45594000000E+02  0.51100000000E-03 0. -1.
    9900012    2    1    2    0    0 -0.18167064957E+02 -0.21384793275E+02  0.15144841042E+02  0.59301986723E+02  0.50000077866E+02 0.  0.
         12    1    1    2    0    0  0.18167064957E+02  0.21384793275E+02 -0.15144841042E+02  0.31886013277E+02  0.00000000000E+00 0. -1.
         11    1    3    3    0    0 -0.44350034150E+01 -0.55625373273E+01 -0.25705374299E+01  0.75643069576E+01  0.51100000000E-03 0. -1.
        -11    1    3    3    0    0  0.75958992249E+01 -0.23828732782E+02  0.13980154876E+02  0.28652241128E+02  0.51100000000E-03 0.  1.
         12    1    3    3    0    0 -0.21327960767E+02  0.80064768349E+01  0.37352235958E+01  0.23085438637E+02  0.00000000000E+00 0. -1.
</event>
<event>
 7    1  0.1205909E-011  0.5930198E+02  0.7816164E-02  0.1266605E+00
        -11   -1    0    0    0    0  0.00000000000E+00  0.00000000000E+00  0.45593999997E+02  0.45594000000E+02  0.51100000000E-03 0.  1.
         11   -1    0    0    0    0 -0.00000000000E+00 -0.00000000000E+00 -0.45593999997E+02  0.45594000000E+02  0.51100000000E-03 0. -1.
    9900012    2    1    2    0    0 -0.87784480344E+01 -0.30651447025E+02 -0.38230761663E+00  0.59301976201E+02  0.50000058676E+02 0.  0.
         12    1    1    2    0    0  0.87784480344E+01  0.30651447025E+02  0.38230761663E+00  0.31886023799E+02  0.00000000000E+00 0. -1.
         11    1    3    3    0    0 -0.12885081936E+02 -0.32174623648E+02  0.12340421230E+02  0.36790185373E+02  0.51100000000E-03 0.  1.
        -11    1    3    3    0    0  0.54254768318E+01 -0.43584275722E+01  0.14515910712E+01  0.71090651041E+01  0.51100000000E-03 0. -1.
         12    1    3    3    0    0 -0.13188429305E+01  0.58816041950E+01 -0.14174319918E+02  0.15402725724E+02  0.00000000000E+00 0. -1.
</event>
<event>
 7    1  0.1205909E-011  0.5930194E+02  0.7816164E-02  0.1266605E+00
        -11   -1    0    0    0    0  0.00000000000E+00  0.00000000000E+00  0.45593999997E+02  0.45594000000E+02  0.51100000000E-03 0.  1.
         11   -1    0    0    0    0 -0.00000000000E+00 -0.00000000000E+00 -0.45593999997E+02  0.45594000000E+02  0.51100000000E-03 0. -1.
    9900012    2    1    2    0    0  0.23790910641E+02 -0.20116406353E+02 -0.67855230628E+01  0.59301944162E+02  0.50000000245E+02 0.  0.
         12    1    1    2    0    0 -0.23790910641E+02  0.20116406353E+02  0.67855230628E+01  0.31886055838E+02  0.00000000000E+00 0. -1.
         11    1    3    3    0    0  0.18639641314E+02 -0.25404642362E+02  0.67046123710E+01  0.32214653641E+02  0.51100000000E-03 0. -1.
        -11    1    3    3    0    0 -0.54298823406E+01  0.39609963559E+01  0.30712199659E+01  0.73895538907E+01  0.51100000000E-03 0.  1.
        -12    1    3    3    0    0  0.10581151667E+02  0.13272396538E+01 -0.16561355400E+02  0.19697736631E+02  0.00000000000E+00 0.  1.
</event>
<event>
 7    1  0.1205909E-011  0.5930197E+02  0.7816164E-02  0.1266605E+00
        -11   -1    0    0    0    0  0.00000000000E+00  0.00000000000E+00  0.45593999997E+02  0.45594000000E+02  0.51100000000E-03 0.  1.
         11   -1    0    0    0    0 -0.00000000000E+00 -0.00000000000E+00 -0.45593999997E+02  0.45594000000E+02  0.51100000000E-03 0. -1.
    9900012    2    1    2    0    0  0.14397993582E+02  0.24799392841E+02  0.13942992167E+02  0.59301966459E+02  0.50000040908E+02 0.  0.
         12    1    1    2    0    0 -0.14397993582E+02 -0.24799392841E+02 -0.13942992167E+02  0.31886033541E+02  0.00000000000E+00 0. -1.
         11    1    3    3    0    0  0.57091275296E+01  0.59902650010E+01  0.93873998575E+01  0.12514019669E+02  0.51100000000E-03 0.  1.
        -11    1    3    3    0    0  0.51391033125E+01  0.10827470897E+02  0.23247744386E+02  0.26155346073E+02  0.51100000000E-03 0. -1.
         12    1    3    3    0    0  0.35497627394E+01  0.79816569431E+01 -0.18692152077E+02  0.20632600717E+02  0.00000000000E+00 0. -1.
</event>
<event>
 7    1  0.1205909E-011  0.5930195E+02  0.7816164E-02  0.1266605E+00
        -11   -1    0    0    0    0  0.00000000000E+00  0.00000000000E+00  0.45593999997E+02  0.45594000000E+02  0.51100000000E-03 0. -1.
         11   -1    0    0    0    0 -0.00000000000E+00 -0.00000000000E+00 -0.45593999997E+02  0.45594000000E+02  0.51100000000E-03 0.  1.
    9900012    2    1    2    0    0  0.15884732402E+02  0.56733075142E+01 -0.27059361013E+02  0.59301950384E+02  0.50000011593E+02 0.  0.
         12    1    1    2    0    0 -0.15884732402E+02 -0.56733075142E+01  0.27059361013E+02  0.31886049616E+02  0.00000000000E+00 0. -1.
         11    1    3    3    0    0  0.18332072884E+02 -0.12335431759E+02 -0.50439437818E+01  0.22664270163E+02  0.51100000000E-03 0. -1.
        -11    1    3    3    0    0  0.78076274905E+01 -0.79774241754E+00 -0.64537192691E+01  0.10161000574E+02  0.51100000000E-03 0.  1.
         12    1    3    3    0    0 -0.10254967972E+02  0.18806481691E+02 -0.15561697962E+02  0.26476679647E+02  0.00000000000E+00 0. -1.
</event>
<event>
 7    1  0.1205909E-011  0.5930189E+02  0.7816164E-02  0.1266605E+00
        -11   -1    0    0    0    0  0.00000000000E+00  0.00000000000E+00  0.45593999997E+02  0.45594000000E+02  0.51100000000E-03 0.  1.
         11   -1    0    0    0    0 -0.00000000000E+00 -0.00000000000E+00 -0.45593999997E+02  0.45594000000E+02  0.51100000000E-03 0. -1.
    9900012    2    1    2    0    0  0.13942996515E+02  0.11599907619E+02  0.26225156195E+02  0.59301892900E+02  0.49999906754E+02 0.  0.
         12    1    1    2    0    0 -0.13942996515E+02 -0.11599907619E+02 -0.26225156195E+02  0.31886107100E+02  0.00000000000E+00 0. -1.
         11    1    3    3    0    0  0.21328460046E+02  0.98268977225E+01  0.96627317163E+01  0.25393690383E+02  0.51100000000E-03 0. -1.
        -11    1    3    3    0    0  0.22130576607E+01  0.39757716977E+01  0.22131601286E+02  0.22594516161E+02  0.51100000000E-03 0.  1.
         12    1    3    3    0    0 -0.95985211920E+01 -0.22027618016E+01 -0.55691768078E+01  0.11313686355E+02  0.00000000000E+00 0. -1.
</event>
<event>
 7    1  0.1205909E-011  0.5930187E+02  0.7816164E-02  0.1266605E+00
        -11   -1    0    0    0    0  0.00000000000E+00  0.00000000000E+00  0.45593999997E+02  0.45594000000E+02  0.51100000000E-03 0.  1.
         11   -1    0    0    0    0 -0.00000000000E+00 -0.00000000000E+00 -0.45593999997E+02  0.45594000000E+02  0.51100000000E-03 0. -1.
    9900012    2    1    2    0    0  0.21555373637E+01  0.26840966548E+02  0.17077510948E+02  0.59301871249E+02  0.49999867269E+02 0.  0.
         12    1    1    2    0    0 -0.21555373637E+01 -0.26840966548E+02 -0.17077510948E+02  0.31886128751E+02  0.00000000000E+00 0. -1.
         11    1    3    3    0    0 -0.44594232833E+01  0.11742514864E+02  0.19834318745E+02  0.23477080562E+02  0.51100000000E-03 0. -1.
        -11    1    3    3    0    0 -0.12793733296E+02  0.71034692997E+01 -0.24129675018E+01  0.14831092346E+02  0.51100000000E-03 0.  1.
         12    1    3    3    0    0  0.19408693943E+02  0.79949823839E+01 -0.34384029560E+00  0.20993698341E+02  0.00000000000E+00 0. -1.
</event>
<event>
 7    1  0.1205909E-011  0.5930195E+02  0.7816164E-02  0.1266605E+00
        -11   -1    0    0    0    0  0.00000000000E+00  0.00000000000E+00  0.45593999997E+02  0.45594000000E+02  0.51100000000E-03 0.  1.
         11   -1    0    0    0    0 -0.00000000000E+00 -0.00000000000E+00 -0.45593999997E+02  0.45594000000E+02  0.51100000000E-03 0. -1.
    9900012    2    1    2    0    0 -0.25051913505E+02 -0.18390830579E+02 -0.71343611767E+01  0.59301950872E+02  0.50000012482E+02 0.  0.
         12    1    1    2    0    0  0.25051913505E+02  0.18390830579E+02  0.71343611767E+01  0.31886049128E+02  0.00000000000E+00 0. -1.
         11    1    3    3    0    0  0.14665664921E+01 -0.11287007284E+02  0.14119489377E+02  0.18135802470E+02  0.51100000000E-03 0. -1.
        -11    1    3    3    0    0 -0.37201574044E+01 -0.64505459443E+01  0.28581584058E+01  0.79761007909E+01  0.51100000000E-03 0.  1.
        -12    1    3    3    0    0 -0.22798322592E+02 -0.65327735059E+00 -0.24112008960E+02  0.33190047611E+02  0.00000000000E+00 0.  1.
</event>
