<event>
 7    1  0.2486105E-010  0.4778728E+02  0.7816164E-02  0.1312668E+00
        -11   -1    0    0    0    0  0.00000000000E+00  0.00000000000E+00  0.45593999997E+02  0.45594000000E+02  0.51100000000E-03 0.  1.
         11   -1    0    0    0    0 -0.00000000000E+00 -0.00000000000E+00 -0.45593999997E+02  0.45594000000E+02  0.51100000000E-03 0. -1.
    9900012    2    1    2    0    0  0.37347429641E+02 -0.22009910704E+02 -0.20870183189E+01  0.47787282087E+02  0.20000050345E+02 0.  0.
         12    1    1    2    0    0 -0.37347429641E+02  0.22009910704E+02  0.20870183189E+01  0.43400717913E+02  0.00000000000E+00 0. -1.
         11    1    3    3    0    0  0.49579063028E+01 -0.18944919643E+01  0.88842508395E+00  0.53813784573E+01  0.51100000000E-03 0. -1.
        -11    1    3    3    0    0  0.16031850001E+02 -0.91988221142E+01  0.77071222588E+01  0.20025940091E+02  0.51100000000E-03 0.  1.
         12    1    3    3    0    0  0.16357673337E+02 -0.10916596625E+02 -0.10682565662E+02  0.22379963539E+02  0.00000000000E+00 0. -1.
</event>
<event>
 7    1  0.2486105E-010  0.4778727E+02  0.7816164E-02  0.1312668E+00
        -11   -1    0    0    0    0  0.00000000000E+00  0.00000000000E+00  0.45593999997E+02  0.45594000000E+02  0.51100000000E-03 0. -1.
         11   -1    0    0    0    0 -0.00000000000E+00 -0.00000000000E+00 -0.45593999997E+02  0.45594000000E+02  0.51100000000E-03 0.  1.
    9900012    2    1    2    0    0  0.37465455952E+02  0.14427348497E+02 -0.16486805018E+02  0.47787268277E+02  0.19999987384E+02 0.  0.
         12    1    1    2    0    0 -0.37465455952E+02 -0.14427348497E+02  0.16486805018E+02  0.43400731723E+02  0.00000000000E+00 0. -1.
         11    1    3    3    0    0  0.61940252945E+00 -0.21551633089E+01 -0.15453021526E+01  0.27232971534E+01  0.51100000000E-03 0. -1.
        -11    1    3    3    0    0  0.11992464881E+02  0.92806568067E+01 -0.11286647485E+02  0.18903391664E+02  0.51100000000E-03 0.  1.
         12    1    3    3    0    0  0.24853588542E+02  0.73018549988E+01 -0.36548553796E+01  0.26160579460E+02  0.00000000000E+00 0. -1.
</event>
<event>
 7    1  0.2486105E-010  0.4778727E+02  0.7816164E-02  0.1312668E+00
        -11   -1    0    0    0    0  0.00000000000E+00  0.00000000000E+00  0.45593999997E+02  0.45594000000E+02  0.51100000000E-03 0.  1.
         11   -1    0    0    0    0 -0.00000000000E+00 -0.00000000000E+00 -0.45593999997E+02  0.45594000000E+02  0.51100000000E-03 0. -1.
    9900012    2    1    2    0    0  0.19593550725E+02  0.19000238233E+02  0.33744733272E+02  0.47787270668E+02  0.19999998284E+02 0.  0.
         12    1    1    2    0    0 -0.19593550725E+02 -0.19000238233E+02 -0.33744733272E+02  0.43400729332E+02  0.00000000000E+00 0. -1.
         11    1    3    3    0    0 -0.12129220524E+01  0.13406208758E+01 -0.76246386804E+00  0.19620896129E+01  0.51100000000E-03 0. -1.
        -11    1    3    3    0    0  0.85756405817E+01  0.27618847589E+01  0.42779239091E+01  0.99734774297E+01  0.51100000000E-03 0.  1.
         12    1    3    3    0    0  0.12230832195E+02  0.14897732598E+02  0.30229273231E+02  0.35851703626E+02  0.00000000000E+00 0. -1.
</event>
<event>
 7    1  0.2486105E-010  0.4778727E+02  0.7816164E-02  0.1312668E+00
        -11   -1    0    0    0    0  0.00000000000E+00  0.00000000000E+00  0.45593999997E+02  0.45594000000E+02  0.51100000000E-03 0. -1.
         11   -1    0    0    0    0 -0.00000000000E+00 -0.00000000000E+00 -0.45593999997E+02  0.45594000000E+02  0.51100000000E-03 0.  1.
    9900012    2    1    2    0    0  0.28786376063E+00  0.11195090602E+02 -0.41931015695E+02  0.47787274242E+02  0.20000014578E+02 0.  0.
         12    1    1    2    0    0 -0.28786376063E+00 -0.11195090602E+02  0.41931015695E+02  0.43400725758E+02  0.00000000000E+00 0. -1.
         11    1    3    3    0    0 -0.96577623495E+00  0.10914674706E+02 -0.90407505378E+01  0.14205562932E+02  0.51100000000E-03 0. -1.
        -11    1    3    3    0    0 -0.24716293964E+01  0.47361825853E+00 -0.20150840697E+02  0.20307379131E+02  0.51100000000E-03 0.  1.
        -12    1    3    3    0    0  0.37252693919E+01 -0.19320236266E+00 -0.12739424460E+02  0.13274332178E+02  0.00000000000E+00 0.  1.
</event>
<event>
 7    1  0.2486105E-010  0.4778727E+02  0.7816164E-02  0.1312668E+00
        -11   -1    0    0    0    0  0.00000000000E+00  0.00000000000E+00  0.45593999997E+02  0.45594000000E+02  0.51100000000E-03 0.  1.
         11   -1    0    0    0    0 -0.00000000000E+00 -0.00000000000E+00 -0.45593999997E+02  0.45594000000E+02  0.51100000000E-03 0. -1.
    9900012    2    1    2    0    0 -0.63496672045E+01 -0.93441307166E+01  0.41904565094E+02  0.47787266963E+02  0.19999981389E+02 0.  0.
         12    1    1    2    0    0  0.63496672045E+01  0.93441307166E+01 -0.41904565094E+02  0.43400733037E+02  0.00000000000E+00 0. -1.
         11    1    3    3    0    0 -0.46107539437E+01 -0.90262209105E+01  0.18890312131E+02  0.21437714629E+02  0.51100000000E-03 0. -1.
        -11    1    3    3    0    0  0.42046032106E+01 -0.32228356854E+01  0.55415797829E+01  0.76664505976E+01  0.51100000000E-03 0.  1.
        -12    1    3    3    0    0 -0.59435164714E+01  0.29049258793E+01  0.17472673180E+02  0.18683101736E+02  0.00000000000E+00 0.  1.
</event>
<event>
 7    1  0.2486105E-010  0.4778728E+02  0.7816164E-02  0.1312668E+00
        -11   -1    0    0    0    0  0.00000000000E+00  0.00000000000E+00  0.45593999997E+02  0.45594000000E+02  0.51100000000E-03 0.  1.
         11   -1    0    0    0    0 -0.00000000000E+00 -0.00000000000E+00 -0.45593999997E+02  0.45594000000E+02  0.51100000000E-03 0. -1.
    9900012    2    1    2    0    0  0.28910400434E+02  0.10696048811E+02  0.30551689018E+02  0.47787280936E+02  0.20000045099E+02 0.  0.
         12    1    1    2    0    0 -0.28910400434E+02 -0.10696048811E+02 -0.30551689018E+02  0.43400719064E+02  0.00000000000E+00 0. -1.
         11    1    3    3    0    0  0.46834711948E+01  0.59177833248E+01  0.32204618215E+01  0.82052688266E+01  0.51100000000E-03 0. -1.
        -11    1    3    3    0    0  0.79588524074E+01  0.58943228722E+01  0.31050209653E+01  0.10379187310E+02  0.51100000000E-03 0.  1.
        -12    1    3    3    0    0  0.16268076832E+02 -0.11160573859E+01  0.24226206231E+02  0.29202824799E+02  0.00000000000E+00 0.  1.
</event>
<event>
 7    1  0.2486105E-010  0.4778727E+02  0.7816164E-02  0.1312668E+00
        -11   -1    0    0    0    0  0.00000000000E+00  0.00000000000E+00  0.45593999997E+02  0.45594000000E+02  0.51100000000E-03 0.  1.
         11   -1    0    0    0    0 -0.00000000000E+00 -0.00000000000E+00 -0.45593999997E+02  0.45594000000E+02  0.51100000000E-03 0. -1.
    9900012    2    1    2    0    0 -0.24287904980E+02 -0.33144517279E+02  0.13970028905E+02  0.47787273490E+02  0.20000011150E+02 0.  0.
         12    1    1    2    0    0  0.24287904980E+02  0.33144517279E+02 -0.13970028905E+02  0.43400726510E+02  0.00000000000E+00 0. -1.
         11    1    3    3    0    0 -0.14146406934E+02 -0.72959559190E+01 -0.25219935315E+00  0.15919026562E+02  0.51100000000E-03 0. -1.
        -11    1    3    3    0    0 -0.32860573507E+01 -0.23517258470E+01  0.21208188286E+01  0.45636235752E+01  0.51100000000E-03 0.  1.
         12    1    3    3    0    0 -0.68554406958E+01 -0.23496835513E+02  0.12101409430E+02  0.27304623353E+02  0.00000000000E+00 0. -1.
</event>
<event>
 7    1  0.2486105E-010  0.4778727E+02  0.7816164E-02  0.1312668E+00
        -11   -1    0    0    0    0  0.00000000000E+00  0.00000000000E+00  0.45593999997E+02  0.45594000000E+02  0.51100000000E-03 0.  1.
         11   -1    0    0    0    0 -0.00000000000E+00 -0.00000000000E+00 -0.45593999997E+02  0.45594000000E+02  0.51100000000E-03 0. -1.
    9900012    2    1    2    0    0 -0.38842510592E+02 -0.18665475028E+01  0.19271704369E+02  0.47787271689E+02  0.20000002937E+02 0.  0.
         12    1    1    2    0    0  0.38842510592E+02  0.18665475028E+01 -0.19271704369E+02  0.43400728311E+02  0.00000000000E+00 0. -1.
         11    1    3    3    0    0 -0.15705391903E+02 -0.35635898690E+00  0.13710285003E+02  0.20850857097E+02  0.51100000000E-03 0. -1.
        -11    1    3    3    0    0 -0.55402280098E+01  0.63601548005E+00  0.72299660930E+01  0.91307749977E+01  0.51100000000E-03 0.  1.
         12    1    3    3    0    0 -0.17596890680E+02 -0.21462039960E+01 -0.16685467270E+01  0.17805639594E+02  0.00000000000E+00 0. -1.
</event>
<event>
 7    1  0.2486105E-010  0.4778727E+02  0.7816164E-02  0.1312668E+00
        -11   -1    0    0    0    0  0.00000000000E+00  0.00000000000E+00  0.45593999997E+02  0.45594000000E+02  0.51100000000E-03 0. -1.
         11   -1    0    0    0    0 -0.00000000000E+00 -0.00000000000E+00 -0.45593999997E+02  0.45594000000E+02  0.51100000000E-03 0.  1.
    9900012    2    1    2    0    0 -0.33053695225E+02 -0.14722860361E+02 -0.23964851491E+02  0.47787268529E+02  0.19999988532E+02 0.  0.
         12    1    1    2    0    0  0.33053695225E+02  0.14722860361E+02  0.23964851491E+02  0.43400731471E+02  0.00000000000E+00 0. -1.
         11    1    3    3    0    0 -0.25799291779E+01 -0.29509352601E+00 -0.63622129890E+01  0.68717442567E+01  0.51100000000E-03 0. -1.
        -11    1    3    3    0    0  0.10983235203E+01 -0.32402792379E+01 -0.20139840841E+01  0.39701204323E+01  0.51100000000E-03 0.  1.
        -12    1    3    3    0    0 -0.31572089567E+02 -0.11187487597E+02 -0.15588654418E+02  0.36945403840E+02  0.00000000000E+00 0.  1.
</event>
<event>
 7    1  0.2486105E-010  0.4778727E+02  0.7816164E-02  0.1312668E+00
        -11   -1    0    0    0    0  0.00000000000E+00  0.00000000000E+00  0.45593999997E+02  0.45594000000E+02  0.51100000000E-03 0. -1.
         11   -1    0    0    0    0 -0.00000000000E+00 -0.00000000000E+00 -0.45593999997E+02  0.45594000000E+02  0.51100000000E-03 0.  1.
    9900012    2    1    2    0    0 -0.36508700560E+01  0.28097269119E+02 -0.32876097591E+02  0.47787272162E+02  0.20000005095E+02 0.  0.
         12    1    1    2    0    0  0.36508700560E+01 -0.28097269119E+02  0.32876097591E+02  0.43400727838E+02  0.00000000000E+00 0. -1.
         11    1    3    3    0    0 -0.14277828744E+01  0.18318591966E+02 -0.14709568157E+02  0.23536796112E+02  0.51100000000E-03 0. -1.
        -11    1    3    3    0    0 -0.45364104101E-01  0.12364226874E+02 -0.12066993451E+02  0.17276819594E+02  0.51100000000E-03 0.  1.
         12    1    3    3    0    0 -0.21777230775E+01 -0.25855497216E+01 -0.60995359825E+01  0.69736564561E+01  0.00000000000E+00 0. -1.
</event>
<event>
 7    1  0.2486105E-010  0.4778727E+02  0.7816164E-02  0.1312668E+00
        -11   -1    0    0    0    0  0.00000000000E+00  0.00000000000E+00  0.45593999997E+02  0.45594000000E+02  0.51100000000E-03 0.  1.
         11   -1    0    0    0    0 -0.00000000000E+00 -0.00000000000E+00 -0.45593999997E+02  0.45594000000E+02  0.51100000000E-03 0. -1.
    9900012    2    1    2    0    0  0.14347766489E+02 -0.95138881595E+01  0.39840315609E+02  0.47787271677E+02  0.20000002885E+02 0.  0.
         12    1    1    2    0    0 -0.14347766489E+02  0.95138881595E+01 -0.39840315609E+02  0.43400728323E+02  0.00000000000E+00 0. -1.
         11    1    3    3    0    0  0.13508573205E+01 -0.89457589007E+00  0.10892933307E+01  0.19523426300E+01  0.51100000000E-03 0. -1.
        -11    1    3    3    0    0 -0.21566890621E+01 -0.91946507624E-01  0.20549854605E+02  0.20662920569E+02  0.51100000000E-03 0.  1.
        -12    1    3    3    0    0  0.15153598231E+02 -0.85273657618E+01  0.18201167673E+02  0.25172008478E+02  0.00000000000E+00 0.  1.
</event>
<event>
 7    1  0.2486105E-010  0.4778725E+02  0.7816164E-02  0.1312668E+00
        -11   -1    0    0    0    0  0.00000000000E+00  0.00000000000E+00  0.45593999997E+02  0.45594000000E+02  0.51100000000E-03 0. -1.
         11   -1    0    0    0    0 -0.00000000000E+00 -0.00000000000E+00 -0.45593999997E+02  0.45594000000E+02  0.51100000000E-03 0.  1.
    9900012    2    1    2    0    0 -0.67153624574E+01 -0.55253949914E+01 -0.42520573730E+02  0.47787248013E+02  0.19999894990E+02 0.  0.
         12    1    1    2    0    0  0.67153624574E+01  0.55253949914E+01  0.42520573730E+02  0.43400751987E+02  0.00000000000E+00 0. -1.
         11    1    3    3    0    0  0.40570906442E+00 -0.12493784122E+01 -0.39263029228E+01  0.41402175262E+01  0.51100000000E-03 0. -1.
        -11    1    3    3    0    0 -0.25554068670E+01  0.34438017692E+01 -0.32550699761E+02  0.32831965066E+02  0.51100000000E-03 0.  1.
         12    1    3    3    0    0 -0.45656646548E+01 -0.77198183484E+01 -0.60435710458E+01  0.10815065421E+02  0.00000000000E+00 0. -1.
</event>
<event>
 7    1  0.2486105E-010  0.4778727E+02  0.7816164E-02  0.1312668E+00
        -11   -1    0    0    0    0  0.00000000000E+00  0.00000000000E+00  0.45593999997E+02  0.45594000000E+02  0.51100000000E-03 0. -1.
         11   -1    0    0    0    0 -0.00000000000E+00 -0.00000000000E+00 -0.45593999997E+02  0.45594000000E+02  0.51100000000E-03 0.  1.
    9900012    2    1    2    0    0  0.54526001186E+01  0.36875993244E+02 -0.22227313187E+02  0.47787272157E+02  0.20000005073E+02 0.  0.
         12    1    1    2    0    0 -0.54526001186E+01 -0.36875993244E+02  0.22227313187E+02  0.43400727843E+02  0.00000000000E+00 0. -1.
         11    1    3    3    0    0  0.14971363467E+01  0.44027822103E+01 -0.43853406046E+01  0.63919575179E+01  0.51100000000E-03 0.  1.
        -11    1    3    3    0    0  0.13771634697E+01  0.21320200499E+02 -0.20537526833E+02  0.29635072756E+02  0.51100000000E-03 0. -1.
         12    1    3    3    0    0  0.25783003021E+01  0.11153010535E+02  0.26955542513E+01  0.11760241883E+02  0.00000000000E+00 0. -1.
</event>
<event>
 7    1  0.2486105E-010  0.4778727E+02  0.7816164E-02  0.1312668E+00
        -11   -1    0    0    0    0  0.00000000000E+00  0.00000000000E+00  0.45593999997E+02  0.45594000000E+02  0.51100000000E-03 0.  1.
         11   -1    0    0    0    0 -0.00000000000E+00 -0.00000000000E+00 -0.45593999997E+02  0.45594000000E+02  0.51100000000E-03 0. -1.
    9900012    2    1    2    0    0  0.96657397173E+01 -0.34263205547E+02  0.24823963620E+02  0.47787274794E+02  0.20000017095E+02 0.  0.
         12    1    1    2    0    0 -0.96657397173E+01  0.34263205547E+02 -0.24823963620E+02  0.43400725206E+02  0.00000000000E+00 0. -1.
         11    1    3    3    0    0 -0.32237899603E+01 -0.14545922523E+02  0.73993816664E+01  0.16635129487E+02  0.51100000000E-03 0. -1.
        -11    1    3    3    0    0  0.84196524137E+00 -0.70071719267E+01  0.97335782397E+00  0.71243799444E+01  0.51100000000E-03 0.  1.
        -12    1    3    3    0    0  0.12047564436E+02 -0.12710111097E+02  0.16451224129E+02  0.24027765362E+02  0.00000000000E+00 0.  1.
</event>
<event>
 7    1  0.2486105E-010  0.4778729E+02  0.7816164E-02  0.1312668E+00
        -11   -1    0    0    0    0  0.00000000000E+00  0.00000000000E+00  0.45593999997E+02  0.45594000000E+02  0.51100000000E-03 0.  1.
         11   -1    0    0    0    0 -0.00000000000E+00 -0.00000000000E+00 -0.45593999997E+02  0.45594000000E+02  0.51100000000E-03 0. -1.
    9900012    2    1    2    0    0  0.97720238098E+01  0.11101166846E+02  0.40803103690E+02  0.47787290035E+02  0.20000086587E+02 0.  0.
         12    1    1    2    0    0 -0.97720238098E+01 -0.11101166846E+02 -0.40803103690E+02  0.43400709965E+02  0.00000000000E+00 0. -1.
         11    1    3    3    0    0  0.11571691021E+01  0.26272268862E+01  0.12493539977E+02  0.12819122546E+02  0.51100000000E-03 0. -1.
        -11    1    3    3    0    0  0.13363632008E+02  0.51435502694E+01  0.23065192407E+02  0.27148588745E+02  0.51100000000E-03 0.  1.
         12    1    3    3    0    0 -0.47487773000E+01  0.33303896903E+01  0.52443713061E+01  0.78195787438E+01  0.00000000000E+00 0. -1.
</event>
<event>
 7    1  0.5178514E-010  0.4778727E+02  0.7816164E-02  0.1312668E+00
        -11   -1    0    0    0    0  0.00000000000E+00  0.00000000000E+00  0.45593999997E+02  0.45594000000E+02  0.51100000000E-03 0. -1.
         11   -1    0    0    0    0 -0.00000000000E+00 -0.00000000000E+00 -0.45593999997E+02  0.45594000000E+02  0.51100000000E-03 0.  1.
    9900012    2    1    2    0    0  0.40551216403E+02 -0.13535876231E+02 -0.74834539774E+01  0.47787272120E+02  0.20000004904E+02 0.  0.
         12    1    1    2    0    0 -0.40551216403E+02  0.13535876231E+02  0.74834539774E+01  0.43400727880E+02  0.00000000000E+00 0. -1.
         11    1    3    3    0    0  0.48005084150E+01 -0.30406335464E+01  0.38728305438E+01  0.68767107026E+01  0.51100000000E-03 0. -1.
        -11    1    3    3    0    0  0.34658841816E+01 -0.83225216128E+00 -0.57242287909E+01  0.67432775660E+01  0.51100000000E-03 0.  1.
        -12    1    3    3    0    0  0.32284823806E+02 -0.96629905236E+01 -0.56320557302E+01  0.34167283852E+02  0.00000000000E+00 0.  1.
</event>
<event>
 7    1  0.2486105E-010  0.4778727E+02  0.7816164E-02  0.1312668E+00
        -11   -1    0    0    0    0  0.00000000000E+00  0.00000000000E+00  0.45593999997E+02  0.45594000000E+02  0.51100000000E-03 0. -1.
         11   -1    0    0    0    0 -0.00000000000E+00 -0.00000000000E+00 -0.45593999997E+02  0.45594000000E+02  0.51100000000E-03 0.  1.
    9900012    2    1    2    0    0  0.17525117355E+02  0.39575059186E+02  0.32106394495E+01  0.47787271278E+02  0.20000001066E+02 0.  0.
         12    1    1    2    0    0 -0.17525117355E+02 -0.39575059186E+02 -0.32106394495E+01  0.43400728722E+02  0.00000000000E+00 0. -1.
         11    1    3    3    0    0 -0.19734883879E+01  0.52922765418E+01  0.19853671949E+01  0.59870301963E+01  0.51100000000E-03 0. -1.
        -11    1    3    3    0    0  0.53323611899E+01  0.38697488232E+01 -0.42007911083E+01  0.78138132823E+01  0.51100000000E-03 0.  1.
        -12    1    3    3    0    0  0.14166244553E+02  0.30413033821E+02  0.54260633629E+01  0.33986427800E+02  0.00000000000E+00 0.  1.
</event>
<event>
 7    1  0.2486105E-010  0.4778727E+02  0.7816164E-02  0.1312668E+00
        -11   -1    0    0    0    0  0.00000000000E+00  0.00000000000E+00  0.45593999997E+02  0.45594000000E+02  0.51100000000E-03 0.  1.
         11   -1    0    0    0    0 -0.00000000000E+00 -0.00000000000E+00 -0.45593999997E+02  0.45594000000E+02  0.51100000000E-03 0. -1.
    9900012    2    1    2    0    0  0.85144467630E+01  0.24418198584E+02  0.34855111163E+02  0.47787274200E+02  0.20000014387E+02 0.  0.
         12    1    1    2    0    0 -0.85144467630E+01 -0.24418198584E+02 -0.34855111163E+02  0.43400725800E+02  0.00000000000E+00 0. -1.
         11    1    3    3    0    0  0.24363488230E+01  0.11091194342E+01 -0.74409108926E-01  0.26779616284E+01  0.51100000000E-03 0. -1.
        -11    1    3    3    0    0 -0.41983806509E+00  0.72524945772E+01  0.22888568494E+02  0.24013777495E+02  0.51100000000E-03 0.  1.
         12    1    3    3    0    0  0.64979360051E+01  0.16056584572E+02  0.12040951778E+02  0.21095535077E+02  0.00000000000E+00 0. -1.
</event>
<event>
 7    1  0.2486105E-010  0.4778727E+02  0.7816164E-02  0.1312668E+00
        -11   -1    0    0    0    0  0.00000000000E+00  0.00000000000E+00  0.45593999997E+02  0.45594000000E+02  0.51100000000E-03 0.  1.
         11   -1    0    0    0    0 -0.00000000000E+00 -0.00000000000E+00 -0.45593999997E+02  0.45594000000E+02  0.51100000000E-03 0. -1.
    9900012    2    1    2    0    0 -0.22286066196E+00 -0.35572549060E+02  0.24862977223E+02  0.47787267865E+02  0.19999985503E+02 0.  0.
         12    1    1    2    0    0  0.22286066196E+00  0.35572549060E+02 -0.24862977223E+02  0.43400732135E+02  0.00000000000E+00 0. -1.
         11    1    3    3    0    0  0.27273164047E+01 -0.91678712424E+01  0.35543937941E+01  0.10204010652E+02  0.51100000000E-03 0. -1.
        -11    1    3    3    0    0 -0.60703136268E+01 -0.68510484246E+01  0.98140112456E+00  0.92059068251E+01  0.51100000000E-03 0.  1.
        -12    1    3    3    0    0  0.31201365601E+01 -0.19553629393E+02  0.20327182304E+02  0.28377350387E+02  0.00000000000E+00 0.  1.
</event>
<event>
 7    1  0.2486105E-010  0.4778728E+02  0.7816164E-02  0.1312668E+00
        -11   -1    0    0    0    0  0.00000000000E+00  0.00000000000E+00  0.45593999997E+02  0.45594000000E+02  0.51100000000E-03 0.  1.
         11   -1    0    0    0    0 -0.00000000000E+00 -0.00000000000E+00 -0.45593999997E+02  0.45594000000E+02  0.51100000000E-03 0. -1.
    9900012    2    1    2    0    0 -0.14978180653E+01 -0.14345159003E+02  0.40934033429E+02  0.47787284124E+02  0.20000059635E+02 0.  0.
         12    1    1    2    0    0  0.14978180653E+01  0.14345159003E+02 -0.40934033429E+02  0.43400715876E+02  0.00000000000E+00 0. -1.
         11    1    3    3    0    0 -0.63613105703E+01 -0.63447385889E+01  0.57460294413E+01  0.10664841046E+02  0.51100000000E-03 0. -1.
        -11    1    3    3    0    0 -0.12621472889E+01 -0.46605205460E+01  0.15508826164E+02  0.16243064883E+02  0.51100000000E-03 0.  1.
        -12    1    3    3    0    0  0.61256397939E+01 -0.33398998684E+01  0.19679177824E+02  0.20879378196E+02  0.00000000000E+00 0.  1.
</event>
<event>
 7    1  0.2486105E-010  0.4778727E+02  0.7816164E-02  0.1312668E+00
        -11   -1    0    0    0    0  0.00000000000E+00  0.00000000000E+00  0.45593999997E+02  0.45594000000E+02  0.51100000000E-03 0. -1.
         11   -1    0    0    0    0 -0.00000000000E+00 -0.00000000000E+00 -0.45593999997E+02  0.45594000000E+02  0.51100000000E-03 0.  1.
    9900012    2    1    2    0    0 -0.15716033869E+02 -0.40212872953E+02  0.44220186893E+01  0.47787272806E+02  0.20000008030E+02 0.  0.
         12    1    1    2    0    0  0.15716033869E+02  0.40212872953E+02 -0.44220186893E+01  0.43400727194E+02  0.00000000000E+00 0. -1.
         11    1    3    3    0    0  0.39462841366E+00  0.10784962985E+01 -0.12364861884E+00  0.11550649735E+01  0.51100000000E-03 0. -1.
        -11    1    3    3    0    0 -0.51139777012E+01 -0.24962801000E+02 -0.27682788459E+01  0.25631183542E+02  0.51100000000E-03 0.  1.
        -12    1    3    3    0    0 -0.10996684581E+02 -0.16328568251E+02  0.73139461541E+01  0.21001024291E+02  0.00000000000E+00 0.  1.
</event>
<event>
 7    1  0.2486105E-010  0.4778726E+02  0.7816164E-02  0.1312668E+00
        -11   -1    0    0    0    0  0.00000000000E+00  0.00000000000E+00  0.45593999997E+02  0.45594000000E+02  0.51100000000E-03 0.  1.
         11   -1    0    0    0    0 -0.00000000000E+00 -0.00000000000E+00 -0.45593999997E+02  0.45594000000E+02  0.51100000000E-03 0. -1.
    9900012    2    1    2    0    0  0.22739198987E+02 -0.58293695966E+01  0.36504407772E+02  0.47787256835E+02  0.19999935214E+02 0.  0.
         12    1    1    2    0    0 -0.22739198987E+02  0.58293695966E+01 -0.36504407772E+02  0.43400743165E+02  0.00000000000E+00 0. -1.
         11    1    3    3    0    0  0.90840175092E+01 -0.47963772192E+01  0.12051641184E+02  0.15835613788E+02  0.51100000000E-03 0. -1.
        -11    1    3    3    0    0  0.83154034743E+01 -0.53473567424E+01  0.45214763996E+01  0.10871242255E+02  0.51100000000E-03 0.  1.
        -12    1    3    3    0    0  0.53397780036E+01  0.43143643649E+01  0.19931290188E+02  0.21080400792E+02  0.00000000000E+00 0.  1.
</event>
<event>
 7    1  0.2486105E-010  0.4778727E+02  0.7816164E-02  0.1312668E+00
        -11   -1    0    0    0    0  0.00000000000E+00  0.00000000000E+00  0.45593999997E+02  0.45594000000E+02  0.51100000000E-03 0.  1.
         11   -1    0    0    0    0 -0.00000000000E+00 -0.00000000000E+00 -0.45593999997E+02  0.45594000000E+02  0.51100000000E-03 0. -1.
    9900012    2    1    2    0    0  0.85056414886E+01  0.30128923304E+02  0.30058698314E+02  0.47787270733E+02  0.19999998580E+02 0.  0.
         12    1    1    2    0    0 -0.85056414886E+01 -0.30128923304E+02 -0.30058698314E+02  0.43400729267E+02  0.00000000000E+00 0. -1.
         11    1    3    3    0    0 -0.14459261061E+01 -0.30385747295E+00  0.39471248070E+01  0.42145967982E+01  0.51100000000E-03 0.  1.
        -11    1    3    3    0    0  0.14185480741E+01  0.33476239536E+01 -0.15289601971E+01  0.39441836062E+01  0.51100000000E-03 0. -1.
        -12    1    3    3    0    0  0.85330195205E+01  0.27085156824E+02  0.27640533704E+02  0.39628490329E+02  0.00000000000E+00 0.  1.
</event>
<event>
 7    1  0.2486105E-010  0.4778728E+02  0.7816164E-02  0.1312668E+00
        -11   -1    0    0    0    0  0.00000000000E+00  0.00000000000E+00  0.45593999997E+02  0.45594000000E+02  0.51100000000E-03 0.  1.
         11   -1    0    0    0    0 -0.00000000000E+00 -0.00000000000E+00 -0.45593999997E+02  0.45594000000E+02  0.51100000000E-03 0. -1.
    9900012    2    1    2    0    0  0.86688064847E+01  0.13038783385E+02  0.40477947375E+02  0.47787282244E+02  0.20000051065E+02 0.  0.
         12    1    1    2    0    0 -0.86688064847E+01 -0.13038783385E+02 -0.40477947375E+02  0.43400717756E+02  0.00000000000E+00 0. -1.
         11    1    3    3    0    0  0.10942314772E+02  0.45991293426E+01  0.19432329583E+02  0.22770631888E+02  0.51100000000E-03 0. -1.
        -11    1    3    3    0    0  0.24331912412E+01  0.26909505975E+01  0.15016218859E+02  0.15448251157E+02  0.51100000000E-03 0.  1.
         12    1    3    3    0    0 -0.47066995283E+01  0.57487034452E+01  0.60293989326E+01  0.95683991994E+01  0.00000000000E+00 0. -1.
</event>
<event>
 7    1  0.2486105E-010  0.4778727E+02  0.7816164E-02  0.1312668E+00
        -11   -1    0    0    0    0  0.00000000000E+00  0.00000000000E+00  0.45593999997E+02  0.45594000000E+02  0.51100000000E-03 0.  1.
         11   -1    0    0    0    0 -0.00000000000E+00 -0.00000000000E+00 -0.45593999997E+02  0.45594000000E+02  0.51100000000E-03 0. -1.
    9900012    2    1    2    0    0 -0.32904550812E+02 -0.28249415113E+02  0.16984904931E+01  0.47787265118E+02  0.19999972977E+02 0.  0.
         12    1    1    2    0    0  0.32904550812E+02  0.28249415113E+02 -0.16984904931E+01  0.43400734882E+02  0.00000000000E+00 0. -1.
         11    1    3    3    0    0 -0.23888035081E+02 -0.15625181723E+02 -0.55031238804E+01  0.29070068741E+02  0.51100000000E-03 0. -1.
        -11    1    3    3    0    0 -0.56559424836E+01 -0.18397516806E+01  0.30354832079E+01  0.66774643534E+01  0.51100000000E-03 0.  1.
         12    1    3    3    0    0 -0.33605732475E+01 -0.10784481710E+02  0.41661311656E+01  0.12039732023E+02  0.00000000000E+00 0. -1.
</event>
<event>
 7    1  0.2486105E-010  0.4778728E+02  0.7816164E-02  0.1312668E+00
        -11   -1    0    0    0    0  0.00000000000E+00  0.00000000000E+00  0.45593999997E+02  0.45594000000E+02  0.51100000000E-03 0.  1.
         11   -1    0    0    0    0 -0.00000000000E+00 -0.00000000000E+00 -0.45593999997E+02  0.45594000000E+02  0.51100000000E-03 0. -1.
    9900012    2    1    2    0    0 -0.28427322811E+02  0.30841044578E+02  0.11150771803E+02  0.47787280828E+02  0.20000044606E+02 0.  0.
         12    1    1    2    0    0  0.28427322811E+02 -0.30841044578E+02 -0.11150771803E+02  0.43400719172E+02  0.00000000000E+00 0. -1.
         11    1    3    3    0    0 -0.47889222104E+01  0.11704245553E+02  0.37402386066E+01  0.13187589810E+02  0.51100000000E-03 0. -1.
        -11    1    3    3    0    0 -0.57481218102E+01  0.79331727864E+01  0.91684530116E+01  0.13417774245E+02  0.51100000000E-03 0.  1.
         12    1    3    3    0    0 -0.17890278790E+02  0.11203626239E+02 -0.17579198147E+01  0.21181916772E+02  0.00000000000E+00 0. -1.
</event>
<event>
 7    1  0.2486105E-010  0.4778728E+02  0.7816164E-02  0.1312668E+00
        -11   -1    0    0    0    0  0.00000000000E+00  0.00000000000E+00  0.45593999997E+02  0.45594000000E+02  0.51100000000E-03 0.  1.
         11   -1    0    0    0    0 -0.00000000000E+00 -0.00000000000E+00 -0.45593999997E+02  0.45594000000E+02  0.51100000000E-03 0. -1.
    9900012    2    1    2    0    0 -0.25240509972E+01  0.37798785171E+02  0.21177908965E+02  0.47787276251E+02  0.20000023737E+02 0.  0.
         12    1    1    2    0    0  0.25240509972E+01 -0.37798785171E+02 -0.21177908965E+02  0.43400723749E+02  0.00000000000E+00 0. -1.
         11    1    3    3    0    0 -0.28319050993E+01  0.16404466279E+01  0.19479293152E+01  0.38085667263E+01  0.51100000000E-03 0. -1.
        -11    1    3    3    0    0 -0.33975637429E+01  0.33728433504E+02  0.12940530490E+02  0.36285093298E+02  0.51100000000E-03 0.  1.
         12    1    3    3    0    0  0.37054178450E+01  0.24299050393E+01  0.62894491601E+01  0.76936162267E+01  0.00000000000E+00 0. -1.
</event>
<event>
 7    1  0.2486105E-010  0.4778727E+02  0.7816164E-02  0.1312668E+00
        -11   -1    0    0    0    0  0.00000000000E+00  0.00000000000E+00  0.45593999997E+02  0.45594000000E+02  0.51100000000E-03 0.  1.
         11   -1    0    0    0    0 -0.00000000000E+00 -0.00000000000E+00 -0.45593999997E+02  0.45594000000E+02  0.51100000000E-03 0. -1.
    9900012    2    1    2    0    0 -0.34271404263E+02  0.64802925625E+01  0.25828276471E+02  0.47787271812E+02  0.20000003497E+02 0.  0.
         12    1    1    2    0    0  0.34271404263E+02 -0.64802925625E+01 -0.25828276471E+02  0.43400728188E+02  0.00000000000E+00 0. -1.
         11    1    3    3    0    0 -0.81715568749E+01 -0.36344329733E+01  0.14418201525E+02  0.16966672634E+02  0.51100000000E-03 0. -1.
        -11    1    3    3    0    0 -0.64940192386E+01  0.21236647438E+01  0.56852851384E+01  0.88884591006E+01  0.51100000000E-03 0.  1.
         12    1    3    3    0    0 -0.19605828149E+02  0.79910607920E+01  0.57247898068E+01  0.21932140077E+02  0.00000000000E+00 0. -1.
</event>
<event>
 7    1  0.2486105E-010  0.4778728E+02  0.7816164E-02  0.1312668E+00
        -11   -1    0    0    0    0  0.00000000000E+00  0.00000000000E+00  0.45593999997E+02  0.45594000000E+02  0.51100000000E-03 0. -1.
         11   -1    0    0    0    0 -0.00000000000E+00 -0.00000000000E+00 -0.45593999997E+02  0.45594000000E+02  0.51100000000E-03 0.  1.
    9900012    2    1    2    0    0  0.23700500996E+02 -0.22070932571E+02 -0.28892611526E+02  0.47787276356E+02  0.20000024217E+02 0.  0.
         12    1    1    2    0    0 -0.23700500996E+02  0.22070932571E+02  0.28892611526E+02  0.43400723644E+02  0.00000000000E+00 0. -1.
         11    1    3    3    0    0  0.69096001931E+01  0.11459458280E+00 -0.83581183228E+01  0.10844991881E+02  0.51100000000E-03 0.  1.
        -11    1    3    3    0    0 -0.18627211355E+01 -0.17496312271E+01 -0.12219640380E+00  0.25584901176E+01  0.51100000000E-03 0. -1.
        -12    1    3    3    0    0  0.18653621939E+02 -0.20435895927E+02 -0.20412296799E+02  0.34383794357E+02  0.00000000000E+00 0.  1.
</event>
<event>
 7    1  0.2486105E-010  0.4778727E+02  0.7816164E-02  0.1312668E+00
        -11   -1    0    0    0    0  0.00000000000E+00  0.00000000000E+00  0.45593999997E+02  0.45594000000E+02  0.51100000000E-03 0.  1.
         11   -1    0    0    0    0 -0.00000000000E+00 -0.00000000000E+00 -0.45593999997E+02  0.45594000000E+02  0.51100000000E-03 0. -1.
    9900012    2    1    2    0    0  0.17767612331E+02  0.13803681797E+02  0.37113255341E+02  0.47787269579E+02  0.19999993319E+02 0.  0.
         12    1    1    2    0    0 -0.17767612331E+02 -0.13803681797E+02 -0.37113255341E+02  0.43400730421E+02  0.00000000000E+00 0. -1.
         11    1    3    3    0    0 -0.10952523818E+01  0.32024199030E+01  0.18036816716E+01  0.38351452187E+01  0.51100000000E-03 0. -1.
        -11    1    3    3    0    0  0.23437058877E+01  0.34999831338E+01  0.19686679291E+02  0.20132267160E+02  0.51100000000E-03 0.  1.
         12    1    3    3    0    0  0.16519158825E+02  0.71012787599E+01  0.15622894378E+02  0.23819857200E+02  0.00000000000E+00 0. -1.
</event>
<event>
 7    1  0.2486105E-010  0.4778727E+02  0.7816164E-02  0.1312668E+00
        -11   -1    0    0    0    0  0.00000000000E+00  0.00000000000E+00  0.45593999997E+02  0.45594000000E+02  0.51100000000E-03 0.  1.
         11   -1    0    0    0    0 -0.00000000000E+00 -0.00000000000E+00 -0.45593999997E+02  0.45594000000E+02  0.51100000000E-03 0. -1.
    9900012    2    1    2    0    0 -0.22375026307E+02  0.29903051482E+02  0.22108569684E+02  0.47787272545E+02  0.20000006841E+02 0.  0.
         12    1    1    2    0    0  0.22375026307E+02 -0.29903051482E+02 -0.22108569684E+02  0.43400727455E+02  0.00000000000E+00 0. -1.
         11    1    3    3    0    0  0.63853155150E+00  0.15860726237E+01 -0.12488774641E+01  0.21173200258E+01  0.51100000000E-03 0. -1.
        -11    1    3    3    0    0 -0.68356215192E+01  0.18088006987E+02  0.16231413657E+02  0.25245999840E+02  0.51100000000E-03 0.  1.
         12    1    3    3    0    0 -0.16177936340E+02  0.10228971871E+02  0.71260334905E+01  0.20423952679E+02  0.00000000000E+00 0. -1.
</event>
<event>
 7    1  0.2486105E-010  0.4778732E+02  0.7816164E-02  0.1312668E+00
        -11   -1    0    0    0    0  0.00000000000E+00  0.00000000000E+00  0.45593999997E+02  0.45594000000E+02  0.51100000000E-03 0. -1.
         11   -1    0    0    0    0 -0.00000000000E+00 -0.00000000000E+00 -0.45593999997E+02  0.45594000000E+02  0.51100000000E-03 0.  1.
    9900012    2    1    2    0    0 -0.42145976802E+02 -0.85096879877E+01 -0.59093771319E+01  0.47787321568E+02  0.20000230356E+02 0.  0.
         12    1    1    2    0    0  0.42145976802E+02  0.85096879877E+01  0.59093771319E+01  0.43400678432E+02  0.00000000000E+00 0. -1.
         11    1    3    3    0    0 -0.19938482883E+02 -0.46424488046E+01 -0.31200255878E+01  0.20708210702E+02  0.51100000000E-03 0. -1.
        -11    1    3    3    0    0 -0.23185790595E+02 -0.62904466685E+01 -0.37093960679E+01  0.24308645052E+02  0.51100000000E-03 0.  1.
         12    1    3    3    0    0  0.97829667518E+00  0.24232074854E+01  0.92004452377E+00  0.27704658142E+01  0.00000000000E+00 0. -1.
</event>
<event>
 7    1  0.2486105E-010  0.4778727E+02  0.7816164E-02  0.1312668E+00
        -11   -1    0    0    0    0  0.00000000000E+00  0.00000000000E+00  0.45593999997E+02  0.45594000000E+02  0.51100000000E-03 0.  1.
         11   -1    0    0    0    0 -0.00000000000E+00 -0.00000000000E+00 -0.45593999997E+02  0.45594000000E+02  0.51100000000E-03 0. -1.
    9900012    2    1    2    0    0  0.59467756739E+01  0.10174915504E+02  0.41769965123E+02  0.47787273822E+02  0.20000012663E+02 0.  0.
         12    1    1    2    0    0 -0.59467756739E+01 -0.10174915504E+02 -0.41769965123E+02  0.43400726178E+02  0.00000000000E+00 0. -1.
         11    1    3    3    0    0 -0.13627314894E+01 -0.50868468284E+01  0.65455273704E+01  0.84010104503E+01  0.51100000000E-03 0. -1.
        -11    1    3    3    0    0  0.25579124868E+01  0.41508398846E+01  0.58004607461E+01  0.75774489880E+01  0.51100000000E-03 0.  1.
        -12    1    3    3    0    0  0.47515946765E+01  0.11110922448E+02  0.29423977006E+02  0.31808814384E+02  0.00000000000E+00 0.  1.
</event>
<event>
 7    1  0.2486105E-010  0.4778729E+02  0.7816164E-02  0.1312668E+00
        -11   -1    0    0    0    0  0.00000000000E+00  0.00000000000E+00  0.45593999997E+02  0.45594000000E+02  0.51100000000E-03 0. -1.
         11   -1    0    0    0    0 -0.00000000000E+00 -0.00000000000E+00 -0.45593999997E+02  0.45594000000E+02  0.51100000000E-03 0.  1.
    9900012    2    1    2    0    0 -0.17298942852E+02 -0.28710064577E+02 -0.27569923498E+02  0.47787286717E+02  0.20000071455E+02 0.  0.
         12    1    1    2    0    0  0.17298942852E+02  0.28710064577E+02  0.27569923498E+02  0.43400713283E+02  0.00000000000E+00 0. -1.
         11    1    3    3    0    0  0.89750169570E-01  0.52576113124E-01 -0.24161747480E+01  0.24184127056E+01  0.51100000000E-03 0. -1.
        -11    1    3    3    0    0  0.76349370962E+00 -0.14424729251E+02 -0.75395737948E+01  0.16294198657E+02  0.51100000000E-03 0.  1.
         12    1    3    3    0    0 -0.18152186731E+02 -0.14337911439E+02 -0.17614174955E+02  0.29074675354E+02  0.00000000000E+00 0. -1.
</event>
<event>
 7    1  0.2486105E-010  0.4778727E+02  0.7816164E-02  0.1312668E+00
        -11   -1    0    0    0    0  0.00000000000E+00  0.00000000000E+00  0.45593999997E+02  0.45594000000E+02  0.51100000000E-03 0. -1.
         11   -1    0    0    0    0 -0.00000000000E+00 -0.00000000000E+00 -0.45593999997E+02  0.45594000000E+02  0.51100000000E-03 0.  1.
    9900012    2    1    2    0    0  0.13809578420E+02  0.29481561302E+02 -0.28701153668E+02  0.47787272646E+02  0.20000007304E+02 0.  0.
         12    1    1    2    0    0 -0.13809578420E+02 -0.29481561302E+02  0.28701153668E+02  0.43400727354E+02  0.00000000000E+00 0. -1.
         11    1    3    3    0    0  0.14455401190E+01 -0.16763109128E+01  0.11779771801E+01  0.25074359434E+01  0.51100000000E-03 0. -1.
        -11    1    3    3    0    0  0.20468290988E+00  0.22021038509E+01 -0.48381617191E+00  0.22638981454E+01  0.51100000000E-03 0.  1.
         12    1    3    3    0    0  0.12159355391E+02  0.28955768364E+02 -0.29395314676E+02  0.43015938558E+02  0.00000000000E+00 0. -1.
</event>
<event>
 7    1  0.2486105E-010  0.4778727E+02  0.7816164E-02  0.1312668E+00
        -11   -1    0    0    0    0  0.00000000000E+00  0.00000000000E+00  0.45593999997E+02  0.45594000000E+02  0.51100000000E-03 0. -1.
         11   -1    0    0    0    0 -0.00000000000E+00 -0.00000000000E+00 -0.45593999997E+02  0.45594000000E+02  0.51100000000E-03 0.  1.
    9900012    2    1    2    0    0  0.16532804448E+02  0.33801388315E+02 -0.21627670228E+02  0.47787267352E+02  0.19999983164E+02 0.  0.
         12    1    1    2    0    0 -0.16532804448E+02 -0.33801388315E+02  0.21627670228E+02  0.43400732648E+02  0.00000000000E+00 0. -1.
         11    1    3    3    0    0  0.57199375922E+01  0.60886144111E+01 -0.64316929313E+01  0.10543034939E+02  0.51100000000E-03 0. -1.
        -11    1    3    3    0    0  0.14076544282E+02  0.26638757825E+02 -0.11640105139E+02  0.32299606271E+02  0.51100000000E-03 0.  1.
         12    1    3    3    0    0 -0.32636774263E+01  0.10740160795E+01 -0.35558721573E+01  0.49446261417E+01  0.00000000000E+00 0. -1.
</event>
<event>
 7    1  0.2486105E-010  0.4778727E+02  0.7816164E-02  0.1312668E+00
        -11   -1    0    0    0    0  0.00000000000E+00  0.00000000000E+00  0.45593999997E+02  0.45594000000E+02  0.51100000000E-03 0. -1.
         11   -1    0    0    0    0 -0.00000000000E+00 -0.00000000000E+00 -0.45593999997E+02  0.45594000000E+02  0.51100000000E-03 0.  1.
    9900012    2    1    2    0    0 -0.58025686576E+01  0.39906840081E+02 -0.16043614432E+02  0.47787271293E+02  0.20000001134E+02 0.  0.
         12    1    1    2    0    0  0.58025686576E+01 -0.39906840081E+02  0.16043614432E+02  0.43400728707E+02  0.00000000000E+00 0. -1.
         11    1    3    3    0    0  0.72927126524E+00  0.41819981539E+00 -0.99647478799E+00  0.13037215685E+01  0.51100000000E-03 0. -1.
        -11    1    3    3    0    0  0.42784857310E+01  0.22469376693E+02 -0.31935409449E+01  0.23094956877E+02  0.51100000000E-03 0.  1.
        -12    1    3    3    0    0 -0.10810325654E+02  0.17019263573E+02 -0.11853598699E+02  0.23388592848E+02  0.00000000000E+00 0.  1.
</event>
<event>
 7    1  0.2486105E-010  0.4778728E+02  0.7816164E-02  0.1312668E+00
        -11   -1    0    0    0    0  0.00000000000E+00  0.00000000000E+00  0.45593999997E+02  0.45594000000E+02  0.51100000000E-03 0.  1.
         11   -1    0    0    0    0 -0.00000000000E+00 -0.00000000000E+00 -0.45593999997E+02  0.45594000000E+02  0.51100000000E-03 0. -1.
    9900012    2    1    2    0    0 -0.39486649903E+02  0.43126686188E+01  0.17487944208E+02  0.47787276229E+02  0.20000023639E+02 0.  0.
         12    1    1    2    0    0  0.39486649903E+02 -0.43126686188E+01 -0.17487944208E+02  0.43400723771E+02  0.00000000000E+00 0. -1.
         11    1    3    3    0    0 -0.17844385309E+02  0.63267739093E+00  0.67892665859E+01  0.19102787984E+02  0.51100000000E-03 0. -1.
        -11    1    3    3    0    0 -0.18462535169E+02 -0.32231868357E+01  0.57064917110E+01  0.19591278318E+02  0.51100000000E-03 0.  1.
         12    1    3    3    0    0 -0.31797294257E+01  0.69031780636E+01  0.49921859112E+01  0.90932099267E+01  0.00000000000E+00 0. -1.
</event>
<event>
 7    1  0.2486105E-010  0.4778726E+02  0.7816164E-02  0.1312668E+00
        -11   -1    0    0    0    0  0.00000000000E+00  0.00000000000E+00  0.45593999997E+02  0.45594000000E+02  0.51100000000E-03 0.  1.
         11   -1    0    0    0    0 -0.00000000000E+00 -0.00000000000E+00 -0.45593999997E+02  0.45594000000E+02  0.51100000000E-03 0. -1.
    9900012    2    1    2    0    0  0.26783179797E+02 -0.32667961519E+02  0.99543688262E+01  0.47787263963E+02  0.19999967712E+02 0.  0.
         12    1    1    2    0    0 -0.26783179797E+02  0.32667961519E+02 -0.99543688262E+01  0.43400736037E+02  0.00000000000E+00 0. -1.
         11    1    3    3    0    0  0.98547233710E+01 -0.36670267406E+01  0.39079004773E+01  0.11217590839E+02  0.51100000000E-03 0. -1.
        -11    1    3    3    0    0  0.41384146074E+00  0.59289899221E-01  0.29745989978E+01  0.30038341342E+01  0.51100000000E-03 0.  1.
         12    1    3    3    0    0  0.16514614965E+02 -0.29060224678E+02  0.30718693511E+01  0.33565838989E+02  0.00000000000E+00 0. -1.
</event>
<event>
 7    1  0.2486105E-010  0.4778727E+02  0.7816164E-02  0.1312668E+00
        -11   -1    0    0    0    0  0.00000000000E+00  0.00000000000E+00  0.45593999997E+02  0.45594000000E+02  0.51100000000E-03 0.  1.
         11   -1    0    0    0    0 -0.00000000000E+00 -0.00000000000E+00 -0.45593999997E+02  0.45594000000E+02  0.51100000000E-03 0. -1.
    9900012    2    1    2    0    0 -0.13390575644E+02 -0.35205854175E+02  0.21560707397E+02  0.47787265125E+02  0.19999973010E+02 0.  0.
         12    1    1    2    0    0  0.13390575644E+02  0.35205854175E+02 -0.21560707397E+02  0.43400734875E+02  0.00000000000E+00 0. -1.
         11    1    3    3    0    0 -0.41431423936E+01 -0.21533211964E+01  0.72957070888E+01  0.86619722498E+01  0.51100000000E-03 0. -1.
        -11    1    3    3    0    0 -0.14505187158E+01 -0.55065117928E+00 -0.15105627400E+01  0.21654148145E+01  0.51100000000E-03 0.  1.
        -12    1    3    3    0    0 -0.77969145345E+01 -0.32501881799E+02  0.15775563048E+02  0.36959878060E+02  0.00000000000E+00 0.  1.
</event>
<event>
 7    1  0.2486105E-010  0.4778727E+02  0.7816164E-02  0.1312668E+00
        -11   -1    0    0    0    0  0.00000000000E+00  0.00000000000E+00  0.45593999997E+02  0.45594000000E+02  0.51100000000E-03 0. -1.
         11   -1    0    0    0    0 -0.00000000000E+00 -0.00000000000E+00 -0.45593999997E+02  0.45594000000E+02  0.51100000000E-03 0.  1.
    9900012    2    1    2    0    0  0.14937374802E+02 -0.21290397724E+01 -0.40693553943E+02  0.47787270642E+02  0.19999998163E+02 0.  0.
         12    1    1    2    0    0 -0.14937374802E+02  0.21290397724E+01  0.40693553943E+02  0.43400729358E+02  0.00000000000E+00 0. -1.
         11    1    3    3    0    0  0.46563180317E+01 -0.56028630808E+01 -0.14428423845E+02  0.16163316096E+02  0.51100000000E-03 0. -1.
        -11    1    3    3    0    0  0.13493234182E+01 -0.50024085070E+01 -0.95231001564E+01  0.10841319173E+02  0.51100000000E-03 0.  1.
         12    1    3    3    0    0  0.89317333520E+01  0.84762318154E+01 -0.16742029942E+02  0.20782635372E+02  0.00000000000E+00 0. -1.
</event>
<event>
 7    1  0.2486105E-010  0.4778725E+02  0.7816164E-02  0.1312668E+00
        -11   -1    0    0    0    0  0.00000000000E+00  0.00000000000E+00  0.45593999997E+02  0.45594000000E+02  0.51100000000E-03 0. -1.
         11   -1    0    0    0    0 -0.00000000000E+00 -0.00000000000E+00 -0.45593999997E+02  0.45594000000E+02  0.51100000000E-03 0.  1.
    9900012    2    1    2    0    0 -0.31936098483E+02  0.27659376370E+02  0.99332362744E+01  0.47787254956E+02  0.19999926646E+02 0.  0.
         12    1    1    2    0    0  0.31936098483E+02 -0.27659376370E+02 -0.99332362744E+01  0.43400745044E+02  0.00000000000E+00 0. -1.
         11    1    3    3    0    0 -0.94466915836E+01  0.16442584559E+01  0.50701412720E+00  0.96021159820E+01  0.51100000000E-03 0.  1.
        -11    1    3    3    0    0 -0.95524606013E-01 -0.14056281352E+01 -0.36034559543E+00  0.14542230276E+01  0.51100000000E-03 0. -1.
        -12    1    3    3    0    0 -0.22393882293E+02  0.27420746050E+02  0.97865677426E+01  0.36730915946E+02  0.00000000000E+00 0.  1.
</event>
<event>
 7    1  0.2486105E-010  0.4778726E+02  0.7816164E-02  0.1312668E+00
        -11   -1    0    0    0    0  0.00000000000E+00  0.00000000000E+00  0.45593999997E+02  0.45594000000E+02  0.51100000000E-03 0.  1.
         11   -1    0    0    0    0 -0.00000000000E+00 -0.00000000000E+00 -0.45593999997E+02  0.45594000000E+02  0.51100000000E-03 0. -1.
    9900012    2    1    2    0    0 -0.20178156453E+02 -0.19798173388E+02  0.32931719324E+02  0.47787264926E+02  0.19999972105E+02 0.  0.
         12    1    1    2    0    0  0.20178156453E+02  0.19798173388E+02 -0.32931719324E+02  0.43400735074E+02  0.00000000000E+00 0. -1.
         11    1    3    3    0    0 -0.17020648855E-01  0.77447306719E+00  0.53990773437E+01  0.54543684015E+01  0.51100000000E-03 0. -1.
        -11    1    3    3    0    0 -0.26597670596E+01 -0.11339017839E+02  0.14673228605E+02  0.18733694892E+02  0.51100000000E-03 0.  1.
        -12    1    3    3    0    0 -0.17501368744E+02 -0.92336286159E+01  0.12859413375E+02  0.23599201633E+02  0.00000000000E+00 0.  1.
</event>
<event>
 7    1  0.2486105E-010  0.4778727E+02  0.7816164E-02  0.1312668E+00
        -11   -1    0    0    0    0  0.00000000000E+00  0.00000000000E+00  0.45593999997E+02  0.45594000000E+02  0.51100000000E-03 0.  1.
         11   -1    0    0    0    0 -0.00000000000E+00 -0.00000000000E+00 -0.45593999997E+02  0.45594000000E+02  0.51100000000E-03 0. -1.
    9900012    2    1    2    0    0  0.36819803690E+02  0.47685232490E+01  0.22476349568E+02  0.47787273651E+02  0.20000011883E+02 0.  0.
         12    1    1    2    0    0 -0.36819803690E+02 -0.47685232490E+01 -0.22476349568E+02  0.43400726349E+02  0.00000000000E+00 0. -1.
         11    1    3    3    0    0  0.14123591425E+01 -0.10579945626E+01  0.45682687675E+01  0.48972635865E+01  0.51100000000E-03 0. -1.
        -11    1    3    3    0    0  0.20301977347E+02 -0.43151920945E+01  0.88111209453E+01  0.22548326314E+02  0.51100000000E-03 0.  1.
         12    1    3    3    0    0  0.15105467201E+02  0.10141709906E+02  0.90969598555E+01  0.20341683750E+02  0.00000000000E+00 0. -1.
</event>
<event>
 7    1  0.2486105E-010  0.4778727E+02  0.7816164E-02  0.1312668E+00
        -11   -1    0    0    0    0  0.00000000000E+00  0.00000000000E+00  0.45593999997E+02  0.45594000000E+02  0.51100000000E-03 0.  1.
         11   -1    0    0    0    0 -0.00000000000E+00 -0.00000000000E+00 -0.45593999997E+02  0.45594000000E+02  0.51100000000E-03 0. -1.
    9900012    2    1    2    0    0  0.47074538024E+01 -0.35103875551E+01  0.43001630585E+02  0.47787272183E+02  0.20000005191E+02 0.  0.
         12    1    1    2    0    0 -0.47074538024E+01  0.35103875551E+01 -0.43001630585E+02  0.43400727817E+02  0.00000000000E+00 0. -1.
         11    1    3    3    0    0 -0.17152856044E+01  0.24363701268E+01  0.50506926427E+01  0.58640941783E+01  0.51100000000E-03 0. -1.
        -11    1    3    3    0    0 -0.12196588203E+01  0.24661275698E+00  0.27656628311E+02  0.27684607190E+02  0.51100000000E-03 0.  1.
         12    1    3    3    0    0  0.76423982271E+01 -0.61933704388E+01  0.10294309632E+02  0.14238570815E+02  0.00000000000E+00 0. -1.
</event>
<event>
 7    1  0.2486105E-010  0.4778728E+02  0.7816164E-02  0.1312668E+00
        -11   -1    0    0    0    0  0.00000000000E+00  0.00000000000E+00  0.45593999997E+02  0.45594000000E+02  0.51100000000E-03 0.  1.
         11   -1    0    0    0    0 -0.00000000000E+00 -0.00000000000E+00 -0.45593999997E+02  0.45594000000E+02  0.51100000000E-03 0. -1.
    9900012    2    1    2    0    0  0.14362692326E+02 -0.29938672111E+02  0.27946587697E+02  0.47787276705E+02  0.20000025809E+02 0.  0.
         12    1    1    2    0    0 -0.14362692326E+02  0.29938672111E+02 -0.27946587697E+02  0.43400723295E+02  0.00000000000E+00 0. -1.
         11    1    3    3    0    0 -0.18294578122E+01 -0.38587581702E-01  0.36993915762E+01  0.41272149427E+01  0.51100000000E-03 0. -1.
        -11    1    3    3    0    0  0.75300442646E+01 -0.13492975156E+02  0.18776409675E+02  0.24316979783E+02  0.51100000000E-03 0.  1.
        -12    1    3    3    0    0  0.86621058734E+01 -0.16407109373E+02  0.54707864454E+01  0.19343081980E+02  0.00000000000E+00 0.  1.
</event>
<event>
 7    1  0.2486105E-010  0.4778727E+02  0.7816164E-02  0.1312668E+00
        -11   -1    0    0    0    0  0.00000000000E+00  0.00000000000E+00  0.45593999997E+02  0.45594000000E+02  0.51100000000E-03 0.  1.
         11   -1    0    0    0    0 -0.00000000000E+00 -0.00000000000E+00 -0.45593999997E+02  0.45594000000E+02  0.51100000000E-03 0. -1.
    9900012    2    1    2    0    0 -0.27335714856E+02  0.15777844670E+02  0.29789956872E+02  0.47787271670E+02  0.20000002853E+02 0.  0.
         12    1    1    2    0    0  0.27335714856E+02 -0.15777844670E+02 -0.29789956872E+02  0.43400728330E+02  0.00000000000E+00 0. -1.
         11    1    3    3    0    0 -0.12368781770E+02  0.16286699221E+01  0.12762886135E+02  0.17847425331E+02  0.51100000000E-03 0. -1.
        -11    1    3    3    0    0 -0.25989507893E-01 -0.23597982270E+01  0.16968148147E+01  0.29066310229E+01  0.51100000000E-03 0.  1.
         12    1    3    3    0    0 -0.14940943579E+02  0.16508972975E+02  0.15330255922E+02  0.27033215316E+02  0.00000000000E+00 0. -1.
</event>
<event>
 7    1  0.2486105E-010  0.4778728E+02  0.7816164E-02  0.1312668E+00
        -11   -1    0    0    0    0  0.00000000000E+00  0.00000000000E+00  0.45593999997E+02  0.45594000000E+02  0.51100000000E-03 0.  1.
         11   -1    0    0    0    0 -0.00000000000E+00 -0.00000000000E+00 -0.45593999997E+02  0.45594000000E+02  0.51100000000E-03 0. -1.
    9900012    2    1    2    0    0 -0.59041275100E+01  0.23803093021E+02  0.35807498474E+02  0.47787275283E+02  0.20000019325E+02 0.  0.
         12    1    1    2    0    0  0.59041275100E+01 -0.23803093021E+02 -0.35807498474E+02  0.43400724717E+02  0.00000000000E+00 0. -1.
         11    1    3    3    0    0 -0.34519767916E+01  0.56092831553E+01  0.50985561586E+01  0.83291942257E+01  0.51100000000E-03 0. -1.
        -11    1    3    3    0    0  0.57091466976E+01  0.16987841843E+01  0.46545808340E+01  0.75594541285E+01  0.51100000000E-03 0.  1.
        -12    1    3    3    0    0 -0.81612974160E+01  0.16495025682E+02  0.26054361481E+02  0.31898626929E+02  0.00000000000E+00 0.  1.
</event>
<event>
 7    1  0.2486105E-010  0.4778727E+02  0.7816164E-02  0.1312668E+00
        -11   -1    0    0    0    0  0.00000000000E+00  0.00000000000E+00  0.45593999997E+02  0.45594000000E+02  0.51100000000E-03 0.  1.
         11   -1    0    0    0    0 -0.00000000000E+00 -0.00000000000E+00 -0.45593999997E+02  0.45594000000E+02  0.51100000000E-03 0. -1.
    9900012    2    1    2    0    0 -0.17636989829E+02  0.23464445523E+02  0.31968419507E+02  0.47787268903E+02  0.19999990238E+02 0.  0.
         12    1    1    2    0    0  0.17636989829E+02 -0.23464445523E+02 -0.31968419507E+02  0.43400731097E+02  0.00000000000E+00 0. -1.
         11    1    3    3    0    0 -0.18191501678E+01 -0.13289386998E+01  0.23070165208E+01  0.32245481683E+01  0.51100000000E-03 0. -1.
        -11    1    3    3    0    0 -0.17735818060E+02  0.19348301204E+02  0.28365499145E+02  0.38646054699E+02  0.51100000000E-03 0.  1.
         12    1    3    3    0    0  0.19179783987E+01  0.54450830189E+01  0.12959038408E+01  0.59166660363E+01  0.00000000000E+00 0. -1.
</event>
<event>
 7    1  0.2486105E-010  0.4778725E+02  0.7816164E-02  0.1312668E+00
        -11   -1    0    0    0    0  0.00000000000E+00  0.00000000000E+00  0.45593999997E+02  0.45594000000E+02  0.51100000000E-03 0.  1.
         11   -1    0    0    0    0 -0.00000000000E+00 -0.00000000000E+00 -0.45593999997E+02  0.45594000000E+02  0.51100000000E-03 0. -1.
    9900012    2    1    2    0    0  0.11624055331E+02 -0.20095170196E+02  0.36670017224E+02  0.47787254722E+02  0.19999925577E+02 0.  0.
         12    1    1    2    0    0 -0.11624055331E+02  0.20095170196E+02 -0.36670017224E+02  0.43400745278E+02  0.00000000000E+00 0. -1.
         11    1    3    3    0    0 -0.12812527614E+01  0.22715684382E+01  0.10274943932E+01  0.28031012820E+01  0.51100000000E-03 0. -1.
        -11    1    3    3    0    0  0.22527917342E+01 -0.33258377784E+01  0.11641021145E+01  0.41822722915E+01  0.51100000000E-03 0.  1.
        -12    1    3    3    0    0  0.10652516358E+02 -0.19040900856E+02  0.34478420716E+02  0.40801881148E+02  0.00000000000E+00 0.  1.
</event>
<event>
 7    1  0.2486105E-010  0.4778727E+02  0.7816164E-02  0.1312668E+00
        -11   -1    0    0    0    0  0.00000000000E+00  0.00000000000E+00  0.45593999997E+02  0.45594000000E+02  0.51100000000E-03 0.  1.
         11   -1    0    0    0    0 -0.00000000000E+00 -0.00000000000E+00 -0.45593999997E+02  0.45594000000E+02  0.51100000000E-03 0. -1.
    9900012    2    1    2    0    0 -0.11511736464E+02  0.39918661528E+02  0.12554036761E+02  0.47787268974E+02  0.19999990560E+02 0.  0.
         12    1    1    2    0    0  0.11511736464E+02 -0.39918661528E+02 -0.12554036761E+02  0.43400731026E+02  0.00000000000E+00 0. -1.
         11    1    3    3    0    0  0.18613268246E+01  0.11458961628E+02 -0.46877682036E+00  0.11618609689E+02  0.51100000000E-03 0. -1.
        -11    1    3    3    0    0 -0.91035833430E+01  0.10876600468E+02  0.55398065265E+00  0.14194455335E+02  0.51100000000E-03 0.  1.
        -12    1    3    3    0    0 -0.42694799454E+01  0.17583099432E+02  0.12468832929E+02  0.21974203951E+02  0.00000000000E+00 0.  1.
</event>
<event>
 7    1  0.2486105E-010  0.4778727E+02  0.7816164E-02  0.1312668E+00
        -11   -1    0    0    0    0  0.00000000000E+00  0.00000000000E+00  0.45593999997E+02  0.45594000000E+02  0.51100000000E-03 0. -1.
         11   -1    0    0    0    0 -0.00000000000E+00 -0.00000000000E+00 -0.45593999997E+02  0.45594000000E+02  0.51100000000E-03 0.  1.
    9900012    2    1    2    0    0  0.19698782067E+02 -0.23472579344E+02 -0.30734654431E+02  0.47787274442E+02  0.20000015490E+02 0.  0.
         12    1    1    2    0    0 -0.19698782067E+02  0.23472579344E+02  0.30734654431E+02  0.43400725558E+02  0.00000000000E+00 0. -1.
         11    1    3    3    0    0 -0.19323959805E+01  0.15125204033E+01 -0.98979672185E+00  0.26460479980E+01  0.51100000000E-03 0. -1.
        -11    1    3    3    0    0  0.16532467625E+01 -0.19731609161E+00 -0.35220672792E+01  0.38957819084E+01  0.51100000000E-03 0.  1.
        -12    1    3    3    0    0  0.19977931285E+02 -0.24787783656E+02 -0.26222790430E+02  0.41245444535E+02  0.00000000000E+00 0.  1.
</event>
<event>
 7    1  0.2486105E-010  0.4778728E+02  0.7816164E-02  0.1312668E+00
        -11   -1    0    0    0    0  0.00000000000E+00  0.00000000000E+00  0.45593999997E+02  0.45594000000E+02  0.51100000000E-03 0.  1.
         11   -1    0    0    0    0 -0.00000000000E+00 -0.00000000000E+00 -0.45593999997E+02  0.45594000000E+02  0.51100000000E-03 0. -1.
    9900012    2    1    2    0    0  0.24781704738E+02 -0.10663801146E+02  0.33996664145E+02  0.47787277453E+02  0.20000029220E+02 0.  0.
         12    1    1    2    0    0 -0.24781704738E+02  0.10663801146E+02 -0.33996664145E+02  0.43400722547E+02  0.00000000000E+00 0. -1.
         11    1    3    3    0    0  0.49730406474E+01  0.16050525269E+01  0.76921390811E+01  0.92992650677E+01  0.51100000000E-03 0. -1.
        -11    1    3    3    0    0  0.18077722178E+02 -0.11296491877E+02  0.28459557445E+02  0.35557856771E+02  0.51100000000E-03 0.  1.
         12    1    3    3    0    0  0.17309419120E+01 -0.97236179582E+00 -0.21550323811E+01  0.29301556150E+01  0.00000000000E+00 0. -1.
</event>
<event>
 7    1  0.2486105E-010  0.4778727E+02  0.7816164E-02  0.1312668E+00
        -11   -1    0    0    0    0  0.00000000000E+00  0.00000000000E+00  0.45593999997E+02  0.45594000000E+02  0.51100000000E-03 0.  1.
         11   -1    0    0    0    0 -0.00000000000E+00 -0.00000000000E+00 -0.45593999997E+02  0.45594000000E+02  0.51100000000E-03 0. -1.
    9900012    2    1    2    0    0  0.18344340569E+02 -0.38069384336E+02  0.98909241185E+01  0.47787271498E+02  0.20000002066E+02 0.  0.
         12    1    1    2    0    0 -0.18344340569E+02  0.38069384336E+02 -0.98909241185E+01  0.43400728502E+02  0.00000000000E+00 0. -1.
         11    1    3    3    0    0  0.83967748181E+01 -0.17435541884E+02  0.33024631513E+01  0.19631867238E+02  0.51100000000E-03 0.  1.
        -11    1    3    3    0    0  0.10117300946E+02 -0.17930217779E+02  0.10722710647E+02  0.23212690751E+02  0.51100000000E-03 0. -1.
         12    1    3    3    0    0 -0.16973519514E+00 -0.27036246726E+01 -0.41342496796E+01  0.49427135078E+01  0.00000000000E+00 0. -1.
</event>
<event>
 7    1  0.2520791E-010  0.4778728E+02  0.7816164E-02  0.1312668E+00
        -11   -1    0    0    0    0  0.00000000000E+00  0.00000000000E+00  0.45593999997E+02  0.45594000000E+02  0.51100000000E-03 0. -1.
         11   -1    0    0    0    0 -0.00000000000E+00 -0.00000000000E+00 -0.45593999997E+02  0.45594000000E+02  0.51100000000E-03 0.  1.
    9900012    2    1    2    0    0  0.11663843922E+02 -0.85972495534E+01 -0.40910445493E+02  0.47787279898E+02  0.20000040368E+02 0.  0.
         12    1    1    2    0    0 -0.11663843922E+02  0.85972495534E+01  0.40910445493E+02  0.43400720102E+02  0.00000000000E+00 0. -1.
         11    1    3    3    0    0  0.84085921079E+01 -0.47827827838E+01 -0.15259875619E+02  0.18067740218E+02  0.51100000000E-03 0. -1.
        -11    1    3    3    0    0  0.77772581368E+01 -0.49145381168E+00 -0.21105276266E+02  0.22497998966E+02  0.51100000000E-03 0.  1.
         12    1    3    3    0    0 -0.45220063232E+01 -0.33230129579E+01 -0.45452936081E+01  0.72215407143E+01  0.00000000000E+00 0. -1.
</event>
<event>
 7    1  0.2486105E-010  0.4778727E+02  0.7816164E-02  0.1312668E+00
        -11   -1    0    0    0    0  0.00000000000E+00  0.00000000000E+00  0.45593999997E+02  0.45594000000E+02  0.51100000000E-03 0.  1.
         11   -1    0    0    0    0 -0.00000000000E+00 -0.00000000000E+00 -0.45593999997E+02  0.45594000000E+02  0.51100000000E-03 0. -1.
    9900012    2    1    2    0    0  0.14926609358E+02  0.40530622403E+02 -0.42530188392E+01  0.47787272027E+02  0.20000004482E+02 0.  0.
         12    1    1    2    0    0 -0.14926609358E+02 -0.40530622403E+02  0.42530188392E+01  0.43400727973E+02  0.00000000000E+00 0. -1.
         11    1    3    3    0    0  0.22317061954E+01  0.37638394501E+01  0.16380373486E+01  0.46722763794E+01  0.51100000000E-03 0. -1.
        -11    1    3    3    0    0  0.12637294090E+02  0.33851285413E+02  0.44948773466E+00  0.36136031402E+02  0.51100000000E-03 0.  1.
         12    1    3    3    0    0  0.57609072320E-01  0.29154975400E+01 -0.63405439225E+01  0.69789642457E+01  0.00000000000E+00 0. -1.
</event>
<event>
 7    1  0.2486105E-010  0.4778727E+02  0.7816164E-02  0.1312668E+00
        -11   -1    0    0    0    0  0.00000000000E+00  0.00000000000E+00  0.45593999997E+02  0.45594000000E+02  0.51100000000E-03 0. -1.
         11   -1    0    0    0    0 -0.00000000000E+00 -0.00000000000E+00 -0.45593999997E+02  0.45594000000E+02  0.51100000000E-03 0.  1.
    9900012    2    1    2    0    0 -0.46905628361E+01  0.10448297393E+01 -0.43133865772E+02  0.47787269299E+02  0.19999992043E+02 0.  0.
         12    1    1    2    0    0  0.46905628361E+01 -0.10448297393E+01  0.43133865772E+02  0.43400730701E+02  0.00000000000E+00 0. -1.
         11    1    3    3    0    0  0.26017807378E+01 -0.38877911161E+01 -0.18221563114E+02  0.18812483764E+02  0.51100000000E-03 0. -1.
        -11    1    3    3    0    0 -0.72243338504E+01  0.34426741716E+01 -0.25951222737E+02  0.27157116321E+02  0.51100000000E-03 0.  1.
        -12    1    3    3    0    0 -0.68009723455E-01  0.14899466837E+01  0.10389200795E+01  0.18176692148E+01  0.00000000000E+00 0.  1.
</event>
<event>
 7    1  0.2486105E-010  0.4778727E+02  0.7816164E-02  0.1312668E+00
        -11   -1    0    0    0    0  0.00000000000E+00  0.00000000000E+00  0.45593999997E+02  0.45594000000E+02  0.51100000000E-03 0. -1.
         11   -1    0    0    0    0 -0.00000000000E+00 -0.00000000000E+00 -0.45593999997E+02  0.45594000000E+02  0.51100000000E-03 0.  1.
    9900012    2    1    2    0    0  0.43236016370E+02 -0.16734047613E+01  0.33867113164E+01  0.47787271796E+02  0.20000003428E+02 0.  0.
         12    1    1    2    0    0 -0.43236016370E+02  0.16734047613E+01 -0.33867113164E+01  0.43400728204E+02  0.00000000000E+00 0. -1.
         11    1    3    3    0    0  0.12761413665E+02 -0.40480017038E+01 -0.64980499418E+01  0.14881688407E+02  0.51100000000E-03 0.  1.
        -11    1    3    3    0    0  0.23764569727E+02 -0.28817328505E+00  0.52887877115E+01  0.24347671220E+02  0.51100000000E-03 0. -1.
        -12    1    3    3    0    0  0.67100329781E+01  0.26627702275E+01  0.45959735467E+01  0.85579121691E+01  0.00000000000E+00 0.  1.
</event>
<event>
 7    1  0.2486105E-010  0.4778727E+02  0.7816164E-02  0.1312668E+00
        -11   -1    0    0    0    0  0.00000000000E+00  0.00000000000E+00  0.45593999997E+02  0.45594000000E+02  0.51100000000E-03 0. -1.
         11   -1    0    0    0    0 -0.00000000000E+00 -0.00000000000E+00 -0.45593999997E+02  0.45594000000E+02  0.51100000000E-03 0.  1.
    9900012    2    1    2    0    0 -0.20207238581E+02 -0.18131224329E+02 -0.33860738982E+02  0.47787269232E+02  0.19999991737E+02 0.  0.
         12    1    1    2    0    0  0.20207238581E+02  0.18131224329E+02  0.33860738982E+02  0.43400730768E+02  0.00000000000E+00 0. -1.
         11    1    3    3    0    0 -0.71665226734E+01 -0.63789850326E+01 -0.67132822582E+01  0.11709767556E+02  0.51100000000E-03 0. -1.
        -11    1    3    3    0    0 -0.58399798549E+01 -0.39868369056E+01 -0.14497597501E+00  0.70725703610E+01  0.51100000000E-03 0.  1.
        -12    1    3    3    0    0 -0.72007360531E+01 -0.77654023908E+01 -0.27002480749E+02  0.29004931315E+02  0.00000000000E+00 0.  1.
</event>
<event>
 7    1  0.2486105E-010  0.4778727E+02  0.7816164E-02  0.1312668E+00
        -11   -1    0    0    0    0  0.00000000000E+00  0.00000000000E+00  0.45593999997E+02  0.45594000000E+02  0.51100000000E-03 0. -1.
         11   -1    0    0    0    0 -0.00000000000E+00 -0.00000000000E+00 -0.45593999997E+02  0.45594000000E+02  0.51100000000E-03 0.  1.
    9900012    2    1    2    0    0 -0.22683628707E+02 -0.32951242664E+02 -0.16831276547E+02  0.47787271036E+02  0.19999999961E+02 0.  0.
         12    1    1    2    0    0  0.22683628707E+02  0.32951242664E+02  0.16831276547E+02  0.43400728964E+02  0.00000000000E+00 0. -1.
         11    1    3    3    0    0  0.10497811881E+01 -0.20215567837E+01  0.18302818618E+00  0.22852203287E+01  0.51100000000E-03 0. -1.
        -11    1    3    3    0    0 -0.18622755821E+02 -0.21452279958E+02 -0.41230986891E+01  0.28705527217E+02  0.51100000000E-03 0.  1.
        -12    1    3    3    0    0 -0.51106540747E+01 -0.94774059220E+01 -0.12891206044E+02  0.16796523490E+02  0.00000000000E+00 0.  1.
</event>
<event>
 7    1  0.2486105E-010  0.4778727E+02  0.7816164E-02  0.1312668E+00
        -11   -1    0    0    0    0  0.00000000000E+00  0.00000000000E+00  0.45593999997E+02  0.45594000000E+02  0.51100000000E-03 0.  1.
         11   -1    0    0    0    0 -0.00000000000E+00 -0.00000000000E+00 -0.45593999997E+02  0.45594000000E+02  0.51100000000E-03 0. -1.
    9900012    2    1    2    0    0 -0.16894696782E+02  0.14571277457E+02  0.37227281544E+02  0.47787269623E+02  0.19999993518E+02 0.  0.
         12    1    1    2    0    0  0.16894696782E+02 -0.14571277457E+02 -0.37227281544E+02  0.43400730377E+02  0.00000000000E+00 0. -1.
         11    1    3    3    0    0 -0.12770661645E+02  0.11059474667E+02  0.16153829621E+02  0.23374088012E+02  0.51100000000E-03 0. -1.
        -11    1    3    3    0    0 -0.66491109053E+01  0.39994077882E+01  0.82150798571E+01  0.11300153796E+02  0.51100000000E-03 0.  1.
         12    1    3    3    0    0  0.25250757674E+01 -0.48760499801E+00  0.12858372067E+02  0.13113027815E+02  0.00000000000E+00 0. -1.
</event>
<event>
 7    1  0.2486105E-010  0.4778726E+02  0.7816164E-02  0.1312668E+00
        -11   -1    0    0    0    0  0.00000000000E+00  0.00000000000E+00  0.45593999997E+02  0.45594000000E+02  0.51100000000E-03 0.  1.
         11   -1    0    0    0    0 -0.00000000000E+00 -0.00000000000E+00 -0.45593999997E+02  0.45594000000E+02  0.51100000000E-03 0. -1.
    9900012    2    1    2    0    0  0.43283983693E+02  0.63159364632E+00  0.31179900012E+01  0.47787262488E+02  0.19999960990E+02 0.  0.
         12    1    1    2    0    0 -0.43283983693E+02 -0.63159364632E+00 -0.31179900012E+01  0.43400737512E+02  0.00000000000E+00 0. -1.
         11    1    3    3    0    0 -0.18663874324E+00  0.30306812047E+01  0.22005875801E+00  0.30443864247E+01  0.51100000000E-03 0. -1.
        -11    1    3    3    0    0  0.11009540586E+02 -0.19749024590E+01 -0.33648866958E+01  0.11680440333E+02  0.51100000000E-03 0.  1.
        -12    1    3    3    0    0  0.32461081851E+02 -0.42418509935E+00  0.62628179390E+01  0.33062435731E+02  0.00000000000E+00 0.  1.
</event>
<event>
 7    1  0.2486105E-010  0.4778727E+02  0.7816164E-02  0.1312668E+00
        -11   -1    0    0    0    0  0.00000000000E+00  0.00000000000E+00  0.45593999997E+02  0.45594000000E+02  0.51100000000E-03 0.  1.
         11   -1    0    0    0    0 -0.00000000000E+00 -0.00000000000E+00 -0.45593999997E+02  0.45594000000E+02  0.51100000000E-03 0. -1.
    9900012    2    1    2    0    0 -0.15838195734E+02  0.24821361873E+02  0.31885335095E+02  0.47787273699E+02  0.20000012101E+02 0.  0.
         12    1    1    2    0    0  0.15838195734E+02 -0.24821361873E+02 -0.31885335095E+02  0.43400726301E+02  0.00000000000E+00 0. -1.
         11    1    3    3    0    0 -0.96152995674E+01  0.49269921424E+01  0.10196368290E+02  0.14855812462E+02  0.51100000000E-03 0.  1.
        -11    1    3    3    0    0 -0.16559221215E+01 -0.12956440756E+01 -0.21674362859E+00  0.21137052076E+01  0.51100000000E-03 0. -1.
        -12    1    3    3    0    0 -0.45669740454E+01  0.21190013806E+02  0.21905710434E+02  0.30817756029E+02  0.00000000000E+00 0.  1.
</event>
<event>
 7    1  0.2486105E-010  0.4778727E+02  0.7816164E-02  0.1312668E+00
        -11   -1    0    0    0    0  0.00000000000E+00  0.00000000000E+00  0.45593999997E+02  0.45594000000E+02  0.51100000000E-03 0.  1.
         11   -1    0    0    0    0 -0.00000000000E+00 -0.00000000000E+00 -0.45593999997E+02  0.45594000000E+02  0.51100000000E-03 0. -1.
    9900012    2    1    2    0    0  0.15639864715E+02  0.30757509438E+02  0.26324770632E+02  0.47787270698E+02  0.19999998420E+02 0.  0.
         12    1    1    2    0    0 -0.15639864715E+02 -0.30757509438E+02 -0.26324770632E+02  0.43400729302E+02  0.00000000000E+00 0. -1.
         11    1    3    3    0    0  0.47829414705E+01  0.27068893949E+00  0.42502033053E+01  0.64042197034E+01  0.51100000000E-03 0. -1.
        -11    1    3    3    0    0 -0.29965188119E+01  0.79046255076E+01  0.43431273441E+01  0.95039457487E+01  0.51100000000E-03 0.  1.
        -12    1    3    3    0    0  0.13853442056E+02  0.22582194991E+02  0.17731439983E+02  0.31879105246E+02  0.00000000000E+00 0.  1.
</event>
<event>
 7    1  0.2486105E-010  0.4778728E+02  0.7816164E-02  0.1312668E+00
        -11   -1    0    0    0    0  0.00000000000E+00  0.00000000000E+00  0.45593999997E+02  0.45594000000E+02  0.51100000000E-03 0.  1.
         11   -1    0    0    0    0 -0.00000000000E+00 -0.00000000000E+00 -0.45593999997E+02  0.45594000000E+02  0.51100000000E-03 0. -1.
    9900012    2    1    2    0    0 -0.24206900128E+01  0.38845568927E+02  0.19203773200E+02  0.47787275691E+02  0.20000021186E+02 0.  0.
         12    1    1    2    0    0  0.24206900128E+01 -0.38845568927E+02 -0.19203773200E+02  0.43400724309E+02  0.00000000000E+00 0. -1.
         11    1    3    3    0    0 -0.12758701151E+01  0.55613242582E+00  0.43429907357E+01  0.45605588053E+01  0.51100000000E-03 0. -1.
        -11    1    3    3    0    0 -0.50270041542E+01  0.10753692931E+02  0.87713653432E+01  0.14759726714E+02  0.51100000000E-03 0.  1.
        -12    1    3    3    0    0  0.38821842565E+01  0.27535743570E+02  0.60894171211E+01  0.28466990172E+02  0.00000000000E+00 0.  1.
</event>
<event>
 7    1  0.2486105E-010  0.4778729E+02  0.7816164E-02  0.1312668E+00
        -11   -1    0    0    0    0  0.00000000000E+00  0.00000000000E+00  0.45593999997E+02  0.45594000000E+02  0.51100000000E-03 0.  1.
         11   -1    0    0    0    0 -0.00000000000E+00 -0.00000000000E+00 -0.45593999997E+02  0.45594000000E+02  0.51100000000E-03 0. -1.
    9900012    2    1    2    0    0 -0.41167780657E+02  0.11281070684E+02  0.78468644909E+01  0.47787285693E+02  0.20000066790E+02 0.  0.
         12    1    1    2    0    0  0.41167780657E+02 -0.11281070684E+02 -0.78468644909E+01  0.43400714307E+02  0.00000000000E+00 0. -1.
         11    1    3    3    0    0 -0.13748885041E+02 -0.12285992451E+01  0.43594246121E+00  0.13810551838E+02  0.51100000000E-03 0. -1.
        -11    1    3    3    0    0 -0.28542504892E+02  0.97724313065E+01  0.71608694371E+01  0.31007306405E+02  0.51100000000E-03 0.  1.
         12    1    3    3    0    0  0.11236092759E+01  0.27372386230E+01  0.25005259261E+00  0.29694274504E+01  0.00000000000E+00 0. -1.
</event>
<event>
 7    1  0.2486105E-010  0.4778725E+02  0.7816164E-02  0.1312668E+00
        -11   -1    0    0    0    0  0.00000000000E+00  0.00000000000E+00  0.45593999997E+02  0.45594000000E+02  0.51100000000E-03 0.  1.
         11   -1    0    0    0    0 -0.00000000000E+00 -0.00000000000E+00 -0.45593999997E+02  0.45594000000E+02  0.51100000000E-03 0. -1.
    9900012    2    1    2    0    0 -0.29417669075E+01 -0.40905665186E+02  0.14202017274E+02  0.47787254252E+02  0.19999923437E+02 0.  0.
         12    1    1    2    0    0  0.29417669075E+01  0.40905665186E+02 -0.14202017274E+02  0.43400745748E+02  0.00000000000E+00 0. -1.
         11    1    3    3    0    0 -0.59763009975E+01 -0.14322205813E+02  0.56185220097E+01  0.16504833922E+02  0.51100000000E-03 0.  1.
        -11    1    3    3    0    0 -0.52468841153E+01 -0.80074302950E+01  0.43153110490E+01  0.10500982933E+02  0.51100000000E-03 0. -1.
        -12    1    3    3    0    0  0.82814182052E+01 -0.18576029077E+02  0.42681842155E+01  0.20781437397E+02  0.00000000000E+00 0.  1.
</event>
<event>
 7    1  0.2486105E-010  0.4778727E+02  0.7816164E-02  0.1312668E+00
        -11   -1    0    0    0    0  0.00000000000E+00  0.00000000000E+00  0.45593999997E+02  0.45594000000E+02  0.51100000000E-03 0. -1.
         11   -1    0    0    0    0 -0.00000000000E+00 -0.00000000000E+00 -0.45593999997E+02  0.45594000000E+02  0.51100000000E-03 0.  1.
    9900012    2    1    2    0    0 -0.12876716738E+02 -0.29877500820E+02  0.28725393635E+02  0.47787272717E+02  0.20000007627E+02 0.  0.
         12    1    1    2    0    0  0.12876716738E+02  0.29877500820E+02 -0.28725393635E+02  0.43400727283E+02  0.00000000000E+00 0. -1.
         11    1    3    3    0    0 -0.60849122933E+00  0.13096181814E+01 -0.64529190539E+00  0.15816963241E+01  0.51100000000E-03 0. -1.
        -11    1    3    3    0    0  0.21758561020E+01 -0.20191272619E+01  0.13657738872E+01  0.32675010709E+01  0.51100000000E-03 0.  1.
        -12    1    3    3    0    0 -0.14444081611E+02 -0.29167991739E+02  0.28004911653E+02  0.42938075322E+02  0.00000000000E+00 0.  1.
</event>
<event>
 7    1  0.2486105E-010  0.4778727E+02  0.7816164E-02  0.1312668E+00
        -11   -1    0    0    0    0  0.00000000000E+00  0.00000000000E+00  0.45593999997E+02  0.45594000000E+02  0.51100000000E-03 0.  1.
         11   -1    0    0    0    0 -0.00000000000E+00 -0.00000000000E+00 -0.45593999997E+02  0.45594000000E+02  0.51100000000E-03 0. -1.
    9900012    2    1    2    0    0 -0.37957990084E+02 -0.20846349563E+02 -0.28712318011E+01  0.47787271050E+02  0.20000000025E+02 0.  0.
         12    1    1    2    0    0  0.37957990084E+02  0.20846349563E+02  0.28712318011E+01  0.43400728950E+02  0.00000000000E+00 0. -1.
         11    1    3    3    0    0 -0.54457976307E+01 -0.83481215969E+01  0.11933477631E+01  0.10038522061E+02  0.51100000000E-03 0. -1.
        -11    1    3    3    0    0 -0.12267329777E+02 -0.97659069403E+01  0.33182300931E+01  0.16027194684E+02  0.51100000000E-03 0.  1.
         12    1    3    3    0    0 -0.20244862676E+02 -0.27323210261E+01 -0.73828096573E+01  0.21721554304E+02  0.00000000000E+00 0. -1.
</event>
<event>
 7    1  0.2486105E-010  0.4778727E+02  0.7816164E-02  0.1312668E+00
        -11   -1    0    0    0    0  0.00000000000E+00  0.00000000000E+00  0.45593999997E+02  0.45594000000E+02  0.51100000000E-03 0.  1.
         11   -1    0    0    0    0 -0.00000000000E+00 -0.00000000000E+00 -0.45593999997E+02  0.45594000000E+02  0.51100000000E-03 0. -1.
    9900012    2    1    2    0    0  0.26319549046E+02  0.27341764984E+02  0.21055466248E+02  0.47787269207E+02  0.19999991625E+02 0.  0.
         12    1    1    2    0    0 -0.26319549046E+02 -0.27341764984E+02 -0.21055466248E+02  0.43400730793E+02  0.00000000000E+00 0. -1.
         11    1    3    3    0    0  0.16197583726E+02  0.10149888005E+02  0.17330680112E+01  0.19193370472E+02  0.51100000000E-03 0. -1.
        -11    1    3    3    0    0 -0.27184017435E+00  0.44522097175E+01  0.27017725913E+01  0.52149442802E+01  0.51100000000E-03 0.  1.
        -12    1    3    3    0    0  0.10393805494E+02  0.12739667261E+02  0.16620625646E+02  0.23378954455E+02  0.00000000000E+00 0.  1.
</event>
<event>
 7    1  0.2486105E-010  0.4778727E+02  0.7816164E-02  0.1312668E+00
        -11   -1    0    0    0    0  0.00000000000E+00  0.00000000000E+00  0.45593999997E+02  0.45594000000E+02  0.51100000000E-03 0. -1.
         11   -1    0    0    0    0 -0.00000000000E+00 -0.00000000000E+00 -0.45593999997E+02  0.45594000000E+02  0.51100000000E-03 0.  1.
    9900012    2    1    2    0    0  0.34097876398E+02  0.24249413755E+02 -0.11529277327E+02  0.47787268693E+02  0.19999989277E+02 0.  0.
         12    1    1    2    0    0 -0.34097876398E+02 -0.24249413755E+02  0.11529277327E+02  0.43400731307E+02  0.00000000000E+00 0. -1.
         11    1    3    3    0    0 -0.16950643534E+00 -0.61912559192E+00 -0.17769449704E+01  0.18893339089E+01  0.51100000000E-03 0. -1.
        -11    1    3    3    0    0  0.15914393695E+02  0.14765899208E+02 -0.12038241316E+02  0.24823757982E+02  0.51100000000E-03 0.  1.
        -12    1    3    3    0    0  0.18352989138E+02  0.10102640139E+02  0.22859089599E+01  0.21074176802E+02  0.00000000000E+00 0.  1.
</event>
<event>
 7    1  0.2486105E-010  0.4778728E+02  0.7816164E-02  0.1312668E+00
        -11   -1    0    0    0    0  0.00000000000E+00  0.00000000000E+00  0.45593999997E+02  0.45594000000E+02  0.51100000000E-03 0. -1.
         11   -1    0    0    0    0 -0.00000000000E+00 -0.00000000000E+00 -0.45593999997E+02  0.45594000000E+02  0.51100000000E-03 0.  1.
    9900012    2    1    2    0    0  0.33347744202E+02 -0.26859079278E+02 -0.70809564096E+01  0.47787284260E+02  0.20000060255E+02 0.  0.
         12    1    1    2    0    0 -0.33347744202E+02  0.26859079278E+02  0.70809564096E+01  0.43400715740E+02  0.00000000000E+00 0. -1.
         11    1    3    3    0    0  0.47911094113E+01 -0.14297499109E+02 -0.77782204998E+00  0.15098947565E+02  0.51100000000E-03 0. -1.
        -11    1    3    3    0    0  0.14985369933E+02 -0.82654691253E+01 -0.68721318579E+01  0.18441949149E+02  0.51100000000E-03 0.  1.
        -12    1    3    3    0    0  0.13571264858E+02 -0.42961110442E+01  0.56899749833E+00  0.14246387546E+02  0.00000000000E+00 0.  1.
</event>
<event>
 7    1  0.2486105E-010  0.4778728E+02  0.7816164E-02  0.1312668E+00
        -11   -1    0    0    0    0  0.00000000000E+00  0.00000000000E+00  0.45593999997E+02  0.45594000000E+02  0.51100000000E-03 0.  1.
         11   -1    0    0    0    0 -0.00000000000E+00 -0.00000000000E+00 -0.45593999997E+02  0.45594000000E+02  0.51100000000E-03 0. -1.
    9900012    2    1    2    0    0 -0.21819931370E+02 -0.36199840236E+02  0.98531370973E+01  0.47787284006E+02  0.20000059098E+02 0.  0.
         12    1    1    2    0    0  0.21819931370E+02  0.36199840236E+02 -0.98531370973E+01  0.43400715994E+02  0.00000000000E+00 0. -1.
         11    1    3    3    0    0 -0.10020194930E+02 -0.61544816232E+01  0.49926892166E+01  0.12775323728E+02  0.51100000000E-03 0. -1.
        -11    1    3    3    0    0 -0.77899697135E+01 -0.64057053057E+01 -0.15221438692E+01  0.10199686800E+02  0.51100000000E-03 0.  1.
        -12    1    3    3    0    0 -0.40097667263E+01 -0.23639653307E+02  0.63825917499E+01  0.24812273478E+02  0.00000000000E+00 0.  1.
</event>
<event>
 7    1  0.2486105E-010  0.4778727E+02  0.7816164E-02  0.1312668E+00
        -11   -1    0    0    0    0  0.00000000000E+00  0.00000000000E+00  0.45593999997E+02  0.45594000000E+02  0.51100000000E-03 0.  1.
         11   -1    0    0    0    0 -0.00000000000E+00 -0.00000000000E+00 -0.45593999997E+02  0.45594000000E+02  0.51100000000E-03 0. -1.
    9900012    2    1    2    0    0  0.34302475796E+02 -0.11990299780E+02  0.23731749723E+02  0.47787273284E+02  0.20000010212E+02 0.  0.
         12    1    1    2    0    0 -0.34302475796E+02  0.11990299780E+02 -0.23731749723E+02  0.43400726716E+02  0.00000000000E+00 0. -1.
         11    1    3    3    0    0  0.61484573235E+01 -0.27224476360E+01 -0.23395907953E+01  0.71196161371E+01  0.51100000000E-03 0. -1.
        -11    1    3    3    0    0  0.33928137627E+01  0.14777227596E+01  0.59257298600E+01  0.69863527264E+01  0.51100000000E-03 0.  1.
        -12    1    3    3    0    0  0.24761204709E+02 -0.10745574904E+02  0.20145610659E+02  0.33681304421E+02  0.00000000000E+00 0.  1.
</event>
<event>
 7    1  0.2486105E-010  0.4778727E+02  0.7816164E-02  0.1312668E+00
        -11   -1    0    0    0    0  0.00000000000E+00  0.00000000000E+00  0.45593999997E+02  0.45594000000E+02  0.51100000000E-03 0. -1.
         11   -1    0    0    0    0 -0.00000000000E+00 -0.00000000000E+00 -0.45593999997E+02  0.45594000000E+02  0.51100000000E-03 0.  1.
    9900012    2    1    2    0    0 -0.38966878897E+02  0.17465299281E+02 -0.77568498192E+01  0.47787273634E+02  0.20000011808E+02 0.  0.
         12    1    1    2    0    0  0.38966878897E+02 -0.17465299281E+02  0.77568498192E+01  0.43400726366E+02  0.00000000000E+00 0. -1.
         11    1    3    3    0    0 -0.14382414995E+02  0.88649861447E+01 -0.62940036580E+01  0.18029318422E+02  0.51100000000E-03 0. -1.
        -11    1    3    3    0    0 -0.26076974815E+02  0.69832204756E+01 -0.28668767177E+01  0.27147614372E+02  0.51100000000E-03 0.  1.
        -12    1    3    3    0    0  0.14925109132E+01  0.16170926608E+01  0.14040305565E+01  0.26103408404E+01  0.00000000000E+00 0.  1.
</event>
<event>
 7    1  0.2486105E-010  0.4778727E+02  0.7816164E-02  0.1312668E+00
        -11   -1    0    0    0    0  0.00000000000E+00  0.00000000000E+00  0.45593999997E+02  0.45594000000E+02  0.51100000000E-03 0.  1.
         11   -1    0    0    0    0 -0.00000000000E+00 -0.00000000000E+00 -0.45593999997E+02  0.45594000000E+02  0.51100000000E-03 0. -1.
    9900012    2    1    2    0    0 -0.19186369707E+02  0.34077505512E+02  0.18821007539E+02  0.47787268563E+02  0.19999988688E+02 0.  0.
         12    1    1    2    0    0  0.19186369707E+02 -0.34077505512E+02 -0.18821007539E+02  0.43400731437E+02  0.00000000000E+00 0. -1.
         11    1    3    3    0    0  0.12276538577E+01  0.47373345104E+01  0.15512581199E+01  0.51337972567E+01  0.51100000000E-03 0. -1.
        -11    1    3    3    0    0 -0.82497007951E+01  0.96727305871E+01  0.14624003930E+02  0.19377326220E+02  0.51100000000E-03 0.  1.
         12    1    3    3    0    0 -0.12164322770E+02  0.19667440415E+02  0.26457454885E+01  0.23276145087E+02  0.00000000000E+00 0. -1.
</event>
<event>
 7    1  0.2486105E-010  0.4778727E+02  0.7816164E-02  0.1312668E+00
        -11   -1    0    0    0    0  0.00000000000E+00  0.00000000000E+00  0.45593999997E+02  0.45594000000E+02  0.51100000000E-03 0. -1.
         11   -1    0    0    0    0 -0.00000000000E+00 -0.00000000000E+00 -0.45593999997E+02  0.45594000000E+02  0.51100000000E-03 0.  1.
    9900012    2    1    2    0    0  0.20010680207E+02 -0.15618155281E+01 -0.38480604691E+02  0.47787268123E+02  0.19999986679E+02 0.  0.
         12    1    1    2    0    0 -0.20010680207E+02  0.15618155281E+01  0.38480604691E+02  0.43400731877E+02  0.00000000000E+00 0. -1.
         11    1    3    3    0    0  0.11973586606E+02 -0.66136836384E+01 -0.21449953898E+02  0.25440285179E+02  0.51100000000E-03 0. -1.
        -11    1    3    3    0    0  0.79536934036E+01  0.32979110346E+01 -0.18270296812E+02  0.20197554353E+02  0.51100000000E-03 0.  1.
         12    1    3    3    0    0  0.83400197750E-01  0.17539570756E+01  0.12396460196E+01  0.21494285916E+01  0.00000000000E+00 0. -1.
</event>
<event>
 7    1  0.2486105E-010  0.4778726E+02  0.7816164E-02  0.1312668E+00
        -11   -1    0    0    0    0  0.00000000000E+00  0.00000000000E+00  0.45593999997E+02  0.45594000000E+02  0.51100000000E-03 0.  1.
         11   -1    0    0    0    0 -0.00000000000E+00 -0.00000000000E+00 -0.45593999997E+02  0.45594000000E+02  0.51100000000E-03 0. -1.
    9900012    2    1    2    0    0 -0.17333468538E+02 -0.20759099828E+02  0.33944591540E+02  0.47787255167E+02  0.19999927609E+02 0.  0.
         12    1    1    2    0    0  0.17333468538E+02  0.20759099828E+02 -0.33944591540E+02  0.43400744833E+02  0.00000000000E+00 0. -1.
         11    1    3    3    0    0  0.23775534424E+01  0.51066273865E+00 -0.54039292099E+00  0.24910964602E+01  0.51100000000E-03 0. -1.
        -11    1    3    3    0    0 -0.78083039059E+01 -0.58956787103E+01  0.13696301317E+02  0.16832032182E+02  0.51100000000E-03 0.  1.
        -12    1    3    3    0    0 -0.11902718075E+02 -0.15374083856E+02  0.20788683144E+02  0.28464126525E+02  0.00000000000E+00 0.  1.
</event>
<event>
 7    1  0.2486105E-010  0.4778727E+02  0.7816164E-02  0.1312668E+00
        -11   -1    0    0    0    0  0.00000000000E+00  0.00000000000E+00  0.45593999997E+02  0.45594000000E+02  0.51100000000E-03 0. -1.
         11   -1    0    0    0    0 -0.00000000000E+00 -0.00000000000E+00 -0.45593999997E+02  0.45594000000E+02  0.51100000000E-03 0.  1.
    9900012    2    1    2    0    0  0.45617891696E+01  0.38885599870E+02 -0.18727611146E+02  0.47787271701E+02  0.20000002992E+02 0.  0.
         12    1    1    2    0    0 -0.45617891696E+01 -0.38885599870E+02  0.18727611146E+02  0.43400728299E+02  0.00000000000E+00 0. -1.
         11    1    3    3    0    0  0.27155095219E+01  0.39485060764E+01  0.20522271087E+00  0.47965413395E+01  0.51100000000E-03 0. -1.
        -11    1    3    3    0    0  0.87672414880E+01  0.16476107737E+02 -0.69287485468E+01  0.19908144216E+02  0.51100000000E-03 0.  1.
         12    1    3    3    0    0 -0.69209618403E+01  0.18460986057E+02 -0.12004085310E+02  0.23082586145E+02  0.00000000000E+00 0. -1.
</event>
<event>
 7    1  0.2486105E-010  0.4778728E+02  0.7816164E-02  0.1312668E+00
        -11   -1    0    0    0    0  0.00000000000E+00  0.00000000000E+00  0.45593999997E+02  0.45594000000E+02  0.51100000000E-03 0.  1.
         11   -1    0    0    0    0 -0.00000000000E+00 -0.00000000000E+00 -0.45593999997E+02  0.45594000000E+02  0.51100000000E-03 0. -1.
    9900012    2    1    2    0    0  0.14439542089E+02 -0.78261888245E+01  0.40173041749E+02  0.47787275459E+02  0.20000020130E+02 0.  0.
         12    1    1    2    0    0 -0.14439542089E+02  0.78261888245E+01 -0.40173041749E+02  0.43400724541E+02  0.00000000000E+00 0. -1.
         11    1    3    3    0    0  0.13223856384E+01 -0.57618392008E+01  0.13638249000E+02  0.14864364460E+02  0.51100000000E-03 0. -1.
        -11    1    3    3    0    0  0.26243222755E+00  0.33349542924E+01  0.13245851717E+02  0.13661748745E+02  0.51100000000E-03 0.  1.
        -12    1    3    3    0    0  0.12854724223E+02 -0.53993039160E+01  0.13288941033E+02  0.19261162254E+02  0.00000000000E+00 0.  1.
</event>
<event>
 7    1  0.2486105E-010  0.4778727E+02  0.7816164E-02  0.1312668E+00
        -11   -1    0    0    0    0  0.00000000000E+00  0.00000000000E+00  0.45593999997E+02  0.45594000000E+02  0.51100000000E-03 0.  1.
         11   -1    0    0    0    0 -0.00000000000E+00 -0.00000000000E+00 -0.45593999997E+02  0.45594000000E+02  0.51100000000E-03 0. -1.
    9900012    2    1    2    0    0  0.10818689119E+02  0.26628588754E+02  0.32519182878E+02  0.47787273873E+02  0.20000012899E+02 0.  0.
         12    1    1    2    0    0 -0.10818689119E+02 -0.26628588754E+02 -0.32519182878E+02  0.43400726127E+02  0.00000000000E+00 0. -1.
         11    1    3    3    0    0  0.73811833199E+01  0.22125185851E+01  0.50001205706E+01  0.91857667983E+01  0.51100000000E-03 0. -1.
        -11    1    3    3    0    0  0.42058868754E+01  0.75082857879E+01  0.36673925794E+01  0.93548708421E+01  0.51100000000E-03 0.  1.
         12    1    3    3    0    0 -0.76838107598E+00  0.16907784381E+02  0.23851669728E+02  0.29246636233E+02  0.00000000000E+00 0. -1.
</event>
<event>
 7    1  0.2486105E-010  0.4778727E+02  0.7816164E-02  0.1312668E+00
        -11   -1    0    0    0    0  0.00000000000E+00  0.00000000000E+00  0.45593999997E+02  0.45594000000E+02  0.51100000000E-03 0. -1.
         11   -1    0    0    0    0 -0.00000000000E+00 -0.00000000000E+00 -0.45593999997E+02  0.45594000000E+02  0.51100000000E-03 0.  1.
    9900012    2    1    2    0    0 -0.19801563121E+02 -0.31616900204E+02 -0.22178663178E+02  0.47787269811E+02  0.19999994375E+02 0.  0.
         12    1    1    2    0    0  0.19801563121E+02  0.31616900204E+02  0.22178663178E+02  0.43400730189E+02  0.00000000000E+00 0. -1.
         11    1    3    3    0    0 -0.32924668090E+01 -0.18187477245E+02 -0.65929801551E+01  0.19623762478E+02  0.51100000000E-03 0. -1.
        -11    1    3    3    0    0 -0.11194662300E+02 -0.14203777084E+02 -0.11852005754E+02  0.21622622138E+02  0.51100000000E-03 0.  1.
         12    1    3    3    0    0 -0.53144340125E+01  0.77435412418E+00 -0.37336772691E+01  0.65408851949E+01  0.00000000000E+00 0. -1.
</event>
<event>
 7    1  0.2486105E-010  0.4778727E+02  0.7816164E-02  0.1312668E+00
        -11   -1    0    0    0    0  0.00000000000E+00  0.00000000000E+00  0.45593999997E+02  0.45594000000E+02  0.51100000000E-03 0.  1.
         11   -1    0    0    0    0 -0.00000000000E+00 -0.00000000000E+00 -0.45593999997E+02  0.45594000000E+02  0.51100000000E-03 0. -1.
    9900012    2    1    2    0    0 -0.32415676258E+01  0.38209436788E+01  0.43110507671E+02  0.47787271402E+02  0.20000001628E+02 0.  0.
         12    1    1    2    0    0  0.32415676258E+01 -0.38209436788E+01 -0.43110507671E+02  0.43400728598E+02  0.00000000000E+00 0. -1.
         11    1    3    3    0    0 -0.75977506495E+01 -0.21675500286E+01  0.13721345286E+02  0.15833489975E+02  0.51100000000E-03 0. -1.
        -11    1    3    3    0    0  0.16337303910E+01  0.16963885279E+01  0.24289794954E+00  0.23676589077E+01  0.51100000000E-03 0.  1.
        -12    1    3    3    0    0  0.27224526327E+01  0.42921051794E+01  0.29146264435E+02  0.29586122519E+02  0.00000000000E+00 0.  1.
</event>
<event>
 7    1  0.2486105E-010  0.4778727E+02  0.7816164E-02  0.1312668E+00
        -11   -1    0    0    0    0  0.00000000000E+00  0.00000000000E+00  0.45593999997E+02  0.45594000000E+02  0.51100000000E-03 0. -1.
         11   -1    0    0    0    0 -0.00000000000E+00 -0.00000000000E+00 -0.45593999997E+02  0.45594000000E+02  0.51100000000E-03 0.  1.
    9900012    2    1    2    0    0 -0.46492025181E+01 -0.86487227545E+00 -0.43142324701E+02  0.47787271103E+02  0.20000000269E+02 0.  0.
         12    1    1    2    0    0  0.46492025181E+01  0.86487227545E+00  0.43142324701E+02  0.43400728897E+02  0.00000000000E+00 0. -1.
         11    1    3    3    0    0  0.17927162656E+01  0.25569654996E+01 -0.46373274341E+01  0.55907700871E+01  0.51100000000E-03 0. -1.
        -11    1    3    3    0    0 -0.36095542006E+01  0.23539367174E+01 -0.34166884893E+02  0.34437565581E+02  0.51100000000E-03 0.  1.
         12    1    3    3    0    0 -0.28323645831E+01 -0.57757744925E+01 -0.43381123747E+01  0.77589354357E+01  0.00000000000E+00 0. -1.
</event>
<event>
 7    1  0.2486105E-010  0.4778726E+02  0.7816164E-02  0.1312668E+00
        -11   -1    0    0    0    0  0.00000000000E+00  0.00000000000E+00  0.45593999997E+02  0.45594000000E+02  0.51100000000E-03 0.  1.
         11   -1    0    0    0    0 -0.00000000000E+00 -0.00000000000E+00 -0.45593999997E+02  0.45594000000E+02  0.51100000000E-03 0. -1.
    9900012    2    1    2    0    0 -0.41428151553E+02  0.93142570157E+01  0.89764867316E+01  0.47787257623E+02  0.19999938805E+02 0.  0.
         12    1    1    2    0    0  0.41428151553E+02 -0.93142570157E+01 -0.89764867316E+01  0.43400742377E+02  0.00000000000E+00 0. -1.
         11    1    3    3    0    0 -0.11962181095E+02 -0.29561473551E+01  0.19948892650E+00  0.12323651238E+02  0.51100000000E-03 0. -1.
        -11    1    3    3    0    0 -0.13819748169E+02  0.70740622861E+00  0.80193052474E+01  0.15993596216E+02  0.51100000000E-03 0.  1.
         12    1    3    3    0    0 -0.15646222289E+02  0.11562998142E+02  0.75769255761E+00  0.19470010169E+02  0.00000000000E+00 0. -1.
</event>
<event>
 7    1  0.2486105E-010  0.4778727E+02  0.7816164E-02  0.1312668E+00
        -11   -1    0    0    0    0  0.00000000000E+00  0.00000000000E+00  0.45593999997E+02  0.45594000000E+02  0.51100000000E-03 0.  1.
         11   -1    0    0    0    0 -0.00000000000E+00 -0.00000000000E+00 -0.45593999997E+02  0.45594000000E+02  0.51100000000E-03 0. -1.
    9900012    2    1    2    0    0  0.39556359608E+02 -0.92664557592E+01 -0.15265993442E+02  0.47787270242E+02  0.19999996342E+02 0.  0.
         12    1    1    2    0    0 -0.39556359608E+02  0.92664557592E+01  0.15265993442E+02  0.43400729758E+02  0.00000000000E+00 0. -1.
         11    1    3    3    0    0 -0.10646844398E+01 -0.11110164558E+01 -0.93298865680E+00  0.17995495593E+01  0.51100000000E-03 0. -1.
        -11    1    3    3    0    0  0.76762094942E+01 -0.54554654762E+01  0.11476268780E+01  0.94870091954E+01  0.51100000000E-03 0.  1.
        -12    1    3    3    0    0  0.32944834553E+02 -0.26999738272E+01 -0.15480631663E+02  0.36500711488E+02  0.00000000000E+00 0.  1.
</event>
<event>
 7    1  0.2486105E-010  0.4778727E+02  0.7816164E-02  0.1312668E+00
        -11   -1    0    0    0    0  0.00000000000E+00  0.00000000000E+00  0.45593999997E+02  0.45594000000E+02  0.51100000000E-03 0.  1.
         11   -1    0    0    0    0 -0.00000000000E+00 -0.00000000000E+00 -0.45593999997E+02  0.45594000000E+02  0.51100000000E-03 0. -1.
    9900012    2    1    2    0    0  0.15693893516E+02 -0.11267147528E+01  0.40448184947E+02  0.47787269069E+02  0.19999990995E+02 0.  0.
         12    1    1    2    0    0 -0.15693893516E+02  0.11267147528E+01 -0.40448184947E+02  0.43400730931E+02  0.00000000000E+00 0. -1.
         11    1    3    3    0    0  0.67796239835E+01 -0.70098813144E+01  0.12638795349E+02  0.15963736578E+02  0.51100000000E-03 0. -1.
        -11    1    3    3    0    0  0.50877828122E+01 -0.26585322004E+01  0.73599204123E+01  0.93339035854E+01  0.51100000000E-03 0.  1.
         12    1    3    3    0    0  0.38264867205E+01  0.85416987619E+01  0.20449469186E+02  0.22489628906E+02  0.00000000000E+00 0. -1.
</event>
<event>
 7    1  0.2486105E-010  0.4778726E+02  0.7816164E-02  0.1312668E+00
        -11   -1    0    0    0    0  0.00000000000E+00  0.00000000000E+00  0.45593999997E+02  0.45594000000E+02  0.51100000000E-03 0.  1.
         11   -1    0    0    0    0 -0.00000000000E+00 -0.00000000000E+00 -0.45593999997E+02  0.45594000000E+02  0.51100000000E-03 0. -1.
    9900012    2    1    2    0    0 -0.10284639680E+01 -0.25474816960E+02  0.35122641900E+02  0.47787262549E+02  0.19999961267E+02 0.  0.
         12    1    1    2    0    0  0.10284639680E+01  0.25474816960E+02 -0.35122641900E+02  0.43400737451E+02  0.00000000000E+00 0. -1.
         11    1    3    3    0    0  0.65142434818E+00 -0.18990440575E+02  0.13052862451E+02  0.23052947867E+02  0.51100000000E-03 0. -1.
        -11    1    3    3    0    0  0.90760454190E+00 -0.61652386187E+01  0.67201009146E+01  0.91648060423E+01  0.51100000000E-03 0.  1.
        -12    1    3    3    0    0 -0.25874928581E+01 -0.31913776599E+00  0.15349678534E+02  0.15569508640E+02  0.00000000000E+00 0.  1.
</event>
<event>
 7    1  0.2654566E-010  0.4778727E+02  0.7816164E-02  0.1312668E+00
        -11   -1    0    0    0    0  0.00000000000E+00  0.00000000000E+00  0.45593999997E+02  0.45594000000E+02  0.51100000000E-03 0. -1.
         11   -1    0    0    0    0 -0.00000000000E+00 -0.00000000000E+00 -0.45593999997E+02  0.45594000000E+02  0.51100000000E-03 0.  1.
    9900012    2    1    2    0    0  0.42778145519E+01  0.43183489034E+02 -0.71405197928E+00  0.47787270827E+02  0.19999999008E+02 0.  0.
         12    1    1    2    0    0 -0.42778145519E+01 -0.43183489034E+02  0.71405197928E+00  0.43400729173E+02  0.00000000000E+00 0. -1.
         11    1    3    3    0    0 -0.24444342531E+01 -0.22072062108E+00 -0.32942210217E+00  0.24763876096E+01  0.51100000000E-03 0. -1.
        -11    1    3    3    0    0  0.16048545214E+01  0.60481394189E+01 -0.40099491907E+01  0.74320415256E+01  0.51100000000E-03 0.  1.
        -12    1    3    3    0    0  0.51173942837E+01  0.37356070237E+02  0.36253193136E+01  0.37878841692E+02  0.00000000000E+00 0.  1.
</event>
<event>
 7    1  0.2486105E-010  0.4778727E+02  0.7816164E-02  0.1312668E+00
        -11   -1    0    0    0    0  0.00000000000E+00  0.00000000000E+00  0.45593999997E+02  0.45594000000E+02  0.51100000000E-03 0.  1.
         11   -1    0    0    0    0 -0.00000000000E+00 -0.00000000000E+00 -0.45593999997E+02  0.45594000000E+02  0.51100000000E-03 0. -1.
    9900012    2    1    2    0    0 -0.35338785254E+02  0.50361063039E+01  0.24686661250E+02  0.47787270126E+02  0.19999995811E+02 0.  0.
         12    1    1    2    0    0  0.35338785254E+02 -0.50361063039E+01 -0.24686661250E+02  0.43400729874E+02  0.00000000000E+00 0. -1.
         11    1    3    3    0    0 -0.30801017986E+01 -0.42305147671E+01  0.21850499417E+01  0.56708664059E+01  0.51100000000E-03 0.  1.
        -11    1    3    3    0    0 -0.59651453423E+01  0.24286877939E+01 -0.58066416096E+00  0.64667344528E+01  0.51100000000E-03 0. -1.
        -12    1    3    3    0    0 -0.26293538113E+02  0.68379332771E+01  0.23082275469E+02  0.35649669267E+02  0.00000000000E+00 0.  1.
</event>
<event>
 7    1  0.2486105E-010  0.4778727E+02  0.7816164E-02  0.1312668E+00
        -11   -1    0    0    0    0  0.00000000000E+00  0.00000000000E+00  0.45593999997E+02  0.45594000000E+02  0.51100000000E-03 0.  1.
         11   -1    0    0    0    0 -0.00000000000E+00 -0.00000000000E+00 -0.45593999997E+02  0.45594000000E+02  0.51100000000E-03 0. -1.
    9900012    2    1    2    0    0  0.41632659604E+02  0.12251977390E+02 -0.48366056381E+00  0.47787271628E+02  0.20000002663E+02 0.  0.
         12    1    1    2    0    0 -0.41632659604E+02 -0.12251977390E+02  0.48366056381E+00  0.43400728372E+02  0.00000000000E+00 0. -1.
         11    1    3    3    0    0  0.19613079926E+02  0.22667747133E+01 -0.33962287911E+01  0.20033610310E+02  0.51100000000E-03 0. -1.
        -11    1    3    3    0    0  0.17695474209E+02  0.58068126370E+01 -0.35141807593E+01  0.18952528780E+02  0.51100000000E-03 0.  1.
        -12    1    3    3    0    0  0.43241054688E+01  0.41783900396E+01  0.64267489866E+01  0.88011325388E+01  0.00000000000E+00 0.  1.
</event>
<event>
 7    1  0.2486105E-010  0.4778727E+02  0.7816164E-02  0.1312668E+00
        -11   -1    0    0    0    0  0.00000000000E+00  0.00000000000E+00  0.45593999997E+02  0.45594000000E+02  0.51100000000E-03 0.  1.
         11   -1    0    0    0    0 -0.00000000000E+00 -0.00000000000E+00 -0.45593999997E+02  0.45594000000E+02  0.51100000000E-03 0. -1.
    9900012    2    1    2    0    0  0.65752489231E+01  0.41957412221E+02  0.89423114697E+01  0.47787271053E+02  0.20000000039E+02 0.  0.
         12    1    1    2    0    0 -0.65752489231E+01 -0.41957412221E+02 -0.89423114697E+01  0.43400728947E+02  0.00000000000E+00 0. -1.
         11    1    3    3    0    0  0.21263498837E+01  0.16053642785E+01  0.17346022061E+01  0.31792142691E+01  0.51100000000E-03 0. -1.
        -11    1    3    3    0    0 -0.40139011621E+01  0.24807198404E+02 -0.88735102874E+00  0.25145494374E+02  0.51100000000E-03 0.  1.
         12    1    3    3    0    0  0.84628002015E+01  0.15544849539E+02  0.80950602923E+01  0.19462562410E+02  0.00000000000E+00 0. -1.
</event>
<event>
 7    1  0.2486105E-010  0.4778727E+02  0.7816164E-02  0.1312668E+00
        -11   -1    0    0    0    0  0.00000000000E+00  0.00000000000E+00  0.45593999997E+02  0.45594000000E+02  0.51100000000E-03 0.  1.
         11   -1    0    0    0    0 -0.00000000000E+00 -0.00000000000E+00 -0.45593999997E+02  0.45594000000E+02  0.51100000000E-03 0. -1.
    9900012    2    1    2    0    0 -0.46150955600E+01  0.34705848826E+02  0.25648166397E+02  0.47787268563E+02  0.19999988685E+02 0.  0.
         12    1    1    2    0    0  0.46150955600E+01 -0.34705848826E+02 -0.25648166397E+02  0.43400731437E+02  0.00000000000E+00 0. -1.
         11    1    3    3    0    0 -0.55546400297E+01  0.45920697766E+01  0.11415689272E+01  0.72968699159E+01  0.51100000000E-03 0. -1.
        -11    1    3    3    0    0 -0.48430036744E+00  0.80258195913E+01  0.83630597061E+00  0.80837945852E+01  0.51100000000E-03 0.  1.
        -12    1    3    3    0    0  0.14238448372E+01  0.22087959458E+02  0.23670291499E+02  0.32406604062E+02  0.00000000000E+00 0.  1.
</event>
<event>
 7    1  0.2486105E-010  0.4778727E+02  0.7816164E-02  0.1312668E+00
        -11   -1    0    0    0    0  0.00000000000E+00  0.00000000000E+00  0.45593999997E+02  0.45594000000E+02  0.51100000000E-03 0.  1.
         11   -1    0    0    0    0 -0.00000000000E+00 -0.00000000000E+00 -0.45593999997E+02  0.45594000000E+02  0.51100000000E-03 0. -1.
    9900012    2    1    2    0    0  0.37422905034E+02 -0.21595219196E+02  0.40982848380E+01  0.47787271297E+02  0.20000001152E+02 0.  0.
         12    1    1    2    0    0 -0.37422905034E+02  0.21595219196E+02 -0.40982848380E+01  0.43400728703E+02  0.00000000000E+00 0. -1.
         11    1    3    3    0    0  0.19638197965E+02 -0.14745948622E+02 -0.64100604622E+00  0.24566495661E+02  0.51100000000E-03 0. -1.
        -11    1    3    3    0    0  0.19131818570E+02 -0.65588415021E+01  0.62571553577E+01  0.21170660761E+02  0.51100000000E-03 0.  1.
         12    1    3    3    0    0 -0.13471115004E+01 -0.29042907252E+00 -0.15178644735E+01  0.20501148749E+01  0.00000000000E+00 0. -1.
</event>
<event>
 7    1  0.2486105E-010  0.4778727E+02  0.7816164E-02  0.1312668E+00
        -11   -1    0    0    0    0  0.00000000000E+00  0.00000000000E+00  0.45593999997E+02  0.45594000000E+02  0.51100000000E-03 0.  1.
         11   -1    0    0    0    0 -0.00000000000E+00 -0.00000000000E+00 -0.45593999997E+02  0.45594000000E+02  0.51100000000E-03 0. -1.
    9900012    2    1    2    0    0 -0.37672221049E+02 -0.18203893096E+02  0.11534531631E+02  0.47787269792E+02  0.19999994291E+02 0.  0.
         12    1    1    2    0    0  0.37672221049E+02  0.18203893096E+02 -0.11534531631E+02  0.43400730208E+02  0.00000000000E+00 0. -1.
         11    1    3    3    0    0 -0.11646974167E+02 -0.38144831074E+01  0.98537311018E+01  0.15725721144E+02  0.51100000000E-03 0. -1.
        -11    1    3    3    0    0  0.12513962698E+01 -0.24801323482E+00  0.27423096011E+00  0.13048777986E+01  0.51100000000E-03 0.  1.
        -12    1    3    3    0    0 -0.27276643152E+02 -0.14141396754E+02  0.14065695690E+01  0.30756670849E+02  0.00000000000E+00 0.  1.
</event>
<event>
 7    1  0.2486105E-010  0.4778727E+02  0.7816164E-02  0.1312668E+00
        -11   -1    0    0    0    0  0.00000000000E+00  0.00000000000E+00  0.45593999997E+02  0.45594000000E+02  0.51100000000E-03 0. -1.
         11   -1    0    0    0    0 -0.00000000000E+00 -0.00000000000E+00 -0.45593999997E+02  0.45594000000E+02  0.51100000000E-03 0.  1.
    9900012    2    1    2    0    0  0.38244248091E+02 -0.19142016234E+02 -0.73881274886E+01  0.47787265844E+02  0.19999976287E+02 0.  0.
         12    1    1    2    0    0 -0.38244248091E+02  0.19142016234E+02  0.73881274886E+01  0.43400734156E+02  0.00000000000E+00 0. -1.
         11    1    3    3    0    0  0.92609703766E+01  0.46017376424E+00 -0.15074441604E+01  0.93941322307E+01  0.51100000000E-03 0. -1.
        -11    1    3    3    0    0  0.23205858003E+01 -0.20656910898E+00  0.34175102754E+01  0.41360809950E+01  0.51100000000E-03 0.  1.
        -12    1    3    3    0    0  0.26662691914E+02 -0.19395620889E+02 -0.92981936036E+01  0.34257052618E+02  0.00000000000E+00 0.  1.
</event>
<event>
 7    1  0.2486105E-010  0.4778727E+02  0.7816164E-02  0.1312668E+00
        -11   -1    0    0    0    0  0.00000000000E+00  0.00000000000E+00  0.45593999997E+02  0.45594000000E+02  0.51100000000E-03 0.  1.
         11   -1    0    0    0    0 -0.00000000000E+00 -0.00000000000E+00 -0.45593999997E+02  0.45594000000E+02  0.51100000000E-03 0. -1.
    9900012    2    1    2    0    0  0.40083217761E+02 -0.39946373896E+01  0.16155550910E+02  0.47787270753E+02  0.19999998670E+02 0.  0.
         12    1    1    2    0    0 -0.40083217761E+02  0.39946373896E+01 -0.16155550910E+02  0.43400729247E+02  0.00000000000E+00 0. -1.
         11    1    3    3    0    0  0.67442341602E+01 -0.31689252330E+01  0.38650314825E-01  0.74517297084E+01  0.51100000000E-03 0. -1.
        -11    1    3    3    0    0  0.71840490929E+01 -0.99390451138E+00  0.11764595307E+02  0.13820423675E+02  0.51100000000E-03 0.  1.
        -12    1    3    3    0    0  0.26154934508E+02  0.16819235471E+00  0.43523052881E+01  0.26515117369E+02  0.00000000000E+00 0.  1.
</event>
<event>
 7    1  0.2486105E-010  0.4778727E+02  0.7816164E-02  0.1312668E+00
        -11   -1    0    0    0    0  0.00000000000E+00  0.00000000000E+00  0.45593999997E+02  0.45594000000E+02  0.51100000000E-03 0.  1.
         11   -1    0    0    0    0 -0.00000000000E+00 -0.00000000000E+00 -0.45593999997E+02  0.45594000000E+02  0.51100000000E-03 0. -1.
    9900012    2    1    2    0    0  0.42161597681E+02  0.10296199928E+02 -0.10561628423E+00  0.47787271818E+02  0.20000003525E+02 0.  0.
         12    1    1    2    0    0 -0.42161597681E+02 -0.10296199928E+02  0.10561628423E+00  0.43400728182E+02  0.00000000000E+00 0. -1.
         11    1    3    3    0    0  0.12176669421E+02  0.86033538888E+01 -0.68013636322E+01  0.16387419683E+02  0.51100000000E-03 0. -1.
        -11    1    3    3    0    0  0.10485328470E+02  0.30980137044E+01  0.72136396547E+00  0.10957197099E+02  0.51100000000E-03 0.  1.
         12    1    3    3    0    0  0.19499599790E+02 -0.14051676649E+01  0.59743833825E+01  0.20442655036E+02  0.00000000000E+00 0. -1.
</event>
<event>
 7    1  0.2486105E-010  0.4778726E+02  0.7816164E-02  0.1312668E+00
        -11   -1    0    0    0    0  0.00000000000E+00  0.00000000000E+00  0.45593999997E+02  0.45594000000E+02  0.51100000000E-03 0.  1.
         11   -1    0    0    0    0 -0.00000000000E+00 -0.00000000000E+00 -0.45593999997E+02  0.45594000000E+02  0.51100000000E-03 0. -1.
    9900012    2    1    2    0    0 -0.36235084486E+02 -0.21897338555E+02  0.95472129511E+01  0.47787262004E+02  0.19999958780E+02 0.  0.
         12    1    1    2    0    0  0.36235084486E+02  0.21897338555E+02 -0.95472129511E+01  0.43400737996E+02  0.00000000000E+00 0. -1.
         11    1    3    3    0    0 -0.84294492386E+01 -0.97410193942E+01 -0.28828300403E+01  0.13200522058E+02  0.51100000000E-03 0. -1.
        -11    1    3    3    0    0 -0.38512407888E-01  0.98830260637E+00  0.18444722851E+01  0.20929174659E+01  0.51100000000E-03 0.  1.
         12    1    3    3    0    0 -0.27767122839E+02 -0.13144621767E+02  0.10585570706E+02  0.32493822480E+02  0.00000000000E+00 0. -1.
</event>
<event>
 7    1  0.2486105E-010  0.4778727E+02  0.7816164E-02  0.1312668E+00
        -11   -1    0    0    0    0  0.00000000000E+00  0.00000000000E+00  0.45593999997E+02  0.45594000000E+02  0.51100000000E-03 0.  1.
         11   -1    0    0    0    0 -0.00000000000E+00 -0.00000000000E+00 -0.45593999997E+02  0.45594000000E+02  0.51100000000E-03 0. -1.
    9900012    2    1    2    0    0  0.11545866538E+02  0.13963767544E+02  0.39437664450E+02  0.47787271718E+02  0.20000003073E+02 0.  0.
         12    1    1    2    0    0 -0.11545866538E+02 -0.13963767544E+02 -0.39437664450E+02  0.43400728282E+02  0.00000000000E+00 0. -1.
         11    1    3    3    0    0  0.48592906375E+01 -0.22749377932E+01  0.86307055187E+01  0.10162535386E+02  0.51100000000E-03 0. -1.
        -11    1    3    3    0    0  0.13247249681E+01 -0.14165436715E+01  0.82876982310E+01  0.85116058675E+01  0.51100000000E-03 0.  1.
         12    1    3    3    0    0  0.53618509322E+01  0.17655249009E+02  0.22519260700E+02  0.29113130465E+02  0.00000000000E+00 0. -1.
</event>
<event>
 7    1  0.2486105E-010  0.4778727E+02  0.7816164E-02  0.1312668E+00
        -11   -1    0    0    0    0  0.00000000000E+00  0.00000000000E+00  0.45593999997E+02  0.45594000000E+02  0.51100000000E-03 0.  1.
         11   -1    0    0    0    0 -0.00000000000E+00 -0.00000000000E+00 -0.45593999997E+02  0.45594000000E+02  0.51100000000E-03 0. -1.
    9900012    2    1    2    0    0 -0.37208324090E+02  0.10976329024E+02  0.19459814771E+02  0.47787267617E+02  0.19999984374E+02 0.  0.
         12    1    1    2    0    0  0.37208324090E+02 -0.10976329024E+02 -0.19459814771E+02  0.43400732383E+02  0.00000000000E+00 0. -1.
         11    1    3    3    0    0 -0.91017334756E+01  0.36450535498E+01  0.41371036978E+01  0.10641597385E+02  0.51100000000E-03 0. -1.
        -11    1    3    3    0    0 -0.18268859809E+02 -0.36560592921E+01  0.55000076762E+01  0.19425964402E+02  0.51100000000E-03 0.  1.
         12    1    3    3    0    0 -0.98377308060E+01  0.10987334766E+02  0.98227033966E+01  0.17719705830E+02  0.00000000000E+00 0. -1.
</event>
<event>
 7    1  0.2795973E-010  0.4778727E+02  0.7816164E-02  0.1312668E+00
        -11   -1    0    0    0    0  0.00000000000E+00  0.00000000000E+00  0.45593999997E+02  0.45594000000E+02  0.51100000000E-03 0. -1.
         11   -1    0    0    0    0 -0.00000000000E+00 -0.00000000000E+00 -0.45593999997E+02  0.45594000000E+02  0.51100000000E-03 0.  1.
    9900012    2    1    2    0    0 -0.58589523579E+01 -0.18133540673E+02 -0.38993213561E+02  0.47787270468E+02  0.19999997373E+02 0.  0.
         12    1    1    2    0    0  0.58589523579E+01  0.18133540673E+02  0.38993213561E+02  0.43400729532E+02  0.00000000000E+00 0. -1.
         11    1    3    3    0    0  0.15435276893E+01 -0.47478626761E+01 -0.14914354345E+01  0.52104757590E+01  0.51100000000E-03 0. -1.
        -11    1    3    3    0    0  0.30239703167E+00  0.24298188790E+01 -0.62679822245E+01  0.67292692900E+01  0.51100000000E-03 0.  1.
        -12    1    3    3    0    0 -0.77048770789E+01 -0.15815496876E+02 -0.31233795902E+02  0.35847525419E+02  0.00000000000E+00 0.  1.
</event>
<event>
 7    1  0.2486105E-010  0.4778727E+02  0.7816164E-02  0.1312668E+00
        -11   -1    0    0    0    0  0.00000000000E+00  0.00000000000E+00  0.45593999997E+02  0.45594000000E+02  0.51100000000E-03 0.  1.
         11   -1    0    0    0    0 -0.00000000000E+00 -0.00000000000E+00 -0.45593999997E+02  0.45594000000E+02  0.51100000000E-03 0. -1.
    9900012    2    1    2    0    0  0.29695943528E+02 -0.54032938242E+01  0.31186196015E+02  0.47787268807E+02  0.19999989799E+02 0.  0.
         12    1    1    2    0    0 -0.29695943528E+02  0.54032938242E+01 -0.31186196015E+02  0.43400731193E+02  0.00000000000E+00 0. -1.
         11    1    3    3    0    0  0.14865498035E+02  0.12711196288E+00  0.10543215573E+02  0.18225218358E+02  0.51100000000E-03 0. -1.
        -11    1    3    3    0    0  0.68028370993E+01  0.41825895358E+01  0.47941073569E+01  0.93142961857E+01  0.51100000000E-03 0.  1.
        -12    1    3    3    0    0  0.80276083934E+01 -0.97129953229E+01  0.15848873085E+02  0.20247754264E+02  0.00000000000E+00 0.  1.
</event>
<event>
 7    1  0.2486105E-010  0.4778727E+02  0.7816164E-02  0.1312668E+00
        -11   -1    0    0    0    0  0.00000000000E+00  0.00000000000E+00  0.45593999997E+02  0.45594000000E+02  0.51100000000E-03 0.  1.
         11   -1    0    0    0    0 -0.00000000000E+00 -0.00000000000E+00 -0.45593999997E+02  0.45594000000E+02  0.51100000000E-03 0. -1.
    9900012    2    1    2    0    0 -0.71328677928E+01 -0.92019716287E+01  0.41809919101E+02  0.47787269360E+02  0.19999992322E+02 0.  0.
         12    1    1    2    0    0  0.71328677928E+01  0.92019716287E+01 -0.41809919101E+02  0.43400730640E+02  0.00000000000E+00 0. -1.
         11    1    3    3    0    0 -0.81199887415E+01 -0.44966663598E+01  0.19963796665E+02  0.22016071472E+02  0.51100000000E-03 0. -1.
        -11    1    3    3    0    0 -0.26808996037E+01 -0.63531380471E+01  0.20340248352E+02  0.21477320341E+02  0.51100000000E-03 0.  1.
         12    1    3    3    0    0  0.36680205525E+01  0.16478327782E+01  0.15058740839E+01  0.42938775477E+01  0.00000000000E+00 0. -1.
</event>
<event>
 7    1  0.2486105E-010  0.4778727E+02  0.7816164E-02  0.1312668E+00
        -11   -1    0    0    0    0  0.00000000000E+00  0.00000000000E+00  0.45593999997E+02  0.45594000000E+02  0.51100000000E-03 0. -1.
         11   -1    0    0    0    0 -0.00000000000E+00 -0.00000000000E+00 -0.45593999997E+02  0.45594000000E+02  0.51100000000E-03 0.  1.
    9900012    2    1    2    0    0  0.13845719653E+02  0.39040651344E+02 -0.12951709341E+02  0.47787272069E+02  0.20000004672E+02 0.  0.
         12    1    1    2    0    0 -0.13845719653E+02 -0.39040651344E+02  0.12951709341E+02  0.43400727931E+02  0.00000000000E+00 0. -1.
         11    1    3    3    0    0  0.19522257809E+01  0.11105326285E+02 -0.44471588541E+01  0.12120919088E+02  0.51100000000E-03 0. -1.
        -11    1    3    3    0    0  0.25486497230E+01  0.19171809701E+02  0.15188363122E+01  0.19400019759E+02  0.51100000000E-03 0.  1.
         12    1    3    3    0    0  0.93448441489E+01  0.87635153578E+01 -0.10023386799E+02  0.16266333223E+02  0.00000000000E+00 0. -1.
</event>
<event>
 7    1  0.2486105E-010  0.4778727E+02  0.7816164E-02  0.1312668E+00
        -11   -1    0    0    0    0  0.00000000000E+00  0.00000000000E+00  0.45593999997E+02  0.45594000000E+02  0.51100000000E-03 0.  1.
         11   -1    0    0    0    0 -0.00000000000E+00 -0.00000000000E+00 -0.45593999997E+02  0.45594000000E+02  0.51100000000E-03 0. -1.
    9900012    2    1    2    0    0 -0.34166748783E+00 -0.73664924872E+01  0.42769631168E+02  0.47787270761E+02  0.19999998707E+02 0.  0.
         12    1    1    2    0    0  0.34166748783E+00  0.73664924872E+01 -0.42769631168E+02  0.43400729239E+02  0.00000000000E+00 0. -1.
         11    1    3    3    0    0 -0.16577717656E+01 -0.87139560787E+01  0.16892522098E+02  0.19079794047E+02  0.51100000000E-03 0. -1.
        -11    1    3    3    0    0 -0.55107901124E+01  0.82521860378E+00  0.11025988183E+02  0.12354036145E+02  0.51100000000E-03 0.  1.
        -12    1    3    3    0    0  0.68268943902E+01  0.52224498781E+00  0.14851120887E+02  0.16353440569E+02  0.00000000000E+00 0.  1.
</event>
<event>
 7    1  0.2486105E-010  0.4778727E+02  0.7816164E-02  0.1312668E+00
        -11   -1    0    0    0    0  0.00000000000E+00  0.00000000000E+00  0.45593999997E+02  0.45594000000E+02  0.51100000000E-03 0.  1.
         11   -1    0    0    0    0 -0.00000000000E+00 -0.00000000000E+00 -0.45593999997E+02  0.45594000000E+02  0.51100000000E-03 0. -1.
    9900012    2    1    2    0    0 -0.11301728122E+01  0.62215465194E+01  0.42937611292E+02  0.47787269648E+02  0.19999993631E+02 0.  0.
         12    1    1    2    0    0  0.11301728122E+01 -0.62215465194E+01 -0.42937611292E+02  0.43400730352E+02  0.00000000000E+00 0. -1.
         11    1    3    3    0    0  0.75322476413E+00 -0.25727068857E+01  0.12300867977E+01  0.29494545353E+01  0.51100000000E-03 0.  1.
        -11    1    3    3    0    0  0.48346887355E+01  0.60575574214E+01  0.12215459151E+02  0.14466708666E+02  0.51100000000E-03 0. -1.
         12    1    3    3    0    0 -0.67180863118E+01  0.27366959837E+01  0.29492065343E+02  0.30371106447E+02  0.00000000000E+00 0. -1.
</event>
<event>
 7    1  0.2486105E-010  0.4778727E+02  0.7816164E-02  0.1312668E+00
        -11   -1    0    0    0    0  0.00000000000E+00  0.00000000000E+00  0.45593999997E+02  0.45594000000E+02  0.51100000000E-03 0.  1.
         11   -1    0    0    0    0 -0.00000000000E+00 -0.00000000000E+00 -0.45593999997E+02  0.45594000000E+02  0.51100000000E-03 0. -1.
    9900012    2    1    2    0    0 -0.22510679195E+02 -0.47278450122E+01  0.36804072969E+02  0.47787274391E+02  0.20000015258E+02 0.  0.
         12    1    1    2    0    0  0.22510679195E+02  0.47278450122E+01 -0.36804072969E+02  0.43400725609E+02  0.00000000000E+00 0. -1.
         11    1    3    3    0    0 -0.60192078704E+01 -0.72883086188E+01  0.52427008564E+01  0.10809080370E+02  0.51100000000E-03 0. -1.
        -11    1    3    3    0    0 -0.15592482152E+00  0.24177360159E+01  0.17653289070E+01  0.29976901780E+01  0.51100000000E-03 0.  1.
        -12    1    3    3    0    0 -0.16335546503E+02  0.14272759067E+00  0.29796043206E+02  0.33980503843E+02  0.00000000000E+00 0.  1.
</event>
<event>
 7    1  0.2486105E-010  0.4778727E+02  0.7816164E-02  0.1312668E+00
        -11   -1    0    0    0    0  0.00000000000E+00  0.00000000000E+00  0.45593999997E+02  0.45594000000E+02  0.51100000000E-03 0.  1.
         11   -1    0    0    0    0 -0.00000000000E+00 -0.00000000000E+00 -0.45593999997E+02  0.45594000000E+02  0.51100000000E-03 0. -1.
    9900012    2    1    2    0    0  0.34004303532E+02  0.21297358183E+02 -0.16545488247E+02  0.47787270679E+02  0.19999998334E+02 0.  0.
         12    1    1    2    0    0 -0.34004303532E+02 -0.21297358183E+02  0.16545488247E+02  0.43400729321E+02  0.00000000000E+00 0. -1.
         11    1    3    3    0    0  0.99982889908E+01  0.51215705177E+01 -0.10216533718E+02  0.15184657678E+02  0.51100000000E-03 0. -1.
        -11    1    3    3    0    0  0.23606570625E+02  0.11290497810E+02 -0.80972560242E+01  0.27391806673E+02  0.51100000000E-03 0.  1.
         12    1    3    3    0    0  0.39944391696E+00  0.48852898547E+01  0.17683014958E+01  0.52108063280E+01  0.00000000000E+00 0. -1.
</event>
<event>
 7    1  0.2486105E-010  0.4778729E+02  0.7816164E-02  0.1312668E+00
        -11   -1    0    0    0    0  0.00000000000E+00  0.00000000000E+00  0.45593999997E+02  0.45594000000E+02  0.51100000000E-03 0. -1.
         11   -1    0    0    0    0 -0.00000000000E+00 -0.00000000000E+00 -0.45593999997E+02  0.45594000000E+02  0.51100000000E-03 0.  1.
    9900012    2    1    2    0    0  0.96641591552E+01  0.39171784133E+02 -0.15993653783E+02  0.47787290263E+02  0.20000087623E+02 0.  0.
         12    1    1    2    0    0 -0.96641591552E+01 -0.39171784133E+02  0.15993653783E+02  0.43400709737E+02  0.00000000000E+00 0. -1.
         11    1    3    3    0    0  0.13541655094E+02  0.18520227702E+02 -0.49580588613E+01  0.23472486122E+02  0.51100000000E-03 0. -1.
        -11    1    3    3    0    0 -0.66239155800E-01  0.29776389851E+01 -0.38297711224E+01  0.48515841395E+01  0.51100000000E-03 0.  1.
        -12    1    3    3    0    0 -0.38112567834E+01  0.17673917446E+02 -0.72058237993E+01  0.19463220001E+02  0.00000000000E+00 0.  1.
</event>
<event>
 7    1  0.2486105E-010  0.4778727E+02  0.7816164E-02  0.1312668E+00
        -11   -1    0    0    0    0  0.00000000000E+00  0.00000000000E+00  0.45593999997E+02  0.45594000000E+02  0.51100000000E-03 0. -1.
         11   -1    0    0    0    0 -0.00000000000E+00 -0.00000000000E+00 -0.45593999997E+02  0.45594000000E+02  0.51100000000E-03 0.  1.
    9900012    2    1    2    0    0  0.10972183732E+02  0.37444733406E+02 -0.19003320708E+02  0.47787273351E+02  0.20000010517E+02 0.  0.
         12    1    1    2    0    0 -0.10972183732E+02 -0.37444733406E+02  0.19003320708E+02  0.43400726649E+02  0.00000000000E+00 0. -1.
         11    1    3    3    0    0  0.15462118642E+01  0.67777711641E+01  0.34652088485E+01  0.77676653961E+01  0.51100000000E-03 0. -1.
        -11    1    3    3    0    0 -0.21225728682E+00  0.11042752488E+02 -0.54668013664E+01  0.12323690726E+02  0.51100000000E-03 0.  1.
         12    1    3    3    0    0  0.96382291547E+01  0.19624209754E+02 -0.17001728190E+02  0.27695917229E+02  0.00000000000E+00 0. -1.
</event>
<event>
 7    1  0.2486105E-010  0.4778727E+02  0.7816164E-02  0.1312668E+00
        -11   -1    0    0    0    0  0.00000000000E+00  0.00000000000E+00  0.45593999997E+02  0.45594000000E+02  0.51100000000E-03 0.  1.
         11   -1    0    0    0    0 -0.00000000000E+00 -0.00000000000E+00 -0.45593999997E+02  0.45594000000E+02  0.51100000000E-03 0. -1.
    9900012    2    1    2    0    0 -0.36236168145E+02  0.15134002364E+02  0.18480409448E+02  0.47787269099E+02  0.19999991129E+02 0.  0.
         12    1    1    2    0    0  0.36236168145E+02 -0.15134002364E+02 -0.18480409448E+02  0.43400730901E+02  0.00000000000E+00 0. -1.
         11    1    3    3    0    0 -0.35869571484E+00  0.37087117153E+01  0.30797562923E+01  0.48340567109E+01  0.51100000000E-03 0. -1.
        -11    1    3    3    0    0 -0.15725910138E+02  0.12192184307E+02  0.85151892824E+01  0.21643984306E+02  0.51100000000E-03 0.  1.
        -12    1    3    3    0    0 -0.20151562292E+02 -0.76689365828E+00  0.68854638737E+01  0.21309228082E+02  0.00000000000E+00 0.  1.
</event>
<event>
 7    1  0.2486105E-010  0.4778727E+02  0.7816164E-02  0.1312668E+00
        -11   -1    0    0    0    0  0.00000000000E+00  0.00000000000E+00  0.45593999997E+02  0.45594000000E+02  0.51100000000E-03 0.  1.
         11   -1    0    0    0    0 -0.00000000000E+00 -0.00000000000E+00 -0.45593999997E+02  0.45594000000E+02  0.51100000000E-03 0. -1.
    9900012    2    1    2    0    0  0.26328491230E+02  0.10199356446E+02  0.32960686055E+02  0.47787272499E+02  0.20000006633E+02 0.  0.
         12    1    1    2    0    0 -0.26328491230E+02 -0.10199356446E+02 -0.32960686055E+02  0.43400727501E+02  0.00000000000E+00 0. -1.
         11    1    3    3    0    0 -0.87411059517E+00  0.25568112232E+01  0.83181280226E+00  0.28272364179E+01  0.51100000000E-03 0. -1.
        -11    1    3    3    0    0  0.75157544202E+01 -0.40460352398E+01  0.94415861705E+01  0.12727942306E+02  0.51100000000E-03 0.  1.
         12    1    3    3    0    0  0.19686847405E+02  0.11688580462E+02  0.22687287082E+02  0.32232093775E+02  0.00000000000E+00 0. -1.
</event>
<event>
 7    1  0.2486105E-010  0.4778727E+02  0.7816164E-02  0.1312668E+00
        -11   -1    0    0    0    0  0.00000000000E+00  0.00000000000E+00  0.45593999997E+02  0.45594000000E+02  0.51100000000E-03 0.  1.
         11   -1    0    0    0    0 -0.00000000000E+00 -0.00000000000E+00 -0.45593999997E+02  0.45594000000E+02  0.51100000000E-03 0. -1.
    9900012    2    1    2    0    0  0.13480061809E+02 -0.35616216607E+02  0.20818176489E+02  0.47787269314E+02  0.19999992110E+02 0.  0.
         12    1    1    2    0    0 -0.13480061809E+02  0.35616216607E+02 -0.20818176489E+02  0.43400730686E+02  0.00000000000E+00 0. -1.
         11    1    3    3    0    0  0.61316573892E+01 -0.16692107479E+01  0.71085784419E+01  0.95349554055E+01  0.51100000000E-03 0. -1.
        -11    1    3    3    0    0  0.29340214425E+01 -0.41011109412E+01  0.43603653954E+01  0.66663617829E+01  0.51100000000E-03 0.  1.
        -12    1    3    3    0    0  0.44143829777E+01 -0.29845894918E+02  0.93492326513E+01  0.31585952126E+02  0.00000000000E+00 0.  1.
</event>
<event>
 7    1  0.2486105E-010  0.4778727E+02  0.7816164E-02  0.1312668E+00
        -11   -1    0    0    0    0  0.00000000000E+00  0.00000000000E+00  0.45593999997E+02  0.45594000000E+02  0.51100000000E-03 0. -1.
         11   -1    0    0    0    0 -0.00000000000E+00 -0.00000000000E+00 -0.45593999997E+02  0.45594000000E+02  0.51100000000E-03 0.  1.
    9900012    2    1    2    0    0  0.26073720828E+02  0.12761862604E+02 -0.32263279062E+02  0.47787271541E+02  0.20000002263E+02 0.  0.
         12    1    1    2    0    0 -0.26073720828E+02 -0.12761862604E+02  0.32263279062E+02  0.43400728459E+02  0.00000000000E+00 0. -1.
         11    1    3    3    0    0  0.21113523192E+01 -0.40974280913E+01 -0.30166831979E+01  0.55088205050E+01  0.51100000000E-03 0. -1.
        -11    1    3    3    0    0  0.10813810660E+02  0.30443257213E+01 -0.13368815539E+02  0.17462292211E+02  0.51100000000E-03 0.  1.
         12    1    3    3    0    0  0.13148557849E+02  0.13814964974E+02 -0.15877780325E+02  0.24816158824E+02  0.00000000000E+00 0. -1.
</event>
<event>
 7    1  0.2486105E-010  0.4778728E+02  0.7816164E-02  0.1312668E+00
        -11   -1    0    0    0    0  0.00000000000E+00  0.00000000000E+00  0.45593999997E+02  0.45594000000E+02  0.51100000000E-03 0. -1.
         11   -1    0    0    0    0 -0.00000000000E+00 -0.00000000000E+00 -0.45593999997E+02  0.45594000000E+02  0.51100000000E-03 0.  1.
    9900012    2    1    2    0    0  0.22251047094E+01 -0.43159366263E+02  0.39925886901E+01  0.47787277061E+02  0.20000027430E+02 0.  0.
         12    1    1    2    0    0 -0.22251047094E+01  0.43159366263E+02 -0.39925886901E+01  0.43400722939E+02  0.00000000000E+00 0. -1.
         11    1    3    3    0    0  0.18438739713E+00 -0.35998001091E+01 -0.14046280163E+01  0.38685319778E+01  0.51100000000E-03 0. -1.
        -11    1    3    3    0    0 -0.44399659728E+01 -0.34139268131E+02  0.11101182981E+01  0.34444669969E+02  0.51100000000E-03 0.  1.
         12    1    3    3    0    0  0.64806832850E+01 -0.54202980229E+01  0.42870984083E+01  0.94740751137E+01  0.00000000000E+00 0. -1.
</event>
<event>
 7    1  0.2486105E-010  0.4778727E+02  0.7816164E-02  0.1312668E+00
        -11   -1    0    0    0    0  0.00000000000E+00  0.00000000000E+00  0.45593999997E+02  0.45594000000E+02  0.51100000000E-03 0.  1.
         11   -1    0    0    0    0 -0.00000000000E+00 -0.00000000000E+00 -0.45593999997E+02  0.45594000000E+02  0.51100000000E-03 0. -1.
    9900012    2    1    2    0    0  0.42592373230E+02 -0.76071025139E+01 -0.34125359898E+01  0.47787266505E+02  0.19999979305E+02 0.  0.
         12    1    1    2    0    0 -0.42592373230E+02  0.76071025139E+01  0.34125359898E+01  0.43400733495E+02  0.00000000000E+00 0. -1.
         11    1    3    3    0    0  0.21496650879E+02 -0.87656619111E+01 -0.25566954965E+01  0.23355502990E+02  0.51100000000E-03 0. -1.
        -11    1    3    3    0    0  0.17085236976E+02 -0.11026470185E+01  0.41644493414E+01  0.17619982734E+02  0.51100000000E-03 0.  1.
         12    1    3    3    0    0  0.40104853739E+01  0.22612064158E+01 -0.50202898347E+01  0.68117807814E+01  0.00000000000E+00 0. -1.
</event>
<event>
 7    1  0.2486105E-010  0.4778727E+02  0.7816164E-02  0.1312668E+00
        -11   -1    0    0    0    0  0.00000000000E+00  0.00000000000E+00  0.45593999997E+02  0.45594000000E+02  0.51100000000E-03 0.  1.
         11   -1    0    0    0    0 -0.00000000000E+00 -0.00000000000E+00 -0.45593999997E+02  0.45594000000E+02  0.51100000000E-03 0. -1.
    9900012    2    1    2    0    0 -0.40263660374E+02 -0.16305453100E+01  0.16118382710E+02  0.47787270906E+02  0.19999999370E+02 0.  0.
         12    1    1    2    0    0  0.40263660374E+02  0.16305453100E+01 -0.16118382710E+02  0.43400729094E+02  0.00000000000E+00 0. -1.
         11    1    3    3    0    0 -0.64939786427E+01 -0.94378189250E+00  0.36975668550E+01  0.75322296686E+01  0.51100000000E-03 0. -1.
        -11    1    3    3    0    0 -0.35595537204E+01  0.34552054701E+01  0.80427684652E+01  0.94496027629E+01  0.51100000000E-03 0.  1.
         12    1    3    3    0    0 -0.30210128010E+02 -0.41419688876E+01  0.43780473897E+01  0.30805438475E+02  0.00000000000E+00 0. -1.
</event>
<event>
 7    1  0.2486105E-010  0.4778727E+02  0.7816164E-02  0.1312668E+00
        -11   -1    0    0    0    0  0.00000000000E+00  0.00000000000E+00  0.45593999997E+02  0.45594000000E+02  0.51100000000E-03 0. -1.
         11   -1    0    0    0    0 -0.00000000000E+00 -0.00000000000E+00 -0.45593999997E+02  0.45594000000E+02  0.51100000000E-03 0.  1.
    9900012    2    1    2    0    0 -0.30462753008E+02 -0.15664740778E+01 -0.30873776602E+02  0.47787271394E+02  0.20000001594E+02 0.  0.
         12    1    1    2    0    0  0.30462753008E+02  0.15664740778E+01  0.30873776602E+02  0.43400728606E+02  0.00000000000E+00 0. -1.
         11    1    3    3    0    0 -0.47352505411E+01  0.23504829597E+01 -0.49274444313E+01  0.72268303367E+01  0.51100000000E-03 0. -1.
        -11    1    3    3    0    0 -0.17624378676E+02 -0.67535446387E+01 -0.25809154525E+02  0.31974076163E+02  0.51100000000E-03 0.  1.
         12    1    3    3    0    0 -0.81031237912E+01  0.28365876013E+01 -0.13717764501E+00  0.85863648945E+01  0.00000000000E+00 0. -1.
</event>
<event>
 7    1  0.2486105E-010  0.4778727E+02  0.7816164E-02  0.1312668E+00
        -11   -1    0    0    0    0  0.00000000000E+00  0.00000000000E+00  0.45593999997E+02  0.45594000000E+02  0.51100000000E-03 0.  1.
         11   -1    0    0    0    0 -0.00000000000E+00 -0.00000000000E+00 -0.45593999997E+02  0.45594000000E+02  0.51100000000E-03 0. -1.
    9900012    2    1    2    0    0  0.97180198101E+01  0.15731720071E+02  0.39264442670E+02  0.47787269781E+02  0.19999994239E+02 0.  0.
         12    1    1    2    0    0 -0.97180198101E+01 -0.15731720071E+02 -0.39264442670E+02  0.43400730219E+02  0.00000000000E+00 0. -1.
         11    1    3    3    0    0  0.29800047854E+01  0.13679589774E+02  0.10637146370E+02  0.17582960162E+02  0.51100000000E-03 0. -1.
        -11    1    3    3    0    0  0.52347279086E+01  0.12064860540E+01  0.88560666548E+01  0.10357987340E+02  0.51100000000E-03 0.  1.
        -12    1    3    3    0    0  0.15032871161E+01  0.84564424261E+00  0.19771229645E+02  0.19846322279E+02  0.00000000000E+00 0.  1.
</event>
<event>
 7    1  0.2486105E-010  0.4778727E+02  0.7816164E-02  0.1312668E+00
        -11   -1    0    0    0    0  0.00000000000E+00  0.00000000000E+00  0.45593999997E+02  0.45594000000E+02  0.51100000000E-03 0.  1.
         11   -1    0    0    0    0 -0.00000000000E+00 -0.00000000000E+00 -0.45593999997E+02  0.45594000000E+02  0.51100000000E-03 0. -1.
    9900012    2    1    2    0    0  0.73783631336E+01 -0.25047799774E+02  0.34666849930E+02  0.47787274198E+02  0.20000014377E+02 0.  0.
         12    1    1    2    0    0 -0.73783631336E+01  0.25047799774E+02 -0.34666849930E+02  0.43400725802E+02  0.00000000000E+00 0. -1.
         11    1    3    3    0    0  0.77773690918E+01 -0.90882017292E+01  0.13242435340E+02  0.17845026609E+02  0.51100000000E-03 0. -1.
        -11    1    3    3    0    0  0.27330277528E+01  0.13490851441E+01  0.51183108522E+01  0.59570611601E+01  0.51100000000E-03 0.  1.
        -12    1    3    3    0    0 -0.31320337110E+01 -0.17308683189E+02  0.16306103738E+02  0.23985186429E+02  0.00000000000E+00 0.  1.
</event>
<event>
 7    1  0.2486105E-010  0.4778724E+02  0.7816164E-02  0.1312668E+00
        -11   -1    0    0    0    0  0.00000000000E+00  0.00000000000E+00  0.45593999997E+02  0.45594000000E+02  0.51100000000E-03 0.  1.
         11   -1    0    0    0    0 -0.00000000000E+00 -0.00000000000E+00 -0.45593999997E+02  0.45594000000E+02  0.51100000000E-03 0. -1.
    9900012    2    1    2    0    0 -0.40165487854E+02 -0.36566463567E+01 -0.16030854105E+02  0.47787242397E+02  0.19999869386E+02 0.  0.
         12    1    1    2    0    0  0.40165487854E+02  0.36566463567E+01  0.16030854105E+02  0.43400757603E+02  0.00000000000E+00 0. -1.
         11    1    3    3    0    0 -0.15939790618E+02 -0.97373396722E+00 -0.11403726804E+02  0.19623202289E+02  0.51100000000E-03 0. -1.
        -11    1    3    3    0    0 -0.15866516607E+02  0.65043813768E+00 -0.88978789456E+01  0.18202792890E+02  0.51100000000E-03 0.  1.
        -12    1    3    3    0    0 -0.83591806295E+01 -0.33333505271E+01  0.42707516450E+01  0.99612472185E+01  0.00000000000E+00 0.  1.
</event>
<event>
 7    1  0.2486105E-010  0.4778727E+02  0.7816164E-02  0.1312668E+00
        -11   -1    0    0    0    0  0.00000000000E+00  0.00000000000E+00  0.45593999997E+02  0.45594000000E+02  0.51100000000E-03 0. -1.
         11   -1    0    0    0    0 -0.00000000000E+00 -0.00000000000E+00 -0.45593999997E+02  0.45594000000E+02  0.51100000000E-03 0.  1.
    9900012    2    1    2    0    0  0.50051837997E+00  0.32391909012E+02 -0.28881430793E+02  0.47787270367E+02  0.19999996910E+02 0.  0.
         12    1    1    2    0    0 -0.50051837997E+00 -0.32391909012E+02  0.28881430793E+02  0.43400729633E+02  0.00000000000E+00 0. -1.
         11    1    3    3    0    0  0.90763813345E+00  0.12097583504E+02 -0.10812582424E+02  0.16250762215E+02  0.51100000000E-03 0.  1.
        -11    1    3    3    0    0 -0.23107586400E+01  0.21773786362E+02 -0.18962037676E+02  0.28965432003E+02  0.51100000000E-03 0. -1.
         12    1    3    3    0    0  0.19036388865E+01 -0.14794608539E+01  0.89318930697E+00  0.25710761495E+01  0.00000000000E+00 0. -1.
</event>
<event>
 7    1  0.2486105E-010  0.4778728E+02  0.7816164E-02  0.1312668E+00
        -11   -1    0    0    0    0  0.00000000000E+00  0.00000000000E+00  0.45593999997E+02  0.45594000000E+02  0.51100000000E-03 0.  1.
         11   -1    0    0    0    0 -0.00000000000E+00 -0.00000000000E+00 -0.45593999997E+02  0.45594000000E+02  0.51100000000E-03 0. -1.
    9900012    2    1    2    0    0  0.12009796751E+02  0.15997132075E+02  0.38515961162E+02  0.47787277461E+02  0.20000029257E+02 0.  0.
         12    1    1    2    0    0 -0.12009796751E+02 -0.15997132075E+02 -0.38515961162E+02  0.43400722539E+02  0.00000000000E+00 0. -1.
         11    1    3    3    0    0  0.40543015276E+01  0.53954555784E+00  0.10929757144E+02  0.11669964087E+02  0.51100000000E-03 0. -1.
        -11    1    3    3    0    0  0.12408251998E+02  0.11891603218E+02  0.17490014394E+02  0.24520920629E+02  0.51100000000E-03 0.  1.
         12    1    3    3    0    0 -0.44527567748E+01  0.35659832988E+01  0.10096189624E+02  0.11596392745E+02  0.00000000000E+00 0. -1.
</event>
<event>
 7    1  0.2486105E-010  0.4778727E+02  0.7816164E-02  0.1312668E+00
        -11   -1    0    0    0    0  0.00000000000E+00  0.00000000000E+00  0.45593999997E+02  0.45594000000E+02  0.51100000000E-03 0. -1.
         11   -1    0    0    0    0 -0.00000000000E+00 -0.00000000000E+00 -0.45593999997E+02  0.45594000000E+02  0.51100000000E-03 0.  1.
    9900012    2    1    2    0    0 -0.24703032951E+02  0.48978339010E+01 -0.35346781607E+02  0.47787267473E+02  0.19999983717E+02 0.  0.
         12    1    1    2    0    0  0.24703032951E+02 -0.48978339010E+01  0.35346781607E+02  0.43400732527E+02  0.00000000000E+00 0. -1.
         11    1    3    3    0    0  0.52597139466E+00  0.12202703988E+01 -0.40017472147E+00  0.13877484725E+01  0.51100000000E-03 0. -1.
        -11    1    3    3    0    0  0.74785358229E+00 -0.33323731774E+01 -0.58142887401E+01  0.67431409438E+01  0.51100000000E-03 0.  1.
         12    1    3    3    0    0 -0.25976857928E+02  0.70099366796E+01 -0.29132318145E+02  0.39656378057E+02  0.00000000000E+00 0. -1.
</event>
<event>
 7    1  0.2486105E-010  0.4778727E+02  0.7816164E-02  0.1312668E+00
        -11   -1    0    0    0    0  0.00000000000E+00  0.00000000000E+00  0.45593999997E+02  0.45594000000E+02  0.51100000000E-03 0.  1.
         11   -1    0    0    0    0 -0.00000000000E+00 -0.00000000000E+00 -0.45593999997E+02  0.45594000000E+02  0.51100000000E-03 0. -1.
    9900012    2    1    2    0    0 -0.19150828108E+02  0.27260111828E+02  0.27816456507E+02  0.47787272279E+02  0.20000005629E+02 0.  0.
         12    1    1    2    0    0  0.19150828108E+02 -0.27260111828E+02 -0.27816456507E+02  0.43400727721E+02  0.00000000000E+00 0. -1.
         11    1    3    3    0    0 -0.64806648210E+00 -0.56004636712E+00 -0.92850285331E+00  0.12632339088E+01  0.51100000000E-03 0. -1.
        -11    1    3    3    0    0 -0.66930756512E+01  0.16628851630E+02  0.67248390419E+01  0.19145219471E+02  0.51100000000E-03 0.  1.
        -12    1    3    3    0    0 -0.11809685975E+02  0.11191306565E+02  0.22020120319E+02  0.27378818899E+02  0.00000000000E+00 0.  1.
</event>
<event>
 7    1  0.2486105E-010  0.4778727E+02  0.7816164E-02  0.1312668E+00
        -11   -1    0    0    0    0  0.00000000000E+00  0.00000000000E+00  0.45593999997E+02  0.45594000000E+02  0.51100000000E-03 0. -1.
         11   -1    0    0    0    0 -0.00000000000E+00 -0.00000000000E+00 -0.45593999997E+02  0.45594000000E+02  0.51100000000E-03 0.  1.
    9900012    2    1    2    0    0  0.16564000459E+02  0.30219099150E+02 -0.26383004769E+02  0.47787274139E+02  0.20000014109E+02 0.  0.
         12    1    1    2    0    0 -0.16564000459E+02 -0.30219099150E+02  0.26383004769E+02  0.43400725861E+02  0.00000000000E+00 0. -1.
         11    1    3    3    0    0  0.82323582920E+01  0.90449392526E+01 -0.16148718878E+02  0.20257437419E+02  0.51100000000E-03 0. -1.
        -11    1    3    3    0    0  0.47452049347E+01  0.15551671206E+02 -0.12475741743E+02  0.20494281628E+02  0.51100000000E-03 0.  1.
         12    1    3    3    0    0  0.35864372321E+01  0.56224886915E+01  0.22414558519E+01  0.70355550912E+01  0.00000000000E+00 0. -1.
</event>
<event>
 7    1  0.2486105E-010  0.4778727E+02  0.7816164E-02  0.1312668E+00
        -11   -1    0    0    0    0  0.00000000000E+00  0.00000000000E+00  0.45593999997E+02  0.45594000000E+02  0.51100000000E-03 0. -1.
         11   -1    0    0    0    0 -0.00000000000E+00 -0.00000000000E+00 -0.45593999997E+02  0.45594000000E+02  0.51100000000E-03 0.  1.
    9900012    2    1    2    0    0 -0.41976080162E+02 -0.95914112950E+01 -0.54439841122E+01  0.47787269137E+02  0.19999991304E+02 0.  0.
         12    1    1    2    0    0  0.41976080162E+02  0.95914112950E+01  0.54439841122E+01  0.43400730863E+02  0.00000000000E+00 0. -1.
         11    1    3    3    0    0 -0.66963116854E+00 -0.53661589776E+00 -0.13838743717E+01  0.16283338298E+01  0.51100000000E-03 0. -1.
        -11    1    3    3    0    0 -0.11082950894E+02 -0.99926288697E+01  0.27240089709E+01  0.15169200947E+02  0.51100000000E-03 0.  1.
        -12    1    3    3    0    0 -0.30223498100E+02  0.93783347246E+00 -0.67841187114E+01  0.30989734360E+02  0.00000000000E+00 0.  1.
</event>
<event>
 7    1  0.2486105E-010  0.4778727E+02  0.7816164E-02  0.1312668E+00
        -11   -1    0    0    0    0  0.00000000000E+00  0.00000000000E+00  0.45593999997E+02  0.45594000000E+02  0.51100000000E-03 0.  1.
         11   -1    0    0    0    0 -0.00000000000E+00 -0.00000000000E+00 -0.45593999997E+02  0.45594000000E+02  0.51100000000E-03 0. -1.
    9900012    2    1    2    0    0 -0.17868979892E+02  0.25629529457E+01  0.39468397399E+02  0.47787267709E+02  0.19999984793E+02 0.  0.
         12    1    1    2    0    0  0.17868979892E+02 -0.25629529457E+01 -0.39468397399E+02  0.43400732291E+02  0.00000000000E+00 0. -1.
         11    1    3    3    0    0 -0.44275250916E+01  0.18579545784E+01  0.18000731130E+00  0.48049325224E+01  0.51100000000E-03 0. -1.
        -11    1    3    3    0    0  0.85114399811E+00 -0.25693864913E+01  0.75514270285E+01  0.80218603500E+01  0.51100000000E-03 0.  1.
         12    1    3    3    0    0 -0.14292598798E+02  0.32743848587E+01  0.31736963059E+02  0.34960474837E+02  0.00000000000E+00 0. -1.
</event>
<event>
 7    1  0.2486105E-010  0.4778727E+02  0.7816164E-02  0.1312668E+00
        -11   -1    0    0    0    0  0.00000000000E+00  0.00000000000E+00  0.45593999997E+02  0.45594000000E+02  0.51100000000E-03 0.  1.
         11   -1    0    0    0    0 -0.00000000000E+00 -0.00000000000E+00 -0.45593999997E+02  0.45594000000E+02  0.51100000000E-03 0. -1.
    9900012    2    1    2    0    0 -0.36546227813E+02  0.23267591564E+02  0.25720425444E+01  0.47787274345E+02  0.20000015050E+02 0.  0.
         12    1    1    2    0    0  0.36546227813E+02 -0.23267591564E+02 -0.25720425444E+01  0.43400725655E+02  0.00000000000E+00 0. -1.
         11    1    3    3    0    0 -0.11104449108E+02  0.43077778114E+01  0.10441622038E+01  0.11956421481E+02  0.51100000000E-03 0. -1.
        -11    1    3    3    0    0 -0.14214470415E+02  0.54235220041E+01  0.78784712869E+01  0.17132894391E+02  0.51100000000E-03 0.  1.
         12    1    3    3    0    0 -0.11227308289E+02  0.13536291748E+02 -0.63505909463E+01  0.18697958474E+02  0.00000000000E+00 0. -1.
</event>
<event>
 7    1  0.2486105E-010  0.4778727E+02  0.7816164E-02  0.1312668E+00
        -11   -1    0    0    0    0  0.00000000000E+00  0.00000000000E+00  0.45593999997E+02  0.45594000000E+02  0.51100000000E-03 0.  1.
         11   -1    0    0    0    0 -0.00000000000E+00 -0.00000000000E+00 -0.45593999997E+02  0.45594000000E+02  0.51100000000E-03 0. -1.
    9900012    2    1    2    0    0 -0.24958964869E+02 -0.18493735389E+01  0.35457769099E+02  0.47787268447E+02  0.19999988158E+02 0.  0.
         12    1    1    2    0    0  0.24958964869E+02  0.18493735389E+01 -0.35457769099E+02  0.43400731553E+02  0.00000000000E+00 0. -1.
         11    1    3    3    0    0  0.83189963101E+00 -0.25751482510E+01  0.35058912440E+01  0.44288507749E+01  0.51100000000E-03 0. -1.
        -11    1    3    3    0    0 -0.60373856354E+01  0.20341419269E+01  0.18122325809E+02  0.19209540642E+02  0.51100000000E-03 0.  1.
        -12    1    3    3    0    0 -0.19753478864E+02 -0.13083672148E+01  0.13829552047E+02  0.24148877031E+02  0.00000000000E+00 0.  1.
</event>
<event>
 7    1  0.2486105E-010  0.4778727E+02  0.7816164E-02  0.1312668E+00
        -11   -1    0    0    0    0  0.00000000000E+00  0.00000000000E+00  0.45593999997E+02  0.45594000000E+02  0.51100000000E-03 0.  1.
         11   -1    0    0    0    0 -0.00000000000E+00 -0.00000000000E+00 -0.45593999997E+02  0.45594000000E+02  0.51100000000E-03 0. -1.
    9900012    2    1    2    0    0  0.87331004893E+01  0.45769757323E+01  0.42265917537E+02  0.47787268021E+02  0.19999986216E+02 0.  0.
         12    1    1    2    0    0 -0.87331004893E+01 -0.45769757323E+01 -0.42265917537E+02  0.43400731979E+02  0.00000000000E+00 0. -1.
         11    1    3    3    0    0  0.23058956025E+01  0.46676130966E+01  0.23339178516E+01  0.57053430526E+01  0.51100000000E-03 0. -1.
        -11    1    3    3    0    0  0.44312947176E+01  0.56174723086E+01  0.23874274401E+02  0.24923349423E+02  0.51100000000E-03 0.  1.
        -12    1    3    3    0    0  0.19959101692E+01 -0.57081096729E+01  0.16057725284E+02  0.17158575545E+02  0.00000000000E+00 0.  1.
</event>
<event>
 7    1  0.2486105E-010  0.4778730E+02  0.7816164E-02  0.1312668E+00
        -11   -1    0    0    0    0  0.00000000000E+00  0.00000000000E+00  0.45593999997E+02  0.45594000000E+02  0.51100000000E-03 0.  1.
         11   -1    0    0    0    0 -0.00000000000E+00 -0.00000000000E+00 -0.45593999997E+02  0.45594000000E+02  0.51100000000E-03 0. -1.
    9900012    2    1    2    0    0  0.30736249930E+02 -0.59857624446E+00  0.30635691745E+02  0.47787297679E+02  0.20000121435E+02 0.  0.
         12    1    1    2    0    0 -0.30736249930E+02  0.59857624446E+00 -0.30635691745E+02  0.43400702321E+02  0.00000000000E+00 0. -1.
         11    1    3    3    0    0  0.94403516477E+01  0.18723343452E+01  0.17448764262E+02  0.19926998009E+02  0.51100000000E-03 0. -1.
        -11    1    3    3    0    0  0.15282543051E+02  0.25661070419E+01  0.12638679962E+02  0.19996931237E+02  0.51100000000E-03 0.  1.
         12    1    3    3    0    0  0.60133552312E+01 -0.50370176316E+01  0.54824752153E+00  0.78633684323E+01  0.00000000000E+00 0. -1.
</event>
<event>
 7    1  0.2486105E-010  0.4778727E+02  0.7816164E-02  0.1312668E+00
        -11   -1    0    0    0    0  0.00000000000E+00  0.00000000000E+00  0.45593999997E+02  0.45594000000E+02  0.51100000000E-03 0.  1.
         11   -1    0    0    0    0 -0.00000000000E+00 -0.00000000000E+00 -0.45593999997E+02  0.45594000000E+02  0.51100000000E-03 0. -1.
    9900012    2    1    2    0    0 -0.43588137751E+01 -0.25661237697E+01  0.43104976904E+02  0.47787270943E+02  0.19999999539E+02 0.  0.
         12    1    1    2    0    0  0.43588137751E+01  0.25661237697E+01 -0.43104976904E+02  0.43400729057E+02  0.00000000000E+00 0. -1.
         11    1    3    3    0    0 -0.52883573641E+00 -0.65143459760E+01  0.20423616625E+02  0.21443891602E+02  0.51100000000E-03 0. -1.
        -11    1    3    3    0    0 -0.34127873026E+01  0.22312522620E+01  0.23868769306E+02  0.24214535971E+02  0.51100000000E-03 0.  1.
        -12    1    3    3    0    0 -0.41719073611E+00  0.17169699443E+01 -0.11874090268E+01  0.21288433707E+01  0.00000000000E+00 0.  1.
</event>
<event>
 7    1  0.2486105E-010  0.4778727E+02  0.7816164E-02  0.1312668E+00
        -11   -1    0    0    0    0  0.00000000000E+00  0.00000000000E+00  0.45593999997E+02  0.45594000000E+02  0.51100000000E-03 0. -1.
         11   -1    0    0    0    0 -0.00000000000E+00 -0.00000000000E+00 -0.45593999997E+02  0.45594000000E+02  0.51100000000E-03 0.  1.
    9900012    2    1    2    0    0 -0.26182171740E+02 -0.22688554575E+02  0.26140900616E+02  0.47787270619E+02  0.19999998062E+02 0.  0.
         12    1    1    2    0    0  0.26182171740E+02  0.22688554575E+02 -0.26140900616E+02  0.43400729381E+02  0.00000000000E+00 0. -1.
         11    1    3    3    0    0 -0.77909273867E+01 -0.14413734656E+02  0.16833137168E+02  0.23490610964E+02  0.51100000000E-03 0. -1.
        -11    1    3    3    0    0  0.80618200004E+00 -0.18886745094E+01  0.67465115791E-01  0.20546465931E+01  0.51100000000E-03 0.  1.
        -12    1    3    3    0    0 -0.19197426354E+02 -0.63861454092E+01  0.92402983323E+01  0.22242013062E+02  0.00000000000E+00 0.  1.
</event>
<event>
 7    1  0.2486105E-010  0.4778727E+02  0.7816164E-02  0.1312668E+00
        -11   -1    0    0    0    0  0.00000000000E+00  0.00000000000E+00  0.45593999997E+02  0.45594000000E+02  0.51100000000E-03 0.  1.
         11   -1    0    0    0    0 -0.00000000000E+00 -0.00000000000E+00 -0.45593999997E+02  0.45594000000E+02  0.51100000000E-03 0. -1.
    9900012    2    1    2    0    0  0.18866802024E+01  0.12672989154E+02  0.41466363397E+02  0.47787268328E+02  0.19999987616E+02 0.  0.
         12    1    1    2    0    0 -0.18866802024E+01 -0.12672989154E+02 -0.41466363397E+02  0.43400731672E+02  0.00000000000E+00 0. -1.
         11    1    3    3    0    0  0.80025895223E+01  0.60861278059E+01  0.29547787050E+02  0.31211441981E+02  0.51100000000E-03 0. -1.
        -11    1    3    3    0    0  0.13759050512E+01  0.24966888495E+01  0.41465681130E+01  0.50319576010E+01  0.51100000000E-03 0.  1.
        -12    1    3    3    0    0 -0.74918143711E+01  0.40901724982E+01  0.77720082337E+01  0.11543868746E+02  0.00000000000E+00 0.  1.
</event>
<event>
 7    1  0.2486105E-010  0.4778726E+02  0.7816164E-02  0.1312668E+00
        -11   -1    0    0    0    0  0.00000000000E+00  0.00000000000E+00  0.45593999997E+02  0.45594000000E+02  0.51100000000E-03 0.  1.
         11   -1    0    0    0    0 -0.00000000000E+00 -0.00000000000E+00 -0.45593999997E+02  0.45594000000E+02  0.51100000000E-03 0. -1.
    9900012    2    1    2    0    0  0.25136890519E+02  0.89751153543E+01  0.34222916033E+02  0.47787263343E+02  0.19999964885E+02 0.  0.
         12    1    1    2    0    0 -0.25136890519E+02 -0.89751153543E+01 -0.34222916033E+02  0.43400736657E+02  0.00000000000E+00 0. -1.
         11    1    3    3    0    0  0.21916042358E+01 -0.44270842576E+01  0.10194117095E+02  0.11327940137E+02  0.51100000000E-03 0. -1.
        -11    1    3    3    0    0  0.53337153521E+01  0.51656389664E+01  0.10130089399E+02  0.12559898761E+02  0.51100000000E-03 0.  1.
         12    1    3    3    0    0  0.17611570931E+02  0.82365606455E+01  0.13898709539E+02  0.23899424444E+02  0.00000000000E+00 0. -1.
</event>
<event>
 7    1  0.2486105E-010  0.4778727E+02  0.7816164E-02  0.1312668E+00
        -11   -1    0    0    0    0  0.00000000000E+00  0.00000000000E+00  0.45593999997E+02  0.45594000000E+02  0.51100000000E-03 0.  1.
         11   -1    0    0    0    0 -0.00000000000E+00 -0.00000000000E+00 -0.45593999997E+02  0.45594000000E+02  0.51100000000E-03 0. -1.
    9900012    2    1    2    0    0  0.35380860003E+02  0.16194878122E+02  0.19223525203E+02  0.47787271283E+02  0.20000001087E+02 0.  0.
         12    1    1    2    0    0 -0.35380860003E+02 -0.16194878122E+02 -0.19223525203E+02  0.43400728717E+02  0.00000000000E+00 0. -1.
         11    1    3    3    0    0  0.46450005654E+01  0.67290180308E+01  0.45667826380E+01  0.93654267300E+01  0.51100000000E-03 0. -1.
        -11    1    3    3    0    0  0.16595826180E+02  0.12831181558E+02  0.83799772619E+01  0.22589481754E+02  0.51100000000E-03 0.  1.
        -12    1    3    3    0    0  0.14140033258E+02 -0.33653214664E+01  0.62767653029E+01  0.15832362799E+02  0.00000000000E+00 0.  1.
</event>
<event>
 7    1  0.2486105E-010  0.4778726E+02  0.7816164E-02  0.1312668E+00
        -11   -1    0    0    0    0  0.00000000000E+00  0.00000000000E+00  0.45593999997E+02  0.45594000000E+02  0.51100000000E-03 0. -1.
         11   -1    0    0    0    0 -0.00000000000E+00 -0.00000000000E+00 -0.45593999997E+02  0.45594000000E+02  0.51100000000E-03 0.  1.
    9900012    2    1    2    0    0  0.21626006951E+02 -0.23149872228E+02 -0.29665190386E+02  0.47787259437E+02  0.19999947078E+02 0.  0.
         12    1    1    2    0    0 -0.21626006951E+02  0.23149872228E+02  0.29665190386E+02  0.43400740563E+02  0.00000000000E+00 0. -1.
         11    1    3    3    0    0  0.66263645084E+00 -0.36986484997E+01 -0.10766012612E+01  0.39087284795E+01  0.51100000000E-03 0. -1.
        -11    1    3    3    0    0  0.20914144584E+02 -0.13229119891E+02 -0.15012758581E+02  0.28944670964E+02  0.51100000000E-03 0.  1.
         12    1    3    3    0    0  0.49225915762E-01 -0.62221038371E+01 -0.13575830544E+02  0.14933859993E+02  0.00000000000E+00 0. -1.
</event>
<event>
 7    1  0.2486105E-010  0.4778727E+02  0.7816164E-02  0.1312668E+00
        -11   -1    0    0    0    0  0.00000000000E+00  0.00000000000E+00  0.45593999997E+02  0.45594000000E+02  0.51100000000E-03 0. -1.
         11   -1    0    0    0    0 -0.00000000000E+00 -0.00000000000E+00 -0.45593999997E+02  0.45594000000E+02  0.51100000000E-03 0.  1.
    9900012    2    1    2    0    0 -0.39319866916E+02 -0.53439879913E+01 -0.17578775806E+02  0.47787268430E+02  0.19999988081E+02 0.  0.
         12    1    1    2    0    0  0.39319866916E+02  0.53439879913E+01  0.17578775806E+02  0.43400731570E+02  0.00000000000E+00 0. -1.
         11    1    3    3    0    0 -0.89766991693E+01 -0.40525013776E+00 -0.58145417478E+01  0.10703001992E+02  0.51100000000E-03 0.  1.
        -11    1    3    3    0    0 -0.21030959577E+02 -0.10276389004E+02 -0.37886819727E+01  0.23712012631E+02  0.51100000000E-03 0. -1.
         12    1    3    3    0    0 -0.93122081700E+01  0.53376511504E+01 -0.79755520853E+01  0.13372253807E+02  0.00000000000E+00 0. -1.
</event>
<event>
 7    1  0.2486105E-010  0.4778727E+02  0.7816164E-02  0.1312668E+00
        -11   -1    0    0    0    0  0.00000000000E+00  0.00000000000E+00  0.45593999997E+02  0.45594000000E+02  0.51100000000E-03 0. -1.
         11   -1    0    0    0    0 -0.00000000000E+00 -0.00000000000E+00 -0.45593999997E+02  0.45594000000E+02  0.51100000000E-03 0.  1.
    9900012    2    1    2    0    0  0.30370576372E+02 -0.30257336198E+02  0.67634850251E+01  0.47787273823E+02  0.20000012669E+02 0.  0.
         12    1    1    2    0    0 -0.30370576372E+02  0.30257336198E+02 -0.67634850251E+01  0.43400726177E+02  0.00000000000E+00 0. -1.
         11    1    3    3    0    0  0.10504216373E+01 -0.73950530654E+01  0.11501709831E+01  0.75573202266E+01  0.51100000000E-03 0. -1.
        -11    1    3    3    0    0  0.23589778962E+02 -0.23581936810E+02  0.74350808018E+01  0.34174052174E+02  0.51100000000E-03 0.  1.
         12    1    3    3    0    0  0.57303757728E+01  0.71965367728E+00 -0.18217667598E+01  0.60559014226E+01  0.00000000000E+00 0. -1.
</event>
<event>
 7    1  0.2486105E-010  0.4778727E+02  0.7816164E-02  0.1312668E+00
        -11   -1    0    0    0    0  0.00000000000E+00  0.00000000000E+00  0.45593999997E+02  0.45594000000E+02  0.51100000000E-03 0. -1.
         11   -1    0    0    0    0 -0.00000000000E+00 -0.00000000000E+00 -0.45593999997E+02  0.45594000000E+02  0.51100000000E-03 0.  1.
    9900012    2    1    2    0    0 -0.56453123749E+00 -0.10388207482E+02 -0.42135373198E+02  0.47787271610E+02  0.20000002579E+02 0.  0.
         12    1    1    2    0    0  0.56453123749E+00  0.10388207482E+02  0.42135373198E+02  0.43400728390E+02  0.00000000000E+00 0. -1.
         11    1    3    3    0    0 -0.60970633623E+01 -0.20937553405E+01 -0.35374962067E+01  0.73533579230E+01  0.51100000000E-03 0. -1.
        -11    1    3    3    0    0  0.12595776519E+01 -0.18080397940E+01 -0.21982182724E+02  0.22092349384E+02  0.51100000000E-03 0.  1.
        -12    1    3    3    0    0  0.42729544730E+01 -0.64864123473E+01 -0.16615694268E+02  0.18341564303E+02  0.00000000000E+00 0.  1.
</event>
<event>
 7    1  0.2486105E-010  0.4778728E+02  0.7816164E-02  0.1312668E+00
        -11   -1    0    0    0    0  0.00000000000E+00  0.00000000000E+00  0.45593999997E+02  0.45594000000E+02  0.51100000000E-03 0. -1.
         11   -1    0    0    0    0 -0.00000000000E+00 -0.00000000000E+00 -0.45593999997E+02  0.45594000000E+02  0.51100000000E-03 0.  1.
    9900012    2    1    2    0    0 -0.98129208210E+01 -0.34620228802E+02  0.24264557256E+02  0.47787281157E+02  0.20000046105E+02 0.  0.
         12    1    1    2    0    0  0.98129208210E+01  0.34620228802E+02 -0.24264557256E+02  0.43400718843E+02  0.00000000000E+00 0. -1.
         11    1    3    3    0    0 -0.18782150731E+01  0.49109362452E+00 -0.11857339758E+01  0.22748252969E+01  0.51100000000E-03 0. -1.
        -11    1    3    3    0    0 -0.36666410430E+01 -0.14091986183E+02  0.38263494662E+01  0.15055539898E+02  0.51100000000E-03 0.  1.
         12    1    3    3    0    0 -0.42680647049E+01 -0.21019336243E+02  0.21623941765E+02  0.30456915962E+02  0.00000000000E+00 0. -1.
</event>
<event>
 7    1  0.2486105E-010  0.4778727E+02  0.7816164E-02  0.1312668E+00
        -11   -1    0    0    0    0  0.00000000000E+00  0.00000000000E+00  0.45593999997E+02  0.45594000000E+02  0.51100000000E-03 0.  1.
         11   -1    0    0    0    0 -0.00000000000E+00 -0.00000000000E+00 -0.45593999997E+02  0.45594000000E+02  0.51100000000E-03 0. -1.
    9900012    2    1    2    0    0 -0.39447275404E+02  0.13077199625E+02 -0.12510898281E+02  0.47787271174E+02  0.20000000592E+02 0.  0.
         12    1    1    2    0    0  0.39447275404E+02 -0.13077199625E+02  0.12510898281E+02  0.43400728826E+02  0.00000000000E+00 0. -1.
         11    1    3    3    0    0 -0.12685674074E+02 -0.23978905571E+01 -0.63614878539E+01  0.14392523539E+02  0.51100000000E-03 0. -1.
        -11    1    3    3    0    0 -0.10722172306E+02  0.80487057124E+01 -0.80170000063E+01  0.15621105337E+02  0.51100000000E-03 0.  1.
         12    1    3    3    0    0 -0.16039429024E+02  0.74263844696E+01  0.18675895792E+01  0.17773642298E+02  0.00000000000E+00 0. -1.
</event>
<event>
 7    1  0.2486105E-010  0.4778727E+02  0.7816164E-02  0.1312668E+00
        -11   -1    0    0    0    0  0.00000000000E+00  0.00000000000E+00  0.45593999997E+02  0.45594000000E+02  0.51100000000E-03 0.  1.
         11   -1    0    0    0    0 -0.00000000000E+00 -0.00000000000E+00 -0.45593999997E+02  0.45594000000E+02  0.51100000000E-03 0. -1.
    9900012    2    1    2    0    0 -0.28507266318E+02  0.32183269989E+02  0.59326509199E+01  0.47787269050E+02  0.19999990906E+02 0.  0.
         12    1    1    2    0    0  0.28507266318E+02 -0.32183269989E+02 -0.59326509199E+01  0.43400730950E+02  0.00000000000E+00 0. -1.
         11    1    3    3    0    0 -0.19315559895E+02  0.20343709504E+02  0.86536210830E+01  0.29357154639E+02  0.51100000000E-03 0. -1.
        -11    1    3    3    0    0 -0.78154306477E+01  0.13761152071E+02 -0.19573100803E+01  0.15946200975E+02  0.51100000000E-03 0.  1.
         12    1    3    3    0    0 -0.13762757754E+01 -0.19215915859E+01 -0.76366008276E+00  0.24839134355E+01  0.00000000000E+00 0. -1.
</event>
<event>
 7    1  0.2486105E-010  0.4778722E+02  0.7816164E-02  0.1312668E+00
        -11   -1    0    0    0    0  0.00000000000E+00  0.00000000000E+00  0.45593999997E+02  0.45594000000E+02  0.51100000000E-03 0.  1.
         11   -1    0    0    0    0 -0.00000000000E+00 -0.00000000000E+00 -0.45593999997E+02  0.45594000000E+02  0.51100000000E-03 0. -1.
    9900012    2    1    2    0    0  0.28966556790E+01  0.39494632338E+02  0.17759824123E+02  0.47787217167E+02  0.19999754352E+02 0.  0.
         12    1    1    2    0    0 -0.28966556790E+01 -0.39494632338E+02 -0.17759824123E+02  0.43400782833E+02  0.00000000000E+00 0. -1.
         11    1    3    3    0    0  0.48048312589E+00 -0.53633226037E+00 -0.82037013339E+00  0.10915693953E+01  0.51100000000E-03 0. -1.
        -11    1    3    3    0    0  0.34399932052E+01  0.40820668662E+02  0.16329601503E+02  0.44100072888E+02  0.51100000000E-03 0.  1.
        -12    1    3    3    0    0 -0.10238206521E+01 -0.78970406379E+00  0.22505927536E+01  0.25955748840E+01  0.00000000000E+00 0.  1.
</event>
<event>
 7    1  0.2486105E-010  0.4778727E+02  0.7816164E-02  0.1312668E+00
        -11   -1    0    0    0    0  0.00000000000E+00  0.00000000000E+00  0.45593999997E+02  0.45594000000E+02  0.51100000000E-03 0.  1.
         11   -1    0    0    0    0 -0.00000000000E+00 -0.00000000000E+00 -0.45593999997E+02  0.45594000000E+02  0.51100000000E-03 0. -1.
    9900012    2    1    2    0    0 -0.39257152015E+02 -0.11507327759E+01  0.18470933582E+02  0.47787267775E+02  0.19999985095E+02 0.  0.
         12    1    1    2    0    0  0.39257152015E+02  0.11507327759E+01 -0.18470933582E+02  0.43400732225E+02  0.00000000000E+00 0. -1.
         11    1    3    3    0    0 -0.11039878652E+01 -0.31435300977E+01  0.75486000577E-01  0.33326069493E+01  0.51100000000E-03 0. -1.
        -11    1    3    3    0    0 -0.24469253366E+02  0.30271700670E+01  0.18344595240E+02  0.30731617167E+02  0.51100000000E-03 0.  1.
         12    1    3    3    0    0 -0.13683910784E+02 -0.10343727452E+01  0.50852341293E-01  0.13723043659E+02  0.00000000000E+00 0. -1.
</event>
<event>
 7    1  0.2486105E-010  0.4778728E+02  0.7816164E-02  0.1312668E+00
        -11   -1    0    0    0    0  0.00000000000E+00  0.00000000000E+00  0.45593999997E+02  0.45594000000E+02  0.51100000000E-03 0.  1.
         11   -1    0    0    0    0 -0.00000000000E+00 -0.00000000000E+00 -0.45593999997E+02  0.45594000000E+02  0.51100000000E-03 0. -1.
    9900012    2    1    2    0    0 -0.40565098844E+02  0.16534736650E+01  0.15341476901E+02  0.47787284189E+02  0.20000059933E+02 0.  0.
         12    1    1    2    0    0  0.40565098844E+02 -0.16534736650E+01 -0.15341476901E+02  0.43400715811E+02  0.00000000000E+00 0. -1.
         11    1    3    3    0    0 -0.15948421716E+02  0.24623517405E+01  0.11168874843E+02  0.19625470614E+02  0.51100000000E-03 0. -1.
        -11    1    3    3    0    0 -0.19572138787E+02  0.49360777830E+01  0.35086160149E+01  0.20487651578E+02  0.51100000000E-03 0.  1.
         12    1    3    3    0    0 -0.50445383404E+01 -0.57449558586E+01  0.66398604361E+00  0.76741619967E+01  0.00000000000E+00 0. -1.
</event>
<event>
 7    1  0.2486105E-010  0.4778727E+02  0.7816164E-02  0.1312668E+00
        -11   -1    0    0    0    0  0.00000000000E+00  0.00000000000E+00  0.45593999997E+02  0.45594000000E+02  0.51100000000E-03 0.  1.
         11   -1    0    0    0    0 -0.00000000000E+00 -0.00000000000E+00 -0.45593999997E+02  0.45594000000E+02  0.51100000000E-03 0. -1.
    9900012    2    1    2    0    0  0.59129403428E+01  0.36185290385E+02  0.23222510744E+02  0.47787272944E+02  0.20000008663E+02 0.  0.
         12    1    1    2    0    0 -0.59129403428E+01 -0.36185290385E+02 -0.23222510744E+02  0.43400727056E+02  0.00000000000E+00 0. -1.
         11    1    3    3    0    0  0.16628847875E+01  0.10064867164E+02  0.15397830265E+02  0.18470514718E+02  0.51100000000E-03 0. -1.
        -11    1    3    3    0    0 -0.12446219185E+01 -0.11906914358E+00 -0.33400686646E+00  0.12941491525E+01  0.51100000000E-03 0.  1.
        -12    1    3    3    0    0  0.54946774738E+01  0.26239492365E+02  0.81586873453E+01  0.28022609074E+02  0.00000000000E+00 0.  1.
</event>
<event>
 7    1  0.2486105E-010  0.4778726E+02  0.7816164E-02  0.1312668E+00
        -11   -1    0    0    0    0  0.00000000000E+00  0.00000000000E+00  0.45593999997E+02  0.45594000000E+02  0.51100000000E-03 0.  1.
         11   -1    0    0    0    0 -0.00000000000E+00 -0.00000000000E+00 -0.45593999997E+02  0.45594000000E+02  0.51100000000E-03 0. -1.
    9900012    2    1    2    0    0 -0.27154162977E+02 -0.30777712679E+01  0.33716511460E+02  0.47787258209E+02  0.19999941476E+02 0.  0.
         12    1    1    2    0    0  0.27154162977E+02  0.30777712679E+01 -0.33716511460E+02  0.43400741791E+02  0.00000000000E+00 0. -1.
         11    1    3    3    0    0 -0.16818851389E+02  0.46832709362E+01  0.24995862779E+02  0.30489341499E+02  0.51100000000E-03 0. -1.
        -11    1    3    3    0    0  0.61200332170E+00  0.74243666109E-02 -0.67626549467E+00  0.91210660966E+00  0.51100000000E-03 0.  1.
        -12    1    3    3    0    0 -0.10947314910E+02 -0.77684665707E+01  0.93969141762E+01  0.16385810100E+02  0.00000000000E+00 0.  1.
</event>
<event>
 7    1  0.2486105E-010  0.4778727E+02  0.7816164E-02  0.1312668E+00
        -11   -1    0    0    0    0  0.00000000000E+00  0.00000000000E+00  0.45593999997E+02  0.45594000000E+02  0.51100000000E-03 0.  1.
         11   -1    0    0    0    0 -0.00000000000E+00 -0.00000000000E+00 -0.45593999997E+02  0.45594000000E+02  0.51100000000E-03 0. -1.
    9900012    2    1    2    0    0  0.14934145021E+01  0.30130458814E+02  0.31201735511E+02  0.47787272654E+02  0.20000007340E+02 0.  0.
         12    1    1    2    0    0 -0.14934145021E+01 -0.30130458814E+02 -0.31201735511E+02  0.43400727346E+02  0.00000000000E+00 0. -1.
         11    1    3    3    0    0  0.15189282398E+01  0.58244081334E+01  0.98377968614E+01  0.11533131424E+02  0.51100000000E-03 0. -1.
        -11    1    3    3    0    0  0.51631572599E+01  0.86891027747E+01  0.11259177380E+01  0.10169876643E+02  0.51100000000E-03 0.  1.
        -12    1    3    3    0    0 -0.51886709976E+01  0.15616947906E+02  0.20238020912E+02  0.26084264587E+02  0.00000000000E+00 0.  1.
</event>
<event>
 7    1  0.2486105E-010  0.4778727E+02  0.7816164E-02  0.1312668E+00
        -11   -1    0    0    0    0  0.00000000000E+00  0.00000000000E+00  0.45593999997E+02  0.45594000000E+02  0.51100000000E-03 0.  1.
         11   -1    0    0    0    0 -0.00000000000E+00 -0.00000000000E+00 -0.45593999997E+02  0.45594000000E+02  0.51100000000E-03 0. -1.
    9900012    2    1    2    0    0  0.98533260011E+00  0.70913442803E+01  0.42806135980E+02  0.47787270495E+02  0.19999997493E+02 0.  0.
         12    1    1    2    0    0 -0.98533260011E+00 -0.70913442803E+01 -0.42806135980E+02  0.43400729505E+02  0.00000000000E+00 0. -1.
         11    1    3    3    0    0 -0.13992995357E+01 -0.45952160968E+01  0.40795864029E+01  0.63021484945E+01  0.51100000000E-03 0. -1.
        -11    1    3    3    0    0  0.33778214984E+01  0.17294817510E+01  0.48301155872E+01  0.61425403579E+01  0.51100000000E-03 0.  1.
        -12    1    3    3    0    0 -0.99318936251E+00  0.99570786262E+01  0.33896433990E+02  0.35342581642E+02  0.00000000000E+00 0.  1.
</event>
<event>
 7    1  0.2486105E-010  0.4778726E+02  0.7816164E-02  0.1312668E+00
        -11   -1    0    0    0    0  0.00000000000E+00  0.00000000000E+00  0.45593999997E+02  0.45594000000E+02  0.51100000000E-03 0.  1.
         11   -1    0    0    0    0 -0.00000000000E+00 -0.00000000000E+00 -0.45593999997E+02  0.45594000000E+02  0.51100000000E-03 0. -1.
    9900012    2    1    2    0    0  0.40798016396E+02 -0.15680729943E+01  0.14720297495E+02  0.47787260915E+02  0.19999953817E+02 0.  0.
         12    1    1    2    0    0 -0.40798016396E+02  0.15680729943E+01 -0.14720297495E+02  0.43400739085E+02  0.00000000000E+00 0. -1.
         11    1    3    3    0    0  0.13394804299E+00 -0.38743676233E+00 -0.44373133950E+00  0.60410850499E+00  0.51100000000E-03 0. -1.
        -11    1    3    3    0    0  0.39749697660E+02  0.85571227047E+00  0.91920851955E+01  0.40807660287E+02  0.51100000000E-03 0.  1.
        -12    1    3    3    0    0  0.91437069265E+00 -0.20363485024E+01  0.59719436390E+01  0.63754921233E+01  0.00000000000E+00 0.  1.
</event>
<event>
 7    1  0.2486105E-010  0.4778726E+02  0.7816164E-02  0.1312668E+00
        -11   -1    0    0    0    0  0.00000000000E+00  0.00000000000E+00  0.45593999997E+02  0.45594000000E+02  0.51100000000E-03 0.  1.
         11   -1    0    0    0    0 -0.00000000000E+00 -0.00000000000E+00 -0.45593999997E+02  0.45594000000E+02  0.51100000000E-03 0. -1.
    9900012    2    1    2    0    0  0.36947594437E+02  0.11959783817E+02  0.19376861284E+02  0.47787263637E+02  0.19999966226E+02 0.  0.
         12    1    1    2    0    0 -0.36947594437E+02 -0.11959783817E+02 -0.19376861284E+02  0.43400736363E+02  0.00000000000E+00 0. -1.
         11    1    3    3    0    0  0.54496612401E+01  0.99238038758E+00  0.83651013489E+00  0.56020867480E+01  0.51100000000E-03 0. -1.
        -11    1    3    3    0    0  0.18516751983E+02  0.13156884651E+02  0.18046812554E+02  0.29011397094E+02  0.51100000000E-03 0.  1.
        -12    1    3    3    0    0  0.12981181214E+02 -0.21894812222E+01  0.49353859510E+00  0.13173779795E+02  0.00000000000E+00 0.  1.
</event>
<event>
 7    1  0.2486105E-010  0.4778728E+02  0.7816164E-02  0.1312668E+00
        -11   -1    0    0    0    0  0.00000000000E+00  0.00000000000E+00  0.45593999997E+02  0.45594000000E+02  0.51100000000E-03 0.  1.
         11   -1    0    0    0    0 -0.00000000000E+00 -0.00000000000E+00 -0.45593999997E+02  0.45594000000E+02  0.51100000000E-03 0. -1.
    9900012    2    1    2    0    0 -0.13201440073E+02  0.16215377080E+02  0.38031649391E+02  0.47787276167E+02  0.20000023355E+02 0.  0.
         12    1    1    2    0    0  0.13201440073E+02 -0.16215377080E+02 -0.38031649391E+02  0.43400723833E+02  0.00000000000E+00 0. -1.
         11    1    3    3    0    0 -0.51781531013E+01 -0.20857034835E+01  0.62177621558E+01  0.83560753377E+01  0.51100000000E-03 0. -1.
        -11    1    3    3    0    0 -0.44604078277E+01  0.43193887331E+01  0.19492705156E+02  0.20457710321E+02  0.51100000000E-03 0.  1.
         12    1    3    3    0    0 -0.35628791440E+01  0.13981691830E+02  0.12321182080E+02  0.18973490508E+02  0.00000000000E+00 0. -1.
</event>
<event>
 7    1  0.2486105E-010  0.4778726E+02  0.7816164E-02  0.1312668E+00
        -11   -1    0    0    0    0  0.00000000000E+00  0.00000000000E+00  0.45593999997E+02  0.45594000000E+02  0.51100000000E-03 0.  1.
         11   -1    0    0    0    0 -0.00000000000E+00 -0.00000000000E+00 -0.45593999997E+02  0.45594000000E+02  0.51100000000E-03 0. -1.
    9900012    2    1    2    0    0 -0.14801562510E+02  0.30881350569E+02  0.26662328367E+02  0.47787264757E+02  0.19999971331E+02 0.  0.
         12    1    1    2    0    0  0.14801562510E+02 -0.30881350569E+02 -0.26662328367E+02  0.43400735243E+02  0.00000000000E+00 0. -1.
         11    1    3    3    0    0 -0.91223975698E+01  0.59743418347E+01  0.94043630371E+01  0.14399754935E+02  0.51100000000E-03 0. -1.
        -11    1    3    3    0    0 -0.75528265217E+01  0.14377453468E+02  0.15683702233E+02  0.22577308801E+02  0.51100000000E-03 0.  1.
         12    1    3    3    0    0  0.18736615816E+01  0.10529555266E+02  0.15742630978E+01  0.10810201021E+02  0.00000000000E+00 0. -1.
</event>
<event>
 7    1  0.2486105E-010  0.4778727E+02  0.7816164E-02  0.1312668E+00
        -11   -1    0    0    0    0  0.00000000000E+00  0.00000000000E+00  0.45593999997E+02  0.45594000000E+02  0.51100000000E-03 0.  1.
         11   -1    0    0    0    0 -0.00000000000E+00 -0.00000000000E+00 -0.45593999997E+02  0.45594000000E+02  0.51100000000E-03 0. -1.
    9900012    2    1    2    0    0  0.10234810721E+02  0.24989139526E+02  0.33976679801E+02  0.47787271722E+02  0.20000003089E+02 0.  0.
         12    1    1    2    0    0 -0.10234810721E+02 -0.24989139526E+02 -0.33976679801E+02  0.43400728278E+02  0.00000000000E+00 0. -1.
         11    1    3    3    0    0  0.65154597747E+01  0.12944469841E+02  0.19872521221E+02  0.24595276284E+02  0.51100000000E-03 0. -1.
        -11    1    3    3    0    0  0.65242578466E+01  0.13660848359E+02  0.12142305472E+02  0.19406707623E+02  0.51100000000E-03 0.  1.
         12    1    3    3    0    0 -0.28049069003E+01 -0.16161786735E+01  0.19618531080E+01  0.37852878149E+01  0.00000000000E+00 0. -1.
</event>
<event>
 7    1  0.2486105E-010  0.4778727E+02  0.7816164E-02  0.1312668E+00
        -11   -1    0    0    0    0  0.00000000000E+00  0.00000000000E+00  0.45593999997E+02  0.45594000000E+02  0.51100000000E-03 0.  1.
         11   -1    0    0    0    0 -0.00000000000E+00 -0.00000000000E+00 -0.45593999997E+02  0.45594000000E+02  0.51100000000E-03 0. -1.
    9900012    2    1    2    0    0  0.34925343278E+02  0.55624938758E+01  0.25157548022E+02  0.47787272314E+02  0.20000005789E+02 0.  0.
         12    1    1    2    0    0 -0.34925343278E+02 -0.55624938758E+01 -0.25157548022E+02  0.43400727686E+02  0.00000000000E+00 0. -1.
         11    1    3    3    0    0  0.25773749939E+02  0.12509428532E+02  0.14668328164E+02  0.32185895039E+02  0.51100000000E-03 0. -1.
        -11    1    3    3    0    0  0.36701112927E+01 -0.33502929822E+01  0.50188580909E+01  0.70627980833E+01  0.51100000000E-03 0.  1.
         12    1    3    3    0    0  0.54814820466E+01 -0.35966416735E+01  0.54703617669E+01  0.85385791918E+01  0.00000000000E+00 0. -1.
</event>
<event>
 7    1  0.2486105E-010  0.4778727E+02  0.7816164E-02  0.1312668E+00
        -11   -1    0    0    0    0  0.00000000000E+00  0.00000000000E+00  0.45593999997E+02  0.45594000000E+02  0.51100000000E-03 0.  1.
         11   -1    0    0    0    0 -0.00000000000E+00 -0.00000000000E+00 -0.45593999997E+02  0.45594000000E+02  0.51100000000E-03 0. -1.
    9900012    2    1    2    0    0 -0.10022012957E+02 -0.34118619660E+02  0.24881763367E+02  0.47787273054E+02  0.20000009160E+02 0.  0.
         12    1    1    2    0    0  0.10022012957E+02  0.34118619660E+02 -0.24881763367E+02  0.43400726946E+02  0.00000000000E+00 0. -1.
         11    1    3    3    0    0  0.65252203355E+00 -0.22726450109E+02  0.73486976848E+01  0.23893946461E+02  0.51100000000E-03 0. -1.
        -11    1    3    3    0    0  0.26393333715E+00  0.43868322742E-01  0.88248026869E+00  0.92214799352E+00  0.51100000000E-03 0.  1.
        -12    1    3    3    0    0 -0.10938468327E+02 -0.11436037874E+02  0.16650585414E+02  0.22971178599E+02  0.00000000000E+00 0.  1.
</event>
<event>
 7    1  0.2486105E-010  0.4778727E+02  0.7816164E-02  0.1312668E+00
        -11   -1    0    0    0    0  0.00000000000E+00  0.00000000000E+00  0.45593999997E+02  0.45594000000E+02  0.51100000000E-03 0.  1.
         11   -1    0    0    0    0 -0.00000000000E+00 -0.00000000000E+00 -0.45593999997E+02  0.45594000000E+02  0.51100000000E-03 0. -1.
    9900012    2    1    2    0    0  0.75439112336E+01  0.42541650229E+02 -0.41134791941E+01  0.47787270605E+02  0.19999997998E+02 0.  0.
         12    1    1    2    0    0 -0.75439112336E+01 -0.42541650229E+02  0.41134791941E+01  0.43400729395E+02  0.00000000000E+00 0. -1.
         11    1    3    3    0    0 -0.71957970300E+00  0.10565929956E+02  0.63846472148E+00  0.10609632804E+02  0.51100000000E-03 0. -1.
        -11    1    3    3    0    0 -0.12072905416E+01  0.95389313666E+01  0.51269242326E+01  0.10896518454E+02  0.51100000000E-03 0.  1.
         12    1    3    3    0    0  0.94707814783E+01  0.22436788907E+02 -0.98788681482E+01  0.26281119347E+02  0.00000000000E+00 0. -1.
</event>
<event>
 7    1  0.2486105E-010  0.4778727E+02  0.7816164E-02  0.1312668E+00
        -11   -1    0    0    0    0  0.00000000000E+00  0.00000000000E+00  0.45593999997E+02  0.45594000000E+02  0.51100000000E-03 0.  1.
         11   -1    0    0    0    0 -0.00000000000E+00 -0.00000000000E+00 -0.45593999997E+02  0.45594000000E+02  0.51100000000E-03 0. -1.
    9900012    2    1    2    0    0  0.17573833245E+02 -0.14366691994E+02  0.36991643267E+02  0.47787272756E+02  0.20000007802E+02 0.  0.
         12    1    1    2    0    0 -0.17573833245E+02  0.14366691994E+02 -0.36991643267E+02  0.43400727244E+02  0.00000000000E+00 0. -1.
         11    1    3    3    0    0 -0.65765183459E+00  0.15105305049E+01 -0.13702965717E+01  0.21428768741E+01  0.51100000000E-03 0. -1.
        -11    1    3    3    0    0  0.45445274019E+01 -0.45735013211E+01  0.64042404009E+01  0.90875705783E+01  0.51100000000E-03 0.  1.
        -12    1    3    3    0    0  0.13686957678E+02 -0.11303721177E+02  0.31957699437E+02  0.36556825303E+02  0.00000000000E+00 0.  1.
</event>
<event>
 7    1  0.2486105E-010  0.4778727E+02  0.7816164E-02  0.1312668E+00
        -11   -1    0    0    0    0  0.00000000000E+00  0.00000000000E+00  0.45593999997E+02  0.45594000000E+02  0.51100000000E-03 0. -1.
         11   -1    0    0    0    0 -0.00000000000E+00 -0.00000000000E+00 -0.45593999997E+02  0.45594000000E+02  0.51100000000E-03 0.  1.
    9900012    2    1    2    0    0  0.81470974877E+01  0.37434829639E+02  0.20393175353E+02  0.47787271106E+02  0.20000000279E+02 0.  0.
         12    1    1    2    0    0 -0.81470974877E+01 -0.37434829639E+02 -0.20393175353E+02  0.43400728894E+02  0.00000000000E+00 0. -1.
         11    1    3    3    0    0  0.77452514081E+01  0.11932853180E+02  0.11461133593E+02  0.18268538198E+02  0.51100000000E-03 0. -1.
        -11    1    3    3    0    0 -0.47120387515E-01  0.14117561403E+02  0.11052955413E+02  0.17929740208E+02  0.51100000000E-03 0.  1.
         12    1    3    3    0    0  0.44896646713E+00  0.11384415056E+02 -0.21209136541E+01  0.11588992700E+02  0.00000000000E+00 0. -1.
</event>
<event>
 7    1  0.2486105E-010  0.4778727E+02  0.7816164E-02  0.1312668E+00
        -11   -1    0    0    0    0  0.00000000000E+00  0.00000000000E+00  0.45593999997E+02  0.45594000000E+02  0.51100000000E-03 0.  1.
         11   -1    0    0    0    0 -0.00000000000E+00 -0.00000000000E+00 -0.45593999997E+02  0.45594000000E+02  0.51100000000E-03 0. -1.
    9900012    2    1    2    0    0  0.36561186177E+02 -0.21247755441E+02 -0.97691205780E+01  0.47787272324E+02  0.20000005835E+02 0.  0.
         12    1    1    2    0    0 -0.36561186177E+02  0.21247755441E+02  0.97691205780E+01  0.43400727676E+02  0.00000000000E+00 0. -1.
         11    1    3    3    0    0  0.46635913350E+01  0.22734409525E+01 -0.64229393621E+00  0.52278255199E+01  0.51100000000E-03 0. -1.
        -11    1    3    3    0    0  0.24204670263E+02 -0.10453297916E+02 -0.66874441532E+01  0.27200356788E+02  0.51100000000E-03 0.  1.
         12    1    3    3    0    0  0.76929245789E+01 -0.13067898477E+02 -0.24393824885E+01  0.15359090016E+02  0.00000000000E+00 0. -1.
</event>
<event>
 7    1  0.2486105E-010  0.4778727E+02  0.7816164E-02  0.1312668E+00
        -11   -1    0    0    0    0  0.00000000000E+00  0.00000000000E+00  0.45593999997E+02  0.45594000000E+02  0.51100000000E-03 0.  1.
         11   -1    0    0    0    0 -0.00000000000E+00 -0.00000000000E+00 -0.45593999997E+02  0.45594000000E+02  0.51100000000E-03 0. -1.
    9900012    2    1    2    0    0 -0.30920398496E+02  0.81914086163E+01  0.29333482566E+02  0.47787269387E+02  0.19999992444E+02 0.  0.
         12    1    1    2    0    0  0.30920398496E+02 -0.81914086163E+01 -0.29333482566E+02  0.43400730613E+02  0.00000000000E+00 0. -1.
         11    1    3    3    0    0 -0.10373060422E+02  0.50515631766E+01  0.31932808263E+01  0.11971454203E+02  0.51100000000E-03 0. -1.
        -11    1    3    3    0    0 -0.15605619147E+02  0.79226229617E+01  0.20211454495E+02  0.26735859751E+02  0.51100000000E-03 0.  1.
        -12    1    3    3    0    0 -0.49417189269E+01 -0.47827775220E+01  0.59287472451E+01  0.90799554335E+01  0.00000000000E+00 0.  1.
</event>
<event>
 7    1  0.2486105E-010  0.4778727E+02  0.7816164E-02  0.1312668E+00
        -11   -1    0    0    0    0  0.00000000000E+00  0.00000000000E+00  0.45593999997E+02  0.45594000000E+02  0.51100000000E-03 0. -1.
         11   -1    0    0    0    0 -0.00000000000E+00 -0.00000000000E+00 -0.45593999997E+02  0.45594000000E+02  0.51100000000E-03 0.  1.
    9900012    2    1    2    0    0  0.38680872747E+02 -0.38059563523E+01  0.19311348442E+02  0.47787269605E+02  0.19999993436E+02 0.  0.
         12    1    1    2    0    0 -0.38680872747E+02  0.38059563523E+01 -0.19311348442E+02  0.43400730395E+02  0.00000000000E+00 0. -1.
         11    1    3    3    0    0  0.27253301326E+01 -0.31430280017E+01  0.48927136656E+01  0.64222034089E+01  0.51100000000E-03 0. -1.
        -11    1    3    3    0    0  0.69664033453E+01 -0.95782946377E+00  0.97187535442E+01  0.11995931959E+02  0.51100000000E-03 0.  1.
        -12    1    3    3    0    0  0.28989139269E+02  0.29490111320E+00  0.46998812317E+01  0.29369134237E+02  0.00000000000E+00 0.  1.
</event>
<event>
 7    1  0.2486105E-010  0.4778727E+02  0.7816164E-02  0.1312668E+00
        -11   -1    0    0    0    0  0.00000000000E+00  0.00000000000E+00  0.45593999997E+02  0.45594000000E+02  0.51100000000E-03 0. -1.
         11   -1    0    0    0    0 -0.00000000000E+00 -0.00000000000E+00 -0.45593999997E+02  0.45594000000E+02  0.51100000000E-03 0.  1.
    9900012    2    1    2    0    0  0.23244618712E+02 -0.29025766746E+02 -0.22378917658E+02  0.47787269709E+02  0.19999993910E+02 0.  0.
         12    1    1    2    0    0 -0.23244618712E+02  0.29025766746E+02  0.22378917658E+02  0.43400730291E+02  0.00000000000E+00 0. -1.
         11    1    3    3    0    0  0.12326356759E+01  0.26788234233E-01 -0.71099289405E+01  0.72160375636E+01  0.51100000000E-03 0. -1.
        -11    1    3    3    0    0  0.13083158422E+01 -0.14278689777E+01  0.12454733386E+01  0.23025429982E+01  0.51100000000E-03 0.  1.
        -12    1    3    3    0    0  0.20703667194E+02 -0.27624686003E+02 -0.16514462056E+02  0.38268689147E+02  0.00000000000E+00 0.  1.
</event>
<event>
 7    1  0.2486105E-010  0.4778727E+02  0.7816164E-02  0.1312668E+00
        -11   -1    0    0    0    0  0.00000000000E+00  0.00000000000E+00  0.45593999997E+02  0.45594000000E+02  0.51100000000E-03 0. -1.
         11   -1    0    0    0    0 -0.00000000000E+00 -0.00000000000E+00 -0.45593999997E+02  0.45594000000E+02  0.51100000000E-03 0.  1.
    9900012    2    1    2    0    0  0.36414244080E+02 -0.22740182001E+02 -0.63647657246E+01  0.47787270835E+02  0.19999999044E+02 0.  0.
         12    1    1    2    0    0 -0.36414244080E+02  0.22740182001E+02  0.63647657246E+01  0.43400729165E+02  0.00000000000E+00 0. -1.
         11    1    3    3    0    0  0.15235393099E+02 -0.49422865196E+01 -0.41177184649E+01  0.16537805312E+02  0.51100000000E-03 0. -1.
        -11    1    3    3    0    0  0.14672032871E+02 -0.11525233740E+02 -0.82494897553E+01  0.20399844186E+02  0.51100000000E-03 0.  1.
        -12    1    3    3    0    0  0.65068181097E+01 -0.62726617416E+01  0.60024424955E+01  0.10849621337E+02  0.00000000000E+00 0.  1.
</event>
<event>
 7    1  0.2812426E-010  0.4778727E+02  0.7816164E-02  0.1312668E+00
        -11   -1    0    0    0    0  0.00000000000E+00  0.00000000000E+00  0.45593999997E+02  0.45594000000E+02  0.51100000000E-03 0.  1.
         11   -1    0    0    0    0 -0.00000000000E+00 -0.00000000000E+00 -0.45593999997E+02  0.45594000000E+02  0.51100000000E-03 0. -1.
    9900012    2    1    2    0    0 -0.35793632178E+02  0.15888356693E+02  0.18708268887E+02  0.47787270656E+02  0.19999998227E+02 0.  0.
         12    1    1    2    0    0  0.35793632178E+02 -0.15888356693E+02 -0.18708268887E+02  0.43400729344E+02  0.00000000000E+00 0. -1.
         11    1    3    3    0    0  0.12888510126E+01 -0.23683878797E+00  0.17693789463E+01  0.22018019123E+01  0.51100000000E-03 0. -1.
        -11    1    3    3    0    0 -0.48536704325E+01 -0.17351900960E+01  0.32061574675E+00  0.51644744219E+01  0.51100000000E-03 0.  1.
        -12    1    3    3    0    0 -0.32228812758E+02  0.17860385577E+02  0.16618274194E+02  0.40420994321E+02  0.00000000000E+00 0.  1.
</event>
<event>
 7    1  0.2486105E-010  0.4778727E+02  0.7816164E-02  0.1312668E+00
        -11   -1    0    0    0    0  0.00000000000E+00  0.00000000000E+00  0.45593999997E+02  0.45594000000E+02  0.51100000000E-03 0. -1.
         11   -1    0    0    0    0 -0.00000000000E+00 -0.00000000000E+00 -0.45593999997E+02  0.45594000000E+02  0.51100000000E-03 0.  1.
    9900012    2    1    2    0    0 -0.35249530418E+02  0.12179081678E+02 -0.22198291492E+02  0.47787267628E+02  0.19999984424E+02 0.  0.
         12    1    1    2    0    0  0.35249530418E+02 -0.12179081678E+02  0.22198291492E+02  0.43400732372E+02  0.00000000000E+00 0. -1.
         11    1    3    3    0    0 -0.72866314109E+01  0.67790930815E+01 -0.50039050402E+01  0.11139576574E+02  0.51100000000E-03 0. -1.
        -11    1    3    3    0    0 -0.21996247442E+02  0.98918260009E+01 -0.94911975589E+01  0.25918448151E+02  0.51100000000E-03 0.  1.
         12    1    3    3    0    0 -0.59666515651E+01 -0.44918374047E+01 -0.77031888931E+01  0.10729242904E+02  0.00000000000E+00 0. -1.
</event>
<event>
 7    1  0.2486105E-010  0.4778727E+02  0.7816164E-02  0.1312668E+00
        -11   -1    0    0    0    0  0.00000000000E+00  0.00000000000E+00  0.45593999997E+02  0.45594000000E+02  0.51100000000E-03 0. -1.
         11   -1    0    0    0    0 -0.00000000000E+00 -0.00000000000E+00 -0.45593999997E+02  0.45594000000E+02  0.51100000000E-03 0.  1.
    9900012    2    1    2    0    0 -0.42718116135E+02  0.18645844103E+01 -0.74370111732E+01  0.47787271247E+02  0.20000000922E+02 0.  0.
         12    1    1    2    0    0  0.42718116135E+02 -0.18645844103E+01  0.74370111732E+01  0.43400728753E+02  0.00000000000E+00 0. -1.
         11    1    3    3    0    0 -0.28513641548E+02 -0.15907829353E+01 -0.13468587384E+02  0.31574692256E+02  0.51100000000E-03 0.  1.
        -11    1    3    3    0    0 -0.68124325071E+01 -0.70118654810E-01  0.21076724074E+01  0.71313698914E+01  0.51100000000E-03 0. -1.
         12    1    3    3    0    0 -0.73920420792E+01  0.35254860004E+01  0.39239038035E+01  0.90812090989E+01  0.00000000000E+00 0. -1.
</event>
<event>
 7    1  0.2486105E-010  0.4778727E+02  0.7816164E-02  0.1312668E+00
        -11   -1    0    0    0    0  0.00000000000E+00  0.00000000000E+00  0.45593999997E+02  0.45594000000E+02  0.51100000000E-03 0.  1.
         11   -1    0    0    0    0 -0.00000000000E+00 -0.00000000000E+00 -0.45593999997E+02  0.45594000000E+02  0.51100000000E-03 0. -1.
    9900012    2    1    2    0    0  0.21083873484E+02  0.37577514501E+02 -0.51984301846E+01  0.47787274274E+02  0.20000014723E+02 0.  0.
         12    1    1    2    0    0 -0.21083873484E+02 -0.37577514501E+02  0.51984301846E+01  0.43400725726E+02  0.00000000000E+00 0. -1.
         11    1    3    3    0    0 -0.31111077584E+00  0.44377786529E+01  0.24724414796E+01  0.50895615153E+01  0.51100000000E-03 0. -1.
        -11    1    3    3    0    0  0.12046503093E+02  0.25236267243E+02  0.51937646891E+00  0.27968860779E+02  0.51100000000E-03 0.  1.
         12    1    3    3    0    0  0.93484811671E+01  0.79034686056E+01 -0.81902481331E+01  0.14728851979E+02  0.00000000000E+00 0. -1.
</event>
<event>
 7    1  0.2486105E-010  0.4778727E+02  0.7816164E-02  0.1312668E+00
        -11   -1    0    0    0    0  0.00000000000E+00  0.00000000000E+00  0.45593999997E+02  0.45594000000E+02  0.51100000000E-03 0. -1.
         11   -1    0    0    0    0 -0.00000000000E+00 -0.00000000000E+00 -0.45593999997E+02  0.45594000000E+02  0.51100000000E-03 0.  1.
    9900012    2    1    2    0    0 -0.33634658087E+01 -0.42818419302E+02 -0.62364504383E+01  0.47787271345E+02  0.20000001369E+02 0.  0.
         12    1    1    2    0    0  0.33634658087E+01  0.42818419302E+02  0.62364504383E+01  0.43400728655E+02  0.00000000000E+00 0. -1.
         11    1    3    3    0    0 -0.25117863611E+01 -0.30160674314E+02 -0.54620388267E+01  0.30754011351E+02  0.51100000000E-03 0. -1.
        -11    1    3    3    0    0 -0.49556574917E+00 -0.14108417626E+02  0.16214070893E+01  0.14209925916E+02  0.51100000000E-03 0.  1.
         12    1    3    3    0    0 -0.35611369842E+00  0.14506726379E+01 -0.23958187008E+01  0.28233340780E+01  0.00000000000E+00 0. -1.
</event>
<event>
 7    1  0.2486105E-010  0.4778727E+02  0.7816164E-02  0.1312668E+00
        -11   -1    0    0    0    0  0.00000000000E+00  0.00000000000E+00  0.45593999997E+02  0.45594000000E+02  0.51100000000E-03 0. -1.
         11   -1    0    0    0    0 -0.00000000000E+00 -0.00000000000E+00 -0.45593999997E+02  0.45594000000E+02  0.51100000000E-03 0.  1.
    9900012    2    1    2    0    0 -0.23056422469E+02  0.24318587501E+02 -0.27579539722E+02  0.47787270440E+02  0.19999997243E+02 0.  0.
         12    1    1    2    0    0  0.23056422469E+02 -0.24318587501E+02  0.27579539722E+02  0.43400729560E+02  0.00000000000E+00 0. -1.
         11    1    3    3    0    0 -0.26200977591E+01 -0.43125002865E+00 -0.75050902405E+01  0.79609841498E+01  0.51100000000E-03 0.  1.
        -11    1    3    3    0    0 -0.97334002360E+01  0.44604778137E+01 -0.26780650908E+01  0.11036619744E+02  0.51100000000E-03 0. -1.
        -12    1    3    3    0    0 -0.10702924474E+02  0.20289359716E+02 -0.17396384391E+02  0.28789666546E+02  0.00000000000E+00 0.  1.
</event>
<event>
 7    1  0.2486105E-010  0.4778728E+02  0.7816164E-02  0.1312668E+00
        -11   -1    0    0    0    0  0.00000000000E+00  0.00000000000E+00  0.45593999997E+02  0.45594000000E+02  0.51100000000E-03 0.  1.
         11   -1    0    0    0    0 -0.00000000000E+00 -0.00000000000E+00 -0.45593999997E+02  0.45594000000E+02  0.51100000000E-03 0. -1.
    9900012    2    1    2    0    0  0.13814225755E+02  0.30871719754E+02  0.27197919817E+02  0.47787277009E+02  0.20000027194E+02 0.  0.
         12    1    1    2    0    0 -0.13814225755E+02 -0.30871719754E+02 -0.27197919817E+02  0.43400722991E+02  0.00000000000E+00 0. -1.
         11    1    3    3    0    0  0.96256530357E+01  0.66651069578E+01  0.70681927476E+01  0.13676117728E+02  0.51100000000E-03 0.  1.
        -11    1    3    3    0    0 -0.30056686649E+00 -0.97166041068E+00  0.34028705217E+01  0.35516182852E+01  0.51100000000E-03 0. -1.
        -12    1    3    3    0    0  0.44891395855E+01  0.25178273207E+02  0.16726856548E+02  0.30559540996E+02  0.00000000000E+00 0.  1.
</event>
<event>
 7    1  0.2486105E-010  0.4778727E+02  0.7816164E-02  0.1312668E+00
        -11   -1    0    0    0    0  0.00000000000E+00  0.00000000000E+00  0.45593999997E+02  0.45594000000E+02  0.51100000000E-03 0.  1.
         11   -1    0    0    0    0 -0.00000000000E+00 -0.00000000000E+00 -0.45593999997E+02  0.45594000000E+02  0.51100000000E-03 0. -1.
    9900012    2    1    2    0    0 -0.25477548292E+02  0.71496523738E+01  0.34400587979E+02  0.47787269022E+02  0.19999990781E+02 0.  0.
         12    1    1    2    0    0  0.25477548292E+02 -0.71496523738E+01 -0.34400587979E+02  0.43400730978E+02  0.00000000000E+00 0. -1.
         11    1    3    3    0    0 -0.23973672038E+01  0.56825536980E+01  0.58923955233E+01  0.85298951521E+01  0.51100000000E-03 0. -1.
        -11    1    3    3    0    0 -0.30111003840E+01 -0.77882464310E+00  0.14127771522E+02  0.14466071401E+02  0.51100000000E-03 0.  1.
         12    1    3    3    0    0 -0.20069080704E+02  0.22459233188E+01  0.14380420934E+02  0.24791302469E+02  0.00000000000E+00 0. -1.
</event>
<event>
 7    1  0.2486105E-010  0.4778728E+02  0.7816164E-02  0.1312668E+00
        -11   -1    0    0    0    0  0.00000000000E+00  0.00000000000E+00  0.45593999997E+02  0.45594000000E+02  0.51100000000E-03 0. -1.
         11   -1    0    0    0    0 -0.00000000000E+00 -0.00000000000E+00 -0.45593999997E+02  0.45594000000E+02  0.51100000000E-03 0.  1.
    9900012    2    1    2    0    0  0.10470237704E+02  0.37497616299E+02 -0.19181382426E+02  0.47787279528E+02  0.20000038680E+02 0.  0.
         12    1    1    2    0    0 -0.10470237704E+02 -0.37497616299E+02  0.19181382426E+02  0.43400720472E+02  0.00000000000E+00 0. -1.
         11    1    3    3    0    0  0.70489095029E+01  0.79131767915E+01 -0.83098335069E+01  0.13466953081E+02  0.51100000000E-03 0. -1.
        -11    1    3    3    0    0 -0.29142845969E+01  0.34176818506E+01 -0.50813884407E+01  0.67818959510E+01  0.51100000000E-03 0.  1.
        -12    1    3    3    0    0  0.63356127977E+01  0.26166757657E+02 -0.57901604786E+01  0.27538430496E+02  0.00000000000E+00 0.  1.
</event>
<event>
 7    1  0.2486105E-010  0.4778727E+02  0.7816164E-02  0.1312668E+00
        -11   -1    0    0    0    0  0.00000000000E+00  0.00000000000E+00  0.45593999997E+02  0.45594000000E+02  0.51100000000E-03 0. -1.
         11   -1    0    0    0    0 -0.00000000000E+00 -0.00000000000E+00 -0.45593999997E+02  0.45594000000E+02  0.51100000000E-03 0.  1.
    9900012    2    1    2    0    0  0.24194741787E+02 -0.28340556842E+02 -0.22249734925E+02  0.47787269632E+02  0.19999993559E+02 0.  0.
         12    1    1    2    0    0 -0.24194741787E+02  0.28340556842E+02  0.22249734925E+02  0.43400730368E+02  0.00000000000E+00 0. -1.
         11    1    3    3    0    0  0.13066602502E+02 -0.10230068996E+02 -0.12471083029E+02  0.20758572321E+02  0.51100000000E-03 0. -1.
        -11    1    3    3    0    0  0.78564328149E+01 -0.21447754941E+01 -0.64642527076E+01  0.10397603658E+02  0.51100000000E-03 0.  1.
         12    1    3    3    0    0  0.32717064704E+01 -0.15965712352E+02 -0.33143991878E+01  0.16631093653E+02  0.00000000000E+00 0. -1.
</event>
<event>
 7    1  0.2486105E-010  0.4778727E+02  0.7816164E-02  0.1312668E+00
        -11   -1    0    0    0    0  0.00000000000E+00  0.00000000000E+00  0.45593999997E+02  0.45594000000E+02  0.51100000000E-03 0. -1.
         11   -1    0    0    0    0 -0.00000000000E+00 -0.00000000000E+00 -0.45593999997E+02  0.45594000000E+02  0.51100000000E-03 0.  1.
    9900012    2    1    2    0    0  0.21154528048E+02  0.31644987976E+02 -0.20849554312E+02  0.47787271481E+02  0.20000001991E+02 0.  0.
         12    1    1    2    0    0 -0.21154528048E+02 -0.31644987976E+02  0.20849554312E+02  0.43400728519E+02  0.00000000000E+00 0. -1.
         11    1    3    3    0    0  0.43003744127E+01 -0.67804101551E+00 -0.10429258486E+01  0.44766789359E+01  0.51100000000E-03 0. -1.
        -11    1    3    3    0    0  0.33552754559E+01  0.29774553630E+01  0.13651588897E+01  0.46890055320E+01  0.51100000000E-03 0.  1.
        -12    1    3    3    0    0  0.13498878179E+02  0.29345573629E+02 -0.21171787353E+02  0.38621587013E+02  0.00000000000E+00 0.  1.
</event>
<event>
 7    1  0.2486105E-010  0.4778727E+02  0.7816164E-02  0.1312668E+00
        -11   -1    0    0    0    0  0.00000000000E+00  0.00000000000E+00  0.45593999997E+02  0.45594000000E+02  0.51100000000E-03 0.  1.
         11   -1    0    0    0    0 -0.00000000000E+00 -0.00000000000E+00 -0.45593999997E+02  0.45594000000E+02  0.51100000000E-03 0. -1.
    9900012    2    1    2    0    0  0.30712420471E+02 -0.30453510684E+01  0.30513871707E+02  0.47787270733E+02  0.19999998582E+02 0.  0.
         12    1    1    2    0    0 -0.30712420471E+02  0.30453510684E+01 -0.30513871707E+02  0.43400729267E+02  0.00000000000E+00 0. -1.
         11    1    3    3    0    0  0.91768878262E+01  0.65257741876E+01  0.71583855849E+01  0.13343293573E+02  0.51100000000E-03 0. -1.
        -11    1    3    3    0    0  0.90519906914E+01 -0.25837586999E+01  0.36574685266E+01  0.10099080195E+02  0.51100000000E-03 0.  1.
        -12    1    3    3    0    0  0.12483541954E+02 -0.69873665560E+01  0.19698017595E+02  0.24344896966E+02  0.00000000000E+00 0.  1.
</event>
<event>
 7    1  0.2486105E-010  0.4778727E+02  0.7816164E-02  0.1312668E+00
        -11   -1    0    0    0    0  0.00000000000E+00  0.00000000000E+00  0.45593999997E+02  0.45594000000E+02  0.51100000000E-03 0.  1.
         11   -1    0    0    0    0 -0.00000000000E+00 -0.00000000000E+00 -0.45593999997E+02  0.45594000000E+02  0.51100000000E-03 0. -1.
    9900012    2    1    2    0    0  0.30274328831E+02 -0.23219540891E+02  0.20686740831E+02  0.47787270610E+02  0.19999998019E+02 0.  0.
         12    1    1    2    0    0 -0.30274328831E+02  0.23219540891E+02 -0.20686740831E+02  0.43400729390E+02  0.00000000000E+00 0. -1.
         11    1    3    3    0    0  0.16223398129E+02 -0.16724757091E+02  0.84338518158E+01  0.24779951641E+02  0.51100000000E-03 0. -1.
        -11    1    3    3    0    0  0.82804583595E+01 -0.70471321888E+01  0.17532125306E+01  0.11013710418E+02  0.51100000000E-03 0.  1.
         12    1    3    3    0    0  0.57704723426E+01  0.55234838880E+00  0.10499676485E+02  0.11993608551E+02  0.00000000000E+00 0. -1.
</event>
<event>
 7    1  0.2486105E-010  0.4778727E+02  0.7816164E-02  0.1312668E+00
        -11   -1    0    0    0    0  0.00000000000E+00  0.00000000000E+00  0.45593999997E+02  0.45594000000E+02  0.51100000000E-03 0.  1.
         11   -1    0    0    0    0 -0.00000000000E+00 -0.00000000000E+00 -0.45593999997E+02  0.45594000000E+02  0.51100000000E-03 0. -1.
    9900012    2    1    2    0    0  0.37225277529E+02 -0.52816550660E+01  0.21679626275E+02  0.47787270020E+02  0.19999995330E+02 0.  0.
         12    1    1    2    0    0 -0.37225277529E+02  0.52816550660E+01 -0.21679626275E+02  0.43400729980E+02  0.00000000000E+00 0. -1.
         11    1    3    3    0    0  0.63368380772E+01  0.33998328325E+01  0.28938127339E+01  0.77516793345E+01  0.51100000000E-03 0. -1.
        -11    1    3    3    0    0  0.17994306741E+02 -0.15961960334E+01  0.17687265718E+02  0.25282054618E+02  0.51100000000E-03 0.  1.
         12    1    3    3    0    0  0.12894132711E+02 -0.70852918650E+01  0.10985478235E+01  0.14753536068E+02  0.00000000000E+00 0. -1.
</event>
<event>
 7    1  0.2486105E-010  0.4778727E+02  0.7816164E-02  0.1312668E+00
        -11   -1    0    0    0    0  0.00000000000E+00  0.00000000000E+00  0.45593999997E+02  0.45594000000E+02  0.51100000000E-03 0.  1.
         11   -1    0    0    0    0 -0.00000000000E+00 -0.00000000000E+00 -0.45593999997E+02  0.45594000000E+02  0.51100000000E-03 0. -1.
    9900012    2    1    2    0    0 -0.39155336402E+02 -0.18361190891E+02 -0.36537749318E+01  0.47787265318E+02  0.19999973890E+02 0.  0.
         12    1    1    2    0    0  0.39155336402E+02  0.18361190891E+02  0.36537749318E+01  0.43400734682E+02  0.00000000000E+00 0. -1.
         11    1    3    3    0    0 -0.36961996659E+02 -0.12483338954E+02  0.91977175438E+00  0.39023953270E+02  0.51100000000E-03 0.  1.
        -11    1    3    3    0    0  0.28527164558E+00  0.51976624940E+00 -0.19465471405E+00  0.62404133245E+00  0.51100000000E-03 0. -1.
        -12    1    3    3    0    0 -0.24786113884E+01 -0.63976181865E+01 -0.43788919721E+01  0.81392707154E+01  0.00000000000E+00 0.  1.
</event>
<event>
 7    1  0.2486105E-010  0.4778727E+02  0.7816164E-02  0.1312668E+00
        -11   -1    0    0    0    0  0.00000000000E+00  0.00000000000E+00  0.45593999997E+02  0.45594000000E+02  0.51100000000E-03 0. -1.
         11   -1    0    0    0    0 -0.00000000000E+00 -0.00000000000E+00 -0.45593999997E+02  0.45594000000E+02  0.51100000000E-03 0.  1.
    9900012    2    1    2    0    0 -0.58522503599E+01  0.13872750001E+02 -0.40705297581E+02  0.47787270997E+02  0.19999999782E+02 0.  0.
         12    1    1    2    0    0  0.58522503599E+01 -0.13872750001E+02  0.40705297581E+02  0.43400729003E+02  0.00000000000E+00 0. -1.
         11    1    3    3    0    0  0.25370007063E+01  0.10709310502E+00 -0.92084534819E+01  0.95521441209E+01  0.51100000000E-03 0. -1.
        -11    1    3    3    0    0 -0.47655321653E+00  0.34364125516E+01 -0.21627339600E+02  0.21903831916E+02  0.51100000000E-03 0.  1.
         12    1    3    3    0    0 -0.79126978496E+01  0.10329244345E+02 -0.98695044989E+01  0.16331294959E+02  0.00000000000E+00 0. -1.
</event>
<event>
 7    1  0.2486105E-010  0.4778723E+02  0.7816164E-02  0.1312668E+00
        -11   -1    0    0    0    0  0.00000000000E+00  0.00000000000E+00  0.45593999997E+02  0.45594000000E+02  0.51100000000E-03 0. -1.
         11   -1    0    0    0    0 -0.00000000000E+00 -0.00000000000E+00 -0.45593999997E+02  0.45594000000E+02  0.51100000000E-03 0.  1.
    9900012    2    1    2    0    0 -0.20121386770E+02 -0.22732559436E+02 -0.31015914983E+02  0.47787234496E+02  0.19999833362E+02 0.  0.
         12    1    1    2    0    0  0.20121386770E+02  0.22732559436E+02  0.31015914983E+02  0.43400765504E+02  0.00000000000E+00 0. -1.
         11    1    3    3    0    0 -0.12461538416E+01 -0.46401452236E+01 -0.87938623171E+01  0.10020771517E+02  0.51100000000E-03 0. -1.
        -11    1    3    3    0    0 -0.42997825817E+01 -0.10656592416E+02 -0.18539390903E+01  0.11639939114E+02  0.51100000000E-03 0.  1.
         12    1    3    3    0    0 -0.14575450347E+02 -0.74358217957E+01 -0.20368113576E+02  0.26126523864E+02  0.00000000000E+00 0. -1.
</event>
<event>
 7    1  0.2486105E-010  0.4778727E+02  0.7816164E-02  0.1312668E+00
        -11   -1    0    0    0    0  0.00000000000E+00  0.00000000000E+00  0.45593999997E+02  0.45594000000E+02  0.51100000000E-03 0.  1.
         11   -1    0    0    0    0 -0.00000000000E+00 -0.00000000000E+00 -0.45593999997E+02  0.45594000000E+02  0.51100000000E-03 0. -1.
    9900012    2    1    2    0    0  0.16134535171E+02 -0.39914930426E+02  0.54862221813E+01  0.47787268094E+02  0.19999986550E+02 0.  0.
         12    1    1    2    0    0 -0.16134535171E+02  0.39914930426E+02 -0.54862221813E+01  0.43400731906E+02  0.00000000000E+00 0. -1.
         11    1    3    3    0    0  0.11988341411E+02 -0.97094001000E+01  0.34863125155E+01  0.15816041075E+02  0.51100000000E-03 0. -1.
        -11    1    3    3    0    0  0.52805298411E+01 -0.15132627144E+02  0.45071578366E+01  0.16649170301E+02  0.51100000000E-03 0.  1.
        -12    1    3    3    0    0 -0.11343360808E+01 -0.15072903182E+02 -0.25072481708E+01  0.15322056718E+02  0.00000000000E+00 0.  1.
</event>
<event>
 7    1  0.2486105E-010  0.4778727E+02  0.7816164E-02  0.1312668E+00
        -11   -1    0    0    0    0  0.00000000000E+00  0.00000000000E+00  0.45593999997E+02  0.45594000000E+02  0.51100000000E-03 0. -1.
         11   -1    0    0    0    0 -0.00000000000E+00 -0.00000000000E+00 -0.45593999997E+02  0.45594000000E+02  0.51100000000E-03 0.  1.
    9900012    2    1    2    0    0 -0.12796391828E+02 -0.16043242560E+02 -0.38242516323E+02  0.47787270393E+02  0.19999997030E+02 0.  0.
         12    1    1    2    0    0  0.12796391828E+02  0.16043242560E+02  0.38242516323E+02  0.43400729607E+02  0.00000000000E+00 0. -1.
         11    1    3    3    0    0  0.22282715282E+01 -0.84471451549E+00 -0.31533427038E+01  0.39525064307E+01  0.51100000000E-03 0. -1.
        -11    1    3    3    0    0 -0.13760239225E+02 -0.17830898523E+02 -0.33859037462E+02  0.40665950669E+02  0.51100000000E-03 0.  1.
        -12    1    3    3    0    0 -0.12644241321E+01  0.26323704787E+01 -0.12301361574E+01  0.31688132934E+01  0.00000000000E+00 0.  1.
</event>
<event>
 7    1  0.2486105E-010  0.4778727E+02  0.7816164E-02  0.1312668E+00
        -11   -1    0    0    0    0  0.00000000000E+00  0.00000000000E+00  0.45593999997E+02  0.45594000000E+02  0.51100000000E-03 0.  1.
         11   -1    0    0    0    0 -0.00000000000E+00 -0.00000000000E+00 -0.45593999997E+02  0.45594000000E+02  0.51100000000E-03 0. -1.
    9900012    2    1    2    0    0 -0.12035659479E+02  0.31258783076E+02  0.27598087706E+02  0.47787273467E+02  0.20000011047E+02 0.  0.
         12    1    1    2    0    0  0.12035659479E+02 -0.31258783076E+02 -0.27598087706E+02  0.43400726533E+02  0.00000000000E+00 0. -1.
         11    1    3    3    0    0 -0.22452685530E+00 -0.11324422726E+01  0.31414757335E+01  0.33468952560E+01  0.51100000000E-03 0. -1.
        -11    1    3    3    0    0 -0.78472633572E+01  0.63976975105E+01  0.31681782700E+01  0.10608837328E+02  0.51100000000E-03 0.  1.
        -12    1    3    3    0    0 -0.39638692664E+01  0.25993527838E+02  0.21288433703E+02  0.33831540884E+02  0.00000000000E+00 0.  1.
</event>
<event>
 7    1  0.2486105E-010  0.4778727E+02  0.7816164E-02  0.1312668E+00
        -11   -1    0    0    0    0  0.00000000000E+00  0.00000000000E+00  0.45593999997E+02  0.45594000000E+02  0.51100000000E-03 0. -1.
         11   -1    0    0    0    0 -0.00000000000E+00 -0.00000000000E+00 -0.45593999997E+02  0.45594000000E+02  0.51100000000E-03 0.  1.
    9900012    2    1    2    0    0 -0.22007825177E+02  0.33737872935E+02 -0.16156573794E+02  0.47787270559E+02  0.19999997789E+02 0.  0.
         12    1    1    2    0    0  0.22007825177E+02 -0.33737872935E+02  0.16156573794E+02  0.43400729441E+02  0.00000000000E+00 0. -1.
         11    1    3    3    0    0 -0.42074387566E+01 -0.22050843970E+01 -0.22641511312E+01  0.52622541457E+01  0.51100000000E-03 0. -1.
        -11    1    3    3    0    0 -0.40262209438E+01  0.77332885220E+01 -0.41442773770E+01  0.96534574993E+01  0.51100000000E-03 0.  1.
         12    1    3    3    0    0 -0.13774165477E+02  0.28209668810E+02 -0.97481452860E+01  0.32871558914E+02  0.00000000000E+00 0. -1.
</event>
<event>
 7    1  0.2486105E-010  0.4778727E+02  0.7816164E-02  0.1312668E+00
        -11   -1    0    0    0    0  0.00000000000E+00  0.00000000000E+00  0.45593999997E+02  0.45594000000E+02  0.51100000000E-03 0.  1.
         11   -1    0    0    0    0 -0.00000000000E+00 -0.00000000000E+00 -0.45593999997E+02  0.45594000000E+02  0.51100000000E-03 0. -1.
    9900012    2    1    2    0    0  0.26850022694E+02  0.21482947130E+02  0.26479852561E+02  0.47787270424E+02  0.19999997173E+02 0.  0.
         12    1    1    2    0    0 -0.26850022694E+02 -0.21482947130E+02 -0.26479852561E+02  0.43400729576E+02  0.00000000000E+00 0. -1.
         11    1    3    3    0    0  0.93328702464E+01  0.14698990036E+01  0.28951232599E+01  0.98815388007E+01  0.51100000000E-03 0. -1.
        -11    1    3    3    0    0  0.82248491464E+01  0.32510677964E+01  0.20516342577E+01  0.90789200176E+01  0.51100000000E-03 0.  1.
        -12    1    3    3    0    0  0.92923033007E+01  0.16761980330E+02  0.21533095044E+02  0.28826811606E+02  0.00000000000E+00 0.  1.
</event>
<event>
 7    1  0.2486105E-010  0.4778727E+02  0.7816164E-02  0.1312668E+00
        -11   -1    0    0    0    0  0.00000000000E+00  0.00000000000E+00  0.45593999997E+02  0.45594000000E+02  0.51100000000E-03 0.  1.
         11   -1    0    0    0    0 -0.00000000000E+00 -0.00000000000E+00 -0.45593999997E+02  0.45594000000E+02  0.51100000000E-03 0. -1.
    9900012    2    1    2    0    0 -0.11248298617E+02 -0.29760006587E+02  0.29520175207E+02  0.47787274683E+02  0.20000016589E+02 0.  0.
         12    1    1    2    0    0  0.11248298617E+02  0.29760006587E+02 -0.29520175207E+02  0.43400725317E+02  0.00000000000E+00 0. -1.
         11    1    3    3    0    0  0.98882383325E+00 -0.11858181413E+02  0.86872461305E+01  0.14733040575E+02  0.51100000000E-03 0. -1.
        -11    1    3    3    0    0 -0.93265371034E+01 -0.20002561991E+02  0.18094798957E+02  0.28539595829E+02  0.51100000000E-03 0.  1.
         12    1    3    3    0    0 -0.29105853470E+01  0.21007368172E+01  0.27381301189E+01  0.45146382784E+01  0.00000000000E+00 0. -1.
</event>
<event>
 7    1  0.2486105E-010  0.4778727E+02  0.7816164E-02  0.1312668E+00
        -11   -1    0    0    0    0  0.00000000000E+00  0.00000000000E+00  0.45593999997E+02  0.45594000000E+02  0.51100000000E-03 0.  1.
         11   -1    0    0    0    0 -0.00000000000E+00 -0.00000000000E+00 -0.45593999997E+02  0.45594000000E+02  0.51100000000E-03 0. -1.
    9900012    2    1    2    0    0  0.37949042923E+01 -0.41279779949E+02  0.12853079053E+02  0.47787272214E+02  0.20000005331E+02 0.  0.
         12    1    1    2    0    0 -0.37949042923E+01  0.41279779949E+02 -0.12853079053E+02  0.43400727786E+02  0.00000000000E+00 0. -1.
         11    1    3    3    0    0  0.21783199437E+01 -0.41700733624E+01  0.73562176645E+01  0.87320403237E+01  0.51100000000E-03 0. -1.
        -11    1    3    3    0    0  0.23419002397E+01 -0.16517616392E+01 -0.92861599021E+00  0.30124974961E+01  0.51100000000E-03 0.  1.
        -12    1    3    3    0    0 -0.72531589115E+00 -0.35457944948E+02  0.64254773782E+01  0.36042734394E+02  0.00000000000E+00 0.  1.
</event>
<event>
 7    1  0.2486105E-010  0.4778728E+02  0.7816164E-02  0.1312668E+00
        -11   -1    0    0    0    0  0.00000000000E+00  0.00000000000E+00  0.45593999997E+02  0.45594000000E+02  0.51100000000E-03 0.  1.
         11   -1    0    0    0    0 -0.00000000000E+00 -0.00000000000E+00 -0.45593999997E+02  0.45594000000E+02  0.51100000000E-03 0. -1.
    9900012    2    1    2    0    0  0.35972648327E+02 -0.14424396714E+02  0.19532728427E+02  0.47787284246E+02  0.20000060189E+02 0.  0.
         12    1    1    2    0    0 -0.35972648327E+02  0.14424396714E+02 -0.19532728427E+02  0.43400715754E+02  0.00000000000E+00 0. -1.
         11    1    3    3    0    0  0.46965146860E+01 -0.42784136569E+01  0.34724458448E+01  0.72401625687E+01  0.51100000000E-03 0. -1.
        -11    1    3    3    0    0  0.20931809659E+01  0.39516328123E+01  0.38924630230E+01  0.59285813721E+01  0.51100000000E-03 0.  1.
        -12    1    3    3    0    0  0.29182952675E+02 -0.14097615869E+02  0.12167819559E+02  0.34618540305E+02  0.00000000000E+00 0.  1.
</event>
<event>
 7    1  0.2486105E-010  0.4778728E+02  0.7816164E-02  0.1312668E+00
        -11   -1    0    0    0    0  0.00000000000E+00  0.00000000000E+00  0.45593999997E+02  0.45594000000E+02  0.51100000000E-03 0. -1.
         11   -1    0    0    0    0 -0.00000000000E+00 -0.00000000000E+00 -0.45593999997E+02  0.45594000000E+02  0.51100000000E-03 0.  1.
    9900012    2    1    2    0    0  0.36746061076E+01 -0.23453197120E+02 -0.36332734627E+02  0.47787276612E+02  0.20000025384E+02 0.  0.
         12    1    1    2    0    0 -0.36746061076E+01  0.23453197120E+02  0.36332734627E+02  0.43400723388E+02  0.00000000000E+00 0. -1.
         11    1    3    3    0    0 -0.38141010449E+01 -0.82632970590E+01 -0.15513900641E+02  0.17986399262E+02  0.51100000000E-03 0. -1.
        -11    1    3    3    0    0  0.48584648094E+01 -0.14155173746E+02 -0.22105719957E+02  0.26695251997E+02  0.51100000000E-03 0.  1.
         12    1    3    3    0    0  0.26302423430E+01 -0.10347263142E+01  0.12868859713E+01  0.31056253527E+01  0.00000000000E+00 0. -1.
</event>
<event>
 7    1  0.2486105E-010  0.4778727E+02  0.7816164E-02  0.1312668E+00
        -11   -1    0    0    0    0  0.00000000000E+00  0.00000000000E+00  0.45593999997E+02  0.45594000000E+02  0.51100000000E-03 0. -1.
         11   -1    0    0    0    0 -0.00000000000E+00 -0.00000000000E+00 -0.45593999997E+02  0.45594000000E+02  0.51100000000E-03 0.  1.
    9900012    2    1    2    0    0  0.28903382895E+02  0.27695959997E+02 -0.16767575349E+02  0.47787270444E+02  0.19999997262E+02 0.  0.
         12    1    1    2    0    0 -0.28903382895E+02 -0.27695959997E+02  0.16767575349E+02  0.43400729556E+02  0.00000000000E+00 0. -1.
         11    1    3    3    0    0  0.10720832571E+02  0.94264965069E+01 -0.53326676014E+01  0.15239174236E+02  0.51100000000E-03 0. -1.
        -11    1    3    3    0    0  0.16723703388E+02  0.54844760687E+01 -0.69047313447E+01  0.18906005606E+02  0.51100000000E-03 0.  1.
         12    1    3    3    0    0  0.14588469361E+01  0.12784987422E+02 -0.45301764026E+01  0.13642090602E+02  0.00000000000E+00 0. -1.
</event>
<event>
 7    1  0.2486105E-010  0.4778727E+02  0.7816164E-02  0.1312668E+00
        -11   -1    0    0    0    0  0.00000000000E+00  0.00000000000E+00  0.45593999997E+02  0.45594000000E+02  0.51100000000E-03 0.  1.
         11   -1    0    0    0    0 -0.00000000000E+00 -0.00000000000E+00 -0.45593999997E+02  0.45594000000E+02  0.51100000000E-03 0. -1.
    9900012    2    1    2    0    0 -0.28799760009E+02 -0.62679018465E+01  0.31857662410E+02  0.47787269311E+02  0.19999992096E+02 0.  0.
         12    1    1    2    0    0  0.28799760009E+02  0.62679018465E+01 -0.31857662410E+02  0.43400730689E+02  0.00000000000E+00 0. -1.
         11    1    3    3    0    0 -0.55320853733E+01  0.43785960361E+01  0.67799114544E+01  0.97848490747E+01  0.51100000000E-03 0. -1.
        -11    1    3    3    0    0  0.14402970007E+01 -0.11263166156E+01  0.30640902791E+01  0.35681499504E+01  0.51100000000E-03 0.  1.
        -12    1    3    3    0    0 -0.24707971636E+02 -0.95201812670E+01  0.22013660676E+02  0.34434270286E+02  0.00000000000E+00 0.  1.
</event>
<event>
 7    1  0.2486105E-010  0.4778727E+02  0.7816164E-02  0.1312668E+00
        -11   -1    0    0    0    0  0.00000000000E+00  0.00000000000E+00  0.45593999997E+02  0.45594000000E+02  0.51100000000E-03 0. -1.
         11   -1    0    0    0    0 -0.00000000000E+00 -0.00000000000E+00 -0.45593999997E+02  0.45594000000E+02  0.51100000000E-03 0.  1.
    9900012    2    1    2    0    0  0.49606532812E+01 -0.14372354879E+02 -0.40650349709E+02  0.47787267319E+02  0.19999983015E+02 0.  0.
         12    1    1    2    0    0 -0.49606532812E+01  0.14372354879E+02  0.40650349709E+02  0.43400732681E+02  0.00000000000E+00 0. -1.
         11    1    3    3    0    0  0.16095045724E+01  0.31757095382E+01 -0.12438893714E+02  0.12938381395E+02  0.51100000000E-03 0. -1.
        -11    1    3    3    0    0  0.39734458588E+01 -0.17984859403E+01 -0.89831237851E+01  0.99859569832E+01  0.51100000000E-03 0.  1.
        -12    1    3    3    0    0 -0.62229715007E+00 -0.15749578476E+02 -0.19228332210E+02  0.24862928941E+02  0.00000000000E+00 0.  1.
</event>
<event>
 7    1  0.2486105E-010  0.4778727E+02  0.7816164E-02  0.1312668E+00
        -11   -1    0    0    0    0  0.00000000000E+00  0.00000000000E+00  0.45593999997E+02  0.45594000000E+02  0.51100000000E-03 0.  1.
         11   -1    0    0    0    0 -0.00000000000E+00 -0.00000000000E+00 -0.45593999997E+02  0.45594000000E+02  0.51100000000E-03 0. -1.
    9900012    2    1    2    0    0  0.14124730468E+02 -0.33885952571E+02  0.23148592470E+02  0.47787272751E+02  0.20000007779E+02 0.  0.
         12    1    1    2    0    0 -0.14124730468E+02  0.33885952571E+02 -0.23148592470E+02  0.43400727249E+02  0.00000000000E+00 0. -1.
         11    1    3    3    0    0  0.34328846483E+01 -0.37198909493E+01  0.70243137840E+01  0.86581331752E+01  0.51100000000E-03 0. -1.
        -11    1    3    3    0    0  0.51033904313E+01 -0.15129657519E+01  0.64764991028E+01  0.83832392397E+01  0.51100000000E-03 0.  1.
         12    1    3    3    0    0  0.55884553880E+01 -0.28653095870E+02  0.96477795829E+01  0.30745900336E+02  0.00000000000E+00 0. -1.
</event>
<event>
 7    1  0.2486105E-010  0.4778728E+02  0.7816164E-02  0.1312668E+00
        -11   -1    0    0    0    0  0.00000000000E+00  0.00000000000E+00  0.45593999997E+02  0.45594000000E+02  0.51100000000E-03 0.  1.
         11   -1    0    0    0    0 -0.00000000000E+00 -0.00000000000E+00 -0.45593999997E+02  0.45594000000E+02  0.51100000000E-03 0. -1.
    9900012    2    1    2    0    0 -0.39946430173E+01 -0.35047093405E+02  0.25285694670E+02  0.47787282449E+02  0.20000052000E+02 0.  0.
         12    1    1    2    0    0  0.39946430173E+01  0.35047093405E+02 -0.25285694670E+02  0.43400717551E+02  0.00000000000E+00 0. -1.
         11    1    3    3    0    0  0.23575935492E+01 -0.12335028669E+01 -0.13945490876E+01  0.30040878956E+01  0.51100000000E-03 0. -1.
        -11    1    3    3    0    0 -0.62781175234E+01 -0.91271336184E+01  0.61192139275E+01  0.12655595880E+02  0.51100000000E-03 0.  1.
        -12    1    3    3    0    0 -0.74119043146E-01 -0.24686456920E+02  0.20561029830E+02  0.32127598674E+02  0.00000000000E+00 0.  1.
</event>
<event>
 7    1  0.2486105E-010  0.4778727E+02  0.7816164E-02  0.1312668E+00
        -11   -1    0    0    0    0  0.00000000000E+00  0.00000000000E+00  0.45593999997E+02  0.45594000000E+02  0.51100000000E-03 0. -1.
         11   -1    0    0    0    0 -0.00000000000E+00 -0.00000000000E+00 -0.45593999997E+02  0.45594000000E+02  0.51100000000E-03 0.  1.
    9900012    2    1    2    0    0 -0.15404176755E+02  0.39458061346E+02 -0.94549477363E+01  0.47787270705E+02  0.19999998451E+02 0.  0.
         12    1    1    2    0    0  0.15404176755E+02 -0.39458061346E+02  0.94549477363E+01  0.43400729295E+02  0.00000000000E+00 0. -1.
         11    1    3    3    0    0 -0.57847296822E+01  0.15159311494E+02 -0.10108180566E+02  0.19116567084E+02  0.51100000000E-03 0. -1.
        -11    1    3    3    0    0 -0.20473513194E+01  0.18834072235E+02 -0.17578354295E+01  0.19026400343E+02  0.51100000000E-03 0.  1.
        -12    1    3    3    0    0 -0.75720957528E+01  0.54646776170E+01  0.24110682590E+01  0.96443032769E+01  0.00000000000E+00 0.  1.
</event>
<event>
 7    1  0.2486105E-010  0.4778727E+02  0.7816164E-02  0.1312668E+00
        -11   -1    0    0    0    0  0.00000000000E+00  0.00000000000E+00  0.45593999997E+02  0.45594000000E+02  0.51100000000E-03 0.  1.
         11   -1    0    0    0    0 -0.00000000000E+00 -0.00000000000E+00 -0.45593999997E+02  0.45594000000E+02  0.51100000000E-03 0. -1.
    9900012    2    1    2    0    0  0.69512456502E+01 -0.31291617046E+02  0.29259839318E+02  0.47787270624E+02  0.19999998084E+02 0.  0.
         12    1    1    2    0    0 -0.69512456502E+01  0.31291617046E+02 -0.29259839318E+02  0.43400729376E+02  0.00000000000E+00 0. -1.
         11    1    3    3    0    0 -0.16140692546E+01 -0.11692490727E+01  0.26076915468E+01  0.32821362582E+01  0.51100000000E-03 0. -1.
        -11    1    3    3    0    0  0.38686491615E+01 -0.23768462585E+02  0.27505804654E+02  0.36557838419E+02  0.51100000000E-03 0.  1.
         12    1    3    3    0    0  0.46966657433E+01 -0.63539053886E+01 -0.85365688286E+00  0.79472959467E+01  0.00000000000E+00 0. -1.
</event>
<event>
 7    1  0.2486105E-010  0.4778725E+02  0.7816164E-02  0.1312668E+00
        -11   -1    0    0    0    0  0.00000000000E+00  0.00000000000E+00  0.45593999997E+02  0.45594000000E+02  0.51100000000E-03 0.  1.
         11   -1    0    0    0    0 -0.00000000000E+00 -0.00000000000E+00 -0.45593999997E+02  0.45594000000E+02  0.51100000000E-03 0. -1.
    9900012    2    1    2    0    0  0.16117244488E+02  0.38764249978E+02  0.11008729586E+02  0.47787253769E+02  0.19999921235E+02 0.  0.
         12    1    1    2    0    0 -0.16117244488E+02 -0.38764249978E+02 -0.11008729586E+02  0.43400746231E+02  0.00000000000E+00 0. -1.
         11    1    3    3    0    0  0.13163203469E+02  0.18434246249E+02  0.35423228035E+01  0.22926827330E+02  0.51100000000E-03 0. -1.
        -11    1    3    3    0    0  0.20027803338E+01  0.18437439369E+02  0.15900130025E+01  0.18613931373E+02  0.51100000000E-03 0.  1.
         12    1    3    3    0    0  0.95126068588E+00  0.18925643609E+01  0.58763937804E+01  0.62464950664E+01  0.00000000000E+00 0. -1.
</event>
<event>
 7    1  0.2486105E-010  0.4778727E+02  0.7816164E-02  0.1312668E+00
        -11   -1    0    0    0    0  0.00000000000E+00  0.00000000000E+00  0.45593999997E+02  0.45594000000E+02  0.51100000000E-03 0.  1.
         11   -1    0    0    0    0 -0.00000000000E+00 -0.00000000000E+00 -0.45593999997E+02  0.45594000000E+02  0.51100000000E-03 0. -1.
    9900012    2    1    2    0    0  0.79575208908E+01  0.34865651612E+02 -0.24590397663E+02  0.47787268920E+02  0.19999990315E+02 0.  0.
         12    1    1    2    0    0 -0.79575208908E+01 -0.34865651612E+02  0.24590397663E+02  0.43400731080E+02  0.00000000000E+00 0. -1.
         11    1    3    3    0    0  0.19607481652E+00  0.31941016934E+01  0.29291487627E+01  0.43382765813E+01  0.51100000000E-03 0. -1.
        -11    1    3    3    0    0  0.22313177412E+01  0.12607335714E+02 -0.58951380193E+01  0.14095259671E+02  0.51100000000E-03 0.  1.
        -12    1    3    3    0    0  0.55301283331E+01  0.19064214204E+02 -0.21624408406E+02  0.29353732667E+02  0.00000000000E+00 0.  1.
</event>
<event>
 7    1  0.2486105E-010  0.4778728E+02  0.7816164E-02  0.1312668E+00
        -11   -1    0    0    0    0  0.00000000000E+00  0.00000000000E+00  0.45593999997E+02  0.45594000000E+02  0.51100000000E-03 0. -1.
         11   -1    0    0    0    0 -0.00000000000E+00 -0.00000000000E+00 -0.45593999997E+02  0.45594000000E+02  0.51100000000E-03 0.  1.
    9900012    2    1    2    0    0 -0.32231230955E+02 -0.23265554301E+02 -0.17420808238E+02  0.47787276211E+02  0.20000023554E+02 0.  0.
         12    1    1    2    0    0  0.32231230955E+02  0.23265554301E+02  0.17420808238E+02  0.43400723789E+02  0.00000000000E+00 0. -1.
         11    1    3    3    0    0 -0.55665564278E+01 -0.44473817505E+01 -0.44818544807E+01  0.84174090281E+01  0.51100000000E-03 0. -1.
        -11    1    3    3    0    0 -0.93121403827E+01 -0.17397341384E+02 -0.77786311089E+01  0.21210623468E+02  0.51100000000E-03 0.  1.
         12    1    3    3    0    0 -0.17352534144E+02 -0.14208311670E+01 -0.51603226479E+01  0.18159243714E+02  0.00000000000E+00 0. -1.
</event>
<event>
 7    1  0.2486105E-010  0.4778727E+02  0.7816164E-02  0.1312668E+00
        -11   -1    0    0    0    0  0.00000000000E+00  0.00000000000E+00  0.45593999997E+02  0.45594000000E+02  0.51100000000E-03 0.  1.
         11   -1    0    0    0    0 -0.00000000000E+00 -0.00000000000E+00 -0.45593999997E+02  0.45594000000E+02  0.51100000000E-03 0. -1.
    9900012    2    1    2    0    0 -0.17617893087E+02 -0.14669426100E+01  0.39636868711E+02  0.47787269146E+02  0.19999991345E+02 0.  0.
         12    1    1    2    0    0  0.17617893087E+02  0.14669426100E+01 -0.39636868711E+02  0.43400730854E+02  0.00000000000E+00 0. -1.
         11    1    3    3    0    0 -0.14099401606E+02 -0.74908117430E+01  0.18468770054E+02  0.24413128718E+02  0.51100000000E-03 0. -1.
        -11    1    3    3    0    0 -0.32829013714E+01  0.32611690090E+01  0.44236232486E+01  0.64016488209E+01  0.51100000000E-03 0.  1.
        -12    1    3    3    0    0 -0.23559010972E+00  0.27627001240E+01  0.16744475408E+02  0.16972491608E+02  0.00000000000E+00 0.  1.
</event>
<event>
 7    1  0.2486105E-010  0.4778727E+02  0.7816164E-02  0.1312668E+00
        -11   -1    0    0    0    0  0.00000000000E+00  0.00000000000E+00  0.45593999997E+02  0.45594000000E+02  0.51100000000E-03 0.  1.
         11   -1    0    0    0    0 -0.00000000000E+00 -0.00000000000E+00 -0.45593999997E+02  0.45594000000E+02  0.51100000000E-03 0. -1.
    9900012    2    1    2    0    0 -0.37369620688E+01 -0.40126315029E+02  0.16110150613E+02  0.47787274245E+02  0.20000014592E+02 0.  0.
         12    1    1    2    0    0  0.37369620688E+01  0.40126315029E+02 -0.16110150613E+02  0.43400725755E+02  0.00000000000E+00 0. -1.
         11    1    3    3    0    0  0.23826449808E+01 -0.12062104202E+02  0.10770149798E+02  0.16345258696E+02  0.51100000000E-03 0. -1.
        -11    1    3    3    0    0  0.16847715462E+01 -0.98369549098E+01  0.59234179713E+01  0.11605645944E+02  0.51100000000E-03 0.  1.
        -12    1    3    3    0    0 -0.78043785958E+01 -0.18227255917E+02 -0.58341715670E+00  0.19836369605E+02  0.00000000000E+00 0.  1.
</event>
<event>
 7    1  0.2486105E-010  0.4778727E+02  0.7816164E-02  0.1312668E+00
        -11   -1    0    0    0    0  0.00000000000E+00  0.00000000000E+00  0.45593999997E+02  0.45594000000E+02  0.51100000000E-03 0.  1.
         11   -1    0    0    0    0 -0.00000000000E+00 -0.00000000000E+00 -0.45593999997E+02  0.45594000000E+02  0.51100000000E-03 0. -1.
    9900012    2    1    2    0    0  0.22394150410E+02 -0.10987538309E+02  0.35516184439E+02  0.47787270423E+02  0.19999997167E+02 0.  0.
         12    1    1    2    0    0 -0.22394150410E+02  0.10987538309E+02 -0.35516184439E+02  0.43400729577E+02  0.00000000000E+00 0. -1.
         11    1    3    3    0    0  0.12915465428E+02 -0.14107791301E+01  0.12359513903E+02  0.17932014086E+02  0.51100000000E-03 0. -1.
        -11    1    3    3    0    0  0.45056912883E+01  0.19949557501E+01  0.12214303887E+02  0.13170813267E+02  0.51100000000E-03 0.  1.
        -12    1    3    3    0    0  0.49729936936E+01 -0.11571714929E+02  0.10942366650E+02  0.16684443070E+02  0.00000000000E+00 0.  1.
</event>
<event>
 7    1  0.2486105E-010  0.4778727E+02  0.7816164E-02  0.1312668E+00
        -11   -1    0    0    0    0  0.00000000000E+00  0.00000000000E+00  0.45593999997E+02  0.45594000000E+02  0.51100000000E-03 0.  1.
         11   -1    0    0    0    0 -0.00000000000E+00 -0.00000000000E+00 -0.45593999997E+02  0.45594000000E+02  0.51100000000E-03 0. -1.
    9900012    2    1    2    0    0 -0.13774483221E+02 -0.87150329721E+01  0.40223568549E+02  0.47787266659E+02  0.19999980005E+02 0.  0.
         12    1    1    2    0    0  0.13774483221E+02  0.87150329721E+01 -0.40223568549E+02  0.43400733341E+02  0.00000000000E+00 0. -1.
         11    1    3    3    0    0 -0.72634792520E+01 -0.46825181629E+01  0.19949185756E+02  0.21740609922E+02  0.51100000000E-03 0. -1.
        -11    1    3    3    0    0 -0.94099946101E+01 -0.54964146572E+01  0.84656638324E+01  0.13799494086E+02  0.51100000000E-03 0.  1.
         12    1    3    3    0    0  0.28989906412E+01  0.14638998481E+01  0.11808718960E+02  0.12247162651E+02  0.00000000000E+00 0. -1.
</event>
<event>
 7    1  0.2486105E-010  0.4778727E+02  0.7816164E-02  0.1312668E+00
        -11   -1    0    0    0    0  0.00000000000E+00  0.00000000000E+00  0.45593999997E+02  0.45594000000E+02  0.51100000000E-03 0.  1.
         11   -1    0    0    0    0 -0.00000000000E+00 -0.00000000000E+00 -0.45593999997E+02  0.45594000000E+02  0.51100000000E-03 0. -1.
    9900012    2    1    2    0    0  0.88629091839E+01 -0.86290161277E+01  0.41600625123E+02  0.47787273172E+02  0.20000009701E+02 0.  0.
         12    1    1    2    0    0 -0.88629091839E+01  0.86290161277E+01 -0.41600625123E+02  0.43400726828E+02  0.00000000000E+00 0. -1.
         11    1    3    3    0    0  0.69472199439E+01  0.44148096528E+01  0.96680128318E+01  0.12697436025E+02  0.51100000000E-03 0. -1.
        -11    1    3    3    0    0  0.16763699067E+01 -0.22881237401E+01  0.26049313340E+01  0.38511548697E+01  0.51100000000E-03 0.  1.
         12    1    3    3    0    0  0.23931933330E+00 -0.10755702040E+02  0.29327680957E+02  0.31238682278E+02  0.00000000000E+00 0. -1.
</event>
<event>
 7    1  0.2486105E-010  0.4778727E+02  0.7816164E-02  0.1312668E+00
        -11   -1    0    0    0    0  0.00000000000E+00  0.00000000000E+00  0.45593999997E+02  0.45594000000E+02  0.51100000000E-03 0.  1.
         11   -1    0    0    0    0 -0.00000000000E+00 -0.00000000000E+00 -0.45593999997E+02  0.45594000000E+02  0.51100000000E-03 0. -1.
    9900012    2    1    2    0    0  0.38144656402E+02 -0.24163172298E+01  0.20561365892E+02  0.47787272261E+02  0.20000005545E+02 0.  0.
         12    1    1    2    0    0 -0.38144656402E+02  0.24163172298E+01 -0.20561365892E+02  0.43400727739E+02  0.00000000000E+00 0. -1.
         11    1    3    3    0    0  0.38731407051E+01  0.14590362989E+01 -0.13401660214E+01  0.43504081497E+01  0.51100000000E-03 0. -1.
        -11    1    3    3    0    0  0.22790206157E+02 -0.55134596288E+01  0.21530696176E+02  0.31833356905E+02  0.51100000000E-03 0.  1.
         12    1    3    3    0    0  0.11481309539E+02  0.16381061001E+01  0.37083573805E+00  0.11603507206E+02  0.00000000000E+00 0. -1.
</event>
<event>
 7    1  0.2486105E-010  0.4778727E+02  0.7816164E-02  0.1312668E+00
        -11   -1    0    0    0    0  0.00000000000E+00  0.00000000000E+00  0.45593999997E+02  0.45594000000E+02  0.51100000000E-03 0. -1.
         11   -1    0    0    0    0 -0.00000000000E+00 -0.00000000000E+00 -0.45593999997E+02  0.45594000000E+02  0.51100000000E-03 0.  1.
    9900012    2    1    2    0    0 -0.24621809471E+02  0.35249959935E+02  0.59017148772E+01  0.47787269412E+02  0.19999992556E+02 0.  0.
         12    1    1    2    0    0  0.24621809471E+02 -0.35249959935E+02 -0.59017148772E+01  0.43400730588E+02  0.00000000000E+00 0. -1.
         11    1    3    3    0    0 -0.51216519962E+01  0.17039369708E+02 -0.25155559106E+00  0.17794232765E+02  0.51100000000E-03 0. -1.
        -11    1    3    3    0    0 -0.43151121096E+01  0.10149484471E+02  0.64920906620E+01  0.12797635288E+02  0.51100000000E-03 0.  1.
         12    1    3    3    0    0 -0.15185045365E+02  0.80611057568E+01 -0.33882019368E+00  0.17195401359E+02  0.00000000000E+00 0. -1.
</event>
<event>
 7    1  0.2486105E-010  0.4778727E+02  0.7816164E-02  0.1312668E+00
        -11   -1    0    0    0    0  0.00000000000E+00  0.00000000000E+00  0.45593999997E+02  0.45594000000E+02  0.51100000000E-03 0.  1.
         11   -1    0    0    0    0 -0.00000000000E+00 -0.00000000000E+00 -0.45593999997E+02  0.45594000000E+02  0.51100000000E-03 0. -1.
    9900012    2    1    2    0    0  0.11099216663E+02 -0.23511182184E+02  0.34751329486E+02  0.47787271904E+02  0.20000003921E+02 0.  0.
         12    1    1    2    0    0 -0.11099216663E+02  0.23511182184E+02 -0.34751329486E+02  0.43400728096E+02  0.00000000000E+00 0. -1.
         11    1    3    3    0    0  0.21384816620E+01  0.11671429946E+01 -0.13208776994E+00  0.24398307377E+01  0.51100000000E-03 0. -1.
        -11    1    3    3    0    0  0.11667907980E+01  0.63055821222E-03 -0.69019421970E+00  0.13556435689E+01  0.51100000000E-03 0.  1.
        -12    1    3    3    0    0  0.77939442030E+01 -0.24678955736E+02  0.35573611475E+02  0.43991797598E+02  0.00000000000E+00 0.  1.
</event>
<event>
 7    1  0.2486105E-010  0.4778727E+02  0.7816164E-02  0.1312668E+00
        -11   -1    0    0    0    0  0.00000000000E+00  0.00000000000E+00  0.45593999997E+02  0.45594000000E+02  0.51100000000E-03 0. -1.
         11   -1    0    0    0    0 -0.00000000000E+00 -0.00000000000E+00 -0.45593999997E+02  0.45594000000E+02  0.51100000000E-03 0.  1.
    9900012    2    1    2    0    0 -0.90073745627E+01 -0.13585163638E+02 -0.40223546144E+02  0.47787272679E+02  0.20000007455E+02 0.  0.
         12    1    1    2    0    0  0.90073745627E+01  0.13585163638E+02  0.40223546144E+02  0.43400727321E+02  0.00000000000E+00 0. -1.
         11    1    3    3    0    0  0.31752750676E+01 -0.57797756895E+01 -0.21360378095E+02  0.22355176836E+02  0.51100000000E-03 0.  1.
        -11    1    3    3    0    0  0.66358533669E+00 -0.34067282181E+01 -0.35182607690E+01  0.49420948748E+01  0.51100000000E-03 0. -1.
        -12    1    3    3    0    0 -0.12846234967E+02 -0.43986597305E+01 -0.15344907280E+02  0.20490000968E+02  0.00000000000E+00 0.  1.
</event>
<event>
 7    1  0.2486105E-010  0.4778727E+02  0.7816164E-02  0.1312668E+00
        -11   -1    0    0    0    0  0.00000000000E+00  0.00000000000E+00  0.45593999997E+02  0.45594000000E+02  0.51100000000E-03 0.  1.
         11   -1    0    0    0    0 -0.00000000000E+00 -0.00000000000E+00 -0.45593999997E+02  0.45594000000E+02  0.51100000000E-03 0. -1.
    9900012    2    1    2    0    0  0.18643225765E+02  0.22065046568E+02  0.32391159253E+02  0.47787270228E+02  0.19999996280E+02 0.  0.
         12    1    1    2    0    0 -0.18643225765E+02 -0.22065046568E+02 -0.32391159253E+02  0.43400729772E+02  0.00000000000E+00 0. -1.
         11    1    3    3    0    0 -0.14920130899E+01  0.45234753204E+01  0.77208416151E+01  0.90718976814E+01  0.51100000000E-03 0. -1.
        -11    1    3    3    0    0  0.41320110693E+01  0.10690682714E+02  0.14748500322E+02  0.18678395926E+02  0.51100000000E-03 0.  1.
         12    1    3    3    0    0  0.16003227786E+02  0.68508885331E+01  0.99218173158E+01  0.20036976621E+02  0.00000000000E+00 0. -1.
</event>
<event>
 7    1  0.2486105E-010  0.4778727E+02  0.7816164E-02  0.1312668E+00
        -11   -1    0    0    0    0  0.00000000000E+00  0.00000000000E+00  0.45593999997E+02  0.45594000000E+02  0.51100000000E-03 0.  1.
         11   -1    0    0    0    0 -0.00000000000E+00 -0.00000000000E+00 -0.45593999997E+02  0.45594000000E+02  0.51100000000E-03 0. -1.
    9900012    2    1    2    0    0 -0.28715147609E+02  0.63334385936E+01  0.31921015829E+02  0.47787269612E+02  0.19999993471E+02 0.  0.
         12    1    1    2    0    0  0.28715147609E+02 -0.63334385936E+01 -0.31921015829E+02  0.43400730388E+02  0.00000000000E+00 0. -1.
         11    1    3    3    0    0 -0.14072059410E+02  0.32191156546E+01  0.65516049369E+01  0.15852731284E+02  0.51100000000E-03 0. -1.
        -11    1    3    3    0    0 -0.11156116106E+02 -0.35513115423E+00  0.76166336560E+01  0.13512888412E+02  0.51100000000E-03 0.  1.
         12    1    3    3    0    0 -0.34869720923E+01  0.34694540933E+01  0.17752777236E+02  0.18421649917E+02  0.00000000000E+00 0. -1.
</event>
<event>
 7    1  0.2486105E-010  0.4778727E+02  0.7816164E-02  0.1312668E+00
        -11   -1    0    0    0    0  0.00000000000E+00  0.00000000000E+00  0.45593999997E+02  0.45594000000E+02  0.51100000000E-03 0. -1.
         11   -1    0    0    0    0 -0.00000000000E+00 -0.00000000000E+00 -0.45593999997E+02  0.45594000000E+02  0.51100000000E-03 0.  1.
    9900012    2    1    2    0    0  0.39403942880E+02 -0.59535774764E+01 -0.17190330047E+02  0.47787271361E+02  0.20000001443E+02 0.  0.
         12    1    1    2    0    0 -0.39403942880E+02  0.59535774764E+01  0.17190330047E+02  0.43400728639E+02  0.00000000000E+00 0. -1.
         11    1    3    3    0    0  0.51770780803E+01  0.33221484459E+00 -0.10954539133E+02  0.12120826375E+02  0.51100000000E-03 0. -1.
        -11    1    3    3    0    0  0.74568496006E+01  0.42712371264E+00 -0.56021586328E+00  0.74900522499E+01  0.51100000000E-03 0.  1.
         12    1    3    3    0    0  0.26770015199E+02 -0.67129160336E+01 -0.56755750515E+01  0.28176392736E+02  0.00000000000E+00 0. -1.
</event>
<event>
 7    1  0.2486105E-010  0.4778727E+02  0.7816164E-02  0.1312668E+00
        -11   -1    0    0    0    0  0.00000000000E+00  0.00000000000E+00  0.45593999997E+02  0.45594000000E+02  0.51100000000E-03 0.  1.
         11   -1    0    0    0    0 -0.00000000000E+00 -0.00000000000E+00 -0.45593999997E+02  0.45594000000E+02  0.51100000000E-03 0. -1.
    9900012    2    1    2    0    0  0.23387330986E+02 -0.33733167281E+02  0.14097148877E+02  0.47787269224E+02  0.19999991699E+02 0.  0.
         12    1    1    2    0    0 -0.23387330986E+02  0.33733167281E+02 -0.14097148877E+02  0.43400730776E+02  0.00000000000E+00 0. -1.
         11    1    3    3    0    0  0.93203949503E+00  0.12543871777E+00  0.12376289854E+01  0.15543996458E+01  0.51100000000E-03 0. -1.
        -11    1    3    3    0    0  0.47476365471E+01 -0.22908655914E+02  0.89516870378E+01  0.25049536316E+02  0.51100000000E-03 0.  1.
        -12    1    3    3    0    0  0.17707654944E+02 -0.10949950085E+02  0.39078328536E+01  0.21183333262E+02  0.00000000000E+00 0.  1.
</event>
<event>
 7    1  0.2486105E-010  0.4778727E+02  0.7816164E-02  0.1312668E+00
        -11   -1    0    0    0    0  0.00000000000E+00  0.00000000000E+00  0.45593999997E+02  0.45594000000E+02  0.51100000000E-03 0.  1.
         11   -1    0    0    0    0 -0.00000000000E+00 -0.00000000000E+00 -0.45593999997E+02  0.45594000000E+02  0.51100000000E-03 0. -1.
    9900012    2    1    2    0    0  0.30399530652E+02 -0.11071926000E+02  0.28929298078E+02  0.47787270784E+02  0.19999998811E+02 0.  0.
         12    1    1    2    0    0 -0.30399530652E+02  0.11071926000E+02 -0.28929298078E+02  0.43400729216E+02  0.00000000000E+00 0. -1.
         11    1    3    3    0    0  0.45026913229E+01 -0.65132234112E+01  0.17169236209E+01  0.81021068454E+01  0.51100000000E-03 0. -1.
        -11    1    3    3    0    0  0.14195340956E+02 -0.83971313534E+01  0.17010522963E+02  0.23693404390E+02  0.51100000000E-03 0.  1.
         12    1    3    3    0    0  0.11701498373E+02  0.38384287642E+01  0.10201851494E+02  0.15991759549E+02  0.00000000000E+00 0. -1.
</event>
<event>
 7    1  0.2486105E-010  0.4778727E+02  0.7816164E-02  0.1312668E+00
        -11   -1    0    0    0    0  0.00000000000E+00  0.00000000000E+00  0.45593999997E+02  0.45594000000E+02  0.51100000000E-03 0.  1.
         11   -1    0    0    0    0 -0.00000000000E+00 -0.00000000000E+00 -0.45593999997E+02  0.45594000000E+02  0.51100000000E-03 0. -1.
    9900012    2    1    2    0    0  0.13833310358E+02 -0.40142239264E+02 -0.89924046893E+01  0.47787272003E+02  0.20000004370E+02 0.  0.
         12    1    1    2    0    0 -0.13833310358E+02  0.40142239264E+02  0.89924046893E+01  0.43400727997E+02  0.00000000000E+00 0. -1.
         11    1    3    3    0    0  0.28956036431E+01 -0.17630173485E+02 -0.51342642117E+01  0.18589464941E+02  0.51100000000E-03 0. -1.
        -11    1    3    3    0    0  0.78092609076E+01 -0.94902284278E+01 -0.85894584704E+01  0.14994258522E+02  0.51100000000E-03 0.  1.
        -12    1    3    3    0    0  0.31284458074E+01 -0.13021837351E+02  0.47313179928E+01  0.14203548540E+02  0.00000000000E+00 0.  1.
</event>
<event>
 7    1  0.2486105E-010  0.4778727E+02  0.7816164E-02  0.1312668E+00
        -11   -1    0    0    0    0  0.00000000000E+00  0.00000000000E+00  0.45593999997E+02  0.45594000000E+02  0.51100000000E-03 0.  1.
         11   -1    0    0    0    0 -0.00000000000E+00 -0.00000000000E+00 -0.45593999997E+02  0.45594000000E+02  0.51100000000E-03 0. -1.
    9900012    2    1    2    0    0  0.33667356624E+02  0.13845516471E+02  0.23631205711E+02  0.47787272912E+02  0.20000008516E+02 0.  0.
         12    1    1    2    0    0 -0.33667356624E+02 -0.13845516471E+02 -0.23631205711E+02  0.43400727088E+02  0.00000000000E+00 0. -1.
         11    1    3    3    0    0  0.12178999615E+02  0.10673089261E+02  0.78097708862E+01  0.17978748220E+02  0.51100000000E-03 0.  1.
        -11    1    3    3    0    0  0.13378419363E+02  0.26276822862E+01  0.20080290979E+01  0.13781110259E+02  0.51100000000E-03 0. -1.
        -12    1    3    3    0    0  0.81099376469E+01  0.54474492358E+00  0.13813405727E+02  0.16027414434E+02  0.00000000000E+00 0.  1.
</event>
<event>
 7    1  0.2486105E-010  0.4778727E+02  0.7816164E-02  0.1312668E+00
        -11   -1    0    0    0    0  0.00000000000E+00  0.00000000000E+00  0.45593999997E+02  0.45594000000E+02  0.51100000000E-03 0. -1.
         11   -1    0    0    0    0 -0.00000000000E+00 -0.00000000000E+00 -0.45593999997E+02  0.45594000000E+02  0.51100000000E-03 0.  1.
    9900012    2    1    2    0    0  0.24294927006E+02  0.30981699394E+02 -0.18262379741E+02  0.47787266258E+02  0.19999978177E+02 0.  0.
         12    1    1    2    0    0 -0.24294927006E+02 -0.30981699394E+02  0.18262379741E+02  0.43400733742E+02  0.00000000000E+00 0. -1.
         11    1    3    3    0    0  0.83933965591E+01  0.16221636419E+02 -0.39643821461E+01  0.18689754412E+02  0.51100000000E-03 0. -1.
        -11    1    3    3    0    0  0.70724421208E+00  0.86983292526E+01 -0.69865623972E+01  0.11179140421E+02  0.51100000000E-03 0.  1.
        -12    1    3    3    0    0  0.15194286234E+02  0.60617337227E+01 -0.73114351973E+01  0.17918371425E+02  0.00000000000E+00 0.  1.
</event>
<event>
 7    1  0.2486105E-010  0.4778727E+02  0.7816164E-02  0.1312668E+00
        -11   -1    0    0    0    0  0.00000000000E+00  0.00000000000E+00  0.45593999997E+02  0.45594000000E+02  0.51100000000E-03 0.  1.
         11   -1    0    0    0    0 -0.00000000000E+00 -0.00000000000E+00 -0.45593999997E+02  0.45594000000E+02  0.51100000000E-03 0. -1.
    9900012    2    1    2    0    0  0.28781181684E+01 -0.26505224208E+02  0.34246359286E+02  0.47787267301E+02  0.19999982931E+02 0.  0.
         12    1    1    2    0    0 -0.28781181684E+01  0.26505224208E+02 -0.34246359286E+02  0.43400732699E+02  0.00000000000E+00 0. -1.
         11    1    3    3    0    0 -0.46525822552E+01 -0.18288422515E+02  0.20361008960E+02  0.27761188841E+02  0.51100000000E-03 0. -1.
        -11    1    3    3    0    0  0.61416600027E+00 -0.48192124049E+01  0.10578116742E+02  0.11640384966E+02  0.51100000000E-03 0.  1.
        -12    1    3    3    0    0  0.69165344234E+01 -0.33975892879E+01  0.33072335834E+01  0.83856934939E+01  0.00000000000E+00 0.  1.
</event>
<event>
 7    1  0.2486105E-010  0.4778726E+02  0.7816164E-02  0.1312668E+00
        -11   -1    0    0    0    0  0.00000000000E+00  0.00000000000E+00  0.45593999997E+02  0.45594000000E+02  0.51100000000E-03 0.  1.
         11   -1    0    0    0    0 -0.00000000000E+00 -0.00000000000E+00 -0.45593999997E+02  0.45594000000E+02  0.51100000000E-03 0. -1.
    9900012    2    1    2    0    0 -0.37382474577E+02  0.78322807116E+01  0.20611399230E+02  0.47787264927E+02  0.19999972107E+02 0.  0.
         12    1    1    2    0    0  0.37382474577E+02 -0.78322807116E+01 -0.20611399230E+02  0.43400735073E+02  0.00000000000E+00 0. -1.
         11    1    3    3    0    0 -0.49559935557E+01 -0.17543828080E+01  0.11091141962E+02  0.12274084954E+02  0.51100000000E-03 0. -1.
        -11    1    3    3    0    0 -0.20934878892E+02  0.41493607769E+01  0.76053696777E+01  0.22656742865E+02  0.51100000000E-03 0.  1.
        -12    1    3    3    0    0 -0.11491602130E+02  0.54373027427E+01  0.19148875905E+01  0.12856437108E+02  0.00000000000E+00 0.  1.
</event>
<event>
 7    1  0.2486105E-010  0.4778730E+02  0.7816164E-02  0.1312668E+00
        -11   -1    0    0    0    0  0.00000000000E+00  0.00000000000E+00  0.45593999997E+02  0.45594000000E+02  0.51100000000E-03 0.  1.
         11   -1    0    0    0    0 -0.00000000000E+00 -0.00000000000E+00 -0.45593999997E+02  0.45594000000E+02  0.51100000000E-03 0. -1.
    9900012    2    1    2    0    0 -0.22518850290E+02 -0.11983027147E+02  0.35113090267E+02  0.47787301087E+02  0.20000136977E+02 0.  0.
         12    1    1    2    0    0  0.22518850290E+02  0.11983027147E+02 -0.35113090267E+02  0.43400698913E+02  0.00000000000E+00 0. -1.
         11    1    3    3    0    0 -0.97192806089E+01  0.45931665984E+00  0.43693890049E+01  0.10666159003E+02  0.51100000000E-03 0. -1.
        -11    1    3    3    0    0 -0.65527003129E+01  0.24452680468E+00  0.11532647084E+02  0.13266484981E+02  0.51100000000E-03 0.  1.
         12    1    3    3    0    0 -0.62468693687E+01 -0.12686870611E+02  0.19211054179E+02  0.23854657102E+02  0.00000000000E+00 0. -1.
</event>
<event>
 7    1  0.2486105E-010  0.4778727E+02  0.7816164E-02  0.1312668E+00
        -11   -1    0    0    0    0  0.00000000000E+00  0.00000000000E+00  0.45593999997E+02  0.45594000000E+02  0.51100000000E-03 0.  1.
         11   -1    0    0    0    0 -0.00000000000E+00 -0.00000000000E+00 -0.45593999997E+02  0.45594000000E+02  0.51100000000E-03 0. -1.
    9900012    2    1    2    0    0  0.12535542512E+02  0.27984545702E+02  0.30713976353E+02  0.47787274572E+02  0.20000016084E+02 0.  0.
         12    1    1    2    0    0 -0.12535542512E+02 -0.27984545702E+02 -0.30713976353E+02  0.43400725428E+02  0.00000000000E+00 0. -1.
         11    1    3    3    0    0  0.53378187512E+00  0.91383243250E+01  0.43345149841E+01  0.10128273050E+02  0.51100000000E-03 0. -1.
        -11    1    3    3    0    0  0.10696345723E+01  0.14774660840E+02  0.11509184493E+02  0.18758892532E+02  0.51100000000E-03 0.  1.
        -12    1    3    3    0    0  0.10932126065E+02  0.40715605373E+01  0.14870276876E+02  0.18900108991E+02  0.00000000000E+00 0.  1.
</event>
<event>
 7    1  0.2486105E-010  0.4778727E+02  0.7816164E-02  0.1312668E+00
        -11   -1    0    0    0    0  0.00000000000E+00  0.00000000000E+00  0.45593999997E+02  0.45594000000E+02  0.51100000000E-03 0. -1.
         11   -1    0    0    0    0 -0.00000000000E+00 -0.00000000000E+00 -0.45593999997E+02  0.45594000000E+02  0.51100000000E-03 0.  1.
    9900012    2    1    2    0    0  0.20495022375E+02 -0.32117034630E+02 -0.20786379516E+02  0.47787269258E+02  0.19999991854E+02 0.  0.
         12    1    1    2    0    0 -0.20495022375E+02  0.32117034630E+02  0.20786379516E+02  0.43400730742E+02  0.00000000000E+00 0. -1.
         11    1    3    3    0    0  0.11338716602E+02 -0.13474242786E+02 -0.55865787626E+01  0.18475161038E+02  0.51100000000E-03 0. -1.
        -11    1    3    3    0    0  0.59183574399E+01 -0.20302725484E+02 -0.11296197266E+02  0.23975647849E+02  0.51100000000E-03 0.  1.
         12    1    3    3    0    0  0.32379483330E+01  0.16599336404E+01 -0.39036034877E+01  0.53364603706E+01  0.00000000000E+00 0. -1.
</event>
<event>
 7    1  0.2486105E-010  0.4778727E+02  0.7816164E-02  0.1312668E+00
        -11   -1    0    0    0    0  0.00000000000E+00  0.00000000000E+00  0.45593999997E+02  0.45594000000E+02  0.51100000000E-03 0. -1.
         11   -1    0    0    0    0 -0.00000000000E+00 -0.00000000000E+00 -0.45593999997E+02  0.45594000000E+02  0.51100000000E-03 0.  1.
    9900012    2    1    2    0    0  0.18963862330E+02 -0.94588319330E+01 -0.37875132062E+02  0.47787271841E+02  0.20000003634E+02 0.  0.
         12    1    1    2    0    0 -0.18963862330E+02  0.94588319330E+01  0.37875132062E+02  0.43400728159E+02  0.00000000000E+00 0. -1.
         11    1    3    3    0    0  0.17970476694E+02 -0.70726345508E+01 -0.16308540355E+02  0.25277038610E+02  0.51100000000E-03 0. -1.
        -11    1    3    3    0    0  0.23504029633E+01 -0.92266551203E-01 -0.33131449383E+01  0.40632298544E+01  0.51100000000E-03 0.  1.
        -12    1    3    3    0    0 -0.13570173274E+01 -0.22939308309E+01 -0.18253446768E+02  0.18447003377E+02  0.00000000000E+00 0.  1.
</event>
<event>
 7    1  0.2486105E-010  0.4778727E+02  0.7816164E-02  0.1312668E+00
        -11   -1    0    0    0    0  0.00000000000E+00  0.00000000000E+00  0.45593999997E+02  0.45594000000E+02  0.51100000000E-03 0.  1.
         11   -1    0    0    0    0 -0.00000000000E+00 -0.00000000000E+00 -0.45593999997E+02  0.45594000000E+02  0.51100000000E-03 0. -1.
    9900012    2    1    2    0    0 -0.15474436209E+02  0.19432522264E+02  0.35588510124E+02  0.47787272467E+02  0.20000006485E+02 0.  0.
         12    1    1    2    0    0  0.15474436209E+02 -0.19432522264E+02 -0.35588510124E+02  0.43400727533E+02  0.00000000000E+00 0. -1.
         11    1    3    3    0    0 -0.42336477671E+01  0.73419534158E+01  0.17983546427E+01  0.86638405490E+01  0.51100000000E-03 0. -1.
        -11    1    3    3    0    0  0.20788632373E+01  0.17346455055E+01  0.32248578619E+01  0.42107452879E+01  0.51100000000E-03 0.  1.
        -12    1    3    3    0    0 -0.13319651679E+02  0.10355923343E+02  0.30565297620E+02  0.34912686630E+02  0.00000000000E+00 0.  1.
</event>
<event>
 7    1  0.2486105E-010  0.4778727E+02  0.7816164E-02  0.1312668E+00
        -11   -1    0    0    0    0  0.00000000000E+00  0.00000000000E+00  0.45593999997E+02  0.45594000000E+02  0.51100000000E-03 0. -1.
         11   -1    0    0    0    0 -0.00000000000E+00 -0.00000000000E+00 -0.45593999997E+02  0.45594000000E+02  0.51100000000E-03 0.  1.
    9900012    2    1    2    0    0 -0.22186991330E+02 -0.13530383793E+02 -0.34760455571E+02  0.47787272571E+02  0.20000006959E+02 0.  0.
         12    1    1    2    0    0  0.22186991330E+02  0.13530383793E+02  0.34760455571E+02  0.43400727429E+02  0.00000000000E+00 0. -1.
         11    1    3    3    0    0  0.42522760836E+00 -0.85723048884E+00  0.76141612029E+00  0.12228726014E+01  0.51100000000E-03 0. -1.
        -11    1    3    3    0    0 -0.20137231015E+02 -0.16142125772E+02 -0.31265623793E+02  0.40541528447E+02  0.51100000000E-03 0.  1.
         12    1    3    3    0    0 -0.24749879237E+01  0.34689724677E+01 -0.42562478981E+01  0.60228715223E+01  0.00000000000E+00 0. -1.
</event>
<event>
 7    1  0.2486105E-010  0.4778727E+02  0.7816164E-02  0.1312668E+00
        -11   -1    0    0    0    0  0.00000000000E+00  0.00000000000E+00  0.45593999997E+02  0.45594000000E+02  0.51100000000E-03 0. -1.
         11   -1    0    0    0    0 -0.00000000000E+00 -0.00000000000E+00 -0.45593999997E+02  0.45594000000E+02  0.51100000000E-03 0.  1.
    9900012    2    1    2    0    0 -0.19878154608E+02  0.17288753436E+02 -0.34490303457E+02  0.47787273525E+02  0.20000011312E+02 0.  0.
         12    1    1    2    0    0  0.19878154608E+02 -0.17288753436E+02  0.34490303457E+02  0.43400726475E+02  0.00000000000E+00 0. -1.
         11    1    3    3    0    0 -0.30112253952E+01  0.74067120263E+00 -0.12388556171E+02  0.12770763347E+02  0.51100000000E-03 0. -1.
        -11    1    3    3    0    0 -0.27510753305E+01  0.10402890640E+02 -0.13882072296E+02  0.17564181753E+02  0.51100000000E-03 0.  1.
         12    1    3    3    0    0 -0.14115853882E+02  0.61451915937E+01 -0.82196749899E+01  0.17452328426E+02  0.00000000000E+00 0. -1.
</event>
<event>
 7    1  0.2486105E-010  0.4778727E+02  0.7816164E-02  0.1312668E+00
        -11   -1    0    0    0    0  0.00000000000E+00  0.00000000000E+00  0.45593999997E+02  0.45594000000E+02  0.51100000000E-03 0. -1.
         11   -1    0    0    0    0 -0.00000000000E+00 -0.00000000000E+00 -0.45593999997E+02  0.45594000000E+02  0.51100000000E-03 0.  1.
    9900012    2    1    2    0    0 -0.28925200760E+02  0.64948542888E+01 -0.31698154737E+02  0.47787269765E+02  0.19999994166E+02 0.  0.
         12    1    1    2    0    0  0.28925200760E+02 -0.64948542888E+01  0.31698154737E+02  0.43400730235E+02  0.00000000000E+00 0. -1.
         11    1    3    3    0    0  0.10802181133E+01 -0.11944929763E+01 -0.70093862314E+01  0.71920219859E+01  0.51100000000E-03 0. -1.
        -11    1    3    3    0    0 -0.35895041063E+01  0.42470346324E+01 -0.48784848077E+01  0.73973952968E+01  0.51100000000E-03 0.  1.
        -12    1    3    3    0    0 -0.26415914767E+02  0.34423126326E+01 -0.19810283697E+02  0.33197852482E+02  0.00000000000E+00 0.  1.
</event>
<event>
 7    1  0.2486105E-010  0.4778727E+02  0.7816164E-02  0.1312668E+00
        -11   -1    0    0    0    0  0.00000000000E+00  0.00000000000E+00  0.45593999997E+02  0.45594000000E+02  0.51100000000E-03 0.  1.
         11   -1    0    0    0    0 -0.00000000000E+00 -0.00000000000E+00 -0.45593999997E+02  0.45594000000E+02  0.51100000000E-03 0. -1.
    9900012    2    1    2    0    0  0.25174382141E+02 -0.12299695858E+01  0.35332151603E+02  0.47787270994E+02  0.19999999769E+02 0.  0.
         12    1    1    2    0    0 -0.25174382141E+02  0.12299695858E+01 -0.35332151603E+02  0.43400729006E+02  0.00000000000E+00 0. -1.
         11    1    3    3    0    0 -0.11111888709E+01 -0.14185492713E+01 -0.16831302383E+00  0.18097934349E+01  0.51100000000E-03 0. -1.
        -11    1    3    3    0    0  0.28602422063E+01 -0.43958839844E+01  0.79607213332E+01  0.95329882980E+01  0.51100000000E-03 0.  1.
         12    1    3    3    0    0  0.23425328806E+02  0.45844636700E+01  0.27539743294E+02  0.36444489261E+02  0.00000000000E+00 0. -1.
</event>
<event>
 7    1  0.2486105E-010  0.4778728E+02  0.7816164E-02  0.1312668E+00
        -11   -1    0    0    0    0  0.00000000000E+00  0.00000000000E+00  0.45593999997E+02  0.45594000000E+02  0.51100000000E-03 0.  1.
         11   -1    0    0    0    0 -0.00000000000E+00 -0.00000000000E+00 -0.45593999997E+02  0.45594000000E+02  0.51100000000E-03 0. -1.
    9900012    2    1    2    0    0 -0.16484962910E+02 -0.38777853034E+02 -0.10399365348E+02  0.47787277798E+02  0.20000030790E+02 0.  0.
         12    1    1    2    0    0  0.16484962910E+02  0.38777853034E+02  0.10399365348E+02  0.43400722202E+02  0.00000000000E+00 0. -1.
         11    1    3    3    0    0  0.18879730963E+01 -0.52392851088E+01 -0.59287841281E+01  0.81341891029E+01  0.51100000000E-03 0. -1.
        -11    1    3    3    0    0 -0.22110695365E+01 -0.10664549093E+01  0.15237734425E+01  0.28892975502E+01  0.51100000000E-03 0.  1.
        -12    1    3    3    0    0 -0.16161866470E+02 -0.32472113016E+02 -0.59943546627E+01  0.36763791144E+02  0.00000000000E+00 0.  1.
</event>
<event>
 7    1  0.2486105E-010  0.4778730E+02  0.7816164E-02  0.1312668E+00
        -11   -1    0    0    0    0  0.00000000000E+00  0.00000000000E+00  0.45593999997E+02  0.45594000000E+02  0.51100000000E-03 0.  1.
         11   -1    0    0    0    0 -0.00000000000E+00 -0.00000000000E+00 -0.45593999997E+02  0.45594000000E+02  0.51100000000E-03 0. -1.
    9900012    2    1    2    0    0  0.48139379654E+00  0.42056738512E+02 -0.10706073843E+02  0.47787297109E+02  0.20000118841E+02 0.  0.
         12    1    1    2    0    0 -0.48139379654E+00 -0.42056738512E+02  0.10706073843E+02  0.43400702891E+02  0.00000000000E+00 0. -1.
         11    1    3    3    0    0  0.14979333131E+01  0.12814403784E+02  0.77157845302E+00  0.12924708202E+02  0.51100000000E-03 0. -1.
        -11    1    3    3    0    0 -0.35713043098E+01  0.18080447526E+02  0.30536604774E+00  0.18432309836E+02  0.51100000000E-03 0.  1.
         12    1    3    3    0    0  0.25547647932E+01  0.11161887203E+02 -0.11783018344E+02  0.16430279072E+02  0.00000000000E+00 0. -1.
</event>
<event>
 7    1  0.2486105E-010  0.4778727E+02  0.7816164E-02  0.1312668E+00
        -11   -1    0    0    0    0  0.00000000000E+00  0.00000000000E+00  0.45593999997E+02  0.45594000000E+02  0.51100000000E-03 0. -1.
         11   -1    0    0    0    0 -0.00000000000E+00 -0.00000000000E+00 -0.45593999997E+02  0.45594000000E+02  0.51100000000E-03 0.  1.
    9900012    2    1    2    0    0  0.14517794178E+02 -0.19397501914E+02 -0.36008247907E+02  0.47787270218E+02  0.19999996231E+02 0.  0.
         12    1    1    2    0    0 -0.14517794178E+02  0.19397501914E+02  0.36008247907E+02  0.43400729782E+02  0.00000000000E+00 0. -1.
         11    1    3    3    0    0 -0.41478152468E+00 -0.77216551813E+01 -0.46049535311E+01  0.90000888738E+01  0.51100000000E-03 0. -1.
        -11    1    3    3    0    0  0.92525339210E+01 -0.12349332129E+02 -0.15435746271E+02  0.21826077321E+02  0.51100000000E-03 0.  1.
         12    1    3    3    0    0  0.56800417816E+01  0.67348539642E+00 -0.15967548105E+02  0.16961104023E+02  0.00000000000E+00 0. -1.
</event>
<event>
 7    1  0.2486105E-010  0.4778727E+02  0.7816164E-02  0.1312668E+00
        -11   -1    0    0    0    0  0.00000000000E+00  0.00000000000E+00  0.45593999997E+02  0.45594000000E+02  0.51100000000E-03 0.  1.
         11   -1    0    0    0    0 -0.00000000000E+00 -0.00000000000E+00 -0.45593999997E+02  0.45594000000E+02  0.51100000000E-03 0. -1.
    9900012    2    1    2    0    0 -0.31478716137E+02 -0.20880082087E+02 -0.21371391537E+02  0.47787265284E+02  0.19999973738E+02 0.  0.
         12    1    1    2    0    0  0.31478716137E+02  0.20880082087E+02  0.21371391537E+02  0.43400734716E+02  0.00000000000E+00 0. -1.
         11    1    3    3    0    0 -0.18018305616E+02 -0.48714926303E+01 -0.95981508810E+01  0.20988455835E+02  0.51100000000E-03 0. -1.
        -11    1    3    3    0    0 -0.11132581442E+02 -0.46045235214E+01 -0.83796054671E+01  0.14674937631E+02  0.51100000000E-03 0.  1.
         12    1    3    3    0    0 -0.23278290788E+01 -0.11404065936E+02 -0.33936351893E+01  0.12123871819E+02  0.00000000000E+00 0. -1.
</event>
<event>
 7    1  0.2486105E-010  0.4778728E+02  0.7816164E-02  0.1312668E+00
        -11   -1    0    0    0    0  0.00000000000E+00  0.00000000000E+00  0.45593999997E+02  0.45594000000E+02  0.51100000000E-03 0.  1.
         11   -1    0    0    0    0 -0.00000000000E+00 -0.00000000000E+00 -0.45593999997E+02  0.45594000000E+02  0.51100000000E-03 0. -1.
    9900012    2    1    2    0    0  0.66138169010E+01  0.32782246755E+02  0.27662326701E+02  0.47787278868E+02  0.20000035671E+02 0.  0.
         12    1    1    2    0    0 -0.66138169010E+01 -0.32782246755E+02 -0.27662326701E+02  0.43400721132E+02  0.00000000000E+00 0. -1.
         11    1    3    3    0    0  0.21464116994E+01 -0.14412602440E+01  0.34289564600E+01  0.42944216072E+01  0.51100000000E-03 0. -1.
        -11    1    3    3    0    0  0.65610088540E+01  0.12208039831E+02  0.11232794593E+02  0.17839807968E+02  0.51100000000E-03 0.  1.
         12    1    3    3    0    0 -0.20936036524E+01  0.22015467167E+02  0.13000575648E+02  0.25653049293E+02  0.00000000000E+00 0. -1.
</event>
<event>
 7    1  0.2486105E-010  0.4778727E+02  0.7816164E-02  0.1312668E+00
        -11   -1    0    0    0    0  0.00000000000E+00  0.00000000000E+00  0.45593999997E+02  0.45594000000E+02  0.51100000000E-03 0.  1.
         11   -1    0    0    0    0 -0.00000000000E+00 -0.00000000000E+00 -0.45593999997E+02  0.45594000000E+02  0.51100000000E-03 0. -1.
    9900012    2    1    2    0    0 -0.14602782580E+02 -0.39097850967E+02 -0.11905477556E+02  0.47787267228E+02  0.19999982599E+02 0.  0.
         12    1    1    2    0    0  0.14602782580E+02  0.39097850967E+02  0.11905477556E+02  0.43400732772E+02  0.00000000000E+00 0. -1.
         11    1    3    3    0    0  0.16651564628E+00 -0.16845312696E+01 -0.19203060859E+01  0.25598728061E+01  0.51100000000E-03 0. -1.
        -11    1    3    3    0    0  0.29499397305E+01 -0.99462998652E+01  0.17041731412E+01  0.10513573692E+02  0.51100000000E-03 0.  1.
         12    1    3    3    0    0 -0.17719237957E+02 -0.27467019832E+02 -0.11689344611E+02  0.34713820730E+02  0.00000000000E+00 0. -1.
</event>
<event>
 7    1  0.2486105E-010  0.4778727E+02  0.7816164E-02  0.1312668E+00
        -11   -1    0    0    0    0  0.00000000000E+00  0.00000000000E+00  0.45593999997E+02  0.45594000000E+02  0.51100000000E-03 0. -1.
         11   -1    0    0    0    0 -0.00000000000E+00 -0.00000000000E+00 -0.45593999997E+02  0.45594000000E+02  0.51100000000E-03 0.  1.
    9900012    2    1    2    0    0  0.17113802700E+02 -0.30671458053E+02 -0.25495157543E+02  0.47787266825E+02  0.19999980761E+02 0.  0.
         12    1    1    2    0    0 -0.17113802700E+02  0.30671458053E+02  0.25495157543E+02  0.43400733175E+02  0.00000000000E+00 0. -1.
         11    1    3    3    0    0  0.13794788084E+02 -0.84676830314E+01 -0.53273432533E+01  0.17040493555E+02  0.51100000000E-03 0. -1.
        -11    1    3    3    0    0 -0.73106621563E+00 -0.42807973866E+00 -0.90057067901E-01  0.85195106132E+00  0.51100000000E-03 0.  1.
        -12    1    3    3    0    0  0.40500808322E+01 -0.21775695283E+02 -0.20077757222E+02  0.29894822209E+02  0.00000000000E+00 0.  1.
</event>
<event>
 7    1  0.2486105E-010  0.4778727E+02  0.7816164E-02  0.1312668E+00
        -11   -1    0    0    0    0  0.00000000000E+00  0.00000000000E+00  0.45593999997E+02  0.45594000000E+02  0.51100000000E-03 0.  1.
         11   -1    0    0    0    0 -0.00000000000E+00 -0.00000000000E+00 -0.45593999997E+02  0.45594000000E+02  0.51100000000E-03 0. -1.
    9900012    2    1    2    0    0 -0.35981820384E+01 -0.53163160175E+01  0.42923339837E+02  0.47787271519E+02  0.20000002162E+02 0.  0.
         12    1    1    2    0    0  0.35981820384E+01  0.53163160175E+01 -0.42923339837E+02  0.43400728481E+02  0.00000000000E+00 0. -1.
         11    1    3    3    0    0  0.79040081164E+00 -0.24462087292E+01  0.98916070393E+01  0.10220203553E+02  0.51100000000E-03 0.  1.
        -11    1    3    3    0    0 -0.73682371525E+01 -0.31560919365E+01  0.33580415899E+02  0.34523849254E+02  0.51100000000E-03 0. -1.
         12    1    3    3    0    0  0.29796543025E+01  0.28598464826E+00 -0.54868310210E+00  0.30432187118E+01  0.00000000000E+00 0. -1.
</event>
<event>
 7    1  0.2486105E-010  0.4778727E+02  0.7816164E-02  0.1312668E+00
        -11   -1    0    0    0    0  0.00000000000E+00  0.00000000000E+00  0.45593999997E+02  0.45594000000E+02  0.51100000000E-03 0.  1.
         11   -1    0    0    0    0 -0.00000000000E+00 -0.00000000000E+00 -0.45593999997E+02  0.45594000000E+02  0.51100000000E-03 0. -1.
    9900012    2    1    2    0    0  0.21977771834E+02  0.37382250497E+02  0.17799795936E+01  0.47787269195E+02  0.19999991568E+02 0.  0.
         12    1    1    2    0    0 -0.21977771834E+02 -0.37382250497E+02 -0.17799795936E+01  0.43400730805E+02  0.00000000000E+00 0. -1.
         11    1    3    3    0    0  0.23637420492E+01  0.87324366313E+01  0.66033435016E+01  0.11200306766E+02  0.51100000000E-03 0. -1.
        -11    1    3    3    0    0  0.43733692948E+01  0.10103440400E+01 -0.19489676740E+01  0.48934271552E+01  0.51100000000E-03 0.  1.
         12    1    3    3    0    0  0.15240660490E+02  0.27639469826E+02 -0.28743962339E+01  0.31693535274E+02  0.00000000000E+00 0. -1.
</event>
<event>
 7    1  0.2656264E-010  0.4778728E+02  0.7816164E-02  0.1312668E+00
        -11   -1    0    0    0    0  0.00000000000E+00  0.00000000000E+00  0.45593999997E+02  0.45594000000E+02  0.51100000000E-03 0. -1.
         11   -1    0    0    0    0 -0.00000000000E+00 -0.00000000000E+00 -0.45593999997E+02  0.45594000000E+02  0.51100000000E-03 0.  1.
    9900012    2    1    2    0    0 -0.63129457932E+01 -0.86011473227E+01 -0.42068870064E+02  0.47787275947E+02  0.20000022353E+02 0.  0.
         12    1    1    2    0    0  0.63129457932E+01  0.86011473227E+01  0.42068870064E+02  0.43400724053E+02  0.00000000000E+00 0. -1.
         11    1    3    3    0    0 -0.19904667857E+01  0.34364659192E+01 -0.16907854759E+01  0.43162497409E+01  0.51100000000E-03 0. -1.
        -11    1    3    3    0    0 -0.30175535371E+01 -0.62829262415E-02 -0.15675832878E+02  0.15963627580E+02  0.51100000000E-03 0.  1.
        -12    1    3    3    0    0 -0.13049254705E+01 -0.12031330316E+02 -0.24702251710E+02  0.27507398626E+02  0.00000000000E+00 0.  1.
</event>
<event>
 7    1  0.2486105E-010  0.4778729E+02  0.7816164E-02  0.1312668E+00
        -11   -1    0    0    0    0  0.00000000000E+00  0.00000000000E+00  0.45593999997E+02  0.45594000000E+02  0.51100000000E-03 0. -1.
         11   -1    0    0    0    0 -0.00000000000E+00 -0.00000000000E+00 -0.45593999997E+02  0.45594000000E+02  0.51100000000E-03 0.  1.
    9900012    2    1    2    0    0  0.28433872073E+02 -0.30389466629E+02 -0.12313277297E+02  0.47787290779E+02  0.20000089978E+02 0.  0.
         12    1    1    2    0    0 -0.28433872073E+02  0.30389466629E+02  0.12313277297E+02  0.43400709221E+02  0.00000000000E+00 0. -1.
         11    1    3    3    0    0  0.19492270765E+01 -0.32917021058E+01  0.27399214329E+01  0.47055242714E+01  0.51100000000E-03 0. -1.
        -11    1    3    3    0    0  0.17789424397E+02 -0.99600067169E+01 -0.35794413558E+01  0.20699704221E+02  0.51100000000E-03 0.  1.
        -12    1    3    3    0    0  0.86952206000E+01 -0.17137757806E+02 -0.11473757375E+02  0.22382062286E+02  0.00000000000E+00 0.  1.
</event>
<event>
 7    1  0.2486105E-010  0.4778727E+02  0.7816164E-02  0.1312668E+00
        -11   -1    0    0    0    0  0.00000000000E+00  0.00000000000E+00  0.45593999997E+02  0.45594000000E+02  0.51100000000E-03 0.  1.
         11   -1    0    0    0    0 -0.00000000000E+00 -0.00000000000E+00 -0.45593999997E+02  0.45594000000E+02  0.51100000000E-03 0. -1.
    9900012    2    1    2    0    0  0.30883957437E+02 -0.29629915313E+02  0.72022517065E+01  0.47787272609E+02  0.20000007133E+02 0.  0.
         12    1    1    2    0    0 -0.30883957437E+02  0.29629915313E+02 -0.72022517065E+01  0.43400727391E+02  0.00000000000E+00 0. -1.
         11    1    3    3    0    0  0.25291858046E+02 -0.17313347422E+02  0.22415186748E+01  0.30731978273E+02  0.51100000000E-03 0. -1.
        -11    1    3    3    0    0  0.81377539020E+01 -0.97977128576E+01  0.39085893443E+01  0.13322735708E+02  0.51100000000E-03 0.  1.
         12    1    3    3    0    0 -0.25456545110E+01 -0.25188550338E+01  0.10521436873E+01  0.37325586278E+01  0.00000000000E+00 0. -1.
</event>
<event>
 7    1  0.2486105E-010  0.4778726E+02  0.7816164E-02  0.1312668E+00
        -11   -1    0    0    0    0  0.00000000000E+00  0.00000000000E+00  0.45593999997E+02  0.45594000000E+02  0.51100000000E-03 0. -1.
         11   -1    0    0    0    0 -0.00000000000E+00 -0.00000000000E+00 -0.45593999997E+02  0.45594000000E+02  0.51100000000E-03 0.  1.
    9900012    2    1    2    0    0  0.36714858167E+02 -0.21371864164E+02  0.88818037511E+01  0.47787264685E+02  0.19999971004E+02 0.  0.
         12    1    1    2    0    0 -0.36714858167E+02  0.21371864164E+02 -0.88818037511E+01  0.43400735315E+02  0.00000000000E+00 0. -1.
         11    1    3    3    0    0  0.21967132640E+02 -0.13716790191E+02  0.37454644528E+01  0.26167417790E+02  0.51100000000E-03 0. -1.
        -11    1    3    3    0    0  0.13128442407E+02 -0.60460357767E+01  0.90756790343E+01  0.17066883103E+02  0.51100000000E-03 0.  1.
         12    1    3    3    0    0  0.16192831196E+01 -0.16090381958E+01 -0.39393397359E+01  0.45529637921E+01  0.00000000000E+00 0. -1.
</event>
<event>
 7    1  0.2486105E-010  0.4778727E+02  0.7816164E-02  0.1312668E+00
        -11   -1    0    0    0    0  0.00000000000E+00  0.00000000000E+00  0.45593999997E+02  0.45594000000E+02  0.51100000000E-03 0.  1.
         11   -1    0    0    0    0 -0.00000000000E+00 -0.00000000000E+00 -0.45593999997E+02  0.45594000000E+02  0.51100000000E-03 0. -1.
    9900012    2    1    2    0    0  0.17699307665E+02 -0.31808876291E+02  0.23633740246E+02  0.47787265205E+02  0.19999973375E+02 0.  0.
         12    1    1    2    0    0 -0.17699307665E+02  0.31808876291E+02 -0.23633740246E+02  0.43400734795E+02  0.00000000000E+00 0. -1.
         11    1    3    3    0    0 -0.92400704754E+00  0.20953276866E+01 -0.87562397439E-01  0.22916925127E+01  0.51100000000E-03 0. -1.
        -11    1    3    3    0    0  0.48072705503E+01 -0.67295737812E+01  0.39930335451E+01  0.91837536212E+01  0.51100000000E-03 0.  1.
        -12    1    3    3    0    0  0.13816044162E+02 -0.27174630197E+02  0.19728269099E+02  0.36311819071E+02  0.00000000000E+00 0.  1.
</event>
<event>
 7    1  0.2486105E-010  0.4778727E+02  0.7816164E-02  0.1312668E+00
        -11   -1    0    0    0    0  0.00000000000E+00  0.00000000000E+00  0.45593999997E+02  0.45594000000E+02  0.51100000000E-03 0.  1.
         11   -1    0    0    0    0 -0.00000000000E+00 -0.00000000000E+00 -0.45593999997E+02  0.45594000000E+02  0.51100000000E-03 0. -1.
    9900012    2    1    2    0    0  0.26871698801E+02  0.16397510851E+02  0.29877363302E+02  0.47787269633E+02  0.19999993563E+02 0.  0.
         12    1    1    2    0    0 -0.26871698801E+02 -0.16397510851E+02 -0.29877363302E+02  0.43400730367E+02  0.00000000000E+00 0. -1.
         11    1    3    3    0    0  0.27616912275E+01  0.58699618648E+01  0.44182550257E+01  0.78488450401E+01  0.51100000000E-03 0. -1.
        -11    1    3    3    0    0  0.19488046874E+02  0.70566481044E+01  0.91887548107E+01  0.22671865134E+02  0.51100000000E-03 0.  1.
        -12    1    3    3    0    0  0.46219606996E+01  0.34709008819E+01  0.16270353465E+02  0.17266559458E+02  0.00000000000E+00 0.  1.
</event>
<event>
 7    1  0.2486105E-010  0.4778726E+02  0.7816164E-02  0.1312668E+00
        -11   -1    0    0    0    0  0.00000000000E+00  0.00000000000E+00  0.45593999997E+02  0.45594000000E+02  0.51100000000E-03 0.  1.
         11   -1    0    0    0    0 -0.00000000000E+00 -0.00000000000E+00 -0.45593999997E+02  0.45594000000E+02  0.51100000000E-03 0. -1.
    9900012    2    1    2    0    0 -0.86282928599E+01  0.31172386261E+02  0.28938884931E+02  0.47787260790E+02  0.19999953248E+02 0.  0.
         12    1    1    2    0    0  0.86282928599E+01 -0.31172386261E+02 -0.28938884931E+02  0.43400739210E+02  0.00000000000E+00 0. -1.
         11    1    3    3    0    0  0.20020583220E+01 -0.97220607007E+00 -0.10627462252E+00  0.22281644292E+01  0.51100000000E-03 0. -1.
        -11    1    3    3    0    0 -0.39488771550E+01  0.24426147171E+01  0.42637728507E+01  0.63039477016E+01  0.51100000000E-03 0.  1.
        -12    1    3    3    0    0 -0.66814740269E+01  0.29701977614E+02  0.24781386703E+02  0.39255148660E+02  0.00000000000E+00 0.  1.
</event>
<event>
 7    1  0.2486105E-010  0.4778727E+02  0.7816164E-02  0.1312668E+00
        -11   -1    0    0    0    0  0.00000000000E+00  0.00000000000E+00  0.45593999997E+02  0.45594000000E+02  0.51100000000E-03 0.  1.
         11   -1    0    0    0    0 -0.00000000000E+00 -0.00000000000E+00 -0.45593999997E+02  0.45594000000E+02  0.51100000000E-03 0. -1.
    9900012    2    1    2    0    0  0.14929247544E+02 -0.40104432158E+02  0.72370605913E+01  0.47787274695E+02  0.20000016646E+02 0.  0.
         12    1    1    2    0    0 -0.14929247544E+02  0.40104432158E+02 -0.72370605913E+01  0.43400725305E+02  0.00000000000E+00 0. -1.
         11    1    3    3    0    0 -0.24241999249E+00 -0.32619004875E+00  0.19183647675E+01  0.19609413666E+01  0.51100000000E-03 0. -1.
        -11    1    3    3    0    0 -0.23585714345E+01 -0.47307688905E+01  0.39789321171E+01  0.66162628849E+01  0.51100000000E-03 0.  1.
        -12    1    3    3    0    0  0.17530238971E+02 -0.35047473219E+02  0.13397637066E+01  0.39210070444E+02  0.00000000000E+00 0.  1.
</event>
<event>
 7    1  0.2486105E-010  0.4778727E+02  0.7816164E-02  0.1312668E+00
        -11   -1    0    0    0    0  0.00000000000E+00  0.00000000000E+00  0.45593999997E+02  0.45594000000E+02  0.51100000000E-03 0. -1.
         11   -1    0    0    0    0 -0.00000000000E+00 -0.00000000000E+00 -0.45593999997E+02  0.45594000000E+02  0.51100000000E-03 0.  1.
    9900012    2    1    2    0    0 -0.83702999874E+01  0.97018924497E+00 -0.42574875913E+02  0.47787271342E+02  0.20000001356E+02 0.  0.
         12    1    1    2    0    0  0.83702999874E+01 -0.97018924497E+00  0.42574875913E+02  0.43400728658E+02  0.00000000000E+00 0. -1.
         11    1    3    3    0    0 -0.11327252052E+02 -0.61702237225E+01 -0.21202305508E+02  0.24817656193E+02  0.51100000000E-03 0. -1.
        -11    1    3    3    0    0  0.10917579914E+01  0.66106075781E+00 -0.67206765202E+01  0.68407916199E+01  0.51100000000E-03 0.  1.
         12    1    3    3    0    0  0.18651940734E+01  0.64793522096E+01 -0.14651893885E+02  0.16128823529E+02  0.00000000000E+00 0. -1.
</event>
<event>
 7    1  0.2486105E-010  0.4778727E+02  0.7816164E-02  0.1312668E+00
        -11   -1    0    0    0    0  0.00000000000E+00  0.00000000000E+00  0.45593999997E+02  0.45594000000E+02  0.51100000000E-03 0.  1.
         11   -1    0    0    0    0 -0.00000000000E+00 -0.00000000000E+00 -0.45593999997E+02  0.45594000000E+02  0.51100000000E-03 0. -1.
    9900012    2    1    2    0    0 -0.20919483896E+02 -0.27443448941E+02  0.26322151350E+02  0.47787270191E+02  0.19999996108E+02 0.  0.
         12    1    1    2    0    0  0.20919483896E+02  0.27443448941E+02 -0.26322151350E+02  0.43400729809E+02  0.00000000000E+00 0. -1.
         11    1    3    3    0    0 -0.33264168411E+01  0.28116001483E+00  0.75324582259E+01  0.82390549908E+01  0.51100000000E-03 0. -1.
        -11    1    3    3    0    0 -0.43084878600E+00 -0.30409979372E+00 -0.13454191403E+01  0.14450814113E+01  0.51100000000E-03 0.  1.
        -12    1    3    3    0    0 -0.17162218269E+02 -0.27420509162E+02  0.20135112265E+02  0.38103133789E+02  0.00000000000E+00 0.  1.
</event>
<event>
 7    1  0.2486105E-010  0.4778727E+02  0.7816164E-02  0.1312668E+00
        -11   -1    0    0    0    0  0.00000000000E+00  0.00000000000E+00  0.45593999997E+02  0.45594000000E+02  0.51100000000E-03 0.  1.
         11   -1    0    0    0    0 -0.00000000000E+00 -0.00000000000E+00 -0.45593999997E+02  0.45594000000E+02  0.51100000000E-03 0. -1.
    9900012    2    1    2    0    0  0.41619142367E+02 -0.12253513807E+02  0.11496301304E+01  0.47787271188E+02  0.20000000655E+02 0.  0.
         12    1    1    2    0    0 -0.41619142367E+02  0.12253513807E+02 -0.11496301304E+01  0.43400728812E+02  0.00000000000E+00 0. -1.
         11    1    3    3    0    0  0.28021000420E+02 -0.11113181686E+02 -0.20294776993E+01  0.30212547918E+02  0.51100000000E-03 0. -1.
        -11    1    3    3    0    0  0.12274049902E+02 -0.42178986696E+01  0.32725882556E-01  0.12978599363E+02  0.51100000000E-03 0.  1.
         12    1    3    3    0    0  0.13240920443E+01  0.30775665488E+01  0.31463819471E+01  0.45961239062E+01  0.00000000000E+00 0. -1.
</event>
<event>
 7    1  0.2486105E-010  0.4778726E+02  0.7816164E-02  0.1312668E+00
        -11   -1    0    0    0    0  0.00000000000E+00  0.00000000000E+00  0.45593999997E+02  0.45594000000E+02  0.51100000000E-03 0. -1.
         11   -1    0    0    0    0 -0.00000000000E+00 -0.00000000000E+00 -0.45593999997E+02  0.45594000000E+02  0.51100000000E-03 0.  1.
    9900012    2    1    2    0    0 -0.28222898014E+02 -0.27830908081E+02 -0.17678587666E+02  0.47787264076E+02  0.19999968228E+02 0.  0.
         12    1    1    2    0    0  0.28222898014E+02  0.27830908081E+02  0.17678587666E+02  0.43400735924E+02  0.00000000000E+00 0. -1.
         11    1    3    3    0    0 -0.13744641007E+02 -0.58676499105E+01 -0.10571226557E+02  0.18305608514E+02  0.51100000000E-03 0. -1.
        -11    1    3    3    0    0 -0.13836491809E+01  0.12870940554E+01 -0.85810072018E+00  0.20754356820E+01  0.51100000000E-03 0.  1.
         12    1    3    3    0    0 -0.13094607826E+02 -0.23250352225E+02 -0.62492603891E+01  0.27406219880E+02  0.00000000000E+00 0. -1.
</event>
<event>
 7    1  0.2486105E-010  0.4778727E+02  0.7816164E-02  0.1312668E+00
        -11   -1    0    0    0    0  0.00000000000E+00  0.00000000000E+00  0.45593999997E+02  0.45594000000E+02  0.51100000000E-03 0.  1.
         11   -1    0    0    0    0 -0.00000000000E+00 -0.00000000000E+00 -0.45593999997E+02  0.45594000000E+02  0.51100000000E-03 0. -1.
    9900012    2    1    2    0    0  0.14424898966E+02  0.20126282589E+02  0.35643764813E+02  0.47787274994E+02  0.20000018005E+02 0.  0.
         12    1    1    2    0    0 -0.14424898966E+02 -0.20126282589E+02 -0.35643764813E+02  0.43400725006E+02  0.00000000000E+00 0. -1.
         11    1    3    3    0    0  0.36520217738E+01 -0.15375258912E+01  0.54421356097E+01  0.67318711483E+01  0.51100000000E-03 0. -1.
        -11    1    3    3    0    0  0.22118076936E+01 -0.16637906319E+01  0.17244736189E+01  0.32609970965E+01  0.51100000000E-03 0.  1.
        -12    1    3    3    0    0  0.85610694985E+01  0.23327599112E+02  0.28477155584E+02  0.37794406749E+02  0.00000000000E+00 0.  1.
</event>
<event>
 7    1  0.2486105E-010  0.4778728E+02  0.7816164E-02  0.1312668E+00
        -11   -1    0    0    0    0  0.00000000000E+00  0.00000000000E+00  0.45593999997E+02  0.45594000000E+02  0.51100000000E-03 0.  1.
         11   -1    0    0    0    0 -0.00000000000E+00 -0.00000000000E+00 -0.45593999997E+02  0.45594000000E+02  0.51100000000E-03 0. -1.
    9900012    2    1    2    0    0 -0.28668058879E+02  0.18155194057E+02  0.27058346982E+02  0.47787276359E+02  0.20000024232E+02 0.  0.
         12    1    1    2    0    0  0.28668058879E+02 -0.18155194057E+02 -0.27058346982E+02  0.43400723641E+02  0.00000000000E+00 0. -1.
         11    1    3    3    0    0 -0.23093164794E+00  0.86956627938E+00 -0.57669568797E+00  0.10686688532E+01  0.51100000000E-03 0. -1.
        -11    1    3    3    0    0 -0.20319781972E+02  0.20557704504E+02  0.20720834903E+02  0.35564951191E+02  0.51100000000E-03 0.  1.
         12    1    3    3    0    0 -0.81173452590E+01 -0.32720767257E+01  0.69142077670E+01  0.11153656315E+02  0.00000000000E+00 0. -1.
</event>
<event>
 7    1  0.2486105E-010  0.4778726E+02  0.7816164E-02  0.1312668E+00
        -11   -1    0    0    0    0  0.00000000000E+00  0.00000000000E+00  0.45593999997E+02  0.45594000000E+02  0.51100000000E-03 0. -1.
         11   -1    0    0    0    0 -0.00000000000E+00 -0.00000000000E+00 -0.45593999997E+02  0.45594000000E+02  0.51100000000E-03 0.  1.
    9900012    2    1    2    0    0  0.24592070025E+02  0.30269265487E+02 -0.19042729215E+02  0.47787264094E+02  0.19999968310E+02 0.  0.
         12    1    1    2    0    0 -0.24592070025E+02 -0.30269265487E+02  0.19042729215E+02  0.43400735906E+02  0.00000000000E+00 0. -1.
         11    1    3    3    0    0  0.59418509821E+01  0.53399565566E+01  0.23111624981E+01  0.83163815132E+01  0.51100000000E-03 0. -1.
        -11    1    3    3    0    0 -0.32543010409E+00 -0.98322266979E+00 -0.34170241287E+00  0.10905926697E+01  0.51100000000E-03 0.  1.
        -12    1    3    3    0    0  0.18975649147E+02  0.25912531600E+02 -0.21012189300E+02  0.38380289911E+02  0.00000000000E+00 0.  1.
</event>
<event>
 7    1  0.2486105E-010  0.4778727E+02  0.7816164E-02  0.1312668E+00
        -11   -1    0    0    0    0  0.00000000000E+00  0.00000000000E+00  0.45593999997E+02  0.45594000000E+02  0.51100000000E-03 0.  1.
         11   -1    0    0    0    0 -0.00000000000E+00 -0.00000000000E+00 -0.45593999997E+02  0.45594000000E+02  0.51100000000E-03 0. -1.
    9900012    2    1    2    0    0  0.40270673416E+02  0.59372996647E+00  0.16172303173E+02  0.47787273709E+02  0.20000012147E+02 0.  0.
         12    1    1    2    0    0 -0.40270673416E+02 -0.59372996647E+00 -0.16172303173E+02  0.43400726291E+02  0.00000000000E+00 0. -1.
         11    1    3    3    0    0  0.24778329645E+02 -0.38547579489E+01  0.58269222018E+01  0.25744471279E+02  0.51100000000E-03 0. -1.
        -11    1    3    3    0    0  0.14297211501E+02 -0.61897153674E-01  0.55075716412E+01  0.15321469695E+02  0.51100000000E-03 0.  1.
         12    1    3    3    0    0  0.11951322703E+01  0.45103850690E+01  0.48378093303E+01  0.67213327347E+01  0.00000000000E+00 0. -1.
</event>
<event>
 7    1  0.2486105E-010  0.4778727E+02  0.7816164E-02  0.1312668E+00
        -11   -1    0    0    0    0  0.00000000000E+00  0.00000000000E+00  0.45593999997E+02  0.45594000000E+02  0.51100000000E-03 0. -1.
         11   -1    0    0    0    0 -0.00000000000E+00 -0.00000000000E+00 -0.45593999997E+02  0.45594000000E+02  0.51100000000E-03 0.  1.
    9900012    2    1    2    0    0  0.31602193245E+02 -0.28421350305E+02 -0.87835807487E+01  0.47787273488E+02  0.20000011139E+02 0.  0.
         12    1    1    2    0    0 -0.31602193245E+02  0.28421350305E+02  0.87835807487E+01  0.43400726512E+02  0.00000000000E+00 0. -1.
         11    1    3    3    0    0  0.10155387545E+02 -0.13409908244E+02 -0.85572456406E+01  0.18872837320E+02  0.51100000000E-03 0. -1.
        -11    1    3    3    0    0  0.16280740551E+02 -0.88675931393E+01 -0.54665926281E+01  0.19328226929E+02  0.51100000000E-03 0.  1.
        -12    1    3    3    0    0  0.51660651483E+01 -0.61438489213E+01  0.52402575200E+01  0.95862092383E+01  0.00000000000E+00 0.  1.
</event>
<event>
 7    1  0.2486105E-010  0.4778725E+02  0.7816164E-02  0.1312668E+00
        -11   -1    0    0    0    0  0.00000000000E+00  0.00000000000E+00  0.45593999997E+02  0.45594000000E+02  0.51100000000E-03 0. -1.
         11   -1    0    0    0    0 -0.00000000000E+00 -0.00000000000E+00 -0.45593999997E+02  0.45594000000E+02  0.51100000000E-03 0.  1.
    9900012    2    1    2    0    0 -0.14414376076E+02 -0.11479351534E+02 -0.39294725885E+02  0.47787248490E+02  0.19999897163E+02 0.  0.
         12    1    1    2    0    0  0.14414376076E+02  0.11479351534E+02  0.39294725885E+02  0.43400751510E+02  0.00000000000E+00 0. -1.
         11    1    3    3    0    0 -0.26817445494E+01  0.22955664770E+01 -0.11259213336E+01  0.37052771002E+01  0.51100000000E-03 0.  1.
        -11    1    3    3    0    0 -0.35832145207E-03 -0.37322379376E+01 -0.10476690403E+01  0.38764946576E+01  0.51100000000E-03 0. -1.
        -12    1    3    3    0    0 -0.11732273206E+02 -0.10042680073E+02 -0.37121135511E+02  0.40205476732E+02  0.00000000000E+00 0.  1.
</event>
<event>
 7    1  0.2486105E-010  0.4778729E+02  0.7816164E-02  0.1312668E+00
        -11   -1    0    0    0    0  0.00000000000E+00  0.00000000000E+00  0.45593999997E+02  0.45594000000E+02  0.51100000000E-03 0.  1.
         11   -1    0    0    0    0 -0.00000000000E+00 -0.00000000000E+00 -0.45593999997E+02  0.45594000000E+02  0.51100000000E-03 0. -1.
    9900012    2    1    2    0    0 -0.15328200736E+02  0.31411807372E+01  0.40482103869E+02  0.47787291620E+02  0.20000093812E+02 0.  0.
         12    1    1    2    0    0  0.15328200736E+02 -0.31411807372E+01 -0.40482103869E+02  0.43400708380E+02  0.00000000000E+00 0. -1.
         11    1    3    3    0    0 -0.60332698635E+01  0.66081790850E+01  0.12564678514E+02  0.15425288408E+02  0.51100000000E-03 0. -1.
        -11    1    3    3    0    0 -0.66884254155E+01  0.22841536339E+01  0.23791897212E+02  0.24819483588E+02  0.51100000000E-03 0.  1.
         12    1    3    3    0    0 -0.26065054567E+01 -0.57511519818E+01  0.41255281431E+01  0.75425196236E+01  0.00000000000E+00 0. -1.
</event>
<event>
 7    1  0.2486105E-010  0.4778727E+02  0.7816164E-02  0.1312668E+00
        -11   -1    0    0    0    0  0.00000000000E+00  0.00000000000E+00  0.45593999997E+02  0.45594000000E+02  0.51100000000E-03 0.  1.
         11   -1    0    0    0    0 -0.00000000000E+00 -0.00000000000E+00 -0.45593999997E+02  0.45594000000E+02  0.51100000000E-03 0. -1.
    9900012    2    1    2    0    0  0.34239075251E+01 -0.42745216381E+02  0.66893059739E+01  0.47787268663E+02  0.19999989142E+02 0.  0.
         12    1    1    2    0    0 -0.34239075251E+01  0.42745216381E+02 -0.66893059739E+01  0.43400731337E+02  0.00000000000E+00 0. -1.
         11    1    3    3    0    0  0.21511754984E+01 -0.73808963607E+01  0.46272510230E+01  0.89731064523E+01  0.51100000000E-03 0. -1.
        -11    1    3    3    0    0  0.52229067258E+01 -0.32171951491E+02  0.49573325944E+01  0.32967989992E+02  0.51100000000E-03 0.  1.
         12    1    3    3    0    0 -0.39501746992E+01 -0.31923685292E+01 -0.28952776435E+01  0.58461722189E+01  0.00000000000E+00 0. -1.
</event>
<event>
 7    1  0.2814393E-010  0.4778728E+02  0.7816164E-02  0.1312668E+00
        -11   -1    0    0    0    0  0.00000000000E+00  0.00000000000E+00  0.45593999997E+02  0.45594000000E+02  0.51100000000E-03 0. -1.
         11   -1    0    0    0    0 -0.00000000000E+00 -0.00000000000E+00 -0.45593999997E+02  0.45594000000E+02  0.51100000000E-03 0.  1.
    9900012    2    1    2    0    0 -0.17288400588E+02 -0.26356989773E+02 -0.29833586030E+02  0.47787279266E+02  0.20000037487E+02 0.  0.
         12    1    1    2    0    0  0.17288400588E+02  0.26356989773E+02  0.29833586030E+02  0.43400720734E+02  0.00000000000E+00 0. -1.
         11    1    3    3    0    0  0.56280944535E-01 -0.10343899028E+02 -0.45737380973E+01  0.11310105883E+02  0.51100000000E-03 0. -1.
        -11    1    3    3    0    0 -0.10707853257E+02 -0.15065370991E+02 -0.13315391714E+02  0.22779885452E+02  0.51100000000E-03 0.  1.
        -12    1    3    3    0    0 -0.66368282760E+01 -0.94771975395E+00 -0.11944456218E+02  0.13697287931E+02  0.00000000000E+00 0.  1.
</event>
<event>
 7    1  0.2486105E-010  0.4778727E+02  0.7816164E-02  0.1312668E+00
        -11   -1    0    0    0    0  0.00000000000E+00  0.00000000000E+00  0.45593999997E+02  0.45594000000E+02  0.51100000000E-03 0.  1.
         11   -1    0    0    0    0 -0.00000000000E+00 -0.00000000000E+00 -0.45593999997E+02  0.45594000000E+02  0.51100000000E-03 0. -1.
    9900012    2    1    2    0    0  0.22835562969E+02 -0.35924530012E+02  0.84610140885E+01  0.47787267839E+02  0.19999985385E+02 0.  0.
         12    1    1    2    0    0 -0.22835562969E+02  0.35924530012E+02 -0.84610140885E+01  0.43400732161E+02  0.00000000000E+00 0. -1.
         11    1    3    3    0    0  0.34971511896E+01 -0.39495721515E+01 -0.33919216277E+01  0.62717078386E+01  0.51100000000E-03 0. -1.
        -11    1    3    3    0    0 -0.17193406403E+01 -0.65612796570E+01  0.20944228848E+01  0.70988119045E+01  0.51100000000E-03 0.  1.
         12    1    3    3    0    0  0.21057752420E+02 -0.25413678204E+02  0.97585128315E+01  0.34416748096E+02  0.00000000000E+00 0. -1.
</event>
<event>
 7    1  0.2486105E-010  0.4778727E+02  0.7816164E-02  0.1312668E+00
        -11   -1    0    0    0    0  0.00000000000E+00  0.00000000000E+00  0.45593999997E+02  0.45594000000E+02  0.51100000000E-03 0.  1.
         11   -1    0    0    0    0 -0.00000000000E+00 -0.00000000000E+00 -0.45593999997E+02  0.45594000000E+02  0.51100000000E-03 0. -1.
    9900012    2    1    2    0    0  0.17391294338E+01  0.41714278960E+02 -0.11854020113E+02  0.47787269209E+02  0.19999991633E+02 0.  0.
         12    1    1    2    0    0 -0.17391294338E+01 -0.41714278960E+02  0.11854020113E+02  0.43400730791E+02  0.00000000000E+00 0. -1.
         11    1    3    3    0    0 -0.43300944644E+01  0.54584792037E+01 -0.16790759912E+01  0.71668688933E+01  0.51100000000E-03 0. -1.
        -11    1    3    3    0    0 -0.29149294395E+01  0.23508931115E+02 -0.70480153880E+01  0.24715201334E+02  0.51100000000E-03 0.  1.
        -12    1    3    3    0    0  0.89841533376E+01  0.12746868641E+02 -0.31269287341E+01  0.15905198982E+02  0.00000000000E+00 0.  1.
</event>
<event>
 7    1  0.2486105E-010  0.4778727E+02  0.7816164E-02  0.1312668E+00
        -11   -1    0    0    0    0  0.00000000000E+00  0.00000000000E+00  0.45593999997E+02  0.45594000000E+02  0.51100000000E-03 0.  1.
         11   -1    0    0    0    0 -0.00000000000E+00 -0.00000000000E+00 -0.45593999997E+02  0.45594000000E+02  0.51100000000E-03 0. -1.
    9900012    2    1    2    0    0  0.98294654420E+01  0.42213222322E+02 -0.22469822981E+01  0.47787268910E+02  0.19999990269E+02 0.  0.
         12    1    1    2    0    0 -0.98294654420E+01 -0.42213222322E+02  0.22469822981E+01  0.43400731090E+02  0.00000000000E+00 0. -1.
         11    1    3    3    0    0 -0.11520219972E+01  0.15984766366E+02 -0.35035284286E+01  0.16404713414E+02  0.51100000000E-03 0. -1.
        -11    1    3    3    0    0 -0.30882597828E+01  0.50657024883E+01 -0.95647748297E-01  0.59336193793E+01  0.51100000000E-03 0.  1.
         12    1    3    3    0    0  0.14069747222E+02  0.21162753467E+02  0.13521938789E+01  0.25448936117E+02  0.00000000000E+00 0. -1.
</event>
<event>
 7    1  0.2486105E-010  0.4778727E+02  0.7816164E-02  0.1312668E+00
        -11   -1    0    0    0    0  0.00000000000E+00  0.00000000000E+00  0.45593999997E+02  0.45594000000E+02  0.51100000000E-03 0. -1.
         11   -1    0    0    0    0 -0.00000000000E+00 -0.00000000000E+00 -0.45593999997E+02  0.45594000000E+02  0.51100000000E-03 0.  1.
    9900012    2    1    2    0    0  0.10935065555E+02 -0.34091687273E+02 -0.24531702008E+02  0.47787271859E+02  0.20000003712E+02 0.  0.
         12    1    1    2    0    0 -0.10935065555E+02  0.34091687273E+02  0.24531702008E+02  0.43400728141E+02  0.00000000000E+00 0. -1.
         11    1    3    3    0    0  0.10125487665E+01  0.13289979542E+01  0.11008880850E+01  0.20008611655E+01  0.51100000000E-03 0. -1.
        -11    1    3    3    0    0  0.30045802418E+00 -0.16510876312E+02 -0.88590795186E+01  0.18739866643E+02  0.51100000000E-03 0.  1.
        -12    1    3    3    0    0  0.96220587642E+01 -0.18909808914E+02 -0.16773510575E+02  0.27046544050E+02  0.00000000000E+00 0.  1.
</event>
<event>
 7    1  0.2486105E-010  0.4778727E+02  0.7816164E-02  0.1312668E+00
        -11   -1    0    0    0    0  0.00000000000E+00  0.00000000000E+00  0.45593999997E+02  0.45594000000E+02  0.51100000000E-03 0.  1.
         11   -1    0    0    0    0 -0.00000000000E+00 -0.00000000000E+00 -0.45593999997E+02  0.45594000000E+02  0.51100000000E-03 0. -1.
    9900012    2    1    2    0    0 -0.25836375424E+02  0.62553944168E+00  0.34867083033E+02  0.47787273348E+02  0.20000010503E+02 0.  0.
         12    1    1    2    0    0  0.25836375424E+02 -0.62553944168E+00 -0.34867083033E+02  0.43400726652E+02  0.00000000000E+00 0. -1.
         11    1    3    3    0    0 -0.69452714050E+01 -0.99860907213E+00 -0.28795463664E+00  0.70226015907E+01  0.51100000000E-03 0. -1.
        -11    1    3    3    0    0 -0.34563309796E+01 -0.18424862601E+01  0.12747940033E+02  0.13336077190E+02  0.51100000000E-03 0.  1.
        -12    1    3    3    0    0 -0.15434773040E+02  0.34666347739E+01  0.22407097637E+02  0.27428594568E+02  0.00000000000E+00 0.  1.
</event>
<event>
 7    1  0.2486105E-010  0.4778727E+02  0.7816164E-02  0.1312668E+00
        -11   -1    0    0    0    0  0.00000000000E+00  0.00000000000E+00  0.45593999997E+02  0.45594000000E+02  0.51100000000E-03 0. -1.
         11   -1    0    0    0    0 -0.00000000000E+00 -0.00000000000E+00 -0.45593999997E+02  0.45594000000E+02  0.51100000000E-03 0.  1.
    9900012    2    1    2    0    0  0.25972343519E+02 -0.72343240085E+01 -0.34010661444E+02  0.47787272315E+02  0.20000005793E+02 0.  0.
         12    1    1    2    0    0 -0.25972343519E+02  0.72343240085E+01  0.34010661444E+02  0.43400727685E+02  0.00000000000E+00 0. -1.
         11    1    3    3    0    0  0.18131976301E+00 -0.27386454076E+01 -0.67098135446E+01  0.72494588481E+01  0.51100000000E-03 0. -1.
        -11    1    3    3    0    0  0.17046762986E+02 -0.98200535400E+01 -0.19111693949E+02  0.27427767421E+02  0.51100000000E-03 0.  1.
         12    1    3    3    0    0  0.87442607700E+01  0.53243749392E+01 -0.81891539506E+01  0.13110046046E+02  0.00000000000E+00 0. -1.
</event>
<event>
 7    1  0.2486105E-010  0.4778727E+02  0.7816164E-02  0.1312668E+00
        -11   -1    0    0    0    0  0.00000000000E+00  0.00000000000E+00  0.45593999997E+02  0.45594000000E+02  0.51100000000E-03 0. -1.
         11   -1    0    0    0    0 -0.00000000000E+00 -0.00000000000E+00 -0.45593999997E+02  0.45594000000E+02  0.51100000000E-03 0.  1.
    9900012    2    1    2    0    0 -0.64904785929E+01 -0.33040852038E+02 -0.27382463102E+02  0.47787268424E+02  0.19999988053E+02 0.  0.
         12    1    1    2    0    0  0.64904785929E+01  0.33040852038E+02  0.27382463102E+02  0.43400731576E+02  0.00000000000E+00 0. -1.
         11    1    3    3    0    0 -0.18116532576E+00  0.12507930430E+01 -0.17174965383E+01  0.21323927246E+01  0.51100000000E-03 0. -1.
        -11    1    3    3    0    0 -0.59846254094E+01 -0.60739428575E+01 -0.10797364016E+02  0.13758328135E+02  0.51100000000E-03 0.  1.
        -12    1    3    3    0    0 -0.32468785782E+00 -0.28217702224E+02 -0.14867602548E+02  0.31896547564E+02  0.00000000000E+00 0.  1.
</event>
<event>
 7    1  0.2486105E-010  0.4778727E+02  0.7816164E-02  0.1312668E+00
        -11   -1    0    0    0    0  0.00000000000E+00  0.00000000000E+00  0.45593999997E+02  0.45594000000E+02  0.51100000000E-03 0. -1.
         11   -1    0    0    0    0 -0.00000000000E+00 -0.00000000000E+00 -0.45593999997E+02  0.45594000000E+02  0.51100000000E-03 0.  1.
    9900012    2    1    2    0    0 -0.38189605056E+02 -0.17736127120E+02 -0.10516993343E+02  0.47787270876E+02  0.19999999232E+02 0.  0.
         12    1    1    2    0    0  0.38189605056E+02  0.17736127120E+02  0.10516993343E+02  0.43400729124E+02  0.00000000000E+00 0. -1.
         11    1    3    3    0    0 -0.42562826733E+01  0.10433691876E+01 -0.44851972877E+01  0.62706902672E+01  0.51100000000E-03 0. -1.
        -11    1    3    3    0    0 -0.10145932327E+02 -0.79185712121E+01 -0.82269765708E+01  0.15275040314E+02  0.51100000000E-03 0.  1.
         12    1    3    3    0    0 -0.23787390055E+02 -0.10860925095E+02  0.21951805158E+01  0.26241540295E+02  0.00000000000E+00 0. -1.
</event>
<event>
 7    1  0.2486105E-010  0.4778727E+02  0.7816164E-02  0.1312668E+00
        -11   -1    0    0    0    0  0.00000000000E+00  0.00000000000E+00  0.45593999997E+02  0.45594000000E+02  0.51100000000E-03 0.  1.
         11   -1    0    0    0    0 -0.00000000000E+00 -0.00000000000E+00 -0.45593999997E+02  0.45594000000E+02  0.51100000000E-03 0. -1.
    9900012    2    1    2    0    0  0.10127131250E+02 -0.39674084194E+02  0.14388600946E+02  0.47787267504E+02  0.19999983859E+02 0.  0.
         12    1    1    2    0    0 -0.10127131250E+02  0.39674084194E+02 -0.14388600946E+02  0.43400732496E+02  0.00000000000E+00 0. -1.
         11    1    3    3    0    0  0.47819938589E+01 -0.63497008523E+01  0.49370229215E+00  0.79642895725E+01  0.51100000000E-03 0. -1.
        -11    1    3    3    0    0  0.89682634728E+01 -0.10630575457E+02  0.82041534629E+01  0.16147662944E+02  0.51100000000E-03 0.  1.
         12    1    3    3    0    0 -0.36231260821E+01 -0.22693807885E+02  0.56907451908E+01  0.23675314988E+02  0.00000000000E+00 0. -1.
</event>
<event>
 7    1  0.2486105E-010  0.4778728E+02  0.7816164E-02  0.1312668E+00
        -11   -1    0    0    0    0  0.00000000000E+00  0.00000000000E+00  0.45593999997E+02  0.45594000000E+02  0.51100000000E-03 0.  1.
         11   -1    0    0    0    0 -0.00000000000E+00 -0.00000000000E+00 -0.45593999997E+02  0.45594000000E+02  0.51100000000E-03 0. -1.
    9900012    2    1    2    0    0  0.15566583161E+02  0.26067800146E+02  0.31012481743E+02  0.47787277199E+02  0.20000028060E+02 0.  0.
         12    1    1    2    0    0 -0.15566583161E+02 -0.26067800146E+02 -0.31012481743E+02  0.43400722801E+02  0.00000000000E+00 0. -1.
         11    1    3    3    0    0  0.80052442808E+01  0.18702040913E+02  0.14880556338E+02  0.25204785805E+02  0.51100000000E-03 0. -1.
        -11    1    3    3    0    0  0.51314571537E+01  0.81155135618E+01  0.17298594809E+02  0.19784711156E+02  0.51100000000E-03 0.  1.
         12    1    3    3    0    0  0.24298817268E+01 -0.74975432816E+00 -0.11666694041E+01  0.27977802375E+01  0.00000000000E+00 0. -1.
</event>
<event>
 7    1  0.2486105E-010  0.4778727E+02  0.7816164E-02  0.1312668E+00
        -11   -1    0    0    0    0  0.00000000000E+00  0.00000000000E+00  0.45593999997E+02  0.45594000000E+02  0.51100000000E-03 0.  1.
         11   -1    0    0    0    0 -0.00000000000E+00 -0.00000000000E+00 -0.45593999997E+02  0.45594000000E+02  0.51100000000E-03 0. -1.
    9900012    2    1    2    0    0  0.10465137114E+02 -0.37264753409E+02  0.19632691584E+02  0.47787268205E+02  0.19999987055E+02 0.  0.
         12    1    1    2    0    0 -0.10465137114E+02  0.37264753409E+02 -0.19632691584E+02  0.43400731795E+02  0.00000000000E+00 0. -1.
         11    1    3    3    0    0  0.33048491682E+01 -0.25114877945E+02  0.10889180749E+02  0.27572692648E+02  0.51100000000E-03 0.  1.
        -11    1    3    3    0    0  0.73439566826E+01 -0.13525418681E+02  0.49371221510E+01  0.16163100744E+02  0.51100000000E-03 0. -1.
         12    1    3    3    0    0 -0.18366873667E+00  0.13755432172E+01  0.38063886838E+01  0.40514748129E+01  0.00000000000E+00 0. -1.
</event>
<event>
 7    1  0.2486105E-010  0.4778725E+02  0.7816164E-02  0.1312668E+00
        -11   -1    0    0    0    0  0.00000000000E+00  0.00000000000E+00  0.45593999997E+02  0.45594000000E+02  0.51100000000E-03 0. -1.
         11   -1    0    0    0    0 -0.00000000000E+00 -0.00000000000E+00 -0.45593999997E+02  0.45594000000E+02  0.51100000000E-03 0.  1.
    9900012    2    1    2    0    0  0.14729015448E+02  0.35364681232E+02 -0.20396571418E+02  0.47787254611E+02  0.19999925074E+02 0.  0.
         12    1    1    2    0    0 -0.14729015448E+02 -0.35364681232E+02  0.20396571418E+02  0.43400745389E+02  0.00000000000E+00 0. -1.
         11    1    3    3    0    0  0.12914510267E+01  0.84436295989E+01 -0.88702237617E+01  0.12314365449E+02  0.51100000000E-03 0. -1.
        -11    1    3    3    0    0  0.66604941882E+00  0.16850238378E+02 -0.86625756442E+01  0.18958227034E+02  0.51100000000E-03 0.  1.
        -12    1    3    3    0    0  0.12771515003E+02  0.10070813255E+02 -0.28637720119E+01  0.16514662129E+02  0.00000000000E+00 0.  1.
</event>
<event>
 7    1  0.2486105E-010  0.4778728E+02  0.7816164E-02  0.1312668E+00
        -11   -1    0    0    0    0  0.00000000000E+00  0.00000000000E+00  0.45593999997E+02  0.45594000000E+02  0.51100000000E-03 0.  1.
         11   -1    0    0    0    0 -0.00000000000E+00 -0.00000000000E+00 -0.45593999997E+02  0.45594000000E+02  0.51100000000E-03 0. -1.
    9900012    2    1    2    0    0  0.38380129458E+02 -0.42683034334E+01  0.19808331600E+02  0.47787277055E+02  0.20000027403E+02 0.  0.
         12    1    1    2    0    0 -0.38380129458E+02  0.42683034334E+01 -0.19808331600E+02  0.43400722945E+02  0.00000000000E+00 0. -1.
         11    1    3    3    0    0  0.80178192073E+01  0.17258485156E+00  0.10251514188E+02  0.13015711805E+02  0.51100000000E-03 0.  1.
        -11    1    3    3    0    0  0.17494226916E+02  0.33273929148E+01  0.84183644048E+01  0.19697420606E+02  0.51100000000E-03 0. -1.
        -12    1    3    3    0    0  0.12868083334E+02 -0.77682811999E+01  0.11384530064E+01  0.15074144644E+02  0.00000000000E+00 0.  1.
</event>
<event>
 7    1  0.2486105E-010  0.4778722E+02  0.7816164E-02  0.1312668E+00
        -11   -1    0    0    0    0  0.00000000000E+00  0.00000000000E+00  0.45593999997E+02  0.45594000000E+02  0.51100000000E-03 0.  1.
         11   -1    0    0    0    0 -0.00000000000E+00 -0.00000000000E+00 -0.45593999997E+02  0.45594000000E+02  0.51100000000E-03 0. -1.
    9900012    2    1    2    0    0  0.16824478998E+02  0.21167734872E+02  0.33948370870E+02  0.47787216851E+02  0.19999752910E+02 0.  0.
         12    1    1    2    0    0 -0.16824478998E+02 -0.21167734872E+02 -0.33948370870E+02  0.43400783149E+02  0.00000000000E+00 0. -1.
         11    1    3    3    0    0  0.49383754129E+01  0.13833642078E+01  0.18701370005E+01  0.54588149732E+01  0.51100000000E-03 0. -1.
        -11    1    3    3    0    0  0.65359586522E+01  0.71003860730E+01  0.25106699792E+02  0.26897594922E+02  0.51100000000E-03 0.  1.
         12    1    3    3    0    0  0.53501449326E+01  0.12683984591E+02  0.69715340781E+01  0.15430806956E+02  0.00000000000E+00 0. -1.
</event>
<event>
 7    1  0.2486105E-010  0.4778727E+02  0.7816164E-02  0.1312668E+00
        -11   -1    0    0    0    0  0.00000000000E+00  0.00000000000E+00  0.45593999997E+02  0.45594000000E+02  0.51100000000E-03 0. -1.
         11   -1    0    0    0    0 -0.00000000000E+00 -0.00000000000E+00 -0.45593999997E+02  0.45594000000E+02  0.51100000000E-03 0.  1.
    9900012    2    1    2    0    0  0.33030990438E+02 -0.14912955665E+02 -0.23878451418E+02  0.47787273992E+02  0.20000013437E+02 0.  0.
         12    1    1    2    0    0 -0.33030990438E+02  0.14912955665E+02  0.23878451418E+02  0.43400726008E+02  0.00000000000E+00 0. -1.
         11    1    3    3    0    0  0.13820304081E+02 -0.14713626621E+02 -0.16472352890E+02  0.26054366683E+02  0.51100000000E-03 0. -1.
        -11    1    3    3    0    0  0.38673788984E+01 -0.23603819780E+01  0.64506683430E-01  0.45312453034E+01  0.51100000000E-03 0.  1.
         12    1    3    3    0    0  0.15343307458E+02  0.21610529344E+01 -0.74706052109E+01  0.17201662005E+02  0.00000000000E+00 0. -1.
</event>
<event>
 7    1  0.2486105E-010  0.4778727E+02  0.7816164E-02  0.1312668E+00
        -11   -1    0    0    0    0  0.00000000000E+00  0.00000000000E+00  0.45593999997E+02  0.45594000000E+02  0.51100000000E-03 0.  1.
         11   -1    0    0    0    0 -0.00000000000E+00 -0.00000000000E+00 -0.45593999997E+02  0.45594000000E+02  0.51100000000E-03 0. -1.
    9900012    2    1    2    0    0  0.19048181347E+02 -0.38239877817E+02 -0.76486478193E+01  0.47787270956E+02  0.19999999599E+02 0.  0.
         12    1    1    2    0    0 -0.19048181347E+02  0.38239877817E+02  0.76486478193E+01  0.43400729044E+02  0.00000000000E+00 0. -1.
         11    1    3    3    0    0  0.47258784341E+01 -0.36596313889E+01 -0.52602257522E+00  0.60002940667E+01  0.51100000000E-03 0. -1.
        -11    1    3    3    0    0  0.11392862823E+02 -0.76944229860E+01  0.26797504811E+00  0.13750391968E+02  0.51100000000E-03 0.  1.
         12    1    3    3    0    0  0.29294400894E+01 -0.26885823442E+02 -0.73906002922E+01  0.28036584921E+02  0.00000000000E+00 0. -1.
</event>
<event>
 7    1  0.2486105E-010  0.4778727E+02  0.7816164E-02  0.1312668E+00
        -11   -1    0    0    0    0  0.00000000000E+00  0.00000000000E+00  0.45593999997E+02  0.45594000000E+02  0.51100000000E-03 0. -1.
         11   -1    0    0    0    0 -0.00000000000E+00 -0.00000000000E+00 -0.45593999997E+02  0.45594000000E+02  0.51100000000E-03 0.  1.
    9900012    2    1    2    0    0 -0.31584580175E+02 -0.20687515721E+02 -0.21402436081E+02  0.47787270954E+02  0.19999999587E+02 0.  0.
         12    1    1    2    0    0  0.31584580175E+02  0.20687515721E+02  0.21402436081E+02  0.43400729046E+02  0.00000000000E+00 0. -1.
         11    1    3    3    0    0 -0.30090981309E+01 -0.72191117712E+01  0.47976920497E+00  0.78358423337E+01  0.51100000000E-03 0. -1.
        -11    1    3    3    0    0 -0.39428800110E+00  0.85798619817E+00 -0.29612306729E+01  0.31081329932E+01  0.51100000000E-03 0.  1.
         12    1    3    3    0    0 -0.28181194043E+02 -0.14326390148E+02 -0.18920974613E+02  0.36843295627E+02  0.00000000000E+00 0. -1.
</event>
<event>
 7    1  0.2486105E-010  0.4778727E+02  0.7816164E-02  0.1312668E+00
        -11   -1    0    0    0    0  0.00000000000E+00  0.00000000000E+00  0.45593999997E+02  0.45594000000E+02  0.51100000000E-03 0.  1.
         11   -1    0    0    0    0 -0.00000000000E+00 -0.00000000000E+00 -0.45593999997E+02  0.45594000000E+02  0.51100000000E-03 0. -1.
    9900012    2    1    2    0    0 -0.23246814398E+02  0.18842945045E+02  0.31434891795E+02  0.47787269825E+02  0.19999994438E+02 0.  0.
         12    1    1    2    0    0  0.23246814398E+02 -0.18842945045E+02 -0.31434891795E+02  0.43400730175E+02  0.00000000000E+00 0. -1.
         11    1    3    3    0    0 -0.16144957711E+02  0.79282757138E+01  0.10831074952E+02  0.20995937706E+02  0.51100000000E-03 0. -1.
        -11    1    3    3    0    0 -0.85616045491E+01  0.11871488090E+02  0.15152048211E+02  0.21066985242E+02  0.51100000000E-03 0.  1.
         12    1    3    3    0    0  0.14597478613E+01 -0.95681875943E+00  0.54517686308E+01  0.57243468763E+01  0.00000000000E+00 0. -1.
</event>
<event>
 7    1  0.2486105E-010  0.4778728E+02  0.7816164E-02  0.1312668E+00
        -11   -1    0    0    0    0  0.00000000000E+00  0.00000000000E+00  0.45593999997E+02  0.45594000000E+02  0.51100000000E-03 0.  1.
         11   -1    0    0    0    0 -0.00000000000E+00 -0.00000000000E+00 -0.45593999997E+02  0.45594000000E+02  0.51100000000E-03 0. -1.
    9900012    2    1    2    0    0  0.20146641303E+02 -0.37835262642E+02  0.67991516586E+01  0.47787277445E+02  0.20000029184E+02 0.  0.
         12    1    1    2    0    0 -0.20146641303E+02  0.37835262642E+02 -0.67991516586E+01  0.43400722555E+02  0.00000000000E+00 0. -1.
         11    1    3    3    0    0  0.93055210188E+01 -0.26863343913E+02 -0.26459463542E+01  0.28552285372E+02  0.51100000000E-03 0. -1.
        -11    1    3    3    0    0  0.90486253882E+01 -0.93953459456E+01  0.45960288489E+01  0.13830170942E+02  0.51100000000E-03 0.  1.
        -12    1    3    3    0    0  0.17924948960E+01 -0.15765727836E+01  0.48490691640E+01  0.54048211304E+01  0.00000000000E+00 0.  1.
</event>
<event>
 7    1  0.2486105E-010  0.4778727E+02  0.7816164E-02  0.1312668E+00
        -11   -1    0    0    0    0  0.00000000000E+00  0.00000000000E+00  0.45593999997E+02  0.45594000000E+02  0.51100000000E-03 0.  1.
         11   -1    0    0    0    0 -0.00000000000E+00 -0.00000000000E+00 -0.45593999997E+02  0.45594000000E+02  0.51100000000E-03 0. -1.
    9900012    2    1    2    0    0 -0.11807940797E+02  0.96226576552E+01  0.40639884958E+02  0.47787271255E+02  0.20000000960E+02 0.  0.
         12    1    1    2    0    0  0.11807940797E+02 -0.96226576552E+01 -0.40639884958E+02  0.43400728745E+02  0.00000000000E+00 0. -1.
         11    1    3    3    0    0  0.94945602325E-01 -0.69679835686E+00  0.65910876334E+00  0.96382946653E+00  0.51100000000E-03 0. -1.
        -11    1    3    3    0    0 -0.15858558498E+02  0.31546826914E+01  0.27386214832E+02  0.31803312149E+02  0.51100000000E-03 0.  1.
         12    1    3    3    0    0  0.39556720986E+01  0.71647733207E+01  0.12594561362E+02  0.15020129640E+02  0.00000000000E+00 0. -1.
</event>
<event>
 7    1  0.2486105E-010  0.4778727E+02  0.7816164E-02  0.1312668E+00
        -11   -1    0    0    0    0  0.00000000000E+00  0.00000000000E+00  0.45593999997E+02  0.45594000000E+02  0.51100000000E-03 0.  1.
         11   -1    0    0    0    0 -0.00000000000E+00 -0.00000000000E+00 -0.45593999997E+02  0.45594000000E+02  0.51100000000E-03 0. -1.
    9900012    2    1    2    0    0 -0.25361965305E+02 -0.97378461280E+01  0.33846252271E+02  0.47787265858E+02  0.19999976351E+02 0.  0.
         12    1    1    2    0    0  0.25361965305E+02  0.97378461280E+01 -0.33846252271E+02  0.43400734142E+02  0.00000000000E+00 0. -1.
         11    1    3    3    0    0  0.81044012219E-01 -0.43454724366E+01  0.45586304883E+01  0.62984768809E+01  0.51100000000E-03 0. -1.
        -11    1    3    3    0    0 -0.72336055575E+01 -0.78553017460E+01  0.78483390815E+01  0.13252442850E+02  0.51100000000E-03 0.  1.
        -12    1    3    3    0    0 -0.18209403759E+02  0.24629280545E+01  0.21439282701E+02  0.28236346127E+02  0.00000000000E+00 0.  1.
</event>
<event>
 7    1  0.2486105E-010  0.4778727E+02  0.7816164E-02  0.1312668E+00
        -11   -1    0    0    0    0  0.00000000000E+00  0.00000000000E+00  0.45593999997E+02  0.45594000000E+02  0.51100000000E-03 0. -1.
         11   -1    0    0    0    0 -0.00000000000E+00 -0.00000000000E+00 -0.45593999997E+02  0.45594000000E+02  0.51100000000E-03 0.  1.
    9900012    2    1    2    0    0  0.37370693126E+02  0.18589351745E+02  0.11894972712E+02  0.47787273292E+02  0.20000010246E+02 0.  0.
         12    1    1    2    0    0 -0.37370693126E+02 -0.18589351745E+02 -0.11894972712E+02  0.43400726708E+02  0.00000000000E+00 0. -1.
         11    1    3    3    0    0  0.22434565422E+02  0.11158022432E+02  0.10645165006E+02  0.27223716288E+02  0.51100000000E-03 0. -1.
        -11    1    3    3    0    0  0.34536148028E+01  0.79573414697E+01  0.24304113878E+01  0.90085314145E+01  0.51100000000E-03 0.  1.
        -12    1    3    3    0    0  0.11482512901E+02 -0.52601215702E+00 -0.11806036815E+01  0.11555025589E+02  0.00000000000E+00 0.  1.
</event>
<event>
 7    1  0.2486105E-010  0.4778726E+02  0.7816164E-02  0.1312668E+00
        -11   -1    0    0    0    0  0.00000000000E+00  0.00000000000E+00  0.45593999997E+02  0.45594000000E+02  0.51100000000E-03 0. -1.
         11   -1    0    0    0    0 -0.00000000000E+00 -0.00000000000E+00 -0.45593999997E+02  0.45594000000E+02  0.51100000000E-03 0.  1.
    9900012    2    1    2    0    0 -0.38661106577E+02 -0.54714773918E+01 -0.18947451519E+02  0.47787261001E+02  0.19999954206E+02 0.  0.
         12    1    1    2    0    0  0.38661106577E+02  0.54714773918E+01  0.18947451519E+02  0.43400738999E+02  0.00000000000E+00 0. -1.
         11    1    3    3    0    0 -0.12350030754E+02 -0.69912255474E+01 -0.32632108784E+01  0.14561903714E+02  0.51100000000E-03 0. -1.
        -11    1    3    3    0    0 -0.19105943452E+02 -0.39491936903E+01 -0.14027592147E+02  0.24029285210E+02  0.51100000000E-03 0.  1.
         12    1    3    3    0    0 -0.72051323720E+01  0.54689418459E+01 -0.16566484930E+01  0.91960720767E+01  0.00000000000E+00 0. -1.
</event>
<event>
 7    1  0.2486105E-010  0.4778727E+02  0.7816164E-02  0.1312668E+00
        -11   -1    0    0    0    0  0.00000000000E+00  0.00000000000E+00  0.45593999997E+02  0.45594000000E+02  0.51100000000E-03 0.  1.
         11   -1    0    0    0    0 -0.00000000000E+00 -0.00000000000E+00 -0.45593999997E+02  0.45594000000E+02  0.51100000000E-03 0. -1.
    9900012    2    1    2    0    0  0.33372217273E+02  0.27520233578E+02 -0.35432995846E+01  0.47787272888E+02  0.20000008405E+02 0.  0.
         12    1    1    2    0    0 -0.33372217273E+02 -0.27520233578E+02  0.35432995846E+01  0.43400727112E+02  0.00000000000E+00 0. -1.
         11    1    3    3    0    0  0.26267861207E+01  0.10100132882E+02  0.19798552293E+01  0.10622265132E+02  0.51100000000E-03 0. -1.
        -11    1    3    3    0    0  0.20720929951E+01  0.60926114574E+00 -0.31805415334E+01  0.38445563113E+01  0.51100000000E-03 0.  1.
        -12    1    3    3    0    0  0.28673338157E+02  0.16810839551E+02 -0.23426132805E+01  0.33320451444E+02  0.00000000000E+00 0.  1.
</event>
<event>
 7    1  0.2486105E-010  0.4778727E+02  0.7816164E-02  0.1312668E+00
        -11   -1    0    0    0    0  0.00000000000E+00  0.00000000000E+00  0.45593999997E+02  0.45594000000E+02  0.51100000000E-03 0.  1.
         11   -1    0    0    0    0 -0.00000000000E+00 -0.00000000000E+00 -0.45593999997E+02  0.45594000000E+02  0.51100000000E-03 0. -1.
    9900012    2    1    2    0    0  0.10397336368E+02 -0.33502870085E+02  0.25555356417E+02  0.47787272482E+02  0.20000006553E+02 0.  0.
         12    1    1    2    0    0 -0.10397336368E+02  0.33502870085E+02 -0.25555356417E+02  0.43400727518E+02  0.00000000000E+00 0. -1.
         11    1    3    3    0    0 -0.51682812847E+01 -0.10033578019E+02  0.59540597213E+01  0.12760667958E+02  0.51100000000E-03 0.  1.
        -11    1    3    3    0    0  0.22457827431E+01 -0.22377412560E+01 -0.60552005802E-01  0.31709135694E+01  0.51100000000E-03 0. -1.
         12    1    3    3    0    0  0.13319834910E+02 -0.21231550811E+02  0.19661848701E+02  0.31855690955E+02  0.00000000000E+00 0. -1.
</event>
<event>
 7    1  0.2486105E-010  0.4778728E+02  0.7816164E-02  0.1312668E+00
        -11   -1    0    0    0    0  0.00000000000E+00  0.00000000000E+00  0.45593999997E+02  0.45594000000E+02  0.51100000000E-03 0. -1.
         11   -1    0    0    0    0 -0.00000000000E+00 -0.00000000000E+00 -0.45593999997E+02  0.45594000000E+02  0.51100000000E-03 0.  1.
    9900012    2    1    2    0    0 -0.29250620293E+02  0.23625629804E+02 -0.21676103896E+02  0.47787278217E+02  0.20000032703E+02 0.  0.
         12    1    1    2    0    0  0.29250620293E+02 -0.23625629804E+02  0.21676103896E+02  0.43400721783E+02  0.00000000000E+00 0. -1.
         11    1    3    3    0    0 -0.19008107720E+02  0.60593471038E+01 -0.13093265737E+02  0.23863307699E+02  0.51100000000E-03 0. -1.
        -11    1    3    3    0    0  0.97541579607E+00 -0.15758815466E+00 -0.14777509384E+01  0.17776439742E+01  0.51100000000E-03 0.  1.
        -12    1    3    3    0    0 -0.11217928369E+02  0.17723870854E+02 -0.71050872204E+01  0.22146326543E+02  0.00000000000E+00 0.  1.
</event>
<event>
 7    1  0.2486105E-010  0.4778727E+02  0.7816164E-02  0.1312668E+00
        -11   -1    0    0    0    0  0.00000000000E+00  0.00000000000E+00  0.45593999997E+02  0.45594000000E+02  0.51100000000E-03 0.  1.
         11   -1    0    0    0    0 -0.00000000000E+00 -0.00000000000E+00 -0.45593999997E+02  0.45594000000E+02  0.51100000000E-03 0. -1.
    9900012    2    1    2    0    0  0.43083923767E+01  0.42389666630E+02 -0.82569344315E+01  0.47787273646E+02  0.20000011862E+02 0.  0.
         12    1    1    2    0    0 -0.43083923767E+01 -0.42389666630E+02  0.82569344315E+01  0.43400726354E+02  0.00000000000E+00 0. -1.
         11    1    3    3    0    0 -0.12915017815E+01  0.15635517070E+02 -0.59733404973E+01  0.16787440777E+02  0.51100000000E-03 0. -1.
        -11    1    3    3    0    0 -0.38260618499E+01  0.16607935112E+02 -0.18628731378E+01  0.17144461337E+02  0.51100000000E-03 0.  1.
         12    1    3    3    0    0  0.94259560081E+01  0.10146214448E+02 -0.42072079644E+00  0.13855371531E+02  0.00000000000E+00 0. -1.
</event>
<event>
 7    1  0.2486105E-010  0.4778727E+02  0.7816164E-02  0.1312668E+00
        -11   -1    0    0    0    0  0.00000000000E+00  0.00000000000E+00  0.45593999997E+02  0.45594000000E+02  0.51100000000E-03 0. -1.
         11   -1    0    0    0    0 -0.00000000000E+00 -0.00000000000E+00 -0.45593999997E+02  0.45594000000E+02  0.51100000000E-03 0.  1.
    9900012    2    1    2    0    0  0.62592562798E+01 -0.33870575124E+02 -0.26405097268E+02  0.47787270627E+02  0.19999998096E+02 0.  0.
         12    1    1    2    0    0 -0.62592562798E+01  0.33870575124E+02  0.26405097268E+02  0.43400729373E+02  0.00000000000E+00 0. -1.
         11    1    3    3    0    0 -0.35197827133E+00 -0.14757750597E+02 -0.10792562017E+02  0.18286456369E+02  0.51100000000E-03 0.  1.
        -11    1    3    3    0    0 -0.31256425323E+01 -0.27668620491E+00  0.51932633705E-01  0.31382947209E+01  0.51100000000E-03 0. -1.
         12    1    3    3    0    0  0.97368770834E+01 -0.18836138322E+02 -0.15664467885E+02  0.26362519537E+02  0.00000000000E+00 0. -1.
</event>
<event>
 7    1  0.2486105E-010  0.4778728E+02  0.7816164E-02  0.1312668E+00
        -11   -1    0    0    0    0  0.00000000000E+00  0.00000000000E+00  0.45593999997E+02  0.45594000000E+02  0.51100000000E-03 0.  1.
         11   -1    0    0    0    0 -0.00000000000E+00 -0.00000000000E+00 -0.45593999997E+02  0.45594000000E+02  0.51100000000E-03 0. -1.
    9900012    2    1    2    0    0  0.31724502574E+02  0.11649581361E+00  0.29616976284E+02  0.47787275132E+02  0.20000018636E+02 0.  0.
         12    1    1    2    0    0 -0.31724502574E+02 -0.11649581361E+00 -0.29616976284E+02  0.43400724868E+02  0.00000000000E+00 0. -1.
         11    1    3    3    0    0  0.99577699087E+01 -0.41766183909E+01  0.11175182784E+02  0.15539820889E+02  0.51100000000E-03 0.  1.
        -11    1    3    3    0    0  0.12986540911E+02 -0.42791444453E+01  0.65557849288E+01  0.15163760691E+02  0.51100000000E-03 0. -1.
         12    1    3    3    0    0  0.87801917548E+01  0.85722586498E+01  0.11886008572E+02  0.17083693552E+02  0.00000000000E+00 0. -1.
</event>
<event>
 7    1  0.2486105E-010  0.4778727E+02  0.7816164E-02  0.1312668E+00
        -11   -1    0    0    0    0  0.00000000000E+00  0.00000000000E+00  0.45593999997E+02  0.45594000000E+02  0.51100000000E-03 0.  1.
         11   -1    0    0    0    0 -0.00000000000E+00 -0.00000000000E+00 -0.45593999997E+02  0.45594000000E+02  0.51100000000E-03 0. -1.
    9900012    2    1    2    0    0  0.28835887125E+02 -0.20999672957E+02  0.24721015494E+02  0.47787271232E+02  0.20000000855E+02 0.  0.
         12    1    1    2    0    0 -0.28835887125E+02  0.20999672957E+02 -0.24721015494E+02  0.43400728768E+02  0.00000000000E+00 0. -1.
         11    1    3    3    0    0  0.24218364915E+02 -0.19506411232E+02  0.18526706384E+02  0.36197626000E+02  0.51100000000E-03 0. -1.
        -11    1    3    3    0    0  0.69183969948E+01 -0.31883143405E+00  0.56769113857E+01  0.89550652484E+01  0.51100000000E-03 0.  1.
         12    1    3    3    0    0 -0.23008747856E+01 -0.11744302906E+01  0.51739772463E+00  0.26345799840E+01  0.00000000000E+00 0. -1.
</event>
<event>
 7    1  0.2486105E-010  0.4778727E+02  0.7816164E-02  0.1312668E+00
        -11   -1    0    0    0    0  0.00000000000E+00  0.00000000000E+00  0.45593999997E+02  0.45594000000E+02  0.51100000000E-03 0.  1.
         11   -1    0    0    0    0 -0.00000000000E+00 -0.00000000000E+00 -0.45593999997E+02  0.45594000000E+02  0.51100000000E-03 0. -1.
    9900012    2    1    2    0    0  0.29262154556E+01  0.31115447652E+02  0.30114605415E+02  0.47787270988E+02  0.19999999743E+02 0.  0.
         12    1    1    2    0    0 -0.29262154556E+01 -0.31115447652E+02 -0.30114605415E+02  0.43400729012E+02  0.00000000000E+00 0. -1.
         11    1    3    3    0    0 -0.41788173286E+01  0.12079212026E+00  0.39708436419E+01  0.57658221002E+01  0.51100000000E-03 0. -1.
        -11    1    3    3    0    0  0.93443509550E+00 -0.18582846856E+00  0.15768710448E+00  0.96569490599E+00  0.51100000000E-03 0.  1.
        -12    1    3    3    0    0  0.61705976887E+01  0.31180484000E+02  0.25986074669E+02  0.41055753982E+02  0.00000000000E+00 0.  1.
</event>
<event>
 7    1  0.2486105E-010  0.4778727E+02  0.7816164E-02  0.1312668E+00
        -11   -1    0    0    0    0  0.00000000000E+00  0.00000000000E+00  0.45593999997E+02  0.45594000000E+02  0.51100000000E-03 0.  1.
         11   -1    0    0    0    0 -0.00000000000E+00 -0.00000000000E+00 -0.45593999997E+02  0.45594000000E+02  0.51100000000E-03 0. -1.
    9900012    2    1    2    0    0 -0.27282661651E+02  0.21199641707E+02  0.26265083710E+02  0.47787273537E+02  0.20000011363E+02 0.  0.
         12    1    1    2    0    0  0.27282661651E+02 -0.21199641707E+02 -0.26265083710E+02  0.43400726463E+02  0.00000000000E+00 0. -1.
         11    1    3    3    0    0 -0.15389089497E+01  0.22865420756E+01 -0.92352690438E+00  0.29067881972E+01  0.51100000000E-03 0. -1.
        -11    1    3    3    0    0 -0.13765992185E+02  0.86823866761E+00  0.13237766394E+02  0.19117919306E+02  0.51100000000E-03 0.  1.
        -12    1    3    3    0    0 -0.11977760517E+02  0.18044860963E+02  0.13950844220E+02  0.25762566034E+02  0.00000000000E+00 0.  1.
</event>
<event>
 7    1  0.2486105E-010  0.4778728E+02  0.7816164E-02  0.1312668E+00
        -11   -1    0    0    0    0  0.00000000000E+00  0.00000000000E+00  0.45593999997E+02  0.45594000000E+02  0.51100000000E-03 0.  1.
         11   -1    0    0    0    0 -0.00000000000E+00 -0.00000000000E+00 -0.45593999997E+02  0.45594000000E+02  0.51100000000E-03 0. -1.
    9900012    2    1    2    0    0 -0.11944387246E+02  0.28858046949E+02  0.30135812575E+02  0.47787280421E+02  0.20000042751E+02 0.  0.
         12    1    1    2    0    0  0.11944387246E+02 -0.28858046949E+02 -0.30135812575E+02  0.43400719579E+02  0.00000000000E+00 0. -1.
         11    1    3    3    0    0 -0.35020546385E+01  0.20783511907E+02  0.16824819496E+02  0.26968376021E+02  0.51100000000E-03 0. -1.
        -11    1    3    3    0    0 -0.56796011709E+00  0.77675577879E+01  0.87488636894E+01  0.11713246723E+02  0.51100000000E-03 0.  1.
         12    1    3    3    0    0 -0.78743724906E+01  0.30697725484E+00  0.45621293901E+01  0.91056576769E+01  0.00000000000E+00 0. -1.
</event>
<event>
 7    1  0.2486105E-010  0.4778727E+02  0.7816164E-02  0.1312668E+00
        -11   -1    0    0    0    0  0.00000000000E+00  0.00000000000E+00  0.45593999997E+02  0.45594000000E+02  0.51100000000E-03 0.  1.
         11   -1    0    0    0    0 -0.00000000000E+00 -0.00000000000E+00 -0.45593999997E+02  0.45594000000E+02  0.51100000000E-03 0. -1.
    9900012    2    1    2    0    0  0.59704898696E+00 -0.35767369969E+02  0.24575635225E+02  0.47787273408E+02  0.20000010777E+02 0.  0.
         12    1    1    2    0    0 -0.59704898696E+00  0.35767369969E+02 -0.24575635225E+02  0.43400726592E+02  0.00000000000E+00 0. -1.
         11    1    3    3    0    0 -0.26419374656E+00 -0.14903994627E+02  0.10848894718E+02  0.18436305786E+02  0.51100000000E-03 0. -1.
        -11    1    3    3    0    0  0.54022852316E+01 -0.15971998236E+02  0.14986879808E+02  0.22558722926E+02  0.51100000000E-03 0.  1.
         12    1    3    3    0    0 -0.45410424981E+01 -0.48913771058E+01 -0.12601393008E+01  0.67922446966E+01  0.00000000000E+00 0. -1.
</event>
<event>
 7    1  0.2486105E-010  0.4778727E+02  0.7816164E-02  0.1312668E+00
        -11   -1    0    0    0    0  0.00000000000E+00  0.00000000000E+00  0.45593999997E+02  0.45594000000E+02  0.51100000000E-03 0. -1.
         11   -1    0    0    0    0 -0.00000000000E+00 -0.00000000000E+00 -0.45593999997E+02  0.45594000000E+02  0.51100000000E-03 0.  1.
    9900012    2    1    2    0    0  0.35449950544E+01 -0.43097316767E+02 -0.36982811960E+01  0.47787274358E+02  0.20000015110E+02 0.  0.
         12    1    1    2    0    0 -0.35449950544E+01  0.43097316767E+02  0.36982811960E+01  0.43400725642E+02  0.00000000000E+00 0. -1.
         11    1    3    3    0    0 -0.27687455787E+00 -0.78657363907E+01  0.59211333352E+01  0.98491770582E+01  0.51100000000E-03 0. -1.
        -11    1    3    3    0    0 -0.31151778279E+01 -0.11922173016E+02 -0.22488488557E+01  0.12525967578E+02  0.51100000000E-03 0.  1.
         12    1    3    3    0    0  0.69370474401E+01 -0.23309407360E+02 -0.73705656755E+01  0.25412129722E+02  0.00000000000E+00 0. -1.
</event>
<event>
 7    1  0.2486105E-010  0.4778727E+02  0.7816164E-02  0.1312668E+00
        -11   -1    0    0    0    0  0.00000000000E+00  0.00000000000E+00  0.45593999997E+02  0.45594000000E+02  0.51100000000E-03 0. -1.
         11   -1    0    0    0    0 -0.00000000000E+00 -0.00000000000E+00 -0.45593999997E+02  0.45594000000E+02  0.51100000000E-03 0.  1.
    9900012    2    1    2    0    0  0.37421459329E+02  0.21867479419E+02  0.22518811738E+01  0.47787271396E+02  0.20000001605E+02 0.  0.
         12    1    1    2    0    0 -0.37421459329E+02 -0.21867479419E+02 -0.22518811738E+01  0.43400728604E+02  0.00000000000E+00 0. -1.
         11    1    3    3    0    0  0.39370516500E+01 -0.16179940071E+01  0.27326242337E+01  0.50582127046E+01  0.51100000000E-03 0. -1.
        -11    1    3    3    0    0  0.13571515398E+02  0.25108938931E+01  0.80153045855E-01  0.13802066625E+02  0.51100000000E-03 0.  1.
         12    1    3    3    0    0  0.19912892282E+02  0.20974579533E+02 -0.56089610574E+00  0.28926992067E+02  0.00000000000E+00 0. -1.
</event>
<event>
 7    1  0.2486105E-010  0.4778732E+02  0.7816164E-02  0.1312668E+00
        -11   -1    0    0    0    0  0.00000000000E+00  0.00000000000E+00  0.45593999997E+02  0.45594000000E+02  0.51100000000E-03 0.  1.
         11   -1    0    0    0    0 -0.00000000000E+00 -0.00000000000E+00 -0.45593999997E+02  0.45594000000E+02  0.51100000000E-03 0. -1.
    9900012    2    1    2    0    0 -0.25201991880E+02  0.27699511722E+01  0.35225079461E+02  0.47787317433E+02  0.20000211504E+02 0.  0.
         12    1    1    2    0    0  0.25201991880E+02 -0.27699511722E+01 -0.35225079461E+02  0.43400682567E+02  0.00000000000E+00 0. -1.
         11    1    3    3    0    0 -0.30719703550E+01 -0.41033270649E+01  0.34142861210E+01  0.61588671719E+01  0.51100000000E-03 0. -1.
        -11    1    3    3    0    0 -0.22978559732E+02  0.79809386229E+01  0.32026037878E+02  0.40216622074E+02  0.51100000000E-03 0.  1.
        -12    1    3    3    0    0  0.84853820666E+00 -0.11076603858E+01 -0.21524453793E+00  0.14118281870E+01  0.00000000000E+00 0.  1.
</event>
<event>
 7    1  0.2486105E-010  0.4778727E+02  0.7816164E-02  0.1312668E+00
        -11   -1    0    0    0    0  0.00000000000E+00  0.00000000000E+00  0.45593999997E+02  0.45594000000E+02  0.51100000000E-03 0. -1.
         11   -1    0    0    0    0 -0.00000000000E+00 -0.00000000000E+00 -0.45593999997E+02  0.45594000000E+02  0.51100000000E-03 0.  1.
    9900012    2    1    2    0    0  0.19798072510E+02  0.33512373866E+02 -0.19198453807E+02  0.47787268372E+02  0.19999987814E+02 0.  0.
         12    1    1    2    0    0 -0.19798072510E+02 -0.33512373866E+02  0.19198453807E+02  0.43400731628E+02  0.00000000000E+00 0. -1.
         11    1    3    3    0    0  0.24979960191E+01  0.62711525737E+01 -0.51127720340E+01  0.84680444523E+01  0.51100000000E-03 0. -1.
        -11    1    3    3    0    0 -0.12016613061E+01  0.13531852898E+02 -0.66169965338E+01  0.15110912485E+02  0.51100000000E-03 0.  1.
         12    1    3    3    0    0  0.18501737797E+02  0.13709368395E+02 -0.74686852396E+01  0.24208311435E+02  0.00000000000E+00 0. -1.
</event>
<event>
 7    1  0.2486105E-010  0.4778727E+02  0.7816164E-02  0.1312668E+00
        -11   -1    0    0    0    0  0.00000000000E+00  0.00000000000E+00  0.45593999997E+02  0.45594000000E+02  0.51100000000E-03 0.  1.
         11   -1    0    0    0    0 -0.00000000000E+00 -0.00000000000E+00 -0.45593999997E+02  0.45594000000E+02  0.51100000000E-03 0. -1.
    9900012    2    1    2    0    0  0.29065794815E+02  0.10413960908E+02  0.30501671468E+02  0.47787274518E+02  0.20000015835E+02 0.  0.
         12    1    1    2    0    0 -0.29065794815E+02 -0.10413960908E+02 -0.30501671468E+02  0.43400725482E+02  0.00000000000E+00 0. -1.
         11    1    3    3    0    0  0.12459226290E+01 -0.58507225810E+00 -0.56365571524E+00  0.14873939529E+01  0.51100000000E-03 0. -1.
        -11    1    3    3    0    0  0.61776951555E+01  0.85347549489E+01  0.18122727261E+02  0.20962805230E+02  0.51100000000E-03 0.  1.
         12    1    3    3    0    0  0.21642177031E+02  0.24642782171E+01  0.12942599923E+02  0.25337075335E+02  0.00000000000E+00 0. -1.
</event>
<event>
 7    1  0.2486105E-010  0.4778727E+02  0.7816164E-02  0.1312668E+00
        -11   -1    0    0    0    0  0.00000000000E+00  0.00000000000E+00  0.45593999997E+02  0.45594000000E+02  0.51100000000E-03 0.  1.
         11   -1    0    0    0    0 -0.00000000000E+00 -0.00000000000E+00 -0.45593999997E+02  0.45594000000E+02  0.51100000000E-03 0. -1.
    9900012    2    1    2    0    0 -0.41865072322E+02  0.11085610589E+02 -0.28369430679E+01  0.47787270874E+02  0.19999999223E+02 0.  0.
         12    1    1    2    0    0  0.41865072322E+02 -0.11085610589E+02  0.28369430679E+01  0.43400729126E+02  0.00000000000E+00 0. -1.
         11    1    3    3    0    0 -0.42484219999E+01  0.44789643071E+00  0.32069412467E+01  0.53417387734E+01  0.51100000000E-03 0. -1.
        -11    1    3    3    0    0 -0.13350689230E+02 -0.20394078801E+01  0.25631383087E+01  0.13746627429E+02  0.51100000000E-03 0.  1.
         12    1    3    3    0    0 -0.24265961093E+02  0.12677122039E+02 -0.86070226233E+01  0.28698904672E+02  0.00000000000E+00 0. -1.
</event>
<event>
 7    1  0.2486105E-010  0.4778728E+02  0.7816164E-02  0.1312668E+00
        -11   -1    0    0    0    0  0.00000000000E+00  0.00000000000E+00  0.45593999997E+02  0.45594000000E+02  0.51100000000E-03 0.  1.
         11   -1    0    0    0    0 -0.00000000000E+00 -0.00000000000E+00 -0.45593999997E+02  0.45594000000E+02  0.51100000000E-03 0. -1.
    9900012    2    1    2    0    0 -0.13942064722E+02 -0.80638292526E+01  0.40301558816E+02  0.47787283946E+02  0.20000058825E+02 0.  0.
         12    1    1    2    0    0  0.13942064722E+02  0.80638292526E+01 -0.40301558816E+02  0.43400716054E+02  0.00000000000E+00 0. -1.
         11    1    3    3    0    0  0.10296154620E+01  0.20292248721E+01  0.13318003076E+01  0.26365799630E+01  0.51100000000E-03 0. -1.
        -11    1    3    3    0    0 -0.40039499785E+01 -0.78691645462E+01  0.69647521232E+01  0.11245583066E+02  0.51100000000E-03 0.  1.
        -12    1    3    3    0    0 -0.10967730205E+02 -0.22238895785E+01  0.32005006386E+02  0.33905120918E+02  0.00000000000E+00 0.  1.
</event>
<event>
 7    1  0.2486105E-010  0.4778727E+02  0.7816164E-02  0.1312668E+00
        -11   -1    0    0    0    0  0.00000000000E+00  0.00000000000E+00  0.45593999997E+02  0.45594000000E+02  0.51100000000E-03 0.  1.
         11   -1    0    0    0    0 -0.00000000000E+00 -0.00000000000E+00 -0.45593999997E+02  0.45594000000E+02  0.51100000000E-03 0. -1.
    9900012    2    1    2    0    0 -0.30727950051E+02 -0.30503401601E+02  0.29931421914E+01  0.47787270470E+02  0.19999997379E+02 0.  0.
         12    1    1    2    0    0  0.30727950051E+02  0.30503401601E+02 -0.29931421914E+01  0.43400729530E+02  0.00000000000E+00 0. -1.
         11    1    3    3    0    0 -0.11891002590E+01 -0.80295393972E+00 -0.14679659401E+01  0.20527100910E+01  0.51100000000E-03 0. -1.
        -11    1    3    3    0    0 -0.18284867390E+02 -0.63311620494E+01  0.41742332369E+01  0.19795055235E+02  0.51100000000E-03 0.  1.
         12    1    3    3    0    0 -0.11253982403E+02 -0.23369285612E+02  0.28687489457E+00  0.25939505144E+02  0.00000000000E+00 0. -1.
</event>
<event>
 7    1  0.2486105E-010  0.4778727E+02  0.7816164E-02  0.1312668E+00
        -11   -1    0    0    0    0  0.00000000000E+00  0.00000000000E+00  0.45593999997E+02  0.45594000000E+02  0.51100000000E-03 0.  1.
         11   -1    0    0    0    0 -0.00000000000E+00 -0.00000000000E+00 -0.45593999997E+02  0.45594000000E+02  0.51100000000E-03 0. -1.
    9900012    2    1    2    0    0 -0.22188960464E+02  0.18051794998E+02  0.32640555682E+02  0.47787272536E+02  0.20000006802E+02 0.  0.
         12    1    1    2    0    0  0.22188960464E+02 -0.18051794998E+02 -0.32640555682E+02  0.43400727464E+02  0.00000000000E+00 0. -1.
         11    1    3    3    0    0 -0.77580881943E+01  0.71089564304E+01  0.19390745522E+02  0.22061872226E+02  0.51100000000E-03 0.  1.
        -11    1    3    3    0    0  0.11545327539E+01  0.53524447440E+01  0.28541326691E+01  0.61747618716E+01  0.51100000000E-03 0. -1.
         12    1    3    3    0    0 -0.15585405024E+02  0.55903938241E+01  0.10395677491E+02  0.19550638438E+02  0.00000000000E+00 0. -1.
</event>
<event>
 7    1  0.2486105E-010  0.4778727E+02  0.7816164E-02  0.1312668E+00
        -11   -1    0    0    0    0  0.00000000000E+00  0.00000000000E+00  0.45593999997E+02  0.45594000000E+02  0.51100000000E-03 0.  1.
         11   -1    0    0    0    0 -0.00000000000E+00 -0.00000000000E+00 -0.45593999997E+02  0.45594000000E+02  0.51100000000E-03 0. -1.
    9900012    2    1    2    0    0  0.17529096356E+02 -0.21081941809E+02  0.33643812659E+02  0.47787267060E+02  0.19999981834E+02 0.  0.
         12    1    1    2    0    0 -0.17529096356E+02  0.21081941809E+02 -0.33643812659E+02  0.43400732940E+02  0.00000000000E+00 0. -1.
         11    1    3    3    0    0  0.67432742545E+01 -0.40416842179E+01  0.20164542204E+01  0.81162212188E+01  0.51100000000E-03 0. -1.
        -11    1    3    3    0    0  0.85405611587E+01 -0.23327055764E+01  0.14447330814E+02  0.16944263575E+02  0.51100000000E-03 0.  1.
        -12    1    3    3    0    0  0.22452609425E+01 -0.14707552015E+02  0.17180027625E+02  0.22726782266E+02  0.00000000000E+00 0.  1.
</event>
<event>
 7    1  0.2486105E-010  0.4778727E+02  0.7816164E-02  0.1312668E+00
        -11   -1    0    0    0    0  0.00000000000E+00  0.00000000000E+00  0.45593999997E+02  0.45594000000E+02  0.51100000000E-03 0. -1.
         11   -1    0    0    0    0 -0.00000000000E+00 -0.00000000000E+00 -0.45593999997E+02  0.45594000000E+02  0.51100000000E-03 0.  1.
    9900012    2    1    2    0    0  0.36893072513E+02  0.18224631059E+02 -0.13798090403E+02  0.47787271026E+02  0.19999999916E+02 0.  0.
         12    1    1    2    0    0 -0.36893072513E+02 -0.18224631059E+02  0.13798090403E+02  0.43400728974E+02  0.00000000000E+00 0. -1.
         11    1    3    3    0    0  0.77541693772E+01  0.73120613167E+01  0.40897376316E+01  0.11415749541E+02  0.51100000000E-03 0. -1.
        -11    1    3    3    0    0  0.46324934361E+01 -0.23110952792E+00 -0.15991145211E+01  0.49061771841E+01  0.51100000000E-03 0.  1.
        -12    1    3    3    0    0  0.24506409700E+02  0.11143679270E+02 -0.16288713513E+02  0.31465344301E+02  0.00000000000E+00 0.  1.
</event>
<event>
 7    1  0.2486105E-010  0.4778727E+02  0.7816164E-02  0.1312668E+00
        -11   -1    0    0    0    0  0.00000000000E+00  0.00000000000E+00  0.45593999997E+02  0.45594000000E+02  0.51100000000E-03 0.  1.
         11   -1    0    0    0    0 -0.00000000000E+00 -0.00000000000E+00 -0.45593999997E+02  0.45594000000E+02  0.51100000000E-03 0. -1.
    9900012    2    1    2    0    0 -0.39409913959E+02  0.36846182362E+01  0.17801835682E+02  0.47787273238E+02  0.20000010002E+02 0.  0.
         12    1    1    2    0    0  0.39409913959E+02 -0.36846182362E+01 -0.17801835682E+02  0.43400726762E+02  0.00000000000E+00 0. -1.
         11    1    3    3    0    0 -0.18821389377E+02  0.66262521989E+01  0.38760554774E+01  0.20326724345E+02  0.51100000000E-03 0. -1.
        -11    1    3    3    0    0 -0.60781698718E+01 -0.32899333392E+01 -0.58552082333E+00  0.69361837680E+01  0.51100000000E-03 0.  1.
        -12    1    3    3    0    0 -0.14510354710E+02  0.34829937647E+00  0.14511301028E+02  0.20524365125E+02  0.00000000000E+00 0.  1.
</event>
<event>
 7    1  0.2486105E-010  0.4778727E+02  0.7816164E-02  0.1312668E+00
        -11   -1    0    0    0    0  0.00000000000E+00  0.00000000000E+00  0.45593999997E+02  0.45594000000E+02  0.51100000000E-03 0. -1.
         11   -1    0    0    0    0 -0.00000000000E+00 -0.00000000000E+00 -0.45593999997E+02  0.45594000000E+02  0.51100000000E-03 0.  1.
    9900012    2    1    2    0    0 -0.38991826870E+02 -0.87194301710E+01  0.16947919522E+02  0.47787274184E+02  0.20000014315E+02 0.  0.
         12    1    1    2    0    0  0.38991826870E+02  0.87194301710E+01 -0.16947919522E+02  0.43400725816E+02  0.00000000000E+00 0. -1.
         11    1    3    3    0    0 -0.10895077010E+02 -0.94544086789E+01 -0.68378147625E+00  0.14441471666E+02  0.51100000000E-03 0. -1.
        -11    1    3    3    0    0 -0.39860966516E+01  0.11668189295E+01  0.31955760653E+01  0.52404331482E+01  0.51100000000E-03 0.  1.
         12    1    3    3    0    0 -0.24110653209E+02 -0.43184042163E+00  0.14436124933E+02  0.28105369370E+02  0.00000000000E+00 0. -1.
</event>
<event>
 7    1  0.2486105E-010  0.4778724E+02  0.7816164E-02  0.1312668E+00
        -11   -1    0    0    0    0  0.00000000000E+00  0.00000000000E+00  0.45593999997E+02  0.45594000000E+02  0.51100000000E-03 0.  1.
         11   -1    0    0    0    0 -0.00000000000E+00 -0.00000000000E+00 -0.45593999997E+02  0.45594000000E+02  0.51100000000E-03 0. -1.
    9900012    2    1    2    0    0 -0.34485359218E+02  0.23725471368E+02  0.11466839217E+02  0.47787235103E+02  0.19999836127E+02 0.  0.
         12    1    1    2    0    0  0.34485359218E+02 -0.23725471368E+02 -0.11466839217E+02  0.43400764897E+02  0.00000000000E+00 0. -1.
         11    1    3    3    0    0 -0.67235060399E+01 -0.11109227738E+01  0.28253860350E+01  0.73771599811E+01  0.51100000000E-03 0. -1.
        -11    1    3    3    0    0 -0.17777605502E+02  0.86784275021E+01  0.62163330928E+00  0.19792543786E+02  0.51100000000E-03 0.  1.
        -12    1    3    3    0    0 -0.99842476762E+01  0.16157966640E+02  0.80198198730E+01  0.20617531336E+02  0.00000000000E+00 0.  1.
</event>
<event>
 7    1  0.2486105E-010  0.4778727E+02  0.7816164E-02  0.1312668E+00
        -11   -1    0    0    0    0  0.00000000000E+00  0.00000000000E+00  0.45593999997E+02  0.45594000000E+02  0.51100000000E-03 0.  1.
         11   -1    0    0    0    0 -0.00000000000E+00 -0.00000000000E+00 -0.45593999997E+02  0.45594000000E+02  0.51100000000E-03 0. -1.
    9900012    2    1    2    0    0  0.33999322855E+01 -0.72912858826E+01  0.42648574528E+02  0.47787270759E+02  0.19999998700E+02 0.  0.
         12    1    1    2    0    0 -0.33999322855E+01  0.72912858826E+01 -0.42648574528E+02  0.43400729241E+02  0.00000000000E+00 0. -1.
         11    1    3    3    0    0  0.92491281887E-01  0.13498767892E+01 -0.82389319200E+00  0.15841471637E+01  0.51100000000E-03 0. -1.
        -11    1    3    3    0    0  0.32695327941E+01  0.49431846492E+00  0.22965895155E+01  0.40259805142E+01  0.51100000000E-03 0.  1.
        -12    1    3    3    0    0  0.37908209474E-01 -0.91354811367E+01  0.41175878204E+02  0.42177143082E+02  0.00000000000E+00 0.  1.
</event>
<event>
 7    1  0.2486105E-010  0.4778727E+02  0.7816164E-02  0.1312668E+00
        -11   -1    0    0    0    0  0.00000000000E+00  0.00000000000E+00  0.45593999997E+02  0.45594000000E+02  0.51100000000E-03 0.  1.
         11   -1    0    0    0    0 -0.00000000000E+00 -0.00000000000E+00 -0.45593999997E+02  0.45594000000E+02  0.51100000000E-03 0. -1.
    9900012    2    1    2    0    0 -0.38553141147E+02  0.74563875028E+01  0.18484617712E+02  0.47787268452E+02  0.19999988181E+02 0.  0.
         12    1    1    2    0    0  0.38553141147E+02 -0.74563875028E+01 -0.18484617712E+02  0.43400731548E+02  0.00000000000E+00 0. -1.
         11    1    3    3    0    0  0.84738894846E+00  0.32186135224E+01  0.86883111823E+00  0.34398268575E+01  0.51100000000E-03 0. -1.
        -11    1    3    3    0    0  0.30654835531E+00 -0.26789955804E+00  0.97992007823E+00  0.10611247279E+01  0.51100000000E-03 0.  1.
        -12    1    3    3    0    0 -0.39707078451E+02  0.45056735384E+01  0.16635866516E+02  0.43286316867E+02  0.00000000000E+00 0.  1.
</event>
<event>
 7    1  0.2486105E-010  0.4778727E+02  0.7816164E-02  0.1312668E+00
        -11   -1    0    0    0    0  0.00000000000E+00  0.00000000000E+00  0.45593999997E+02  0.45594000000E+02  0.51100000000E-03 0.  1.
         11   -1    0    0    0    0 -0.00000000000E+00 -0.00000000000E+00 -0.45593999997E+02  0.45594000000E+02  0.51100000000E-03 0. -1.
    9900012    2    1    2    0    0  0.10781009424E+02 -0.98271823357E+01  0.40875658491E+02  0.47787272656E+02  0.20000007349E+02 0.  0.
         12    1    1    2    0    0 -0.10781009424E+02  0.98271823357E+01 -0.40875658491E+02  0.43400727344E+02  0.00000000000E+00 0. -1.
         11    1    3    3    0    0  0.98724668035E+01 -0.75331887011E+00  0.11584870365E+02  0.15239498409E+02  0.51100000000E-03 0.  1.
        -11    1    3    3    0    0  0.11347598553E+01  0.23458376236E+01  0.75857385999E+01  0.80208518533E+01  0.51100000000E-03 0. -1.
         12    1    3    3    0    0 -0.22621723469E+00 -0.11419701089E+02  0.21705049526E+02  0.24526922394E+02  0.00000000000E+00 0. -1.
</event>
<event>
 7    1  0.2486105E-010  0.4778727E+02  0.7816164E-02  0.1312668E+00
        -11   -1    0    0    0    0  0.00000000000E+00  0.00000000000E+00  0.45593999997E+02  0.45594000000E+02  0.51100000000E-03 0.  1.
         11   -1    0    0    0    0 -0.00000000000E+00 -0.00000000000E+00 -0.45593999997E+02  0.45594000000E+02  0.51100000000E-03 0. -1.
    9900012    2    1    2    0    0 -0.26979682151E+02 -0.16219288766E+02  0.29877335491E+02  0.47787265524E+02  0.19999974828E+02 0.  0.
         12    1    1    2    0    0  0.26979682151E+02  0.16219288766E+02 -0.29877335491E+02  0.43400734476E+02  0.00000000000E+00 0. -1.
         11    1    3    3    0    0 -0.12756872710E+02 -0.27428713355E+01  0.89405077358E+01  0.15817516346E+02  0.51100000000E-03 0. -1.
        -11    1    3    3    0    0 -0.14421497785E+01  0.22965249273E+01  0.65460154395E+01  0.70854880651E+01  0.51100000000E-03 0.  1.
         12    1    3    3    0    0 -0.12780659662E+02 -0.15772942358E+02  0.14390812316E+02  0.24884261113E+02  0.00000000000E+00 0. -1.
</event>
<event>
 7    1  0.2486105E-010  0.4778727E+02  0.7816164E-02  0.1312668E+00
        -11   -1    0    0    0    0  0.00000000000E+00  0.00000000000E+00  0.45593999997E+02  0.45594000000E+02  0.51100000000E-03 0.  1.
         11   -1    0    0    0    0 -0.00000000000E+00 -0.00000000000E+00 -0.45593999997E+02  0.45594000000E+02  0.51100000000E-03 0. -1.
    9900012    2    1    2    0    0  0.14853389934E+02 -0.26349690618E+02  0.31123843447E+02  0.47787273980E+02  0.20000013383E+02 0.  0.
         12    1    1    2    0    0 -0.14853389934E+02  0.26349690618E+02 -0.31123843447E+02  0.43400726020E+02  0.00000000000E+00 0. -1.
         11    1    3    3    0    0  0.51279349952E+01 -0.59073605829E+01  0.48959413103E+01  0.92283729848E+01  0.51100000000E-03 0. -1.
        -11    1    3    3    0    0 -0.34753112528E+01 -0.12192484356E+02  0.11056508567E+02  0.16822034509E+02  0.51100000000E-03 0.  1.
        -12    1    3    3    0    0  0.13200766191E+02 -0.82498456789E+01  0.15171393569E+02  0.21736866485E+02  0.00000000000E+00 0.  1.
</event>
<event>
 7    1  0.2486105E-010  0.4778727E+02  0.7816164E-02  0.1312668E+00
        -11   -1    0    0    0    0  0.00000000000E+00  0.00000000000E+00  0.45593999997E+02  0.45594000000E+02  0.51100000000E-03 0.  1.
         11   -1    0    0    0    0 -0.00000000000E+00 -0.00000000000E+00 -0.45593999997E+02  0.45594000000E+02  0.51100000000E-03 0. -1.
    9900012    2    1    2    0    0  0.32927540318E+01 -0.24650022939E+02  0.35569055854E+02  0.47787267352E+02  0.19999983166E+02 0.  0.
         12    1    1    2    0    0 -0.32927540318E+01  0.24650022939E+02 -0.35569055854E+02  0.43400732648E+02  0.00000000000E+00 0. -1.
         11    1    3    3    0    0 -0.15064497148E+01 -0.53245932494E+01  0.17322521346E+01  0.57983947549E+01  0.51100000000E-03 0. -1.
        -11    1    3    3    0    0 -0.30443998850E+01 -0.13159993430E+02  0.12365149417E+02  0.18312583600E+02  0.51100000000E-03 0.  1.
        -12    1    3    3    0    0  0.78436036317E+01 -0.61654362593E+01  0.21471654303E+02  0.23676288998E+02  0.00000000000E+00 0.  1.
</event>
<event>
 7    1  0.2486105E-010  0.4778727E+02  0.7816164E-02  0.1312668E+00
        -11   -1    0    0    0    0  0.00000000000E+00  0.00000000000E+00  0.45593999997E+02  0.45594000000E+02  0.51100000000E-03 0.  1.
         11   -1    0    0    0    0 -0.00000000000E+00 -0.00000000000E+00 -0.45593999997E+02  0.45594000000E+02  0.51100000000E-03 0. -1.
    9900012    2    1    2    0    0 -0.62554342177E+00  0.10052572470E+02  0.42215851696E+02  0.47787266685E+02  0.19999980125E+02 0.  0.
         12    1    1    2    0    0  0.62554342177E+00 -0.10052572470E+02 -0.42215851696E+02  0.43400733315E+02  0.00000000000E+00 0. -1.
         11    1    3    3    0    0  0.33108978300E+01 -0.56358600082E+00  0.86483901788E+01  0.92776250499E+01  0.51100000000E-03 0. -1.
        -11    1    3    3    0    0 -0.46407475262E+01  0.17739572485E+01  0.14291672695E+01  0.51697177164E+01  0.51100000000E-03 0.  1.
         12    1    3    3    0    0  0.70430627445E+00  0.88422012223E+01  0.32138294248E+02  0.33339923919E+02  0.00000000000E+00 0. -1.
</event>
<event>
 7    1  0.2486105E-010  0.4778727E+02  0.7816164E-02  0.1312668E+00
        -11   -1    0    0    0    0  0.00000000000E+00  0.00000000000E+00  0.45593999997E+02  0.45594000000E+02  0.51100000000E-03 0.  1.
         11   -1    0    0    0    0 -0.00000000000E+00 -0.00000000000E+00 -0.45593999997E+02  0.45594000000E+02  0.51100000000E-03 0. -1.
    9900012    2    1    2    0    0 -0.61534652574E+01 -0.36521571298E+02  0.22625945101E+02  0.47787266176E+02  0.19999977803E+02 0.  0.
         12    1    1    2    0    0  0.61534652574E+01  0.36521571298E+02 -0.22625945101E+02  0.43400733824E+02  0.00000000000E+00 0. -1.
         11    1    3    3    0    0  0.76985505458E+00 -0.11718669085E+02  0.10756017145E+02  0.15925193468E+02  0.51100000000E-03 0. -1.
        -11    1    3    3    0    0 -0.73428557568E+01 -0.23655609020E+02  0.14683828322E+02  0.28794447090E+02  0.51100000000E-03 0.  1.
         12    1    3    3    0    0  0.41953544478E+00 -0.11472931933E+01 -0.28139003659E+01  0.30676256176E+01  0.00000000000E+00 0. -1.
</event>
<event>
 7    1  0.2486105E-010  0.4778728E+02  0.7816164E-02  0.1312668E+00
        -11   -1    0    0    0    0  0.00000000000E+00  0.00000000000E+00  0.45593999997E+02  0.45594000000E+02  0.51100000000E-03 0.  1.
         11   -1    0    0    0    0 -0.00000000000E+00 -0.00000000000E+00 -0.45593999997E+02  0.45594000000E+02  0.51100000000E-03 0. -1.
    9900012    2    1    2    0    0  0.37438554450E+02 -0.16016506627E+02  0.15014946841E+02  0.47787280277E+02  0.20000042095E+02 0.  0.
         12    1    1    2    0    0 -0.37438554450E+02  0.16016506627E+02 -0.15014946841E+02  0.43400719723E+02  0.00000000000E+00 0. -1.
         11    1    3    3    0    0  0.10606976082E+02 -0.10648435618E+02  0.50493689408E+01  0.15855385510E+02  0.51100000000E-03 0. -1.
        -11    1    3    3    0    0  0.12500408815E+02 -0.35602087173E+01 -0.20308052464E+01  0.13155207215E+02  0.51100000000E-03 0.  1.
         12    1    3    3    0    0  0.14331169553E+02 -0.18078622913E+01  0.11996383147E+02  0.18776687552E+02  0.00000000000E+00 0. -1.
</event>
<event>
 7    1  0.2486105E-010  0.4778727E+02  0.7816164E-02  0.1312668E+00
        -11   -1    0    0    0    0  0.00000000000E+00  0.00000000000E+00  0.45593999997E+02  0.45594000000E+02  0.51100000000E-03 0.  1.
         11   -1    0    0    0    0 -0.00000000000E+00 -0.00000000000E+00 -0.45593999997E+02  0.45594000000E+02  0.51100000000E-03 0. -1.
    9900012    2    1    2    0    0 -0.74658015375E+01  0.19469260575E+02  0.38063539942E+02  0.47787269904E+02  0.19999994800E+02 0.  0.
         12    1    1    2    0    0  0.74658015375E+01 -0.19469260575E+02 -0.38063539942E+02  0.43400730096E+02  0.00000000000E+00 0. -1.
         11    1    3    3    0    0 -0.48462996723E+01 -0.53503501068E+00  0.23382495799E+01  0.54074295497E+01  0.51100000000E-03 0. -1.
        -11    1    3    3    0    0 -0.36683546088E+01  0.19532242541E+01  0.10917999744E+02  0.11682235625E+02  0.51100000000E-03 0.  1.
        -12    1    3    3    0    0  0.10488527436E+01  0.18051071331E+02  0.24807290619E+02  0.30697604729E+02  0.00000000000E+00 0.  1.
</event>
<event>
 7    1  0.2486105E-010  0.4778727E+02  0.7816164E-02  0.1312668E+00
        -11   -1    0    0    0    0  0.00000000000E+00  0.00000000000E+00  0.45593999997E+02  0.45594000000E+02  0.51100000000E-03 0. -1.
         11   -1    0    0    0    0 -0.00000000000E+00 -0.00000000000E+00 -0.45593999997E+02  0.45594000000E+02  0.51100000000E-03 0.  1.
    9900012    2    1    2    0    0  0.96579934351E+01 -0.38954902869E+02 -0.16518548649E+02  0.47787265626E+02  0.19999975294E+02 0.  0.
         12    1    1    2    0    0 -0.96579934351E+01  0.38954902869E+02  0.16518548649E+02  0.43400734374E+02  0.00000000000E+00 0. -1.
         11    1    3    3    0    0  0.97072162363E+00 -0.10286615898E+02 -0.83949120116E+01  0.13312825209E+02  0.51100000000E-03 0. -1.
        -11    1    3    3    0    0 -0.20573751821E+01 -0.18770364469E+02 -0.50388540363E+01  0.19543526427E+02  0.51100000000E-03 0.  1.
         12    1    3    3    0    0  0.10744646994E+02 -0.98979225024E+01 -0.30847826009E+01  0.14930913990E+02  0.00000000000E+00 0. -1.
</event>
<event>
 7    1  0.2486105E-010  0.4778727E+02  0.7816164E-02  0.1312668E+00
        -11   -1    0    0    0    0  0.00000000000E+00  0.00000000000E+00  0.45593999997E+02  0.45594000000E+02  0.51100000000E-03 0. -1.
         11   -1    0    0    0    0 -0.00000000000E+00 -0.00000000000E+00 -0.45593999997E+02  0.45594000000E+02  0.51100000000E-03 0.  1.
    9900012    2    1    2    0    0 -0.29418805144E+02  0.31650147911E+02 -0.40528535281E+01  0.47787267510E+02  0.19999983886E+02 0.  0.
         12    1    1    2    0    0  0.29418805144E+02 -0.31650147911E+02  0.40528535281E+01  0.43400732490E+02  0.00000000000E+00 0. -1.
         11    1    3    3    0    0 -0.12369911767E+02  0.60241710122E+01  0.22190420405E+01  0.13936624460E+02  0.51100000000E-03 0. -1.
        -11    1    3    3    0    0 -0.17898256502E+01  0.67257235684E+01  0.33489968025E+01  0.77236398946E+01  0.51100000000E-03 0.  1.
        -12    1    3    3    0    0 -0.15259067727E+02  0.18900253331E+02 -0.96208923711E+01  0.26127003155E+02  0.00000000000E+00 0.  1.
</event>
<event>
 7    1  0.2486105E-010  0.4778727E+02  0.7816164E-02  0.1312668E+00
        -11   -1    0    0    0    0  0.00000000000E+00  0.00000000000E+00  0.45593999997E+02  0.45594000000E+02  0.51100000000E-03 0.  1.
         11   -1    0    0    0    0 -0.00000000000E+00 -0.00000000000E+00 -0.45593999997E+02  0.45594000000E+02  0.51100000000E-03 0. -1.
    9900012    2    1    2    0    0  0.57482975174E+01 -0.35437084691E+01  0.42872163920E+02  0.47787271512E+02  0.20000002132E+02 0.  0.
         12    1    1    2    0    0 -0.57482975174E+01  0.35437084691E+01 -0.42872163920E+02  0.43400728488E+02  0.00000000000E+00 0. -1.
         11    1    3    3    0    0  0.37150762236E+01 -0.80757952913E+00  0.24461386688E+01  0.45207931485E+01  0.51100000000E-03 0. -1.
        -11    1    3    3    0    0  0.10688779058E+01  0.48513361790E+01  0.50908463766E+01  0.71129937291E+01  0.51100000000E-03 0.  1.
        -12    1    3    3    0    0  0.96434338808E+00 -0.75874651189E+01  0.35335178875E+02  0.36153484635E+02  0.00000000000E+00 0.  1.
</event>
<event>
 7    1  0.2486105E-010  0.4778727E+02  0.7816164E-02  0.1312668E+00
        -11   -1    0    0    0    0  0.00000000000E+00  0.00000000000E+00  0.45593999997E+02  0.45594000000E+02  0.51100000000E-03 0.  1.
         11   -1    0    0    0    0 -0.00000000000E+00 -0.00000000000E+00 -0.45593999997E+02  0.45594000000E+02  0.51100000000E-03 0. -1.
    9900012    2    1    2    0    0  0.29189180492E+02 -0.12387576520E+02  0.29633813182E+02  0.47787271969E+02  0.20000004218E+02 0.  0.
         12    1    1    2    0    0 -0.29189180492E+02  0.12387576520E+02 -0.29633813182E+02  0.43400728031E+02  0.00000000000E+00 0. -1.
         11    1    3    3    0    0  0.41878423908E+01 -0.38494685553E+01  0.59004606865E+01  0.81958445949E+01  0.51100000000E-03 0. -1.
        -11    1    3    3    0    0  0.41821458203E+01 -0.37419827262E+01 -0.21677830369E+01  0.60159838715E+01  0.51100000000E-03 0.  1.
        -12    1    3    3    0    0  0.20819192281E+02 -0.47961252382E+01  0.25901135533E+02  0.33575443503E+02  0.00000000000E+00 0.  1.
</event>
<event>
 7    1  0.2486105E-010  0.4778726E+02  0.7816164E-02  0.1312668E+00
        -11   -1    0    0    0    0  0.00000000000E+00  0.00000000000E+00  0.45593999997E+02  0.45594000000E+02  0.51100000000E-03 0.  1.
         11   -1    0    0    0    0 -0.00000000000E+00 -0.00000000000E+00 -0.45593999997E+02  0.45594000000E+02  0.51100000000E-03 0. -1.
    9900012    2    1    2    0    0 -0.36733903552E+02 -0.20741901240E+02  0.10198910106E+02  0.47787263778E+02  0.19999966870E+02 0.  0.
         12    1    1    2    0    0  0.36733903552E+02  0.20741901240E+02 -0.10198910106E+02  0.43400736222E+02  0.00000000000E+00 0. -1.
         11    1    3    3    0    0 -0.64847909688E+01 -0.23019300958E+01  0.67875676077E+01  0.96655300095E+01  0.51100000000E-03 0. -1.
        -11    1    3    3    0    0 -0.11981315998E+02 -0.11478572461E+01  0.47320392832E+01  0.12932969703E+02  0.51100000000E-03 0.  1.
        -12    1    3    3    0    0 -0.18267796586E+02 -0.17292113898E+02 -0.13206967850E+01  0.25188764066E+02  0.00000000000E+00 0.  1.
</event>
<event>
 7    1  0.2486105E-010  0.4778727E+02  0.7816164E-02  0.1312668E+00
        -11   -1    0    0    0    0  0.00000000000E+00  0.00000000000E+00  0.45593999997E+02  0.45594000000E+02  0.51100000000E-03 0. -1.
         11   -1    0    0    0    0 -0.00000000000E+00 -0.00000000000E+00 -0.45593999997E+02  0.45594000000E+02  0.51100000000E-03 0.  1.
    9900012    2    1    2    0    0  0.23972431406E+02  0.35822870815E+02  0.50663429815E+01  0.47787269912E+02  0.19999994838E+02 0.  0.
         12    1    1    2    0    0 -0.23972431406E+02 -0.35822870815E+02 -0.50663429815E+01  0.43400730088E+02  0.00000000000E+00 0. -1.
         11    1    3    3    0    0  0.10713338972E+02  0.77984538081E+01 -0.11930735713E+01  0.13304696108E+02  0.51100000000E-03 0. -1.
        -11    1    3    3    0    0  0.11225503166E+02  0.14978011965E+02  0.93480327536E+01  0.20922200658E+02  0.51100000000E-03 0.  1.
         12    1    3    3    0    0  0.20335892682E+01  0.13046405042E+02 -0.30886162008E+01  0.13560373146E+02  0.00000000000E+00 0. -1.
</event>
<event>
 7    1  0.2486105E-010  0.4778727E+02  0.7816164E-02  0.1312668E+00
        -11   -1    0    0    0    0  0.00000000000E+00  0.00000000000E+00  0.45593999997E+02  0.45594000000E+02  0.51100000000E-03 0. -1.
         11   -1    0    0    0    0 -0.00000000000E+00 -0.00000000000E+00 -0.45593999997E+02  0.45594000000E+02  0.51100000000E-03 0.  1.
    9900012    2    1    2    0    0 -0.34552810696E+02  0.25477759968E+02 -0.63726031331E+01  0.47787273616E+02  0.20000011727E+02 0.  0.
         12    1    1    2    0    0  0.34552810696E+02 -0.25477759968E+02  0.63726031331E+01  0.43400726384E+02  0.00000000000E+00 0. -1.
         11    1    3    3    0    0 -0.12016730015E+02  0.41686296720E+01 -0.49378104089E+01  0.13644091963E+02  0.51100000000E-03 0. -1.
        -11    1    3    3    0    0 -0.63680151259E+01  0.91292123505E+01 -0.70009163719E+01  0.13149409306E+02  0.51100000000E-03 0.  1.
        -12    1    3    3    0    0 -0.16168065555E+02  0.12179917945E+02  0.55661236477E+01  0.20993772348E+02  0.00000000000E+00 0.  1.
</event>
<event>
 7    1  0.2486105E-010  0.4778726E+02  0.7816164E-02  0.1312668E+00
        -11   -1    0    0    0    0  0.00000000000E+00  0.00000000000E+00  0.45593999997E+02  0.45594000000E+02  0.51100000000E-03 0.  1.
         11   -1    0    0    0    0 -0.00000000000E+00 -0.00000000000E+00 -0.45593999997E+02  0.45594000000E+02  0.51100000000E-03 0. -1.
    9900012    2    1    2    0    0 -0.12992781762E+02 -0.14772574030E+02  0.38685688793E+02  0.47787264536E+02  0.19999970326E+02 0.  0.
         12    1    1    2    0    0  0.12992781762E+02  0.14772574030E+02 -0.38685688793E+02  0.43400735464E+02  0.00000000000E+00 0. -1.
         11    1    3    3    0    0 -0.23239175279E+01 -0.68455135151E+01  0.28740401192E+02  0.29635659414E+02  0.51100000000E-03 0. -1.
        -11    1    3    3    0    0 -0.57745571025E+01 -0.45513145305E+01  0.97385527823E+01  0.12202433538E+02  0.51100000000E-03 0.  1.
         12    1    3    3    0    0 -0.48943071320E+01 -0.33757459843E+01  0.20673481867E+00  0.59491715842E+01  0.00000000000E+00 0. -1.
</event>
<event>
 7    1  0.2486105E-010  0.4778726E+02  0.7816164E-02  0.1312668E+00
        -11   -1    0    0    0    0  0.00000000000E+00  0.00000000000E+00  0.45593999997E+02  0.45594000000E+02  0.51100000000E-03 0. -1.
         11   -1    0    0    0    0 -0.00000000000E+00 -0.00000000000E+00 -0.45593999997E+02  0.45594000000E+02  0.51100000000E-03 0.  1.
    9900012    2    1    2    0    0 -0.19409206757E+02 -0.65672221001E+01 -0.38259362562E+02  0.47787256496E+02  0.19999933668E+02 0.  0.
         12    1    1    2    0    0  0.19409206757E+02  0.65672221001E+01  0.38259362562E+02  0.43400743504E+02  0.00000000000E+00 0. -1.
         11    1    3    3    0    0  0.17071919716E+01 -0.32261739676E+01 -0.99538427016E+01  0.10601966218E+02  0.51100000000E-03 0. -1.
        -11    1    3    3    0    0 -0.10270506490E+02 -0.49345972668E+01 -0.74193952670E+01  0.13597094547E+02  0.51100000000E-03 0.  1.
        -12    1    3    3    0    0 -0.10845892239E+02  0.15935491343E+01 -0.20886124593E+02  0.23588195731E+02  0.00000000000E+00 0.  1.
</event>
<event>
 7    1  0.2486105E-010  0.4778727E+02  0.7816164E-02  0.1312668E+00
        -11   -1    0    0    0    0  0.00000000000E+00  0.00000000000E+00  0.45593999997E+02  0.45594000000E+02  0.51100000000E-03 0.  1.
         11   -1    0    0    0    0 -0.00000000000E+00 -0.00000000000E+00 -0.45593999997E+02  0.45594000000E+02  0.51100000000E-03 0. -1.
    9900012    2    1    2    0    0 -0.23313743285E+02 -0.36241548329E+02  0.51616642863E+01  0.47787271556E+02  0.20000002332E+02 0.  0.
         12    1    1    2    0    0  0.23313743285E+02  0.36241548329E+02 -0.51616642863E+01  0.43400728444E+02  0.00000000000E+00 0. -1.
         11    1    3    3    0    0 -0.23305111662E+01 -0.13929880188E+01 -0.29897846025E+00  0.27314989103E+01  0.51100000000E-03 0. -1.
        -11    1    3    3    0    0 -0.14823563765E+02 -0.17973121164E+02  0.11659142335E+02  0.26052000447E+02  0.51100000000E-03 0.  1.
         12    1    3    3    0    0 -0.61596683542E+01 -0.16875439146E+02 -0.61984995883E+01  0.19003772198E+02  0.00000000000E+00 0. -1.
</event>
<event>
 7    1  0.2486105E-010  0.4778727E+02  0.7816164E-02  0.1312668E+00
        -11   -1    0    0    0    0  0.00000000000E+00  0.00000000000E+00  0.45593999997E+02  0.45594000000E+02  0.51100000000E-03 0.  1.
         11   -1    0    0    0    0 -0.00000000000E+00 -0.00000000000E+00 -0.45593999997E+02  0.45594000000E+02  0.51100000000E-03 0. -1.
    9900012    2    1    2    0    0 -0.29736627030E+02  0.82713032243E+01  0.30511334954E+02  0.47787274144E+02  0.20000014133E+02 0.  0.
         12    1    1    2    0    0  0.29736627030E+02 -0.82713032243E+01 -0.30511334954E+02  0.43400725856E+02  0.00000000000E+00 0. -1.
         11    1    3    3    0    0 -0.10109234782E+02 -0.18261680570E+01  0.17346448658E+02  0.20160128942E+02  0.51100000000E-03 0. -1.
        -11    1    3    3    0    0 -0.41885172938E+01 -0.11392487413E+01 -0.15811362779E+00  0.43435659308E+01  0.51100000000E-03 0.  1.
        -12    1    3    3    0    0 -0.15438874954E+02  0.11236720023E+02  0.13322999923E+02  0.23283579271E+02  0.00000000000E+00 0.  1.
</event>
<event>
 7    1  0.2486105E-010  0.4778727E+02  0.7816164E-02  0.1312668E+00
        -11   -1    0    0    0    0  0.00000000000E+00  0.00000000000E+00  0.45593999997E+02  0.45594000000E+02  0.51100000000E-03 0.  1.
         11   -1    0    0    0    0 -0.00000000000E+00 -0.00000000000E+00 -0.45593999997E+02  0.45594000000E+02  0.51100000000E-03 0. -1.
    9900012    2    1    2    0    0 -0.22497406434E+02 -0.20509261733E+02  0.30933164005E+02  0.47787265577E+02  0.19999975073E+02 0.  0.
         12    1    1    2    0    0  0.22497406434E+02  0.20509261733E+02 -0.30933164005E+02  0.43400734423E+02  0.00000000000E+00 0. -1.
         11    1    3    3    0    0 -0.22498443894E+01 -0.32558200577E+01  0.32791688368E+00  0.39711073730E+01  0.51100000000E-03 0. -1.
        -11    1    3    3    0    0 -0.26367238581E+01 -0.11715105936E+02  0.17303613464E+02  0.21062076321E+02  0.51100000000E-03 0.  1.
         12    1    3    3    0    0 -0.17610838186E+02 -0.55383357400E+01  0.13301633657E+02  0.22754081883E+02  0.00000000000E+00 0. -1.
</event>
<event>
 7    1  0.2486105E-010  0.4778728E+02  0.7816164E-02  0.1312668E+00
        -11   -1    0    0    0    0  0.00000000000E+00  0.00000000000E+00  0.45593999997E+02  0.45594000000E+02  0.51100000000E-03 0.  1.
         11   -1    0    0    0    0 -0.00000000000E+00 -0.00000000000E+00 -0.45593999997E+02  0.45594000000E+02  0.51100000000E-03 0. -1.
    9900012    2    1    2    0    0  0.37410721565E+02 -0.20147438678E+02  0.88397657529E+01  0.47787276137E+02  0.20000023218E+02 0.  0.
         12    1    1    2    0    0 -0.37410721565E+02  0.20147438678E+02 -0.88397657529E+01  0.43400723863E+02  0.00000000000E+00 0. -1.
         11    1    3    3    0    0  0.24108584770E+02 -0.19904386370E+02  0.67174429060E+01  0.31977062026E+02  0.51100000000E-03 0. -1.
        -11    1    3    3    0    0  0.10297354596E+02 -0.36997388270E+01  0.24692456891E+01  0.11216985049E+02  0.51100000000E-03 0.  1.
        -12    1    3    3    0    0  0.30047821991E+01  0.34566865187E+01 -0.34692284220E+00  0.45932290614E+01  0.00000000000E+00 0.  1.
</event>
<event>
 7    1  0.2486105E-010  0.4778727E+02  0.7816164E-02  0.1312668E+00
        -11   -1    0    0    0    0  0.00000000000E+00  0.00000000000E+00  0.45593999997E+02  0.45594000000E+02  0.51100000000E-03 0.  1.
         11   -1    0    0    0    0 -0.00000000000E+00 -0.00000000000E+00 -0.45593999997E+02  0.45594000000E+02  0.51100000000E-03 0. -1.
    9900012    2    1    2    0    0  0.62089800808E+01 -0.27287907028E+02  0.33172906804E+02  0.47787273630E+02  0.20000011790E+02 0.  0.
         12    1    1    2    0    0 -0.62089800808E+01  0.27287907028E+02 -0.33172906804E+02  0.43400726370E+02  0.00000000000E+00 0. -1.
         11    1    3    3    0    0  0.62984451109E+01 -0.83947113250E+01  0.14716081071E+02  0.18074972514E+02  0.51100000000E-03 0. -1.
        -11    1    3    3    0    0  0.23527325027E+01 -0.18250483663E+02  0.19648532837E+02  0.26919887576E+02  0.51100000000E-03 0.  1.
        -12    1    3    3    0    0 -0.24421975329E+01 -0.64271203969E+00 -0.11917071047E+01  0.27924135401E+01  0.00000000000E+00 0.  1.
</event>
<event>
 7    1  0.2486105E-010  0.4778727E+02  0.7816164E-02  0.1312668E+00
        -11   -1    0    0    0    0  0.00000000000E+00  0.00000000000E+00  0.45593999997E+02  0.45594000000E+02  0.51100000000E-03 0.  1.
         11   -1    0    0    0    0 -0.00000000000E+00 -0.00000000000E+00 -0.45593999997E+02  0.45594000000E+02  0.51100000000E-03 0. -1.
    9900012    2    1    2    0    0  0.15984668910E+02  0.14618774417E+02  0.37608575112E+02  0.47787272730E+02  0.20000007685E+02 0.  0.
         12    1    1    2    0    0 -0.15984668910E+02 -0.14618774417E+02 -0.37608575112E+02  0.43400727270E+02  0.00000000000E+00 0. -1.
         11    1    3    3    0    0 -0.40986998867E+00  0.41045282582E+01  0.45992911952E+01  0.61780761883E+01  0.51100000000E-03 0. -1.
        -11    1    3    3    0    0  0.13054713913E+02  0.12012303400E+02  0.33508488614E+02  0.37914902054E+02  0.51100000000E-03 0.  1.
         12    1    3    3    0    0  0.33398249853E+01 -0.14980572415E+01 -0.49920469687E+00  0.36942944875E+01  0.00000000000E+00 0. -1.
</event>
<event>
 7    1  0.2486105E-010  0.4778727E+02  0.7816164E-02  0.1312668E+00
        -11   -1    0    0    0    0  0.00000000000E+00  0.00000000000E+00  0.45593999997E+02  0.45594000000E+02  0.51100000000E-03 0.  1.
         11   -1    0    0    0    0 -0.00000000000E+00 -0.00000000000E+00 -0.45593999997E+02  0.45594000000E+02  0.51100000000E-03 0. -1.
    9900012    2    1    2    0    0 -0.17551287777E+02 -0.36986044947E+02  0.14408611750E+02  0.47787270559E+02  0.19999997788E+02 0.  0.
         12    1    1    2    0    0  0.17551287777E+02  0.36986044947E+02 -0.14408611750E+02  0.43400729441E+02  0.00000000000E+00 0. -1.
         11    1    3    3    0    0  0.10229341578E+01 -0.13570554504E+02  0.22176429559E+01  0.13788556283E+02  0.51100000000E-03 0. -1.
        -11    1    3    3    0    0  0.36674390914E+00 -0.43403526868E+00 -0.12135875791E+01  0.13400308887E+01  0.51100000000E-03 0.  1.
        -12    1    3    3    0    0 -0.18940965844E+02 -0.22981455174E+02  0.13404556373E+02  0.32658683387E+02  0.00000000000E+00 0.  1.
</event>
<event>
 7    1  0.2486105E-010  0.4778727E+02  0.7816164E-02  0.1312668E+00
        -11   -1    0    0    0    0  0.00000000000E+00  0.00000000000E+00  0.45593999997E+02  0.45594000000E+02  0.51100000000E-03 0.  1.
         11   -1    0    0    0    0 -0.00000000000E+00 -0.00000000000E+00 -0.45593999997E+02  0.45594000000E+02  0.51100000000E-03 0. -1.
    9900012    2    1    2    0    0 -0.65403013836E+01 -0.26988031764E+02  0.33354064724E+02  0.47787273804E+02  0.20000012583E+02 0.  0.
         12    1    1    2    0    0  0.65403013836E+01  0.26988031764E+02 -0.33354064724E+02  0.43400726196E+02  0.00000000000E+00 0. -1.
         11    1    3    3    0    0  0.32280958572E+01 -0.88604686870E+00  0.20743637099E+01  0.39381044906E+01  0.51100000000E-03 0. -1.
        -11    1    3    3    0    0 -0.97103311601E+00 -0.18577632127E+02  0.23174634840E+02  0.29717587739E+02  0.51100000000E-03 0.  1.
        -12    1    3    3    0    0 -0.87973641248E+01 -0.75243527683E+01  0.81050661740E+01  0.14131581575E+02  0.00000000000E+00 0.  1.
</event>
<event>
 7    1  0.2486105E-010  0.4778727E+02  0.7816164E-02  0.1312668E+00
        -11   -1    0    0    0    0  0.00000000000E+00  0.00000000000E+00  0.45593999997E+02  0.45594000000E+02  0.51100000000E-03 0.  1.
         11   -1    0    0    0    0 -0.00000000000E+00 -0.00000000000E+00 -0.45593999997E+02  0.45594000000E+02  0.51100000000E-03 0. -1.
    9900012    2    1    2    0    0 -0.11661020920E+02  0.27812087278E+02  0.31211084460E+02  0.47787269581E+02  0.19999993329E+02 0.  0.
         12    1    1    2    0    0  0.11661020920E+02 -0.27812087278E+02 -0.31211084460E+02  0.43400730419E+02  0.00000000000E+00 0. -1.
         11    1    3    3    0    0 -0.45150413046E+01  0.37693877135E+01  0.32488956905E+01  0.67193158272E+01  0.51100000000E-03 0. -1.
        -11    1    3    3    0    0  0.49344862414E+01  0.50655721357E+01  0.36993268847E+01  0.79808643135E+01  0.51100000000E-03 0.  1.
        -12    1    3    3    0    0 -0.12080465857E+02  0.18977127429E+02  0.24262861885E+02  0.33087089441E+02  0.00000000000E+00 0.  1.
</event>
<event>
 7    1  0.2486105E-010  0.4778727E+02  0.7816164E-02  0.1312668E+00
        -11   -1    0    0    0    0  0.00000000000E+00  0.00000000000E+00  0.45593999997E+02  0.45594000000E+02  0.51100000000E-03 0.  1.
         11   -1    0    0    0    0 -0.00000000000E+00 -0.00000000000E+00 -0.45593999997E+02  0.45594000000E+02  0.51100000000E-03 0. -1.
    9900012    2    1    2    0    0 -0.37522594499E+02 -0.14228512533E+02  0.16529594247E+02  0.47787272439E+02  0.20000006359E+02 0.  0.
         12    1    1    2    0    0  0.37522594499E+02  0.14228512533E+02 -0.16529594247E+02  0.43400727561E+02  0.00000000000E+00 0. -1.
         11    1    3    3    0    0 -0.76721679497E+01  0.60305294864E+00 -0.11458862527E+01  0.77806741014E+01  0.51100000000E-03 0. -1.
        -11    1    3    3    0    0 -0.66544270275E+01 -0.59789433707E+01 -0.91132959750E+00  0.89922013318E+01  0.51100000000E-03 0.  1.
        -12    1    3    3    0    0 -0.23195999522E+02 -0.88526221110E+01  0.18586810097E+02  0.31014397006E+02  0.00000000000E+00 0.  1.
</event>
<event>
 7    1  0.2486105E-010  0.4778727E+02  0.7816164E-02  0.1312668E+00
        -11   -1    0    0    0    0  0.00000000000E+00  0.00000000000E+00  0.45593999997E+02  0.45594000000E+02  0.51100000000E-03 0.  1.
         11   -1    0    0    0    0 -0.00000000000E+00 -0.00000000000E+00 -0.45593999997E+02  0.45594000000E+02  0.51100000000E-03 0. -1.
    9900012    2    1    2    0    0  0.16073891293E+02 -0.32284858633E+01  0.40184948755E+02  0.47787271796E+02  0.20000003425E+02 0.  0.
         12    1    1    2    0    0 -0.16073891293E+02  0.32284858633E+01 -0.40184948755E+02  0.43400728204E+02  0.00000000000E+00 0. -1.
         11    1    3    3    0    0  0.40300417651E+01 -0.67664440713E+01  0.21724396817E+02  0.23107908155E+02  0.51100000000E-03 0. -1.
        -11    1    3    3    0    0  0.94445192583E+01 -0.37551623815E+00  0.17492141641E+02  0.19882529414E+02  0.51100000000E-03 0.  1.
        -12    1    3    3    0    0  0.25993302695E+01  0.39134744461E+01  0.96841029715E+00  0.47968342262E+01  0.00000000000E+00 0.  1.
</event>
<event>
 7    1  0.2486105E-010  0.4778727E+02  0.7816164E-02  0.1312668E+00
        -11   -1    0    0    0    0  0.00000000000E+00  0.00000000000E+00  0.45593999997E+02  0.45594000000E+02  0.51100000000E-03 0. -1.
         11   -1    0    0    0    0 -0.00000000000E+00 -0.00000000000E+00 -0.45593999997E+02  0.45594000000E+02  0.51100000000E-03 0.  1.
    9900012    2    1    2    0    0  0.80292550538E+01 -0.31154115898E+02 -0.29130322468E+02  0.47787267734E+02  0.19999984908E+02 0.  0.
         12    1    1    2    0    0 -0.80292550538E+01  0.31154115898E+02  0.29130322468E+02  0.43400732266E+02  0.00000000000E+00 0. -1.
         11    1    3    3    0    0  0.35535089740E+01 -0.38405176000E+01 -0.46546116250E+00  0.52529663828E+01  0.51100000000E-03 0. -1.
        -11    1    3    3    0    0  0.96022542691E+01 -0.22039974322E+02 -0.22706950287E+02  0.33069160055E+02  0.51100000000E-03 0.  1.
        -12    1    3    3    0    0 -0.51265081894E+01 -0.52736239762E+01 -0.59579110186E+01  0.94651412966E+01  0.00000000000E+00 0.  1.
</event>
<event>
 7    1  0.2486105E-010  0.4778727E+02  0.7816164E-02  0.1312668E+00
        -11   -1    0    0    0    0  0.00000000000E+00  0.00000000000E+00  0.45593999997E+02  0.45594000000E+02  0.51100000000E-03 0.  1.
         11   -1    0    0    0    0 -0.00000000000E+00 -0.00000000000E+00 -0.45593999997E+02  0.45594000000E+02  0.51100000000E-03 0. -1.
    9900012    2    1    2    0    0 -0.35015105183E+02 -0.19635451320E+02  0.16492870661E+02  0.47787270488E+02  0.19999997464E+02 0.  0.
         12    1    1    2    0    0  0.35015105183E+02  0.19635451320E+02 -0.16492870661E+02  0.43400729512E+02  0.00000000000E+00 0. -1.
         11    1    3    3    0    0 -0.15740719938E+02 -0.84972118269E+00  0.34200292236E+00  0.15767347796E+02  0.51100000000E-03 0. -1.
        -11    1    3    3    0    0 -0.90736500933E+00  0.13061215161E+00  0.17542055539E+01  0.19792948696E+01  0.51100000000E-03 0.  1.
        -12    1    3    3    0    0 -0.18367020235E+02 -0.18916342289E+02  0.14396662185E+02  0.30040627823E+02  0.00000000000E+00 0.  1.
</event>
<event>
 7    1  0.2486105E-010  0.4778726E+02  0.7816164E-02  0.1312668E+00
        -11   -1    0    0    0    0  0.00000000000E+00  0.00000000000E+00  0.45593999997E+02  0.45594000000E+02  0.51100000000E-03 0. -1.
         11   -1    0    0    0    0 -0.00000000000E+00 -0.00000000000E+00 -0.45593999997E+02  0.45594000000E+02  0.51100000000E-03 0.  1.
    9900012    2    1    2    0    0  0.42981885618E+02  0.28205664323E+01  0.53128165653E+01  0.47787261457E+02  0.19999956285E+02 0.  0.
         12    1    1    2    0    0 -0.42981885618E+02 -0.28205664323E+01 -0.53128165653E+01  0.43400738543E+02  0.00000000000E+00 0. -1.
         11    1    3    3    0    0  0.22597714929E+02 -0.26702728586E+01  0.32928973117E+01  0.22991960554E+02  0.51100000000E-03 0. -1.
        -11    1    3    3    0    0  0.21132159237E+02  0.34177374647E+01 -0.54485762671E+00  0.21413686126E+02  0.51100000000E-03 0.  1.
        -12    1    3    3    0    0 -0.74798854847E+00  0.20731018263E+01  0.25647768803E+01  0.33816147765E+01  0.00000000000E+00 0.  1.
</event>
<event>
 7    1  0.2486105E-010  0.4778727E+02  0.7816164E-02  0.1312668E+00
        -11   -1    0    0    0    0  0.00000000000E+00  0.00000000000E+00  0.45593999997E+02  0.45594000000E+02  0.51100000000E-03 0. -1.
         11   -1    0    0    0    0 -0.00000000000E+00 -0.00000000000E+00 -0.45593999997E+02  0.45594000000E+02  0.51100000000E-03 0.  1.
    9900012    2    1    2    0    0  0.85418712340E+01  0.23899903008E+02 -0.35205880406E+02  0.47787274855E+02  0.20000017373E+02 0.  0.
         12    1    1    2    0    0 -0.85418712340E+01 -0.23899903008E+02  0.35205880406E+02  0.43400725145E+02  0.00000000000E+00 0. -1.
         11    1    3    3    0    0  0.14245883817E+01  0.11440193622E+02 -0.26949066976E+02  0.29311425986E+02  0.51100000000E-03 0. -1.
        -11    1    3    3    0    0  0.69441716390E+00  0.62635893521E+01 -0.70730556368E+01  0.94732720361E+01  0.51100000000E-03 0.  1.
        -12    1    3    3    0    0  0.64228656884E+01  0.61961200336E+01 -0.11837577932E+01  0.90025768330E+01  0.00000000000E+00 0.  1.
</event>
<event>
 7    1  0.2486105E-010  0.4778727E+02  0.7816164E-02  0.1312668E+00
        -11   -1    0    0    0    0  0.00000000000E+00  0.00000000000E+00  0.45593999997E+02  0.45594000000E+02  0.51100000000E-03 0.  1.
         11   -1    0    0    0    0 -0.00000000000E+00 -0.00000000000E+00 -0.45593999997E+02  0.45594000000E+02  0.51100000000E-03 0. -1.
    9900012    2    1    2    0    0  0.14360578872E+02 -0.20670239386E+02  0.35357291538E+02  0.47787273201E+02  0.20000009831E+02 0.  0.
         12    1    1    2    0    0 -0.14360578872E+02  0.20670239386E+02 -0.35357291538E+02  0.43400726799E+02  0.00000000000E+00 0. -1.
         11    1    3    3    0    0  0.82352264917E+01 -0.39183430070E+01  0.51138219911E+01  0.10455789923E+02  0.51100000000E-03 0. -1.
        -11    1    3    3    0    0  0.49263646016E+01 -0.12157085730E+02  0.98805983955E+01  0.16422241825E+02  0.51100000000E-03 0.  1.
        -12    1    3    3    0    0  0.11989877783E+01 -0.45948106481E+01  0.20362871152E+02  0.20909241453E+02  0.00000000000E+00 0.  1.
</event>
<event>
 7    1  0.2486105E-010  0.4778727E+02  0.7816164E-02  0.1312668E+00
        -11   -1    0    0    0    0  0.00000000000E+00  0.00000000000E+00  0.45593999997E+02  0.45594000000E+02  0.51100000000E-03 0.  1.
         11   -1    0    0    0    0 -0.00000000000E+00 -0.00000000000E+00 -0.45593999997E+02  0.45594000000E+02  0.51100000000E-03 0. -1.
    9900012    2    1    2    0    0 -0.20230160819E+02  0.32153656611E+02  0.20988251688E+02  0.47787265570E+02  0.19999975038E+02 0.  0.
         12    1    1    2    0    0  0.20230160819E+02 -0.32153656611E+02 -0.20988251688E+02  0.43400734430E+02  0.00000000000E+00 0. -1.
         11    1    3    3    0    0  0.17633943451E+01  0.86774394622E+01 -0.19081213147E+00  0.88568574996E+01  0.51100000000E-03 0. -1.
        -11    1    3    3    0    0 -0.32345628856E+01  0.13506298584E+01  0.35346648188E+01  0.49779969584E+01  0.51100000000E-03 0.  1.
         12    1    3    3    0    0 -0.18758992278E+02  0.22125587290E+02  0.17644399000E+02  0.33952411112E+02  0.00000000000E+00 0. -1.
</event>
<event>
 7    1  0.2486105E-010  0.4778727E+02  0.7816164E-02  0.1312668E+00
        -11   -1    0    0    0    0  0.00000000000E+00  0.00000000000E+00  0.45593999997E+02  0.45594000000E+02  0.51100000000E-03 0.  1.
         11   -1    0    0    0    0 -0.00000000000E+00 -0.00000000000E+00 -0.45593999997E+02  0.45594000000E+02  0.51100000000E-03 0. -1.
    9900012    2    1    2    0    0 -0.11479356820E+01  0.21934718156E+01  0.43330059106E+02  0.47787273082E+02  0.20000009288E+02 0.  0.
         12    1    1    2    0    0  0.11479356820E+01 -0.21934718156E+01 -0.43330059106E+02  0.43400726918E+02  0.00000000000E+00 0. -1.
         11    1    3    3    0    0  0.41100664828E+01  0.22536852802E+01  0.23124162493E+01  0.52267593216E+01  0.51100000000E-03 0. -1.
        -11    1    3    3    0    0  0.29005989738E+01 -0.15074961447E+00  0.15513456105E+02  0.15783013668E+02  0.51100000000E-03 0.  1.
         12    1    3    3    0    0 -0.81586011386E+01  0.90536149879E-01  0.25504186751E+02  0.26777500092E+02  0.00000000000E+00 0. -1.
</event>
<event>
 7    1  0.2486105E-010  0.4778727E+02  0.7816164E-02  0.1312668E+00
        -11   -1    0    0    0    0  0.00000000000E+00  0.00000000000E+00  0.45593999997E+02  0.45594000000E+02  0.51100000000E-03 0.  1.
         11   -1    0    0    0    0 -0.00000000000E+00 -0.00000000000E+00 -0.45593999997E+02  0.45594000000E+02  0.51100000000E-03 0. -1.
    9900012    2    1    2    0    0  0.26975421753E+02  0.17784380472E+02  0.28976985675E+02  0.47787271131E+02  0.20000000396E+02 0.  0.
         12    1    1    2    0    0 -0.26975421753E+02 -0.17784380472E+02 -0.28976985675E+02  0.43400728869E+02  0.00000000000E+00 0. -1.
         11    1    3    3    0    0  0.48064270569E+00  0.60093796990E+01  0.59841227809E+01  0.84943150103E+01  0.51100000000E-03 0. -1.
        -11    1    3    3    0    0  0.20006864698E+02  0.13068159501E+02  0.22222593543E+02  0.32632730376E+02  0.51100000000E-03 0.  1.
         12    1    3    3    0    0  0.64879143492E+01 -0.12931587277E+01  0.77026935161E+00  0.66602257448E+01  0.00000000000E+00 0. -1.
</event>
<event>
 7    1  0.2486105E-010  0.4778727E+02  0.7816164E-02  0.1312668E+00
        -11   -1    0    0    0    0  0.00000000000E+00  0.00000000000E+00  0.45593999997E+02  0.45594000000E+02  0.51100000000E-03 0.  1.
         11   -1    0    0    0    0 -0.00000000000E+00 -0.00000000000E+00 -0.45593999997E+02  0.45594000000E+02  0.51100000000E-03 0. -1.
    9900012    2    1    2    0    0 -0.25676208528E+02 -0.44020020322E+01  0.34712791563E+02  0.47787271845E+02  0.20000003650E+02 0.  0.
         12    1    1    2    0    0  0.25676208528E+02  0.44020020322E+01 -0.34712791563E+02  0.43400728155E+02  0.00000000000E+00 0. -1.
         11    1    3    3    0    0 -0.30068318771E+01  0.14653608503E+01  0.58506608271E+01  0.67393288044E+01  0.51100000000E-03 0. -1.
        -11    1    3    3    0    0 -0.54773437839E+01 -0.42479664900E+01 -0.53721143077E+00  0.69523456912E+01  0.51100000000E-03 0.  1.
        -12    1    3    3    0    0 -0.17192032867E+02 -0.16193963925E+01  0.29399342167E+02  0.34095597349E+02  0.00000000000E+00 0.  1.
</event>
<event>
 7    1  0.2486105E-010  0.4778727E+02  0.7816164E-02  0.1312668E+00
        -11   -1    0    0    0    0  0.00000000000E+00  0.00000000000E+00  0.45593999997E+02  0.45594000000E+02  0.51100000000E-03 0.  1.
         11   -1    0    0    0    0 -0.00000000000E+00 -0.00000000000E+00 -0.45593999997E+02  0.45594000000E+02  0.51100000000E-03 0. -1.
    9900012    2    1    2    0    0 -0.26486901686E+02  0.12052843150E+02  0.32199319024E+02  0.47787272649E+02  0.20000007317E+02 0.  0.
         12    1    1    2    0    0  0.26486901686E+02 -0.12052843150E+02 -0.32199319024E+02  0.43400727351E+02  0.00000000000E+00 0. -1.
         11    1    3    3    0    0 -0.14308343848E+02  0.12669054956E+02  0.17240729965E+02  0.25738617428E+02  0.51100000000E-03 0. -1.
        -11    1    3    3    0    0 -0.12274507913E+02  0.10854517640E+01  0.15888689481E+02  0.20107018768E+02  0.51100000000E-03 0.  1.
         12    1    3    3    0    0  0.95950074959E-01 -0.17016635698E+01 -0.93010042155E+00  0.19416364531E+01  0.00000000000E+00 0. -1.
</event>
<event>
 7    1  0.2486105E-010  0.4778727E+02  0.7816164E-02  0.1312668E+00
        -11   -1    0    0    0    0  0.00000000000E+00  0.00000000000E+00  0.45593999997E+02  0.45594000000E+02  0.51100000000E-03 0.  1.
         11   -1    0    0    0    0 -0.00000000000E+00 -0.00000000000E+00 -0.45593999997E+02  0.45594000000E+02  0.51100000000E-03 0. -1.
    9900012    2    1    2    0    0 -0.25717592422E+02 -0.10521512646E+02  0.33339561945E+02  0.47787272137E+02  0.20000004980E+02 0.  0.
         12    1    1    2    0    0  0.25717592422E+02  0.10521512646E+02 -0.33339561945E+02  0.43400727863E+02  0.00000000000E+00 0. -1.
         11    1    3    3    0    0 -0.11632378463E+02 -0.81541155969E+01  0.21655289700E+02  0.25898907354E+02  0.51100000000E-03 0. -1.
        -11    1    3    3    0    0 -0.12501398651E+02 -0.52056443464E+01  0.12615139446E+02  0.18507442957E+02  0.51100000000E-03 0.  1.
         12    1    3    3    0    0 -0.15838153089E+01  0.28382472969E+01 -0.93086720069E+00  0.33809218264E+01  0.00000000000E+00 0. -1.
</event>
<event>
 7    1  0.2486105E-010  0.4778727E+02  0.7816164E-02  0.1312668E+00
        -11   -1    0    0    0    0  0.00000000000E+00  0.00000000000E+00  0.45593999997E+02  0.45594000000E+02  0.51100000000E-03 0.  1.
         11   -1    0    0    0    0 -0.00000000000E+00 -0.00000000000E+00 -0.45593999997E+02  0.45594000000E+02  0.51100000000E-03 0. -1.
    9900012    2    1    2    0    0 -0.55368999744E+01 -0.42966438493E+02  0.26174770945E+01  0.47787270922E+02  0.19999999444E+02 0.  0.
         12    1    1    2    0    0  0.55368999744E+01  0.42966438493E+02 -0.26174770945E+01  0.43400729078E+02  0.00000000000E+00 0. -1.
         11    1    3    3    0    0  0.89435767128E+00 -0.64083141838E+01 -0.42201763177E+01  0.77250407595E+01  0.51100000000E-03 0. -1.
        -11    1    3    3    0    0  0.33997032227E+01 -0.80832561850E+01  0.44766359664E+01  0.98456732828E+01  0.51100000000E-03 0.  1.
        -12    1    3    3    0    0 -0.98309608685E+01 -0.28474868125E+02  0.23610174459E+01  0.30216556880E+02  0.00000000000E+00 0.  1.
</event>
<event>
 7    1  0.2486105E-010  0.4778727E+02  0.7816164E-02  0.1312668E+00
        -11   -1    0    0    0    0  0.00000000000E+00  0.00000000000E+00  0.45593999997E+02  0.45594000000E+02  0.51100000000E-03 0. -1.
         11   -1    0    0    0    0 -0.00000000000E+00 -0.00000000000E+00 -0.45593999997E+02  0.45594000000E+02  0.51100000000E-03 0.  1.
    9900012    2    1    2    0    0 -0.53159497498E+01 -0.40261807966E+02 -0.15308521361E+02  0.47787270413E+02  0.19999997121E+02 0.  0.
         12    1    1    2    0    0  0.53159497498E+01  0.40261807966E+02  0.15308521361E+02  0.43400729587E+02  0.00000000000E+00 0. -1.
         11    1    3    3    0    0  0.26219636363E+00  0.63732959388E-01  0.17411791173E+00  0.32113257624E+00  0.51100000000E-03 0. -1.
        -11    1    3    3    0    0 -0.83262860383E+01 -0.16146620117E+02 -0.14269962034E+02  0.23101346219E+02  0.51100000000E-03 0.  1.
        -12    1    3    3    0    0  0.27481399249E+01 -0.24178920808E+02 -0.12126772385E+01  0.24364791618E+02  0.00000000000E+00 0.  1.
</event>
<event>
 7    1  0.2486105E-010  0.4778727E+02  0.7816164E-02  0.1312668E+00
        -11   -1    0    0    0    0  0.00000000000E+00  0.00000000000E+00  0.45593999997E+02  0.45594000000E+02  0.51100000000E-03 0.  1.
         11   -1    0    0    0    0 -0.00000000000E+00 -0.00000000000E+00 -0.45593999997E+02  0.45594000000E+02  0.51100000000E-03 0. -1.
    9900012    2    1    2    0    0  0.17502223160E+01  0.31009724418E+02  0.30314301226E+02  0.47787272524E+02  0.20000006744E+02 0.  0.
         12    1    1    2    0    0 -0.17502223160E+01 -0.31009724418E+02 -0.30314301226E+02  0.43400727476E+02  0.00000000000E+00 0. -1.
         11    1    3    3    0    0 -0.23333321046E+01  0.15981780387E+02  0.71530429174E+01  0.17664307693E+02  0.51100000000E-03 0. -1.
        -11    1    3    3    0    0 -0.34303825521E+01  0.14160422025E+01  0.43560211065E+01  0.57225536358E+01  0.51100000000E-03 0.  1.
         12    1    3    3    0    0  0.75139369727E+01  0.13611901829E+02  0.18805237202E+02  0.24400411194E+02  0.00000000000E+00 0. -1.
</event>
<event>
 7    1  0.2486105E-010  0.4778727E+02  0.7816164E-02  0.1312668E+00
        -11   -1    0    0    0    0  0.00000000000E+00  0.00000000000E+00  0.45593999997E+02  0.45594000000E+02  0.51100000000E-03 0.  1.
         11   -1    0    0    0    0 -0.00000000000E+00 -0.00000000000E+00 -0.45593999997E+02  0.45594000000E+02  0.51100000000E-03 0. -1.
    9900012    2    1    2    0    0  0.38289985447E+02  0.20425962749E+02 -0.52917888290E+00  0.47787274544E+02  0.20000015957E+02 0.  0.
         12    1    1    2    0    0 -0.38289985447E+02 -0.20425962749E+02  0.52917888290E+00  0.43400725456E+02  0.00000000000E+00 0. -1.
         11    1    3    3    0    0  0.20265585095E+02  0.55986411666E+01  0.44204677532E+01  0.21484395676E+02  0.51100000000E-03 0. -1.
        -11    1    3    3    0    0  0.19835449118E+01  0.42952655851E+00  0.27468621762E+01  0.34152885028E+01  0.51100000000E-03 0.  1.
        -12    1    3    3    0    0  0.16040855441E+02  0.14397795024E+02 -0.76965088123E+01  0.22887590365E+02  0.00000000000E+00 0.  1.
</event>
<event>
 7    1  0.2486105E-010  0.4778727E+02  0.7816164E-02  0.1312668E+00
        -11   -1    0    0    0    0  0.00000000000E+00  0.00000000000E+00  0.45593999997E+02  0.45594000000E+02  0.51100000000E-03 0.  1.
         11   -1    0    0    0    0 -0.00000000000E+00 -0.00000000000E+00 -0.45593999997E+02  0.45594000000E+02  0.51100000000E-03 0. -1.
    9900012    2    1    2    0    0 -0.95227346389E+01 -0.14412454304E+02  0.39814843598E+02  0.47787273223E+02  0.20000009933E+02 0.  0.
         12    1    1    2    0    0  0.95227346389E+01  0.14412454304E+02 -0.39814843598E+02  0.43400726777E+02  0.00000000000E+00 0. -1.
         11    1    3    3    0    0  0.27730221968E+01 -0.74029719604E+01  0.12399120421E+02  0.14704823475E+02  0.51100000000E-03 0. -1.
        -11    1    3    3    0    0 -0.13956748437E+00  0.46140277655E+00  0.12250869351E+02  0.12260349576E+02  0.51100000000E-03 0.  1.
         12    1    3    3    0    0 -0.12156189351E+02 -0.74708851206E+01  0.15164853825E+02  0.20822100172E+02  0.00000000000E+00 0. -1.
</event>
<event>
 7    1  0.2486105E-010  0.4778727E+02  0.7816164E-02  0.1312668E+00
        -11   -1    0    0    0    0  0.00000000000E+00  0.00000000000E+00  0.45593999997E+02  0.45594000000E+02  0.51100000000E-03 0.  1.
         11   -1    0    0    0    0 -0.00000000000E+00 -0.00000000000E+00 -0.45593999997E+02  0.45594000000E+02  0.51100000000E-03 0. -1.
    9900012    2    1    2    0    0  0.94967204391E+01  0.21780443406E+01  0.42292926354E+02  0.47787271943E+02  0.20000004099E+02 0.  0.
         12    1    1    2    0    0 -0.94967204391E+01 -0.21780443406E+01 -0.42292926354E+02  0.43400728057E+02  0.00000000000E+00 0. -1.
         11    1    3    3    0    0  0.58798420118E+01  0.14123507453E+01  0.79056352629E+01  0.99532078188E+01  0.51100000000E-03 0. -1.
        -11    1    3    3    0    0  0.77095953942E+01  0.49572769458E+01  0.26273414911E+02  0.27826332622E+02  0.51100000000E-03 0.  1.
         12    1    3    3    0    0 -0.40927169670E+01 -0.41915833506E+01  0.81138761804E+01  0.10007731503E+02  0.00000000000E+00 0. -1.
</event>
<event>
 7    1  0.2486105E-010  0.4778727E+02  0.7816164E-02  0.1312668E+00
        -11   -1    0    0    0    0  0.00000000000E+00  0.00000000000E+00  0.45593999997E+02  0.45594000000E+02  0.51100000000E-03 0.  1.
         11   -1    0    0    0    0 -0.00000000000E+00 -0.00000000000E+00 -0.45593999997E+02  0.45594000000E+02  0.51100000000E-03 0. -1.
    9900012    2    1    2    0    0  0.37887275740E+01 -0.43181725410E+02  0.21464357763E+01  0.47787273595E+02  0.20000011627E+02 0.  0.
         12    1    1    2    0    0 -0.37887275740E+01  0.43181725410E+02 -0.21464357763E+01  0.43400726405E+02  0.00000000000E+00 0. -1.
         11    1    3    3    0    0  0.58450135418E+01 -0.99553818656E+01 -0.94053734019E+00  0.11582677676E+02  0.51100000000E-03 0. -1.
        -11    1    3    3    0    0  0.11045015825E+01 -0.31939858248E+02  0.56967178177E+00  0.31964026574E+02  0.51100000000E-03 0.  1.
         12    1    3    3    0    0 -0.31607875503E+01 -0.12864852961E+01  0.25173013347E+01  0.42405693444E+01  0.00000000000E+00 0. -1.
</event>
<event>
 7    1  0.2486105E-010  0.4778727E+02  0.7816164E-02  0.1312668E+00
        -11   -1    0    0    0    0  0.00000000000E+00  0.00000000000E+00  0.45593999997E+02  0.45594000000E+02  0.51100000000E-03 0.  1.
         11   -1    0    0    0    0 -0.00000000000E+00 -0.00000000000E+00 -0.45593999997E+02  0.45594000000E+02  0.51100000000E-03 0. -1.
    9900012    2    1    2    0    0  0.85604277345E+01  0.35054605630E+02  0.24114668709E+02  0.47787267911E+02  0.19999985715E+02 0.  0.
         12    1    1    2    0    0 -0.85604277345E+01 -0.35054605630E+02 -0.24114668709E+02  0.43400732089E+02  0.00000000000E+00 0. -1.
         11    1    3    3    0    0  0.51888521095E+01  0.79631430735E+01  0.50979574690E+01  0.10785407013E+02  0.51100000000E-03 0. -1.
        -11    1    3    3    0    0  0.67151284143E+01  0.26398081140E+02  0.19573441489E+02  0.33542081770E+02  0.51100000000E-03 0.  1.
         12    1    3    3    0    0 -0.33435527892E+01  0.69338141713E+00 -0.55673024974E+00  0.34597791280E+01  0.00000000000E+00 0. -1.
</event>
<event>
 7    1  0.2486105E-010  0.4778728E+02  0.7816164E-02  0.1312668E+00
        -11   -1    0    0    0    0  0.00000000000E+00  0.00000000000E+00  0.45593999997E+02  0.45594000000E+02  0.51100000000E-03 0. -1.
         11   -1    0    0    0    0 -0.00000000000E+00 -0.00000000000E+00 -0.45593999997E+02  0.45594000000E+02  0.51100000000E-03 0.  1.
    9900012    2    1    2    0    0  0.31482585719E+00 -0.28324643699E+02 -0.32882189021E+02  0.47787275227E+02  0.20000019072E+02 0.  0.
         12    1    1    2    0    0 -0.31482585719E+00  0.28324643699E+02  0.32882189021E+02  0.43400724773E+02  0.00000000000E+00 0. -1.
         11    1    3    3    0    0 -0.66146550034E+01 -0.10945202602E+02 -0.13859870312E+02  0.18858608807E+02  0.51100000000E-03 0. -1.
        -11    1    3    3    0    0  0.22724893567E+01 -0.12161473627E+02 -0.18027294399E+02  0.21864331508E+02  0.51100000000E-03 0.  1.
        -12    1    3    3    0    0  0.46569915040E+01 -0.52179674697E+01 -0.99502430969E+00  0.70643349128E+01  0.00000000000E+00 0.  1.
</event>
<event>
 7    1  0.2486105E-010  0.4778727E+02  0.7816164E-02  0.1312668E+00
        -11   -1    0    0    0    0  0.00000000000E+00  0.00000000000E+00  0.45593999997E+02  0.45594000000E+02  0.51100000000E-03 0.  1.
         11   -1    0    0    0    0 -0.00000000000E+00 -0.00000000000E+00 -0.45593999997E+02  0.45594000000E+02  0.51100000000E-03 0. -1.
    9900012    2    1    2    0    0 -0.31154806893E+02 -0.21554338774E+02  0.21175736668E+02  0.47787270330E+02  0.19999996741E+02 0.  0.
         12    1    1    2    0    0  0.31154806893E+02  0.21554338774E+02 -0.21175736668E+02  0.43400729670E+02  0.00000000000E+00 0. -1.
         11    1    3    3    0    0 -0.22074325208E+02 -0.60520002870E+01  0.18457622662E+02  0.29403849671E+02  0.51100000000E-03 0. -1.
        -11    1    3    3    0    0 -0.41103221456E+01 -0.57574222914E+01  0.22913006368E+01  0.74359073724E+01  0.51100000000E-03 0.  1.
         12    1    3    3    0    0 -0.49701595390E+01 -0.97449161957E+01  0.42681336892E+00  0.10947513286E+02  0.00000000000E+00 0. -1.
</event>
<event>
 7    1  0.2486105E-010  0.4778727E+02  0.7816164E-02  0.1312668E+00
        -11   -1    0    0    0    0  0.00000000000E+00  0.00000000000E+00  0.45593999997E+02  0.45594000000E+02  0.51100000000E-03 0.  1.
         11   -1    0    0    0    0 -0.00000000000E+00 -0.00000000000E+00 -0.45593999997E+02  0.45594000000E+02  0.51100000000E-03 0. -1.
    9900012    2    1    2    0    0  0.42361661509E+02  0.80190506686E+01 -0.49807810177E+01  0.47787265916E+02  0.19999976619E+02 0.  0.
         12    1    1    2    0    0 -0.42361661509E+02 -0.80190506686E+01  0.49807810177E+01  0.43400734084E+02  0.00000000000E+00 0. -1.
         11    1    3    3    0    0  0.29561777056E+02 -0.80675686657E+00 -0.90220625790E+01  0.30918394732E+02  0.51100000000E-03 0. -1.
        -11    1    3    3    0    0  0.34347608949E+01  0.16606723748E+00  0.19198503859E+01  0.39383989765E+01  0.51100000000E-03 0.  1.
         12    1    3    3    0    0  0.93651235583E+01  0.86597402977E+01  0.21214311754E+01  0.12930472208E+02  0.00000000000E+00 0. -1.
</event>
<event>
 7    1  0.2486105E-010  0.4778727E+02  0.7816164E-02  0.1312668E+00
        -11   -1    0    0    0    0  0.00000000000E+00  0.00000000000E+00  0.45593999997E+02  0.45594000000E+02  0.51100000000E-03 0.  1.
         11   -1    0    0    0    0 -0.00000000000E+00 -0.00000000000E+00 -0.45593999997E+02  0.45594000000E+02  0.51100000000E-03 0. -1.
    9900012    2    1    2    0    0  0.28448855096E+02  0.22909570818E+02  0.23440082913E+02  0.47787270994E+02  0.19999999768E+02 0.  0.
         12    1    1    2    0    0 -0.28448855096E+02 -0.22909570818E+02 -0.23440082913E+02  0.43400729006E+02  0.00000000000E+00 0. -1.
         11    1    3    3    0    0  0.87714783141E+01  0.56908138916E+01  0.14401353100E+02  0.17796717842E+02  0.51100000000E-03 0. -1.
        -11    1    3    3    0    0 -0.83506671219E+00 -0.75497118087E+00 -0.29650388728E+00  0.11641446276E+01  0.51100000000E-03 0.  1.
        -12    1    3    3    0    0  0.20512443494E+02  0.17973728108E+02  0.93352336995E+01  0.28826408524E+02  0.00000000000E+00 0.  1.
</event>
<event>
 7    1  0.2486105E-010  0.4778727E+02  0.7816164E-02  0.1312668E+00
        -11   -1    0    0    0    0  0.00000000000E+00  0.00000000000E+00  0.45593999997E+02  0.45594000000E+02  0.51100000000E-03 0.  1.
         11   -1    0    0    0    0 -0.00000000000E+00 -0.00000000000E+00 -0.45593999997E+02  0.45594000000E+02  0.51100000000E-03 0. -1.
    9900012    2    1    2    0    0  0.32721692020E+02 -0.18673669320E+02  0.21545486267E+02  0.47787273819E+02  0.20000012650E+02 0.  0.
         12    1    1    2    0    0 -0.32721692020E+02  0.18673669320E+02 -0.21545486267E+02  0.43400726181E+02  0.00000000000E+00 0. -1.
         11    1    3    3    0    0  0.14852178677E+02 -0.10757334382E+02  0.16735839131E+02  0.24827318948E+02  0.51100000000E-03 0. -1.
        -11    1    3    3    0    0  0.12406412706E+02 -0.70769653700E+01  0.82062078839E+01  0.16472533599E+02  0.51100000000E-03 0.  1.
         12    1    3    3    0    0  0.54631006373E+01 -0.83936956820E+00 -0.33965607479E+01  0.64874212719E+01  0.00000000000E+00 0. -1.
</event>
<event>
 7    1  0.2486105E-010  0.4778727E+02  0.7816164E-02  0.1312668E+00
        -11   -1    0    0    0    0  0.00000000000E+00  0.00000000000E+00  0.45593999997E+02  0.45594000000E+02  0.51100000000E-03 0.  1.
         11   -1    0    0    0    0 -0.00000000000E+00 -0.00000000000E+00 -0.45593999997E+02  0.45594000000E+02  0.51100000000E-03 0. -1.
    9900012    2    1    2    0    0  0.28204634539E+02 -0.37265574942E+01  0.32775519881E+02  0.47787270240E+02  0.19999996332E+02 0.  0.
         12    1    1    2    0    0 -0.28204634539E+02  0.37265574942E+01 -0.32775519881E+02  0.43400729760E+02  0.00000000000E+00 0. -1.
         11    1    3    3    0    0  0.27233752975E+02 -0.29193384510E+01  0.20030573289E+02  0.33932634802E+02  0.51100000000E-03 0.  1.
        -11    1    3    3    0    0  0.75702380756E+00  0.94583285078E+00  0.25191534533E+00  0.12373950174E+01  0.51100000000E-03 0. -1.
        -12    1    3    3    0    0  0.21385775648E+00 -0.17530518940E+01  0.12493031247E+02  0.12617240420E+02  0.00000000000E+00 0.  1.
</event>
<event>
 7    1  0.2486105E-010  0.4778727E+02  0.7816164E-02  0.1312668E+00
        -11   -1    0    0    0    0  0.00000000000E+00  0.00000000000E+00  0.45593999997E+02  0.45594000000E+02  0.51100000000E-03 0.  1.
         11   -1    0    0    0    0 -0.00000000000E+00 -0.00000000000E+00 -0.45593999997E+02  0.45594000000E+02  0.51100000000E-03 0. -1.
    9900012    2    1    2    0    0  0.15364945537E+02 -0.29417954026E+01  0.40483173890E+02  0.47787273280E+02  0.20000010195E+02 0.  0.
         12    1    1    2    0    0 -0.15364945537E+02  0.29417954026E+01 -0.40483173890E+02  0.43400726720E+02  0.00000000000E+00 0. -1.
         11    1    3    3    0    0 -0.43868197342E+00  0.86640581957E+00 -0.11247429187E+01  0.14859837860E+01  0.51100000000E-03 0. -1.
        -11    1    3    3    0    0 -0.89867584162E+00  0.18120035274E+01  0.91201010025E+01  0.93416924381E+01  0.51100000000E-03 0.  1.
        -12    1    3    3    0    0  0.16702303352E+02 -0.56202047496E+01  0.32487815807E+02  0.36959597056E+02  0.00000000000E+00 0.  1.
</event>
<event>
 7    1  0.2486105E-010  0.4778727E+02  0.7816164E-02  0.1312668E+00
        -11   -1    0    0    0    0  0.00000000000E+00  0.00000000000E+00  0.45593999997E+02  0.45594000000E+02  0.51100000000E-03 0. -1.
         11   -1    0    0    0    0 -0.00000000000E+00 -0.00000000000E+00 -0.45593999997E+02  0.45594000000E+02  0.51100000000E-03 0.  1.
    9900012    2    1    2    0    0  0.24792583803E+02  0.35613668160E+02  0.78590064181E+00  0.47787271766E+02  0.20000003288E+02 0.  0.
         12    1    1    2    0    0 -0.24792583803E+02 -0.35613668160E+02 -0.78590064181E+00  0.43400728234E+02  0.00000000000E+00 0. -1.
         11    1    3    3    0    0  0.14228883298E+02  0.10927103891E+02 -0.38844540375E+01  0.18356244245E+02  0.51100000000E-03 0. -1.
        -11    1    3    3    0    0  0.91090913472E+01  0.84522717910E+01  0.42268997856E+01  0.13125666675E+02  0.51100000000E-03 0.  1.
         12    1    3    3    0    0  0.14546091582E+01  0.16234292478E+02  0.44345489374E+00  0.16305360846E+02  0.00000000000E+00 0. -1.
</event>
<event>
 7    1  0.2486105E-010  0.4778727E+02  0.7816164E-02  0.1312668E+00
        -11   -1    0    0    0    0  0.00000000000E+00  0.00000000000E+00  0.45593999997E+02  0.45594000000E+02  0.51100000000E-03 0.  1.
         11   -1    0    0    0    0 -0.00000000000E+00 -0.00000000000E+00 -0.45593999997E+02  0.45594000000E+02  0.51100000000E-03 0. -1.
    9900012    2    1    2    0    0  0.23757950951E+02  0.36216342948E+02 -0.27494938301E+01  0.47787269059E+02  0.19999990946E+02 0.  0.
         12    1    1    2    0    0 -0.23757950951E+02 -0.36216342948E+02  0.27494938301E+01  0.43400730941E+02  0.00000000000E+00 0. -1.
         11    1    3    3    0    0  0.84031309123E+01  0.10667943113E+01 -0.10725185267E+01  0.85382056360E+01  0.51100000000E-03 0. -1.
        -11    1    3    3    0    0  0.18244092971E+01  0.72538747248E+01  0.26697516243E+01  0.79419608286E+01  0.51100000000E-03 0.  1.
        -12    1    3    3    0    0  0.13530410741E+02  0.27895673912E+02 -0.43467269278E+01  0.31307102594E+02  0.00000000000E+00 0.  1.
</event>
<event>
 7    1  0.2486105E-010  0.4778727E+02  0.7816164E-02  0.1312668E+00
        -11   -1    0    0    0    0  0.00000000000E+00  0.00000000000E+00  0.45593999997E+02  0.45594000000E+02  0.51100000000E-03 0.  1.
         11   -1    0    0    0    0 -0.00000000000E+00 -0.00000000000E+00 -0.45593999997E+02  0.45594000000E+02  0.51100000000E-03 0. -1.
    9900012    2    1    2    0    0  0.22031201221E+02 -0.27365148318E+02  0.25483286874E+02  0.47787273283E+02  0.20000010205E+02 0.  0.
         12    1    1    2    0    0 -0.22031201221E+02  0.27365148318E+02 -0.25483286874E+02  0.43400726717E+02  0.00000000000E+00 0. -1.
         11    1    3    3    0    0  0.64948743309E+01 -0.12523570633E+02  0.48211689908E+01  0.14908617799E+02  0.51100000000E-03 0.  1.
        -11    1    3    3    0    0  0.11709097317E+02 -0.70362271988E+01  0.42500575825E+01  0.14306447598E+02  0.51100000000E-03 0. -1.
         12    1    3    3    0    0  0.38272295731E+01 -0.78053504857E+01  0.16412060301E+02  0.18572207885E+02  0.00000000000E+00 0. -1.
</event>
<event>
 7    1  0.2486105E-010  0.4778727E+02  0.7816164E-02  0.1312668E+00
        -11   -1    0    0    0    0  0.00000000000E+00  0.00000000000E+00  0.45593999997E+02  0.45594000000E+02  0.51100000000E-03 0.  1.
         11   -1    0    0    0    0 -0.00000000000E+00 -0.00000000000E+00 -0.45593999997E+02  0.45594000000E+02  0.51100000000E-03 0. -1.
    9900012    2    1    2    0    0 -0.28935121374E+02  0.12766712202E+02  0.29721930496E+02  0.47787270263E+02  0.19999996436E+02 0.  0.
         12    1    1    2    0    0  0.28935121374E+02 -0.12766712202E+02 -0.29721930496E+02  0.43400729737E+02  0.00000000000E+00 0. -1.
         11    1    3    3    0    0 -0.78249355170E+01  0.18339015023E+01  0.35870704385E+01  0.88011297660E+01  0.51100000000E-03 0. -1.
        -11    1    3    3    0    0 -0.13382035100E+02  0.10208841716E+01  0.48556975463E+01  0.14272311195E+02  0.51100000000E-03 0.  1.
         12    1    3    3    0    0 -0.77281507562E+01  0.99119265277E+01  0.21279162511E+02  0.24713829302E+02  0.00000000000E+00 0. -1.
</event>
<event>
 7    1  0.2486105E-010  0.4778728E+02  0.7816164E-02  0.1312668E+00
        -11   -1    0    0    0    0  0.00000000000E+00  0.00000000000E+00  0.45593999997E+02  0.45594000000E+02  0.51100000000E-03 0. -1.
         11   -1    0    0    0    0 -0.00000000000E+00 -0.00000000000E+00 -0.45593999997E+02  0.45594000000E+02  0.51100000000E-03 0.  1.
    9900012    2    1    2    0    0 -0.27460777077E+02  0.32920883558E+01 -0.33446835050E+02  0.47787275371E+02  0.20000019728E+02 0.  0.
         12    1    1    2    0    0  0.27460777077E+02 -0.32920883558E+01  0.33446835050E+02  0.43400724629E+02  0.00000000000E+00 0. -1.
         11    1    3    3    0    0 -0.63252861480E+01  0.11777099921E+01 -0.24014699242E+01  0.68675544219E+01  0.51100000000E-03 0. -1.
        -11    1    3    3    0    0 -0.20626495734E+02  0.49661564717E+01 -0.31509062442E+02  0.37985998112E+02  0.51100000000E-03 0.  1.
         12    1    3    3    0    0 -0.50899519542E+00 -0.28517781080E+01  0.46369731576E+00  0.29337228374E+01  0.00000000000E+00 0. -1.
</event>
<event>
 7    1  0.2486105E-010  0.4778733E+02  0.7816164E-02  0.1312667E+00
        -11   -1    0    0    0    0  0.00000000000E+00  0.00000000000E+00  0.45593999997E+02  0.45594000000E+02  0.51100000000E-03 0.  1.
         11   -1    0    0    0    0 -0.00000000000E+00 -0.00000000000E+00 -0.45593999997E+02  0.45594000000E+02  0.51100000000E-03 0. -1.
    9900012    2    1    2    0    0 -0.51404729800E+01 -0.25561746244E+02  0.34695683231E+02  0.47787334471E+02  0.20000289186E+02 0.  0.
         12    1    1    2    0    0  0.51404729800E+01  0.25561746244E+02 -0.34695683231E+02  0.43400665529E+02  0.00000000000E+00 0. -1.
         11    1    3    3    0    0  0.28932813607E+01 -0.36278757834E+01 -0.80679359873E-01  0.46410202706E+01  0.51100000000E-03 0. -1.
        -11    1    3    3    0    0 -0.18841590299E+01 -0.12322817530E+02  0.10410940963E+02  0.16241600264E+02  0.51100000000E-03 0.  1.
        -12    1    3    3    0    0 -0.61495953108E+01 -0.96110529298E+01  0.24365421628E+02  0.26904713937E+02  0.00000000000E+00 0.  1.
</event>
<event>
 7    1  0.2486105E-010  0.4778727E+02  0.7816164E-02  0.1312668E+00
        -11   -1    0    0    0    0  0.00000000000E+00  0.00000000000E+00  0.45593999997E+02  0.45594000000E+02  0.51100000000E-03 0.  1.
         11   -1    0    0    0    0 -0.00000000000E+00 -0.00000000000E+00 -0.45593999997E+02  0.45594000000E+02  0.51100000000E-03 0. -1.
    9900012    2    1    2    0    0  0.27865047148E+02 -0.10389510859E+02  0.31610447352E+02  0.47787272238E+02  0.20000005441E+02 0.  0.
         12    1    1    2    0    0 -0.27865047148E+02  0.10389510859E+02 -0.31610447352E+02  0.43400727762E+02  0.00000000000E+00 0. -1.
         11    1    3    3    0    0  0.95495549462E+01  0.15506024857E+00  0.27032327214E+01  0.99260017509E+01  0.51100000000E-03 0. -1.
        -11    1    3    3    0    0  0.27744135807E+01  0.26483896087E+01  0.66675660970E+01  0.76920592922E+01  0.51100000000E-03 0.  1.
        -12    1    3    3    0    0  0.15541078621E+02 -0.13192960716E+02  0.22239648534E+02  0.30169211195E+02  0.00000000000E+00 0.  1.
</event>
<event>
 7    1  0.2486105E-010  0.4778727E+02  0.7816164E-02  0.1312668E+00
        -11   -1    0    0    0    0  0.00000000000E+00  0.00000000000E+00  0.45593999997E+02  0.45594000000E+02  0.51100000000E-03 0.  1.
         11   -1    0    0    0    0 -0.00000000000E+00 -0.00000000000E+00 -0.45593999997E+02  0.45594000000E+02  0.51100000000E-03 0. -1.
    9900012    2    1    2    0    0 -0.31413511616E+02  0.27662487620E+02  0.11471756165E+02  0.47787272784E+02  0.20000007931E+02 0.  0.
         12    1    1    2    0    0  0.31413511616E+02 -0.27662487620E+02 -0.11471756165E+02  0.43400727216E+02  0.00000000000E+00 0. -1.
         11    1    3    3    0    0 -0.10309029752E+02  0.12804409735E+02 -0.85396962739E+00  0.16460810049E+02  0.51100000000E-03 0. -1.
        -11    1    3    3    0    0 -0.10883160537E+02  0.14986907727E+02  0.70008725117E+01  0.19800575817E+02  0.51100000000E-03 0.  1.
         12    1    3    3    0    0 -0.10221321327E+02 -0.12882984100E+00  0.53248532809E+01  0.11525886919E+02  0.00000000000E+00 0. -1.
</event>
<event>
 7    1  0.2486105E-010  0.4778726E+02  0.7816164E-02  0.1312668E+00
        -11   -1    0    0    0    0  0.00000000000E+00  0.00000000000E+00  0.45593999997E+02  0.45594000000E+02  0.51100000000E-03 0.  1.
         11   -1    0    0    0    0 -0.00000000000E+00 -0.00000000000E+00 -0.45593999997E+02  0.45594000000E+02  0.51100000000E-03 0. -1.
    9900012    2    1    2    0    0  0.41044685817E+02  0.11892415106E+02 -0.75847564800E+01  0.47787259203E+02  0.19999946011E+02 0.  0.
         12    1    1    2    0    0 -0.41044685817E+02 -0.11892415106E+02  0.75847564800E+01  0.43400740797E+02  0.00000000000E+00 0. -1.
         11    1    3    3    0    0  0.15797137946E+02  0.80461836755E+01  0.46641290572E+00  0.17734378486E+02  0.51100000000E-03 0. -1.
        -11    1    3    3    0    0  0.22651626918E+02  0.76141946498E+01 -0.46344993113E+01  0.24342365258E+02  0.51100000000E-03 0.  1.
         12    1    3    3    0    0  0.25959209523E+01 -0.37679632193E+01 -0.34166700744E+01  0.57105154593E+01  0.00000000000E+00 0. -1.
</event>
<event>
 7    1  0.2486105E-010  0.4778727E+02  0.7816164E-02  0.1312668E+00
        -11   -1    0    0    0    0  0.00000000000E+00  0.00000000000E+00  0.45593999997E+02  0.45594000000E+02  0.51100000000E-03 0.  1.
         11   -1    0    0    0    0 -0.00000000000E+00 -0.00000000000E+00 -0.45593999997E+02  0.45594000000E+02  0.51100000000E-03 0. -1.
    9900012    2    1    2    0    0  0.51835790162E+01 -0.22428891920E+02  0.36792643049E+02  0.47787271127E+02  0.20000000376E+02 0.  0.
         12    1    1    2    0    0 -0.51835790162E+01  0.22428891920E+02 -0.36792643049E+02  0.43400728873E+02  0.00000000000E+00 0. -1.
         11    1    3    3    0    0 -0.12590076698E+01 -0.16413769664E+02  0.32126662123E+02  0.36098744498E+02  0.51100000000E-03 0. -1.
        -11    1    3    3    0    0  0.25656531355E+01 -0.49083697781E+01  0.52298437070E+01  0.76174756547E+01  0.51100000000E-03 0.  1.
         12    1    3    3    0    0  0.38769335505E+01 -0.11067524770E+01 -0.56386278021E+00  0.40710509743E+01  0.00000000000E+00 0. -1.
</event>
<event>
 7    1  0.2486105E-010  0.4778727E+02  0.7816164E-02  0.1312668E+00
        -11   -1    0    0    0    0  0.00000000000E+00  0.00000000000E+00  0.45593999997E+02  0.45594000000E+02  0.51100000000E-03 0.  1.
         11   -1    0    0    0    0 -0.00000000000E+00 -0.00000000000E+00 -0.45593999997E+02  0.45594000000E+02  0.51100000000E-03 0. -1.
    9900012    2    1    2    0    0 -0.70770277494E+01  0.89539580006E+01  0.41873209892E+02  0.47787269680E+02  0.19999993781E+02 0.  0.
         12    1    1    2    0    0  0.70770277494E+01 -0.89539580006E+01 -0.41873209892E+02  0.43400730320E+02  0.00000000000E+00 0. -1.
         11    1    3    3    0    0  0.31501744277E+00  0.50817989816E+01  0.12683964501E+02  0.13667731070E+02  0.51100000000E-03 0. -1.
        -11    1    3    3    0    0  0.76797039042E+00 -0.10927761570E+01  0.22306188631E+02  0.22346140377E+02  0.51100000000E-03 0.  1.
         12    1    3    3    0    0 -0.81600155826E+01  0.49649351760E+01  0.68830567604E+01  0.11773398234E+02  0.00000000000E+00 0. -1.
</event>
<event>
 7    1  0.2486105E-010  0.4778727E+02  0.7816164E-02  0.1312668E+00
        -11   -1    0    0    0    0  0.00000000000E+00  0.00000000000E+00  0.45593999997E+02  0.45594000000E+02  0.51100000000E-03 0.  1.
         11   -1    0    0    0    0 -0.00000000000E+00 -0.00000000000E+00 -0.45593999997E+02  0.45594000000E+02  0.51100000000E-03 0. -1.
    9900012    2    1    2    0    0  0.11839298650E+02  0.36899316825E+02  0.19542119781E+02  0.47787273967E+02  0.20000013325E+02 0.  0.
         12    1    1    2    0    0 -0.11839298650E+02 -0.36899316825E+02 -0.19542119781E+02  0.43400726033E+02  0.00000000000E+00 0. -1.
         11    1    3    3    0    0  0.96278108721E+00 -0.22970519834E+00  0.27452826713E+01  0.29182681690E+01  0.51100000000E-03 0. -1.
        -11    1    3    3    0    0  0.56523735321E+01  0.84759755324E+01  0.11326738616E+02  0.15234385308E+02  0.51100000000E-03 0.  1.
        -12    1    3    3    0    0  0.52241440304E+01  0.28653046491E+02  0.54700984937E+01  0.29634620490E+02  0.00000000000E+00 0.  1.
</event>
<event>
 7    1  0.2486105E-010  0.4778727E+02  0.7816164E-02  0.1312668E+00
        -11   -1    0    0    0    0  0.00000000000E+00  0.00000000000E+00  0.45593999997E+02  0.45594000000E+02  0.51100000000E-03 0.  1.
         11   -1    0    0    0    0 -0.00000000000E+00 -0.00000000000E+00 -0.45593999997E+02  0.45594000000E+02  0.51100000000E-03 0. -1.
    9900012    2    1    2    0    0 -0.16718586691E+02  0.33899597923E+02  0.21329070899E+02  0.47787272521E+02  0.20000006732E+02 0.  0.
         12    1    1    2    0    0  0.16718586691E+02 -0.33899597923E+02 -0.21329070899E+02  0.43400727479E+02  0.00000000000E+00 0. -1.
         11    1    3    3    0    0 -0.79103126110E+01  0.13949274863E+02  0.15760463812E+02  0.22484384240E+02  0.51100000000E-03 0.  1.
        -11    1    3    3    0    0 -0.55244557145E+01  0.12929630457E+01  0.20627326905E+01  0.60370713755E+01  0.51100000000E-03 0. -1.
         12    1    3    3    0    0 -0.32838183657E+01  0.18657360014E+02  0.35058743968E+01  0.19265816906E+02  0.00000000000E+00 0. -1.
</event>
<event>
 7    1  0.2486105E-010  0.4778726E+02  0.7816164E-02  0.1312668E+00
        -11   -1    0    0    0    0  0.00000000000E+00  0.00000000000E+00  0.45593999997E+02  0.45594000000E+02  0.51100000000E-03 0. -1.
         11   -1    0    0    0    0 -0.00000000000E+00 -0.00000000000E+00 -0.45593999997E+02  0.45594000000E+02  0.51100000000E-03 0.  1.
    9900012    2    1    2    0    0  0.21690876122E+02 -0.34771251914E+02 -0.14286000662E+02  0.47787264044E+02  0.19999968081E+02 0.  0.
         12    1    1    2    0    0 -0.21690876122E+02  0.34771251914E+02  0.14286000662E+02  0.43400735956E+02  0.00000000000E+00 0. -1.
         11    1    3    3    0    0 -0.29097366605E+01 -0.56689510712E+01 -0.55264043096E+01  0.84347328669E+01  0.51100000000E-03 0. -1.
        -11    1    3    3    0    0  0.64964464141E+01 -0.63827863914E+01 -0.38603298991E+01  0.98917099290E+01  0.51100000000E-03 0.  1.
        -12    1    3    3    0    0  0.18104166369E+02 -0.22719514452E+02 -0.48992664532E+01  0.29460821248E+02  0.00000000000E+00 0.  1.
</event>
<event>
 7    1  0.2486105E-010  0.4778727E+02  0.7816164E-02  0.1312668E+00
        -11   -1    0    0    0    0  0.00000000000E+00  0.00000000000E+00  0.45593999997E+02  0.45594000000E+02  0.51100000000E-03 0.  1.
         11   -1    0    0    0    0 -0.00000000000E+00 -0.00000000000E+00 -0.45593999997E+02  0.45594000000E+02  0.51100000000E-03 0. -1.
    9900012    2    1    2    0    0  0.26053528718E+02 -0.28192196338E+02  0.20249367870E+02  0.47787271986E+02  0.20000004293E+02 0.  0.
         12    1    1    2    0    0 -0.26053528718E+02  0.28192196338E+02 -0.20249367870E+02  0.43400728014E+02  0.00000000000E+00 0. -1.
         11    1    3    3    0    0  0.20052027196E+01 -0.11769938171E+02  0.64330969506E+01  0.13562338262E+02  0.51100000000E-03 0. -1.
        -11    1    3    3    0    0  0.10217023400E+02 -0.13711884831E+02  0.90465643128E+01  0.19345378748E+02  0.51100000000E-03 0.  1.
         12    1    3    3    0    0  0.13831302598E+02 -0.27103733369E+01  0.47697066064E+01  0.14879554976E+02  0.00000000000E+00 0. -1.
</event>
<event>
 7    1  0.2486105E-010  0.4778727E+02  0.7816164E-02  0.1312668E+00
        -11   -1    0    0    0    0  0.00000000000E+00  0.00000000000E+00  0.45593999997E+02  0.45594000000E+02  0.51100000000E-03 0.  1.
         11   -1    0    0    0    0 -0.00000000000E+00 -0.00000000000E+00 -0.45593999997E+02  0.45594000000E+02  0.51100000000E-03 0. -1.
    9900012    2    1    2    0    0 -0.25813228418E+01 -0.11101569467E+02  0.41877384487E+02  0.47787269549E+02  0.19999993182E+02 0.  0.
         12    1    1    2    0    0  0.25813228418E+01  0.11101569467E+02 -0.41877384487E+02  0.43400730451E+02  0.00000000000E+00 0. -1.
         11    1    3    3    0    0 -0.13087621318E+01 -0.86800919096E+01  0.15186190014E+02  0.17540730352E+02  0.51100000000E-03 0. -1.
        -11    1    3    3    0    0 -0.21496854876E+01 -0.25491471544E+01  0.28253881821E+02  0.28449976048E+02  0.51100000000E-03 0.  1.
         12    1    3    3    0    0  0.87712477760E+00  0.12766959737E+00 -0.15626873482E+01  0.17965631494E+01  0.00000000000E+00 0. -1.
</event>
<event>
 7    1  0.2486105E-010  0.4778727E+02  0.7816164E-02  0.1312668E+00
        -11   -1    0    0    0    0  0.00000000000E+00  0.00000000000E+00  0.45593999997E+02  0.45594000000E+02  0.51100000000E-03 0. -1.
         11   -1    0    0    0    0 -0.00000000000E+00 -0.00000000000E+00 -0.45593999997E+02  0.45594000000E+02  0.51100000000E-03 0.  1.
    9900012    2    1    2    0    0 -0.17271880424E+02  0.34733555501E+02 -0.19464983875E+02  0.47787270417E+02  0.19999997139E+02 0.  0.
         12    1    1    2    0    0  0.17271880424E+02 -0.34733555501E+02  0.19464983875E+02  0.43400729583E+02  0.00000000000E+00 0. -1.
         11    1    3    3    0    0 -0.31697051159E+00  0.19160241894E+00 -0.55968925444E+01  0.56091343545E+01  0.51100000000E-03 0. -1.
        -11    1    3    3    0    0 -0.13722167586E+02  0.16316632629E+02 -0.77026912965E+01  0.22668520840E+02  0.51100000000E-03 0.  1.
        -12    1    3    3    0    0 -0.32327423264E+01  0.18225320453E+02 -0.61654000339E+01  0.19509615222E+02  0.00000000000E+00 0.  1.
</event>
<event>
 7    1  0.2486105E-010  0.4778727E+02  0.7816164E-02  0.1312668E+00
        -11   -1    0    0    0    0  0.00000000000E+00  0.00000000000E+00  0.45593999997E+02  0.45594000000E+02  0.51100000000E-03 0. -1.
         11   -1    0    0    0    0 -0.00000000000E+00 -0.00000000000E+00 -0.45593999997E+02  0.45594000000E+02  0.51100000000E-03 0.  1.
    9900012    2    1    2    0    0  0.23355205160E+02  0.35641094484E+02 -0.82383399529E+01  0.47787268793E+02  0.19999989735E+02 0.  0.
         12    1    1    2    0    0 -0.23355205160E+02 -0.35641094484E+02  0.82383399529E+01  0.43400731207E+02  0.00000000000E+00 0. -1.
         11    1    3    3    0    0  0.20996103584E+01  0.21253710099E+01  0.13227356108E+01  0.32672917445E+01  0.51100000000E-03 0. -1.
        -11    1    3    3    0    0  0.10590039081E+01  0.10218353297E+02  0.37504217214E+01  0.10936265210E+02  0.51100000000E-03 0.  1.
         12    1    3    3    0    0  0.20196590894E+02  0.23297370177E+02 -0.13311497285E+02  0.33583711839E+02  0.00000000000E+00 0. -1.
</event>
<event>
 7    1  0.2486105E-010  0.4778727E+02  0.7816164E-02  0.1312668E+00
        -11   -1    0    0    0    0  0.00000000000E+00  0.00000000000E+00  0.45593999997E+02  0.45594000000E+02  0.51100000000E-03 0. -1.
         11   -1    0    0    0    0 -0.00000000000E+00 -0.00000000000E+00 -0.45593999997E+02  0.45594000000E+02  0.51100000000E-03 0.  1.
    9900012    2    1    2    0    0  0.15315576849E+02  0.36985432908E+02  0.16767052888E+02  0.47787271848E+02  0.20000003663E+02 0.  0.
         12    1    1    2    0    0 -0.15315576849E+02 -0.36985432908E+02 -0.16767052888E+02  0.43400728152E+02  0.00000000000E+00 0. -1.
         11    1    3    3    0    0  0.22812643959E+01 -0.79498854078E+00 -0.40966761310E+00  0.24503064784E+01  0.51100000000E-03 0. -1.
        -11    1    3    3    0    0  0.11934628764E+02  0.21505563390E+02  0.53011843795E+01  0.25160031331E+02  0.51100000000E-03 0.  1.
         12    1    3    3    0    0  0.10996836890E+01  0.16274858058E+02  0.11875536121E+02  0.20176934039E+02  0.00000000000E+00 0. -1.
</event>
<event>
 7    1  0.2486105E-010  0.4778724E+02  0.7816164E-02  0.1312668E+00
        -11   -1    0    0    0    0  0.00000000000E+00  0.00000000000E+00  0.45593999997E+02  0.45594000000E+02  0.51100000000E-03 0. -1.
         11   -1    0    0    0    0 -0.00000000000E+00 -0.00000000000E+00 -0.45593999997E+02  0.45594000000E+02  0.51100000000E-03 0.  1.
    9900012    2    1    2    0    0 -0.37508678668E+02 -0.10979558365E+01 -0.21806400104E+02  0.47787244616E+02  0.19999879500E+02 0.  0.
         12    1    1    2    0    0  0.37508678668E+02  0.10979558365E+01  0.21806400104E+02  0.43400755384E+02  0.00000000000E+00 0. -1.
         11    1    3    3    0    0 -0.88294277245E+01  0.20474610770E+01 -0.63176567981E+01  0.11048243231E+02  0.51100000000E-03 0. -1.
        -11    1    3    3    0    0 -0.17545354375E+02 -0.96440434105E+01 -0.12159515389E+02  0.23424364414E+02  0.51100000000E-03 0.  1.
        -12    1    3    3    0    0 -0.11133896568E+02  0.64986264970E+01 -0.33292279169E+01  0.13314636971E+02  0.00000000000E+00 0.  1.
</event>
<event>
 7    1  0.2486105E-010  0.4778727E+02  0.7816164E-02  0.1312668E+00
        -11   -1    0    0    0    0  0.00000000000E+00  0.00000000000E+00  0.45593999997E+02  0.45594000000E+02  0.51100000000E-03 0.  1.
         11   -1    0    0    0    0 -0.00000000000E+00 -0.00000000000E+00 -0.45593999997E+02  0.45594000000E+02  0.51100000000E-03 0. -1.
    9900012    2    1    2    0    0 -0.24041025707E+02 -0.95381212138E+01  0.34852208309E+02  0.47787273078E+02  0.20000009272E+02 0.  0.
         12    1    1    2    0    0  0.24041025707E+02  0.95381212138E+01 -0.34852208309E+02  0.43400726922E+02  0.00000000000E+00 0. -1.
         11    1    3    3    0    0 -0.26783184556E+01  0.24793349153E+01  0.11047309348E+01  0.38132560983E+01  0.51100000000E-03 0.  1.
        -11    1    3    3    0    0 -0.13691280406E+01  0.21578025766E+01  0.39664727879E+00  0.25861076691E+01  0.51100000000E-03 0. -1.
        -12    1    3    3    0    0 -0.19993579210E+02 -0.14175258706E+02  0.33350830096E+02  0.41387909311E+02  0.00000000000E+00 0.  1.
</event>
<event>
 7    1  0.2486105E-010  0.4778727E+02  0.7816164E-02  0.1312668E+00
        -11   -1    0    0    0    0  0.00000000000E+00  0.00000000000E+00  0.45593999997E+02  0.45594000000E+02  0.51100000000E-03 0. -1.
         11   -1    0    0    0    0 -0.00000000000E+00 -0.00000000000E+00 -0.45593999997E+02  0.45594000000E+02  0.51100000000E-03 0.  1.
    9900012    2    1    2    0    0 -0.41169996483E+02  0.10006372655E+02 -0.94088973018E+01  0.47787268986E+02  0.19999990615E+02 0.  0.
         12    1    1    2    0    0  0.41169996483E+02 -0.10006372655E+02  0.94088973018E+01  0.43400731014E+02  0.00000000000E+00 0. -1.
         11    1    3    3    0    0 -0.86340745182E+01  0.29448160970E+01 -0.54140302063E+01  0.10608058633E+02  0.51100000000E-03 0. -1.
        -11    1    3    3    0    0 -0.24443286880E+02  0.84735674856E+01 -0.91960556864E+01  0.27456202576E+02  0.51100000000E-03 0.  1.
         12    1    3    3    0    0 -0.80926350842E+01 -0.14120109274E+01  0.52011885909E+01  0.97230077765E+01  0.00000000000E+00 0. -1.
</event>
<event>
 7    1  0.2486105E-010  0.4778727E+02  0.7816164E-02  0.1312668E+00
        -11   -1    0    0    0    0  0.00000000000E+00  0.00000000000E+00  0.45593999997E+02  0.45594000000E+02  0.51100000000E-03 0.  1.
         11   -1    0    0    0    0 -0.00000000000E+00 -0.00000000000E+00 -0.45593999997E+02  0.45594000000E+02  0.51100000000E-03 0. -1.
    9900012    2    1    2    0    0 -0.40156405984E+02  0.30981885910E+01  0.16170589546E+02  0.47787266361E+02  0.19999978647E+02 0.  0.
         12    1    1    2    0    0  0.40156405984E+02 -0.30981885910E+01 -0.16170589546E+02  0.43400733639E+02  0.00000000000E+00 0. -1.
         11    1    3    3    0    0 -0.25619136002E+02  0.20065798066E+01  0.56600141802E+01  0.26313537444E+02  0.51100000000E-03 0. -1.
        -11    1    3    3    0    0 -0.16267301808E+02 -0.57752226545E+00  0.96343828542E+01  0.18915072649E+02  0.51100000000E-03 0.  1.
        -12    1    3    3    0    0  0.17300318262E+01  0.16691310498E+01  0.87619251149E+00  0.25586562681E+01  0.00000000000E+00 0.  1.
</event>
<event>
 7    1  0.2486105E-010  0.4778727E+02  0.7816164E-02  0.1312668E+00
        -11   -1    0    0    0    0  0.00000000000E+00  0.00000000000E+00  0.45593999997E+02  0.45594000000E+02  0.51100000000E-03 0.  1.
         11   -1    0    0    0    0 -0.00000000000E+00 -0.00000000000E+00 -0.45593999997E+02  0.45594000000E+02  0.51100000000E-03 0. -1.
    9900012    2    1    2    0    0  0.19799201523E+02 -0.90850522048E+01  0.37537667166E+02  0.47787274075E+02  0.20000013820E+02 0.  0.
         12    1    1    2    0    0 -0.19799201523E+02  0.90850522048E+01 -0.37537667166E+02  0.43400725925E+02  0.00000000000E+00 0. -1.
         11    1    3    3    0    0 -0.24232074846E+00  0.25536072980E+00 -0.76993774168E+00  0.84660075280E+00  0.51100000000E-03 0. -1.
        -11    1    3    3    0    0  0.14920062608E+02 -0.52139475827E+01  0.12057189008E+02  0.19878866282E+02  0.51100000000E-03 0.  1.
         12    1    3    3    0    0  0.51214596633E+01 -0.41264653519E+01  0.26250415900E+02  0.27061807041E+02  0.00000000000E+00 0. -1.
</event>
<event>
 7    1  0.2486105E-010  0.4778726E+02  0.7816164E-02  0.1312668E+00
        -11   -1    0    0    0    0  0.00000000000E+00  0.00000000000E+00  0.45593999997E+02  0.45594000000E+02  0.51100000000E-03 0.  1.
         11   -1    0    0    0    0 -0.00000000000E+00 -0.00000000000E+00 -0.45593999997E+02  0.45594000000E+02  0.51100000000E-03 0. -1.
    9900012    2    1    2    0    0  0.33758195818E+02 -0.11111017314E+00  0.27276291527E+02  0.47787260261E+02  0.19999950836E+02 0.  0.
         12    1    1    2    0    0 -0.33758195818E+02  0.11111017314E+00 -0.27276291527E+02  0.43400739739E+02  0.00000000000E+00 0. -1.
         11    1    3    3    0    0  0.15792447782E+02 -0.46518975846E+01  0.78378009538E+01  0.18233833446E+02  0.51100000000E-03 0. -1.
        -11    1    3    3    0    0  0.17057513785E+02  0.10689105394E+01  0.10846881638E+02  0.20242435323E+02  0.51100000000E-03 0.  1.
         12    1    3    3    0    0  0.90823425104E+00  0.34718768721E+01  0.85916089355E+01  0.93109914923E+01  0.00000000000E+00 0. -1.
</event>
<event>
 7    1  0.2486105E-010  0.4778727E+02  0.7816164E-02  0.1312668E+00
        -11   -1    0    0    0    0  0.00000000000E+00  0.00000000000E+00  0.45593999997E+02  0.45594000000E+02  0.51100000000E-03 0.  1.
         11   -1    0    0    0    0 -0.00000000000E+00 -0.00000000000E+00 -0.45593999997E+02  0.45594000000E+02  0.51100000000E-03 0. -1.
    9900012    2    1    2    0    0  0.39059101533E+02 -0.81550035852E+01  0.17073534466E+02  0.47787273333E+02  0.20000010435E+02 0.  0.
         12    1    1    2    0    0 -0.39059101533E+02  0.81550035852E+01 -0.17073534466E+02  0.43400726667E+02  0.00000000000E+00 0. -1.
         11    1    3    3    0    0  0.13935283370E+01 -0.25996285666E+01 -0.17364234501E+01  0.34227410901E+01  0.51100000000E-03 0. -1.
        -11    1    3    3    0    0  0.19098604835E+02 -0.89665735536E+01  0.76980434096E+01  0.22459207923E+02  0.51100000000E-03 0.  1.
        -12    1    3    3    0    0  0.18566968361E+02  0.34111985350E+01  0.11111914507E+02  0.21905324320E+02  0.00000000000E+00 0.  1.
</event>
<event>
 7    1  0.2486105E-010  0.4778726E+02  0.7816164E-02  0.1312668E+00
        -11   -1    0    0    0    0  0.00000000000E+00  0.00000000000E+00  0.45593999997E+02  0.45594000000E+02  0.51100000000E-03 0.  1.
         11   -1    0    0    0    0 -0.00000000000E+00 -0.00000000000E+00 -0.45593999997E+02  0.45594000000E+02  0.51100000000E-03 0. -1.
    9900012    2    1    2    0    0  0.10047953646E+02 -0.42174877612E+02  0.19854867624E+01  0.47787264617E+02  0.19999970696E+02 0.  0.
         12    1    1    2    0    0 -0.10047953646E+02  0.42174877612E+02 -0.19854867624E+01  0.43400735383E+02  0.00000000000E+00 0. -1.
         11    1    3    3    0    0  0.64769907688E+01 -0.67015779979E+01 -0.12180595891E+01  0.93992673387E+01  0.51100000000E-03 0. -1.
        -11    1    3    3    0    0  0.75709521173E+01 -0.14158657898E+02  0.44637496413E+01  0.16664692333E+02  0.51100000000E-03 0.  1.
         12    1    3    3    0    0 -0.39999892401E+01 -0.21314641717E+02 -0.12602032898E+01  0.21723304946E+02  0.00000000000E+00 0. -1.
</event>
<event>
 7    1  0.2486105E-010  0.4778728E+02  0.7816164E-02  0.1312668E+00
        -11   -1    0    0    0    0  0.00000000000E+00  0.00000000000E+00  0.45593999997E+02  0.45594000000E+02  0.51100000000E-03 0.  1.
         11   -1    0    0    0    0 -0.00000000000E+00 -0.00000000000E+00 -0.45593999997E+02  0.45594000000E+02  0.51100000000E-03 0. -1.
    9900012    2    1    2    0    0 -0.34764312801E+02 -0.20400204282E+02  0.16090277348E+02  0.47787276453E+02  0.20000024658E+02 0.  0.
         12    1    1    2    0    0  0.34764312801E+02  0.20400204282E+02 -0.16090277348E+02  0.43400723547E+02  0.00000000000E+00 0. -1.
         11    1    3    3    0    0 -0.13861334662E+01 -0.96417971716E+00  0.33445826009E+01  0.37466306928E+01  0.51100000000E-03 0. -1.
        -11    1    3    3    0    0 -0.23999231004E+02 -0.18227990731E+02  0.15897549625E+02  0.34072787077E+02  0.51100000000E-03 0.  1.
         12    1    3    3    0    0 -0.93789483313E+01 -0.12080338339E+01 -0.31518548781E+01  0.99678586827E+01  0.00000000000E+00 0. -1.
</event>
<event>
 7    1  0.2486105E-010  0.4778727E+02  0.7816164E-02  0.1312668E+00
        -11   -1    0    0    0    0  0.00000000000E+00  0.00000000000E+00  0.45593999997E+02  0.45594000000E+02  0.51100000000E-03 0. -1.
         11   -1    0    0    0    0 -0.00000000000E+00 -0.00000000000E+00 -0.45593999997E+02  0.45594000000E+02  0.51100000000E-03 0.  1.
    9900012    2    1    2    0    0  0.10849116051E+02  0.37992106780E+02 -0.17958837115E+02  0.47787270431E+02  0.19999997201E+02 0.  0.
         12    1    1    2    0    0 -0.10849116051E+02 -0.37992106780E+02  0.17958837115E+02  0.43400729569E+02  0.00000000000E+00 0. -1.
         11    1    3    3    0    0  0.40921441117E+00  0.19723591727E+02 -0.94781019286E+01  0.21886569934E+02  0.51100000000E-03 0. -1.
        -11    1    3    3    0    0 -0.26803994502E+01  0.45276938091E+01 -0.32903218942E+01  0.62057047037E+01  0.51100000000E-03 0.  1.
        -12    1    3    3    0    0  0.13120301090E+02  0.13740821244E+02 -0.51904132921E+01  0.19694995793E+02  0.00000000000E+00 0.  1.
</event>
<event>
 7    1  0.2486105E-010  0.4778727E+02  0.7816164E-02  0.1312668E+00
        -11   -1    0    0    0    0  0.00000000000E+00  0.00000000000E+00  0.45593999997E+02  0.45594000000E+02  0.51100000000E-03 0.  1.
         11   -1    0    0    0    0 -0.00000000000E+00 -0.00000000000E+00 -0.45593999997E+02  0.45594000000E+02  0.51100000000E-03 0. -1.
    9900012    2    1    2    0    0  0.58089845277E+01  0.35137837888E+02 -0.24803459164E+02  0.47787267988E+02  0.19999986063E+02 0.  0.
         12    1    1    2    0    0 -0.58089845277E+01 -0.35137837888E+02  0.24803459164E+02  0.43400732012E+02  0.00000000000E+00 0. -1.
         11    1    3    3    0    0  0.36145305839E+01  0.15934868568E+02 -0.12864048525E+02  0.20795879696E+02  0.51100000000E-03 0. -1.
        -11    1    3    3    0    0 -0.10688632379E+01  0.63945396672E+01  0.29144187359E+01  0.71081954817E+01  0.51100000000E-03 0.  1.
        -12    1    3    3    0    0  0.32633171817E+01  0.12808429653E+02 -0.14853829375E+02  0.19883192810E+02  0.00000000000E+00 0.  1.
</event>
<event>
 7    1  0.2486105E-010  0.4778727E+02  0.7816164E-02  0.1312668E+00
        -11   -1    0    0    0    0  0.00000000000E+00  0.00000000000E+00  0.45593999997E+02  0.45594000000E+02  0.51100000000E-03 0.  1.
         11   -1    0    0    0    0 -0.00000000000E+00 -0.00000000000E+00 -0.45593999997E+02  0.45594000000E+02  0.51100000000E-03 0. -1.
    9900012    2    1    2    0    0 -0.62972040847E+01 -0.22822700289E+02  0.36374344350E+02  0.47787270114E+02  0.19999995757E+02 0.  0.
         12    1    1    2    0    0  0.62972040847E+01  0.22822700289E+02 -0.36374344350E+02  0.43400729886E+02  0.00000000000E+00 0. -1.
         11    1    3    3    0    0 -0.81514573064E+01 -0.17300142352E+02  0.17341450812E+02  0.25816024058E+02  0.51100000000E-03 0. -1.
        -11    1    3    3    0    0 -0.26494444620E+01 -0.47765516806E+01  0.14681062486E+02  0.15664245845E+02  0.51100000000E-03 0.  1.
         12    1    3    3    0    0  0.45036976837E+01 -0.74600625673E+00  0.43518310520E+01  0.63070002114E+01  0.00000000000E+00 0. -1.
</event>
<event>
 7    1  0.2486105E-010  0.4778728E+02  0.7816164E-02  0.1312668E+00
        -11   -1    0    0    0    0  0.00000000000E+00  0.00000000000E+00  0.45593999997E+02  0.45594000000E+02  0.51100000000E-03 0.  1.
         11   -1    0    0    0    0 -0.00000000000E+00 -0.00000000000E+00 -0.45593999997E+02  0.45594000000E+02  0.51100000000E-03 0. -1.
    9900012    2    1    2    0    0 -0.19601208156E+02  0.33857378303E+02 -0.18790778889E+02  0.47787276527E+02  0.20000024997E+02 0.  0.
         12    1    1    2    0    0  0.19601208156E+02 -0.33857378303E+02  0.18790778889E+02  0.43400723473E+02  0.00000000000E+00 0. -1.
         11    1    3    3    0    0 -0.10238485294E+02  0.13508557256E+02 -0.13541825162E+02  0.21695361929E+02  0.51100000000E-03 0.  1.
        -11    1    3    3    0    0  0.19537899743E+00  0.22656786103E+01 -0.51589525418E+01  0.56379308356E+01  0.51100000000E-03 0. -1.
        -12    1    3    3    0    0 -0.95581018592E+01  0.18083142437E+02 -0.90001185456E-01  0.20453983763E+02  0.00000000000E+00 0.  1.
</event>
<event>
 7    1  0.2486105E-010  0.4778728E+02  0.7816164E-02  0.1312668E+00
        -11   -1    0    0    0    0  0.00000000000E+00  0.00000000000E+00  0.45593999997E+02  0.45594000000E+02  0.51100000000E-03 0.  1.
         11   -1    0    0    0    0 -0.00000000000E+00 -0.00000000000E+00 -0.45593999997E+02  0.45594000000E+02  0.51100000000E-03 0. -1.
    9900012    2    1    2    0    0 -0.14752404570E+02  0.39390390169E+02  0.10695148968E+02  0.47787280079E+02  0.20000041190E+02 0.  0.
         12    1    1    2    0    0  0.14752404570E+02 -0.39390390169E+02 -0.10695148968E+02  0.43400719921E+02  0.00000000000E+00 0. -1.
         11    1    3    3    0    0 -0.73858981814E+01  0.17240251024E+02  0.23049754542E+01  0.18896842578E+02  0.51100000000E-03 0.  1.
        -11    1    3    3    0    0 -0.53510054018E+01  0.23246436734E+02  0.43550578210E+01  0.24248641374E+02  0.51100000000E-03 0. -1.
         12    1    3    3    0    0 -0.20155009863E+01 -0.10962975881E+01  0.40351156925E+01  0.46417961264E+01  0.00000000000E+00 0. -1.
</event>
<event>
 7    1  0.2486105E-010  0.4778727E+02  0.7816164E-02  0.1312668E+00
        -11   -1    0    0    0    0  0.00000000000E+00  0.00000000000E+00  0.45593999997E+02  0.45594000000E+02  0.51100000000E-03 0.  1.
         11   -1    0    0    0    0 -0.00000000000E+00 -0.00000000000E+00 -0.45593999997E+02  0.45594000000E+02  0.51100000000E-03 0. -1.
    9900012    2    1    2    0    0  0.17587304013E+02  0.39677515204E+02  0.67653519726E-01  0.47787273598E+02  0.20000011642E+02 0.  0.
         12    1    1    2    0    0 -0.17587304013E+02 -0.39677515204E+02 -0.67653519726E-01  0.43400726402E+02  0.00000000000E+00 0. -1.
         11    1    3    3    0    0 -0.24914842232E+00  0.88150335103E+00 -0.27426865027E+01  0.28916176455E+01  0.51100000000E-03 0. -1.
        -11    1    3    3    0    0  0.31646935845E+01  0.15680782779E+02 -0.43860059272E+01  0.16587322939E+02  0.51100000000E-03 0.  1.
         12    1    3    3    0    0  0.14671758851E+02  0.23115229075E+02  0.71963459496E+01  0.28308333013E+02  0.00000000000E+00 0. -1.
</event>
<event>
 7    1  0.2486105E-010  0.4778727E+02  0.7816164E-02  0.1312668E+00
        -11   -1    0    0    0    0  0.00000000000E+00  0.00000000000E+00  0.45593999997E+02  0.45594000000E+02  0.51100000000E-03 0.  1.
         11   -1    0    0    0    0 -0.00000000000E+00 -0.00000000000E+00 -0.45593999997E+02  0.45594000000E+02  0.51100000000E-03 0. -1.
    9900012    2    1    2    0    0 -0.41993115097E+01 -0.21139690601E+02  0.37670979756E+02  0.47787268996E+02  0.19999990661E+02 0.  0.
         12    1    1    2    0    0  0.41993115097E+01  0.21139690601E+02 -0.37670979756E+02  0.43400731004E+02  0.00000000000E+00 0. -1.
         11    1    3    3    0    0 -0.14461206320E+01  0.61881805676E+00 -0.12451473395E+01  0.20061387858E+01  0.51100000000E-03 0. -1.
        -11    1    3    3    0    0  0.60672367078E+00 -0.10395199710E+02  0.96087522625E+01  0.14168853550E+02  0.51100000000E-03 0.  1.
        -12    1    3    3    0    0 -0.33599145485E+01 -0.11363308948E+02  0.29307374833E+02  0.31612276660E+02  0.00000000000E+00 0.  1.
</event>
<event>
 7    1  0.2486105E-010  0.4778727E+02  0.7816164E-02  0.1312668E+00
        -11   -1    0    0    0    0  0.00000000000E+00  0.00000000000E+00  0.45593999997E+02  0.45594000000E+02  0.51100000000E-03 0.  1.
         11   -1    0    0    0    0 -0.00000000000E+00 -0.00000000000E+00 -0.45593999997E+02  0.45594000000E+02  0.51100000000E-03 0. -1.
    9900012    2    1    2    0    0 -0.80615498055E+01 -0.16643349148E+02  0.39263642256E+02  0.47787271212E+02  0.20000000765E+02 0.  0.
         12    1    1    2    0    0  0.80615498055E+01  0.16643349148E+02 -0.39263642256E+02  0.43400728788E+02  0.00000000000E+00 0. -1.
         11    1    3    3    0    0 -0.47091942919E+01 -0.47161176023E+01  0.76426309483E+01  0.10140418344E+02  0.51100000000E-03 0. -1.
        -11    1    3    3    0    0  0.22852279460E+01 -0.61340116632E+01  0.18562836658E+01  0.68039808317E+01  0.51100000000E-03 0.  1.
        -12    1    3    3    0    0 -0.56375834596E+01 -0.57932198822E+01  0.29764727642E+02  0.30842872036E+02  0.00000000000E+00 0.  1.
</event>
<event>
 7    1  0.2486105E-010  0.4778727E+02  0.7816164E-02  0.1312668E+00
        -11   -1    0    0    0    0  0.00000000000E+00  0.00000000000E+00  0.45593999997E+02  0.45594000000E+02  0.51100000000E-03 0.  1.
         11   -1    0    0    0    0 -0.00000000000E+00 -0.00000000000E+00 -0.45593999997E+02  0.45594000000E+02  0.51100000000E-03 0. -1.
    9900012    2    1    2    0    0 -0.67357091105E+01 -0.26642054707E+02  0.33592472955E+02  0.47787273100E+02  0.20000009373E+02 0.  0.
         12    1    1    2    0    0  0.67357091105E+01  0.26642054707E+02 -0.33592472955E+02  0.43400726900E+02  0.00000000000E+00 0. -1.
         11    1    3    3    0    0  0.69791642162E+00  0.11497051017E+01  0.14231623020E+01  0.19581369593E+01  0.51100000000E-03 0. -1.
        -11    1    3    3    0    0 -0.93903343902E+01 -0.15162946144E+02  0.26273552825E+02  0.31755202629E+02  0.51100000000E-03 0.  1.
         12    1    3    3    0    0  0.19567088581E+01 -0.12628813664E+02  0.58957578278E+01  0.14073933511E+02  0.00000000000E+00 0. -1.
</event>
<event>
 7    1  0.2486105E-010  0.4778727E+02  0.7816164E-02  0.1312668E+00
        -11   -1    0    0    0    0  0.00000000000E+00  0.00000000000E+00  0.45593999997E+02  0.45594000000E+02  0.51100000000E-03 0. -1.
         11   -1    0    0    0    0 -0.00000000000E+00 -0.00000000000E+00 -0.45593999997E+02  0.45594000000E+02  0.51100000000E-03 0.  1.
    9900012    2    1    2    0    0  0.12619184827E+01  0.42770291883E+02  0.72617623656E+01  0.47787268455E+02  0.19999988192E+02 0.  0.
         12    1    1    2    0    0 -0.12619184827E+01 -0.42770291883E+02 -0.72617623656E+01  0.43400731545E+02  0.00000000000E+00 0. -1.
         11    1    3    3    0    0 -0.21173223604E+01  0.35245044224E+01  0.20581698410E+01  0.45979613696E+01  0.51100000000E-03 0. -1.
        -11    1    3    3    0    0  0.51609980644E+01  0.40415089960E+02  0.49147228855E+01  0.41038639096E+02  0.51100000000E-03 0.  1.
        -12    1    3    3    0    0 -0.17817572214E+01 -0.11693024995E+01  0.28886963900E+00  0.21506679892E+01  0.00000000000E+00 0.  1.
</event>
<event>
 7    1  0.2486105E-010  0.4778727E+02  0.7816164E-02  0.1312668E+00
        -11   -1    0    0    0    0  0.00000000000E+00  0.00000000000E+00  0.45593999997E+02  0.45594000000E+02  0.51100000000E-03 0.  1.
         11   -1    0    0    0    0 -0.00000000000E+00 -0.00000000000E+00 -0.45593999997E+02  0.45594000000E+02  0.51100000000E-03 0. -1.
    9900012    2    1    2    0    0 -0.43077520509E+02  0.30898426994E+01  0.42899238987E+01  0.47787270188E+02  0.19999996096E+02 0.  0.
         12    1    1    2    0    0  0.43077520509E+02 -0.30898426994E+01 -0.42899238987E+01  0.43400729812E+02  0.00000000000E+00 0. -1.
         11    1    3    3    0    0 -0.92097134079E+01 -0.34123611277E+01 -0.12733476563E+01  0.99037590862E+01  0.51100000000E-03 0. -1.
        -11    1    3    3    0    0 -0.13903365890E+02 -0.13059116991E+01  0.83430701881E+01  0.16267015979E+02  0.51100000000E-03 0.  1.
        -12    1    3    3    0    0 -0.19964441212E+02  0.78081155263E+01 -0.27797986332E+01  0.21616495123E+02  0.00000000000E+00 0.  1.
</event>
<event>
 7    1  0.2486105E-010  0.4778727E+02  0.7816164E-02  0.1312668E+00
        -11   -1    0    0    0    0  0.00000000000E+00  0.00000000000E+00  0.45593999997E+02  0.45594000000E+02  0.51100000000E-03 0.  1.
         11   -1    0    0    0    0 -0.00000000000E+00 -0.00000000000E+00 -0.45593999997E+02  0.45594000000E+02  0.51100000000E-03 0. -1.
    9900012    2    1    2    0    0  0.24586615186E+02 -0.34659219347E+01  0.35596470043E+02  0.47787274882E+02  0.20000017499E+02 0.  0.
         12    1    1    2    0    0 -0.24586615186E+02  0.34659219347E+01 -0.35596470043E+02  0.43400725118E+02  0.00000000000E+00 0. -1.
         11    1    3    3    0    0  0.33780044422E+01 -0.37773547987E+01  0.64296676912E+01  0.81865713316E+01  0.51100000000E-03 0.  1.
        -11    1    3    3    0    0  0.10567527630E+02  0.34767890730E+01  0.35431579562E+01  0.11675387404E+02  0.51100000000E-03 0. -1.
         12    1    3    3    0    0  0.10641083114E+02 -0.31653562090E+01  0.25623644396E+02  0.27925316147E+02  0.00000000000E+00 0. -1.
</event>
<event>
 7    1  0.2486105E-010  0.4778727E+02  0.7816164E-02  0.1312668E+00
        -11   -1    0    0    0    0  0.00000000000E+00  0.00000000000E+00  0.45593999997E+02  0.45594000000E+02  0.51100000000E-03 0. -1.
         11   -1    0    0    0    0 -0.00000000000E+00 -0.00000000000E+00 -0.45593999997E+02  0.45594000000E+02  0.51100000000E-03 0.  1.
    9900012    2    1    2    0    0  0.37325679649E+02  0.21800934219E+02 -0.38905140147E+01  0.47787271972E+02  0.20000004228E+02 0.  0.
         12    1    1    2    0    0 -0.37325679649E+02 -0.21800934219E+02  0.38905140147E+01  0.43400728028E+02  0.00000000000E+00 0. -1.
         11    1    3    3    0    0 -0.69041452589E+00  0.18641777955E+01 -0.17541660494E+01  0.26512129037E+01  0.51100000000E-03 0. -1.
        -11    1    3    3    0    0  0.10430862637E+02  0.11297829704E+00 -0.38602949663E+01  0.11122838528E+02  0.51100000000E-03 0.  1.
        -12    1    3    3    0    0  0.27585231538E+02  0.19823778127E+02  0.17239470010E+01  0.34013220540E+02  0.00000000000E+00 0.  1.
</event>
<event>
 7    1  0.2486105E-010  0.4778727E+02  0.7816164E-02  0.1312668E+00
        -11   -1    0    0    0    0  0.00000000000E+00  0.00000000000E+00  0.45593999997E+02  0.45594000000E+02  0.51100000000E-03 0.  1.
         11   -1    0    0    0    0 -0.00000000000E+00 -0.00000000000E+00 -0.45593999997E+02  0.45594000000E+02  0.51100000000E-03 0. -1.
    9900012    2    1    2    0    0  0.29269215288E+02 -0.32006306230E+02  0.15914277393E+01  0.47787271385E+02  0.20000001553E+02 0.  0.
         12    1    1    2    0    0 -0.29269215288E+02  0.32006306230E+02 -0.15914277393E+01  0.43400728615E+02  0.00000000000E+00 0. -1.
         11    1    3    3    0    0  0.80332926869E+01 -0.86421668788E+01 -0.37641233332E+01  0.12385050040E+02  0.51100000000E-03 0. -1.
        -11    1    3    3    0    0  0.13957357570E+02 -0.46548296877E+01  0.37270585301E+00  0.14717818442E+02  0.51100000000E-03 0.  1.
         12    1    3    3    0    0  0.72785650303E+01 -0.18709309664E+02  0.49828452195E+01  0.20684402904E+02  0.00000000000E+00 0. -1.
</event>
<event>
 7    1  0.2486105E-010  0.4778727E+02  0.7816164E-02  0.1312668E+00
        -11   -1    0    0    0    0  0.00000000000E+00  0.00000000000E+00  0.45593999997E+02  0.45594000000E+02  0.51100000000E-03 0. -1.
         11   -1    0    0    0    0 -0.00000000000E+00 -0.00000000000E+00 -0.45593999997E+02  0.45594000000E+02  0.51100000000E-03 0.  1.
    9900012    2    1    2    0    0 -0.35072904190E+02 -0.22145230691E+02  0.12771197119E+02  0.47787270438E+02  0.19999997236E+02 0.  0.
         12    1    1    2    0    0  0.35072904190E+02  0.22145230691E+02 -0.12771197119E+02  0.43400729562E+02  0.00000000000E+00 0. -1.
         11    1    3    3    0    0 -0.12150397373E+02 -0.13065547405E+02  0.10606742599E+02  0.20756774175E+02  0.51100000000E-03 0. -1.
        -11    1    3    3    0    0 -0.12849135361E+02 -0.30346885895E+01  0.62303053124E+01  0.14598846492E+02  0.51100000000E-03 0.  1.
        -12    1    3    3    0    0 -0.10073371456E+02 -0.60449946959E+01 -0.40658507927E+01  0.12431649771E+02  0.00000000000E+00 0.  1.
</event>
<event>
 7    1  0.2486105E-010  0.4778727E+02  0.7816164E-02  0.1312668E+00
        -11   -1    0    0    0    0  0.00000000000E+00  0.00000000000E+00  0.45593999997E+02  0.45594000000E+02  0.51100000000E-03 0.  1.
         11   -1    0    0    0    0 -0.00000000000E+00 -0.00000000000E+00 -0.45593999997E+02  0.45594000000E+02  0.51100000000E-03 0. -1.
    9900012    2    1    2    0    0  0.28389393379E+02  0.20758411013E+02  0.25431362888E+02  0.47787268410E+02  0.19999987988E+02 0.  0.
         12    1    1    2    0    0 -0.28389393379E+02 -0.20758411013E+02 -0.25431362888E+02  0.43400731590E+02  0.00000000000E+00 0. -1.
         11    1    3    3    0    0 -0.18907897785E+00  0.24510066853E+01  0.68676037644E+00  0.25524154652E+01  0.51100000000E-03 0. -1.
        -11    1    3    3    0    0  0.43495639242E+01  0.11916386486E+02  0.10070263350E+02  0.16196579188E+02  0.51100000000E-03 0.  1.
         12    1    3    3    0    0  0.24228908433E+02  0.63910178416E+01  0.14674339162E+02  0.29038273756E+02  0.00000000000E+00 0. -1.
</event>
<event>
 7    1  0.2486105E-010  0.4778727E+02  0.7816164E-02  0.1312668E+00
        -11   -1    0    0    0    0  0.00000000000E+00  0.00000000000E+00  0.45593999997E+02  0.45594000000E+02  0.51100000000E-03 0. -1.
         11   -1    0    0    0    0 -0.00000000000E+00 -0.00000000000E+00 -0.45593999997E+02  0.45594000000E+02  0.51100000000E-03 0.  1.
    9900012    2    1    2    0    0 -0.27858732893E+02 -0.31294763511E+02 -0.11320434485E+02  0.47787268917E+02  0.19999990300E+02 0.  0.
         12    1    1    2    0    0  0.27858732893E+02  0.31294763511E+02  0.11320434485E+02  0.43400731083E+02  0.00000000000E+00 0. -1.
         11    1    3    3    0    0  0.12146868599E+01 -0.26405602670E+01 -0.51772172839E+01  0.59373059343E+01  0.51100000000E-03 0. -1.
        -11    1    3    3    0    0 -0.77215973738E+01 -0.39677654070E+01 -0.23307748025E+01  0.89888119220E+01  0.51100000000E-03 0.  1.
        -12    1    3    3    0    0 -0.21351822379E+02 -0.24686437837E+02 -0.38124423981E+01  0.32861151061E+02  0.00000000000E+00 0.  1.
</event>
<event>
 7    1  0.2486105E-010  0.4778727E+02  0.7816164E-02  0.1312668E+00
        -11   -1    0    0    0    0  0.00000000000E+00  0.00000000000E+00  0.45593999997E+02  0.45594000000E+02  0.51100000000E-03 0.  1.
         11   -1    0    0    0    0 -0.00000000000E+00 -0.00000000000E+00 -0.45593999997E+02  0.45594000000E+02  0.51100000000E-03 0. -1.
    9900012    2    1    2    0    0 -0.19824099603E+01 -0.14542624821E+01  0.43331033088E+02  0.47787271238E+02  0.20000000883E+02 0.  0.
         12    1    1    2    0    0  0.19824099603E+01  0.14542624821E+01 -0.43331033088E+02  0.43400728762E+02  0.00000000000E+00 0. -1.
         11    1    3    3    0    0 -0.95138549057E+00  0.44810231660E+01  0.25233734078E+02  0.25646170060E+02  0.51100000000E-03 0. -1.
        -11    1    3    3    0    0 -0.19043955423E+01 -0.41463891658E+01  0.19288753385E+02  0.19821081527E+02  0.51100000000E-03 0.  1.
         12    1    3    3    0    0  0.87337107261E+00 -0.17888964822E+01 -0.11914543749E+01  0.23200196512E+01  0.00000000000E+00 0. -1.
</event>
<event>
 7    1  0.2486105E-010  0.4778727E+02  0.7816164E-02  0.1312668E+00
        -11   -1    0    0    0    0  0.00000000000E+00  0.00000000000E+00  0.45593999997E+02  0.45594000000E+02  0.51100000000E-03 0. -1.
         11   -1    0    0    0    0 -0.00000000000E+00 -0.00000000000E+00 -0.45593999997E+02  0.45594000000E+02  0.51100000000E-03 0.  1.
    9900012    2    1    2    0    0  0.15882405633E+02  0.23442036179E+02 -0.32891387079E+02  0.47787271747E+02  0.20000003202E+02 0.  0.
         12    1    1    2    0    0 -0.15882405633E+02 -0.23442036179E+02  0.32891387079E+02  0.43400728253E+02  0.00000000000E+00 0. -1.
         11    1    3    3    0    0  0.25055321372E+01  0.37527878610E+00  0.13346986071E+01  0.28635547997E+01  0.51100000000E-03 0. -1.
        -11    1    3    3    0    0  0.63478234781E+01  0.33398189318E+01 -0.41873290009E+01  0.83055991855E+01  0.51100000000E-03 0.  1.
        -12    1    3    3    0    0  0.70290500178E+01  0.19726938461E+02 -0.30038756685E+02  0.36618117762E+02  0.00000000000E+00 0.  1.
</event>
<event>
 7    1  0.2486105E-010  0.4778726E+02  0.7816164E-02  0.1312668E+00
        -11   -1    0    0    0    0  0.00000000000E+00  0.00000000000E+00  0.45593999997E+02  0.45594000000E+02  0.51100000000E-03 0.  1.
         11   -1    0    0    0    0 -0.00000000000E+00 -0.00000000000E+00 -0.45593999997E+02  0.45594000000E+02  0.51100000000E-03 0. -1.
    9900012    2    1    2    0    0 -0.82016555477E+01 -0.42329301333E+02  0.49585633462E+01  0.47787259735E+02  0.19999948437E+02 0.  0.
         12    1    1    2    0    0  0.82016555477E+01  0.42329301333E+02 -0.49585633462E+01  0.43400740265E+02  0.00000000000E+00 0. -1.
         11    1    3    3    0    0 -0.59057574955E+01 -0.10042186983E+02  0.39341944738E+01  0.12296396928E+02  0.51100000000E-03 0.  1.
        -11    1    3    3    0    0  0.60452003915E+00 -0.20546262284E+01  0.44385634619E+01  0.49282633130E+01  0.51100000000E-03 0. -1.
        -12    1    3    3    0    0 -0.29004180914E+01 -0.30232488122E+02 -0.34141945894E+01  0.30562599494E+02  0.00000000000E+00 0.  1.
</event>
<event>
 7    1  0.3410237E-010  0.4778727E+02  0.7816164E-02  0.1312668E+00
        -11   -1    0    0    0    0  0.00000000000E+00  0.00000000000E+00  0.45593999997E+02  0.45594000000E+02  0.51100000000E-03 0. -1.
         11   -1    0    0    0    0 -0.00000000000E+00 -0.00000000000E+00 -0.45593999997E+02  0.45594000000E+02  0.51100000000E-03 0.  1.
    9900012    2    1    2    0    0 -0.21033595575E+02  0.99388378131E+01 -0.36639197654E+02  0.47787269078E+02  0.19999991033E+02 0.  0.
         12    1    1    2    0    0  0.21033595575E+02 -0.99388378131E+01  0.36639197654E+02  0.43400730922E+02  0.00000000000E+00 0. -1.
         11    1    3    3    0    0  0.64560539990E+00 -0.24069767071E+01 -0.41803074880E+01  0.48667560198E+01  0.51100000000E-03 0. -1.
        -11    1    3    3    0    0 -0.12281986234E+02  0.43531575298E+01 -0.25794324066E+02  0.28898863656E+02  0.51100000000E-03 0.  1.
        -12    1    3    3    0    0 -0.93972147406E+01  0.79926569903E+01 -0.66645660999E+01  0.14021649402E+02  0.00000000000E+00 0.  1.
</event>
<event>
 7    1  0.2486105E-010  0.4778727E+02  0.7816164E-02  0.1312668E+00
        -11   -1    0    0    0    0  0.00000000000E+00  0.00000000000E+00  0.45593999997E+02  0.45594000000E+02  0.51100000000E-03 0.  1.
         11   -1    0    0    0    0 -0.00000000000E+00 -0.00000000000E+00 -0.45593999997E+02  0.45594000000E+02  0.51100000000E-03 0. -1.
    9900012    2    1    2    0    0  0.31765282268E+01  0.63087089573E+01  0.42822109353E+02  0.47787272014E+02  0.20000004419E+02 0.  0.
         12    1    1    2    0    0 -0.31765282268E+01 -0.63087089573E+01 -0.42822109353E+02  0.43400727986E+02  0.00000000000E+00 0. -1.
         11    1    3    3    0    0  0.74481532720E+01 -0.66795253912E+00  0.13523267565E+02  0.15453152224E+02  0.51100000000E-03 0. -1.
        -11    1    3    3    0    0  0.62684124292E+00  0.81620532024E+00  0.20511725968E+02  0.20537527201E+02  0.51100000000E-03 0.  1.
        -12    1    3    3    0    0 -0.48984662882E+01  0.61604561762E+01  0.87871158203E+01  0.11796592589E+02  0.00000000000E+00 0.  1.
</event>
<event>
 7    1  0.2486105E-010  0.4778727E+02  0.7816164E-02  0.1312668E+00
        -11   -1    0    0    0    0  0.00000000000E+00  0.00000000000E+00  0.45593999997E+02  0.45594000000E+02  0.51100000000E-03 0. -1.
         11   -1    0    0    0    0 -0.00000000000E+00 -0.00000000000E+00 -0.45593999997E+02  0.45594000000E+02  0.51100000000E-03 0.  1.
    9900012    2    1    2    0    0 -0.42668367987E+02 -0.54131068500E+01 -0.58078961971E+01  0.47787274077E+02  0.20000013825E+02 0.  0.
         12    1    1    2    0    0  0.42668367987E+02  0.54131068500E+01  0.58078961971E+01  0.43400725923E+02  0.00000000000E+00 0. -1.
         11    1    3    3    0    0 -0.11597173739E+02  0.27061306677E+00 -0.32407281674E-01  0.11600375884E+02  0.51100000000E-03 0. -1.
        -11    1    3    3    0    0 -0.11869868811E+02  0.59442798023E+01 -0.20889071915E+01  0.13438444161E+02  0.51100000000E-03 0.  1.
         12    1    3    3    0    0 -0.19201325437E+02 -0.11627999719E+02 -0.36865817240E+01  0.22748454032E+02  0.00000000000E+00 0. -1.
</event>
<event>
 7    1  0.2486105E-010  0.4778727E+02  0.7816164E-02  0.1312668E+00
        -11   -1    0    0    0    0  0.00000000000E+00  0.00000000000E+00  0.45593999997E+02  0.45594000000E+02  0.51100000000E-03 0.  1.
         11   -1    0    0    0    0 -0.00000000000E+00 -0.00000000000E+00 -0.45593999997E+02  0.45594000000E+02  0.51100000000E-03 0. -1.
    9900012    2    1    2    0    0 -0.73510818526E+01  0.40686736983E+02  0.13197508013E+02  0.47787272028E+02  0.20000004486E+02 0.  0.
         12    1    1    2    0    0  0.73510818526E+01 -0.40686736983E+02 -0.13197508013E+02  0.43400727972E+02  0.00000000000E+00 0. -1.
         11    1    3    3    0    0 -0.66217670813E+01  0.26464712240E+02  0.77295296512E+01  0.28354442722E+02  0.51100000000E-03 0. -1.
        -11    1    3    3    0    0 -0.20209919756E+01  0.16114878094E+02  0.54815560586E+01  0.17141212374E+02  0.51100000000E-03 0.  1.
         12    1    3    3    0    0  0.12916772043E+01 -0.18928533510E+01 -0.13577697220E-01  0.22916169319E+01  0.00000000000E+00 0. -1.
</event>
<event>
 7    1  0.2486105E-010  0.4778727E+02  0.7816164E-02  0.1312668E+00
        -11   -1    0    0    0    0  0.00000000000E+00  0.00000000000E+00  0.45593999997E+02  0.45594000000E+02  0.51100000000E-03 0.  1.
         11   -1    0    0    0    0 -0.00000000000E+00 -0.00000000000E+00 -0.45593999997E+02  0.45594000000E+02  0.51100000000E-03 0. -1.
    9900012    2    1    2    0    0 -0.28079619209E+02  0.30126522559E+02 -0.13694934610E+02  0.47787267167E+02  0.19999982323E+02 0.  0.
         12    1    1    2    0    0  0.28079619209E+02 -0.30126522559E+02  0.13694934610E+02  0.43400732833E+02  0.00000000000E+00 0. -1.
         11    1    3    3    0    0 -0.26128184953E+01  0.18884200349E+01 -0.46877386489E+01  0.56892745249E+01  0.51100000000E-03 0. -1.
        -11    1    3    3    0    0 -0.19439326247E+02  0.12563297869E+02 -0.10132878090E+02  0.25266560449E+02  0.51100000000E-03 0.  1.
        -12    1    3    3    0    0 -0.60274744665E+01  0.15674804655E+02  0.11256821289E+01  0.16831432193E+02  0.00000000000E+00 0.  1.
</event>
<event>
 7    1  0.2486105E-010  0.4778727E+02  0.7816164E-02  0.1312668E+00
        -11   -1    0    0    0    0  0.00000000000E+00  0.00000000000E+00  0.45593999997E+02  0.45594000000E+02  0.51100000000E-03 0.  1.
         11   -1    0    0    0    0 -0.00000000000E+00 -0.00000000000E+00 -0.45593999997E+02  0.45594000000E+02  0.51100000000E-03 0. -1.
    9900012    2    1    2    0    0  0.19707220110E+02  0.91213176687E+00  0.38657685908E+02  0.47787272026E+02  0.20000004477E+02 0.  0.
         12    1    1    2    0    0 -0.19707220110E+02 -0.91213176687E+00 -0.38657685908E+02  0.43400727974E+02  0.00000000000E+00 0. -1.
         11    1    3    3    0    0  0.84422992844E+01 -0.75686241711E+00  0.95550913235E+01  0.12772823822E+02  0.51100000000E-03 0. -1.
        -11    1    3    3    0    0  0.10628785627E+02  0.48839603782E+01  0.29479666150E+02  0.31715530414E+02  0.51100000000E-03 0.  1.
         12    1    3    3    0    0  0.63613519892E+00 -0.32149661942E+01 -0.37707156509E+00  0.32989177902E+01  0.00000000000E+00 0. -1.
</event>
<event>
 7    1  0.2486105E-010  0.4778727E+02  0.7816164E-02  0.1312668E+00
        -11   -1    0    0    0    0  0.00000000000E+00  0.00000000000E+00  0.45593999997E+02  0.45594000000E+02  0.51100000000E-03 0.  1.
         11   -1    0    0    0    0 -0.00000000000E+00 -0.00000000000E+00 -0.45593999997E+02  0.45594000000E+02  0.51100000000E-03 0. -1.
    9900012    2    1    2    0    0 -0.15450554537E+02  0.31410596480E+02  0.25656925446E+02  0.47787273853E+02  0.20000012808E+02 0.  0.
         12    1    1    2    0    0  0.15450554537E+02 -0.31410596480E+02 -0.25656925446E+02  0.43400726147E+02  0.00000000000E+00 0. -1.
         11    1    3    3    0    0  0.22575049075E+01  0.46678034865E+01  0.13954359494E+01  0.53695399752E+01  0.51100000000E-03 0. -1.
        -11    1    3    3    0    0 -0.25156522576E+01  0.38804912824E+01 -0.14094695417E+01  0.48345965213E+01  0.51100000000E-03 0.  1.
        -12    1    3    3    0    0 -0.15192407187E+02  0.22862301711E+02  0.25670959038E+02  0.37583137357E+02  0.00000000000E+00 0.  1.
</event>
<event>
 7    1  0.2486105E-010  0.4778727E+02  0.7816164E-02  0.1312668E+00
        -11   -1    0    0    0    0  0.00000000000E+00  0.00000000000E+00  0.45593999997E+02  0.45594000000E+02  0.51100000000E-03 0.  1.
         11   -1    0    0    0    0 -0.00000000000E+00 -0.00000000000E+00 -0.45593999997E+02  0.45594000000E+02  0.51100000000E-03 0. -1.
    9900012    2    1    2    0    0 -0.40817365523E+02  0.13852475901E+02  0.50670420473E+01  0.47787270375E+02  0.19999996950E+02 0.  0.
         12    1    1    2    0    0  0.40817365523E+02 -0.13852475901E+02 -0.50670420473E+01  0.43400729625E+02  0.00000000000E+00 0. -1.
         11    1    3    3    0    0 -0.30125122185E+01  0.45247254653E+00  0.17839700174E+01  0.35302281167E+01  0.51100000000E-03 0. -1.
        -11    1    3    3    0    0 -0.26672317536E+02  0.54539035177E+01 -0.58040496657E+01  0.27836030233E+02  0.51100000000E-03 0.  1.
         12    1    3    3    0    0 -0.11132535768E+02  0.79460998368E+01  0.90871216956E+01  0.16421012026E+02  0.00000000000E+00 0. -1.
</event>
<event>
 7    1  0.2486105E-010  0.4778726E+02  0.7816164E-02  0.1312668E+00
        -11   -1    0    0    0    0  0.00000000000E+00  0.00000000000E+00  0.45593999997E+02  0.45594000000E+02  0.51100000000E-03 0.  1.
         11   -1    0    0    0    0 -0.00000000000E+00 -0.00000000000E+00 -0.45593999997E+02  0.45594000000E+02  0.51100000000E-03 0. -1.
    9900012    2    1    2    0    0 -0.11270013777E+02 -0.46667597845E+01  0.41651314941E+02  0.47787263903E+02  0.19999967440E+02 0.  0.
         12    1    1    2    0    0  0.11270013777E+02  0.46667597845E+01 -0.41651314941E+02  0.43400736097E+02  0.00000000000E+00 0. -1.
         11    1    3    3    0    0 -0.36770025754E+01 -0.22831081799E+01  0.53641800110E+01  0.68925581863E+01  0.51100000000E-03 0. -1.
        -11    1    3    3    0    0 -0.12725773549E+02  0.60291104828E+00  0.22000618723E+02  0.25423139825E+02  0.51100000000E-03 0.  1.
         12    1    3    3    0    0  0.51327623468E+01 -0.29865626529E+01  0.14286516207E+02  0.15471565891E+02  0.00000000000E+00 0. -1.
</event>
<event>
 7    1  0.2486105E-010  0.4778728E+02  0.7816164E-02  0.1312668E+00
        -11   -1    0    0    0    0  0.00000000000E+00  0.00000000000E+00  0.45593999997E+02  0.45594000000E+02  0.51100000000E-03 0.  1.
         11   -1    0    0    0    0 -0.00000000000E+00 -0.00000000000E+00 -0.45593999997E+02  0.45594000000E+02  0.51100000000E-03 0. -1.
    9900012    2    1    2    0    0  0.13458197055E+02  0.11687192615E+02  0.39571564791E+02  0.47787282503E+02  0.20000052246E+02 0.  0.
         12    1    1    2    0    0 -0.13458197055E+02 -0.11687192615E+02 -0.39571564791E+02  0.43400717497E+02  0.00000000000E+00 0. -1.
         11    1    3    3    0    0  0.73396313777E+01  0.78219766616E+01  0.10826692210E+02  0.15240432150E+02  0.51100000000E-03 0. -1.
        -11    1    3    3    0    0  0.73637412928E+01  0.86148810721E+00  0.59090771361E+01  0.94807194055E+01  0.51100000000E-03 0.  1.
         12    1    3    3    0    0 -0.12451756151E+01  0.30037278460E+01  0.22835795445E+02  0.23066130948E+02  0.00000000000E+00 0. -1.
</event>
<event>
 7    1  0.2486105E-010  0.4778727E+02  0.7816164E-02  0.1312668E+00
        -11   -1    0    0    0    0  0.00000000000E+00  0.00000000000E+00  0.45593999997E+02  0.45594000000E+02  0.51100000000E-03 0. -1.
         11   -1    0    0    0    0 -0.00000000000E+00 -0.00000000000E+00 -0.45593999997E+02  0.45594000000E+02  0.51100000000E-03 0.  1.
    9900012    2    1    2    0    0  0.19349709389E+02  0.25165815135E+01 -0.38766985970E+02  0.47787266860E+02  0.19999980921E+02 0.  0.
         12    1    1    2    0    0 -0.19349709389E+02 -0.25165815135E+01  0.38766985970E+02  0.43400733140E+02  0.00000000000E+00 0. -1.
         11    1    3    3    0    0  0.14575870821E+01  0.66009498472E+00  0.38553357870E+00  0.16458802788E+01  0.51100000000E-03 0. -1.
        -11    1    3    3    0    0  0.16077220766E+00 -0.23453130214E+01 -0.18293092785E+02  0.18443524197E+02  0.51100000000E-03 0.  1.
        -12    1    3    3    0    0  0.17731350099E+02  0.42017995501E+01 -0.20859426763E+02  0.27697862384E+02  0.00000000000E+00 0.  1.
</event>
<event>
 7    1  0.2486105E-010  0.4778729E+02  0.7816164E-02  0.1312668E+00
        -11   -1    0    0    0    0  0.00000000000E+00  0.00000000000E+00  0.45593999997E+02  0.45594000000E+02  0.51100000000E-03 0. -1.
         11   -1    0    0    0    0 -0.00000000000E+00 -0.00000000000E+00 -0.45593999997E+02  0.45594000000E+02  0.51100000000E-03 0.  1.
    9900012    2    1    2    0    0  0.23890850153E+02  0.33745722229E+02 -0.13193768306E+02  0.47787285583E+02  0.20000066286E+02 0.  0.
         12    1    1    2    0    0 -0.23890850153E+02 -0.33745722229E+02  0.13193768306E+02  0.43400714417E+02  0.00000000000E+00 0. -1.
         11    1    3    3    0    0  0.93615527774E+01  0.52985089117E+01 -0.13630613880E+01  0.10843007134E+02  0.51100000000E-03 0. -1.
        -11    1    3    3    0    0  0.15496760896E+02  0.26586257353E+02 -0.68304675113E+01  0.31521960043E+02  0.51100000000E-03 0.  1.
        -12    1    3    3    0    0 -0.96746352090E+00  0.18609559652E+01 -0.50002394067E+01  0.54223184057E+01  0.00000000000E+00 0.  1.
</event>
<event>
 7    1  0.2486105E-010  0.4778728E+02  0.7816164E-02  0.1312668E+00
        -11   -1    0    0    0    0  0.00000000000E+00  0.00000000000E+00  0.45593999997E+02  0.45594000000E+02  0.51100000000E-03 0.  1.
         11   -1    0    0    0    0 -0.00000000000E+00 -0.00000000000E+00 -0.45593999997E+02  0.45594000000E+02  0.51100000000E-03 0. -1.
    9900012    2    1    2    0    0  0.24516412928E+02  0.65758716079E+00  0.35806917613E+02  0.47787282579E+02  0.20000052591E+02 0.  0.
         12    1    1    2    0    0 -0.24516412928E+02 -0.65758716079E+00 -0.35806917613E+02  0.43400717421E+02  0.00000000000E+00 0. -1.
         11    1    3    3    0    0 -0.23678263281E+00 -0.14176410915E+01  0.13219995386E+02  0.13297896470E+02  0.51100000000E-03 0. -1.
        -11    1    3    3    0    0  0.27444243975E+01 -0.22226054266E+01  0.42230968470E+01  0.55051237403E+01  0.51100000000E-03 0.  1.
        -12    1    3    3    0    0  0.22008771163E+02  0.42978336789E+01  0.18363825380E+02  0.28984262368E+02  0.00000000000E+00 0.  1.
</event>
<event>
 7    1  0.2673607E-010  0.4778727E+02  0.7816164E-02  0.1312668E+00
        -11   -1    0    0    0    0  0.00000000000E+00  0.00000000000E+00  0.45593999997E+02  0.45594000000E+02  0.51100000000E-03 0.  1.
         11   -1    0    0    0    0 -0.00000000000E+00 -0.00000000000E+00 -0.45593999997E+02  0.45594000000E+02  0.51100000000E-03 0. -1.
    9900012    2    1    2    0    0  0.12151618017E+02  0.38801390603E+02  0.15179385193E+02  0.47787268808E+02  0.19999989805E+02 0.  0.
         12    1    1    2    0    0 -0.12151618017E+02 -0.38801390603E+02 -0.15179385193E+02  0.43400731192E+02  0.00000000000E+00 0. -1.
         11    1    3    3    0    0  0.24622395321E+01  0.63745534360E+01 -0.30969689344E+01  0.75025843457E+01  0.51100000000E-03 0. -1.
        -11    1    3    3    0    0  0.55838167168E+01  0.34272696468E+01  0.42596807443E+01  0.78147339471E+01  0.51100000000E-03 0.  1.
        -12    1    3    3    0    0  0.41055617678E+01  0.28999567520E+02  0.14016673383E+02  0.32469950516E+02  0.00000000000E+00 0.  1.
</event>
<event>
 7    1  0.2486105E-010  0.4778727E+02  0.7816164E-02  0.1312668E+00
        -11   -1    0    0    0    0  0.00000000000E+00  0.00000000000E+00  0.45593999997E+02  0.45594000000E+02  0.51100000000E-03 0.  1.
         11   -1    0    0    0    0 -0.00000000000E+00 -0.00000000000E+00 -0.45593999997E+02  0.45594000000E+02  0.51100000000E-03 0. -1.
    9900012    2    1    2    0    0 -0.74409033014E+01  0.22992884455E+02  0.36049743588E+02  0.47787265096E+02  0.19999972879E+02 0.  0.
         12    1    1    2    0    0  0.74409033014E+01 -0.22992884455E+02 -0.36049743588E+02  0.43400734904E+02  0.00000000000E+00 0. -1.
         11    1    3    3    0    0 -0.32078262110E+00 -0.17123267070E+00 -0.90003661929E+00  0.97071535205E+00  0.51100000000E-03 0. -1.
        -11    1    3    3    0    0  0.29656864456E+01  0.10368805069E+02  0.22861912541E+02  0.25277944140E+02  0.51100000000E-03 0.  1.
         12    1    3    3    0    0 -0.10085807126E+02  0.12795312056E+02  0.14087867666E+02  0.21538605604E+02  0.00000000000E+00 0. -1.
</event>
<event>
 7    1  0.2486105E-010  0.4778727E+02  0.7816164E-02  0.1312668E+00
        -11   -1    0    0    0    0  0.00000000000E+00  0.00000000000E+00  0.45593999997E+02  0.45594000000E+02  0.51100000000E-03 0. -1.
         11   -1    0    0    0    0 -0.00000000000E+00 -0.00000000000E+00 -0.45593999997E+02  0.45594000000E+02  0.51100000000E-03 0.  1.
    9900012    2    1    2    0    0 -0.11808132730E+02 -0.32640530573E+02 -0.26053550631E+02  0.47787265731E+02  0.19999975772E+02 0.  0.
         12    1    1    2    0    0  0.11808132730E+02  0.32640530573E+02  0.26053550631E+02  0.43400734269E+02  0.00000000000E+00 0. -1.
         11    1    3    3    0    0  0.27464230959E+01 -0.30214263878E+01 -0.44987950382E+01  0.60754435472E+01  0.51100000000E-03 0. -1.
        -11    1    3    3    0    0  0.14645372981E+00 -0.14923947208E+02 -0.90225699585E+01  0.17439966108E+02  0.51100000000E-03 0.  1.
        -12    1    3    3    0    0 -0.14701009555E+02 -0.14695156978E+02 -0.12532185634E+02  0.24271856075E+02  0.00000000000E+00 0.  1.
</event>
<event>
 7    1  0.2486105E-010  0.4778727E+02  0.7816164E-02  0.1312668E+00
        -11   -1    0    0    0    0  0.00000000000E+00  0.00000000000E+00  0.45593999997E+02  0.45594000000E+02  0.51100000000E-03 0. -1.
         11   -1    0    0    0    0 -0.00000000000E+00 -0.00000000000E+00 -0.45593999997E+02  0.45594000000E+02  0.51100000000E-03 0.  1.
    9900012    2    1    2    0    0  0.37686752048E+02  0.20961026139E+02  0.48956581576E+01  0.47787269989E+02  0.19999995187E+02 0.  0.
         12    1    1    2    0    0 -0.37686752048E+02 -0.20961026139E+02 -0.48956581576E+01  0.43400730011E+02  0.00000000000E+00 0. -1.
         11    1    3    3    0    0 -0.83532361491E+00 -0.60884367853E+00 -0.14333192311E+01  0.17671616921E+01  0.51100000000E-03 0. -1.
        -11    1    3    3    0    0  0.46019719516E+01  0.46472358109E+01  0.47444463417E+01  0.80798959075E+01  0.51100000000E-03 0.  1.
        -12    1    3    3    0    0  0.33920103711E+02  0.16922634007E+02  0.15845310470E+01  0.37940212389E+02  0.00000000000E+00 0.  1.
</event>
<event>
 7    1  0.2486105E-010  0.4778726E+02  0.7816164E-02  0.1312668E+00
        -11   -1    0    0    0    0  0.00000000000E+00  0.00000000000E+00  0.45593999997E+02  0.45594000000E+02  0.51100000000E-03 0.  1.
         11   -1    0    0    0    0 -0.00000000000E+00 -0.00000000000E+00 -0.45593999997E+02  0.45594000000E+02  0.51100000000E-03 0. -1.
    9900012    2    1    2    0    0 -0.39574183836E+02  0.84625856533E+01  0.15680964753E+02  0.47787262243E+02  0.19999959871E+02 0.  0.
         12    1    1    2    0    0  0.39574183836E+02 -0.84625856533E+01 -0.15680964753E+02  0.43400737757E+02  0.00000000000E+00 0. -1.
         11    1    3    3    0    0 -0.74512680427E+01 -0.24037073742E+01 -0.18638767517E+01  0.80481824900E+01  0.51100000000E-03 0. -1.
        -11    1    3    3    0    0 -0.11418178636E+02  0.70460701898E+01  0.11917697694E+02  0.17945847070E+02  0.51100000000E-03 0.  1.
         12    1    3    3    0    0 -0.20704737158E+02  0.38202228378E+01  0.56271438111E+01  0.21793232683E+02  0.00000000000E+00 0. -1.
</event>
<event>
 7    1  0.2486105E-010  0.4778727E+02  0.7816164E-02  0.1312668E+00
        -11   -1    0    0    0    0  0.00000000000E+00  0.00000000000E+00  0.45593999997E+02  0.45594000000E+02  0.51100000000E-03 0. -1.
         11   -1    0    0    0    0 -0.00000000000E+00 -0.00000000000E+00 -0.45593999997E+02  0.45594000000E+02  0.51100000000E-03 0.  1.
    9900012    2    1    2    0    0 -0.20305730745E+02  0.18051546481E+02 -0.33844384059E+02  0.47787270009E+02  0.19999995278E+02 0.  0.
         12    1    1    2    0    0  0.20305730745E+02 -0.18051546481E+02  0.33844384059E+02  0.43400729991E+02  0.00000000000E+00 0. -1.
         11    1    3    3    0    0 -0.97061923552E+01  0.11401211587E+02 -0.67122542955E+01  0.16408904707E+02  0.51100000000E-03 0. -1.
        -11    1    3    3    0    0 -0.60745001199E+01  0.76270067206E+01 -0.11510030579E+02  0.15084813138E+02  0.51100000000E-03 0.  1.
        -12    1    3    3    0    0 -0.45250382699E+01 -0.97667182609E+00 -0.15622099184E+02  0.16293552164E+02  0.00000000000E+00 0.  1.
</event>
<event>
 7    1  0.2486105E-010  0.4778727E+02  0.7816164E-02  0.1312668E+00
        -11   -1    0    0    0    0  0.00000000000E+00  0.00000000000E+00  0.45593999997E+02  0.45594000000E+02  0.51100000000E-03 0.  1.
         11   -1    0    0    0    0 -0.00000000000E+00 -0.00000000000E+00 -0.45593999997E+02  0.45594000000E+02  0.51100000000E-03 0. -1.
    9900012    2    1    2    0    0 -0.26650320071E+02 -0.15660458178E+02  0.30465288014E+02  0.47787270928E+02  0.19999999468E+02 0.  0.
         12    1    1    2    0    0  0.26650320071E+02  0.15660458178E+02 -0.30465288014E+02  0.43400729072E+02  0.00000000000E+00 0. -1.
         11    1    3    3    0    0 -0.14176924344E+02 -0.33698163882E+01  0.64983540069E+01  0.15955232728E+02  0.51100000000E-03 0. -1.
        -11    1    3    3    0    0 -0.13162077151E+02 -0.80017498843E+01  0.13434577638E+02  0.20439083950E+02  0.51100000000E-03 0.  1.
        -12    1    3    3    0    0  0.68868142291E+00 -0.42888919052E+01  0.10532356368E+02  0.11392954250E+02  0.00000000000E+00 0.  1.
</event>
<event>
 7    1  0.2486105E-010  0.4778727E+02  0.7816164E-02  0.1312668E+00
        -11   -1    0    0    0    0  0.00000000000E+00  0.00000000000E+00  0.45593999997E+02  0.45594000000E+02  0.51100000000E-03 0.  1.
         11   -1    0    0    0    0 -0.00000000000E+00 -0.00000000000E+00 -0.45593999997E+02  0.45594000000E+02  0.51100000000E-03 0. -1.
    9900012    2    1    2    0    0  0.30945511618E+01 -0.32323084699E+02  0.28796960065E+02  0.47787274657E+02  0.20000016470E+02 0.  0.
         12    1    1    2    0    0 -0.30945511618E+01  0.32323084699E+02 -0.28796960065E+02  0.43400725343E+02  0.00000000000E+00 0. -1.
         11    1    3    3    0    0  0.25547520082E+01 -0.44135737414E+01  0.12685550039E+02  0.13672218951E+02  0.51100000000E-03 0. -1.
        -11    1    3    3    0    0  0.37924049696E+01 -0.70099224111E+01  0.81347673975E+00  0.80114350981E+01  0.51100000000E-03 0.  1.
        -12    1    3    3    0    0 -0.32526058159E+01 -0.20899588546E+02  0.15297933286E+02  0.26103620607E+02  0.00000000000E+00 0.  1.
</event>
<event>
 7    1  0.2486105E-010  0.4778727E+02  0.7816164E-02  0.1312668E+00
        -11   -1    0    0    0    0  0.00000000000E+00  0.00000000000E+00  0.45593999997E+02  0.45594000000E+02  0.51100000000E-03 0.  1.
         11   -1    0    0    0    0 -0.00000000000E+00 -0.00000000000E+00 -0.45593999997E+02  0.45594000000E+02  0.51100000000E-03 0. -1.
    9900012    2    1    2    0    0  0.26726907500E+02  0.20961094850E+02  0.27017179723E+02  0.47787273254E+02  0.20000010076E+02 0.  0.
         12    1    1    2    0    0 -0.26726907500E+02 -0.20961094850E+02 -0.27017179723E+02  0.43400726746E+02  0.00000000000E+00 0. -1.
         11    1    3    3    0    0  0.27073566901E+01 -0.10520056632E+01  0.39236313495E+01  0.48817393817E+01  0.51100000000E-03 0. -1.
        -11    1    3    3    0    0  0.97755173629E+01  0.73490253813E+01  0.22559818282E+00  0.12231917616E+02  0.51100000000E-03 0.  1.
         12    1    3    3    0    0  0.14244033447E+02  0.14664075132E+02  0.22867950191E+02  0.30673616257E+02  0.00000000000E+00 0. -1.
</event>
<event>
 7    1  0.2486105E-010  0.4778727E+02  0.7816164E-02  0.1312668E+00
        -11   -1    0    0    0    0  0.00000000000E+00  0.00000000000E+00  0.45593999997E+02  0.45594000000E+02  0.51100000000E-03 0.  1.
         11   -1    0    0    0    0 -0.00000000000E+00 -0.00000000000E+00 -0.45593999997E+02  0.45594000000E+02  0.51100000000E-03 0. -1.
    9900012    2    1    2    0    0 -0.40934715432E+02 -0.10373102700E+00  0.14420875004E+02  0.47787270473E+02  0.19999997393E+02 0.  0.
         12    1    1    2    0    0  0.40934715432E+02  0.10373102700E+00 -0.14420875004E+02  0.43400729527E+02  0.00000000000E+00 0. -1.
         11    1    3    3    0    0 -0.28838729172E+01 -0.10235354747E+01  0.91420394232E-01  0.30614875175E+01  0.51100000000E-03 0. -1.
        -11    1    3    3    0    0 -0.19055798928E+02  0.26066568974E+01  0.16748028579E+02  0.25503227139E+02  0.51100000000E-03 0.  1.
        -12    1    3    3    0    0 -0.18995043587E+02 -0.16868524497E+01 -0.24185739698E+01  0.19222555816E+02  0.00000000000E+00 0.  1.
</event>
<event>
 7    1  0.3153047E-010  0.4778732E+02  0.7816164E-02  0.1312668E+00
        -11   -1    0    0    0    0  0.00000000000E+00  0.00000000000E+00  0.45593999997E+02  0.45594000000E+02  0.51100000000E-03 0. -1.
         11   -1    0    0    0    0 -0.00000000000E+00 -0.00000000000E+00 -0.45593999997E+02  0.45594000000E+02  0.51100000000E-03 0.  1.
    9900012    2    1    2    0    0  0.34266335677E+02  0.23760697918E+02 -0.12036032067E+02  0.47787324957E+02  0.20000245806E+02 0.  0.
         12    1    1    2    0    0 -0.34266335677E+02 -0.23760697918E+02  0.12036032067E+02  0.43400675043E+02  0.00000000000E+00 0. -1.
         11    1    3    3    0    0 -0.28434920240E+00 -0.10120608915E+01  0.75997600573E+00  0.12971836830E+01  0.51100000000E-03 0. -1.
        -11    1    3    3    0    0  0.19451644141E+02  0.57078935758E+01 -0.42498872619E+01  0.20712509525E+02  0.51100000000E-03 0.  1.
        -12    1    3    3    0    0  0.15099040739E+02  0.19064865234E+02 -0.85461208108E+01  0.25777631748E+02  0.00000000000E+00 0.  1.
</event>
<event>
 7    1  0.2486105E-010  0.4778727E+02  0.7816164E-02  0.1312668E+00
        -11   -1    0    0    0    0  0.00000000000E+00  0.00000000000E+00  0.45593999997E+02  0.45594000000E+02  0.51100000000E-03 0.  1.
         11   -1    0    0    0    0 -0.00000000000E+00 -0.00000000000E+00 -0.45593999997E+02  0.45594000000E+02  0.51100000000E-03 0. -1.
    9900012    2    1    2    0    0 -0.23400453203E+02 -0.11295381712E+01  0.36534453167E+02  0.47787270342E+02  0.19999996799E+02 0.  0.
         12    1    1    2    0    0  0.23400453203E+02  0.11295381712E+01 -0.36534453167E+02  0.43400729658E+02  0.00000000000E+00 0. -1.
         11    1    3    3    0    0 -0.38990724728E+01  0.51212008385E+01  0.48773197362E+01  0.80757484016E+01  0.51100000000E-03 0. -1.
        -11    1    3    3    0    0 -0.55235931227E+01  0.20732266860E+00  0.13084370272E+01  0.56802351527E+01  0.51100000000E-03 0.  1.
        -12    1    3    3    0    0 -0.13977787607E+02 -0.64580616783E+01  0.30348696404E+02  0.34031286788E+02  0.00000000000E+00 0.  1.
</event>
<event>
 7    1  0.2486105E-010  0.4778727E+02  0.7816164E-02  0.1312668E+00
        -11   -1    0    0    0    0  0.00000000000E+00  0.00000000000E+00  0.45593999997E+02  0.45594000000E+02  0.51100000000E-03 0. -1.
         11   -1    0    0    0    0 -0.00000000000E+00 -0.00000000000E+00 -0.45593999997E+02  0.45594000000E+02  0.51100000000E-03 0.  1.
    9900012    2    1    2    0    0 -0.16152984130E+02  0.39360648256E+02 -0.85699258227E+01  0.47787272402E+02  0.20000006188E+02 0.  0.
         12    1    1    2    0    0  0.16152984130E+02 -0.39360648256E+02  0.85699258227E+01  0.43400727598E+02  0.00000000000E+00 0. -1.
         11    1    3    3    0    0  0.37250396710E+00 -0.33818277760E+00  0.15725456728E+01  0.16510684271E+01  0.51100000000E-03 0. -1.
        -11    1    3    3    0    0 -0.99701182438E+01  0.86270594162E+01 -0.41310247724E+01  0.13816467635E+02  0.51100000000E-03 0.  1.
        -12    1    3    3    0    0 -0.65553698533E+01  0.31071771618E+02 -0.60114467231E+01  0.32319736340E+02  0.00000000000E+00 0.  1.
</event>
<event>
 7    1  0.2486105E-010  0.4778724E+02  0.7816164E-02  0.1312668E+00
        -11   -1    0    0    0    0  0.00000000000E+00  0.00000000000E+00  0.45593999997E+02  0.45594000000E+02  0.51100000000E-03 0.  1.
         11   -1    0    0    0    0 -0.00000000000E+00 -0.00000000000E+00 -0.45593999997E+02  0.45594000000E+02  0.51100000000E-03 0. -1.
    9900012    2    1    2    0    0 -0.27685385873E+02  0.18422675862E+02  0.27888182529E+02  0.47787236163E+02  0.19999840961E+02 0.  0.
         12    1    1    2    0    0  0.27685385873E+02 -0.18422675862E+02 -0.27888182529E+02  0.43400763837E+02  0.00000000000E+00 0. -1.
         11    1    3    3    0    0 -0.50309877004E+01 -0.20744698255E+01  0.64896073313E+00  0.54804573343E+01  0.51100000000E-03 0. -1.
        -11    1    3    3    0    0 -0.46588978198E+01  0.67016643813E+01  0.20508686647E+01  0.84156816073E+01  0.51100000000E-03 0.  1.
        -12    1    3    3    0    0 -0.17995500353E+02  0.13795481307E+02  0.25188353131E+02  0.33891097221E+02  0.00000000000E+00 0.  1.
</event>
<event>
 7    1  0.2486105E-010  0.4778722E+02  0.7816164E-02  0.1312668E+00
        -11   -1    0    0    0    0  0.00000000000E+00  0.00000000000E+00  0.45593999997E+02  0.45594000000E+02  0.51100000000E-03 0. -1.
         11   -1    0    0    0    0 -0.00000000000E+00 -0.00000000000E+00 -0.45593999997E+02  0.45594000000E+02  0.51100000000E-03 0.  1.
    9900012    2    1    2    0    0  0.39235155237E+02  0.18342856908E+02  0.27874798880E+01  0.47787218324E+02  0.19999759623E+02 0.  0.
         12    1    1    2    0    0 -0.39235155237E+02 -0.18342856908E+02 -0.27874798880E+01  0.43400781676E+02  0.00000000000E+00 0. -1.
         11    1    3    3    0    0  0.26840807423E+02  0.20095922011E+02  0.41242906136E+01  0.33782906890E+02  0.51100000000E-03 0.  1.
        -11    1    3    3    0    0  0.77233957987E+01 -0.22308473589E+01  0.19507978902E+01  0.82724322464E+01  0.51100000000E-03 0. -1.
        -12    1    3    3    0    0  0.46709520148E+01  0.47778225616E+00 -0.32876086159E+01  0.57318791875E+01  0.00000000000E+00 0.  1.
</event>
<event>
 7    1  0.2486105E-010  0.4778731E+02  0.7816164E-02  0.1312668E+00
        -11   -1    0    0    0    0  0.00000000000E+00  0.00000000000E+00  0.45593999997E+02  0.45594000000E+02  0.51100000000E-03 0.  1.
         11   -1    0    0    0    0 -0.00000000000E+00 -0.00000000000E+00 -0.45593999997E+02  0.45594000000E+02  0.51100000000E-03 0. -1.
    9900012    2    1    2    0    0 -0.43244623345E+02  0.35234109256E+01  0.10528123605E+01  0.47787305459E+02  0.20000156909E+02 0.  0.
         12    1    1    2    0    0  0.43244623345E+02 -0.35234109256E+01 -0.10528123605E+01  0.43400694541E+02  0.00000000000E+00 0. -1.
         11    1    3    3    0    0 -0.18243842426E+02 -0.52073975705E+01  0.17517960384E+01  0.19053177309E+02  0.51100000000E-03 0. -1.
        -11    1    3    3    0    0 -0.20290318664E+02  0.25815655823E+01  0.19523871947E+01  0.20546856898E+02  0.51100000000E-03 0.  1.
         12    1    3    3    0    0 -0.47104622540E+01  0.61492429138E+01 -0.26513708726E+01  0.81872712526E+01  0.00000000000E+00 0. -1.
</event>
<event>
 7    1  0.2486105E-010  0.4778728E+02  0.7816164E-02  0.1312668E+00
        -11   -1    0    0    0    0  0.00000000000E+00  0.00000000000E+00  0.45593999997E+02  0.45594000000E+02  0.51100000000E-03 0.  1.
         11   -1    0    0    0    0 -0.00000000000E+00 -0.00000000000E+00 -0.45593999997E+02  0.45594000000E+02  0.51100000000E-03 0. -1.
    9900012    2    1    2    0    0 -0.34944382448E+02  0.25521868478E+02 -0.33387418361E+01  0.47787276131E+02  0.20000023193E+02 0.  0.
         12    1    1    2    0    0  0.34944382448E+02 -0.25521868478E+02  0.33387418361E+01  0.43400723869E+02  0.00000000000E+00 0. -1.
         11    1    3    3    0    0 -0.17761538652E+02  0.40228411155E+01  0.10309041976E+00  0.18211703210E+02  0.51100000000E-03 0. -1.
        -11    1    3    3    0    0 -0.67954920303E+01  0.52310792872E+01 -0.54640993962E+01  0.10168543894E+02  0.51100000000E-03 0.  1.
        -12    1    3    3    0    0 -0.10387351766E+02  0.16267948075E+02  0.20222671403E+01  0.19407029028E+02  0.00000000000E+00 0.  1.
</event>
<event>
 7    1  0.2486105E-010  0.4778727E+02  0.7816164E-02  0.1312668E+00
        -11   -1    0    0    0    0  0.00000000000E+00  0.00000000000E+00  0.45593999997E+02  0.45594000000E+02  0.51100000000E-03 0.  1.
         11   -1    0    0    0    0 -0.00000000000E+00 -0.00000000000E+00 -0.45593999997E+02  0.45594000000E+02  0.51100000000E-03 0. -1.
    9900012    2    1    2    0    0 -0.17342443756E+02 -0.36820305750E+02  0.15070767995E+02  0.47787270525E+02  0.19999997634E+02 0.  0.
         12    1    1    2    0    0  0.17342443756E+02  0.36820305750E+02 -0.15070767995E+02  0.43400729475E+02  0.00000000000E+00 0. -1.
         11    1    3    3    0    0 -0.17547393901E+01 -0.12563034215E+00 -0.14831033712E+01  0.23009757020E+01  0.51100000000E-03 0. -1.
        -11    1    3    3    0    0 -0.94360406135E+01 -0.98209241111E+01  0.10658122338E+02  0.17294073693E+02  0.51100000000E-03 0.  1.
         12    1    3    3    0    0 -0.61516637519E+01 -0.26873751297E+02  0.58957490286E+01  0.28192221131E+02  0.00000000000E+00 0. -1.
</event>
<event>
 7    1  0.2486105E-010  0.4778727E+02  0.7816164E-02  0.1312668E+00
        -11   -1    0    0    0    0  0.00000000000E+00  0.00000000000E+00  0.45593999997E+02  0.45594000000E+02  0.51100000000E-03 0. -1.
         11   -1    0    0    0    0 -0.00000000000E+00 -0.00000000000E+00 -0.45593999997E+02  0.45594000000E+02  0.51100000000E-03 0.  1.
    9900012    2    1    2    0    0  0.37003532471E+02  0.71429173281E+01  0.21525351165E+02  0.47787269292E+02  0.19999992008E+02 0.  0.
         12    1    1    2    0    0 -0.37003532471E+02 -0.71429173281E+01 -0.21525351165E+02  0.43400730708E+02  0.00000000000E+00 0. -1.
         11    1    3    3    0    0  0.56191490674E+01  0.39472547377E+01  0.26301913504E+00  0.68720328530E+01  0.51100000000E-03 0. -1.
        -11    1    3    3    0    0  0.17540168755E+02  0.28827731437E+01  0.30484537467E+01  0.18034992971E+02  0.51100000000E-03 0.  1.
        -12    1    3    3    0    0  0.13844214648E+02  0.31288944659E+00  0.18213878283E+02  0.22880243467E+02  0.00000000000E+00 0.  1.
</event>
<event>
 7    1  0.2486105E-010  0.4778725E+02  0.7816164E-02  0.1312668E+00
        -11   -1    0    0    0    0  0.00000000000E+00  0.00000000000E+00  0.45593999997E+02  0.45594000000E+02  0.51100000000E-03 0.  1.
         11   -1    0    0    0    0 -0.00000000000E+00 -0.00000000000E+00 -0.45593999997E+02  0.45594000000E+02  0.51100000000E-03 0. -1.
    9900012    2    1    2    0    0  0.13600726439E+02  0.11679790391E+02  0.39525024064E+02  0.47787253572E+02  0.19999920336E+02 0.  0.
         12    1    1    2    0    0 -0.13600726439E+02 -0.11679790391E+02 -0.39525024064E+02  0.43400746428E+02  0.00000000000E+00 0. -1.
         11    1    3    3    0    0 -0.24065347057E+01  0.58889060686E+01  0.73688000973E+01  0.97349801802E+01  0.51100000000E-03 0. -1.
        -11    1    3    3    0    0  0.95164109020E+01  0.89571460858E+01  0.22026653817E+02  0.25611833614E+02  0.51100000000E-03 0.  1.
         12    1    3    3    0    0  0.64908502430E+01 -0.31662617636E+01  0.10129570150E+02  0.12440439777E+02  0.00000000000E+00 0. -1.
</event>
<event>
 7    1  0.2486105E-010  0.4778727E+02  0.7816164E-02  0.1312668E+00
        -11   -1    0    0    0    0  0.00000000000E+00  0.00000000000E+00  0.45593999997E+02  0.45594000000E+02  0.51100000000E-03 0.  1.
         11   -1    0    0    0    0 -0.00000000000E+00 -0.00000000000E+00 -0.45593999997E+02  0.45594000000E+02  0.51100000000E-03 0. -1.
    9900012    2    1    2    0    0  0.14537835225E+02  0.39558524663E+02  0.10363288540E+02  0.47787271021E+02  0.19999999892E+02 0.  0.
         12    1    1    2    0    0 -0.14537835225E+02 -0.39558524663E+02 -0.10363288540E+02  0.43400728979E+02  0.00000000000E+00 0. -1.
         11    1    3    3    0    0  0.45481380460E+01  0.18803172531E+02  0.10057172809E+02  0.21803476376E+02  0.51100000000E-03 0.  1.
        -11    1    3    3    0    0  0.10887350287E+02  0.12446369673E+02  0.37310312483E+01  0.16951905756E+02  0.51100000000E-03 0. -1.
         12    1    3    3    0    0 -0.89765310760E+00  0.83089824584E+01 -0.34249155172E+01  0.90318888886E+01  0.00000000000E+00 0. -1.
</event>
<event>
 7    1  0.2486105E-010  0.4778727E+02  0.7816164E-02  0.1312668E+00
        -11   -1    0    0    0    0  0.00000000000E+00  0.00000000000E+00  0.45593999997E+02  0.45594000000E+02  0.51100000000E-03 0.  1.
         11   -1    0    0    0    0 -0.00000000000E+00 -0.00000000000E+00 -0.45593999997E+02  0.45594000000E+02  0.51100000000E-03 0. -1.
    9900012    2    1    2    0    0 -0.17289428202E+02 -0.11801610261E+02  0.38018691089E+02  0.47787271844E+02  0.20000003646E+02 0.  0.
         12    1    1    2    0    0  0.17289428202E+02  0.11801610261E+02 -0.38018691089E+02  0.43400728156E+02  0.00000000000E+00 0. -1.
         11    1    3    3    0    0  0.19077464894E+01  0.14648874007E+01  0.65354259463E+01  0.69639919820E+01  0.51100000000E-03 0. -1.
        -11    1    3    3    0    0 -0.40318888961E+01 -0.80306982124E+01  0.63401868019E+01  0.10997554764E+02  0.51100000000E-03 0.  1.
        -12    1    3    3    0    0 -0.15165285796E+02 -0.52357994495E+01  0.25143078341E+02  0.29825725098E+02  0.00000000000E+00 0.  1.
</event>
<event>
 7    1  0.2486105E-010  0.4778727E+02  0.7816164E-02  0.1312668E+00
        -11   -1    0    0    0    0  0.00000000000E+00  0.00000000000E+00  0.45593999997E+02  0.45594000000E+02  0.51100000000E-03 0. -1.
         11   -1    0    0    0    0 -0.00000000000E+00 -0.00000000000E+00 -0.45593999997E+02  0.45594000000E+02  0.51100000000E-03 0.  1.
    9900012    2    1    2    0    0  0.17185055074E+02 -0.29863536860E+02 -0.26390647115E+02  0.47787271817E+02  0.20000003522E+02 0.  0.
         12    1    1    2    0    0 -0.17185055074E+02  0.29863536860E+02  0.26390647115E+02  0.43400728183E+02  0.00000000000E+00 0. -1.
         11    1    3    3    0    0  0.71420865921E+01  0.22586283727E+00 -0.43458165301E+01  0.83634045989E+01  0.51100000000E-03 0. -1.
        -11    1    3    3    0    0  0.19948524101E+01 -0.48306572068E+01 -0.47597881971E+00  0.52479749699E+01  0.51100000000E-03 0.  1.
        -12    1    3    3    0    0  0.80481160720E+01 -0.25258742490E+02 -0.21568851765E+02  0.34175892248E+02  0.00000000000E+00 0.  1.
</event>
<event>
 7    1  0.2486105E-010  0.4778727E+02  0.7816164E-02  0.1312668E+00
        -11   -1    0    0    0    0  0.00000000000E+00  0.00000000000E+00  0.45593999997E+02  0.45594000000E+02  0.51100000000E-03 0. -1.
         11   -1    0    0    0    0 -0.00000000000E+00 -0.00000000000E+00 -0.45593999997E+02  0.45594000000E+02  0.51100000000E-03 0.  1.
    9900012    2    1    2    0    0 -0.43053729462E+02  0.41692810215E+01 -0.35519883656E+01  0.47787272515E+02  0.20000006707E+02 0.  0.
         12    1    1    2    0    0  0.43053729462E+02 -0.41692810215E+01  0.35519883656E+01  0.43400727485E+02  0.00000000000E+00 0. -1.
         11    1    3    3    0    0 -0.13567057584E+02 -0.81398342497E-01  0.50370778076E+01  0.14472174345E+02  0.51100000000E-03 0. -1.
        -11    1    3    3    0    0 -0.12430862063E+02  0.45038689006E+01  0.17986251231E+01  0.13343396093E+02  0.51100000000E-03 0.  1.
         12    1    3    3    0    0 -0.17055809815E+02 -0.25318953654E+00 -0.10387691296E+02  0.19971702077E+02  0.00000000000E+00 0. -1.
</event>
<event>
 7    1  0.2486105E-010  0.4778727E+02  0.7816164E-02  0.1312668E+00
        -11   -1    0    0    0    0  0.00000000000E+00  0.00000000000E+00  0.45593999997E+02  0.45594000000E+02  0.51100000000E-03 0.  1.
         11   -1    0    0    0    0 -0.00000000000E+00 -0.00000000000E+00 -0.45593999997E+02  0.45594000000E+02  0.51100000000E-03 0. -1.
    9900012    2    1    2    0    0  0.30103543739E+02 -0.31093665379E+02 -0.32533050022E+01  0.47787269986E+02  0.19999995175E+02 0.  0.
         12    1    1    2    0    0 -0.30103543739E+02  0.31093665379E+02  0.32533050022E+01  0.43400730014E+02  0.00000000000E+00 0. -1.
         11    1    3    3    0    0  0.10384346195E+02 -0.10378847313E+02 -0.63150716960E+01  0.15982341763E+02  0.51100000000E-03 0. -1.
        -11    1    3    3    0    0  0.52400733297E+01 -0.11112563522E+02 -0.41865445423E+01  0.12979776269E+02  0.51100000000E-03 0.  1.
        -12    1    3    3    0    0  0.14479124214E+02 -0.96022545441E+01  0.72483112361E+01  0.18825151954E+02  0.00000000000E+00 0.  1.
</event>
<event>
 7    1  0.2486105E-010  0.4778727E+02  0.7816164E-02  0.1312668E+00
        -11   -1    0    0    0    0  0.00000000000E+00  0.00000000000E+00  0.45593999997E+02  0.45594000000E+02  0.51100000000E-03 0.  1.
         11   -1    0    0    0    0 -0.00000000000E+00 -0.00000000000E+00 -0.45593999997E+02  0.45594000000E+02  0.51100000000E-03 0. -1.
    9900012    2    1    2    0    0  0.10516197925E+02  0.19515005204E+02  0.37312164757E+02  0.47787268603E+02  0.19999988871E+02 0.  0.
         12    1    1    2    0    0 -0.10516197925E+02 -0.19515005204E+02 -0.37312164757E+02  0.43400731397E+02  0.00000000000E+00 0. -1.
         11    1    3    3    0    0 -0.15722053030E+01  0.68153240004E+01  0.23878193682E+02  0.24881491204E+02  0.51100000000E-03 0. -1.
        -11    1    3    3    0    0  0.39794368899E+01  0.18780846979E+01  0.95017749006E+00  0.45017727194E+01  0.51100000000E-03 0.  1.
        -12    1    3    3    0    0  0.81089663385E+01  0.10821596506E+02  0.12483793585E+02  0.18404004680E+02  0.00000000000E+00 0.  1.
</event>
<event>
 7    1  0.2486105E-010  0.4778727E+02  0.7816164E-02  0.1312668E+00
        -11   -1    0    0    0    0  0.00000000000E+00  0.00000000000E+00  0.45593999997E+02  0.45594000000E+02  0.51100000000E-03 0.  1.
         11   -1    0    0    0    0 -0.00000000000E+00 -0.00000000000E+00 -0.45593999997E+02  0.45594000000E+02  0.51100000000E-03 0. -1.
    9900012    2    1    2    0    0 -0.34126165183E+02  0.13324517082E+02  0.23269845891E+02  0.47787266903E+02  0.19999981117E+02 0.  0.
         12    1    1    2    0    0  0.34126165183E+02 -0.13324517082E+02 -0.23269845891E+02  0.43400733097E+02  0.00000000000E+00 0. -1.
         11    1    3    3    0    0 -0.22741651065E+01  0.17245883190E+01 -0.14377738678E+01  0.31958137865E+01  0.51100000000E-03 0. -1.
        -11    1    3    3    0    0 -0.10564157667E+02 -0.25379367726E+01  0.35970900497E+01  0.11444719628E+02  0.51100000000E-03 0.  1.
        -12    1    3    3    0    0 -0.21287842410E+02  0.14137865536E+02  0.21110529709E+02  0.33146733489E+02  0.00000000000E+00 0.  1.
</event>
<event>
 7    1  0.2486105E-010  0.4778727E+02  0.7816164E-02  0.1312668E+00
        -11   -1    0    0    0    0  0.00000000000E+00  0.00000000000E+00  0.45593999997E+02  0.45594000000E+02  0.51100000000E-03 0.  1.
         11   -1    0    0    0    0 -0.00000000000E+00 -0.00000000000E+00 -0.45593999997E+02  0.45594000000E+02  0.51100000000E-03 0. -1.
    9900012    2    1    2    0    0 -0.22169961672E+02 -0.36630598078E+02 -0.70933297530E+01  0.47787271399E+02  0.20000001616E+02 0.  0.
         12    1    1    2    0    0  0.22169961672E+02  0.36630598078E+02  0.70933297530E+01  0.43400728601E+02  0.00000000000E+00 0. -1.
         11    1    3    3    0    0 -0.15854004778E+02 -0.21928542358E+02  0.60520627591E+00  0.27066154370E+02  0.51100000000E-03 0. -1.
        -11    1    3    3    0    0 -0.90505697049E+01 -0.12997344467E+02 -0.52903740988E+01  0.16698258399E+02  0.51100000000E-03 0.  1.
        -12    1    3    3    0    0  0.27346128108E+01 -0.17047112529E+01 -0.24081619301E+01  0.40228586307E+01  0.00000000000E+00 0.  1.
</event>
<event>
 7    1  0.2486105E-010  0.4778727E+02  0.7816164E-02  0.1312668E+00
        -11   -1    0    0    0    0  0.00000000000E+00  0.00000000000E+00  0.45593999997E+02  0.45594000000E+02  0.51100000000E-03 0.  1.
         11   -1    0    0    0    0 -0.00000000000E+00 -0.00000000000E+00 -0.45593999997E+02  0.45594000000E+02  0.51100000000E-03 0. -1.
    9900012    2    1    2    0    0  0.26617065619E+02 -0.34058014995E+02  0.38995490641E+01  0.47787273618E+02  0.20000011733E+02 0.  0.
         12    1    1    2    0    0 -0.26617065619E+02  0.34058014995E+02 -0.38995490641E+01  0.43400726382E+02  0.00000000000E+00 0. -1.
         11    1    3    3    0    0  0.12415391607E+02 -0.10906331904E+02  0.54245632858E+01  0.17392984548E+02  0.51100000000E-03 0.  1.
        -11    1    3    3    0    0  0.15357337110E+02 -0.22055978840E+02  0.15614220901E+01  0.26921219231E+02  0.51100000000E-03 0. -1.
         12    1    3    3    0    0 -0.11556630978E+01 -0.10957042513E+01 -0.30864363118E+01  0.34730698393E+01  0.00000000000E+00 0. -1.
</event>
<event>
 7    1  0.2486105E-010  0.4778727E+02  0.7816164E-02  0.1312668E+00
        -11   -1    0    0    0    0  0.00000000000E+00  0.00000000000E+00  0.45593999997E+02  0.45594000000E+02  0.51100000000E-03 0.  1.
         11   -1    0    0    0    0 -0.00000000000E+00 -0.00000000000E+00 -0.45593999997E+02  0.45594000000E+02  0.51100000000E-03 0. -1.
    9900012    2    1    2    0    0  0.17781121698E+02  0.48089095740E+01  0.39297955477E+02  0.47787271840E+02  0.20000003628E+02 0.  0.
         12    1    1    2    0    0 -0.17781121698E+02 -0.48089095740E+01 -0.39297955477E+02  0.43400728160E+02  0.00000000000E+00 0. -1.
         11    1    3    3    0    0  0.56760283241E+01  0.17600529266E+00  0.61048849183E+01  0.83377392335E+01  0.51100000000E-03 0. -1.
        -11    1    3    3    0    0  0.16151454875E+02  0.21816144968E+01  0.28200949291E+02  0.32571804948E+02  0.51100000000E-03 0.  1.
         12    1    3    3    0    0 -0.40463615004E+01  0.24512897845E+01  0.49921212670E+01  0.68777276585E+01  0.00000000000E+00 0. -1.
</event>
<event>
 7    1  0.2486105E-010  0.4778727E+02  0.7816164E-02  0.1312668E+00
        -11   -1    0    0    0    0  0.00000000000E+00  0.00000000000E+00  0.45593999997E+02  0.45594000000E+02  0.51100000000E-03 0.  1.
         11   -1    0    0    0    0 -0.00000000000E+00 -0.00000000000E+00 -0.45593999997E+02  0.45594000000E+02  0.51100000000E-03 0. -1.
    9900012    2    1    2    0    0  0.32066202587E+02 -0.17654355939E+02  0.23317502064E+02  0.47787268042E+02  0.19999986311E+02 0.  0.
         12    1    1    2    0    0 -0.32066202587E+02  0.17654355939E+02 -0.23317502064E+02  0.43400731958E+02  0.00000000000E+00 0. -1.
         11    1    3    3    0    0  0.13728313543E+02 -0.74368312098E+01  0.17841845272E+02  0.23708742990E+02  0.51100000000E-03 0. -1.
        -11    1    3    3    0    0  0.37750292142E+01  0.20974773338E+01  0.16725602931E+01  0.46311677717E+01  0.51100000000E-03 0.  1.
         12    1    3    3    0    0  0.14562859830E+02 -0.12315002063E+02  0.38030964989E+01  0.19447357281E+02  0.00000000000E+00 0. -1.
</event>
<event>
 7    1  0.2486105E-010  0.4778727E+02  0.7816164E-02  0.1312668E+00
        -11   -1    0    0    0    0  0.00000000000E+00  0.00000000000E+00  0.45593999997E+02  0.45594000000E+02  0.51100000000E-03 0.  1.
         11   -1    0    0    0    0 -0.00000000000E+00 -0.00000000000E+00 -0.45593999997E+02  0.45594000000E+02  0.51100000000E-03 0. -1.
    9900012    2    1    2    0    0  0.52065531320E+01  0.98377819417E+01  0.41949172750E+02  0.47787271395E+02  0.20000001599E+02 0.  0.
         12    1    1    2    0    0 -0.52065531320E+01 -0.98377819417E+01 -0.41949172750E+02  0.43400728605E+02  0.00000000000E+00 0. -1.
         11    1    3    3    0    0 -0.36874735438E+01  0.49898438474E+01  0.17623852747E+02  0.18684115946E+02  0.51100000000E-03 0. -1.
        -11    1    3    3    0    0  0.39941210848E+01  0.84614416701E+01  0.18213847058E+02  0.20476650686E+02  0.51100000000E-03 0.  1.
         12    1    3    3    0    0  0.48999055910E+01 -0.36135035758E+01  0.61114729443E+01  0.86265047639E+01  0.00000000000E+00 0. -1.
</event>
<event>
 7    1  0.2486105E-010  0.4778727E+02  0.7816164E-02  0.1312668E+00
        -11   -1    0    0    0    0  0.00000000000E+00  0.00000000000E+00  0.45593999997E+02  0.45594000000E+02  0.51100000000E-03 0.  1.
         11   -1    0    0    0    0 -0.00000000000E+00 -0.00000000000E+00 -0.45593999997E+02  0.45594000000E+02  0.51100000000E-03 0. -1.
    9900012    2    1    2    0    0  0.21332902356E+02 -0.28663277946E+02  0.24636297383E+02  0.47787269888E+02  0.19999994728E+02 0.  0.
         12    1    1    2    0    0 -0.21332902356E+02  0.28663277946E+02 -0.24636297383E+02  0.43400730112E+02  0.00000000000E+00 0. -1.
         11    1    3    3    0    0 -0.15588731860E+01 -0.83460129667E+00 -0.97571670802E+00  0.20195713134E+01  0.51100000000E-03 0.  1.
        -11    1    3    3    0    0  0.25479012352E+01 -0.75358242176E+01  0.11632067509E+01  0.80394961005E+01  0.51100000000E-03 0. -1.
        -12    1    3    3    0    0  0.20343874307E+02 -0.20292852431E+02  0.24448807340E+02  0.37728202474E+02  0.00000000000E+00 0.  1.
</event>
<event>
 7    1  0.2486105E-010  0.4778727E+02  0.7816164E-02  0.1312668E+00
        -11   -1    0    0    0    0  0.00000000000E+00  0.00000000000E+00  0.45593999997E+02  0.45594000000E+02  0.51100000000E-03 0.  1.
         11   -1    0    0    0    0 -0.00000000000E+00 -0.00000000000E+00 -0.45593999997E+02  0.45594000000E+02  0.51100000000E-03 0. -1.
    9900012    2    1    2    0    0 -0.50557999817E+01 -0.23921255445E+02  0.35858557679E+02  0.47787265740E+02  0.19999975814E+02 0.  0.
         12    1    1    2    0    0  0.50557999817E+01  0.23921255445E+02 -0.35858557679E+02  0.43400734260E+02  0.00000000000E+00 0. -1.
         11    1    3    3    0    0 -0.16058155180E+01 -0.13466617716E+02  0.11479119655E+02  0.17767909964E+02  0.51100000000E-03 0. -1.
        -11    1    3    3    0    0 -0.54139806282E+01 -0.12838649757E+02  0.22302431213E+02  0.26297158631E+02  0.51100000000E-03 0.  1.
        -12    1    3    3    0    0  0.19639961645E+01  0.23840120283E+01  0.20770068115E+01  0.37221971442E+01  0.00000000000E+00 0.  1.
</event>
<event>
 7    1  0.2486105E-010  0.4778727E+02  0.7816164E-02  0.1312668E+00
        -11   -1    0    0    0    0  0.00000000000E+00  0.00000000000E+00  0.45593999997E+02  0.45594000000E+02  0.51100000000E-03 0.  1.
         11   -1    0    0    0    0 -0.00000000000E+00 -0.00000000000E+00 -0.45593999997E+02  0.45594000000E+02  0.51100000000E-03 0. -1.
    9900012    2    1    2    0    0 -0.18123053989E+02  0.63064316441E+01  0.38928228545E+02  0.47787272545E+02  0.20000006843E+02 0.  0.
         12    1    1    2    0    0  0.18123053989E+02 -0.63064316441E+01 -0.38928228545E+02  0.43400727455E+02  0.00000000000E+00 0. -1.
         11    1    3    3    0    0 -0.38804685847E+01 -0.42275281149E+01  0.11671328076E+02  0.13005765249E+02  0.51100000000E-03 0. -1.
        -11    1    3    3    0    0  0.22783026691E+01  0.18874892656E+01  0.36475636914E+01  0.46965945028E+01  0.51100000000E-03 0.  1.
         12    1    3    3    0    0 -0.16520888073E+02  0.86464704934E+01  0.23609336777E+02  0.30084912793E+02  0.00000000000E+00 0. -1.
</event>
<event>
 7    1  0.2486105E-010  0.4778727E+02  0.7816164E-02  0.1312668E+00
        -11   -1    0    0    0    0  0.00000000000E+00  0.00000000000E+00  0.45593999997E+02  0.45594000000E+02  0.51100000000E-03 0. -1.
         11   -1    0    0    0    0 -0.00000000000E+00 -0.00000000000E+00 -0.45593999997E+02  0.45594000000E+02  0.51100000000E-03 0.  1.
    9900012    2    1    2    0    0  0.15897115401E+02  0.20489154698E+02 -0.34800853268E+02  0.47787272743E+02  0.20000007744E+02 0.  0.
         12    1    1    2    0    0 -0.15897115401E+02 -0.20489154698E+02  0.34800853268E+02  0.43400727257E+02  0.00000000000E+00 0. -1.
         11    1    3    3    0    0  0.18354061210E+02  0.13620560860E+02 -0.17525115451E+02  0.28801404704E+02  0.51100000000E-03 0. -1.
        -11    1    3    3    0    0 -0.64121042268E+00  0.22236394951E+01 -0.25746459511E+01  0.34618673350E+01  0.51100000000E-03 0.  1.
         12    1    3    3    0    0 -0.18157353866E+01  0.46449543423E+01 -0.14701091865E+02  0.15524000704E+02  0.00000000000E+00 0. -1.
</event>
<event>
 7    1  0.2486105E-010  0.4778727E+02  0.7816164E-02  0.1312668E+00
        -11   -1    0    0    0    0  0.00000000000E+00  0.00000000000E+00  0.45593999997E+02  0.45594000000E+02  0.51100000000E-03 0. -1.
         11   -1    0    0    0    0 -0.00000000000E+00 -0.00000000000E+00 -0.45593999997E+02  0.45594000000E+02  0.51100000000E-03 0.  1.
    9900012    2    1    2    0    0 -0.25962292107E+02  0.18832870043E+02 -0.29238772612E+02  0.47787269253E+02  0.19999991831E+02 0.  0.
         12    1    1    2    0    0  0.25962292107E+02 -0.18832870043E+02  0.29238772612E+02  0.43400730747E+02  0.00000000000E+00 0. -1.
         11    1    3    3    0    0 -0.91025739429E+01  0.26249747103E+01 -0.24355103716E+01  0.97815671366E+01  0.51100000000E-03 0. -1.
        -11    1    3    3    0    0 -0.11227554683E+02  0.49187661664E+01 -0.59319541102E+01  0.13617647543E+02  0.51100000000E-03 0.  1.
        -12    1    3    3    0    0 -0.56321634809E+01  0.11289129167E+02 -0.20871308130E+02  0.24388054574E+02  0.00000000000E+00 0.  1.
</event>
<event>
 7    1  0.2486105E-010  0.4778727E+02  0.7816164E-02  0.1312668E+00
        -11   -1    0    0    0    0  0.00000000000E+00  0.00000000000E+00  0.45593999997E+02  0.45594000000E+02  0.51100000000E-03 0.  1.
         11   -1    0    0    0    0 -0.00000000000E+00 -0.00000000000E+00 -0.45593999997E+02  0.45594000000E+02  0.51100000000E-03 0. -1.
    9900012    2    1    2    0    0  0.42570023271E+02  0.68924627853E+01  0.48898237627E+01  0.47787270733E+02  0.19999998578E+02 0.  0.
         12    1    1    2    0    0 -0.42570023271E+02 -0.68924627853E+01 -0.48898237627E+01  0.43400729267E+02  0.00000000000E+00 0. -1.
         11    1    3    3    0    0  0.37324285535E-01  0.47293254772E+00 -0.14137681907E+01  0.14912407770E+01  0.51100000000E-03 0. -1.
        -11    1    3    3    0    0  0.41089189437E+01 -0.31563440700E+01  0.41501369267E+01  0.66384756944E+01  0.51100000000E-03 0.  1.
        -12    1    3    3    0    0  0.38423780041E+02  0.95758743076E+01  0.21534550267E+01  0.39657554261E+02  0.00000000000E+00 0.  1.
</event>
<event>
 7    1  0.2486105E-010  0.4778726E+02  0.7816164E-02  0.1312668E+00
        -11   -1    0    0    0    0  0.00000000000E+00  0.00000000000E+00  0.45593999997E+02  0.45594000000E+02  0.51100000000E-03 0.  1.
         11   -1    0    0    0    0 -0.00000000000E+00 -0.00000000000E+00 -0.45593999997E+02  0.45594000000E+02  0.51100000000E-03 0. -1.
    9900012    2    1    2    0    0  0.15370017831E+02 -0.17223631467E+02  0.36752318909E+02  0.47787264128E+02  0.19999968466E+02 0.  0.
         12    1    1    2    0    0 -0.15370017831E+02  0.17223631467E+02 -0.36752318909E+02  0.43400735872E+02  0.00000000000E+00 0. -1.
         11    1    3    3    0    0  0.18513266245E+01  0.24322220106E+01  0.71034152330E+01  0.77331508723E+01  0.51100000000E-03 0. -1.
        -11    1    3    3    0    0  0.97184953077E+01 -0.10188627711E+02  0.25320981455E+02  0.28972562672E+02  0.51100000000E-03 0.  1.
         12    1    3    3    0    0  0.38001958991E+01 -0.94672257667E+01  0.43279222206E+01  0.11081550584E+02  0.00000000000E+00 0. -1.
</event>
<event>
 7    1  0.2486105E-010  0.4778727E+02  0.7816164E-02  0.1312668E+00
        -11   -1    0    0    0    0  0.00000000000E+00  0.00000000000E+00  0.45593999997E+02  0.45594000000E+02  0.51100000000E-03 0.  1.
         11   -1    0    0    0    0 -0.00000000000E+00 -0.00000000000E+00 -0.45593999997E+02  0.45594000000E+02  0.51100000000E-03 0. -1.
    9900012    2    1    2    0    0  0.12817335357E+02 -0.50314117130E+01  0.41158521673E+02  0.47787273096E+02  0.20000009354E+02 0.  0.
         12    1    1    2    0    0 -0.12817335357E+02  0.50314117130E+01 -0.41158521673E+02  0.43400726904E+02  0.00000000000E+00 0. -1.
         11    1    3    3    0    0 -0.15997462513E+01  0.12004710448E+01  0.59747128322E+01  0.63005962009E+01  0.51100000000E-03 0. -1.
        -11    1    3    3    0    0  0.38920044395E+01 -0.97599403664E+01  0.20938028557E+02  0.23426591187E+02  0.51100000000E-03 0.  1.
         12    1    3    3    0    0  0.10525077169E+02  0.35280576086E+01  0.14245780284E+02  0.18060085708E+02  0.00000000000E+00 0. -1.
</event>
<event>
 7    1  0.2486105E-010  0.4778727E+02  0.7816164E-02  0.1312668E+00
        -11   -1    0    0    0    0  0.00000000000E+00  0.00000000000E+00  0.45593999997E+02  0.45594000000E+02  0.51100000000E-03 0.  1.
         11   -1    0    0    0    0 -0.00000000000E+00 -0.00000000000E+00 -0.45593999997E+02  0.45594000000E+02  0.51100000000E-03 0. -1.
    9900012    2    1    2    0    0  0.94562483792E+01  0.28623998558E+02  0.31222896777E+02  0.47787271781E+02  0.20000003357E+02 0.  0.
         12    1    1    2    0    0 -0.94562483792E+01 -0.28623998558E+02 -0.31222896777E+02  0.43400728219E+02  0.00000000000E+00 0. -1.
         11    1    3    3    0    0 -0.18469974984E+01  0.28001175176E+01  0.85153834259E+01  0.91522572638E+01  0.51100000000E-03 0. -1.
        -11    1    3    3    0    0  0.41240305449E+01  0.11278164468E+01  0.78358608301E+01  0.89263829787E+01  0.51100000000E-03 0.  1.
         12    1    3    3    0    0  0.71792153327E+01  0.24696064593E+02  0.14871652521E+02  0.29708631538E+02  0.00000000000E+00 0. -1.
</event>
<event>
 7    1  0.2486105E-010  0.4778726E+02  0.7816164E-02  0.1312668E+00
        -11   -1    0    0    0    0  0.00000000000E+00  0.00000000000E+00  0.45593999997E+02  0.45594000000E+02  0.51100000000E-03 0.  1.
         11   -1    0    0    0    0 -0.00000000000E+00 -0.00000000000E+00 -0.45593999997E+02  0.45594000000E+02  0.51100000000E-03 0. -1.
    9900012    2    1    2    0    0 -0.40413620477E+02  0.13301835337E+02  0.85688016761E+01  0.47787263767E+02  0.19999966821E+02 0.  0.
         12    1    1    2    0    0  0.40413620477E+02 -0.13301835337E+02 -0.85688016761E+01  0.43400736233E+02  0.00000000000E+00 0. -1.
         11    1    3    3    0    0 -0.10795242502E+01  0.21650276887E+01 -0.66246326025E+00  0.25083012841E+01  0.51100000000E-03 0. -1.
        -11    1    3    3    0    0 -0.14552520876E+02 -0.21183452175E+01  0.88679817790E+01  0.17172779373E+02  0.51100000000E-03 0.  1.
         12    1    3    3    0    0 -0.24781575351E+02  0.13255152866E+02  0.36328315736E+00  0.28106183110E+02  0.00000000000E+00 0. -1.
</event>
<event>
 7    1  0.2486105E-010  0.4778727E+02  0.7816164E-02  0.1312668E+00
        -11   -1    0    0    0    0  0.00000000000E+00  0.00000000000E+00  0.45593999997E+02  0.45594000000E+02  0.51100000000E-03 0.  1.
         11   -1    0    0    0    0 -0.00000000000E+00 -0.00000000000E+00 -0.45593999997E+02  0.45594000000E+02  0.51100000000E-03 0. -1.
    9900012    2    1    2    0    0  0.11303658157E+02 -0.37960692368E+02  0.17743642607E+02  0.47787266069E+02  0.19999977314E+02 0.  0.
         12    1    1    2    0    0 -0.11303658157E+02  0.37960692368E+02 -0.17743642607E+02  0.43400733931E+02  0.00000000000E+00 0. -1.
         11    1    3    3    0    0  0.38133512562E+01 -0.20786305244E+01 -0.14630320825E+01  0.45828829132E+01  0.51100000000E-03 0. -1.
        -11    1    3    3    0    0  0.39067504682E+00 -0.13734309824E+02  0.12029014621E+01  0.13792420583E+02  0.51100000000E-03 0.  1.
         12    1    3    3    0    0  0.70996318538E+01 -0.22147752020E+02  0.18003773227E+02  0.29411962573E+02  0.00000000000E+00 0. -1.
</event>
<event>
 7    1  0.2486105E-010  0.4778727E+02  0.7816164E-02  0.1312668E+00
        -11   -1    0    0    0    0  0.00000000000E+00  0.00000000000E+00  0.45593999997E+02  0.45594000000E+02  0.51100000000E-03 0. -1.
         11   -1    0    0    0    0 -0.00000000000E+00 -0.00000000000E+00 -0.45593999997E+02  0.45594000000E+02  0.51100000000E-03 0.  1.
    9900012    2    1    2    0    0  0.18965100322E+02  0.35676281121E+02  0.15847744797E+02  0.47787273278E+02  0.20000010182E+02 0.  0.
         12    1    1    2    0    0 -0.18965100322E+02 -0.35676281121E+02 -0.15847744797E+02  0.43400726722E+02  0.00000000000E+00 0. -1.
         11    1    3    3    0    0  0.87832419453E+01  0.15241758164E+02  0.36283966627E+01  0.17961675691E+02  0.51100000000E-03 0. -1.
        -11    1    3    3    0    0  0.14401977216E+00  0.63930488891E+01 -0.27664613185E+01  0.69674331200E+01  0.51100000000E-03 0.  1.
         12    1    3    3    0    0  0.10037838605E+02  0.14041474068E+02  0.14985809453E+02  0.22858164467E+02  0.00000000000E+00 0. -1.
</event>
<event>
 7    1  0.2486105E-010  0.4778728E+02  0.7816164E-02  0.1312668E+00
        -11   -1    0    0    0    0  0.00000000000E+00  0.00000000000E+00  0.45593999997E+02  0.45594000000E+02  0.51100000000E-03 0. -1.
         11   -1    0    0    0    0 -0.00000000000E+00 -0.00000000000E+00 -0.45593999997E+02  0.45594000000E+02  0.51100000000E-03 0.  1.
    9900012    2    1    2    0    0 -0.42260113546E+02 -0.48011507717E+01  0.86402678076E+01  0.47787280266E+02  0.20000042045E+02 0.  0.
         12    1    1    2    0    0  0.42260113546E+02  0.48011507717E+01 -0.86402678076E+01  0.43400719734E+02  0.00000000000E+00 0. -1.
         11    1    3    3    0    0 -0.10788481751E+02 -0.68072967825E+00 -0.43292290479E+01  0.11644610590E+02  0.51100000000E-03 0. -1.
        -11    1    3    3    0    0  0.36022316875E+00 -0.75877003984E+00 -0.92389542368E+00  0.12486295366E+01  0.51100000000E-03 0.  1.
        -12    1    3    3    0    0 -0.31831854963E+02 -0.33616510536E+01  0.13893392279E+02  0.34894040139E+02  0.00000000000E+00 0.  1.
</event>
<event>
 7    1  0.2486105E-010  0.4778727E+02  0.7816164E-02  0.1312668E+00
        -11   -1    0    0    0    0  0.00000000000E+00  0.00000000000E+00  0.45593999997E+02  0.45594000000E+02  0.51100000000E-03 0. -1.
         11   -1    0    0    0    0 -0.00000000000E+00 -0.00000000000E+00 -0.45593999997E+02  0.45594000000E+02  0.51100000000E-03 0.  1.
    9900012    2    1    2    0    0 -0.34098165892E+02 -0.21942468597E+02  0.15474696389E+02  0.47787273351E+02  0.20000010516E+02 0.  0.
         12    1    1    2    0    0  0.34098165892E+02  0.21942468597E+02 -0.15474696389E+02  0.43400726649E+02  0.00000000000E+00 0. -1.
         11    1    3    3    0    0 -0.24545119596E+01  0.86021909790E+00 -0.17883053781E+01  0.31563653532E+01  0.51100000000E-03 0. -1.
        -11    1    3    3    0    0 -0.12164595534E+01 -0.56989571196E+01  0.33291501010E+00  0.58368415055E+01  0.51100000000E-03 0.  1.
        -12    1    3    3    0    0 -0.30427194379E+02 -0.17103730575E+02  0.16930086757E+02  0.38794066492E+02  0.00000000000E+00 0.  1.
</event>
<event>
 7    1  0.2486105E-010  0.4778727E+02  0.7816164E-02  0.1312668E+00
        -11   -1    0    0    0    0  0.00000000000E+00  0.00000000000E+00  0.45593999997E+02  0.45594000000E+02  0.51100000000E-03 0.  1.
         11   -1    0    0    0    0 -0.00000000000E+00 -0.00000000000E+00 -0.45593999997E+02  0.45594000000E+02  0.51100000000E-03 0. -1.
    9900012    2    1    2    0    0 -0.30690671979E+02 -0.28089903258E+01  0.30558403258E+02  0.47787265181E+02  0.19999973265E+02 0.  0.
         12    1    1    2    0    0  0.30690671979E+02  0.28089903258E+01 -0.30558403258E+02  0.43400734819E+02  0.00000000000E+00 0. -1.
         11    1    3    3    0    0 -0.15538767501E+02  0.76554663563E+01  0.14410549278E+02  0.22532718241E+02  0.51100000000E-03 0. -1.
        -11    1    3    3    0    0 -0.46660724630E+00 -0.20586926297E+01  0.36579029879E+01  0.42232916305E+01  0.51100000000E-03 0.  1.
        -12    1    3    3    0    0 -0.14685297232E+02 -0.84057640524E+01  0.12489950992E+02  0.21031255309E+02  0.00000000000E+00 0.  1.
</event>
<event>
 7    1  0.2486105E-010  0.4778726E+02  0.7816164E-02  0.1312668E+00
        -11   -1    0    0    0    0  0.00000000000E+00  0.00000000000E+00  0.45593999997E+02  0.45594000000E+02  0.51100000000E-03 0. -1.
         11   -1    0    0    0    0 -0.00000000000E+00 -0.00000000000E+00 -0.45593999997E+02  0.45594000000E+02  0.51100000000E-03 0.  1.
    9900012    2    1    2    0    0  0.35996338774E+02  0.11995241093E+02 -0.21071354198E+02  0.47787260585E+02  0.19999952311E+02 0.  0.
         12    1    1    2    0    0 -0.35996338774E+02 -0.11995241093E+02  0.21071354198E+02  0.43400739415E+02  0.00000000000E+00 0. -1.
         11    1    3    3    0    0  0.10637383459E+01  0.45909958035E+01 -0.23197549997E+01  0.52526227026E+01  0.51100000000E-03 0. -1.
        -11    1    3    3    0    0  0.15995546463E+01  0.24365417360E+01  0.14364681868E+01  0.32494233043E+01  0.51100000000E-03 0.  1.
        -12    1    3    3    0    0  0.33333045782E+02  0.49677035537E+01 -0.20188067386E+02  0.39285214578E+02  0.00000000000E+00 0.  1.
</event>
<event>
 7    1  0.2486105E-010  0.4778727E+02  0.7816164E-02  0.1312668E+00
        -11   -1    0    0    0    0  0.00000000000E+00  0.00000000000E+00  0.45593999997E+02  0.45594000000E+02  0.51100000000E-03 0. -1.
         11   -1    0    0    0    0 -0.00000000000E+00 -0.00000000000E+00 -0.45593999997E+02  0.45594000000E+02  0.51100000000E-03 0.  1.
    9900012    2    1    2    0    0 -0.24290604376E+02 -0.34467674260E+02 -0.10274693669E+02  0.47787270054E+02  0.19999995485E+02 0.  0.
         12    1    1    2    0    0  0.24290604376E+02  0.34467674260E+02  0.10274693669E+02  0.43400729946E+02  0.00000000000E+00 0. -1.
         11    1    3    3    0    0 -0.11173311184E+02 -0.45928342085E+01 -0.55762328907E+01  0.13305314066E+02  0.51100000000E-03 0. -1.
        -11    1    3    3    0    0 -0.98384801539E+01 -0.12363011863E+02  0.84713368344E+00  0.15822685922E+02  0.51100000000E-03 0.  1.
        -12    1    3    3    0    0 -0.32788130376E+01 -0.17511828189E+02 -0.55455944618E+01  0.18659270066E+02  0.00000000000E+00 0.  1.
</event>
<event>
 7    1  0.2486105E-010  0.4778727E+02  0.7816164E-02  0.1312668E+00
        -11   -1    0    0    0    0  0.00000000000E+00  0.00000000000E+00  0.45593999997E+02  0.45594000000E+02  0.51100000000E-03 0.  1.
         11   -1    0    0    0    0 -0.00000000000E+00 -0.00000000000E+00 -0.45593999997E+02  0.45594000000E+02  0.51100000000E-03 0. -1.
    9900012    2    1    2    0    0 -0.28499424533E+02 -0.20707433850E+02  0.25349721458E+02  0.47787269668E+02  0.19999993726E+02 0.  0.
         12    1    1    2    0    0  0.28499424533E+02  0.20707433850E+02 -0.25349721458E+02  0.43400730332E+02  0.00000000000E+00 0. -1.
         11    1    3    3    0    0 -0.96640556501E+01 -0.85010159873E+01  0.10088511819E+02  0.16353571946E+02  0.51100000000E-03 0. -1.
        -11    1    3    3    0    0 -0.70294426974E+01 -0.81728984737E+01 -0.11250422234E+01  0.10838590977E+02  0.51100000000E-03 0.  1.
         12    1    3    3    0    0 -0.11805926185E+02 -0.40335193886E+01  0.16386251862E+02  0.20595106745E+02  0.00000000000E+00 0. -1.
</event>
<event>
 7    1  0.2486105E-010  0.4778727E+02  0.7816164E-02  0.1312668E+00
        -11   -1    0    0    0    0  0.00000000000E+00  0.00000000000E+00  0.45593999997E+02  0.45594000000E+02  0.51100000000E-03 0. -1.
         11   -1    0    0    0    0 -0.00000000000E+00 -0.00000000000E+00 -0.45593999997E+02  0.45594000000E+02  0.51100000000E-03 0.  1.
    9900012    2    1    2    0    0  0.39958632139E+02  0.14936075525E+02 -0.79902714170E+01  0.47787273372E+02  0.20000010615E+02 0.  0.
         12    1    1    2    0    0 -0.39958632139E+02 -0.14936075525E+02  0.79902714170E+01  0.43400726628E+02  0.00000000000E+00 0. -1.
         11    1    3    3    0    0  0.39402015484E+00 -0.21152536022E+01 -0.12902605412E+01  0.25088487817E+01  0.51100000000E-03 0. -1.
        -11    1    3    3    0    0  0.24023895429E+01  0.47224628018E+01  0.95334449566E+00  0.53834929570E+01  0.51100000000E-03 0.  1.
        -12    1    3    3    0    0  0.37162222441E+02  0.12328866325E+02 -0.76533553714E+01  0.39894931634E+02  0.00000000000E+00 0.  1.
</event>
<event>
 7    1  0.2486105E-010  0.4778727E+02  0.7816164E-02  0.1312668E+00
        -11   -1    0    0    0    0  0.00000000000E+00  0.00000000000E+00  0.45593999997E+02  0.45594000000E+02  0.51100000000E-03 0.  1.
         11   -1    0    0    0    0 -0.00000000000E+00 -0.00000000000E+00 -0.45593999997E+02  0.45594000000E+02  0.51100000000E-03 0. -1.
    9900012    2    1    2    0    0  0.21025548586E+02 -0.43279278000E+01  0.37720270538E+02  0.47787268879E+02  0.19999990129E+02 0.  0.
         12    1    1    2    0    0 -0.21025548586E+02  0.43279278000E+01 -0.37720270538E+02  0.43400731121E+02  0.00000000000E+00 0. -1.
         11    1    3    3    0    0 -0.11982281884E+00 -0.23555425101E+01  0.12971130175E+00  0.23621522618E+01  0.51100000000E-03 0. -1.
        -11    1    3    3    0    0  0.54609384554E+01 -0.35344245162E+01  0.23155862768E+02  0.24052192962E+02  0.51100000000E-03 0.  1.
        -12    1    3    3    0    0  0.15684432949E+02  0.15620392263E+01  0.14434696468E+02  0.21372923656E+02  0.00000000000E+00 0.  1.
</event>
<event>
 7    1  0.2486105E-010  0.4778727E+02  0.7816164E-02  0.1312668E+00
        -11   -1    0    0    0    0  0.00000000000E+00  0.00000000000E+00  0.45593999997E+02  0.45594000000E+02  0.51100000000E-03 0.  1.
         11   -1    0    0    0    0 -0.00000000000E+00 -0.00000000000E+00 -0.45593999997E+02  0.45594000000E+02  0.51100000000E-03 0. -1.
    9900012    2    1    2    0    0  0.40047470963E+02  0.16113023569E+02 -0.44937645802E+01  0.47787269832E+02  0.19999994472E+02 0.  0.
         12    1    1    2    0    0 -0.40047470963E+02 -0.16113023569E+02  0.44937645802E+01  0.43400730168E+02  0.00000000000E+00 0. -1.
         11    1    3    3    0    0  0.11555956785E+02  0.87238729451E+01 -0.96846042491E+01  0.17419461992E+02  0.51100000000E-03 0. -1.
        -11    1    3    3    0    0  0.19172699186E+02  0.75049299374E+01  0.31723723520E+01  0.20832194173E+02  0.51100000000E-03 0.  1.
         12    1    3    3    0    0  0.93188149914E+01 -0.11577931395E+00  0.20184673169E+01  0.95356136668E+01  0.00000000000E+00 0. -1.
</event>
<event>
 7    1  0.2486105E-010  0.4778727E+02  0.7816164E-02  0.1312668E+00
        -11   -1    0    0    0    0  0.00000000000E+00  0.00000000000E+00  0.45593999997E+02  0.45594000000E+02  0.51100000000E-03 0.  1.
         11   -1    0    0    0    0 -0.00000000000E+00 -0.00000000000E+00 -0.45593999997E+02  0.45594000000E+02  0.51100000000E-03 0. -1.
    9900012    2    1    2    0    0 -0.33579092339E+01  0.23241639636E+02  0.36498961553E+02  0.47787267727E+02  0.19999984875E+02 0.  0.
         12    1    1    2    0    0  0.33579092339E+01 -0.23241639636E+02 -0.36498961553E+02  0.43400732273E+02  0.00000000000E+00 0. -1.
         11    1    3    3    0    0  0.73507730985E+00 -0.13201218876E+01  0.36542659516E+01  0.39543293180E+01  0.51100000000E-03 0. -1.
        -11    1    3    3    0    0 -0.35985485884E+01  0.53368182112E+01  0.83529895534E+00  0.64906783289E+01  0.51100000000E-03 0.  1.
        -12    1    3    3    0    0 -0.49443795535E+00  0.19224943312E+02  0.32009396646E+02  0.37342260080E+02  0.00000000000E+00 0.  1.
</event>
<event>
 7    1  0.2486105E-010  0.4778727E+02  0.7816164E-02  0.1312668E+00
        -11   -1    0    0    0    0  0.00000000000E+00  0.00000000000E+00  0.45593999997E+02  0.45594000000E+02  0.51100000000E-03 0.  1.
         11   -1    0    0    0    0 -0.00000000000E+00 -0.00000000000E+00 -0.45593999997E+02  0.45594000000E+02  0.51100000000E-03 0. -1.
    9900012    2    1    2    0    0  0.31353266669E+02  0.43100438491E+00  0.30006839007E+02  0.47787268638E+02  0.19999989026E+02 0.  0.
         12    1    1    2    0    0 -0.31353266669E+02 -0.43100438491E+00 -0.30006839007E+02  0.43400731362E+02  0.00000000000E+00 0. -1.
         11    1    3    3    0    0  0.14051149111E+02  0.39890639116E+01  0.13692927981E+02  0.20021081369E+02  0.51100000000E-03 0. -1.
        -11    1    3    3    0    0  0.45025119129E+01 -0.27897306421E+01  0.13688479881E+02  0.14677523371E+02  0.51100000000E-03 0.  1.
         12    1    3    3    0    0  0.12799605645E+02 -0.76832888461E+00  0.26254311454E+01  0.13088663898E+02  0.00000000000E+00 0. -1.
</event>
<event>
 7    1  0.2486105E-010  0.4778729E+02  0.7816164E-02  0.1312668E+00
        -11   -1    0    0    0    0  0.00000000000E+00  0.00000000000E+00  0.45593999997E+02  0.45594000000E+02  0.51100000000E-03 0.  1.
         11   -1    0    0    0    0 -0.00000000000E+00 -0.00000000000E+00 -0.45593999997E+02  0.45594000000E+02  0.51100000000E-03 0. -1.
    9900012    2    1    2    0    0 -0.24683194638E+02  0.28690225374E+02  0.21242241113E+02  0.47787286445E+02  0.20000070218E+02 0.  0.
         12    1    1    2    0    0  0.24683194638E+02 -0.28690225374E+02 -0.21242241113E+02  0.43400713555E+02  0.00000000000E+00 0. -1.
         11    1    3    3    0    0 -0.16973043587E+01  0.45210370601E+00  0.42143202316E+01  0.45657129917E+01  0.51100000000E-03 0.  1.
        -11    1    3    3    0    0 -0.27233177315E+01  0.15526658479E+02  0.57887571021E+01  0.16792953642E+02  0.51100000000E-03 0. -1.
         12    1    3    3    0    0 -0.20262572548E+02  0.12711463189E+02  0.11239163779E+02  0.26428619811E+02  0.00000000000E+00 0. -1.
</event>
<event>
 7    1  0.2486105E-010  0.4778727E+02  0.7816164E-02  0.1312668E+00
        -11   -1    0    0    0    0  0.00000000000E+00  0.00000000000E+00  0.45593999997E+02  0.45594000000E+02  0.51100000000E-03 0. -1.
         11   -1    0    0    0    0 -0.00000000000E+00 -0.00000000000E+00 -0.45593999997E+02  0.45594000000E+02  0.51100000000E-03 0.  1.
    9900012    2    1    2    0    0 -0.38580061825E+01 -0.34277748125E+02 -0.26339607497E+02  0.47787272457E+02  0.20000006439E+02 0.  0.
         12    1    1    2    0    0  0.38580061825E+01  0.34277748125E+02  0.26339607497E+02  0.43400727543E+02  0.00000000000E+00 0. -1.
         11    1    3    3    0    0  0.37208588928E+01 -0.75168854149E+01 -0.11884369297E+02  0.14546016331E+02  0.51100000000E-03 0. -1.
        -11    1    3    3    0    0 -0.46462809353E+01 -0.18770924981E+02 -0.15341737528E+02  0.24684093295E+02  0.51100000000E-03 0.  1.
         12    1    3    3    0    0 -0.29325841400E+01 -0.79899377287E+01  0.88649932850E+00  0.85571628304E+01  0.00000000000E+00 0. -1.
</event>
<event>
 7    1  0.2486105E-010  0.4778727E+02  0.7816164E-02  0.1312668E+00
        -11   -1    0    0    0    0  0.00000000000E+00  0.00000000000E+00  0.45593999997E+02  0.45594000000E+02  0.51100000000E-03 0. -1.
         11   -1    0    0    0    0 -0.00000000000E+00 -0.00000000000E+00 -0.45593999997E+02  0.45594000000E+02  0.51100000000E-03 0.  1.
    9900012    2    1    2    0    0 -0.18125255690E+02  0.22205720625E+02 -0.32588411650E+02  0.47787268483E+02  0.19999988323E+02 0.  0.
         12    1    1    2    0    0  0.18125255690E+02 -0.22205720625E+02  0.32588411650E+02  0.43400731517E+02  0.00000000000E+00 0. -1.
         11    1    3    3    0    0 -0.20299305714E+01 -0.10012371288E+01 -0.27293609024E+01  0.35457728507E+01  0.51100000000E-03 0. -1.
        -11    1    3    3    0    0 -0.15751368899E+02  0.21495759612E+02 -0.31893037942E+02  0.41561270107E+02  0.51100000000E-03 0.  1.
         12    1    3    3    0    0 -0.34395621907E+00  0.17111981423E+01  0.20339871939E+01  0.26802255256E+01  0.00000000000E+00 0. -1.
</event>
<event>
 7    1  0.2486105E-010  0.4778727E+02  0.7816164E-02  0.1312668E+00
        -11   -1    0    0    0    0  0.00000000000E+00  0.00000000000E+00  0.45593999997E+02  0.45594000000E+02  0.51100000000E-03 0. -1.
         11   -1    0    0    0    0 -0.00000000000E+00 -0.00000000000E+00 -0.45593999997E+02  0.45594000000E+02  0.51100000000E-03 0.  1.
    9900012    2    1    2    0    0 -0.17766605625E+02 -0.21250273692E+02 -0.33412526537E+02  0.47787270317E+02  0.19999996683E+02 0.  0.
         12    1    1    2    0    0  0.17766605625E+02  0.21250273692E+02  0.33412526537E+02  0.43400729683E+02  0.00000000000E+00 0. -1.
         11    1    3    3    0    0 -0.65486227238E+01 -0.10983149833E+02 -0.21622149664E+02  0.25120338298E+02  0.51100000000E-03 0. -1.
        -11    1    3    3    0    0  0.45139122436E+00 -0.63750975442E+01 -0.69654964698E+01  0.94532409293E+01  0.51100000000E-03 0.  1.
         12    1    3    3    0    0 -0.11669374125E+02 -0.38920263152E+01 -0.48248804030E+01  0.13213691090E+02  0.00000000000E+00 0. -1.
</event>
<event>
 7    1  0.2486105E-010  0.4778727E+02  0.7816164E-02  0.1312668E+00
        -11   -1    0    0    0    0  0.00000000000E+00  0.00000000000E+00  0.45593999997E+02  0.45594000000E+02  0.51100000000E-03 0.  1.
         11   -1    0    0    0    0 -0.00000000000E+00 -0.00000000000E+00 -0.45593999997E+02  0.45594000000E+02  0.51100000000E-03 0. -1.
    9900012    2    1    2    0    0 -0.32909534628E+02  0.12054662917E+02  0.25598257587E+02  0.47787272369E+02  0.20000006038E+02 0.  0.
         12    1    1    2    0    0  0.32909534628E+02 -0.12054662917E+02 -0.25598257587E+02  0.43400727631E+02  0.00000000000E+00 0. -1.
         11    1    3    3    0    0 -0.45548927684E+01  0.71113302223E+01  0.51146494994E+01  0.98730798348E+01  0.51100000000E-03 0. -1.
        -11    1    3    3    0    0 -0.29297679225E+02  0.56286595366E+01  0.21151393390E+02  0.36570715863E+02  0.51100000000E-03 0.  1.
        -12    1    3    3    0    0  0.94303736598E+00 -0.68532684152E+00 -0.66778530288E+00  0.13434766705E+01  0.00000000000E+00 0.  1.
</event>
<event>
 7    1  0.2486105E-010  0.4778727E+02  0.7816164E-02  0.1312668E+00
        -11   -1    0    0    0    0  0.00000000000E+00  0.00000000000E+00  0.45593999997E+02  0.45594000000E+02  0.51100000000E-03 0. -1.
         11   -1    0    0    0    0 -0.00000000000E+00 -0.00000000000E+00 -0.45593999997E+02  0.45594000000E+02  0.51100000000E-03 0.  1.
    9900012    2    1    2    0    0  0.39994904403E+02 -0.52365127655E+01  0.16019059582E+02  0.47787265973E+02  0.19999976879E+02 0.  0.
         12    1    1    2    0    0 -0.39994904403E+02  0.52365127655E+01 -0.16019059582E+02  0.43400734027E+02  0.00000000000E+00 0. -1.
         11    1    3    3    0    0  0.64401135889E+01 -0.15572997926E+01 -0.26194515556E+01  0.71247296367E+01  0.51100000000E-03 0. -1.
        -11    1    3    3    0    0  0.15542257262E+02 -0.39034505064E+01  0.20162384030E+01  0.16151281813E+02  0.51100000000E-03 0.  1.
         12    1    3    3    0    0  0.18012533553E+02  0.22423753349E+00  0.16622272735E+02  0.24511254524E+02  0.00000000000E+00 0. -1.
</event>
<event>
 7    1  0.2486105E-010  0.4778727E+02  0.7816164E-02  0.1312668E+00
        -11   -1    0    0    0    0  0.00000000000E+00  0.00000000000E+00  0.45593999997E+02  0.45594000000E+02  0.51100000000E-03 0.  1.
         11   -1    0    0    0    0 -0.00000000000E+00 -0.00000000000E+00 -0.45593999997E+02  0.45594000000E+02  0.51100000000E-03 0. -1.
    9900012    2    1    2    0    0  0.24246928257E+02 -0.32577666440E+02  0.15310302711E+02  0.47787271323E+02  0.20000001270E+02 0.  0.
         12    1    1    2    0    0 -0.24246928257E+02  0.32577666440E+02 -0.15310302711E+02  0.43400728677E+02  0.00000000000E+00 0. -1.
         11    1    3    3    0    0  0.60071425184E+01 -0.46758280242E+01 -0.70510828655E+00  0.76450184372E+01  0.51100000000E-03 0. -1.
        -11    1    3    3    0    0 -0.16136373878E+01 -0.18428714177E+01  0.50206457169E+01  0.55863122324E+01  0.51100000000E-03 0.  1.
        -12    1    3    3    0    0  0.19853423127E+02 -0.26058966998E+02  0.10994765281E+02  0.34555940653E+02  0.00000000000E+00 0.  1.
</event>
<event>
 7    1  0.2486105E-010  0.4778727E+02  0.7816164E-02  0.1312668E+00
        -11   -1    0    0    0    0  0.00000000000E+00  0.00000000000E+00  0.45593999997E+02  0.45594000000E+02  0.51100000000E-03 0.  1.
         11   -1    0    0    0    0 -0.00000000000E+00 -0.00000000000E+00 -0.45593999997E+02  0.45594000000E+02  0.51100000000E-03 0. -1.
    9900012    2    1    2    0    0  0.98607631054E+01 -0.42231811671E+02 -0.16920087611E+01  0.47787268903E+02  0.19999990238E+02 0.  0.
         12    1    1    2    0    0 -0.98607631054E+01  0.42231811671E+02  0.16920087611E+01  0.43400731097E+02  0.00000000000E+00 0. -1.
         11    1    3    3    0    0 -0.52377537930E+01 -0.14232854850E+02  0.12885882351E+01  0.15220666276E+02  0.51100000000E-03 0. -1.
        -11    1    3    3    0    0 -0.11775770800E+00 -0.20415680970E+01 -0.13164612170E+01  0.24320644665E+01  0.51100000000E-03 0.  1.
        -12    1    3    3    0    0  0.15216274606E+02 -0.25957388724E+02 -0.16641357792E+01  0.30134538161E+02  0.00000000000E+00 0.  1.
</event>
<event>
 7    1  0.2486105E-010  0.4778727E+02  0.7816164E-02  0.1312668E+00
        -11   -1    0    0    0    0  0.00000000000E+00  0.00000000000E+00  0.45593999997E+02  0.45594000000E+02  0.51100000000E-03 0.  1.
         11   -1    0    0    0    0 -0.00000000000E+00 -0.00000000000E+00 -0.45593999997E+02  0.45594000000E+02  0.51100000000E-03 0. -1.
    9900012    2    1    2    0    0 -0.13510178427E+02  0.31072815986E+02 -0.27121549083E+02  0.47787271445E+02  0.20000001828E+02 0.  0.
         12    1    1    2    0    0  0.13510178427E+02 -0.31072815986E+02  0.27121549083E+02  0.43400728555E+02  0.00000000000E+00 0. -1.
         11    1    3    3    0    0 -0.32884623571E+01  0.49229333750E+01 -0.81149539790E+01  0.10044985616E+02  0.51100000000E-03 0. -1.
        -11    1    3    3    0    0 -0.13278349762E+02  0.26380553890E+02 -0.17460113154E+02  0.34308945591E+02  0.51100000000E-03 0.  1.
        -12    1    3    3    0    0  0.30566336923E+01 -0.23067127945E+00 -0.15464819496E+01  0.34333402377E+01  0.00000000000E+00 0.  1.
</event>
<event>
 7    1  0.2486105E-010  0.4778724E+02  0.7816164E-02  0.1312668E+00
        -11   -1    0    0    0    0  0.00000000000E+00  0.00000000000E+00  0.45593999997E+02  0.45594000000E+02  0.51100000000E-03 0. -1.
         11   -1    0    0    0    0 -0.00000000000E+00 -0.00000000000E+00 -0.45593999997E+02  0.45594000000E+02  0.51100000000E-03 0.  1.
    9900012    2    1    2    0    0 -0.46954909804E+01 -0.29257139582E+02 -0.31711162859E+02  0.47787243072E+02  0.19999872463E+02 0.  0.
         12    1    1    2    0    0  0.46954909804E+01  0.29257139582E+02  0.31711162859E+02  0.43400756928E+02  0.00000000000E+00 0. -1.
         11    1    3    3    0    0 -0.12776119350E+01  0.10684393380E+01 -0.37046303282E+01  0.40617903695E+01  0.51100000000E-03 0. -1.
        -11    1    3    3    0    0 -0.42311661577E+01 -0.15071973153E+01 -0.57934387710E+01  0.73306441638E+01  0.51100000000E-03 0.  1.
        -12    1    3    3    0    0  0.81328711227E+00 -0.28818381604E+02 -0.22213093760E+02  0.36394808539E+02  0.00000000000E+00 0.  1.
</event>
<event>
 7    1  0.2486105E-010  0.4778726E+02  0.7816164E-02  0.1312668E+00
        -11   -1    0    0    0    0  0.00000000000E+00  0.00000000000E+00  0.45593999997E+02  0.45594000000E+02  0.51100000000E-03 0.  1.
         11   -1    0    0    0    0 -0.00000000000E+00 -0.00000000000E+00 -0.45593999997E+02  0.45594000000E+02  0.51100000000E-03 0. -1.
    9900012    2    1    2    0    0 -0.14316612621E+02  0.20747645967E+02  0.35329783357E+02  0.47787264959E+02  0.19999972253E+02 0.  0.
         12    1    1    2    0    0  0.14316612621E+02 -0.20747645967E+02 -0.35329783357E+02  0.43400735041E+02  0.00000000000E+00 0. -1.
         11    1    3    3    0    0  0.45668970101E-01 -0.42106961363E+00 -0.14466184701E+01  0.15073455256E+01  0.51100000000E-03 0. -1.
        -11    1    3    3    0    0 -0.81275597626E+01  0.10853176700E+02  0.97898277100E+01  0.16723916976E+02  0.51100000000E-03 0.  1.
        -12    1    3    3    0    0 -0.62347218285E+01  0.10315538880E+02  0.26986574117E+02  0.29556002457E+02  0.00000000000E+00 0.  1.
</event>
<event>
 7    1  0.2486105E-010  0.4778727E+02  0.7816164E-02  0.1312668E+00
        -11   -1    0    0    0    0  0.00000000000E+00  0.00000000000E+00  0.45593999997E+02  0.45594000000E+02  0.51100000000E-03 0.  1.
         11   -1    0    0    0    0 -0.00000000000E+00 -0.00000000000E+00 -0.45593999997E+02  0.45594000000E+02  0.51100000000E-03 0. -1.
    9900012    2    1    2    0    0  0.32750176850E+02 -0.21338214779E+02  0.18860798033E+02  0.47787271941E+02  0.20000004086E+02 0.  0.
         12    1    1    2    0    0 -0.32750176850E+02  0.21338214779E+02 -0.18860798033E+02  0.43400728059E+02  0.00000000000E+00 0. -1.
         11    1    3    3    0    0  0.36289124506E+01  0.35006614623E+00  0.21770529543E-01  0.36458231029E+01  0.51100000000E-03 0. -1.
        -11    1    3    3    0    0  0.22473408081E+02 -0.71205524305E+01  0.13978164479E+02  0.27407032312E+02  0.51100000000E-03 0.  1.
         12    1    3    3    0    0  0.66478563187E+01 -0.14567728494E+02  0.48608630244E+01  0.16734416526E+02  0.00000000000E+00 0. -1.
</event>
<event>
 7    1  0.2486105E-010  0.4778728E+02  0.7816164E-02  0.1312668E+00
        -11   -1    0    0    0    0  0.00000000000E+00  0.00000000000E+00  0.45593999997E+02  0.45594000000E+02  0.51100000000E-03 0.  1.
         11   -1    0    0    0    0 -0.00000000000E+00 -0.00000000000E+00 -0.45593999997E+02  0.45594000000E+02  0.51100000000E-03 0. -1.
    9900012    2    1    2    0    0  0.23406420129E+02  0.73426953452E+01  0.35802894253E+02  0.47787275178E+02  0.20000018846E+02 0.  0.
         12    1    1    2    0    0 -0.23406420129E+02 -0.73426953452E+01 -0.35802894253E+02  0.43400724822E+02  0.00000000000E+00 0. -1.
         11    1    3    3    0    0  0.95454024669E+01 -0.59725258817E+00  0.22249524907E+02  0.24218025885E+02  0.51100000000E-03 0. -1.
        -11    1    3    3    0    0  0.14134897002E+02  0.39236232703E+01  0.12810557926E+02  0.19475639333E+02  0.51100000000E-03 0.  1.
        -12    1    3    3    0    0 -0.27387933998E+00  0.40163246631E+01  0.74281142026E+00  0.40936099592E+01  0.00000000000E+00 0.  1.
</event>
<event>
 7    1  0.5581079E-010  0.4778732E+02  0.7816164E-02  0.1312668E+00
        -11   -1    0    0    0    0  0.00000000000E+00  0.00000000000E+00  0.45593999997E+02  0.45594000000E+02  0.51100000000E-03 0. -1.
         11   -1    0    0    0    0 -0.00000000000E+00 -0.00000000000E+00 -0.45593999997E+02  0.45594000000E+02  0.51100000000E-03 0.  1.
    9900012    2    1    2    0    0 -0.29810848824E+02 -0.15386243675E+02 -0.27535354626E+02  0.47787320784E+02  0.20000226780E+02 0.  0.
         12    1    1    2    0    0  0.29810848824E+02  0.15386243675E+02  0.27535354626E+02  0.43400679216E+02  0.00000000000E+00 0. -1.
         11    1    3    3    0    0 -0.11230537090E+01  0.16220222572E+00  0.20209152771E+01  0.23176837605E+01  0.51100000000E-03 0. -1.
        -11    1    3    3    0    0 -0.17296216657E+02 -0.74234322203E+01 -0.96884531915E+01  0.21169142214E+02  0.51100000000E-03 0.  1.
        -12    1    3    3    0    0 -0.11391578459E+02 -0.81250136805E+01 -0.19867816712E+02  0.24300494809E+02  0.00000000000E+00 0.  1.
</event>
<event>
 7    1  0.2486105E-010  0.4778727E+02  0.7816164E-02  0.1312668E+00
        -11   -1    0    0    0    0  0.00000000000E+00  0.00000000000E+00  0.45593999997E+02  0.45594000000E+02  0.51100000000E-03 0.  1.
         11   -1    0    0    0    0 -0.00000000000E+00 -0.00000000000E+00 -0.45593999997E+02  0.45594000000E+02  0.51100000000E-03 0. -1.
    9900012    2    1    2    0    0 -0.42607794675E+02  0.18116668488E+01 -0.80570980465E+01  0.47787272670E+02  0.20000007413E+02 0.  0.
         12    1    1    2    0    0  0.42607794675E+02 -0.18116668488E+01  0.80570980465E+01  0.43400727330E+02  0.00000000000E+00 0. -1.
         11    1    3    3    0    0 -0.95541931010E+00 -0.29816245057E+01 -0.26307104195E+01  0.40894435224E+01  0.51100000000E-03 0. -1.
        -11    1    3    3    0    0 -0.18345294735E+02  0.19346607474E+01 -0.79374258360E+01  0.20082218012E+02  0.51100000000E-03 0.  1.
         12    1    3    3    0    0 -0.23307080630E+02  0.28586306071E+01  0.25110382090E+01  0.23615611136E+02  0.00000000000E+00 0. -1.
</event>
<event>
 7    1  0.2486105E-010  0.4778727E+02  0.7816164E-02  0.1312668E+00
        -11   -1    0    0    0    0  0.00000000000E+00  0.00000000000E+00  0.45593999997E+02  0.45594000000E+02  0.51100000000E-03 0.  1.
         11   -1    0    0    0    0 -0.00000000000E+00 -0.00000000000E+00 -0.45593999997E+02  0.45594000000E+02  0.51100000000E-03 0. -1.
    9900012    2    1    2    0    0 -0.15679965695E+02 -0.19682723341E+02  0.35360324189E+02  0.47787269027E+02  0.19999990800E+02 0.  0.
         12    1    1    2    0    0  0.15679965695E+02  0.19682723341E+02 -0.35360324189E+02  0.43400730973E+02  0.00000000000E+00 0. -1.
         11    1    3    3    0    0 -0.87366289767E+01 -0.71336966968E+01  0.76696874035E+01  0.13639736785E+02  0.51100000000E-03 0. -1.
        -11    1    3    3    0    0 -0.26280299653E+01 -0.99657454926E+01  0.60946072663E+01  0.11973590218E+02  0.51100000000E-03 0.  1.
        -12    1    3    3    0    0 -0.43153067529E+01 -0.25832811514E+01  0.21596029519E+02  0.22173942023E+02  0.00000000000E+00 0.  1.
</event>
<event>
 7    1  0.2486105E-010  0.4778727E+02  0.7816164E-02  0.1312668E+00
        -11   -1    0    0    0    0  0.00000000000E+00  0.00000000000E+00  0.45593999997E+02  0.45594000000E+02  0.51100000000E-03 0.  1.
         11   -1    0    0    0    0 -0.00000000000E+00 -0.00000000000E+00 -0.45593999997E+02  0.45594000000E+02  0.51100000000E-03 0. -1.
    9900012    2    1    2    0    0  0.14697878355E+02 -0.40749485531E+02 -0.26599371868E+01  0.47787268842E+02  0.19999989960E+02 0.  0.
         12    1    1    2    0    0 -0.14697878355E+02  0.40749485531E+02  0.26599371868E+01  0.43400731158E+02  0.00000000000E+00 0. -1.
         11    1    3    3    0    0  0.10499131997E+02 -0.21740687444E+02 -0.74385919647E+01  0.25263054327E+02  0.51100000000E-03 0. -1.
        -11    1    3    3    0    0  0.41234931591E+01 -0.63751413042E+01 -0.24382120855E+01  0.79743652360E+01  0.51100000000E-03 0.  1.
         12    1    3    3    0    0  0.75253199156E-01 -0.12633656783E+02  0.72168668634E+01  0.14549849280E+02  0.00000000000E+00 0. -1.
</event>
<event>
 7    1  0.2486105E-010  0.4778727E+02  0.7816164E-02  0.1312668E+00
        -11   -1    0    0    0    0  0.00000000000E+00  0.00000000000E+00  0.45593999997E+02  0.45594000000E+02  0.51100000000E-03 0.  1.
         11   -1    0    0    0    0 -0.00000000000E+00 -0.00000000000E+00 -0.45593999997E+02  0.45594000000E+02  0.51100000000E-03 0. -1.
    9900012    2    1    2    0    0 -0.28391546906E+02 -0.23506289960E+01  0.32741690148E+02  0.47787266526E+02  0.19999979399E+02 0.  0.
         12    1    1    2    0    0  0.28391546906E+02  0.23506289960E+01 -0.32741690148E+02  0.43400733474E+02  0.00000000000E+00 0. -1.
         11    1    3    3    0    0 -0.15088736120E+02 -0.43801220683E+01  0.21493665731E+02  0.26623919581E+02  0.51100000000E-03 0.  1.
        -11    1    3    3    0    0  0.22170060225E+01  0.79167425840E+00  0.16214164609E+01  0.28584708213E+01  0.51100000000E-03 0. -1.
         12    1    3    3    0    0 -0.15519816808E+02  0.12378188139E+01  0.96266079555E+01  0.18304876124E+02  0.00000000000E+00 0. -1.
</event>
<event>
 7    1  0.2486105E-010  0.4778727E+02  0.7816164E-02  0.1312668E+00
        -11   -1    0    0    0    0  0.00000000000E+00  0.00000000000E+00  0.45593999997E+02  0.45594000000E+02  0.51100000000E-03 0. -1.
         11   -1    0    0    0    0 -0.00000000000E+00 -0.00000000000E+00 -0.45593999997E+02  0.45594000000E+02  0.51100000000E-03 0.  1.
    9900012    2    1    2    0    0 -0.22973836982E+02 -0.36749453956E+02 -0.23030063324E+01  0.47787269708E+02  0.19999993906E+02 0.  0.
         12    1    1    2    0    0  0.22973836982E+02  0.36749453956E+02  0.23030063324E+01  0.43400730292E+02  0.00000000000E+00 0. -1.
         11    1    3    3    0    0 -0.11014197927E+02 -0.13909319467E+02 -0.53378314353E+01  0.18527659558E+02  0.51100000000E-03 0. -1.
        -11    1    3    3    0    0 -0.13562240103E+02 -0.12088314276E+02  0.96128227975E+00  0.18193014114E+02  0.51100000000E-03 0.  1.
         12    1    3    3    0    0  0.16026010475E+01 -0.10751820213E+02  0.20735428231E+01  0.11066596037E+02  0.00000000000E+00 0. -1.
</event>
<event>
 7    1  0.2486105E-010  0.4778727E+02  0.7816164E-02  0.1312668E+00
        -11   -1    0    0    0    0  0.00000000000E+00  0.00000000000E+00  0.45593999997E+02  0.45594000000E+02  0.51100000000E-03 0. -1.
         11   -1    0    0    0    0 -0.00000000000E+00 -0.00000000000E+00 -0.45593999997E+02  0.45594000000E+02  0.51100000000E-03 0.  1.
    9900012    2    1    2    0    0  0.89563120418E+01  0.33713814826E+02 -0.25822205073E+02  0.47787272928E+02  0.20000008589E+02 0.  0.
         12    1    1    2    0    0 -0.89563120418E+01 -0.33713814826E+02  0.25822205073E+02  0.43400727072E+02  0.00000000000E+00 0. -1.
         11    1    3    3    0    0  0.49154189607E+01  0.14313515259E+02 -0.63654902159E+01  0.16418207228E+02  0.51100000000E-03 0. -1.
        -11    1    3    3    0    0  0.13378986734E+01  0.20396594437E+02 -0.12804383049E+02  0.24119769132E+02  0.51100000000E-03 0.  1.
         12    1    3    3    0    0  0.27029944077E+01 -0.99629487006E+00 -0.66523318087E+01  0.72492965679E+01  0.00000000000E+00 0. -1.
</event>
<event>
 7    1  0.2486105E-010  0.4778727E+02  0.7816164E-02  0.1312668E+00
        -11   -1    0    0    0    0  0.00000000000E+00  0.00000000000E+00  0.45593999997E+02  0.45594000000E+02  0.51100000000E-03 0.  1.
         11   -1    0    0    0    0 -0.00000000000E+00 -0.00000000000E+00 -0.45593999997E+02  0.45594000000E+02  0.51100000000E-03 0. -1.
    9900012    2    1    2    0    0  0.18980790831E+02  0.12404313086E+02  0.37006565047E+02  0.47787271201E+02  0.20000000712E+02 0.  0.
         12    1    1    2    0    0 -0.18980790831E+02 -0.12404313086E+02 -0.37006565047E+02  0.43400728799E+02  0.00000000000E+00 0. -1.
         11    1    3    3    0    0 -0.18290079102E+01 -0.75850866761E+00  0.54535503219E+00  0.20537813191E+01  0.51100000000E-03 0. -1.
        -11    1    3    3    0    0 -0.10509346348E+01 -0.15305834286E+00  0.53079285989E+01  0.54131318786E+01  0.51100000000E-03 0.  1.
         12    1    3    3    0    0  0.21860733376E+02  0.13315880096E+02  0.31153281416E+02  0.40320358003E+02  0.00000000000E+00 0. -1.
</event>
<event>
 7    1  0.2486105E-010  0.4778730E+02  0.7816164E-02  0.1312668E+00
        -11   -1    0    0    0    0  0.00000000000E+00  0.00000000000E+00  0.45593999997E+02  0.45594000000E+02  0.51100000000E-03 0. -1.
         11   -1    0    0    0    0 -0.00000000000E+00 -0.00000000000E+00 -0.45593999997E+02  0.45594000000E+02  0.51100000000E-03 0.  1.
    9900012    2    1    2    0    0  0.76038686468E+01 -0.42249739403E+02 -0.63844550804E+01  0.47787302255E+02  0.20000142302E+02 0.  0.
         12    1    1    2    0    0 -0.76038686468E+01  0.42249739403E+02  0.63844550804E+01  0.43400697745E+02  0.00000000000E+00 0. -1.
         11    1    3    3    0    0  0.65862647342E+01 -0.11446906847E+02  0.24364669675E+01  0.13429330998E+02  0.51100000000E-03 0. -1.
        -11    1    3    3    0    0  0.63434137269E-01 -0.43229081281E+00  0.20426307809E+01  0.20888369982E+01  0.51100000000E-03 0.  1.
        -12    1    3    3    0    0  0.95416977540E+00 -0.30370541744E+02 -0.10863552829E+02  0.32269134259E+02  0.00000000000E+00 0.  1.
</event>
<event>
 7    1  0.2486105E-010  0.4778727E+02  0.7816164E-02  0.1312668E+00
        -11   -1    0    0    0    0  0.00000000000E+00  0.00000000000E+00  0.45593999997E+02  0.45594000000E+02  0.51100000000E-03 0.  1.
         11   -1    0    0    0    0 -0.00000000000E+00 -0.00000000000E+00 -0.45593999997E+02  0.45594000000E+02  0.51100000000E-03 0. -1.
    9900012    2    1    2    0    0 -0.31892614784E+02 -0.28587912003E+02  0.70153798928E+01  0.47787272524E+02  0.20000006745E+02 0.  0.
         12    1    1    2    0    0  0.31892614784E+02  0.28587912003E+02 -0.70153798928E+01  0.43400727476E+02  0.00000000000E+00 0. -1.
         11    1    3    3    0    0 -0.12066529617E+02 -0.73777421751E+01  0.11544857121E+01  0.14190315505E+02  0.51100000000E-03 0.  1.
        -11    1    3    3    0    0 -0.16858771512E+02 -0.18460477187E+02  0.10782346012E+02  0.27226207607E+02  0.51100000000E-03 0. -1.
         12    1    3    3    0    0 -0.29673136550E+01 -0.27496926405E+01 -0.49214518315E+01  0.63707494123E+01  0.00000000000E+00 0. -1.
</event>
<event>
 7    1  0.2486105E-010  0.4778727E+02  0.7816164E-02  0.1312668E+00
        -11   -1    0    0    0    0  0.00000000000E+00  0.00000000000E+00  0.45593999997E+02  0.45594000000E+02  0.51100000000E-03 0.  1.
         11   -1    0    0    0    0 -0.00000000000E+00 -0.00000000000E+00 -0.45593999997E+02  0.45594000000E+02  0.51100000000E-03 0. -1.
    9900012    2    1    2    0    0 -0.23643911984E+00 -0.40060016397E+02  0.16696175063E+02  0.47787273290E+02  0.20000010240E+02 0.  0.
         12    1    1    2    0    0  0.23643911984E+00  0.40060016397E+02 -0.16696175063E+02  0.43400726710E+02  0.00000000000E+00 0. -1.
         11    1    3    3    0    0  0.76893649172E+01 -0.10801818378E+02  0.63657134493E+01  0.14708090328E+02  0.51100000000E-03 0. -1.
        -11    1    3    3    0    0  0.86287538848E+00 -0.25201538648E+01  0.29652955478E+01  0.39860641471E+01  0.51100000000E-03 0.  1.
        -12    1    3    3    0    0 -0.87886794256E+01 -0.26738044154E+02  0.73651660654E+01  0.29093118815E+02  0.00000000000E+00 0.  1.
</event>
<event>
 7    1  0.2486105E-010  0.4778727E+02  0.7816164E-02  0.1312668E+00
        -11   -1    0    0    0    0  0.00000000000E+00  0.00000000000E+00  0.45593999997E+02  0.45594000000E+02  0.51100000000E-03 0.  1.
         11   -1    0    0    0    0 -0.00000000000E+00 -0.00000000000E+00 -0.45593999997E+02  0.45594000000E+02  0.51100000000E-03 0. -1.
    9900012    2    1    2    0    0 -0.40921322294E+01 -0.35701439439E+02  0.24336900971E+02  0.47787273358E+02  0.20000010549E+02 0.  0.
         12    1    1    2    0    0  0.40921322294E+01  0.35701439439E+02 -0.24336900971E+02  0.43400726642E+02  0.00000000000E+00 0. -1.
         11    1    3    3    0    0  0.17489994375E+01 -0.10108425961E+02  0.10400913589E+02  0.14608842466E+02  0.51100000000E-03 0. -1.
        -11    1    3    3    0    0  0.27727578720E+01 -0.19132970518E+02  0.85446617380E+01  0.21136934298E+02  0.51100000000E-03 0.  1.
        -12    1    3    3    0    0 -0.86138895389E+01 -0.64600429598E+01  0.53913256439E+01  0.12041496594E+02  0.00000000000E+00 0.  1.
</event>
<event>
 7    1  0.2486105E-010  0.4778727E+02  0.7816164E-02  0.1312668E+00
        -11   -1    0    0    0    0  0.00000000000E+00  0.00000000000E+00  0.45593999997E+02  0.45594000000E+02  0.51100000000E-03 0.  1.
         11   -1    0    0    0    0 -0.00000000000E+00 -0.00000000000E+00 -0.45593999997E+02  0.45594000000E+02  0.51100000000E-03 0. -1.
    9900012    2    1    2    0    0 -0.27617403975E+02  0.33466925639E+02  0.93141376161E+00  0.47787266762E+02  0.19999980473E+02 0.  0.
         12    1    1    2    0    0  0.27617403975E+02 -0.33466925639E+02 -0.93141376161E+00  0.43400733238E+02  0.00000000000E+00 0. -1.
         11    1    3    3    0    0 -0.48422593075E+01  0.10876464631E+01 -0.35881248480E+01  0.61241399572E+01  0.51100000000E-03 0. -1.
        -11    1    3    3    0    0 -0.62061455418E+01  0.46906655278E+01 -0.33180443349E+01  0.84574230147E+01  0.51100000000E-03 0.  1.
        -12    1    3    3    0    0 -0.16568999125E+02  0.27688613648E+02  0.78375829445E+01  0.33205703790E+02  0.00000000000E+00 0.  1.
</event>
<event>
 7    1  0.2486105E-010  0.4778728E+02  0.7816164E-02  0.1312668E+00
        -11   -1    0    0    0    0  0.00000000000E+00  0.00000000000E+00  0.45593999997E+02  0.45594000000E+02  0.51100000000E-03 0.  1.
         11   -1    0    0    0    0 -0.00000000000E+00 -0.00000000000E+00 -0.45593999997E+02  0.45594000000E+02  0.51100000000E-03 0. -1.
    9900012    2    1    2    0    0  0.20301728164E+01  0.41583035982E+02 -0.12261828086E+02  0.47787275223E+02  0.20000019052E+02 0.  0.
         12    1    1    2    0    0 -0.20301728164E+01 -0.41583035982E+02  0.12261828086E+02  0.43400724777E+02  0.00000000000E+00 0. -1.
         11    1    3    3    0    0 -0.38976040093E+01  0.60856339231E+01 -0.47830857842E+01  0.86662660436E+01  0.51100000000E-03 0. -1.
        -11    1    3    3    0    0 -0.35625414495E+01  0.81895486611E+01  0.10170094394E+01  0.89885881713E+01  0.51100000000E-03 0.  1.
        -12    1    3    3    0    0  0.94903182752E+01  0.27307853398E+02 -0.84957517408E+01  0.30132421008E+02  0.00000000000E+00 0.  1.
</event>
<event>
 7    1  0.2486105E-010  0.4778727E+02  0.7816164E-02  0.1312668E+00
        -11   -1    0    0    0    0  0.00000000000E+00  0.00000000000E+00  0.45593999997E+02  0.45594000000E+02  0.51100000000E-03 0.  1.
         11   -1    0    0    0    0 -0.00000000000E+00 -0.00000000000E+00 -0.45593999997E+02  0.45594000000E+02  0.51100000000E-03 0. -1.
    9900012    2    1    2    0    0  0.15854709373E+02 -0.27719137161E+02  0.29392193166E+02  0.47787269668E+02  0.19999993726E+02 0.  0.
         12    1    1    2    0    0 -0.15854709373E+02  0.27719137161E+02 -0.29392193166E+02  0.43400730332E+02  0.00000000000E+00 0. -1.
         11    1    3    3    0    0  0.10763128386E+02 -0.82312505760E+01  0.58208686998E+01  0.14747234703E+02  0.51100000000E-03 0. -1.
        -11    1    3    3    0    0  0.68725256398E+01 -0.17192954722E+02  0.14508033455E+02  0.23522592028E+02  0.51100000000E-03 0.  1.
         12    1    3    3    0    0 -0.17809446532E+01 -0.22949318624E+01  0.90632910113E+01  0.95174429373E+01  0.00000000000E+00 0. -1.
</event>
<event>
 7    1  0.2486105E-010  0.4778727E+02  0.7816164E-02  0.1312668E+00
        -11   -1    0    0    0    0  0.00000000000E+00  0.00000000000E+00  0.45593999997E+02  0.45594000000E+02  0.51100000000E-03 0. -1.
         11   -1    0    0    0    0 -0.00000000000E+00 -0.00000000000E+00 -0.45593999997E+02  0.45594000000E+02  0.51100000000E-03 0.  1.
    9900012    2    1    2    0    0  0.33452241600E+01  0.28461507626E+02 -0.32594097920E+02  0.47787272353E+02  0.20000005968E+02 0.  0.
         12    1    1    2    0    0 -0.33452241600E+01 -0.28461507626E+02  0.32594097920E+02  0.43400727647E+02  0.00000000000E+00 0. -1.
         11    1    3    3    0    0 -0.24689288585E+01  0.15003937388E+02 -0.13553375308E+02  0.20369283967E+02  0.51100000000E-03 0. -1.
        -11    1    3    3    0    0  0.26120220381E+01  0.11764404014E+02 -0.20279440821E+02  0.23589819440E+02  0.51100000000E-03 0.  1.
         12    1    3    3    0    0  0.32021309804E+01  0.16931662238E+01  0.12387182087E+01  0.38281689458E+01  0.00000000000E+00 0. -1.
</event>
<event>
 7    1  0.2486105E-010  0.4778727E+02  0.7816164E-02  0.1312668E+00
        -11   -1    0    0    0    0  0.00000000000E+00  0.00000000000E+00  0.45593999997E+02  0.45594000000E+02  0.51100000000E-03 0.  1.
         11   -1    0    0    0    0 -0.00000000000E+00 -0.00000000000E+00 -0.45593999997E+02  0.45594000000E+02  0.51100000000E-03 0. -1.
    9900012    2    1    2    0    0 -0.25508688720E+02  0.21951536735E+01  0.35044416990E+02  0.47787273485E+02  0.20000011129E+02 0.  0.
         12    1    1    2    0    0  0.25508688720E+02 -0.21951536735E+01 -0.35044416990E+02  0.43400726515E+02  0.00000000000E+00 0. -1.
         11    1    3    3    0    0 -0.25684915644E+01 -0.23578438645E+01  0.11469879043E+01  0.36704438587E+01  0.51100000000E-03 0. -1.
        -11    1    3    3    0    0 -0.14607175708E+02 -0.15279177915E+01  0.29397766602E+02  0.32862330964E+02  0.51100000000E-03 0.  1.
        -12    1    3    3    0    0 -0.83330214470E+01  0.60809153295E+01  0.44996624839E+01  0.11254498663E+02  0.00000000000E+00 0.  1.
</event>
<event>
 7    1  0.2486105E-010  0.4778727E+02  0.7816164E-02  0.1312668E+00
        -11   -1    0    0    0    0  0.00000000000E+00  0.00000000000E+00  0.45593999997E+02  0.45594000000E+02  0.51100000000E-03 0. -1.
         11   -1    0    0    0    0 -0.00000000000E+00 -0.00000000000E+00 -0.45593999997E+02  0.45594000000E+02  0.51100000000E-03 0.  1.
    9900012    2    1    2    0    0 -0.30004526337E+02  0.22708191288E+02 -0.21626143594E+02  0.47787266838E+02  0.19999980820E+02 0.  0.
         12    1    1    2    0    0  0.30004526337E+02 -0.22708191288E+02  0.21626143594E+02  0.43400733162E+02  0.00000000000E+00 0. -1.
         11    1    3    3    0    0 -0.13753570934E+02  0.77657005989E+01 -0.66549686030E+00  0.15808532682E+02  0.51100000000E-03 0. -1.
        -11    1    3    3    0    0 -0.13410322510E+02  0.10232816368E+02 -0.97298680367E+01  0.19473510544E+02  0.51100000000E-03 0.  1.
         12    1    3    3    0    0 -0.28406328936E+01  0.47096743208E+01 -0.11230778697E+02  0.12505223612E+02  0.00000000000E+00 0. -1.
</event>
<event>
 7    1  0.2486105E-010  0.4778727E+02  0.7816164E-02  0.1312668E+00
        -11   -1    0    0    0    0  0.00000000000E+00  0.00000000000E+00  0.45593999997E+02  0.45594000000E+02  0.51100000000E-03 0.  1.
         11   -1    0    0    0    0 -0.00000000000E+00 -0.00000000000E+00 -0.45593999997E+02  0.45594000000E+02  0.51100000000E-03 0. -1.
    9900012    2    1    2    0    0 -0.39320755516E+02  0.14395918673E+02 -0.11413106212E+02  0.47787270948E+02  0.19999999561E+02 0.  0.
         12    1    1    2    0    0  0.39320755516E+02 -0.14395918673E+02  0.11413106212E+02  0.43400729052E+02  0.00000000000E+00 0. -1.
         11    1    3    3    0    0 -0.91330104268E+01  0.34769402183E+01 -0.11223370818E+02  0.14881701701E+02  0.51100000000E-03 0. -1.
        -11    1    3    3    0    0 -0.11051562780E+02  0.53177193004E+00 -0.10572199560E+01  0.11114744062E+02  0.51100000000E-03 0.  1.
         12    1    3    3    0    0 -0.19136182309E+02  0.10387206525E+02  0.86748456273E+00  0.21790825185E+02  0.00000000000E+00 0. -1.
</event>
<event>
 7    1  0.2486105E-010  0.4778727E+02  0.7816164E-02  0.1312668E+00
        -11   -1    0    0    0    0  0.00000000000E+00  0.00000000000E+00  0.45593999997E+02  0.45594000000E+02  0.51100000000E-03 0.  1.
         11   -1    0    0    0    0 -0.00000000000E+00 -0.00000000000E+00 -0.45593999997E+02  0.45594000000E+02  0.51100000000E-03 0. -1.
    9900012    2    1    2    0    0  0.37689728022E+02  0.20536325601E+02 -0.64317015987E+01  0.47787273588E+02  0.20000011599E+02 0.  0.
         12    1    1    2    0    0 -0.37689728022E+02 -0.20536325601E+02  0.64317015987E+01  0.43400726412E+02  0.00000000000E+00 0. -1.
         11    1    3    3    0    0  0.14264891790E+02  0.10950718908E+02 -0.33611755752E+01  0.18294886824E+02  0.51100000000E-03 0. -1.
        -11    1    3    3    0    0  0.10008830986E+02  0.21297056936E+01 -0.84060120828E+01  0.13242861603E+02  0.51100000000E-03 0.  1.
         12    1    3    3    0    0  0.13416005247E+02  0.74559009994E+01  0.53354860593E+01  0.16249525162E+02  0.00000000000E+00 0. -1.
</event>
<event>
 7    1  0.2486105E-010  0.4778730E+02  0.7816164E-02  0.1312668E+00
        -11   -1    0    0    0    0  0.00000000000E+00  0.00000000000E+00  0.45593999997E+02  0.45594000000E+02  0.51100000000E-03 0.  1.
         11   -1    0    0    0    0 -0.00000000000E+00 -0.00000000000E+00 -0.45593999997E+02  0.45594000000E+02  0.51100000000E-03 0. -1.
    9900012    2    1    2    0    0 -0.42763208868E+01 -0.22935669577E+02  0.36596300962E+02  0.47787296050E+02  0.20000114009E+02 0.  0.
         12    1    1    2    0    0  0.42763208868E+01  0.22935669577E+02 -0.36596300962E+02  0.43400703950E+02  0.00000000000E+00 0. -1.
         11    1    3    3    0    0 -0.34910126838E+01 -0.10422946586E+01  0.36472223266E+01  0.51551700917E+01  0.51100000000E-03 0. -1.
        -11    1    3    3    0    0  0.43101291486E+01 -0.14456366203E+02  0.10331208752E+02  0.18283807361E+02  0.51100000000E-03 0.  1.
        -12    1    3    3    0    0 -0.50954373517E+01 -0.74370087157E+01  0.22617869883E+02  0.24348318597E+02  0.00000000000E+00 0.  1.
</event>
<event>
 7    1  0.2486105E-010  0.4778728E+02  0.7816164E-02  0.1312668E+00
        -11   -1    0    0    0    0  0.00000000000E+00  0.00000000000E+00  0.45593999997E+02  0.45594000000E+02  0.51100000000E-03 0. -1.
         11   -1    0    0    0    0 -0.00000000000E+00 -0.00000000000E+00 -0.45593999997E+02  0.45594000000E+02  0.51100000000E-03 0.  1.
    9900012    2    1    2    0    0  0.12868964095E+02  0.99179430279E+01 -0.40244838386E+02  0.47787275956E+02  0.20000022394E+02 0.  0.
         12    1    1    2    0    0 -0.12868964095E+02 -0.99179430279E+01  0.40244838386E+02  0.43400724044E+02  0.00000000000E+00 0. -1.
         11    1    3    3    0    0  0.22722021878E+01  0.78731824572E+01 -0.80922594506E+01  0.11516708213E+02  0.51100000000E-03 0. -1.
        -11    1    3    3    0    0 -0.77759354737E+00  0.13184662533E+01  0.55953947038E+00  0.16297514123E+01  0.51100000000E-03 0.  1.
        -12    1    3    3    0    0  0.11374355455E+02  0.72629431746E+00 -0.32712118406E+02  0.34640816331E+02  0.00000000000E+00 0.  1.
</event>
<event>
 7    1  0.2486105E-010  0.4778727E+02  0.7816164E-02  0.1312668E+00
        -11   -1    0    0    0    0  0.00000000000E+00  0.00000000000E+00  0.45593999997E+02  0.45594000000E+02  0.51100000000E-03 0.  1.
         11   -1    0    0    0    0 -0.00000000000E+00 -0.00000000000E+00 -0.45593999997E+02  0.45594000000E+02  0.51100000000E-03 0. -1.
    9900012    2    1    2    0    0 -0.40692847460E+02  0.14112954392E+02  0.53422782798E+01  0.47787271282E+02  0.20000001081E+02 0.  0.
         12    1    1    2    0    0  0.40692847460E+02 -0.14112954392E+02 -0.53422782798E+01  0.43400728718E+02  0.00000000000E+00 0. -1.
         11    1    3    3    0    0 -0.15419098436E+02  0.39857459026E+01  0.45273083072E+01  0.16556910574E+02  0.51100000000E-03 0.  1.
        -11    1    3    3    0    0 -0.21347587964E+02  0.12509038858E+01 -0.75922564565E+00  0.21397679693E+02  0.51100000000E-03 0. -1.
         12    1    3    3    0    0 -0.39261610598E+01  0.88763046040E+01  0.15741956182E+01  0.98326810146E+01  0.00000000000E+00 0. -1.
</event>
<event>
 7    1  0.2486105E-010  0.4778726E+02  0.7816164E-02  0.1312668E+00
        -11   -1    0    0    0    0  0.00000000000E+00  0.00000000000E+00  0.45593999997E+02  0.45594000000E+02  0.51100000000E-03 0.  1.
         11   -1    0    0    0    0 -0.00000000000E+00 -0.00000000000E+00 -0.45593999997E+02  0.45594000000E+02  0.51100000000E-03 0. -1.
    9900012    2    1    2    0    0 -0.14752688849E+02  0.92051409158E+01  0.39764904869E+02  0.47787261449E+02  0.19999956250E+02 0.  0.
         12    1    1    2    0    0  0.14752688849E+02 -0.92051409158E+01 -0.39764904869E+02  0.43400738551E+02  0.00000000000E+00 0. -1.
         11    1    3    3    0    0 -0.60937034256E+01  0.24275569902E+01  0.68577053847E+01  0.94896985086E+01  0.51100000000E-03 0. -1.
        -11    1    3    3    0    0 -0.12065360771E+02  0.73615573364E+01  0.31574285088E+02  0.34593365492E+02  0.51100000000E-03 0.  1.
         12    1    3    3    0    0  0.34063753473E+01 -0.58397341088E+00  0.13329143957E+01  0.37041974485E+01  0.00000000000E+00 0. -1.
</event>
<event>
 7    1  0.2486105E-010  0.4778728E+02  0.7816164E-02  0.1312668E+00
        -11   -1    0    0    0    0  0.00000000000E+00  0.00000000000E+00  0.45593999997E+02  0.45594000000E+02  0.51100000000E-03 0. -1.
         11   -1    0    0    0    0 -0.00000000000E+00 -0.00000000000E+00 -0.45593999997E+02  0.45594000000E+02  0.51100000000E-03 0.  1.
    9900012    2    1    2    0    0 -0.26518390431E+01 -0.37629844906E+02 -0.21461251281E+02  0.47787276682E+02  0.20000025706E+02 0.  0.
         12    1    1    2    0    0  0.26518390431E+01  0.37629844906E+02  0.21461251281E+02  0.43400723318E+02  0.00000000000E+00 0. -1.
         11    1    3    3    0    0  0.20750953108E+01 -0.18863780580E+02 -0.24683147612E+01  0.19137419270E+02  0.51100000000E-03 0. -1.
        -11    1    3    3    0    0 -0.33166163650E+01 -0.32625888354E+01 -0.82567839711E+00  0.47250582110E+01  0.51100000000E-03 0.  1.
        -12    1    3    3    0    0 -0.14103179890E+01 -0.15503475491E+02 -0.18167258122E+02  0.23924799201E+02  0.00000000000E+00 0.  1.
</event>
<event>
 7    1  0.2486105E-010  0.4778727E+02  0.7816164E-02  0.1312668E+00
        -11   -1    0    0    0    0  0.00000000000E+00  0.00000000000E+00  0.45593999997E+02  0.45594000000E+02  0.51100000000E-03 0.  1.
         11   -1    0    0    0    0 -0.00000000000E+00 -0.00000000000E+00 -0.45593999997E+02  0.45594000000E+02  0.51100000000E-03 0. -1.
    9900012    2    1    2    0    0  0.82405537463E+01  0.29625447250E+02  0.30627591818E+02  0.47787271534E+02  0.20000002234E+02 0.  0.
         12    1    1    2    0    0 -0.82405537463E+01 -0.29625447250E+02 -0.30627591818E+02  0.43400728466E+02  0.00000000000E+00 0. -1.
         11    1    3    3    0    0  0.20933036815E+01  0.81233839298E+01 -0.30577516911E+00  0.83943305563E+01  0.51100000000E-03 0. -1.
        -11    1    3    3    0    0 -0.19463392063E+01  0.29582465755E+01  0.19400801601E+01  0.40377432305E+01  0.51100000000E-03 0.  1.
        -12    1    3    3    0    0  0.80935892710E+01  0.18543816744E+02  0.28993286827E+02  0.35355197748E+02  0.00000000000E+00 0.  1.
</event>
<event>
 7    1  0.2486105E-010  0.4778727E+02  0.7816164E-02  0.1312668E+00
        -11   -1    0    0    0    0  0.00000000000E+00  0.00000000000E+00  0.45593999997E+02  0.45594000000E+02  0.51100000000E-03 0.  1.
         11   -1    0    0    0    0 -0.00000000000E+00 -0.00000000000E+00 -0.45593999997E+02  0.45594000000E+02  0.51100000000E-03 0. -1.
    9900012    2    1    2    0    0 -0.37927735652E+02 -0.20290927143E+02  0.57782702944E+01  0.47787271162E+02  0.20000000538E+02 0.  0.
         12    1    1    2    0    0  0.37927735652E+02  0.20290927143E+02 -0.57782702944E+01  0.43400728838E+02  0.00000000000E+00 0. -1.
         11    1    3    3    0    0 -0.11609972448E+02 -0.14110812120E+01  0.39543952636E+01  0.12345843535E+02  0.51100000000E-03 0. -1.
        -11    1    3    3    0    0 -0.20879223008E+02 -0.65389494454E+01  0.18263866659E+01  0.21955306916E+02  0.51100000000E-03 0.  1.
         12    1    3    3    0    0 -0.54385401966E+01 -0.12340896486E+02 -0.25116350835E-02  0.13486120712E+02  0.00000000000E+00 0. -1.
</event>
<event>
 7    1  0.2486105E-010  0.4778728E+02  0.7816164E-02  0.1312668E+00
        -11   -1    0    0    0    0  0.00000000000E+00  0.00000000000E+00  0.45593999997E+02  0.45594000000E+02  0.51100000000E-03 0.  1.
         11   -1    0    0    0    0 -0.00000000000E+00 -0.00000000000E+00 -0.45593999997E+02  0.45594000000E+02  0.51100000000E-03 0. -1.
    9900012    2    1    2    0    0 -0.12182994463E+02 -0.37911511621E+02  0.17260202064E+02  0.47787278315E+02  0.20000033148E+02 0.  0.
         12    1    1    2    0    0  0.12182994463E+02  0.37911511621E+02 -0.17260202064E+02  0.43400721685E+02  0.00000000000E+00 0. -1.
         11    1    3    3    0    0 -0.15461286321E+01  0.30204712270E+00  0.55752566661E+00  0.16711018345E+01  0.51100000000E-03 0. -1.
        -11    1    3    3    0    0 -0.11171373156E+02 -0.11834293643E+02  0.36460156728E+01  0.16677635167E+02  0.51100000000E-03 0.  1.
        -12    1    3    3    0    0  0.53450732468E+00 -0.26379265101E+02  0.13056660725E+02  0.29438541313E+02  0.00000000000E+00 0.  1.
</event>
<event>
 7    1  0.2486105E-010  0.4778727E+02  0.7816164E-02  0.1312668E+00
        -11   -1    0    0    0    0  0.00000000000E+00  0.00000000000E+00  0.45593999997E+02  0.45594000000E+02  0.51100000000E-03 0. -1.
         11   -1    0    0    0    0 -0.00000000000E+00 -0.00000000000E+00 -0.45593999997E+02  0.45594000000E+02  0.51100000000E-03 0.  1.
    9900012    2    1    2    0    0 -0.39439318864E+02  0.16293640458E+02 -0.79171085907E+01  0.47787271893E+02  0.20000003867E+02 0.  0.
         12    1    1    2    0    0  0.39439318864E+02 -0.16293640458E+02  0.79171085907E+01  0.43400728107E+02  0.00000000000E+00 0. -1.
         11    1    3    3    0    0 -0.21559312528E+02  0.21936220346E+01 -0.27596122771E+01  0.21845626439E+02  0.51100000000E-03 0. -1.
        -11    1    3    3    0    0 -0.16266206894E+02  0.74883918502E+01 -0.64134747651E+01  0.19020992562E+02  0.51100000000E-03 0.  1.
         12    1    3    3    0    0 -0.16137994415E+01  0.66116265728E+01  0.12559784516E+01  0.69206528917E+01  0.00000000000E+00 0. -1.
</event>
<event>
 7    1  0.2486105E-010  0.4778727E+02  0.7816164E-02  0.1312668E+00
        -11   -1    0    0    0    0  0.00000000000E+00  0.00000000000E+00  0.45593999997E+02  0.45594000000E+02  0.51100000000E-03 0.  1.
         11   -1    0    0    0    0 -0.00000000000E+00 -0.00000000000E+00 -0.45593999997E+02  0.45594000000E+02  0.51100000000E-03 0. -1.
    9900012    2    1    2    0    0 -0.31730646198E+02 -0.29364918742E+02  0.38066935400E+01  0.47787271014E+02  0.19999999859E+02 0.  0.
         12    1    1    2    0    0  0.31730646198E+02  0.29364918742E+02 -0.38066935400E+01  0.43400728986E+02  0.00000000000E+00 0. -1.
         11    1    3    3    0    0 -0.13520126623E+02 -0.85326600364E+01  0.96831606159E+01  0.18691273658E+02  0.51100000000E-03 0. -1.
        -11    1    3    3    0    0 -0.54310846411E+01 -0.10986096688E+02 -0.37967252572E+01  0.12829891806E+02  0.51100000000E-03 0.  1.
        -12    1    3    3    0    0 -0.12779434934E+02 -0.98461620173E+01 -0.20797418187E+01  0.16266105549E+02  0.00000000000E+00 0.  1.
</event>
<event>
 7    1  0.2486105E-010  0.4778727E+02  0.7816164E-02  0.1312668E+00
        -11   -1    0    0    0    0  0.00000000000E+00  0.00000000000E+00  0.45593999997E+02  0.45594000000E+02  0.51100000000E-03 0.  1.
         11   -1    0    0    0    0 -0.00000000000E+00 -0.00000000000E+00 -0.45593999997E+02  0.45594000000E+02  0.51100000000E-03 0. -1.
    9900012    2    1    2    0    0  0.41480840172E+02 -0.12431125537E+02 -0.29034735847E+01  0.47787272560E+02  0.20000006909E+02 0.  0.
         12    1    1    2    0    0 -0.41480840172E+02  0.12431125537E+02  0.29034735847E+01  0.43400727440E+02  0.00000000000E+00 0. -1.
         11    1    3    3    0    0  0.23500970736E+01  0.14020927500E+01 -0.10121032216E+01  0.29177343140E+01  0.51100000000E-03 0. -1.
        -11    1    3    3    0    0  0.10971501595E+02 -0.11844084345E+02  0.23782308829E+01  0.16319073614E+02  0.51100000000E-03 0.  1.
        -12    1    3    3    0    0  0.28159241504E+02 -0.19891339423E+01 -0.42696012461E+01  0.28550464632E+02  0.00000000000E+00 0.  1.
</event>
<event>
 7    1  0.2486105E-010  0.4778727E+02  0.7816164E-02  0.1312668E+00
        -11   -1    0    0    0    0  0.00000000000E+00  0.00000000000E+00  0.45593999997E+02  0.45594000000E+02  0.51100000000E-03 0. -1.
         11   -1    0    0    0    0 -0.00000000000E+00 -0.00000000000E+00 -0.45593999997E+02  0.45594000000E+02  0.51100000000E-03 0.  1.
    9900012    2    1    2    0    0  0.13549367304E+02  0.14938104364E+02 -0.38430339387E+02  0.47787270724E+02  0.19999998537E+02 0.  0.
         12    1    1    2    0    0 -0.13549367304E+02 -0.14938104364E+02  0.38430339387E+02  0.43400729276E+02  0.00000000000E+00 0. -1.
         11    1    3    3    0    0  0.11605301279E+01 -0.10886686801E+01 -0.24256127232E+00  0.16096166950E+01  0.51100000000E-03 0. -1.
        -11    1    3    3    0    0  0.15436142363E+02  0.14188082126E+02 -0.25565131806E+02  0.33062851207E+02  0.51100000000E-03 0.  1.
         12    1    3    3    0    0 -0.30473051871E+01  0.18386909187E+01 -0.12622646309E+02  0.13114802821E+02  0.00000000000E+00 0. -1.
</event>
<event>
 7    1  0.2486105E-010  0.4778727E+02  0.7816164E-02  0.1312668E+00
        -11   -1    0    0    0    0  0.00000000000E+00  0.00000000000E+00  0.45593999997E+02  0.45594000000E+02  0.51100000000E-03 0.  1.
         11   -1    0    0    0    0 -0.00000000000E+00 -0.00000000000E+00 -0.45593999997E+02  0.45594000000E+02  0.51100000000E-03 0. -1.
    9900012    2    1    2    0    0 -0.20419550444E+02 -0.30189666591E+02  0.23563725470E+02  0.47787272273E+02  0.20000005601E+02 0.  0.
         12    1    1    2    0    0  0.20419550444E+02  0.30189666591E+02 -0.23563725470E+02  0.43400727727E+02  0.00000000000E+00 0. -1.
         11    1    3    3    0    0 -0.57885232185E+01 -0.65145952443E+01  0.13141338700E+02  0.15768377702E+02  0.51100000000E-03 0. -1.
        -11    1    3    3    0    0 -0.10518807223E+02 -0.16801826292E+02  0.12881223258E+02  0.23640486142E+02  0.51100000000E-03 0.  1.
        -12    1    3    3    0    0 -0.41122200020E+01 -0.68732450549E+01 -0.24588364884E+01  0.83784084292E+01  0.00000000000E+00 0.  1.
</event>
<event>
 7    1  0.2486105E-010  0.4778727E+02  0.7816164E-02  0.1312668E+00
        -11   -1    0    0    0    0  0.00000000000E+00  0.00000000000E+00  0.45593999997E+02  0.45594000000E+02  0.51100000000E-03 0.  1.
         11   -1    0    0    0    0 -0.00000000000E+00 -0.00000000000E+00 -0.45593999997E+02  0.45594000000E+02  0.51100000000E-03 0. -1.
    9900012    2    1    2    0    0 -0.22089553101E+02  0.98507743119E+00  0.37345743432E+02  0.47787270902E+02  0.19999999350E+02 0.  0.
         12    1    1    2    0    0  0.22089553101E+02 -0.98507743119E+00 -0.37345743432E+02  0.43400729098E+02  0.00000000000E+00 0. -1.
         11    1    3    3    0    0 -0.84601821250E+00 -0.84077256546E+00  0.16983378226E+02  0.17025210176E+02  0.51100000000E-03 0. -1.
        -11    1    3    3    0    0 -0.85166730139E+01  0.39691908630E+01  0.12542671781E+02  0.15671847721E+02  0.51100000000E-03 0.  1.
        -12    1    3    3    0    0 -0.12726861875E+02 -0.21433408663E+01  0.78196934255E+01  0.15090213004E+02  0.00000000000E+00 0.  1.
</event>
<event>
 7    1  0.2486105E-010  0.4778727E+02  0.7816164E-02  0.1312668E+00
        -11   -1    0    0    0    0  0.00000000000E+00  0.00000000000E+00  0.45593999997E+02  0.45594000000E+02  0.51100000000E-03 0. -1.
         11   -1    0    0    0    0 -0.00000000000E+00 -0.00000000000E+00 -0.45593999997E+02  0.45594000000E+02  0.51100000000E-03 0.  1.
    9900012    2    1    2    0    0 -0.75463877178E+01 -0.22869740217E+02 -0.36106094874E+02  0.47787273368E+02  0.20000010593E+02 0.  0.
         12    1    1    2    0    0  0.75463877178E+01  0.22869740217E+02  0.36106094874E+02  0.43400726632E+02  0.00000000000E+00 0. -1.
         11    1    3    3    0    0 -0.57797111688E+00  0.27131057908E+01 -0.35788880808E+01  0.45280717529E+01  0.51100000000E-03 0. -1.
        -11    1    3    3    0    0 -0.34395836718E+01 -0.97444147384E+00 -0.52652667211E+01  0.63642207635E+01  0.51100000000E-03 0.  1.
        -12    1    3    3    0    0 -0.35288329291E+01 -0.24608404533E+02 -0.27261940072E+02  0.36894980851E+02  0.00000000000E+00 0.  1.
</event>
<event>
 7    1  0.2486105E-010  0.4778723E+02  0.7816164E-02  0.1312668E+00
        -11   -1    0    0    0    0  0.00000000000E+00  0.00000000000E+00  0.45593999997E+02  0.45594000000E+02  0.51100000000E-03 0.  1.
         11   -1    0    0    0    0 -0.00000000000E+00 -0.00000000000E+00 -0.45593999997E+02  0.45594000000E+02  0.51100000000E-03 0. -1.
    9900012    2    1    2    0    0  0.14980667241E+02  0.84038261682E+01  0.39857026400E+02  0.47787225368E+02  0.19999791741E+02 0.  0.
         12    1    1    2    0    0 -0.14980667241E+02 -0.84038261682E+01 -0.39857026400E+02  0.43400774632E+02  0.00000000000E+00 0. -1.
         11    1    3    3    0    0  0.21176905946E+01 -0.34474700761E+01  0.10455769474E+02  0.11211279095E+02  0.51100000000E-03 0. -1.
        -11    1    3    3    0    0  0.39444571293E+01 -0.22988698177E+01  0.97789321065E+01  0.10792175772E+02  0.51100000000E-03 0.  1.
        -12    1    3    3    0    0  0.89185195173E+01  0.14150166062E+02  0.19622324819E+02  0.25783770501E+02  0.00000000000E+00 0.  1.
</event>
<event>
 7    1  0.2486105E-010  0.4778727E+02  0.7816164E-02  0.1312668E+00
        -11   -1    0    0    0    0  0.00000000000E+00  0.00000000000E+00  0.45593999997E+02  0.45594000000E+02  0.51100000000E-03 0.  1.
         11   -1    0    0    0    0 -0.00000000000E+00 -0.00000000000E+00 -0.45593999997E+02  0.45594000000E+02  0.51100000000E-03 0. -1.
    9900012    2    1    2    0    0  0.36396176610E+02  0.18384345110E+02  0.14864644399E+02  0.47787268784E+02  0.19999989696E+02 0.  0.
         12    1    1    2    0    0 -0.36396176610E+02 -0.18384345110E+02 -0.14864644399E+02  0.43400731216E+02  0.00000000000E+00 0. -1.
         11    1    3    3    0    0  0.17683165843E+02  0.15559184784E+02  0.66555367011E+01  0.24476085357E+02  0.51100000000E-03 0. -1.
        -11    1    3    3    0    0  0.73525135870E+01  0.30121240477E+01 -0.18252622080E+01  0.81525413040E+01  0.51100000000E-03 0.  1.
        -12    1    3    3    0    0  0.11360497180E+02 -0.18696372190E+00  0.10034369906E+02  0.15158642123E+02  0.00000000000E+00 0.  1.
</event>
<event>
 7    1  0.2486105E-010  0.4778727E+02  0.7816164E-02  0.1312668E+00
        -11   -1    0    0    0    0  0.00000000000E+00  0.00000000000E+00  0.45593999997E+02  0.45594000000E+02  0.51100000000E-03 0.  1.
         11   -1    0    0    0    0 -0.00000000000E+00 -0.00000000000E+00 -0.45593999997E+02  0.45594000000E+02  0.51100000000E-03 0. -1.
    9900012    2    1    2    0    0  0.22780226725E+02  0.24332307968E+02 -0.27796103429E+02  0.47787270668E+02  0.19999998284E+02 0.  0.
         12    1    1    2    0    0 -0.22780226725E+02 -0.24332307968E+02  0.27796103429E+02  0.43400729332E+02  0.00000000000E+00 0. -1.
         11    1    3    3    0    0 -0.75346465407E-01 -0.10882972629E+00  0.34031194933E+00  0.36514857682E+00  0.51100000000E-03 0. -1.
        -11    1    3    3    0    0  0.13973514756E+02  0.11973220006E+02 -0.26164506220E+02  0.31987474079E+02  0.51100000000E-03 0.  1.
         12    1    3    3    0    0  0.88820584348E+01  0.12467917689E+02 -0.19719091575E+01  0.15434648012E+02  0.00000000000E+00 0. -1.
</event>
<event>
 7    1  0.2486105E-010  0.4778727E+02  0.7816164E-02  0.1312668E+00
        -11   -1    0    0    0    0  0.00000000000E+00  0.00000000000E+00  0.45593999997E+02  0.45594000000E+02  0.51100000000E-03 0.  1.
         11   -1    0    0    0    0 -0.00000000000E+00 -0.00000000000E+00 -0.45593999997E+02  0.45594000000E+02  0.51100000000E-03 0. -1.
    9900012    2    1    2    0    0 -0.21959448871E+02 -0.18022542324E+02  0.32811492915E+02  0.47787268510E+02  0.19999988446E+02 0.  0.
         12    1    1    2    0    0  0.21959448871E+02  0.18022542324E+02 -0.32811492915E+02  0.43400731490E+02  0.00000000000E+00 0. -1.
         11    1    3    3    0    0 -0.12191697463E+02 -0.30733291415E+01  0.51378513506E+01  0.13582354575E+02  0.51100000000E-03 0. -1.
        -11    1    3    3    0    0 -0.34489638098E+01 -0.79462986113E+01  0.59136818521E+01  0.10488596011E+02  0.51100000000E-03 0.  1.
        -12    1    3    3    0    0 -0.63187875980E+01 -0.70029145716E+01  0.21759959712E+02  0.23716317924E+02  0.00000000000E+00 0.  1.
</event>
<event>
 7    1  0.2486105E-010  0.4778726E+02  0.7816164E-02  0.1312668E+00
        -11   -1    0    0    0    0  0.00000000000E+00  0.00000000000E+00  0.45593999997E+02  0.45594000000E+02  0.51100000000E-03 0.  1.
         11   -1    0    0    0    0 -0.00000000000E+00 -0.00000000000E+00 -0.45593999997E+02  0.45594000000E+02  0.51100000000E-03 0. -1.
    9900012    2    1    2    0    0 -0.16009263447E+02 -0.38624483051E+02  0.11639467721E+02  0.47787257887E+02  0.19999940011E+02 0.  0.
         12    1    1    2    0    0  0.16009263447E+02  0.38624483051E+02 -0.11639467721E+02  0.43400742113E+02  0.00000000000E+00 0. -1.
         11    1    3    3    0    0 -0.88463129586E+01 -0.45971190576E+01  0.22897915327E+01  0.10229071420E+02  0.51100000000E-03 0. -1.
        -11    1    3    3    0    0 -0.13029038954E+01 -0.87145810666E+01  0.73934996341E+01  0.11502404915E+02  0.51100000000E-03 0.  1.
        -12    1    3    3    0    0 -0.58600465934E+01 -0.25312782927E+02  0.19561765544E+01  0.26055781552E+02  0.00000000000E+00 0.  1.
</event>
<event>
 7    1  0.2486105E-010  0.4778727E+02  0.7816164E-02  0.1312668E+00
        -11   -1    0    0    0    0  0.00000000000E+00  0.00000000000E+00  0.45593999997E+02  0.45594000000E+02  0.51100000000E-03 0.  1.
         11   -1    0    0    0    0 -0.00000000000E+00 -0.00000000000E+00 -0.45593999997E+02  0.45594000000E+02  0.51100000000E-03 0. -1.
    9900012    2    1    2    0    0 -0.16896382246E+02 -0.23350694876E+01  0.39908433355E+02  0.47787270336E+02  0.19999996770E+02 0.  0.
         12    1    1    2    0    0  0.16896382246E+02  0.23350694876E+01 -0.39908433355E+02  0.43400729664E+02  0.00000000000E+00 0. -1.
         11    1    3    3    0    0 -0.78048071194E+01 -0.67265962364E+01  0.19035003589E+02  0.21644710047E+02  0.51100000000E-03 0. -1.
        -11    1    3    3    0    0  0.77434125094E+00  0.86809542784E+00  0.12963455737E+02  0.13015543744E+02  0.51100000000E-03 0.  1.
         12    1    3    3    0    0 -0.98659163777E+01  0.35234313209E+01  0.79099740285E+01  0.13127016545E+02  0.00000000000E+00 0. -1.
</event>
<event>
 7    1  0.2486105E-010  0.4778727E+02  0.7816164E-02  0.1312668E+00
        -11   -1    0    0    0    0  0.00000000000E+00  0.00000000000E+00  0.45593999997E+02  0.45594000000E+02  0.51100000000E-03 0. -1.
         11   -1    0    0    0    0 -0.00000000000E+00 -0.00000000000E+00 -0.45593999997E+02  0.45594000000E+02  0.51100000000E-03 0.  1.
    9900012    2    1    2    0    0 -0.25284158936E+02  0.80347713924E+01 -0.34347884811E+02  0.47787269183E+02  0.19999991515E+02 0.  0.
         12    1    1    2    0    0  0.25284158936E+02 -0.80347713924E+01  0.34347884811E+02  0.43400730817E+02  0.00000000000E+00 0. -1.
         11    1    3    3    0    0 -0.18909591318E+01  0.57866176373E+01 -0.10900624248E+02  0.12485362605E+02  0.51100000000E-03 0. -1.
        -11    1    3    3    0    0 -0.18742584503E+01  0.38659756140E+01 -0.15746908861E+01  0.45758347691E+01  0.51100000000E-03 0.  1.
         12    1    3    3    0    0 -0.21518941354E+02 -0.16178218589E+01 -0.21872569677E+02  0.30726071809E+02  0.00000000000E+00 0. -1.
</event>
<event>
 7    1  0.2486105E-010  0.4778727E+02  0.7816164E-02  0.1312668E+00
        -11   -1    0    0    0    0  0.00000000000E+00  0.00000000000E+00  0.45593999997E+02  0.45594000000E+02  0.51100000000E-03 0.  1.
         11   -1    0    0    0    0 -0.00000000000E+00 -0.00000000000E+00 -0.45593999997E+02  0.45594000000E+02  0.51100000000E-03 0. -1.
    9900012    2    1    2    0    0  0.25199556754E+02  0.88429903639E+01  0.34211216776E+02  0.47787268526E+02  0.19999988518E+02 0.  0.
         12    1    1    2    0    0 -0.25199556754E+02 -0.88429903639E+01 -0.34211216776E+02  0.43400731474E+02  0.00000000000E+00 0. -1.
         11    1    3    3    0    0 -0.91617351089E+00  0.22141467845E+01  0.17014293894E+01  0.29388232532E+01  0.51100000000E-03 0. -1.
        -11    1    3    3    0    0  0.52764542405E+01  0.30354270239E+01  0.25376029654E-01  0.60873172066E+01  0.51100000000E-03 0.  1.
        -12    1    3    3    0    0  0.20839276024E+02  0.35934165555E+01  0.32484411357E+02  0.38761128066E+02  0.00000000000E+00 0.  1.
</event>
<event>
 7    1  0.2486105E-010  0.4778727E+02  0.7816164E-02  0.1312668E+00
        -11   -1    0    0    0    0  0.00000000000E+00  0.00000000000E+00  0.45593999997E+02  0.45594000000E+02  0.51100000000E-03 0.  1.
         11   -1    0    0    0    0 -0.00000000000E+00 -0.00000000000E+00 -0.45593999997E+02  0.45594000000E+02  0.51100000000E-03 0. -1.
    9900012    2    1    2    0    0 -0.14331561623E+02  0.37480049447E+02  0.16537093464E+02  0.47787271604E+02  0.20000002549E+02 0.  0.
         12    1    1    2    0    0  0.14331561623E+02 -0.37480049447E+02 -0.16537093464E+02  0.43400728396E+02  0.00000000000E+00 0. -1.
         11    1    3    3    0    0 -0.71705956135E+01  0.89429129536E+01  0.11478530021E+02  0.16221892160E+02  0.51100000000E-03 0. -1.
        -11    1    3    3    0    0  0.67178617638E+00  0.13720391994E+02  0.55072307197E+01  0.14799663631E+02  0.51100000000E-03 0.  1.
         12    1    3    3    0    0 -0.78327521858E+01  0.14816744499E+02 -0.44866727687E+00  0.16765715812E+02  0.00000000000E+00 0. -1.
</event>
<event>
 7    1  0.2486105E-010  0.4778727E+02  0.7816164E-02  0.1312668E+00
        -11   -1    0    0    0    0  0.00000000000E+00  0.00000000000E+00  0.45593999997E+02  0.45594000000E+02  0.51100000000E-03 0.  1.
         11   -1    0    0    0    0 -0.00000000000E+00 -0.00000000000E+00 -0.45593999997E+02  0.45594000000E+02  0.51100000000E-03 0. -1.
    9900012    2    1    2    0    0 -0.20834449151E+02  0.12291996952E+02  0.36034098121E+02  0.47787266274E+02  0.19999978251E+02 0.  0.
         12    1    1    2    0    0  0.20834449151E+02 -0.12291996952E+02 -0.36034098121E+02  0.43400733726E+02  0.00000000000E+00 0. -1.
         11    1    3    3    0    0 -0.74957625192E+01 -0.28159665335E+01  0.68660643954E+01  0.10547936471E+02  0.51100000000E-03 0. -1.
        -11    1    3    3    0    0 -0.44531339122E+01  0.60030622362E+00  0.13057903850E+02  0.13809403406E+02  0.51100000000E-03 0.  1.
        -12    1    3    3    0    0 -0.88855527201E+01  0.14507657261E+02  0.16110129876E+02  0.23429926397E+02  0.00000000000E+00 0.  1.
</event>
<event>
 7    1  0.2486105E-010  0.4778727E+02  0.7816164E-02  0.1312668E+00
        -11   -1    0    0    0    0  0.00000000000E+00  0.00000000000E+00  0.45593999997E+02  0.45594000000E+02  0.51100000000E-03 0.  1.
         11   -1    0    0    0    0 -0.00000000000E+00 -0.00000000000E+00 -0.45593999997E+02  0.45594000000E+02  0.51100000000E-03 0. -1.
    9900012    2    1    2    0    0  0.34948128005E+02 -0.16095929801E+02  0.20079159751E+02  0.47787271164E+02  0.20000000546E+02 0.  0.
         12    1    1    2    0    0 -0.34948128005E+02  0.16095929801E+02 -0.20079159751E+02  0.43400728836E+02  0.00000000000E+00 0. -1.
         11    1    3    3    0    0  0.87702635976E+01 -0.97011734900E+00  0.46454532289E+01  0.99719048935E+01  0.51100000000E-03 0. -1.
        -11    1    3    3    0    0  0.60675504979E+01  0.26792902668E+01  0.70451966869E+01  0.96761853019E+01  0.51100000000E-03 0.  1.
         12    1    3    3    0    0  0.20110313909E+02 -0.17805102718E+02  0.83885098351E+01  0.28139180969E+02  0.00000000000E+00 0. -1.
</event>
<event>
 7    1  0.2486105E-010  0.4778727E+02  0.7816164E-02  0.1312668E+00
        -11   -1    0    0    0    0  0.00000000000E+00  0.00000000000E+00  0.45593999997E+02  0.45594000000E+02  0.51100000000E-03 0. -1.
         11   -1    0    0    0    0 -0.00000000000E+00 -0.00000000000E+00 -0.45593999997E+02  0.45594000000E+02  0.51100000000E-03 0.  1.
    9900012    2    1    2    0    0  0.20718311792E+02  0.33439347384E+02 -0.18335342142E+02  0.47787272259E+02  0.20000005540E+02 0.  0.
         12    1    1    2    0    0 -0.20718311792E+02 -0.33439347384E+02  0.18335342142E+02  0.43400727741E+02  0.00000000000E+00 0. -1.
         11    1    3    3    0    0 -0.16346935210E+01  0.37883937306E+00 -0.15320113829E-01  0.16780873473E+01  0.51100000000E-03 0. -1.
        -11    1    3    3    0    0  0.45046110357E+01  0.78978878042E+01 -0.11240270567E+02  0.14457241612E+02  0.51100000000E-03 0.  1.
        -12    1    3    3    0    0  0.17848394278E+02  0.25162620206E+02 -0.70797514612E+01  0.31651943300E+02  0.00000000000E+00 0.  1.
</event>
<event>
 7    1  0.2486105E-010  0.4778727E+02  0.7816164E-02  0.1312668E+00
        -11   -1    0    0    0    0  0.00000000000E+00  0.00000000000E+00  0.45593999997E+02  0.45594000000E+02  0.51100000000E-03 0.  1.
         11   -1    0    0    0    0 -0.00000000000E+00 -0.00000000000E+00 -0.45593999997E+02  0.45594000000E+02  0.51100000000E-03 0. -1.
    9900012    2    1    2    0    0 -0.35471364593E+02 -0.13008699724E+01  0.24974251577E+02  0.47787271773E+02  0.20000003323E+02 0.  0.
         12    1    1    2    0    0  0.35471364593E+02  0.13008699724E+01 -0.24974251577E+02  0.43400728227E+02  0.00000000000E+00 0. -1.
         11    1    3    3    0    0 -0.11918960599E+02 -0.31095060676E+01  0.15578953774E+02  0.19860373881E+02  0.51100000000E-03 0. -1.
        -11    1    3    3    0    0 -0.87225549228E+01 -0.49195166803E+01  0.36146428268E+01  0.10646607524E+02  0.51100000000E-03 0.  1.
        -12    1    3    3    0    0 -0.14829849071E+02  0.67281527755E+01  0.57806549758E+01  0.17280290368E+02  0.00000000000E+00 0.  1.
</event>
<event>
 7    1  0.2486105E-010  0.4778726E+02  0.7816164E-02  0.1312668E+00
        -11   -1    0    0    0    0  0.00000000000E+00  0.00000000000E+00  0.45593999997E+02  0.45594000000E+02  0.51100000000E-03 0.  1.
         11   -1    0    0    0    0 -0.00000000000E+00 -0.00000000000E+00 -0.45593999997E+02  0.45594000000E+02  0.51100000000E-03 0. -1.
    9900012    2    1    2    0    0 -0.13948453280E+02  0.23892975063E+02  0.33439357013E+02  0.47787260332E+02  0.19999951159E+02 0.  0.
         12    1    1    2    0    0  0.13948453280E+02 -0.23892975063E+02 -0.33439357013E+02  0.43400739668E+02  0.00000000000E+00 0. -1.
         11    1    3    3    0    0 -0.63355229329E+01  0.13356574723E+02  0.11325894788E+02  0.18622911485E+02  0.51100000000E-03 0. -1.
        -11    1    3    3    0    0 -0.83627641908E+01  0.69158214984E+01  0.55415152666E+01  0.12184941675E+02  0.51100000000E-03 0.  1.
         12    1    3    3    0    0  0.74983384333E+00  0.36205788412E+01  0.16571946958E+02  0.16979407172E+02  0.00000000000E+00 0. -1.
</event>
<event>
 7    1  0.2486105E-010  0.4778727E+02  0.7816164E-02  0.1312668E+00
        -11   -1    0    0    0    0  0.00000000000E+00  0.00000000000E+00  0.45593999997E+02  0.45594000000E+02  0.51100000000E-03 0.  1.
         11   -1    0    0    0    0 -0.00000000000E+00 -0.00000000000E+00 -0.45593999997E+02  0.45594000000E+02  0.51100000000E-03 0. -1.
    9900012    2    1    2    0    0  0.25408032348E+02  0.10062560389E+02  0.33716461047E+02  0.47787274489E+02  0.20000015703E+02 0.  0.
         12    1    1    2    0    0 -0.25408032348E+02 -0.10062560389E+02 -0.33716461047E+02  0.43400725511E+02  0.00000000000E+00 0. -1.
         11    1    3    3    0    0 -0.11650314862E+01  0.34987055112E+01  0.38848007105E+01  0.53562968028E+01  0.51100000000E-03 0. -1.
        -11    1    3    3    0    0  0.15587338535E+02  0.94702867616E+01  0.14248896663E+02  0.23144816057E+02  0.51100000000E-03 0.  1.
        -12    1    3    3    0    0  0.10985725299E+02 -0.29064318839E+01  0.15582763674E+02  0.19286161628E+02  0.00000000000E+00 0.  1.
</event>
<event>
 7    1  0.2486105E-010  0.4778728E+02  0.7816164E-02  0.1312668E+00
        -11   -1    0    0    0    0  0.00000000000E+00  0.00000000000E+00  0.45593999997E+02  0.45594000000E+02  0.51100000000E-03 0.  1.
         11   -1    0    0    0    0 -0.00000000000E+00 -0.00000000000E+00 -0.45593999997E+02  0.45594000000E+02  0.51100000000E-03 0. -1.
    9900012    2    1    2    0    0 -0.26662114150E+02  0.24836557270E+02  0.23577529729E+02  0.47787276318E+02  0.20000024044E+02 0.  0.
         12    1    1    2    0    0  0.26662114150E+02 -0.24836557270E+02 -0.23577529729E+02  0.43400723682E+02  0.00000000000E+00 0. -1.
         11    1    3    3    0    0 -0.83104749953E+01  0.81824363641E+01 -0.19803685941E+01  0.11829544350E+02  0.51100000000E-03 0. -1.
        -11    1    3    3    0    0 -0.48981315441E+01  0.33498976377E+01  0.34714667450E+01  0.68749246126E+01  0.51100000000E-03 0.  1.
         12    1    3    3    0    0 -0.13453507611E+02  0.13304223268E+02  0.22086431578E+02  0.29082807355E+02  0.00000000000E+00 0. -1.
</event>
<event>
 7    1  0.2486105E-010  0.4778727E+02  0.7816164E-02  0.1312668E+00
        -11   -1    0    0    0    0  0.00000000000E+00  0.00000000000E+00  0.45593999997E+02  0.45594000000E+02  0.51100000000E-03 0. -1.
         11   -1    0    0    0    0 -0.00000000000E+00 -0.00000000000E+00 -0.45593999997E+02  0.45594000000E+02  0.51100000000E-03 0.  1.
    9900012    2    1    2    0    0 -0.31370852597E+02  0.21769233372E+01 -0.29912434656E+02  0.47787272645E+02  0.20000007298E+02 0.  0.
         12    1    1    2    0    0  0.31370852597E+02 -0.21769233372E+01  0.29912434656E+02  0.43400727355E+02  0.00000000000E+00 0. -1.
         11    1    3    3    0    0 -0.45117697251E+01  0.32232623804E+01 -0.19545816691E+01  0.58792751413E+01  0.51100000000E-03 0. -1.
        -11    1    3    3    0    0 -0.92068734797E+01  0.76833332769E+00 -0.54766358751E+00  0.92550954095E+01  0.51100000000E-03 0.  1.
        -12    1    3    3    0    0 -0.17652209392E+02 -0.18146723709E+01 -0.27410189400E+02  0.32652902094E+02  0.00000000000E+00 0.  1.
</event>
<event>
 7    1  0.2486105E-010  0.4778728E+02  0.7816164E-02  0.1312668E+00
        -11   -1    0    0    0    0  0.00000000000E+00  0.00000000000E+00  0.45593999997E+02  0.45594000000E+02  0.51100000000E-03 0.  1.
         11   -1    0    0    0    0 -0.00000000000E+00 -0.00000000000E+00 -0.45593999997E+02  0.45594000000E+02  0.51100000000E-03 0. -1.
    9900012    2    1    2    0    0 -0.33923072435E+02 -0.13135229444E+02  0.23670948701E+02  0.47787275255E+02  0.20000019200E+02 0.  0.
         12    1    1    2    0    0  0.33923072435E+02  0.13135229444E+02 -0.23670948701E+02  0.43400724745E+02  0.00000000000E+00 0. -1.
         11    1    3    3    0    0 -0.64840226973E+01 -0.64263735559E+01  0.20603346753E+01  0.93587289016E+01  0.51100000000E-03 0. -1.
        -11    1    3    3    0    0 -0.13313219891E+02 -0.91726883330E+01  0.60332562232E+01  0.17256309456E+02  0.51100000000E-03 0.  1.
         12    1    3    3    0    0 -0.14125829847E+02  0.24638324447E+01  0.15577357802E+02  0.21172236898E+02  0.00000000000E+00 0. -1.
</event>
<event>
 7    1  0.2486105E-010  0.4778727E+02  0.7816164E-02  0.1312668E+00
        -11   -1    0    0    0    0  0.00000000000E+00  0.00000000000E+00  0.45593999997E+02  0.45594000000E+02  0.51100000000E-03 0.  1.
         11   -1    0    0    0    0 -0.00000000000E+00 -0.00000000000E+00 -0.45593999997E+02  0.45594000000E+02  0.51100000000E-03 0. -1.
    9900012    2    1    2    0    0 -0.25487577658E+02 -0.23124090161E+02  0.26443963162E+02  0.47787270187E+02  0.19999996089E+02 0.  0.
         12    1    1    2    0    0  0.25487577658E+02  0.23124090161E+02 -0.26443963162E+02  0.43400729813E+02  0.00000000000E+00 0. -1.
         11    1    3    3    0    0 -0.11331130893E+02 -0.17499971074E+02  0.12449211330E+02  0.24282223496E+02  0.51100000000E-03 0. -1.
        -11    1    3    3    0    0  0.62798786884E+00 -0.21907561424E+01  0.58536951341E+01  0.62816819581E+01  0.51100000000E-03 0.  1.
        -12    1    3    3    0    0 -0.14784434634E+02 -0.34333629437E+01  0.81410566979E+01  0.17223364732E+02  0.00000000000E+00 0.  1.
</event>
<event>
 7    1  0.2612140E-010  0.4778727E+02  0.7816164E-02  0.1312668E+00
        -11   -1    0    0    0    0  0.00000000000E+00  0.00000000000E+00  0.45593999997E+02  0.45594000000E+02  0.51100000000E-03 0. -1.
         11   -1    0    0    0    0 -0.00000000000E+00 -0.00000000000E+00 -0.45593999997E+02  0.45594000000E+02  0.51100000000E-03 0.  1.
    9900012    2    1    2    0    0 -0.14293482102E+02 -0.53701168215E+01 -0.40626116966E+02  0.47787272298E+02  0.20000005717E+02 0.  0.
         12    1    1    2    0    0  0.14293482102E+02  0.53701168215E+01  0.40626116966E+02  0.43400727702E+02  0.00000000000E+00 0. -1.
         11    1    3    3    0    0 -0.31810700153E+01 -0.70936643222E-01 -0.48952122606E-01  0.31822374237E+01  0.51100000000E-03 0. -1.
        -11    1    3    3    0    0  0.31232994027E+01 -0.18778804649E+01 -0.11263559082E+02  0.11838462639E+02  0.51100000000E-03 0.  1.
        -12    1    3    3    0    0 -0.14235711489E+02 -0.34212997133E+01 -0.29313605762E+02  0.32766572236E+02  0.00000000000E+00 0.  1.
</event>
<event>
 7    1  0.2993502E-010  0.4778731E+02  0.7816164E-02  0.1312668E+00
        -11   -1    0    0    0    0  0.00000000000E+00  0.00000000000E+00  0.45593999997E+02  0.45594000000E+02  0.51100000000E-03 0.  1.
         11   -1    0    0    0    0 -0.00000000000E+00 -0.00000000000E+00 -0.45593999997E+02  0.45594000000E+02  0.51100000000E-03 0. -1.
    9900012    2    1    2    0    0  0.32370580998E+02  0.25741871226E+02  0.13157561057E+02  0.47787310359E+02  0.20000179249E+02 0.  0.
         12    1    1    2    0    0 -0.32370580998E+02 -0.25741871226E+02 -0.13157561057E+02  0.43400689641E+02  0.00000000000E+00 0. -1.
         11    1    3    3    0    0  0.10929634048E+02  0.10645871685E+02 -0.71704685436E+00  0.15274345839E+02  0.51100000000E-03 0.  1.
        -11    1    3    3    0    0  0.55471132984E+01  0.11986113927E+02  0.60876257832E+01  0.14542922023E+02  0.51100000000E-03 0. -1.
        -12    1    3    3    0    0  0.15893833652E+02  0.31098856136E+01  0.77869821280E+01  0.17970042497E+02  0.00000000000E+00 0.  1.
</event>
<event>
 7    1  0.2486105E-010  0.4778727E+02  0.7816164E-02  0.1312668E+00
        -11   -1    0    0    0    0  0.00000000000E+00  0.00000000000E+00  0.45593999997E+02  0.45594000000E+02  0.51100000000E-03 0. -1.
         11   -1    0    0    0    0 -0.00000000000E+00 -0.00000000000E+00 -0.45593999997E+02  0.45594000000E+02  0.51100000000E-03 0.  1.
    9900012    2    1    2    0    0  0.25275403282E+02 -0.34973131371E+02 -0.46537167153E+01  0.47787274105E+02  0.20000013954E+02 0.  0.
         12    1    1    2    0    0 -0.25275403282E+02  0.34973131371E+02  0.46537167153E+01  0.43400725895E+02  0.00000000000E+00 0. -1.
         11    1    3    3    0    0 -0.95907230703E-01  0.10587026478E+01  0.22140882084E+01  0.24560611452E+01  0.51100000000E-03 0. -1.
        -11    1    3    3    0    0  0.22270939636E+01 -0.21418408291E+01 -0.26601525223E+01  0.40772345239E+01  0.51100000000E-03 0.  1.
        -12    1    3    3    0    0  0.23144216549E+02 -0.33889993190E+02 -0.42076524014E+01  0.41253978436E+02  0.00000000000E+00 0.  1.
</event>
<event>
 7    1  0.2486105E-010  0.4778727E+02  0.7816164E-02  0.1312668E+00
        -11   -1    0    0    0    0  0.00000000000E+00  0.00000000000E+00  0.45593999997E+02  0.45594000000E+02  0.51100000000E-03 0.  1.
         11   -1    0    0    0    0 -0.00000000000E+00 -0.00000000000E+00 -0.45593999997E+02  0.45594000000E+02  0.51100000000E-03 0. -1.
    9900012    2    1    2    0    0  0.24355633885E+02 -0.35036518915E+02 -0.79289615157E+01  0.47787274311E+02  0.20000014893E+02 0.  0.
         12    1    1    2    0    0 -0.24355633885E+02  0.35036518915E+02  0.79289615157E+01  0.43400725689E+02  0.00000000000E+00 0. -1.
         11    1    3    3    0    0  0.32291741874E+01 -0.20308656766E+01 -0.25483017856E+00  0.38232080782E+01  0.51100000000E-03 0.  1.
        -11    1    3    3    0    0  0.14209244629E+02 -0.78604845725E+01 -0.74936235554E+01  0.17884189803E+02  0.51100000000E-03 0. -1.
         12    1    3    3    0    0  0.69172150684E+01 -0.25145168666E+02 -0.18050778174E+00  0.26079876430E+02  0.00000000000E+00 0. -1.
</event>
<event>
 7    1  0.2486105E-010  0.4778726E+02  0.7816164E-02  0.1312668E+00
        -11   -1    0    0    0    0  0.00000000000E+00  0.00000000000E+00  0.45593999997E+02  0.45594000000E+02  0.51100000000E-03 0. -1.
         11   -1    0    0    0    0 -0.00000000000E+00 -0.00000000000E+00 -0.45593999997E+02  0.45594000000E+02  0.51100000000E-03 0.  1.
    9900012    2    1    2    0    0  0.40834797411E+02 -0.28784763183E+00 -0.14699006517E+02  0.47787258895E+02  0.19999944605E+02 0.  0.
         12    1    1    2    0    0 -0.40834797411E+02  0.28784763183E+00  0.14699006517E+02  0.43400741105E+02  0.00000000000E+00 0. -1.
         11    1    3    3    0    0  0.96935332501E+01  0.56180818961E+01 -0.26468128624E+01  0.11512299929E+02  0.51100000000E-03 0. -1.
        -11    1    3    3    0    0  0.22428912453E+02  0.11069240734E+01 -0.11101593334E+02  0.25050484417E+02  0.51100000000E-03 0.  1.
        -12    1    3    3    0    0  0.87123517086E+01 -0.70128536013E+01 -0.95060032076E+00  0.11224474549E+02  0.00000000000E+00 0.  1.
</event>
<event>
 7    1  0.2486105E-010  0.4778727E+02  0.7816164E-02  0.1312668E+00
        -11   -1    0    0    0    0  0.00000000000E+00  0.00000000000E+00  0.45593999997E+02  0.45594000000E+02  0.51100000000E-03 0.  1.
         11   -1    0    0    0    0 -0.00000000000E+00 -0.00000000000E+00 -0.45593999997E+02  0.45594000000E+02  0.51100000000E-03 0. -1.
    9900012    2    1    2    0    0 -0.31634054288E+02 -0.21461942463E+02  0.20549819353E+02  0.47787269126E+02  0.19999991252E+02 0.  0.
         12    1    1    2    0    0  0.31634054288E+02  0.21461942463E+02 -0.20549819353E+02  0.43400730874E+02  0.00000000000E+00 0. -1.
         11    1    3    3    0    0 -0.45689848866E+01  0.19280388915E+01 -0.94366021600E+00  0.50481136800E+01  0.51100000000E-03 0. -1.
        -11    1    3    3    0    0 -0.77757747425E+00  0.56147440643E+00 -0.32994100640E+00  0.10142689813E+01  0.51100000000E-03 0.  1.
        -12    1    3    3    0    0 -0.26287491927E+02 -0.23951455761E+02  0.21823420575E+02  0.41724886465E+02  0.00000000000E+00 0.  1.
</event>
<event>
 7    1  0.2486105E-010  0.4778727E+02  0.7816164E-02  0.1312668E+00
        -11   -1    0    0    0    0  0.00000000000E+00  0.00000000000E+00  0.45593999997E+02  0.45594000000E+02  0.51100000000E-03 0.  1.
         11   -1    0    0    0    0 -0.00000000000E+00 -0.00000000000E+00 -0.45593999997E+02  0.45594000000E+02  0.51100000000E-03 0. -1.
    9900012    2    1    2    0    0 -0.32263285057E+02 -0.25253252544E+02  0.14317031785E+02  0.47787265837E+02  0.19999976258E+02 0.  0.
         12    1    1    2    0    0  0.32263285057E+02  0.25253252544E+02 -0.14317031785E+02  0.43400734163E+02  0.00000000000E+00 0. -1.
         11    1    3    3    0    0  0.18705617745E+01 -0.17511795360E-01  0.24877901346E+01  0.31126207655E+01  0.51100000000E-03 0. -1.
        -11    1    3    3    0    0 -0.20095343358E+02 -0.18951809300E+02  0.88720883110E+01  0.29012201773E+02  0.51100000000E-03 0.  1.
        -12    1    3    3    0    0 -0.14038503473E+02 -0.62839314482E+01  0.29571533395E+01  0.15662443299E+02  0.00000000000E+00 0.  1.
</event>
<event>
 7    1  0.2486105E-010  0.4778727E+02  0.7816164E-02  0.1312668E+00
        -11   -1    0    0    0    0  0.00000000000E+00  0.00000000000E+00  0.45593999997E+02  0.45594000000E+02  0.51100000000E-03 0.  1.
         11   -1    0    0    0    0 -0.00000000000E+00 -0.00000000000E+00 -0.45593999997E+02  0.45594000000E+02  0.51100000000E-03 0. -1.
    9900012    2    1    2    0    0  0.94751366680E+01  0.31095557654E+02  0.28756074769E+02  0.47787265481E+02  0.19999974635E+02 0.  0.
         12    1    1    2    0    0 -0.94751366680E+01 -0.31095557654E+02 -0.28756074769E+02  0.43400734519E+02  0.00000000000E+00 0. -1.
         11    1    3    3    0    0 -0.25468762431E+01 -0.34165222233E+00  0.68475983134E+00  0.26593610372E+01  0.51100000000E-03 0. -1.
        -11    1    3    3    0    0  0.11197896639E+02  0.29868774682E+02  0.21863832423E+02  0.38672519425E+02  0.51100000000E-03 0.  1.
        -12    1    3    3    0    0  0.82411627199E+00  0.15684351940E+01  0.62074825139E+01  0.64553850194E+01  0.00000000000E+00 0.  1.
</event>
<event>
 7    1  0.2486105E-010  0.4778727E+02  0.7816164E-02  0.1312668E+00
        -11   -1    0    0    0    0  0.00000000000E+00  0.00000000000E+00  0.45593999997E+02  0.45594000000E+02  0.51100000000E-03 0. -1.
         11   -1    0    0    0    0 -0.00000000000E+00 -0.00000000000E+00 -0.45593999997E+02  0.45594000000E+02  0.51100000000E-03 0.  1.
    9900012    2    1    2    0    0 -0.31376702197E+02  0.22686328013E+02 -0.19607565887E+02  0.47787267754E+02  0.19999984997E+02 0.  0.
         12    1    1    2    0    0  0.31376702197E+02 -0.22686328013E+02  0.19607565887E+02  0.43400732246E+02  0.00000000000E+00 0. -1.
         11    1    3    3    0    0 -0.59374158225E+01  0.10385916935E+02 -0.21126609219E+01  0.12148395518E+02  0.51100000000E-03 0. -1.
        -11    1    3    3    0    0 -0.82538480063E+01  0.59201493383E+01  0.20123328603E+00  0.10159462102E+02  0.51100000000E-03 0.  1.
        -12    1    3    3    0    0 -0.17185438369E+02  0.63802617394E+01 -0.17696138251E+02  0.25479410134E+02  0.00000000000E+00 0.  1.
</event>
<event>
 7    1  0.2486105E-010  0.4778727E+02  0.7816164E-02  0.1312668E+00
        -11   -1    0    0    0    0  0.00000000000E+00  0.00000000000E+00  0.45593999997E+02  0.45594000000E+02  0.51100000000E-03 0.  1.
         11   -1    0    0    0    0 -0.00000000000E+00 -0.00000000000E+00 -0.45593999997E+02  0.45594000000E+02  0.51100000000E-03 0. -1.
    9900012    2    1    2    0    0  0.78440611624E+01  0.29930129783E+01  0.42580936526E+02  0.47787267545E+02  0.19999984045E+02 0.  0.
         12    1    1    2    0    0 -0.78440611624E+01 -0.29930129783E+01 -0.42580936526E+02  0.43400732455E+02  0.00000000000E+00 0. -1.
         11    1    3    3    0    0  0.36099783579E+01  0.93371693261E+01  0.16972485560E+02  0.19704820251E+02  0.51100000000E-03 0. -1.
        -11    1    3    3    0    0  0.17456360572E+01  0.13310932148E+01  0.12488820119E+02  0.12680287166E+02  0.51100000000E-03 0.  1.
        -12    1    3    3    0    0  0.24884467473E+01 -0.76752495626E+01  0.13119630847E+02  0.15402160129E+02  0.00000000000E+00 0.  1.
</event>
<event>
 7    1  0.2486105E-010  0.4778729E+02  0.7816164E-02  0.1312668E+00
        -11   -1    0    0    0    0  0.00000000000E+00  0.00000000000E+00  0.45593999997E+02  0.45594000000E+02  0.51100000000E-03 0.  1.
         11   -1    0    0    0    0 -0.00000000000E+00 -0.00000000000E+00 -0.45593999997E+02  0.45594000000E+02  0.51100000000E-03 0. -1.
    9900012    2    1    2    0    0 -0.21384736815E+02 -0.37727479793E+02 -0.17180201932E+01  0.47787293859E+02  0.20000104019E+02 0.  0.
         12    1    1    2    0    0  0.21384736815E+02  0.37727479793E+02  0.17180201932E+01  0.43400706141E+02  0.00000000000E+00 0. -1.
         11    1    3    3    0    0 -0.30182685918E+01 -0.20051795819E+02 -0.35174123229E+01  0.20580491991E+02  0.51100000000E-03 0. -1.
        -11    1    3    3    0    0 -0.70864605402E+01 -0.86151953066E+01 -0.36636982018E+01  0.11741473414E+02  0.51100000000E-03 0.  1.
        -12    1    3    3    0    0 -0.11280007683E+02 -0.90604886669E+01  0.54630903315E+01  0.15465328454E+02  0.00000000000E+00 0.  1.
</event>
<event>
 7    1  0.2486105E-010  0.4778727E+02  0.7816164E-02  0.1312668E+00
        -11   -1    0    0    0    0  0.00000000000E+00  0.00000000000E+00  0.45593999997E+02  0.45594000000E+02  0.51100000000E-03 0.  1.
         11   -1    0    0    0    0 -0.00000000000E+00 -0.00000000000E+00 -0.45593999997E+02  0.45594000000E+02  0.51100000000E-03 0. -1.
    9900012    2    1    2    0    0  0.33667147818E+02 -0.17052652057E+02 -0.21432543774E+02  0.47787265939E+02  0.19999976723E+02 0.  0.
         12    1    1    2    0    0 -0.33667147818E+02  0.17052652057E+02  0.21432543774E+02  0.43400734061E+02  0.00000000000E+00 0. -1.
         11    1    3    3    0    0 -0.48844166938E-02 -0.44961866165E+01 -0.12637238401E+01  0.46704085639E+01  0.51100000000E-03 0. -1.
        -11    1    3    3    0    0 -0.46904692515E+00  0.11339600226E+01 -0.14371332961E+00  0.12355258528E+01  0.51100000000E-03 0.  1.
        -12    1    3    3    0    0  0.34141079160E+02 -0.13690425463E+02 -0.20025106604E+02  0.41881331522E+02  0.00000000000E+00 0.  1.
</event>
<event>
 7    1  0.2486105E-010  0.4778727E+02  0.7816164E-02  0.1312668E+00
        -11   -1    0    0    0    0  0.00000000000E+00  0.00000000000E+00  0.45593999997E+02  0.45594000000E+02  0.51100000000E-03 0.  1.
         11   -1    0    0    0    0 -0.00000000000E+00 -0.00000000000E+00 -0.45593999997E+02  0.45594000000E+02  0.51100000000E-03 0. -1.
    9900012    2    1    2    0    0  0.24504051594E+01 -0.17655246484E+02  0.39571592468E+02  0.47787272537E+02  0.20000006806E+02 0.  0.
         12    1    1    2    0    0 -0.24504051594E+01  0.17655246484E+02 -0.39571592468E+02  0.43400727463E+02  0.00000000000E+00 0. -1.
         11    1    3    3    0    0  0.61439820929E+01 -0.20934652070E+01  0.25913005699E+01  0.69889878692E+01  0.51100000000E-03 0. -1.
        -11    1    3    3    0    0 -0.27459338163E+01 -0.15551471149E+01  0.57877991577E+01  0.65922116489E+01  0.51100000000E-03 0.  1.
        -12    1    3    3    0    0 -0.94764311726E+00 -0.14006634162E+02  0.31192492741E+02  0.34206073019E+02  0.00000000000E+00 0.  1.
</event>
<event>
 7    1  0.2486105E-010  0.4778726E+02  0.7816164E-02  0.1312668E+00
        -11   -1    0    0    0    0  0.00000000000E+00  0.00000000000E+00  0.45593999997E+02  0.45594000000E+02  0.51100000000E-03 0. -1.
         11   -1    0    0    0    0 -0.00000000000E+00 -0.00000000000E+00 -0.45593999997E+02  0.45594000000E+02  0.51100000000E-03 0.  1.
    9900012    2    1    2    0    0  0.18763192779E+01  0.42730627035E+02 -0.73618481458E+01  0.47787264189E+02  0.19999968741E+02 0.  0.
         12    1    1    2    0    0 -0.18763192779E+01 -0.42730627035E+02  0.73618481458E+01  0.43400735811E+02  0.00000000000E+00 0. -1.
         11    1    3    3    0    0 -0.62176528819E+01  0.29935737361E+02 -0.29755225949E+01  0.30719070846E+02  0.51100000000E-03 0. -1.
        -11    1    3    3    0    0  0.31276921862E+01  0.73901819813E+01  0.82395778471E+00  0.80669792872E+01  0.51100000000E-03 0.  1.
        -12    1    3    3    0    0  0.49662799736E+01  0.54047076931E+01 -0.52102833357E+01  0.90012140549E+01  0.00000000000E+00 0.  1.
</event>
<event>
 7    1  0.2486105E-010  0.4778727E+02  0.7816164E-02  0.1312668E+00
        -11   -1    0    0    0    0  0.00000000000E+00  0.00000000000E+00  0.45593999997E+02  0.45594000000E+02  0.51100000000E-03 0. -1.
         11   -1    0    0    0    0 -0.00000000000E+00 -0.00000000000E+00 -0.45593999997E+02  0.45594000000E+02  0.51100000000E-03 0.  1.
    9900012    2    1    2    0    0  0.59483916127E+01  0.58710369064E+01 -0.42588388954E+02  0.47787270619E+02  0.19999998059E+02 0.  0.
         12    1    1    2    0    0 -0.59483916127E+01 -0.58710369064E+01  0.42588388954E+02  0.43400729381E+02  0.00000000000E+00 0. -1.
         11    1    3    3    0    0 -0.21629700630E+00  0.28794683626E+01 -0.15518754575E+01  0.32781763441E+01  0.51100000000E-03 0. -1.
        -11    1    3    3    0    0 -0.52645955709E+00  0.59034340775E+01 -0.50390684751E+01  0.77794540252E+01  0.51100000000E-03 0.  1.
        -12    1    3    3    0    0  0.66911481761E+01 -0.29118655337E+01 -0.35997445021E+02  0.36729640250E+02  0.00000000000E+00 0.  1.
</event>
<event>
 7    1  0.2486105E-010  0.4778727E+02  0.7816164E-02  0.1312668E+00
        -11   -1    0    0    0    0  0.00000000000E+00  0.00000000000E+00  0.45593999997E+02  0.45594000000E+02  0.51100000000E-03 0. -1.
         11   -1    0    0    0    0 -0.00000000000E+00 -0.00000000000E+00 -0.45593999997E+02  0.45594000000E+02  0.51100000000E-03 0.  1.
    9900012    2    1    2    0    0  0.17266205655E+02  0.32433989185E+02 -0.23098434834E+02  0.47787271850E+02  0.20000003673E+02 0.  0.
         12    1    1    2    0    0 -0.17266205655E+02 -0.32433989185E+02  0.23098434834E+02  0.43400728150E+02  0.00000000000E+00 0. -1.
         11    1    3    3    0    0  0.14668952764E+01  0.84352512507E+00  0.13900961423E+01  0.21899050058E+01  0.51100000000E-03 0. -1.
        -11    1    3    3    0    0  0.84835581477E+01  0.85341576090E+01 -0.13249819331E+01  0.12106121688E+02  0.51100000000E-03 0.  1.
        -12    1    3    3    0    0  0.73157522309E+01  0.23056306451E+02 -0.23163549043E+02  0.33491245156E+02  0.00000000000E+00 0.  1.
</event>
<event>
 7    1  0.2486105E-010  0.4778727E+02  0.7816164E-02  0.1312668E+00
        -11   -1    0    0    0    0  0.00000000000E+00  0.00000000000E+00  0.45593999997E+02  0.45594000000E+02  0.51100000000E-03 0.  1.
         11   -1    0    0    0    0 -0.00000000000E+00 -0.00000000000E+00 -0.45593999997E+02  0.45594000000E+02  0.51100000000E-03 0. -1.
    9900012    2    1    2    0    0  0.37676467355E+02 -0.20398881062E+01  0.21446350087E+02  0.47787271113E+02  0.20000000312E+02 0.  0.
         12    1    1    2    0    0 -0.37676467355E+02  0.20398881062E+01 -0.21446350087E+02  0.43400728887E+02  0.00000000000E+00 0. -1.
         11    1    3    3    0    0 -0.21570217979E+00 -0.16475444383E+00 -0.84150484381E+00  0.88419574778E+00  0.51100000000E-03 0. -1.
        -11    1    3    3    0    0  0.29575258118E+02 -0.82989149601E+01  0.17526601063E+02  0.35365938802E+02  0.51100000000E-03 0.  1.
        -12    1    3    3    0    0  0.83169114175E+01  0.64237812977E+01  0.47612538674E+01  0.11537136563E+02  0.00000000000E+00 0.  1.
</event>
<event>
 7    1  0.2486105E-010  0.4778726E+02  0.7816164E-02  0.1312668E+00
        -11   -1    0    0    0    0  0.00000000000E+00  0.00000000000E+00  0.45593999997E+02  0.45594000000E+02  0.51100000000E-03 0.  1.
         11   -1    0    0    0    0 -0.00000000000E+00 -0.00000000000E+00 -0.45593999997E+02  0.45594000000E+02  0.51100000000E-03 0. -1.
    9900012    2    1    2    0    0 -0.82657514472E+01 -0.12067234725E+01  0.42589259660E+02  0.47787264212E+02  0.19999968849E+02 0.  0.
         12    1    1    2    0    0  0.82657514472E+01  0.12067234725E+01 -0.42589259660E+02  0.43400735788E+02  0.00000000000E+00 0. -1.
         11    1    3    3    0    0  0.31999536138E+01 -0.80720465632E+00  0.59070287997E+00  0.33526426354E+01  0.51100000000E-03 0. -1.
        -11    1    3    3    0    0 -0.17607889205E+01  0.51145795784E+00  0.63866729536E+00  0.19416135147E+01  0.51100000000E-03 0.  1.
        -12    1    3    3    0    0 -0.97049161404E+01 -0.91097677405E+00  0.41359889485E+02  0.42493008062E+02  0.00000000000E+00 0.  1.
</event>
<event>
 7    1  0.2486105E-010  0.4778727E+02  0.7816164E-02  0.1312668E+00
        -11   -1    0    0    0    0  0.00000000000E+00  0.00000000000E+00  0.45593999997E+02  0.45594000000E+02  0.51100000000E-03 0.  1.
         11   -1    0    0    0    0 -0.00000000000E+00 -0.00000000000E+00 -0.45593999997E+02  0.45594000000E+02  0.51100000000E-03 0. -1.
    9900012    2    1    2    0    0  0.13892597296E+02 -0.19025884669E+01  0.41073100655E+02  0.47787266137E+02  0.19999977623E+02 0.  0.
         12    1    1    2    0    0 -0.13892597296E+02  0.19025884669E+01 -0.41073100655E+02  0.43400733863E+02  0.00000000000E+00 0. -1.
         11    1    3    3    0    0 -0.82498043091E+00  0.11757973829E+01  0.12519642198E+02  0.12601767068E+02  0.51100000000E-03 0. -1.
        -11    1    3    3    0    0  0.68404670522E+01  0.53770331749E-01  0.25128146524E+02  0.26042630987E+02  0.51100000000E-03 0.  1.
         12    1    3    3    0    0  0.78771106744E+01 -0.31321561816E+01  0.34253119322E+01  0.91428680815E+01  0.00000000000E+00 0. -1.
</event>
<event>
 7    1  0.2486105E-010  0.4778728E+02  0.7816164E-02  0.1312668E+00
        -11   -1    0    0    0    0  0.00000000000E+00  0.00000000000E+00  0.45593999997E+02  0.45594000000E+02  0.51100000000E-03 0.  1.
         11   -1    0    0    0    0 -0.00000000000E+00 -0.00000000000E+00 -0.45593999997E+02  0.45594000000E+02  0.51100000000E-03 0. -1.
    9900012    2    1    2    0    0 -0.19808141691E+02  0.19562837382E+02  0.33294972717E+02  0.47787282357E+02  0.20000051580E+02 0.  0.
         12    1    1    2    0    0  0.19808141691E+02 -0.19562837382E+02 -0.33294972717E+02  0.43400717643E+02  0.00000000000E+00 0. -1.
         11    1    3    3    0    0 -0.11402703193E+01  0.85486899714E+01  0.35287281166E+01  0.93183817806E+01  0.51100000000E-03 0. -1.
        -11    1    3    3    0    0 -0.85660199243E+01  0.66853735878E+01  0.63092868156E+01  0.12564951959E+02  0.51100000000E-03 0.  1.
        -12    1    3    3    0    0 -0.10101851448E+02  0.43287738229E+01  0.23456957784E+02  0.25903948618E+02  0.00000000000E+00 0.  1.
</event>
<event>
 7    1  0.2486105E-010  0.4778727E+02  0.7816164E-02  0.1312668E+00
        -11   -1    0    0    0    0  0.00000000000E+00  0.00000000000E+00  0.45593999997E+02  0.45594000000E+02  0.51100000000E-03 0. -1.
         11   -1    0    0    0    0 -0.00000000000E+00 -0.00000000000E+00 -0.45593999997E+02  0.45594000000E+02  0.51100000000E-03 0.  1.
    9900012    2    1    2    0    0 -0.30519444588E+02  0.21600694468E+02 -0.22036257501E+02  0.47787272540E+02  0.20000006818E+02 0.  0.
         12    1    1    2    0    0  0.30519444588E+02 -0.21600694468E+02  0.22036257501E+02  0.43400727460E+02  0.00000000000E+00 0. -1.
         11    1    3    3    0    0 -0.87547526801E+01  0.15757531735E+02 -0.43460874622E+01  0.18542760780E+02  0.51100000000E-03 0. -1.
        -11    1    3    3    0    0 -0.91625039556E+01  0.42740710024E+01 -0.49542601402E+01  0.11258945575E+02  0.51100000000E-03 0.  1.
         12    1    3    3    0    0 -0.12602187952E+02  0.15690917306E+01 -0.12735909899E+02  0.17985566185E+02  0.00000000000E+00 0. -1.
</event>
<event>
 7    1  0.2486105E-010  0.4778727E+02  0.7816164E-02  0.1312668E+00
        -11   -1    0    0    0    0  0.00000000000E+00  0.00000000000E+00  0.45593999997E+02  0.45594000000E+02  0.51100000000E-03 0.  1.
         11   -1    0    0    0    0 -0.00000000000E+00 -0.00000000000E+00 -0.45593999997E+02  0.45594000000E+02  0.51100000000E-03 0. -1.
    9900012    2    1    2    0    0  0.12970498813E+02  0.19924421067E+02  0.36309869284E+02  0.47787274180E+02  0.20000014295E+02 0.  0.
         12    1    1    2    0    0 -0.12970498813E+02 -0.19924421067E+02 -0.36309869284E+02  0.43400725820E+02  0.00000000000E+00 0. -1.
         11    1    3    3    0    0  0.15921283028E+01 -0.23442092260E+00  0.13555575247E+02  0.13650767240E+02  0.51100000000E-03 0. -1.
        -11    1    3    3    0    0 -0.93308001852E+00  0.63766401950E+01  0.91369233653E+01  0.11181035164E+02  0.51100000000E-03 0.  1.
        -12    1    3    3    0    0  0.12311450528E+02  0.13782201794E+02  0.13617370671E+02  0.22955471775E+02  0.00000000000E+00 0.  1.
</event>
<event>
 7    1  0.2486105E-010  0.4778721E+02  0.7816164E-02  0.1312668E+00
        -11   -1    0    0    0    0  0.00000000000E+00  0.00000000000E+00  0.45593999997E+02  0.45594000000E+02  0.51100000000E-03 0.  1.
         11   -1    0    0    0    0 -0.00000000000E+00 -0.00000000000E+00 -0.45593999997E+02  0.45594000000E+02  0.51100000000E-03 0. -1.
    9900012    2    1    2    0    0  0.15080549325E+02 -0.20173089363E+02  0.35344756711E+02  0.47787212803E+02  0.19999734451E+02 0.  0.
         12    1    1    2    0    0 -0.15080549325E+02  0.20173089363E+02 -0.35344756711E+02  0.43400787197E+02  0.00000000000E+00 0. -1.
         11    1    3    3    0    0  0.93875565236E+01 -0.76120279414E+01  0.53750043082E+01  0.13227239260E+02  0.51100000000E-03 0. -1.
        -11    1    3    3    0    0  0.78583074522E+01 -0.94637726131E+01  0.16566098550E+02  0.20633749284E+02  0.51100000000E-03 0.  1.
        -12    1    3    3    0    0 -0.21653146508E+01 -0.30972888084E+01  0.13403653853E+02  0.13926224259E+02  0.00000000000E+00 0.  1.
</event>
<event>
 7    1  0.2486105E-010  0.4778727E+02  0.7816164E-02  0.1312668E+00
        -11   -1    0    0    0    0  0.00000000000E+00  0.00000000000E+00  0.45593999997E+02  0.45594000000E+02  0.51100000000E-03 0.  1.
         11   -1    0    0    0    0 -0.00000000000E+00 -0.00000000000E+00 -0.45593999997E+02  0.45594000000E+02  0.51100000000E-03 0. -1.
    9900012    2    1    2    0    0  0.20607692664E+02 -0.56945143514E-01  0.38196113483E+02  0.47787270457E+02  0.19999997321E+02 0.  0.
         12    1    1    2    0    0 -0.20607692664E+02  0.56945143514E-01 -0.38196113483E+02  0.43400729543E+02  0.00000000000E+00 0. -1.
         11    1    3    3    0    0  0.43282698025E+01 -0.24631747203E+01  0.61170005677E+00  0.50175020086E+01  0.51100000000E-03 0. -1.
        -11    1    3    3    0    0  0.11492325107E+01  0.27600879941E+01  0.95770325102E+00  0.31394293872E+01  0.51100000000E-03 0.  1.
        -12    1    3    3    0    0  0.15130190351E+02 -0.35385841731E+00  0.36626710175E+02  0.39630339061E+02  0.00000000000E+00 0.  1.
</event>
<event>
 7    1  0.2486105E-010  0.4778727E+02  0.7816164E-02  0.1312668E+00
        -11   -1    0    0    0    0  0.00000000000E+00  0.00000000000E+00  0.45593999997E+02  0.45594000000E+02  0.51100000000E-03 0.  1.
         11   -1    0    0    0    0 -0.00000000000E+00 -0.00000000000E+00 -0.45593999997E+02  0.45594000000E+02  0.51100000000E-03 0. -1.
    9900012    2    1    2    0    0  0.82504987475E+01 -0.36607350476E+02  0.21804920804E+02  0.47787269480E+02  0.19999992865E+02 0.  0.
         12    1    1    2    0    0 -0.82504987475E+01  0.36607350476E+02 -0.21804920804E+02  0.43400730520E+02  0.00000000000E+00 0. -1.
         11    1    3    3    0    0  0.46540409037E+01 -0.29938244513E+01  0.11840553887E+01  0.56590696235E+01  0.51100000000E-03 0. -1.
        -11    1    3    3    0    0 -0.51030580219E+01 -0.73723814275E+01  0.35930623132E+01  0.96593636506E+01  0.51100000000E-03 0.  1.
         12    1    3    3    0    0  0.86995158656E+01 -0.26241144597E+02  0.17027803102E+02  0.32468836206E+02  0.00000000000E+00 0. -1.
</event>
<event>
 7    1  0.2486105E-010  0.4778727E+02  0.7816164E-02  0.1312668E+00
        -11   -1    0    0    0    0  0.00000000000E+00  0.00000000000E+00  0.45593999997E+02  0.45594000000E+02  0.51100000000E-03 0.  1.
         11   -1    0    0    0    0 -0.00000000000E+00 -0.00000000000E+00 -0.45593999997E+02  0.45594000000E+02  0.51100000000E-03 0. -1.
    9900012    2    1    2    0    0 -0.12863129692E+02  0.24840220745E+02  0.33183224909E+02  0.47787273192E+02  0.20000009789E+02 0.  0.
         12    1    1    2    0    0  0.12863129692E+02 -0.24840220745E+02 -0.33183224909E+02  0.43400726808E+02  0.00000000000E+00 0. -1.
         11    1    3    3    0    0 -0.20813331597E+00  0.25025059949E+01  0.41410897004E+01  0.48429825417E+01  0.51100000000E-03 0.  1.
        -11    1    3    3    0    0 -0.11342621944E+01  0.36423696648E+01 -0.24630343125E+01  0.45409190464E+01  0.51100000000E-03 0. -1.
        -12    1    3    3    0    0 -0.11520734182E+02  0.18695345085E+02  0.31505169521E+02  0.38403371603E+02  0.00000000000E+00 0.  1.
</event>
<event>
 7    1  0.2486105E-010  0.4778727E+02  0.7816164E-02  0.1312668E+00
        -11   -1    0    0    0    0  0.00000000000E+00  0.00000000000E+00  0.45593999997E+02  0.45594000000E+02  0.51100000000E-03 0.  1.
         11   -1    0    0    0    0 -0.00000000000E+00 -0.00000000000E+00 -0.45593999997E+02  0.45594000000E+02  0.51100000000E-03 0. -1.
    9900012    2    1    2    0    0 -0.19546258408E+02  0.23782400628E+02  0.30593539222E+02  0.47787269136E+02  0.19999991299E+02 0.  0.
         12    1    1    2    0    0  0.19546258408E+02 -0.23782400628E+02 -0.30593539222E+02  0.43400730864E+02  0.00000000000E+00 0. -1.
         11    1    3    3    0    0 -0.79877638902E+01  0.14599986143E+02  0.65322147948E+01  0.17878305225E+02  0.51100000000E-03 0.  1.
        -11    1    3    3    0    0 -0.52735649440E+01  0.78562325955E+01  0.72745624739E+01  0.11935247683E+02  0.51100000000E-03 0. -1.
         12    1    3    3    0    0 -0.62849295736E+01  0.13261818895E+01  0.16786761953E+02  0.17973716228E+02  0.00000000000E+00 0. -1.
</event>
<event>
 7    1  0.2486105E-010  0.4778727E+02  0.7816164E-02  0.1312668E+00
        -11   -1    0    0    0    0  0.00000000000E+00  0.00000000000E+00  0.45593999997E+02  0.45594000000E+02  0.51100000000E-03 0.  1.
         11   -1    0    0    0    0 -0.00000000000E+00 -0.00000000000E+00 -0.45593999997E+02  0.45594000000E+02  0.51100000000E-03 0. -1.
    9900012    2    1    2    0    0 -0.22823749083E+02  0.33616189062E+02  0.15252915736E+02  0.47787272728E+02  0.20000007678E+02 0.  0.
         12    1    1    2    0    0  0.22823749083E+02 -0.33616189062E+02 -0.15252915736E+02  0.43400727272E+02  0.00000000000E+00 0. -1.
         11    1    3    3    0    0 -0.51437160037E+01  0.15015198156E+02  0.12603809171E+02  0.20267461506E+02  0.51100000000E-03 0. -1.
        -11    1    3    3    0    0 -0.70792973449E+01  0.46776311599E+01  0.50223131393E+01  0.98600361914E+01  0.51100000000E-03 0.  1.
         12    1    3    3    0    0 -0.10600735734E+02  0.13923359746E+02 -0.23732065746E+01  0.17659775031E+02  0.00000000000E+00 0. -1.
</event>
<event>
 7    1  0.2486105E-010  0.4778731E+02  0.7816164E-02  0.1312668E+00
        -11   -1    0    0    0    0  0.00000000000E+00  0.00000000000E+00  0.45593999997E+02  0.45594000000E+02  0.51100000000E-03 0.  1.
         11   -1    0    0    0    0 -0.00000000000E+00 -0.00000000000E+00 -0.45593999997E+02  0.45594000000E+02  0.51100000000E-03 0. -1.
    9900012    2    1    2    0    0  0.19112396114E+02 -0.26389093605E+02  0.28669699596E+02  0.47787313123E+02  0.20000191851E+02 0.  0.
         12    1    1    2    0    0 -0.19112396114E+02  0.26389093605E+02 -0.28669699596E+02  0.43400686877E+02  0.00000000000E+00 0. -1.
         11    1    3    3    0    0  0.86041508987E+01 -0.86329897209E+01  0.45602868666E+01  0.13013690513E+02  0.51100000000E-03 0. -1.
        -11    1    3    3    0    0  0.79335362815E+01 -0.13862135467E+02  0.77340338189E+01  0.17745846754E+02  0.51100000000E-03 0.  1.
        -12    1    3    3    0    0  0.25747089334E+01 -0.38939684166E+01  0.16375378911E+02  0.17027775856E+02  0.00000000000E+00 0.  1.
</event>
<event>
 7    1  0.2486105E-010  0.4778727E+02  0.7816164E-02  0.1312668E+00
        -11   -1    0    0    0    0  0.00000000000E+00  0.00000000000E+00  0.45593999997E+02  0.45594000000E+02  0.51100000000E-03 0. -1.
         11   -1    0    0    0    0 -0.00000000000E+00 -0.00000000000E+00 -0.45593999997E+02  0.45594000000E+02  0.51100000000E-03 0.  1.
    9900012    2    1    2    0    0 -0.13459788403E+02 -0.16924020430E+02 -0.37630235901E+02  0.47787273908E+02  0.20000013055E+02 0.  0.
         12    1    1    2    0    0  0.13459788403E+02  0.16924020430E+02  0.37630235901E+02  0.43400726092E+02  0.00000000000E+00 0. -1.
         11    1    3    3    0    0  0.24426988132E+00 -0.41727377170E+01 -0.16930036592E+01  0.45097305331E+01  0.51100000000E-03 0. -1.
        -11    1    3    3    0    0 -0.12155760559E+02 -0.15687170412E+02 -0.25422665006E+02  0.32251538360E+02  0.51100000000E-03 0.  1.
         12    1    3    3    0    0 -0.15482977247E+01  0.29358876993E+01 -0.10514567236E+02  0.11026005015E+02  0.00000000000E+00 0. -1.
</event>
<event>
 7    1  0.2486105E-010  0.4778727E+02  0.7816164E-02  0.1312668E+00
        -11   -1    0    0    0    0  0.00000000000E+00  0.00000000000E+00  0.45593999997E+02  0.45594000000E+02  0.51100000000E-03 0. -1.
         11   -1    0    0    0    0 -0.00000000000E+00 -0.00000000000E+00 -0.45593999997E+02  0.45594000000E+02  0.51100000000E-03 0.  1.
    9900012    2    1    2    0    0 -0.37929035614E+01  0.43231270222E+02  0.54239315846E+00  0.47787273822E+02  0.20000012666E+02 0.  0.
         12    1    1    2    0    0  0.37929035614E+01 -0.43231270222E+02 -0.54239315846E+00  0.43400726178E+02  0.00000000000E+00 0. -1.
         11    1    3    3    0    0  0.93581017137E+00  0.14106291918E+01  0.16280709746E+01  0.23486657389E+01  0.51100000000E-03 0. -1.
        -11    1    3    3    0    0 -0.47514371912E+01  0.42973409987E+02 -0.28520259831E+01  0.43329253094E+02  0.51100000000E-03 0.  1.
        -12    1    3    3    0    0  0.22723458441E-01 -0.11527689566E+01  0.17663481669E+01  0.21093549890E+01  0.00000000000E+00 0.  1.
</event>
<event>
 7    1  0.2486105E-010  0.4778727E+02  0.7816164E-02  0.1312668E+00
        -11   -1    0    0    0    0  0.00000000000E+00  0.00000000000E+00  0.45593999997E+02  0.45594000000E+02  0.51100000000E-03 0.  1.
         11   -1    0    0    0    0 -0.00000000000E+00 -0.00000000000E+00 -0.45593999997E+02  0.45594000000E+02  0.51100000000E-03 0. -1.
    9900012    2    1    2    0    0  0.19822999025E+02 -0.41995779182E+00  0.38606935512E+02  0.47787272765E+02  0.20000007845E+02 0.  0.
         12    1    1    2    0    0 -0.19822999025E+02  0.41995779182E+00 -0.38606935512E+02  0.43400727235E+02  0.00000000000E+00 0. -1.
         11    1    3    3    0    0  0.41080722286E+01 -0.65729023008E+01  0.60597739447E+01  0.98387073650E+01  0.51100000000E-03 0.  1.
        -11    1    3    3    0    0  0.47273273487E+00  0.17153191440E+01  0.48655008933E-01  0.17799335874E+01  0.51100000000E-03 0. -1.
        -12    1    3    3    0    0  0.15242194062E+02  0.44376253650E+01  0.32498506558E+02  0.36168631813E+02  0.00000000000E+00 0.  1.
</event>
<event>
 7    1  0.2486105E-010  0.4778727E+02  0.7816164E-02  0.1312668E+00
        -11   -1    0    0    0    0  0.00000000000E+00  0.00000000000E+00  0.45593999997E+02  0.45594000000E+02  0.51100000000E-03 0.  1.
         11   -1    0    0    0    0 -0.00000000000E+00 -0.00000000000E+00 -0.45593999997E+02  0.45594000000E+02  0.51100000000E-03 0. -1.
    9900012    2    1    2    0    0 -0.40721355616E+02 -0.85738835930E+01  0.12324083657E+02  0.47787270501E+02  0.19999997521E+02 0.  0.
         12    1    1    2    0    0  0.40721355616E+02  0.85738835930E+01 -0.12324083657E+02  0.43400729499E+02  0.00000000000E+00 0. -1.
         11    1    3    3    0    0 -0.12243748250E+02  0.22303741600E+01  0.53350972563E+00  0.12456667812E+02  0.51100000000E-03 0. -1.
        -11    1    3    3    0    0 -0.10704026462E+02 -0.42739208991E+00 -0.15207725909E+01  0.10819962848E+02  0.51100000000E-03 0.  1.
         12    1    3    3    0    0 -0.17773580905E+02 -0.10376865663E+02  0.13311346522E+02  0.24510639841E+02  0.00000000000E+00 0. -1.
</event>
<event>
 7    1  0.2486105E-010  0.4778728E+02  0.7816164E-02  0.1312668E+00
        -11   -1    0    0    0    0  0.00000000000E+00  0.00000000000E+00  0.45593999997E+02  0.45594000000E+02  0.51100000000E-03 0. -1.
         11   -1    0    0    0    0 -0.00000000000E+00 -0.00000000000E+00 -0.45593999997E+02  0.45594000000E+02  0.51100000000E-03 0.  1.
    9900012    2    1    2    0    0  0.56680634471E+01 -0.42815415127E+02 -0.42820771637E+01  0.47787275345E+02  0.20000019608E+02 0.  0.
         12    1    1    2    0    0 -0.56680634471E+01  0.42815415127E+02  0.42820771637E+01  0.43400724655E+02  0.00000000000E+00 0. -1.
         11    1    3    3    0    0  0.71187681293E+00 -0.78733285164E+01  0.40334022385E+01  0.88749312337E+01  0.51100000000E-03 0. -1.
        -11    1    3    3    0    0  0.75076512822E+01 -0.21645336319E+02  0.21200517332E+00  0.22911358724E+02  0.51100000000E-03 0.  1.
        -12    1    3    3    0    0 -0.25514646481E+01 -0.13296750292E+02 -0.85274845756E+01  0.16000985387E+02  0.00000000000E+00 0.  1.
</event>
<event>
 7    1  0.2486105E-010  0.4778727E+02  0.7816164E-02  0.1312668E+00
        -11   -1    0    0    0    0  0.00000000000E+00  0.00000000000E+00  0.45593999997E+02  0.45594000000E+02  0.51100000000E-03 0.  1.
         11   -1    0    0    0    0 -0.00000000000E+00 -0.00000000000E+00 -0.45593999997E+02  0.45594000000E+02  0.51100000000E-03 0. -1.
    9900012    2    1    2    0    0  0.39034576111E+01 -0.14099580702E+02  0.40860594283E+02  0.47787270484E+02  0.19999997446E+02 0.  0.
         12    1    1    2    0    0 -0.39034576111E+01  0.14099580702E+02 -0.40860594283E+02  0.43400729516E+02  0.00000000000E+00 0. -1.
         11    1    3    3    0    0 -0.23305031863E+00 -0.50994871955E+01  0.13186299392E+02  0.14139928360E+02  0.51100000000E-03 0. -1.
        -11    1    3    3    0    0  0.67937501129E+01  0.23301075088E+01  0.13642025114E+02  0.15417175197E+02  0.51100000000E-03 0.  1.
         12    1    3    3    0    0 -0.26572421831E+01 -0.11330201016E+02  0.14032269778E+02  0.18230166927E+02  0.00000000000E+00 0. -1.
</event>
<event>
 7    1  0.2486105E-010  0.4778726E+02  0.7816164E-02  0.1312668E+00
        -11   -1    0    0    0    0  0.00000000000E+00  0.00000000000E+00  0.45593999997E+02  0.45594000000E+02  0.51100000000E-03 0.  1.
         11   -1    0    0    0    0 -0.00000000000E+00 -0.00000000000E+00 -0.45593999997E+02  0.45594000000E+02  0.51100000000E-03 0. -1.
    9900012    2    1    2    0    0  0.12593277909E+02 -0.18546748407E+02  0.37162501760E+02  0.47787261964E+02  0.19999958599E+02 0.  0.
         12    1    1    2    0    0 -0.12593277909E+02  0.18546748407E+02 -0.37162501760E+02  0.43400738036E+02  0.00000000000E+00 0. -1.
         11    1    3    3    0    0  0.87366465597E+01 -0.74310250990E+01  0.62290513624E+01  0.13051827775E+02  0.51100000000E-03 0. -1.
        -11    1    3    3    0    0  0.56914029053E+01 -0.15007175175E+01  0.95513444324E+01  0.11219287002E+02  0.51100000000E-03 0.  1.
         12    1    3    3    0    0 -0.18347715561E+01 -0.96150057905E+01  0.21382105966E+02  0.23516147187E+02  0.00000000000E+00 0. -1.
</event>
<event>
 7    1  0.2486105E-010  0.4778727E+02  0.7816164E-02  0.1312668E+00
        -11   -1    0    0    0    0  0.00000000000E+00  0.00000000000E+00  0.45593999997E+02  0.45594000000E+02  0.51100000000E-03 0. -1.
         11   -1    0    0    0    0 -0.00000000000E+00 -0.00000000000E+00 -0.45593999997E+02  0.45594000000E+02  0.51100000000E-03 0.  1.
    9900012    2    1    2    0    0  0.15572343229E+02  0.23906473125E+02 -0.32704830759E+02  0.47787270906E+02  0.19999999367E+02 0.  0.
         12    1    1    2    0    0 -0.15572343229E+02 -0.23906473125E+02  0.32704830759E+02  0.43400729094E+02  0.00000000000E+00 0. -1.
         11    1    3    3    0    0  0.11188854095E+02  0.19296023389E+02 -0.20220046597E+02  0.30106100034E+02  0.51100000000E-03 0. -1.
        -11    1    3    3    0    0  0.50506128406E+01  0.52994548549E+01 -0.14051532853E+02  0.15844194129E+02  0.51100000000E-03 0.  1.
         12    1    3    3    0    0 -0.66712370670E+00 -0.68900511899E+00  0.15667486906E+01  0.18369767428E+01  0.00000000000E+00 0. -1.
</event>
<event>
 7    1  0.2486105E-010  0.4778727E+02  0.7816164E-02  0.1312668E+00
        -11   -1    0    0    0    0  0.00000000000E+00  0.00000000000E+00  0.45593999997E+02  0.45594000000E+02  0.51100000000E-03 0.  1.
         11   -1    0    0    0    0 -0.00000000000E+00 -0.00000000000E+00 -0.45593999997E+02  0.45594000000E+02  0.51100000000E-03 0. -1.
    9900012    2    1    2    0    0  0.28028182925E+02 -0.19659793073E+02  0.26674647971E+02  0.47787270212E+02  0.19999996203E+02 0.  0.
         12    1    1    2    0    0 -0.28028182925E+02  0.19659793073E+02 -0.26674647971E+02  0.43400729788E+02  0.00000000000E+00 0. -1.
         11    1    3    3    0    0 -0.13638039953E+01 -0.22347342824E+01  0.22190720051E+01  0.34319498067E+01  0.51100000000E-03 0. -1.
        -11    1    3    3    0    0  0.26914897967E+01 -0.83690771531E+01  0.64186368834E+01  0.10885057162E+02  0.51100000000E-03 0.  1.
         12    1    3    3    0    0  0.26700497124E+02 -0.90559816377E+01  0.18036939083E+02  0.33470263243E+02  0.00000000000E+00 0. -1.
</event>
<event>
 7    1  0.2486105E-010  0.4778729E+02  0.7816164E-02  0.1312668E+00
        -11   -1    0    0    0    0  0.00000000000E+00  0.00000000000E+00  0.45593999997E+02  0.45594000000E+02  0.51100000000E-03 0.  1.
         11   -1    0    0    0    0 -0.00000000000E+00 -0.00000000000E+00 -0.45593999997E+02  0.45594000000E+02  0.51100000000E-03 0. -1.
    9900012    2    1    2    0    0 -0.31779613008E+01  0.16299959739E+02  0.40097794014E+02  0.47787294818E+02  0.20000108392E+02 0.  0.
         12    1    1    2    0    0  0.31779613008E+01 -0.16299959739E+02 -0.40097794014E+02  0.43400705182E+02  0.00000000000E+00 0. -1.
         11    1    3    3    0    0 -0.30313492799E+01 -0.46336347430E+00  0.61862786472E+01  0.69046236630E+01  0.51100000000E-03 0. -1.
        -11    1    3    3    0    0  0.14301448970E+01  0.58001182745E+01  0.87336819868E+00  0.60373387098E+01  0.51100000000E-03 0.  1.
        -12    1    3    3    0    0 -0.15767569179E+01  0.10963204939E+02  0.33038147168E+02  0.34845332445E+02  0.00000000000E+00 0.  1.
</event>
<event>
 7    1  0.2486105E-010  0.4778727E+02  0.7816164E-02  0.1312668E+00
        -11   -1    0    0    0    0  0.00000000000E+00  0.00000000000E+00  0.45593999997E+02  0.45594000000E+02  0.51100000000E-03 0.  1.
         11   -1    0    0    0    0 -0.00000000000E+00 -0.00000000000E+00 -0.45593999997E+02  0.45594000000E+02  0.51100000000E-03 0. -1.
    9900012    2    1    2    0    0 -0.31322240899E+02 -0.10576415237E+02  0.28119032027E+02  0.47787270786E+02  0.19999998821E+02 0.  0.
         12    1    1    2    0    0  0.31322240899E+02  0.10576415237E+02 -0.28119032027E+02  0.43400729214E+02  0.00000000000E+00 0. -1.
         11    1    3    3    0    0 -0.20941923277E+01 -0.17905526882E+01 -0.47929012589E+00  0.27966837005E+01  0.51100000000E-03 0. -1.
        -11    1    3    3    0    0 -0.10523909474E+02 -0.94513312560E+01  0.52988131842E+01  0.15104891743E+02  0.51100000000E-03 0.  1.
         12    1    3    3    0    0 -0.18704139097E+02  0.66546870713E+00  0.23299508968E+02  0.29885695343E+02  0.00000000000E+00 0. -1.
</event>
<event>
 7    1  0.2486105E-010  0.4778727E+02  0.7816164E-02  0.1312668E+00
        -11   -1    0    0    0    0  0.00000000000E+00  0.00000000000E+00  0.45593999997E+02  0.45594000000E+02  0.51100000000E-03 0. -1.
         11   -1    0    0    0    0 -0.00000000000E+00 -0.00000000000E+00 -0.45593999997E+02  0.45594000000E+02  0.51100000000E-03 0.  1.
    9900012    2    1    2    0    0  0.14842376666E+02  0.31277016096E+02 -0.26173945878E+02  0.47787270469E+02  0.19999997379E+02 0.  0.
         12    1    1    2    0    0 -0.14842376666E+02 -0.31277016096E+02  0.26173945878E+02  0.43400729531E+02  0.00000000000E+00 0. -1.
         11    1    3    3    0    0  0.15228923072E+01  0.35958519791E+01 -0.81823452281E+01  0.90664285211E+01  0.51100000000E-03 0. -1.
        -11    1    3    3    0    0  0.81325199567E+01  0.12742237594E+02 -0.17183896808E+02  0.22886432870E+02  0.51100000000E-03 0.  1.
         12    1    3    3    0    0  0.51869644018E+01  0.14938926523E+02 -0.80770384164E+00  0.15834409078E+02  0.00000000000E+00 0. -1.
</event>
<event>
 7    1  0.2625205E-010  0.4778729E+02  0.7816164E-02  0.1312668E+00
        -11   -1    0    0    0    0  0.00000000000E+00  0.00000000000E+00  0.45593999997E+02  0.45594000000E+02  0.51100000000E-03 0. -1.
         11   -1    0    0    0    0 -0.00000000000E+00 -0.00000000000E+00 -0.45593999997E+02  0.45594000000E+02  0.51100000000E-03 0.  1.
    9900012    2    1    2    0    0  0.29921939254E+02 -0.88409550487E+00 -0.31424791465E+02  0.47787290418E+02  0.20000088331E+02 0.  0.
         12    1    1    2    0    0 -0.29921939254E+02  0.88409550487E+00  0.31424791465E+02  0.43400709582E+02  0.00000000000E+00 0. -1.
         11    1    3    3    0    0  0.15609089577E+01  0.25968645711E+01 -0.87879668307E+01  0.92956174433E+01  0.51100000000E-03 0. -1.
        -11    1    3    3    0    0  0.17841537174E+02 -0.48433944233E+00 -0.20787505478E+02  0.27398456483E+02  0.51100000000E-03 0.  1.
         12    1    3    3    0    0  0.10519493123E+02 -0.29966206336E+01 -0.18493191569E+01  0.11093216491E+02  0.00000000000E+00 0. -1.
</event>
<event>
 7    1  0.2739213E-010  0.4778727E+02  0.7816164E-02  0.1312668E+00
        -11   -1    0    0    0    0  0.00000000000E+00  0.00000000000E+00  0.45593999997E+02  0.45594000000E+02  0.51100000000E-03 0.  1.
         11   -1    0    0    0    0 -0.00000000000E+00 -0.00000000000E+00 -0.45593999997E+02  0.45594000000E+02  0.51100000000E-03 0. -1.
    9900012    2    1    2    0    0  0.24965373451E+02 -0.27467945082E+02 -0.22491452305E+02  0.47787270681E+02  0.19999998345E+02 0.  0.
         12    1    1    2    0    0 -0.24965373451E+02  0.27467945082E+02  0.22491452305E+02  0.43400729319E+02  0.00000000000E+00 0. -1.
         11    1    3    3    0    0  0.44788180001E+00  0.17504223623E+01 -0.29384880618E+01  0.34495345923E+01  0.51100000000E-03 0. -1.
        -11    1    3    3    0    0  0.12606536240E+02 -0.71879184297E+01 -0.48722162989E+01  0.15307822159E+02  0.51100000000E-03 0.  1.
        -12    1    3    3    0    0  0.11910955411E+02 -0.22030449014E+02 -0.14680747945E+02  0.29029913930E+02  0.00000000000E+00 0.  1.
</event>
<event>
 7    1  0.2486105E-010  0.4778727E+02  0.7816164E-02  0.1312668E+00
        -11   -1    0    0    0    0  0.00000000000E+00  0.00000000000E+00  0.45593999997E+02  0.45594000000E+02  0.51100000000E-03 0. -1.
         11   -1    0    0    0    0 -0.00000000000E+00 -0.00000000000E+00 -0.45593999997E+02  0.45594000000E+02  0.51100000000E-03 0.  1.
    9900012    2    1    2    0    0 -0.17861034251E+02 -0.29600720394E+02 -0.26237453581E+02  0.47787272325E+02  0.20000005837E+02 0.  0.
         12    1    1    2    0    0  0.17861034251E+02  0.29600720394E+02  0.26237453581E+02  0.43400727675E+02  0.00000000000E+00 0. -1.
         11    1    3    3    0    0 -0.76015503653E+00 -0.50046697012E+01 -0.91282391123E+01  0.10437878331E+02  0.51100000000E-03 0. -1.
        -11    1    3    3    0    0  0.69913754931E+00  0.24884541403E+00 -0.40426375389E+01  0.41101868430E+01  0.51100000000E-03 0.  1.
        -12    1    3    3    0    0 -0.17800016764E+02 -0.24844896107E+02 -0.13066576929E+02  0.33239207151E+02  0.00000000000E+00 0.  1.
</event>
<event>
 7    1  0.2486105E-010  0.4778729E+02  0.7816164E-02  0.1312668E+00
        -11   -1    0    0    0    0  0.00000000000E+00  0.00000000000E+00  0.45593999997E+02  0.45594000000E+02  0.51100000000E-03 0.  1.
         11   -1    0    0    0    0 -0.00000000000E+00 -0.00000000000E+00 -0.45593999997E+02  0.45594000000E+02  0.51100000000E-03 0. -1.
    9900012    2    1    2    0    0  0.74486763327E+01  0.72612581116E+00  0.42750575058E+02  0.47787289112E+02  0.20000082377E+02 0.  0.
         12    1    1    2    0    0 -0.74486763327E+01 -0.72612581116E+00 -0.42750575058E+02  0.43400710888E+02  0.00000000000E+00 0. -1.
         11    1    3    3    0    0  0.11071429438E+01 -0.23170589257E+01  0.27032310364E+01  0.37285366915E+01  0.51100000000E-03 0. -1.
        -11    1    3    3    0    0  0.62542761957E+01  0.97535512291E+01  0.27178030208E+02  0.29544763641E+02  0.51100000000E-03 0.  1.
        -12    1    3    3    0    0  0.87257193261E-01 -0.67103664922E+01  0.12869313813E+02  0.14513988780E+02  0.00000000000E+00 0.  1.
</event>
<event>
 7    1  0.2486105E-010  0.4778728E+02  0.7816164E-02  0.1312668E+00
        -11   -1    0    0    0    0  0.00000000000E+00  0.00000000000E+00  0.45593999997E+02  0.45594000000E+02  0.51100000000E-03 0. -1.
         11   -1    0    0    0    0 -0.00000000000E+00 -0.00000000000E+00 -0.45593999997E+02  0.45594000000E+02  0.51100000000E-03 0.  1.
    9900012    2    1    2    0    0  0.25695486195E+02  0.24768777365E+01 -0.34888823155E+02  0.47787275176E+02  0.20000018837E+02 0.  0.
         12    1    1    2    0    0 -0.25695486195E+02 -0.24768777365E+01  0.34888823155E+02  0.43400724824E+02  0.00000000000E+00 0. -1.
         11    1    3    3    0    0  0.16319104876E+01 -0.35735255152E+00 -0.15420764896E+01  0.22735067289E+01  0.51100000000E-03 0. -1.
        -11    1    3    3    0    0  0.14680224602E+02  0.93367744693E+01 -0.11473382614E+02  0.20840414120E+02  0.51100000000E-03 0.  1.
        -12    1    3    3    0    0  0.93833511061E+01 -0.65025441813E+01 -0.21873364051E+02  0.24673354327E+02  0.00000000000E+00 0.  1.
</event>
<event>
 7    1  0.2486105E-010  0.4778726E+02  0.7816164E-02  0.1312668E+00
        -11   -1    0    0    0    0  0.00000000000E+00  0.00000000000E+00  0.45593999997E+02  0.45594000000E+02  0.51100000000E-03 0. -1.
         11   -1    0    0    0    0 -0.00000000000E+00 -0.00000000000E+00 -0.45593999997E+02  0.45594000000E+02  0.51100000000E-03 0.  1.
    9900012    2    1    2    0    0  0.28902632101E+02  0.18391365694E+02 -0.26646188404E+02  0.47787264627E+02  0.19999970740E+02 0.  0.
         12    1    1    2    0    0 -0.28902632101E+02 -0.18391365694E+02  0.26646188404E+02  0.43400735373E+02  0.00000000000E+00 0. -1.
         11    1    3    3    0    0  0.42052413991E+00  0.16940096145E+01  0.18038600143E+01  0.25100638116E+01  0.51100000000E-03 0. -1.
        -11    1    3    3    0    0  0.11270954048E+02  0.45144905558E+01 -0.35535389931E+01  0.12650797199E+02  0.51100000000E-03 0.  1.
        -12    1    3    3    0    0  0.17211153913E+02  0.12182865523E+02 -0.24896509425E+02  0.32626403616E+02  0.00000000000E+00 0.  1.
</event>
<event>
 7    1  0.2486105E-010  0.4778727E+02  0.7816164E-02  0.1312668E+00
        -11   -1    0    0    0    0  0.00000000000E+00  0.00000000000E+00  0.45593999997E+02  0.45594000000E+02  0.51100000000E-03 0.  1.
         11   -1    0    0    0    0 -0.00000000000E+00 -0.00000000000E+00 -0.45593999997E+02  0.45594000000E+02  0.51100000000E-03 0. -1.
    9900012    2    1    2    0    0 -0.23038515030E+02  0.29045818932E+02  0.22565250372E+02  0.47787270783E+02  0.19999998810E+02 0.  0.
         12    1    1    2    0    0  0.23038515030E+02 -0.29045818932E+02 -0.22565250372E+02  0.43400729217E+02  0.00000000000E+00 0. -1.
         11    1    3    3    0    0 -0.27419854850E+01 -0.23229819835E+01  0.10686010331E+01  0.37492183351E+01  0.51100000000E-03 0. -1.
        -11    1    3    3    0    0 -0.84065608006E+01  0.76594603882E+01  0.99466206171E+01  0.15108701463E+02  0.51100000000E-03 0.  1.
        -12    1    3    3    0    0 -0.11889968744E+02  0.23709340527E+02  0.11550028722E+02  0.28929350985E+02  0.00000000000E+00 0.  1.
</event>
<event>
 7    1  0.2486105E-010  0.4778727E+02  0.7816164E-02  0.1312668E+00
        -11   -1    0    0    0    0  0.00000000000E+00  0.00000000000E+00  0.45593999997E+02  0.45594000000E+02  0.51100000000E-03 0. -1.
         11   -1    0    0    0    0 -0.00000000000E+00 -0.00000000000E+00 -0.45593999997E+02  0.45594000000E+02  0.51100000000E-03 0.  1.
    9900012    2    1    2    0    0 -0.33043086702E+01  0.40935233613E+02  0.14036080128E+02  0.47787270144E+02  0.19999995893E+02 0.  0.
         12    1    1    2    0    0  0.33043086702E+01 -0.40935233613E+02 -0.14036080128E+02  0.43400729856E+02  0.00000000000E+00 0. -1.
         11    1    3    3    0    0  0.21399283697E+01  0.10071326566E+02  0.79922617837E+00  0.10327132950E+02  0.51100000000E-03 0. -1.
        -11    1    3    3    0    0  0.46761578584E+01  0.45636048258E+01  0.55427890880E+00  0.65574512344E+01  0.51100000000E-03 0.  1.
        -12    1    3    3    0    0 -0.10120394898E+02  0.26300302221E+02  0.12682575041E+02  0.30902685959E+02  0.00000000000E+00 0.  1.
</event>
<event>
 7    1  0.2486105E-010  0.4778727E+02  0.7816164E-02  0.1312668E+00
        -11   -1    0    0    0    0  0.00000000000E+00  0.00000000000E+00  0.45593999997E+02  0.45594000000E+02  0.51100000000E-03 0.  1.
         11   -1    0    0    0    0 -0.00000000000E+00 -0.00000000000E+00 -0.45593999997E+02  0.45594000000E+02  0.51100000000E-03 0. -1.
    9900012    2    1    2    0    0 -0.42565174535E+02  0.83570944495E+01 -0.14100230221E+01  0.47787271023E+02  0.19999999902E+02 0.  0.
         12    1    1    2    0    0  0.42565174535E+02 -0.83570944495E+01  0.14100230221E+01  0.43400728977E+02  0.00000000000E+00 0. -1.
         11    1    3    3    0    0 -0.72577244510E+01  0.83800848286E+01 -0.93233425306E+00  0.11125180150E+02  0.51100000000E-03 0. -1.
        -11    1    3    3    0    0 -0.10081182383E+02  0.15419363292E+01  0.40716333000E+01  0.10981165870E+02  0.51100000000E-03 0.  1.
        -12    1    3    3    0    0 -0.25226267701E+02 -0.15649267083E+01 -0.45493220690E+01  0.25680925003E+02  0.00000000000E+00 0.  1.
</event>
<event>
 7    1  0.2486105E-010  0.4778727E+02  0.7816164E-02  0.1312668E+00
        -11   -1    0    0    0    0  0.00000000000E+00  0.00000000000E+00  0.45593999997E+02  0.45594000000E+02  0.51100000000E-03 0.  1.
         11   -1    0    0    0    0 -0.00000000000E+00 -0.00000000000E+00 -0.45593999997E+02  0.45594000000E+02  0.51100000000E-03 0. -1.
    9900012    2    1    2    0    0  0.18792594908E+02 -0.38981482328E+02  0.33023871479E+01  0.47787270182E+02  0.19999996066E+02 0.  0.
         12    1    1    2    0    0 -0.18792594908E+02  0.38981482328E+02 -0.33023871479E+01  0.43400729818E+02  0.00000000000E+00 0. -1.
         11    1    3    3    0    0 -0.25479229851E+01 -0.61378093458E+01  0.29952984736E+00  0.66523930652E+01  0.51100000000E-03 0. -1.
        -11    1    3    3    0    0  0.96705763473E+01 -0.25407990941E+02  0.21546299085E+01  0.27271385752E+02  0.51100000000E-03 0.  1.
        -12    1    3    3    0    0  0.11669941545E+02 -0.74356820420E+01  0.84822739199E+00  0.13863491364E+02  0.00000000000E+00 0.  1.
</event>
<event>
 7    1  0.2486105E-010  0.4778727E+02  0.7816164E-02  0.1312668E+00
        -11   -1    0    0    0    0  0.00000000000E+00  0.00000000000E+00  0.45593999997E+02  0.45594000000E+02  0.51100000000E-03 0. -1.
         11   -1    0    0    0    0 -0.00000000000E+00 -0.00000000000E+00 -0.45593999997E+02  0.45594000000E+02  0.51100000000E-03 0.  1.
    9900012    2    1    2    0    0 -0.24589500779E+02 -0.19315360396E+02 -0.30098121673E+02  0.47787267010E+02  0.19999981605E+02 0.  0.
         12    1    1    2    0    0  0.24589500779E+02  0.19315360396E+02  0.30098121673E+02  0.43400732990E+02  0.00000000000E+00 0. -1.
         11    1    3    3    0    0  0.28150231477E+01 -0.36284225829E+01 -0.18586995539E+01  0.49542476780E+01  0.51100000000E-03 0. -1.
        -11    1    3    3    0    0 -0.15167507700E+02 -0.50810639728E+01 -0.13354234238E+02  0.20837611986E+02  0.51100000000E-03 0.  1.
        -12    1    3    3    0    0 -0.12237016227E+02 -0.10605873841E+02 -0.14885187881E+02  0.21995407346E+02  0.00000000000E+00 0.  1.
</event>
<event>
 7    1  0.2486105E-010  0.4778725E+02  0.7816164E-02  0.1312668E+00
        -11   -1    0    0    0    0  0.00000000000E+00  0.00000000000E+00  0.45593999997E+02  0.45594000000E+02  0.51100000000E-03 0.  1.
         11   -1    0    0    0    0 -0.00000000000E+00 -0.00000000000E+00 -0.45593999997E+02  0.45594000000E+02  0.51100000000E-03 0. -1.
    9900012    2    1    2    0    0  0.25457733762E+02 -0.29453465594E+02  0.19183903278E+02  0.47787251288E+02  0.19999909923E+02 0.  0.
         12    1    1    2    0    0 -0.25457733762E+02  0.29453465594E+02 -0.19183903278E+02  0.43400748712E+02  0.00000000000E+00 0. -1.
         11    1    3    3    0    0 -0.89359615040E+00 -0.21207926644E+00 -0.86478567669E+00  0.12614857205E+01  0.51100000000E-03 0. -1.
        -11    1    3    3    0    0  0.60589061988E+01 -0.99162779636E+00  0.71603605987E+01  0.94320959589E+01  0.51100000000E-03 0.  1.
        -12    1    3    3    0    0  0.20292423714E+02 -0.28249758531E+02  0.12888328356E+02  0.37093669609E+02  0.00000000000E+00 0.  1.
</event>
<event>
 7    1  0.2486105E-010  0.4778727E+02  0.7816164E-02  0.1312668E+00
        -11   -1    0    0    0    0  0.00000000000E+00  0.00000000000E+00  0.45593999997E+02  0.45594000000E+02  0.51100000000E-03 0.  1.
         11   -1    0    0    0    0 -0.00000000000E+00 -0.00000000000E+00 -0.45593999997E+02  0.45594000000E+02  0.51100000000E-03 0. -1.
    9900012    2    1    2    0    0  0.36022816339E+02 -0.63183856155E+01  0.23367876531E+02  0.47787274806E+02  0.20000017152E+02 0.  0.
         12    1    1    2    0    0 -0.36022816339E+02  0.63183856155E+01 -0.23367876531E+02  0.43400725194E+02  0.00000000000E+00 0. -1.
         11    1    3    3    0    0  0.12172254346E+02 -0.16204590922E+01  0.48528018864E+00  0.12289229457E+02  0.51100000000E-03 0. -1.
        -11    1    3    3    0    0  0.52775187663E+01 -0.56254540032E+01  0.30057511711E+01  0.82784344796E+01  0.51100000000E-03 0.  1.
        -12    1    3    3    0    0  0.18573043227E+02  0.92752747987E+00  0.19876845171E+02  0.27219610869E+02  0.00000000000E+00 0.  1.
</event>
<event>
 7    1  0.2486105E-010  0.4778727E+02  0.7816164E-02  0.1312668E+00
        -11   -1    0    0    0    0  0.00000000000E+00  0.00000000000E+00  0.45593999997E+02  0.45594000000E+02  0.51100000000E-03 0.  1.
         11   -1    0    0    0    0 -0.00000000000E+00 -0.00000000000E+00 -0.45593999997E+02  0.45594000000E+02  0.51100000000E-03 0. -1.
    9900012    2    1    2    0    0  0.14559644209E+02  0.17436796991E+02  0.36981055215E+02  0.47787267592E+02  0.19999984258E+02 0.  0.
         12    1    1    2    0    0 -0.14559644209E+02 -0.17436796991E+02 -0.36981055215E+02  0.43400732408E+02  0.00000000000E+00 0. -1.
         11    1    3    3    0    0 -0.25680641127E+01  0.27442882045E+01  0.11506172846E+01  0.39306477117E+01  0.51100000000E-03 0. -1.
        -11    1    3    3    0    0  0.93665267756E+00  0.71448778754E+01  0.13048991112E+02  0.14906467301E+02  0.51100000000E-03 0.  1.
        -12    1    3    3    0    0  0.16191055644E+02  0.75476309109E+01  0.22781446818E+02  0.28950152579E+02  0.00000000000E+00 0.  1.
</event>
<event>
 7    1  0.2486105E-010  0.4778727E+02  0.7816164E-02  0.1312668E+00
        -11   -1    0    0    0    0  0.00000000000E+00  0.00000000000E+00  0.45593999997E+02  0.45594000000E+02  0.51100000000E-03 0.  1.
         11   -1    0    0    0    0 -0.00000000000E+00 -0.00000000000E+00 -0.45593999997E+02  0.45594000000E+02  0.51100000000E-03 0. -1.
    9900012    2    1    2    0    0 -0.28666583477E+02  0.26680647732E+01  0.32476631300E+02  0.47787272374E+02  0.20000006062E+02 0.  0.
         12    1    1    2    0    0  0.28666583477E+02 -0.26680647732E+01 -0.32476631300E+02  0.43400727626E+02  0.00000000000E+00 0. -1.
         11    1    3    3    0    0 -0.48141669617E-01  0.20126694062E+01  0.29526563011E+01  0.35737004984E+01  0.51100000000E-03 0. -1.
        -11    1    3    3    0    0 -0.87150805229E+01 -0.73442791776E+01  0.11571338602E+02  0.16241519094E+02  0.51100000000E-03 0.  1.
        -12    1    3    3    0    0 -0.19903361285E+02  0.79996745446E+01  0.17952636396E+02  0.27972052782E+02  0.00000000000E+00 0.  1.
</event>
<event>
 7    1  0.2486105E-010  0.4778727E+02  0.7816164E-02  0.1312668E+00
        -11   -1    0    0    0    0  0.00000000000E+00  0.00000000000E+00  0.45593999997E+02  0.45594000000E+02  0.51100000000E-03 0.  1.
         11   -1    0    0    0    0 -0.00000000000E+00 -0.00000000000E+00 -0.45593999997E+02  0.45594000000E+02  0.51100000000E-03 0. -1.
    9900012    2    1    2    0    0  0.20484022381E+01 -0.15904510987E+02  0.40329561719E+02  0.47787274546E+02  0.20000015965E+02 0.  0.
         12    1    1    2    0    0 -0.20484022381E+01  0.15904510987E+02 -0.40329561719E+02  0.43400725454E+02  0.00000000000E+00 0. -1.
         11    1    3    3    0    0 -0.84650313674E+00 -0.23675869633E+01  0.11061287732E+01  0.27469176750E+01  0.51100000000E-03 0. -1.
        -11    1    3    3    0    0 -0.42275745383E+00 -0.13631085254E+01  0.28343987508E+02  0.28379894588E+02  0.51100000000E-03 0.  1.
         12    1    3    3    0    0  0.33176628286E+01 -0.12173815498E+02  0.10879445438E+02  0.16660462283E+02  0.00000000000E+00 0. -1.
</event>
<event>
 7    1  0.2486105E-010  0.4778727E+02  0.7816164E-02  0.1312668E+00
        -11   -1    0    0    0    0  0.00000000000E+00  0.00000000000E+00  0.45593999997E+02  0.45594000000E+02  0.51100000000E-03 0.  1.
         11   -1    0    0    0    0 -0.00000000000E+00 -0.00000000000E+00 -0.45593999997E+02  0.45594000000E+02  0.51100000000E-03 0. -1.
    9900012    2    1    2    0    0  0.84655546963E+01  0.36774343598E+01  0.42407947056E+02  0.47787272894E+02  0.20000008433E+02 0.  0.
         12    1    1    2    0    0 -0.84655546963E+01 -0.36774343598E+01 -0.42407947056E+02  0.43400727106E+02  0.00000000000E+00 0. -1.
         11    1    3    3    0    0  0.41170962974E+01 -0.53344790981E+01  0.10322145303E+02  0.12326955548E+02  0.51100000000E-03 0. -1.
        -11    1    3    3    0    0 -0.22746574243E+01  0.14007027540E+01  0.11277174323E+01  0.28996174698E+01  0.51100000000E-03 0.  1.
         12    1    3    3    0    0  0.66231158232E+01  0.76112107039E+01  0.30958084321E+02  0.32560699876E+02  0.00000000000E+00 0. -1.
</event>
<event>
 7    1  0.2486105E-010  0.4778727E+02  0.7816164E-02  0.1312668E+00
        -11   -1    0    0    0    0  0.00000000000E+00  0.00000000000E+00  0.45593999997E+02  0.45594000000E+02  0.51100000000E-03 0.  1.
         11   -1    0    0    0    0 -0.00000000000E+00 -0.00000000000E+00 -0.45593999997E+02  0.45594000000E+02  0.51100000000E-03 0. -1.
    9900012    2    1    2    0    0 -0.12137578411E+02 -0.23733354277E+02  0.34249528079E+02  0.47787273180E+02  0.20000009735E+02 0.  0.
         12    1    1    2    0    0  0.12137578411E+02  0.23733354277E+02 -0.34249528079E+02  0.43400726820E+02  0.00000000000E+00 0. -1.
         11    1    3    3    0    0  0.27117290154E+00 -0.47169414520E+01  0.96795799442E+01  0.10771134553E+02  0.51100000000E-03 0. -1.
        -11    1    3    3    0    0 -0.34427008936E+01 -0.69460449795E+00  0.13208505598E+02  0.13667453503E+02  0.51100000000E-03 0.  1.
         12    1    3    3    0    0 -0.89660504191E+01 -0.18321808327E+02  0.11361442536E+02  0.23348685124E+02  0.00000000000E+00 0. -1.
</event>
<event>
 7    1  0.2486105E-010  0.4778727E+02  0.7816164E-02  0.1312668E+00
        -11   -1    0    0    0    0  0.00000000000E+00  0.00000000000E+00  0.45593999997E+02  0.45594000000E+02  0.51100000000E-03 0.  1.
         11   -1    0    0    0    0 -0.00000000000E+00 -0.00000000000E+00 -0.45593999997E+02  0.45594000000E+02  0.51100000000E-03 0. -1.
    9900012    2    1    2    0    0  0.41476280163E+02  0.10707821046E+02  0.69773768160E+01  0.47787273797E+02  0.20000012551E+02 0.  0.
         12    1    1    2    0    0 -0.41476280163E+02 -0.10707821046E+02 -0.69773768160E+01  0.43400726203E+02  0.00000000000E+00 0. -1.
         11    1    3    3    0    0  0.36292026809E+00 -0.12304920302E+01 -0.16264432214E+01  0.20715065944E+01  0.51100000000E-03 0. -1.
        -11    1    3    3    0    0  0.52582768854E+01  0.67617091269E+01  0.28964035574E+01  0.90420871456E+01  0.51100000000E-03 0.  1.
        -12    1    3    3    0    0  0.35855083009E+02  0.51766039492E+01  0.57074164800E+01  0.36673680057E+02  0.00000000000E+00 0.  1.
</event>
<event>
 7    1  0.2486105E-010  0.4778728E+02  0.7816164E-02  0.1312668E+00
        -11   -1    0    0    0    0  0.00000000000E+00  0.00000000000E+00  0.45593999997E+02  0.45594000000E+02  0.51100000000E-03 0.  1.
         11   -1    0    0    0    0 -0.00000000000E+00 -0.00000000000E+00 -0.45593999997E+02  0.45594000000E+02  0.51100000000E-03 0. -1.
    9900012    2    1    2    0    0  0.22064990590E+02 -0.19294299065E+02  0.32007640300E+02  0.47787276230E+02  0.20000023644E+02 0.  0.
         12    1    1    2    0    0 -0.22064990590E+02  0.19294299065E+02 -0.32007640300E+02  0.43400723770E+02  0.00000000000E+00 0. -1.
         11    1    3    3    0    0  0.45125463586E+01 -0.19157397500E+00 -0.15353699729E+01  0.47704440507E+01  0.51100000000E-03 0. -1.
        -11    1    3    3    0    0  0.25306259877E+00 -0.33330256910E+01  0.27006082279E+01  0.42972533085E+01  0.51100000000E-03 0.  1.
        -12    1    3    3    0    0  0.17299381633E+02 -0.15769699399E+02  0.30842402046E+02  0.38719578871E+02  0.00000000000E+00 0.  1.
</event>
<event>
 7    1  0.2486105E-010  0.4778727E+02  0.7816164E-02  0.1312668E+00
        -11   -1    0    0    0    0  0.00000000000E+00  0.00000000000E+00  0.45593999997E+02  0.45594000000E+02  0.51100000000E-03 0. -1.
         11   -1    0    0    0    0 -0.00000000000E+00 -0.00000000000E+00 -0.45593999997E+02  0.45594000000E+02  0.51100000000E-03 0.  1.
    9900012    2    1    2    0    0 -0.17362400341E+02 -0.62841811203E+01 -0.39276962757E+02  0.47787266350E+02  0.19999978597E+02 0.  0.
         12    1    1    2    0    0  0.17362400341E+02  0.62841811203E+01  0.39276962757E+02  0.43400733650E+02  0.00000000000E+00 0. -1.
         11    1    3    3    0    0 -0.92713255974E+01 -0.43268968264E+01 -0.73941589865E+01  0.12623513848E+02  0.51100000000E-03 0. -1.
        -11    1    3    3    0    0 -0.41913103264E+01 -0.14183690163E+01 -0.17235354876E+01  0.47486237751E+01  0.51100000000E-03 0.  1.
         12    1    3    3    0    0 -0.38997644171E+01 -0.53891527754E+00 -0.30159268283E+02  0.30415128728E+02  0.00000000000E+00 0. -1.
</event>
<event>
 7    1  0.2486105E-010  0.4778727E+02  0.7816164E-02  0.1312668E+00
        -11   -1    0    0    0    0  0.00000000000E+00  0.00000000000E+00  0.45593999997E+02  0.45594000000E+02  0.51100000000E-03 0.  1.
         11   -1    0    0    0    0 -0.00000000000E+00 -0.00000000000E+00 -0.45593999997E+02  0.45594000000E+02  0.51100000000E-03 0. -1.
    9900012    2    1    2    0    0 -0.70085603357E+01 -0.10247517612E+02  0.41587156973E+02  0.47787272353E+02  0.20000005968E+02 0.  0.
         12    1    1    2    0    0  0.70085603357E+01  0.10247517612E+02 -0.41587156973E+02  0.43400727647E+02  0.00000000000E+00 0. -1.
         11    1    3    3    0    0 -0.36086902387E+01 -0.60554856778E+01  0.48198205687E+01  0.85394509547E+01  0.51100000000E-03 0. -1.
        -11    1    3    3    0    0  0.38154084254E+01  0.36804302916E+00  0.47048176893E+01  0.60686165536E+01  0.51100000000E-03 0.  1.
        -12    1    3    3    0    0 -0.72152785225E+01 -0.45600749629E+01  0.32062518715E+02  0.33179204845E+02  0.00000000000E+00 0.  1.
</event>
<event>
 7    1  0.2486105E-010  0.4778727E+02  0.7816164E-02  0.1312668E+00
        -11   -1    0    0    0    0  0.00000000000E+00  0.00000000000E+00  0.45593999997E+02  0.45594000000E+02  0.51100000000E-03 0.  1.
         11   -1    0    0    0    0 -0.00000000000E+00 -0.00000000000E+00 -0.45593999997E+02  0.45594000000E+02  0.51100000000E-03 0. -1.
    9900012    2    1    2    0    0 -0.23514849755E+02  0.30466401925E+02  0.20061745356E+02  0.47787269223E+02  0.19999991696E+02 0.  0.
         12    1    1    2    0    0  0.23514849755E+02 -0.30466401925E+02 -0.20061745356E+02  0.43400730777E+02  0.00000000000E+00 0. -1.
         11    1    3    3    0    0 -0.68892743926E+01  0.12852382398E+02  0.20070631800E+01  0.14719855225E+02  0.51100000000E-03 0. -1.
        -11    1    3    3    0    0 -0.16269469615E+02  0.18715538363E+02  0.13232286902E+02  0.28108013710E+02  0.51100000000E-03 0.  1.
         12    1    3    3    0    0 -0.35610574650E+00 -0.11015188357E+01  0.48223952739E+01  0.49594002890E+01  0.00000000000E+00 0. -1.
</event>
<event>
 7    1  0.2486105E-010  0.4778727E+02  0.7816164E-02  0.1312668E+00
        -11   -1    0    0    0    0  0.00000000000E+00  0.00000000000E+00  0.45593999997E+02  0.45594000000E+02  0.51100000000E-03 0.  1.
         11   -1    0    0    0    0 -0.00000000000E+00 -0.00000000000E+00 -0.45593999997E+02  0.45594000000E+02  0.51100000000E-03 0. -1.
    9900012    2    1    2    0    0  0.17486044247E+02  0.31687111370E+02  0.23953880529E+02  0.47787272324E+02  0.20000005834E+02 0.  0.
         12    1    1    2    0    0 -0.17486044247E+02 -0.31687111370E+02 -0.23953880529E+02  0.43400727676E+02  0.00000000000E+00 0. -1.
         11    1    3    3    0    0  0.67336545937E+00  0.94603868821E+01  0.58201714646E+01  0.11127746274E+02  0.51100000000E-03 0. -1.
        -11    1    3    3    0    0  0.15124022528E+02  0.16001994140E+02  0.20206600744E+02  0.29884888954E+02  0.51100000000E-03 0.  1.
         12    1    3    3    0    0  0.16886562599E+01  0.62247303479E+01 -0.20728916795E+01  0.67746370961E+01  0.00000000000E+00 0. -1.
</event>
<event>
 7    1  0.2486105E-010  0.4778727E+02  0.7816164E-02  0.1312668E+00
        -11   -1    0    0    0    0  0.00000000000E+00  0.00000000000E+00  0.45593999997E+02  0.45594000000E+02  0.51100000000E-03 0.  1.
         11   -1    0    0    0    0 -0.00000000000E+00 -0.00000000000E+00 -0.45593999997E+02  0.45594000000E+02  0.51100000000E-03 0. -1.
    9900012    2    1    2    0    0  0.29308110203E+02 -0.91102573279E+01  0.30686495594E+02  0.47787272770E+02  0.20000007867E+02 0.  0.
         12    1    1    2    0    0 -0.29308110203E+02  0.91102573279E+01 -0.30686495594E+02  0.43400727230E+02  0.00000000000E+00 0. -1.
         11    1    3    3    0    0  0.11644855443E+02 -0.52121214877E+01  0.62105831715E+01  0.14189440168E+02  0.51100000000E-03 0. -1.
        -11    1    3    3    0    0  0.11840850304E+02 -0.87449765149E+01  0.19881669056E+02  0.24737847823E+02  0.51100000000E-03 0.  1.
        -12    1    3    3    0    0  0.58224044565E+01  0.48468406746E+01  0.45942433661E+01  0.88599847792E+01  0.00000000000E+00 0.  1.
</event>
<event>
 7    1  0.2486105E-010  0.4778727E+02  0.7816164E-02  0.1312668E+00
        -11   -1    0    0    0    0  0.00000000000E+00  0.00000000000E+00  0.45593999997E+02  0.45594000000E+02  0.51100000000E-03 0. -1.
         11   -1    0    0    0    0 -0.00000000000E+00 -0.00000000000E+00 -0.45593999997E+02  0.45594000000E+02  0.51100000000E-03 0.  1.
    9900012    2    1    2    0    0 -0.38871618466E+02 -0.59325878879E+01 -0.18369126491E+02  0.47787272711E+02  0.20000007597E+02 0.  0.
         12    1    1    2    0    0  0.38871618466E+02  0.59325878879E+01  0.18369126491E+02  0.43400727289E+02  0.00000000000E+00 0. -1.
         11    1    3    3    0    0 -0.10074105605E+02 -0.49918284461E+01  0.10605667043E+01  0.11292951650E+02  0.51100000000E-03 0. -1.
        -11    1    3    3    0    0 -0.82992473879E+01 -0.41896129524E+01 -0.22823402799E+01  0.95728491741E+01  0.51100000000E-03 0.  1.
        -12    1    3    3    0    0 -0.20498265473E+02  0.32488535106E+01 -0.17147352916E+02  0.26921471886E+02  0.00000000000E+00 0.  1.
</event>
<event>
 7    1  0.2486105E-010  0.4778727E+02  0.7816164E-02  0.1312668E+00
        -11   -1    0    0    0    0  0.00000000000E+00  0.00000000000E+00  0.45593999997E+02  0.45594000000E+02  0.51100000000E-03 0. -1.
         11   -1    0    0    0    0 -0.00000000000E+00 -0.00000000000E+00 -0.45593999997E+02  0.45594000000E+02  0.51100000000E-03 0.  1.
    9900012    2    1    2    0    0 -0.98010878403E+00 -0.19115430044E+02 -0.38952057851E+02  0.47787273164E+02  0.20000009666E+02 0.  0.
         12    1    1    2    0    0  0.98010878403E+00  0.19115430044E+02  0.38952057851E+02  0.43400726836E+02  0.00000000000E+00 0. -1.
         11    1    3    3    0    0  0.22000930641E+01  0.13449024422E+00  0.40356216693E+00  0.22408390840E+01  0.51100000000E-03 0. -1.
        -11    1    3    3    0    0 -0.81801509171E-01 -0.72744062659E+01 -0.44837630923E+01  0.85456310321E+01  0.51100000000E-03 0.  1.
        -12    1    3    3    0    0 -0.30984003390E+01 -0.11975514022E+02 -0.34871856926E+02  0.37000803048E+02  0.00000000000E+00 0.  1.
</event>
<event>
 7    1  0.2486105E-010  0.4778727E+02  0.7816164E-02  0.1312668E+00
        -11   -1    0    0    0    0  0.00000000000E+00  0.00000000000E+00  0.45593999997E+02  0.45594000000E+02  0.51100000000E-03 0.  1.
         11   -1    0    0    0    0 -0.00000000000E+00 -0.00000000000E+00 -0.45593999997E+02  0.45594000000E+02  0.51100000000E-03 0. -1.
    9900012    2    1    2    0    0 -0.39024995901E+02 -0.11901149054E+02  0.14799861156E+02  0.47787267931E+02  0.19999985805E+02 0.  0.
         12    1    1    2    0    0  0.39024995901E+02  0.11901149054E+02 -0.14799861156E+02  0.43400732069E+02  0.00000000000E+00 0. -1.
         11    1    3    3    0    0 -0.57708909707E+01 -0.50115552629E+01 -0.19431958532E+00  0.76456935010E+01  0.51100000000E-03 0. -1.
        -11    1    3    3    0    0 -0.17041972220E+02 -0.75224482440E+01  0.89984668053E+00  0.18650087642E+02  0.51100000000E-03 0.  1.
        -12    1    3    3    0    0 -0.16212132710E+02  0.63285445239E+00  0.14094334061E+02  0.21491486788E+02  0.00000000000E+00 0.  1.
</event>
<event>
 7    1  0.2486105E-010  0.4778727E+02  0.7816164E-02  0.1312668E+00
        -11   -1    0    0    0    0  0.00000000000E+00  0.00000000000E+00  0.45593999997E+02  0.45594000000E+02  0.51100000000E-03 0.  1.
         11   -1    0    0    0    0 -0.00000000000E+00 -0.00000000000E+00 -0.45593999997E+02  0.45594000000E+02  0.51100000000E-03 0. -1.
    9900012    2    1    2    0    0 -0.87371965238E+01  0.30926694810E+02  0.29168891438E+02  0.47787270943E+02  0.19999999537E+02 0.  0.
         12    1    1    2    0    0  0.87371965238E+01 -0.30926694810E+02 -0.29168891438E+02  0.43400729057E+02  0.00000000000E+00 0. -1.
         11    1    3    3    0    0 -0.86683508344E+01  0.89342389936E+01  0.12440768514E+02  0.17599251520E+02  0.51100000000E-03 0. -1.
        -11    1    3    3    0    0 -0.16804560194E+01  0.17844056725E+02  0.18157843319E+02  0.25513556536E+02  0.51100000000E-03 0.  1.
         12    1    3    3    0    0  0.16116103300E+01  0.41483990914E+01 -0.14297203950E+01  0.46744628873E+01  0.00000000000E+00 0. -1.
</event>
<event>
 7    1  0.2486105E-010  0.4778727E+02  0.7816164E-02  0.1312668E+00
        -11   -1    0    0    0    0  0.00000000000E+00  0.00000000000E+00  0.45593999997E+02  0.45594000000E+02  0.51100000000E-03 0.  1.
         11   -1    0    0    0    0 -0.00000000000E+00 -0.00000000000E+00 -0.45593999997E+02  0.45594000000E+02  0.51100000000E-03 0. -1.
    9900012    2    1    2    0    0 -0.94283566075E+01  0.13575986999E+02  0.40130060937E+02  0.47787272793E+02  0.20000007972E+02 0.  0.
         12    1    1    2    0    0  0.94283566075E+01 -0.13575986999E+02 -0.40130060937E+02  0.43400727207E+02  0.00000000000E+00 0. -1.
         11    1    3    3    0    0 -0.26219425569E+01  0.76051218567E+01  0.11812334187E+02  0.14291385533E+02  0.51100000000E-03 0. -1.
        -11    1    3    3    0    0 -0.78424913164E+01  0.55835145166E+01  0.64225520144E+01  0.11572790461E+02  0.51100000000E-03 0.  1.
         12    1    3    3    0    0  0.10360772658E+01  0.38735062538E+00  0.21895174735E+02  0.21923096800E+02  0.00000000000E+00 0. -1.
</event>
<event>
 7    1  0.2486105E-010  0.4778727E+02  0.7816164E-02  0.1312668E+00
        -11   -1    0    0    0    0  0.00000000000E+00  0.00000000000E+00  0.45593999997E+02  0.45594000000E+02  0.51100000000E-03 0.  1.
         11   -1    0    0    0    0 -0.00000000000E+00 -0.00000000000E+00 -0.45593999997E+02  0.45594000000E+02  0.51100000000E-03 0. -1.
    9900012    2    1    2    0    0 -0.24620898034E+02 -0.87274338149E+01  0.34659293636E+02  0.47787270094E+02  0.19999995667E+02 0.  0.
         12    1    1    2    0    0  0.24620898034E+02  0.87274338149E+01 -0.34659293636E+02  0.43400729906E+02  0.00000000000E+00 0. -1.
         11    1    3    3    0    0 -0.16403632628E+02  0.12165079531E+01  0.10424396517E+02  0.19473754081E+02  0.51100000000E-03 0. -1.
        -11    1    3    3    0    0 -0.51056726735E+01 -0.10435821532E+01  0.86441350679E+01  0.10093464643E+02  0.51100000000E-03 0.  1.
        -12    1    3    3    0    0 -0.31115927326E+01 -0.89003596148E+01  0.15590762052E+02  0.18220051371E+02  0.00000000000E+00 0.  1.
</event>
<event>
 7    1  0.2486105E-010  0.4778727E+02  0.7816164E-02  0.1312668E+00
        -11   -1    0    0    0    0  0.00000000000E+00  0.00000000000E+00  0.45593999997E+02  0.45594000000E+02  0.51100000000E-03 0. -1.
         11   -1    0    0    0    0 -0.00000000000E+00 -0.00000000000E+00 -0.45593999997E+02  0.45594000000E+02  0.51100000000E-03 0.  1.
    9900012    2    1    2    0    0 -0.13025093918E+01 -0.38461492131E+02 -0.20065897927E+02  0.47787272273E+02  0.20000005601E+02 0.  0.
         12    1    1    2    0    0  0.13025093918E+01  0.38461492131E+02  0.20065897927E+02  0.43400727727E+02  0.00000000000E+00 0. -1.
         11    1    3    3    0    0  0.40771506810E+01 -0.12400340547E+02 -0.14227563027E+02  0.19308421823E+02  0.51100000000E-03 0. -1.
        -11    1    3    3    0    0 -0.40291574458E+01 -0.58612553194E+01 -0.39758645566E+01  0.81483693384E+01  0.51100000000E-03 0.  1.
        -12    1    3    3    0    0 -0.13505026270E+01 -0.20199896265E+02 -0.18624703434E+01  0.20330481112E+02  0.00000000000E+00 0.  1.
</event>
<event>
 7    1  0.2486105E-010  0.4778726E+02  0.7816164E-02  0.1312668E+00
        -11   -1    0    0    0    0  0.00000000000E+00  0.00000000000E+00  0.45593999997E+02  0.45594000000E+02  0.51100000000E-03 0.  1.
         11   -1    0    0    0    0 -0.00000000000E+00 -0.00000000000E+00 -0.45593999997E+02  0.45594000000E+02  0.51100000000E-03 0. -1.
    9900012    2    1    2    0    0 -0.36670102055E+02 -0.17072786318E+02  0.15730482297E+02  0.47787257027E+02  0.19999936087E+02 0.  0.
         12    1    1    2    0    0  0.36670102055E+02  0.17072786318E+02 -0.15730482297E+02  0.43400742973E+02  0.00000000000E+00 0. -1.
         11    1    3    3    0    0 -0.12918850304E+01 -0.14623414753E+01  0.53298551293E+01  0.56758052717E+01  0.51100000000E-03 0. -1.
        -11    1    3    3    0    0 -0.17086956141E+01 -0.53142762160E+01  0.10205108684E+01  0.56747348039E+01  0.51100000000E-03 0.  1.
        -12    1    3    3    0    0 -0.33669521410E+02 -0.10296168627E+02  0.93801162989E+01  0.36436716951E+02  0.00000000000E+00 0.  1.
</event>
<event>
 7    1  0.2486105E-010  0.4778727E+02  0.7816164E-02  0.1312668E+00
        -11   -1    0    0    0    0  0.00000000000E+00  0.00000000000E+00  0.45593999997E+02  0.45594000000E+02  0.51100000000E-03 0. -1.
         11   -1    0    0    0    0 -0.00000000000E+00 -0.00000000000E+00 -0.45593999997E+02  0.45594000000E+02  0.51100000000E-03 0.  1.
    9900012    2    1    2    0    0  0.40224711343E+02  0.62478853113E+01 -0.15051901461E+02  0.47787271768E+02  0.20000003300E+02 0.  0.
         12    1    1    2    0    0 -0.40224711343E+02 -0.62478853113E+01  0.15051901461E+02  0.43400728232E+02  0.00000000000E+00 0. -1.
         11    1    3    3    0    0  0.43945444676E+01  0.63983727492E+01 -0.17282592058E+01  0.79522371103E+01  0.51100000000E-03 0. -1.
        -11    1    3    3    0    0  0.14649284467E+02  0.32959698826E+01 -0.10193221416E+02  0.18148463184E+02  0.51100000000E-03 0.  1.
         12    1    3    3    0    0  0.21180882408E+02 -0.34464573204E+01 -0.31304208390E+01  0.21686571474E+02  0.00000000000E+00 0. -1.
</event>
<event>
 7    1  0.2486105E-010  0.4778727E+02  0.7816164E-02  0.1312668E+00
        -11   -1    0    0    0    0  0.00000000000E+00  0.00000000000E+00  0.45593999997E+02  0.45594000000E+02  0.51100000000E-03 0. -1.
         11   -1    0    0    0    0 -0.00000000000E+00 -0.00000000000E+00 -0.45593999997E+02  0.45594000000E+02  0.51100000000E-03 0.  1.
    9900012    2    1    2    0    0 -0.18881181369E+02  0.30720563553E+02 -0.24153078151E+02  0.47787271676E+02  0.20000002878E+02 0.  0.
         12    1    1    2    0    0  0.18881181369E+02 -0.30720563553E+02  0.24153078151E+02  0.43400728324E+02  0.00000000000E+00 0. -1.
         11    1    3    3    0    0 -0.66913853345E+01  0.15203147401E+01 -0.53758419143E+01  0.87169760325E+01  0.51100000000E-03 0. -1.
        -11    1    3    3    0    0 -0.85305467742E+01  0.85808866446E+01 -0.12045811796E+02  0.17073471409E+02  0.51100000000E-03 0.  1.
         12    1    3    3    0    0 -0.36592492604E+01  0.20619362169E+02 -0.67314244406E+01  0.21996824234E+02  0.00000000000E+00 0. -1.
</event>
<event>
 7    1  0.2486105E-010  0.4778727E+02  0.7816164E-02  0.1312668E+00
        -11   -1    0    0    0    0  0.00000000000E+00  0.00000000000E+00  0.45593999997E+02  0.45594000000E+02  0.51100000000E-03 0.  1.
         11   -1    0    0    0    0 -0.00000000000E+00 -0.00000000000E+00 -0.45593999997E+02  0.45594000000E+02  0.51100000000E-03 0. -1.
    9900012    2    1    2    0    0  0.41637261888E+02  0.80962162932E+01 -0.91876587756E+01  0.47787269942E+02  0.19999994973E+02 0.  0.
         12    1    1    2    0    0 -0.41637261888E+02 -0.80962162932E+01  0.91876587756E+01  0.43400730058E+02  0.00000000000E+00 0. -1.
         11    1    3    3    0    0  0.93583194347E+01  0.63143663526E+01 -0.46556888209E+00  0.11298943301E+02  0.51100000000E-03 0.  1.
        -11    1    3    3    0    0  0.33023917140E+02 -0.26303784327E+00 -0.71144851452E+01  0.33782601903E+02  0.51100000000E-03 0. -1.
         12    1    3    3    0    0 -0.74497468637E+00  0.20448877839E+01 -0.16076047483E+01  0.27057247382E+01  0.00000000000E+00 0. -1.
</event>
<event>
 7    1  0.2486105E-010  0.4778730E+02  0.7816164E-02  0.1312668E+00
        -11   -1    0    0    0    0  0.00000000000E+00  0.00000000000E+00  0.45593999997E+02  0.45594000000E+02  0.51100000000E-03 0.  1.
         11   -1    0    0    0    0 -0.00000000000E+00 -0.00000000000E+00 -0.45593999997E+02  0.45594000000E+02  0.51100000000E-03 0. -1.
    9900012    2    1    2    0    0 -0.17918699832E+02 -0.19215293513E+02  0.34544373996E+02  0.47787296282E+02  0.20000115066E+02 0.  0.
         12    1    1    2    0    0  0.17918699832E+02  0.19215293513E+02 -0.34544373996E+02  0.43400703718E+02  0.00000000000E+00 0. -1.
         11    1    3    3    0    0 -0.33813287649E+01 -0.75835601861E+01  0.95069307307E+01  0.12622420588E+02  0.51100000000E-03 0. -1.
        -11    1    3    3    0    0 -0.10607967391E+02 -0.32000019031E+01  0.23161309504E+02  0.25675187294E+02  0.51100000000E-03 0.  1.
         12    1    3    3    0    0 -0.39294036758E+01 -0.84317314235E+01  0.18761337615E+01  0.94896884004E+01  0.00000000000E+00 0. -1.
</event>
<event>
 7    1  0.2486105E-010  0.4778727E+02  0.7816164E-02  0.1312668E+00
        -11   -1    0    0    0    0  0.00000000000E+00  0.00000000000E+00  0.45593999997E+02  0.45594000000E+02  0.51100000000E-03 0.  1.
         11   -1    0    0    0    0 -0.00000000000E+00 -0.00000000000E+00 -0.45593999997E+02  0.45594000000E+02  0.51100000000E-03 0. -1.
    9900012    2    1    2    0    0 -0.33069079364E+02  0.10087066750E+02  0.26235673278E+02  0.47787268693E+02  0.19999989279E+02 0.  0.
         12    1    1    2    0    0  0.33069079364E+02 -0.10087066750E+02 -0.26235673278E+02  0.43400731307E+02  0.00000000000E+00 0. -1.
         11    1    3    3    0    0 -0.86040249029E+01 -0.10992180215E+01  0.10817868143E+02  0.13865922119E+02  0.51100000000E-03 0. -1.
        -11    1    3    3    0    0 -0.23363243059E+02  0.93975212214E+01  0.17729554259E+02  0.30797591235E+02  0.51100000000E-03 0.  1.
         12    1    3    3    0    0 -0.11018114021E+01  0.17887635502E+01 -0.23117491245E+01  0.31237553391E+01  0.00000000000E+00 0. -1.
</event>
<event>
 7    1  0.2486105E-010  0.4778727E+02  0.7816164E-02  0.1312668E+00
        -11   -1    0    0    0    0  0.00000000000E+00  0.00000000000E+00  0.45593999997E+02  0.45594000000E+02  0.51100000000E-03 0.  1.
         11   -1    0    0    0    0 -0.00000000000E+00 -0.00000000000E+00 -0.45593999997E+02  0.45594000000E+02  0.51100000000E-03 0. -1.
    9900012    2    1    2    0    0 -0.10781085974E+02  0.31603655608E+02  0.27723643839E+02  0.47787270855E+02  0.19999999138E+02 0.  0.
         12    1    1    2    0    0  0.10781085974E+02 -0.31603655608E+02 -0.27723643839E+02  0.43400729145E+02  0.00000000000E+00 0. -1.
         11    1    3    3    0    0 -0.53200676176E+00  0.33326357560E+01 -0.18607273955E+01  0.38538031837E+01  0.51100000000E-03 0. -1.
        -11    1    3    3    0    0 -0.30850586882E+01  0.56255151112E+01  0.57593550972E+00  0.64417163356E+01  0.51100000000E-03 0.  1.
         12    1    3    3    0    0 -0.71640205240E+01  0.22645504741E+02  0.29008435725E+02  0.37491751336E+02  0.00000000000E+00 0. -1.
</event>
<event>
 7    1  0.2486105E-010  0.4778727E+02  0.7816164E-02  0.1312668E+00
        -11   -1    0    0    0    0  0.00000000000E+00  0.00000000000E+00  0.45593999997E+02  0.45594000000E+02  0.51100000000E-03 0. -1.
         11   -1    0    0    0    0 -0.00000000000E+00 -0.00000000000E+00 -0.45593999997E+02  0.45594000000E+02  0.51100000000E-03 0.  1.
    9900012    2    1    2    0    0 -0.30109237956E+02 -0.63538436549E+01 -0.30605325427E+02  0.47787268625E+02  0.19999988967E+02 0.  0.
         12    1    1    2    0    0  0.30109237956E+02  0.63538436549E+01  0.30605325427E+02  0.43400731375E+02  0.00000000000E+00 0. -1.
         11    1    3    3    0    0 -0.60804252599E+01 -0.17512265772E+01 -0.42789001286E+01  0.76385438689E+01  0.51100000000E-03 0. -1.
        -11    1    3    3    0    0 -0.83731535699E+01  0.47048848809E+01 -0.17378667300E+02  0.19856075136E+02  0.51100000000E-03 0.  1.
        -12    1    3    3    0    0 -0.15655659126E+02 -0.93075019586E+01 -0.89477579984E+01  0.20292649619E+02  0.00000000000E+00 0.  1.
</event>
<event>
 7    1  0.2486105E-010  0.4778726E+02  0.7816164E-02  0.1312668E+00
        -11   -1    0    0    0    0  0.00000000000E+00  0.00000000000E+00  0.45593999997E+02  0.45594000000E+02  0.51100000000E-03 0.  1.
         11   -1    0    0    0    0 -0.00000000000E+00 -0.00000000000E+00 -0.45593999997E+02  0.45594000000E+02  0.51100000000E-03 0. -1.
    9900012    2    1    2    0    0 -0.17214896426E+02  0.72636996831E+01  0.39172821768E+02  0.47787263171E+02  0.19999964102E+02 0.  0.
         12    1    1    2    0    0  0.17214896426E+02 -0.72636996831E+01 -0.39172821768E+02  0.43400736829E+02  0.00000000000E+00 0. -1.
         11    1    3    3    0    0 -0.12088529584E+02  0.17951988177E+01  0.26271688985E+02  0.28975108778E+02  0.51100000000E-03 0. -1.
        -11    1    3    3    0    0 -0.21127856527E+01  0.33306442562E+01  0.14320718692E+02  0.14853956998E+02  0.51100000000E-03 0.  1.
         12    1    3    3    0    0 -0.30135811894E+01  0.21378566093E+01 -0.14195859094E+01  0.39581973954E+01  0.00000000000E+00 0. -1.
</event>
<event>
 7    1  0.2486105E-010  0.4778727E+02  0.7816164E-02  0.1312668E+00
        -11   -1    0    0    0    0  0.00000000000E+00  0.00000000000E+00  0.45593999997E+02  0.45594000000E+02  0.51100000000E-03 0.  1.
         11   -1    0    0    0    0 -0.00000000000E+00 -0.00000000000E+00 -0.45593999997E+02  0.45594000000E+02  0.51100000000E-03 0. -1.
    9900012    2    1    2    0    0  0.19233693969E+02  0.11652971937E+02  0.37120028279E+02  0.47787271456E+02  0.20000001878E+02 0.  0.
         12    1    1    2    0    0 -0.19233693969E+02 -0.11652971937E+02 -0.37120028279E+02  0.43400728544E+02  0.00000000000E+00 0. -1.
         11    1    3    3    0    0 -0.68675357319E+00  0.15114832188E+01  0.10701143525E+02  0.10829159016E+02  0.51100000000E-03 0.  1.
        -11    1    3    3    0    0  0.11695914363E+02  0.59759759256E+01  0.57721843281E+01  0.14346595876E+02  0.51100000000E-03 0. -1.
        -12    1    3    3    0    0  0.82245331787E+01  0.41655127924E+01  0.20646700426E+02  0.22611516564E+02  0.00000000000E+00 0.  1.
</event>
<event>
 7    1  0.2486105E-010  0.4778727E+02  0.7816164E-02  0.1312668E+00
        -11   -1    0    0    0    0  0.00000000000E+00  0.00000000000E+00  0.45593999997E+02  0.45594000000E+02  0.51100000000E-03 0.  1.
         11   -1    0    0    0    0 -0.00000000000E+00 -0.00000000000E+00 -0.45593999997E+02  0.45594000000E+02  0.51100000000E-03 0. -1.
    9900012    2    1    2    0    0 -0.25117285580E+00 -0.12985557222E+02  0.41411779641E+02  0.47787271006E+02  0.19999999827E+02 0.  0.
         12    1    1    2    0    0  0.25117285580E+00  0.12985557222E+02 -0.41411779641E+02  0.43400728994E+02  0.00000000000E+00 0. -1.
         11    1    3    3    0    0  0.23843981405E+01 -0.78990639467E+01  0.13284373549E+02  0.15638259065E+02  0.51100000000E-03 0. -1.
        -11    1    3    3    0    0  0.11966513256E+01  0.25897241298E+00 -0.14219970899E+01  0.18764639859E+01  0.51100000000E-03 0.  1.
        -12    1    3    3    0    0 -0.38322223219E+01 -0.53454656881E+01  0.29549403182E+02  0.30272547956E+02  0.00000000000E+00 0.  1.
</event>
<event>
 7    1  0.2486105E-010  0.4778727E+02  0.7816164E-02  0.1312668E+00
        -11   -1    0    0    0    0  0.00000000000E+00  0.00000000000E+00  0.45593999997E+02  0.45594000000E+02  0.51100000000E-03 0.  1.
         11   -1    0    0    0    0 -0.00000000000E+00 -0.00000000000E+00 -0.45593999997E+02  0.45594000000E+02  0.51100000000E-03 0. -1.
    9900012    2    1    2    0    0  0.23995989807E+02  0.36029121910E+02 -0.31173592670E+01  0.47787273264E+02  0.20000010121E+02 0.  0.
         12    1    1    2    0    0 -0.23995989807E+02 -0.36029121910E+02  0.31173592670E+01  0.43400726736E+02  0.00000000000E+00 0. -1.
         11    1    3    3    0    0 -0.11973596431E+01  0.20114197258E+01  0.44670905204E+00  0.23830712676E+01  0.51100000000E-03 0. -1.
        -11    1    3    3    0    0  0.17020845673E+02  0.32820174928E+02 -0.35824350386E+01  0.37144406184E+02  0.51100000000E-03 0.  1.
         12    1    3    3    0    0  0.81725037776E+01  0.11975272557E+01  0.18366719527E-01  0.82597958122E+01  0.00000000000E+00 0. -1.
</event>
<event>
 7    1  0.2486105E-010  0.4778727E+02  0.7816164E-02  0.1312668E+00
        -11   -1    0    0    0    0  0.00000000000E+00  0.00000000000E+00  0.45593999997E+02  0.45594000000E+02  0.51100000000E-03 0. -1.
         11   -1    0    0    0    0 -0.00000000000E+00 -0.00000000000E+00 -0.45593999997E+02  0.45594000000E+02  0.51100000000E-03 0.  1.
    9900012    2    1    2    0    0 -0.26055122278E+02 -0.26020712541E+02 -0.22971210610E+02  0.47787269650E+02  0.19999993642E+02 0.  0.
         12    1    1    2    0    0  0.26055122278E+02  0.26020712541E+02  0.22971210610E+02  0.43400730350E+02  0.00000000000E+00 0. -1.
         11    1    3    3    0    0  0.39105270522E+00 -0.59739906882E+01  0.53125500879E+00  0.60103010828E+01  0.51100000000E-03 0. -1.
        -11    1    3    3    0    0 -0.43511863031E+01 -0.82220743517E+01 -0.82942248524E+01  0.12463125413E+02  0.51100000000E-03 0.  1.
        -12    1    3    3    0    0 -0.22094988680E+02 -0.11824647501E+02 -0.15208240766E+02  0.29313843154E+02  0.00000000000E+00 0.  1.
</event>
<event>
 7    1  0.2486105E-010  0.4778727E+02  0.7816164E-02  0.1312668E+00
        -11   -1    0    0    0    0  0.00000000000E+00  0.00000000000E+00  0.45593999997E+02  0.45594000000E+02  0.51100000000E-03 0. -1.
         11   -1    0    0    0    0 -0.00000000000E+00 -0.00000000000E+00 -0.45593999997E+02  0.45594000000E+02  0.51100000000E-03 0.  1.
    9900012    2    1    2    0    0 -0.10780335893E+02  0.29853418000E+02 -0.29600355181E+02  0.47787271491E+02  0.20000002037E+02 0.  0.
         12    1    1    2    0    0  0.10780335893E+02 -0.29853418000E+02  0.29600355181E+02  0.43400728509E+02  0.00000000000E+00 0. -1.
         11    1    3    3    0    0  0.29209491291E+01 -0.10935015637E+00 -0.31954988384E+01  0.43307175339E+01  0.51100000000E-03 0. -1.
        -11    1    3    3    0    0  0.70790398574E+00  0.90518333405E+01 -0.78947579808E+01  0.12031791999E+02  0.51100000000E-03 0.  1.
        -12    1    3    3    0    0 -0.14409189008E+02  0.20910934816E+02 -0.18510098362E+02  0.31424761958E+02  0.00000000000E+00 0.  1.
</event>
<event>
 7    1  0.2486105E-010  0.4778727E+02  0.7816164E-02  0.1312668E+00
        -11   -1    0    0    0    0  0.00000000000E+00  0.00000000000E+00  0.45593999997E+02  0.45594000000E+02  0.51100000000E-03 0.  1.
         11   -1    0    0    0    0 -0.00000000000E+00 -0.00000000000E+00 -0.45593999997E+02  0.45594000000E+02  0.51100000000E-03 0. -1.
    9900012    2    1    2    0    0 -0.10519555023E+02 -0.23370800676E+02  0.35025246262E+02  0.47787271459E+02  0.20000001892E+02 0.  0.
         12    1    1    2    0    0  0.10519555023E+02  0.23370800676E+02 -0.35025246262E+02  0.43400728541E+02  0.00000000000E+00 0. -1.
         11    1    3    3    0    0 -0.44506322982E+01 -0.70896752792E+01  0.67274070635E+01  0.10739163351E+02  0.51100000000E-03 0. -1.
        -11    1    3    3    0    0 -0.76026168248E+01 -0.18202395699E+02  0.28410319994E+02  0.34587183669E+02  0.51100000000E-03 0.  1.
         12    1    3    3    0    0  0.15336941000E+01  0.19212703020E+01 -0.11248079528E+00  0.24609244391E+01  0.00000000000E+00 0. -1.
</event>
<event>
 7    1  0.2486105E-010  0.4778724E+02  0.7816164E-02  0.1312668E+00
        -11   -1    0    0    0    0  0.00000000000E+00  0.00000000000E+00  0.45593999997E+02  0.45594000000E+02  0.51100000000E-03 0. -1.
         11   -1    0    0    0    0 -0.00000000000E+00 -0.00000000000E+00 -0.45593999997E+02  0.45594000000E+02  0.51100000000E-03 0.  1.
    9900012    2    1    2    0    0  0.13494272708E+02  0.16607835887E+02 -0.37758584459E+02  0.47787236077E+02  0.19999840570E+02 0.  0.
         12    1    1    2    0    0 -0.13494272708E+02 -0.16607835887E+02  0.37758584459E+02  0.43400763923E+02  0.00000000000E+00 0. -1.
         11    1    3    3    0    0  0.29449953228E+01  0.20131610361E+01 -0.13849363944E+02  0.14301422892E+02  0.51100000000E-03 0. -1.
        -11    1    3    3    0    0  0.23722839212E+00  0.33646740439E+01 -0.15919326501E+02  0.16272746088E+02  0.51100000000E-03 0.  1.
         12    1    3    3    0    0  0.10312048993E+02  0.11230000807E+02 -0.79898940134E+01  0.17213067098E+02  0.00000000000E+00 0. -1.
</event>
<event>
 7    1  0.2486105E-010  0.4778727E+02  0.7816164E-02  0.1312668E+00
        -11   -1    0    0    0    0  0.00000000000E+00  0.00000000000E+00  0.45593999997E+02  0.45594000000E+02  0.51100000000E-03 0.  1.
         11   -1    0    0    0    0 -0.00000000000E+00 -0.00000000000E+00 -0.45593999997E+02  0.45594000000E+02  0.51100000000E-03 0. -1.
    9900012    2    1    2    0    0 -0.82715234509E+01  0.24333645384E+02  0.34972546297E+02  0.47787269679E+02  0.19999993775E+02 0.  0.
         12    1    1    2    0    0  0.82715234509E+01 -0.24333645384E+02 -0.34972546297E+02  0.43400730321E+02  0.00000000000E+00 0. -1.
         11    1    3    3    0    0  0.36024864085E+01  0.58762496500E+01  0.48961281511E+01  0.84546016704E+01  0.51100000000E-03 0. -1.
        -11    1    3    3    0    0 -0.22844558974E+01 -0.13979839689E+01  0.66112238003E+01  0.71331184151E+01  0.51100000000E-03 0.  1.
        -12    1    3    3    0    0 -0.95895539620E+01  0.19855379703E+02  0.23465194346E+02  0.32199549594E+02  0.00000000000E+00 0.  1.
</event>
<event>
 7    1  0.2486105E-010  0.4778727E+02  0.7816164E-02  0.1312668E+00
        -11   -1    0    0    0    0  0.00000000000E+00  0.00000000000E+00  0.45593999997E+02  0.45594000000E+02  0.51100000000E-03 0. -1.
         11   -1    0    0    0    0 -0.00000000000E+00 -0.00000000000E+00 -0.45593999997E+02  0.45594000000E+02  0.51100000000E-03 0.  1.
    9900012    2    1    2    0    0 -0.17682824041E+02  0.38634791802E+02 -0.88483815827E+01  0.47787271201E+02  0.20000000714E+02 0.  0.
         12    1    1    2    0    0  0.17682824041E+02 -0.38634791802E+02  0.88483815827E+01  0.43400728799E+02  0.00000000000E+00 0. -1.
         11    1    3    3    0    0 -0.30326169647E+01  0.41216774883E+01  0.34631859294E-01  0.51172444342E+01  0.51100000000E-03 0. -1.
        -11    1    3    3    0    0  0.60141786721E+00  0.31739125402E+01 -0.70658941066E+01  0.77693168329E+01  0.51100000000E-03 0.  1.
        -12    1    3    3    0    0 -0.15251624943E+02  0.31339201774E+02 -0.18171193354E+01  0.34900709934E+02  0.00000000000E+00 0.  1.
</event>
<event>
 7    1  0.2486105E-010  0.4778727E+02  0.7816164E-02  0.1312668E+00
        -11   -1    0    0    0    0  0.00000000000E+00  0.00000000000E+00  0.45593999997E+02  0.45594000000E+02  0.51100000000E-03 0.  1.
         11   -1    0    0    0    0 -0.00000000000E+00 -0.00000000000E+00 -0.45593999997E+02  0.45594000000E+02  0.51100000000E-03 0. -1.
    9900012    2    1    2    0    0  0.37581174400E+02  0.12287311614E+02  0.17896943726E+02  0.47787270850E+02  0.19999999114E+02 0.  0.
         12    1    1    2    0    0 -0.37581174400E+02 -0.12287311614E+02 -0.17896943726E+02  0.43400729150E+02  0.00000000000E+00 0. -1.
         11    1    3    3    0    0  0.15665516511E+02  0.80841041125E+01  0.68496467490E+01  0.18912398254E+02  0.51100000000E-03 0. -1.
        -11    1    3    3    0    0  0.51746499439E+01  0.74786233181E+01  0.66279381237E+01  0.11253282757E+02  0.51100000000E-03 0.  1.
         12    1    3    3    0    0  0.16741007945E+02 -0.32754158164E+01  0.44193588537E+01  0.17621589839E+02  0.00000000000E+00 0. -1.
</event>
<event>
 7    1  0.2486105E-010  0.4778727E+02  0.7816164E-02  0.1312668E+00
        -11   -1    0    0    0    0  0.00000000000E+00  0.00000000000E+00  0.45593999997E+02  0.45594000000E+02  0.51100000000E-03 0.  1.
         11   -1    0    0    0    0 -0.00000000000E+00 -0.00000000000E+00 -0.45593999997E+02  0.45594000000E+02  0.51100000000E-03 0. -1.
    9900012    2    1    2    0    0 -0.21147614098E+01 -0.13599722529E+02  0.41160647767E+02  0.47787267365E+02  0.19999983222E+02 0.  0.
         12    1    1    2    0    0  0.21147614098E+01  0.13599722529E+02 -0.41160647767E+02  0.43400732635E+02  0.00000000000E+00 0. -1.
         11    1    3    3    0    0  0.32349963626E+00  0.36347438555E+01  0.31309915184E+01  0.48082349213E+01  0.51100000000E-03 0. -1.
        -11    1    3    3    0    0 -0.98956691134E+00 -0.46184191032E+01  0.22140554641E+02  0.22638754333E+02  0.51100000000E-03 0.  1.
         12    1    3    3    0    0 -0.14486941348E+01 -0.12616047281E+02  0.15889101608E+02  0.20340278110E+02  0.00000000000E+00 0. -1.
</event>
<event>
 7    1  0.2486105E-010  0.4778727E+02  0.7816164E-02  0.1312668E+00
        -11   -1    0    0    0    0  0.00000000000E+00  0.00000000000E+00  0.45593999997E+02  0.45594000000E+02  0.51100000000E-03 0. -1.
         11   -1    0    0    0    0 -0.00000000000E+00 -0.00000000000E+00 -0.45593999997E+02  0.45594000000E+02  0.51100000000E-03 0.  1.
    9900012    2    1    2    0    0  0.28664938834E+02 -0.29236831255E+02 -0.14392786660E+02  0.47787270421E+02  0.19999997156E+02 0.  0.
         12    1    1    2    0    0 -0.28664938834E+02  0.29236831255E+02  0.14392786660E+02  0.43400729579E+02  0.00000000000E+00 0. -1.
         11    1    3    3    0    0  0.10745890054E+02 -0.18141211359E+02 -0.81308725220E+01  0.22598424522E+02  0.51100000000E-03 0. -1.
        -11    1    3    3    0    0  0.67624878746E+01 -0.10504391171E+02 -0.63546562798E+01  0.14016245318E+02  0.51100000000E-03 0.  1.
         12    1    3    3    0    0  0.11156560905E+02 -0.59122872494E+00  0.92742141390E-01  0.11172600581E+02  0.00000000000E+00 0. -1.
</event>
<event>
 7    1  0.2486105E-010  0.4778727E+02  0.7816164E-02  0.1312668E+00
        -11   -1    0    0    0    0  0.00000000000E+00  0.00000000000E+00  0.45593999997E+02  0.45594000000E+02  0.51100000000E-03 0.  1.
         11   -1    0    0    0    0 -0.00000000000E+00 -0.00000000000E+00 -0.45593999997E+02  0.45594000000E+02  0.51100000000E-03 0. -1.
    9900012    2    1    2    0    0 -0.27485595337E+02  0.20206917278E+02  0.26829948841E+02  0.47787267152E+02  0.19999982253E+02 0.  0.
         12    1    1    2    0    0  0.27485595337E+02 -0.20206917278E+02 -0.26829948841E+02  0.43400732848E+02  0.00000000000E+00 0. -1.
         11    1    3    3    0    0 -0.40802474668E+01  0.95617717994E+01  0.62564790272E+01  0.12133401395E+02  0.51100000000E-03 0. -1.
        -11    1    3    3    0    0 -0.13464620733E+01  0.15028892062E+01 -0.19664572441E+01  0.28175504317E+01  0.51100000000E-03 0.  1.
        -12    1    3    3    0    0 -0.22058885797E+02  0.91422562728E+01  0.22539927058E+02  0.32836315325E+02  0.00000000000E+00 0.  1.
</event>
<event>
 7    1  0.2486105E-010  0.4778727E+02  0.7816164E-02  0.1312668E+00
        -11   -1    0    0    0    0  0.00000000000E+00  0.00000000000E+00  0.45593999997E+02  0.45594000000E+02  0.51100000000E-03 0. -1.
         11   -1    0    0    0    0 -0.00000000000E+00 -0.00000000000E+00 -0.45593999997E+02  0.45594000000E+02  0.51100000000E-03 0.  1.
    9900012    2    1    2    0    0 -0.37948601826E+02  0.88518175297E+00 -0.21041466314E+02  0.47787271528E+02  0.20000002203E+02 0.  0.
         12    1    1    2    0    0  0.37948601826E+02 -0.88518175297E+00  0.21041466314E+02  0.43400728472E+02  0.00000000000E+00 0. -1.
         11    1    3    3    0    0 -0.12157894858E+02  0.18700404799E+01 -0.12316245788E+02  0.17406934519E+02  0.51100000000E-03 0. -1.
        -11    1    3    3    0    0  0.97604240547E+00  0.16251004704E+01 -0.17890422644E+01  0.26065845088E+01  0.51100000000E-03 0.  1.
        -12    1    3    3    0    0 -0.26766749374E+02 -0.26099591973E+01 -0.69361782611E+01  0.27773752500E+02  0.00000000000E+00 0.  1.
</event>
<event>
 7    1  0.2486105E-010  0.4778726E+02  0.7816164E-02  0.1312668E+00
        -11   -1    0    0    0    0  0.00000000000E+00  0.00000000000E+00  0.45593999997E+02  0.45594000000E+02  0.51100000000E-03 0.  1.
         11   -1    0    0    0    0 -0.00000000000E+00 -0.00000000000E+00 -0.45593999997E+02  0.45594000000E+02  0.51100000000E-03 0. -1.
    9900012    2    1    2    0    0  0.35584361184E+02 -0.23656498268E+02  0.75991946976E+01  0.47787257711E+02  0.19999939208E+02 0.  0.
         12    1    1    2    0    0 -0.35584361184E+02  0.23656498268E+02 -0.75991946976E+01  0.43400742289E+02  0.00000000000E+00 0. -1.
         11    1    3    3    0    0  0.24634121725E+02 -0.13321021502E+02 -0.43878283601E+01  0.28346827072E+02  0.51100000000E-03 0.  1.
        -11    1    3    3    0    0  0.35512033272E+00 -0.13319335759E+01  0.13985961460E+01  0.19637283269E+01  0.51100000000E-03 0. -1.
        -12    1    3    3    0    0  0.10595119126E+02 -0.90035431898E+01  0.10588426912E+02  0.17476702313E+02  0.00000000000E+00 0.  1.
</event>
<event>
 7    1  0.2486105E-010  0.4778727E+02  0.7816164E-02  0.1312668E+00
        -11   -1    0    0    0    0  0.00000000000E+00  0.00000000000E+00  0.45593999997E+02  0.45594000000E+02  0.51100000000E-03 0.  1.
         11   -1    0    0    0    0 -0.00000000000E+00 -0.00000000000E+00 -0.45593999997E+02  0.45594000000E+02  0.51100000000E-03 0. -1.
    9900012    2    1    2    0    0 -0.24522599462E+02  0.21042366230E+02  0.28973855091E+02  0.47787270285E+02  0.19999996539E+02 0.  0.
         12    1    1    2    0    0  0.24522599462E+02 -0.21042366230E+02 -0.28973855091E+02  0.43400729715E+02  0.00000000000E+00 0. -1.
         11    1    3    3    0    0  0.14005707502E+01  0.44392137318E+01  0.42948601018E+01  0.63335645996E+01  0.51100000000E-03 0. -1.
        -11    1    3    3    0    0 -0.11990629413E+02  0.14670342669E+02  0.11414172459E+02  0.22119617559E+02  0.51100000000E-03 0.  1.
         12    1    3    3    0    0 -0.13932540799E+02  0.19328098287E+01  0.13264822530E+02  0.19334088127E+02  0.00000000000E+00 0. -1.
</event>
<event>
 7    1  0.2486105E-010  0.4778728E+02  0.7816164E-02  0.1312668E+00
        -11   -1    0    0    0    0  0.00000000000E+00  0.00000000000E+00  0.45593999997E+02  0.45594000000E+02  0.51100000000E-03 0. -1.
         11   -1    0    0    0    0 -0.00000000000E+00 -0.00000000000E+00 -0.45593999997E+02  0.45594000000E+02  0.51100000000E-03 0.  1.
    9900012    2    1    2    0    0  0.49588579841E+01  0.41577838442E+02  0.11415588820E+02  0.47787278922E+02  0.20000035916E+02 0.  0.
         12    1    1    2    0    0 -0.49588579841E+01 -0.41577838442E+02 -0.11415588820E+02  0.43400721078E+02  0.00000000000E+00 0. -1.
         11    1    3    3    0    0  0.60339027832E+01  0.78478269782E+01  0.25811473907E+01  0.10230283143E+02  0.51100000000E-03 0. -1.
        -11    1    3    3    0    0 -0.16533919762E+01  0.34106260764E+02  0.60371858225E+01  0.34675904332E+02  0.51100000000E-03 0.  1.
         12    1    3    3    0    0  0.57834717715E+00 -0.37624930057E+00  0.27972556065E+01  0.28810914462E+01  0.00000000000E+00 0. -1.
</event>
<event>
 7    1  0.2486105E-010  0.4778727E+02  0.7816164E-02  0.1312668E+00
        -11   -1    0    0    0    0  0.00000000000E+00  0.00000000000E+00  0.45593999997E+02  0.45594000000E+02  0.51100000000E-03 0.  1.
         11   -1    0    0    0    0 -0.00000000000E+00 -0.00000000000E+00 -0.45593999997E+02  0.45594000000E+02  0.51100000000E-03 0. -1.
    9900012    2    1    2    0    0 -0.20330749428E+01  0.18836704053E+02  0.39047001438E+02  0.47787272648E+02  0.20000007314E+02 0.  0.
         12    1    1    2    0    0  0.20330749428E+01 -0.18836704053E+02 -0.39047001438E+02  0.43400727352E+02  0.00000000000E+00 0. -1.
         11    1    3    3    0    0 -0.36734308213E+01  0.58316835457E+01  0.18802625970E+02  0.20026017342E+02  0.51100000000E-03 0. -1.
        -11    1    3    3    0    0 -0.59942842700E+01  0.69414577356E+01  0.11047736988E+02  0.14358543527E+02  0.51100000000E-03 0.  1.
         12    1    3    3    0    0  0.76346401485E+01  0.60635627718E+01  0.91966384805E+01  0.13402711779E+02  0.00000000000E+00 0. -1.
</event>
<event>
 7    1  0.2486105E-010  0.4778726E+02  0.7816164E-02  0.1312668E+00
        -11   -1    0    0    0    0  0.00000000000E+00  0.00000000000E+00  0.45593999997E+02  0.45594000000E+02  0.51100000000E-03 0. -1.
         11   -1    0    0    0    0 -0.00000000000E+00 -0.00000000000E+00 -0.45593999997E+02  0.45594000000E+02  0.51100000000E-03 0.  1.
    9900012    2    1    2    0    0  0.17819933970E+02  0.39570878835E+02  0.46848225898E+00  0.47787262978E+02  0.19999963221E+02 0.  0.
         12    1    1    2    0    0 -0.17819933970E+02 -0.39570878835E+02 -0.46848225898E+00  0.43400737022E+02  0.00000000000E+00 0. -1.
         11    1    3    3    0    0  0.11654473624E+02  0.14952968297E+02  0.77286672779E+01  0.20473160833E+02  0.51100000000E-03 0. -1.
        -11    1    3    3    0    0  0.23371258925E+01  0.17133648184E+01 -0.19486067507E+01  0.34921118208E+01  0.51100000000E-03 0.  1.
        -12    1    3    3    0    0  0.38283344537E+01  0.22904545720E+02 -0.53115782681E+01  0.23821990324E+02  0.00000000000E+00 0.  1.
</event>
<event>
 7    1  0.2486105E-010  0.4778729E+02  0.7816164E-02  0.1312668E+00
        -11   -1    0    0    0    0  0.00000000000E+00  0.00000000000E+00  0.45593999997E+02  0.45594000000E+02  0.51100000000E-03 0.  1.
         11   -1    0    0    0    0 -0.00000000000E+00 -0.00000000000E+00 -0.45593999997E+02  0.45594000000E+02  0.51100000000E-03 0. -1.
    9900012    2    1    2    0    0  0.38017830358E+02  0.10202903287E+02  0.18280231137E+02  0.47787291353E+02  0.20000092596E+02 0.  0.
         12    1    1    2    0    0 -0.38017830358E+02 -0.10202903287E+02 -0.18280231137E+02  0.43400708647E+02  0.00000000000E+00 0. -1.
         11    1    3    3    0    0  0.76989895118E+01  0.76992101873E+01  0.79067132405E+01  0.13456165559E+02  0.51100000000E-03 0. -1.
        -11    1    3    3    0    0  0.22642848554E+02  0.48139374053E+01  0.12115790704E+02  0.26127858095E+02  0.51100000000E-03 0.  1.
         12    1    3    3    0    0  0.76759922919E+01 -0.23102443059E+01 -0.17422728074E+01  0.82032676998E+01  0.00000000000E+00 0. -1.
</event>
<event>
 7    1  0.2486105E-010  0.4778727E+02  0.7816164E-02  0.1312668E+00
        -11   -1    0    0    0    0  0.00000000000E+00  0.00000000000E+00  0.45593999997E+02  0.45594000000E+02  0.51100000000E-03 0.  1.
         11   -1    0    0    0    0 -0.00000000000E+00 -0.00000000000E+00 -0.45593999997E+02  0.45594000000E+02  0.51100000000E-03 0. -1.
    9900012    2    1    2    0    0 -0.28341898524E+02 -0.19804828836E+02  0.26232214263E+02  0.47787268183E+02  0.19999986952E+02 0.  0.
         12    1    1    2    0    0  0.28341898524E+02  0.19804828836E+02 -0.26232214263E+02  0.43400731817E+02  0.00000000000E+00 0. -1.
         11    1    3    3    0    0 -0.73191884944E+01 -0.12603018076E+02  0.67737306517E+01  0.16071403550E+02  0.51100000000E-03 0. -1.
        -11    1    3    3    0    0  0.40688455072E+00  0.14405535159E+01  0.29813632287E+01  0.33360570188E+01  0.51100000000E-03 0.  1.
         12    1    3    3    0    0 -0.21429594580E+02 -0.86423642760E+01  0.16477120382E+02  0.28379807614E+02  0.00000000000E+00 0. -1.
</event>
<event>
 7    1  0.2486105E-010  0.4778727E+02  0.7816164E-02  0.1312668E+00
        -11   -1    0    0    0    0  0.00000000000E+00  0.00000000000E+00  0.45593999997E+02  0.45594000000E+02  0.51100000000E-03 0.  1.
         11   -1    0    0    0    0 -0.00000000000E+00 -0.00000000000E+00 -0.45593999997E+02  0.45594000000E+02  0.51100000000E-03 0. -1.
    9900012    2    1    2    0    0 -0.42852489745E+02  0.15350515498E+01  0.67030750234E+01  0.47787268723E+02  0.19999989417E+02 0.  0.
         12    1    1    2    0    0  0.42852489745E+02 -0.15350515498E+01 -0.67030750234E+01  0.43400731277E+02  0.00000000000E+00 0. -1.
         11    1    3    3    0    0  0.23353673446E+00 -0.33399433810E+00  0.62249127052E+00  0.74403445298E+00  0.51100000000E-03 0. -1.
        -11    1    3    3    0    0 -0.31135721580E+02 -0.67815579405E+01  0.33678046876E+01  0.32043170802E+02  0.51100000000E-03 0.  1.
        -12    1    3    3    0    0 -0.11950304900E+02  0.86506038284E+01  0.27127790653E+01  0.15000063468E+02  0.00000000000E+00 0.  1.
</event>
<event>
 7    1  0.2486105E-010  0.4778727E+02  0.7816164E-02  0.1312668E+00
        -11   -1    0    0    0    0  0.00000000000E+00  0.00000000000E+00  0.45593999997E+02  0.45594000000E+02  0.51100000000E-03 0.  1.
         11   -1    0    0    0    0 -0.00000000000E+00 -0.00000000000E+00 -0.45593999997E+02  0.45594000000E+02  0.51100000000E-03 0. -1.
    9900012    2    1    2    0    0 -0.36825268672E+02 -0.11888435539E+02  0.19651666220E+02  0.47787270771E+02  0.19999998755E+02 0.  0.
         12    1    1    2    0    0  0.36825268672E+02  0.11888435539E+02 -0.19651666220E+02  0.43400729229E+02  0.00000000000E+00 0. -1.
         11    1    3    3    0    0 -0.77651530116E+01 -0.48378647745E+01  0.92139462190E+01  0.12984580935E+02  0.51100000000E-03 0. -1.
        -11    1    3    3    0    0 -0.29809187544E+02 -0.85816086336E+01  0.11139554325E+02  0.32959389248E+02  0.51100000000E-03 0.  1.
         12    1    3    3    0    0  0.74907188332E+00  0.15310378686E+01 -0.70183432398E+00  0.18433005886E+01  0.00000000000E+00 0. -1.
</event>
<event>
 7    1  0.2486105E-010  0.4778727E+02  0.7816164E-02  0.1312668E+00
        -11   -1    0    0    0    0  0.00000000000E+00  0.00000000000E+00  0.45593999997E+02  0.45594000000E+02  0.51100000000E-03 0.  1.
         11   -1    0    0    0    0 -0.00000000000E+00 -0.00000000000E+00 -0.45593999997E+02  0.45594000000E+02  0.51100000000E-03 0. -1.
    9900012    2    1    2    0    0 -0.12358452323E+02  0.38946889420E+02  0.14629831740E+02  0.47787268254E+02  0.19999987278E+02 0.  0.
         12    1    1    2    0    0  0.12358452323E+02 -0.38946889420E+02 -0.14629831740E+02  0.43400731746E+02  0.00000000000E+00 0. -1.
         11    1    3    3    0    0 -0.16387817664E+01  0.40353992248E+01  0.54358360821E+01  0.69655126699E+01  0.51100000000E-03 0. -1.
        -11    1    3    3    0    0 -0.86853564764E+01  0.18845828840E+02  0.12595511946E+02  0.24274422820E+02  0.51100000000E-03 0.  1.
         12    1    3    3    0    0 -0.20343140801E+01  0.16065661355E+02 -0.34015162879E+01  0.16547332764E+02  0.00000000000E+00 0. -1.
</event>
<event>
 7    1  0.2486105E-010  0.4778726E+02  0.7816164E-02  0.1312668E+00
        -11   -1    0    0    0    0  0.00000000000E+00  0.00000000000E+00  0.45593999997E+02  0.45594000000E+02  0.51100000000E-03 0.  1.
         11   -1    0    0    0    0 -0.00000000000E+00 -0.00000000000E+00 -0.45593999997E+02  0.45594000000E+02  0.51100000000E-03 0. -1.
    9900012    2    1    2    0    0 -0.14893529430E+02 -0.16393041817E+02  0.37323920490E+02  0.47787261762E+02  0.19999957676E+02 0.  0.
         12    1    1    2    0    0  0.14893529430E+02  0.16393041817E+02 -0.37323920490E+02  0.43400738238E+02  0.00000000000E+00 0. -1.
         11    1    3    3    0    0 -0.87409512769E+01 -0.13767431865E+00  0.41550569181E+01  0.96792397273E+01  0.51100000000E-03 0.  1.
        -11    1    3    3    0    0  0.12986815604E+01 -0.53651479336E+01  0.85815173521E+01  0.10203618303E+02  0.51100000000E-03 0. -1.
        -12    1    3    3    0    0 -0.74512597139E+01 -0.10890219565E+02  0.24587346219E+02  0.27904403732E+02  0.00000000000E+00 0.  1.
</event>
<event>
 7    1  0.3405414E-010  0.4778727E+02  0.7816164E-02  0.1312668E+00
        -11   -1    0    0    0    0  0.00000000000E+00  0.00000000000E+00  0.45593999997E+02  0.45594000000E+02  0.51100000000E-03 0. -1.
         11   -1    0    0    0    0 -0.00000000000E+00 -0.00000000000E+00 -0.45593999997E+02  0.45594000000E+02  0.51100000000E-03 0.  1.
    9900012    2    1    2    0    0  0.12984510242E+02 -0.23956981612E+02 -0.33780000955E+02  0.47787274906E+02  0.20000017606E+02 0.  0.
         12    1    1    2    0    0 -0.12984510242E+02  0.23956981612E+02  0.33780000955E+02  0.43400725094E+02  0.00000000000E+00 0. -1.
         11    1    3    3    0    0  0.11608636117E+02 -0.10948556542E+02 -0.14678585159E+02  0.21681609382E+02  0.51100000000E-03 0. -1.
        -11    1    3    3    0    0  0.49392872606E+01 -0.99321832780E+01 -0.18197919952E+02  0.21312182294E+02  0.51100000000E-03 0.  1.
         12    1    3    3    0    0 -0.35634131353E+01 -0.30762417917E+01 -0.90349584401E+00  0.47934832298E+01  0.00000000000E+00 0. -1.
</event>
<event>
 7    1  0.2486105E-010  0.4778727E+02  0.7816164E-02  0.1312668E+00
        -11   -1    0    0    0    0  0.00000000000E+00  0.00000000000E+00  0.45593999997E+02  0.45594000000E+02  0.51100000000E-03 0. -1.
         11   -1    0    0    0    0 -0.00000000000E+00 -0.00000000000E+00 -0.45593999997E+02  0.45594000000E+02  0.51100000000E-03 0.  1.
    9900012    2    1    2    0    0  0.13111294583E+02  0.22788915020E+02 -0.34530898141E+02  0.47787267059E+02  0.19999981828E+02 0.  0.
         12    1    1    2    0    0 -0.13111294583E+02 -0.22788915020E+02  0.34530898141E+02  0.43400732941E+02  0.00000000000E+00 0. -1.
         11    1    3    3    0    0  0.10054339790E+02  0.56850529204E+01 -0.51473671463E+01  0.12645353459E+02  0.51100000000E-03 0. -1.
        -11    1    3    3    0    0  0.55769076784E+01  0.77055096207E+01 -0.15564040026E+02  0.18240507667E+02  0.51100000000E-03 0.  1.
         12    1    3    3    0    0 -0.25199528848E+01  0.93983524784E+01 -0.13819490969E+02  0.16901405932E+02  0.00000000000E+00 0. -1.
</event>
<event>
 7    1  0.2486105E-010  0.4778727E+02  0.7816164E-02  0.1312668E+00
        -11   -1    0    0    0    0  0.00000000000E+00  0.00000000000E+00  0.45593999997E+02  0.45594000000E+02  0.51100000000E-03 0.  1.
         11   -1    0    0    0    0 -0.00000000000E+00 -0.00000000000E+00 -0.45593999997E+02  0.45594000000E+02  0.51100000000E-03 0. -1.
    9900012    2    1    2    0    0  0.30858801697E+02 -0.19831405024E+02  0.23196399558E+02  0.47787271666E+02  0.20000002835E+02 0.  0.
         12    1    1    2    0    0 -0.30858801697E+02  0.19831405024E+02 -0.23196399558E+02  0.43400728334E+02  0.00000000000E+00 0. -1.
         11    1    3    3    0    0  0.79974343381E+01 -0.62728127940E+01  0.23625673627E+01  0.10434982566E+02  0.51100000000E-03 0. -1.
        -11    1    3    3    0    0  0.16492419472E+02 -0.11614091080E+02  0.59246339992E+01  0.21023517782E+02  0.51100000000E-03 0.  1.
         12    1    3    3    0    0  0.63689478876E+01 -0.19445011501E+01  0.14909198196E+02  0.16328771319E+02  0.00000000000E+00 0. -1.
</event>
<event>
 7    1  0.2486105E-010  0.4778722E+02  0.7816164E-02  0.1312668E+00
        -11   -1    0    0    0    0  0.00000000000E+00  0.00000000000E+00  0.45593999997E+02  0.45594000000E+02  0.51100000000E-03 0.  1.
         11   -1    0    0    0    0 -0.00000000000E+00 -0.00000000000E+00 -0.45593999997E+02  0.45594000000E+02  0.51100000000E-03 0. -1.
    9900012    2    1    2    0    0  0.44310732824E+01  0.24767626138E+02  0.35363235377E+02  0.47787215085E+02  0.19999744856E+02 0.  0.
         12    1    1    2    0    0 -0.44310732824E+01 -0.24767626138E+02 -0.35363235377E+02  0.43400784915E+02  0.00000000000E+00 0. -1.
         11    1    3    3    0    0  0.52053581368E+01  0.68623517813E+01  0.12753669662E+02  0.15389727594E+02  0.51100000000E-03 0. -1.
        -11    1    3    3    0    0  0.24162567891E+00  0.19935254226E+02  0.16497194360E+02  0.25877213259E+02  0.51100000000E-03 0.  1.
         12    1    3    3    0    0 -0.10159105332E+01 -0.20299798697E+01  0.61123713540E+01  0.65202742314E+01  0.00000000000E+00 0. -1.
</event>
<event>
 7    1  0.2486105E-010  0.4778728E+02  0.7816164E-02  0.1312668E+00
        -11   -1    0    0    0    0  0.00000000000E+00  0.00000000000E+00  0.45593999997E+02  0.45594000000E+02  0.51100000000E-03 0.  1.
         11   -1    0    0    0    0 -0.00000000000E+00 -0.00000000000E+00 -0.45593999997E+02  0.45594000000E+02  0.51100000000E-03 0. -1.
    9900012    2    1    2    0    0  0.13753747440E+02  0.72752587576E+01  0.40515769396E+02  0.47787279633E+02  0.20000039159E+02 0.  0.
         12    1    1    2    0    0 -0.13753747440E+02 -0.72752587576E+01 -0.40515769396E+02  0.43400720367E+02  0.00000000000E+00 0. -1.
         11    1    3    3    0    0  0.53203095582E+01  0.52036197330E+00  0.35306911785E+01  0.64064226241E+01  0.51100000000E-03 0. -1.
        -11    1    3    3    0    0  0.12799313246E+02  0.58889717142E+01  0.28908782590E+02  0.32159292879E+02  0.51100000000E-03 0.  1.
        -12    1    3    3    0    0 -0.43658753648E+01  0.86592507009E+00  0.80762956278E+01  0.92215641296E+01  0.00000000000E+00 0.  1.
</event>
<event>
 7    1  0.2486105E-010  0.4778727E+02  0.7816164E-02  0.1312668E+00
        -11   -1    0    0    0    0  0.00000000000E+00  0.00000000000E+00  0.45593999997E+02  0.45594000000E+02  0.51100000000E-03 0.  1.
         11   -1    0    0    0    0 -0.00000000000E+00 -0.00000000000E+00 -0.45593999997E+02  0.45594000000E+02  0.51100000000E-03 0. -1.
    9900012    2    1    2    0    0  0.31615029786E+02 -0.25968560491E+02 -0.14482649995E+02  0.47787269670E+02  0.19999993731E+02 0.  0.
         12    1    1    2    0    0 -0.31615029786E+02  0.25968560491E+02  0.14482649995E+02  0.43400730330E+02  0.00000000000E+00 0. -1.
         11    1    3    3    0    0  0.17500379780E+02 -0.73887497558E+01 -0.17619596025E+01  0.19077772860E+02  0.51100000000E-03 0. -1.
        -11    1    3    3    0    0  0.13852231201E+00 -0.75703999926E+01 -0.16328488537E+01  0.77457304445E+01  0.51100000000E-03 0.  1.
         12    1    3    3    0    0  0.13976127694E+02 -0.11009410742E+02 -0.11087841539E+02  0.20963766365E+02  0.00000000000E+00 0. -1.
</event>
<event>
 7    1  0.2486105E-010  0.4778727E+02  0.7816164E-02  0.1312668E+00
        -11   -1    0    0    0    0  0.00000000000E+00  0.00000000000E+00  0.45593999997E+02  0.45594000000E+02  0.51100000000E-03 0. -1.
         11   -1    0    0    0    0 -0.00000000000E+00 -0.00000000000E+00 -0.45593999997E+02  0.45594000000E+02  0.51100000000E-03 0.  1.
    9900012    2    1    2    0    0 -0.27593500231E+02  0.11127171012E+01 -0.33481098686E+02  0.47787270012E+02  0.19999995291E+02 0.  0.
         12    1    1    2    0    0  0.27593500231E+02 -0.11127171012E+01  0.33481098686E+02  0.43400729988E+02  0.00000000000E+00 0. -1.
         11    1    3    3    0    0 -0.52030563812E+01 -0.45107060071E+01 -0.28943119576E+01  0.74696255835E+01  0.51100000000E-03 0. -1.
        -11    1    3    3    0    0 -0.12713983799E+02 -0.27675193658E+01 -0.19115222902E+02  0.23123500910E+02  0.51100000000E-03 0.  1.
        -12    1    3    3    0    0 -0.96764600504E+01  0.83909424742E+01 -0.11471563826E+02  0.17194143518E+02  0.00000000000E+00 0.  1.
</event>
<event>
 7    1  0.2486105E-010  0.4778724E+02  0.7816164E-02  0.1312668E+00
        -11   -1    0    0    0    0  0.00000000000E+00  0.00000000000E+00  0.45593999997E+02  0.45594000000E+02  0.51100000000E-03 0.  1.
         11   -1    0    0    0    0 -0.00000000000E+00 -0.00000000000E+00 -0.45593999997E+02  0.45594000000E+02  0.51100000000E-03 0. -1.
    9900012    2    1    2    0    0  0.33777729690E+02 -0.13356885369E+02 -0.23754665465E+02  0.47787244924E+02  0.19999880906E+02 0.  0.
         12    1    1    2    0    0 -0.33777729690E+02  0.13356885369E+02  0.23754665465E+02  0.43400755076E+02  0.00000000000E+00 0. -1.
         11    1    3    3    0    0  0.10609059426E+02 -0.91052354553E+01 -0.74180783669E+00  0.14000276202E+02  0.51100000000E-03 0.  1.
        -11    1    3    3    0    0 -0.21260555442E+00  0.75766194049E+00 -0.11049302182E+01  0.13565116240E+01  0.51100000000E-03 0. -1.
        -12    1    3    3    0    0  0.23381275819E+02 -0.50093118542E+01 -0.21907927411E+02  0.32430457098E+02  0.00000000000E+00 0.  1.
</event>
<event>
 7    1  0.2486105E-010  0.4778725E+02  0.7816164E-02  0.1312668E+00
        -11   -1    0    0    0    0  0.00000000000E+00  0.00000000000E+00  0.45593999997E+02  0.45594000000E+02  0.51100000000E-03 0.  1.
         11   -1    0    0    0    0 -0.00000000000E+00 -0.00000000000E+00 -0.45593999997E+02  0.45594000000E+02  0.51100000000E-03 0. -1.
    9900012    2    1    2    0    0 -0.37162274968E+01 -0.41820829291E+02 -0.10992389203E+02  0.47787254272E+02  0.19999923526E+02 0.  0.
         12    1    1    2    0    0  0.37162274968E+01  0.41820829291E+02  0.10992389203E+02  0.43400745728E+02  0.00000000000E+00 0. -1.
         11    1    3    3    0    0  0.23422143747E+01 -0.18625119735E+02 -0.66722288957E+01  0.19922341530E+02  0.51100000000E-03 0. -1.
        -11    1    3    3    0    0  0.31321655426E+01 -0.14371290251E+02 -0.33604115067E+01  0.15087637662E+02  0.51100000000E-03 0.  1.
         12    1    3    3    0    0 -0.91906074140E+01 -0.88244193045E+01 -0.95974880028E+00  0.12777275080E+02  0.00000000000E+00 0. -1.
</event>
<event>
 7    1  0.2486105E-010  0.4778727E+02  0.7816164E-02  0.1312668E+00
        -11   -1    0    0    0    0  0.00000000000E+00  0.00000000000E+00  0.45593999997E+02  0.45594000000E+02  0.51100000000E-03 0. -1.
         11   -1    0    0    0    0 -0.00000000000E+00 -0.00000000000E+00 -0.45593999997E+02  0.45594000000E+02  0.51100000000E-03 0.  1.
    9900012    2    1    2    0    0 -0.40845450267E+02 -0.55146016280E+01  0.13596395058E+02  0.47787267319E+02  0.19999983016E+02 0.  0.
         12    1    1    2    0    0  0.40845450267E+02  0.55146016280E+01 -0.13596395058E+02  0.43400732681E+02  0.00000000000E+00 0. -1.
         11    1    3    3    0    0 -0.76599009906E+01 -0.55501793133E+01  0.40671897909E+01  0.10296630840E+02  0.51100000000E-03 0. -1.
        -11    1    3    3    0    0 -0.24737001059E+02 -0.65010311791E+01  0.66442662460E+01  0.26425913456E+02  0.51100000000E-03 0.  1.
        -12    1    3    3    0    0 -0.84485482174E+01  0.65366088644E+01  0.28849390207E+01  0.11064723023E+02  0.00000000000E+00 0.  1.
</event>
<event>
 7    1  0.2486105E-010  0.4778728E+02  0.7816164E-02  0.1312668E+00
        -11   -1    0    0    0    0  0.00000000000E+00  0.00000000000E+00  0.45593999997E+02  0.45594000000E+02  0.51100000000E-03 0. -1.
         11   -1    0    0    0    0 -0.00000000000E+00 -0.00000000000E+00 -0.45593999997E+02  0.45594000000E+02  0.51100000000E-03 0.  1.
    9900012    2    1    2    0    0 -0.42192217443E+02  0.10168752920E+02  0.19004727241E+00  0.47787275735E+02  0.20000021388E+02 0.  0.
         12    1    1    2    0    0  0.42192217443E+02 -0.10168752920E+02 -0.19004727241E+00  0.43400724265E+02  0.00000000000E+00 0. -1.
         11    1    3    3    0    0 -0.15206316787E+02 -0.21254267896E+01  0.22766621511E+01  0.15522006960E+02  0.51100000000E-03 0. -1.
        -11    1    3    3    0    0 -0.20832562159E+02  0.32864795998E+01 -0.30689178305E+01  0.21312316889E+02  0.51100000000E-03 0.  1.
         12    1    3    3    0    0 -0.61533384972E+01  0.90077001100E+01  0.98230295188E+00  0.10952951886E+02  0.00000000000E+00 0. -1.
</event>
<event>
 7    1  0.2486105E-010  0.4778727E+02  0.7816164E-02  0.1312668E+00
        -11   -1    0    0    0    0  0.00000000000E+00  0.00000000000E+00  0.45593999997E+02  0.45594000000E+02  0.51100000000E-03 0. -1.
         11   -1    0    0    0    0 -0.00000000000E+00 -0.00000000000E+00 -0.45593999997E+02  0.45594000000E+02  0.51100000000E-03 0.  1.
    9900012    2    1    2    0    0 -0.35232506965E+02  0.22560700342E+02 -0.11545922291E+02  0.47787273410E+02  0.20000010787E+02 0.  0.
         12    1    1    2    0    0  0.35232506965E+02 -0.22560700342E+02  0.11545922291E+02  0.43400726590E+02  0.00000000000E+00 0. -1.
         11    1    3    3    0    0 -0.10473441790E+02  0.85932576336E+01 -0.59691987046E+01  0.14804336970E+02  0.51100000000E-03 0. -1.
        -11    1    3    3    0    0  0.13478048102E+01  0.43029351733E+01  0.34325696721E+00  0.45221294230E+01  0.51100000000E-03 0.  1.
        -12    1    3    3    0    0 -0.26106869985E+02  0.96645075354E+01 -0.59199805533E+01  0.28460807017E+02  0.00000000000E+00 0.  1.
</event>
<event>
 7    1  0.2486105E-010  0.4778728E+02  0.7816164E-02  0.1312668E+00
        -11   -1    0    0    0    0  0.00000000000E+00  0.00000000000E+00  0.45593999997E+02  0.45594000000E+02  0.51100000000E-03 0.  1.
         11   -1    0    0    0    0 -0.00000000000E+00 -0.00000000000E+00 -0.45593999997E+02  0.45594000000E+02  0.51100000000E-03 0. -1.
    9900012    2    1    2    0    0 -0.24380514296E+02 -0.26293323328E+02  0.24451470742E+02  0.47787277075E+02  0.20000027495E+02 0.  0.
         12    1    1    2    0    0  0.24380514296E+02  0.26293323328E+02 -0.24451470742E+02  0.43400722925E+02  0.00000000000E+00 0. -1.
         11    1    3    3    0    0 -0.25655658900E+00  0.17479836012E+00  0.44366710083E+01  0.44475190440E+01  0.51100000000E-03 0. -1.
        -11    1    3    3    0    0 -0.57392840044E+01 -0.16620118130E+02  0.93805431036E+01  0.19928931149E+02  0.51100000000E-03 0.  1.
        -12    1    3    3    0    0 -0.18384673703E+02 -0.98480035583E+01  0.10634256630E+02  0.23410826882E+02  0.00000000000E+00 0.  1.
</event>
<event>
 7    1  0.2486105E-010  0.4778728E+02  0.7816164E-02  0.1312668E+00
        -11   -1    0    0    0    0  0.00000000000E+00  0.00000000000E+00  0.45593999997E+02  0.45594000000E+02  0.51100000000E-03 0.  1.
         11   -1    0    0    0    0 -0.00000000000E+00 -0.00000000000E+00 -0.45593999997E+02  0.45594000000E+02  0.51100000000E-03 0. -1.
    9900012    2    1    2    0    0 -0.93557887411E+01 -0.40960589481E+02  0.10877598401E+02  0.47787276267E+02  0.20000023811E+02 0.  0.
         12    1    1    2    0    0  0.93557887411E+01  0.40960589481E+02 -0.10877598401E+02  0.43400723733E+02  0.00000000000E+00 0. -1.
         11    1    3    3    0    0 -0.10002757915E+02 -0.20516413777E+02  0.54648838757E+01  0.23470052326E+02  0.51100000000E-03 0. -1.
        -11    1    3    3    0    0 -0.56463516610E+01 -0.84937018866E+01  0.21864974091E+01  0.10430964960E+02  0.51100000000E-03 0.  1.
        -12    1    3    3    0    0  0.62933208346E+01 -0.11950473817E+02  0.32262171163E+01  0.13886258980E+02  0.00000000000E+00 0.  1.
</event>
<event>
 7    1  0.2486105E-010  0.4778727E+02  0.7816164E-02  0.1312668E+00
        -11   -1    0    0    0    0  0.00000000000E+00  0.00000000000E+00  0.45593999997E+02  0.45594000000E+02  0.51100000000E-03 0.  1.
         11   -1    0    0    0    0 -0.00000000000E+00 -0.00000000000E+00 -0.45593999997E+02  0.45594000000E+02  0.51100000000E-03 0. -1.
    9900012    2    1    2    0    0 -0.44952492818E+01 -0.38785741167E+02  0.18949462797E+02  0.47787272768E+02  0.20000007857E+02 0.  0.
         12    1    1    2    0    0  0.44952492818E+01  0.38785741167E+02 -0.18949462797E+02  0.43400727232E+02  0.00000000000E+00 0. -1.
         11    1    3    3    0    0 -0.15103012637E+01 -0.10667109358E+02  0.10460657478E+01  0.10824162128E+02  0.51100000000E-03 0. -1.
        -11    1    3    3    0    0 -0.47075310252E+01 -0.20768595363E+02  0.47830913073E+01  0.21825979118E+02  0.51100000000E-03 0.  1.
         12    1    3    3    0    0  0.17225830071E+01 -0.73500364462E+01  0.13120305742E+02  0.15137131523E+02  0.00000000000E+00 0. -1.
</event>
<event>
 7    1  0.2486105E-010  0.4778727E+02  0.7816164E-02  0.1312668E+00
        -11   -1    0    0    0    0  0.00000000000E+00  0.00000000000E+00  0.45593999997E+02  0.45594000000E+02  0.51100000000E-03 0.  1.
         11   -1    0    0    0    0 -0.00000000000E+00 -0.00000000000E+00 -0.45593999997E+02  0.45594000000E+02  0.51100000000E-03 0. -1.
    9900012    2    1    2    0    0  0.39426705293E+02 -0.67265448390E+01  0.16849685098E+02  0.47787269780E+02  0.19999994236E+02 0.  0.
         12    1    1    2    0    0 -0.39426705293E+02  0.67265448390E+01 -0.16849685098E+02  0.43400730220E+02  0.00000000000E+00 0. -1.
         11    1    3    3    0    0  0.12438720088E+01 -0.58161727857E+00  0.48303031952E+01  0.50216855190E+01  0.51100000000E-03 0. -1.
        -11    1    3    3    0    0  0.24342292237E+02  0.22083980069E+01  0.10244976857E+02  0.26502523732E+02  0.51100000000E-03 0.  1.
        -12    1    3    3    0    0  0.13840541047E+02 -0.83533255673E+01  0.17744050459E+01  0.16263060529E+02  0.00000000000E+00 0.  1.
</event>
<event>
 7    1  0.2486105E-010  0.4778727E+02  0.7816164E-02  0.1312668E+00
        -11   -1    0    0    0    0  0.00000000000E+00  0.00000000000E+00  0.45593999997E+02  0.45594000000E+02  0.51100000000E-03 0. -1.
         11   -1    0    0    0    0 -0.00000000000E+00 -0.00000000000E+00 -0.45593999997E+02  0.45594000000E+02  0.51100000000E-03 0.  1.
    9900012    2    1    2    0    0  0.20821311026E+02 -0.16098403683E+02 -0.34509967651E+02  0.47787268886E+02  0.19999990160E+02 0.  0.
         12    1    1    2    0    0 -0.20821311026E+02  0.16098403683E+02  0.34509967651E+02  0.43400731114E+02  0.00000000000E+00 0. -1.
         11    1    3    3    0    0  0.48816570819E+01  0.22533735204E+01 -0.78131347271E+01  0.94843736015E+01  0.51100000000E-03 0. -1.
        -11    1    3    3    0    0 -0.65533005308E+00 -0.32789762276E+01  0.12464435978E+00  0.33461439086E+01  0.51100000000E-03 0.  1.
        -12    1    3    3    0    0  0.16594983997E+02 -0.15072800976E+02 -0.26821477283E+02  0.34956751376E+02  0.00000000000E+00 0.  1.
</event>
<event>
 7    1  0.2486105E-010  0.4778727E+02  0.7816164E-02  0.1312668E+00
        -11   -1    0    0    0    0  0.00000000000E+00  0.00000000000E+00  0.45593999997E+02  0.45594000000E+02  0.51100000000E-03 0.  1.
         11   -1    0    0    0    0 -0.00000000000E+00 -0.00000000000E+00 -0.45593999997E+02  0.45594000000E+02  0.51100000000E-03 0. -1.
    9900012    2    1    2    0    0  0.32064777722E+02  0.13263666106E+02  0.26068155803E+02  0.47787267795E+02  0.19999985185E+02 0.  0.
         12    1    1    2    0    0 -0.32064777722E+02 -0.13263666106E+02 -0.26068155803E+02  0.43400732205E+02  0.00000000000E+00 0. -1.
         11    1    3    3    0    0  0.24390183220E+02  0.13317262698E+02  0.11584688457E+02  0.30107067778E+02  0.51100000000E-03 0. -1.
        -11    1    3    3    0    0  0.33727878357E+01 -0.14927150536E+01  0.15980639031E+01  0.40196647268E+01  0.51100000000E-03 0.  1.
        -12    1    3    3    0    0  0.43018066660E+01  0.14391184623E+01  0.12885403443E+02  0.13660535291E+02  0.00000000000E+00 0.  1.
</event>
<event>
 7    1  0.2486105E-010  0.4778726E+02  0.7816164E-02  0.1312668E+00
        -11   -1    0    0    0    0  0.00000000000E+00  0.00000000000E+00  0.45593999997E+02  0.45594000000E+02  0.51100000000E-03 0.  1.
         11   -1    0    0    0    0 -0.00000000000E+00 -0.00000000000E+00 -0.45593999997E+02  0.45594000000E+02  0.51100000000E-03 0. -1.
    9900012    2    1    2    0    0 -0.31918836857E+02  0.23464212853E+02 -0.17726889429E+02  0.47787262219E+02  0.19999959762E+02 0.  0.
         12    1    1    2    0    0  0.31918836857E+02 -0.23464212853E+02  0.17726889429E+02  0.43400737781E+02  0.00000000000E+00 0. -1.
         11    1    3    3    0    0 -0.51010090463E+01 -0.16021383072E+01 -0.72113287365E+01  0.89772157628E+01  0.51100000000E-03 0. -1.
        -11    1    3    3    0    0 -0.79465448325E+01  0.34900378098E+01 -0.29024962683E+01  0.91516350199E+01  0.51100000000E-03 0.  1.
         12    1    3    3    0    0 -0.18871282978E+02  0.21576313350E+02 -0.76130644245E+01  0.29658411437E+02  0.00000000000E+00 0. -1.
</event>
<event>
 7    1  0.2486105E-010  0.4778726E+02  0.7816164E-02  0.1312668E+00
        -11   -1    0    0    0    0  0.00000000000E+00  0.00000000000E+00  0.45593999997E+02  0.45594000000E+02  0.51100000000E-03 0.  1.
         11   -1    0    0    0    0 -0.00000000000E+00 -0.00000000000E+00 -0.45593999997E+02  0.45594000000E+02  0.51100000000E-03 0. -1.
    9900012    2    1    2    0    0 -0.42373791200E+02  0.42968311048E+01 -0.83440663670E+01  0.47787258281E+02  0.19999941808E+02 0.  0.
         12    1    1    2    0    0  0.42373791200E+02 -0.42968311048E+01  0.83440663670E+01  0.43400741719E+02  0.00000000000E+00 0. -1.
         11    1    3    3    0    0 -0.73087496792E+01  0.32098751392E+01 -0.73383790501E+01  0.10843105073E+02  0.51100000000E-03 0. -1.
        -11    1    3    3    0    0 -0.22780945368E+02  0.46138565496E+01 -0.45429996553E+01  0.23683285040E+02  0.51100000000E-03 0.  1.
         12    1    3    3    0    0 -0.12284096152E+02 -0.35269005840E+01  0.35373123385E+01  0.13260868169E+02  0.00000000000E+00 0. -1.
</event>
<event>
 7    1  0.2486105E-010  0.4778727E+02  0.7816164E-02  0.1312668E+00
        -11   -1    0    0    0    0  0.00000000000E+00  0.00000000000E+00  0.45593999997E+02  0.45594000000E+02  0.51100000000E-03 0. -1.
         11   -1    0    0    0    0 -0.00000000000E+00 -0.00000000000E+00 -0.45593999997E+02  0.45594000000E+02  0.51100000000E-03 0.  1.
    9900012    2    1    2    0    0 -0.41522855784E+02  0.89204354900E+01  0.89387638350E+01  0.47787271657E+02  0.20000002792E+02 0.  0.
         12    1    1    2    0    0  0.41522855784E+02 -0.89204354900E+01 -0.89387638350E+01  0.43400728343E+02  0.00000000000E+00 0. -1.
         11    1    3    3    0    0 -0.12510853841E+02 -0.15202385525E+01  0.19758348026E+00  0.12604428927E+02  0.51100000000E-03 0. -1.
        -11    1    3    3    0    0 -0.23921261296E+02  0.64429239613E+01  0.59861555598E+00  0.24780967536E+02  0.51100000000E-03 0.  1.
         12    1    3    3    0    0 -0.50907406473E+01  0.39977500813E+01  0.81425647987E+01  0.10401875194E+02  0.00000000000E+00 0. -1.
</event>
<event>
 7    1  0.2486105E-010  0.4778723E+02  0.7816164E-02  0.1312668E+00
        -11   -1    0    0    0    0  0.00000000000E+00  0.00000000000E+00  0.45593999997E+02  0.45594000000E+02  0.51100000000E-03 0.  1.
         11   -1    0    0    0    0 -0.00000000000E+00 -0.00000000000E+00 -0.45593999997E+02  0.45594000000E+02  0.51100000000E-03 0. -1.
    9900012    2    1    2    0    0 -0.37720796513E+02  0.18791052529E+02  0.10376140127E+02  0.47787234699E+02  0.19999834287E+02 0.  0.
         12    1    1    2    0    0  0.37720796513E+02 -0.18791052529E+02 -0.10376140127E+02  0.43400765301E+02  0.00000000000E+00 0. -1.
         11    1    3    3    0    0 -0.59605153332E+01  0.47103914683E+01  0.97873466844E+01  0.12389821879E+02  0.51100000000E-03 0. -1.
        -11    1    3    3    0    0 -0.16049178479E+01  0.19175760945E+01  0.14107626641E+01  0.28710818401E+01  0.51100000000E-03 0.  1.
        -12    1    3    3    0    0 -0.30155363332E+02  0.12163084966E+02 -0.82196922129E+00  0.32526330980E+02  0.00000000000E+00 0.  1.
</event>
<event>
 7    1  0.2486105E-010  0.4778727E+02  0.7816164E-02  0.1312668E+00
        -11   -1    0    0    0    0  0.00000000000E+00  0.00000000000E+00  0.45593999997E+02  0.45594000000E+02  0.51100000000E-03 0.  1.
         11   -1    0    0    0    0 -0.00000000000E+00 -0.00000000000E+00 -0.45593999997E+02  0.45594000000E+02  0.51100000000E-03 0. -1.
    9900012    2    1    2    0    0  0.28270490817E+02 -0.22550558595E+02  0.23997389066E+02  0.47787273901E+02  0.20000013023E+02 0.  0.
         12    1    1    2    0    0 -0.28270490817E+02  0.22550558595E+02 -0.23997389066E+02  0.43400726099E+02  0.00000000000E+00 0. -1.
         11    1    3    3    0    0  0.20360227981E+02 -0.16163539173E+02  0.15753601078E+02  0.30396954275E+02  0.51100000000E-03 0. -1.
        -11    1    3    3    0    0  0.75631729765E+01 -0.90283625815E+01  0.87580729956E+01  0.14677082790E+02  0.51100000000E-03 0.  1.
         12    1    3    3    0    0  0.34708985953E+00  0.26413431595E+01 -0.51428500715E+00  0.27132368355E+01  0.00000000000E+00 0. -1.
</event>
<event>
 7    1  0.2486105E-010  0.4778727E+02  0.7816164E-02  0.1312668E+00
        -11   -1    0    0    0    0  0.00000000000E+00  0.00000000000E+00  0.45593999997E+02  0.45594000000E+02  0.51100000000E-03 0.  1.
         11   -1    0    0    0    0 -0.00000000000E+00 -0.00000000000E+00 -0.45593999997E+02  0.45594000000E+02  0.51100000000E-03 0. -1.
    9900012    2    1    2    0    0  0.12596484979E+01  0.12271881419E+02  0.41610544325E+02  0.47787272046E+02  0.20000004569E+02 0.  0.
         12    1    1    2    0    0 -0.12596484979E+01 -0.12271881419E+02 -0.41610544325E+02  0.43400727954E+02  0.00000000000E+00 0. -1.
         11    1    3    3    0    0  0.34363075204E+01  0.36694130129E+01  0.24864693316E+02  0.25367809822E+02  0.51100000000E-03 0. -1.
        -11    1    3    3    0    0  0.20053154450E+01  0.20661977229E+01  0.13835620760E+02  0.14132050988E+02  0.51100000000E-03 0.  1.
         12    1    3    3    0    0 -0.41819744675E+01  0.65362706831E+01  0.29102302491E+01  0.82874112358E+01  0.00000000000E+00 0. -1.
</event>
<event>
 7    1  0.2486105E-010  0.4778727E+02  0.7816164E-02  0.1312668E+00
        -11   -1    0    0    0    0  0.00000000000E+00  0.00000000000E+00  0.45593999997E+02  0.45594000000E+02  0.51100000000E-03 0. -1.
         11   -1    0    0    0    0 -0.00000000000E+00 -0.00000000000E+00 -0.45593999997E+02  0.45594000000E+02  0.51100000000E-03 0.  1.
    9900012    2    1    2    0    0 -0.31839827725E+02 -0.29392722975E+02 -0.24323274327E+01  0.47787274082E+02  0.20000013848E+02 0.  0.
         12    1    1    2    0    0  0.31839827725E+02  0.29392722975E+02  0.24323274327E+01  0.43400725918E+02  0.00000000000E+00 0. -1.
         11    1    3    3    0    0 -0.11762842822E+02 -0.19066529779E+02 -0.91846611429E+00  0.22421877917E+02  0.51100000000E-03 0. -1.
        -11    1    3    3    0    0 -0.15916614369E+02 -0.12816254459E+02 -0.68630225568E+00  0.20446662377E+02  0.51100000000E-03 0.  1.
         12    1    3    3    0    0 -0.41603705343E+01  0.24900612620E+01 -0.82755906276E+00  0.49187337876E+01  0.00000000000E+00 0. -1.
</event>
<event>
 7    1  0.2486105E-010  0.4778727E+02  0.7816164E-02  0.1312668E+00
        -11   -1    0    0    0    0  0.00000000000E+00  0.00000000000E+00  0.45593999997E+02  0.45594000000E+02  0.51100000000E-03 0. -1.
         11   -1    0    0    0    0 -0.00000000000E+00 -0.00000000000E+00 -0.45593999997E+02  0.45594000000E+02  0.51100000000E-03 0.  1.
    9900012    2    1    2    0    0  0.29977775576E+02  0.31164730719E+02 -0.37035151898E+01  0.47787268508E+02  0.19999988436E+02 0.  0.
         12    1    1    2    0    0 -0.29977775576E+02 -0.31164730719E+02  0.37035151898E+01  0.43400731492E+02  0.00000000000E+00 0. -1.
         11    1    3    3    0    0  0.72806295909E+01  0.24754596961E+01 -0.67664323581E+00  0.77196706067E+01  0.51100000000E-03 0. -1.
        -11    1    3    3    0    0  0.97820838543E+01  0.78319654028E+01 -0.82269478116E+01  0.14990380821E+02  0.51100000000E-03 0.  1.
         12    1    3    3    0    0  0.12915062131E+02  0.20857305620E+02  0.52000758576E+01  0.25077217080E+02  0.00000000000E+00 0. -1.
</event>
<event>
 7    1  0.2486105E-010  0.4778727E+02  0.7816164E-02  0.1312668E+00
        -11   -1    0    0    0    0  0.00000000000E+00  0.00000000000E+00  0.45593999997E+02  0.45594000000E+02  0.51100000000E-03 0.  1.
         11   -1    0    0    0    0 -0.00000000000E+00 -0.00000000000E+00 -0.45593999997E+02  0.45594000000E+02  0.51100000000E-03 0. -1.
    9900012    2    1    2    0    0 -0.48660938112E+01 -0.22132633233E+02  0.37014741431E+02  0.47787269522E+02  0.19999993059E+02 0.  0.
         12    1    1    2    0    0  0.48660938112E+01  0.22132633233E+02 -0.37014741431E+02  0.43400730478E+02  0.00000000000E+00 0. -1.
         11    1    3    3    0    0 -0.48417576881E+00 -0.59051719416E+01  0.64004249923E+00  0.59594577351E+01  0.51100000000E-03 0. -1.
        -11    1    3    3    0    0 -0.47035227424E+00 -0.15601728507E+02  0.22395806665E+02  0.27298485674E+02  0.51100000000E-03 0.  1.
        -12    1    3    3    0    0 -0.39115657681E+01 -0.62573278427E+00  0.13978892267E+02  0.14529326113E+02  0.00000000000E+00 0.  1.
</event>
<event>
 7    1  0.2486105E-010  0.4778727E+02  0.7816164E-02  0.1312668E+00
        -11   -1    0    0    0    0  0.00000000000E+00  0.00000000000E+00  0.45593999997E+02  0.45594000000E+02  0.51100000000E-03 0.  1.
         11   -1    0    0    0    0 -0.00000000000E+00 -0.00000000000E+00 -0.45593999997E+02  0.45594000000E+02  0.51100000000E-03 0. -1.
    9900012    2    1    2    0    0 -0.34377742424E+02  0.21366078157E+02 -0.15661567048E+02  0.47787272444E+02  0.20000006382E+02 0.  0.
         12    1    1    2    0    0  0.34377742424E+02 -0.21366078157E+02  0.15661567048E+02  0.43400727556E+02  0.00000000000E+00 0. -1.
         11    1    3    3    0    0 -0.14354992239E+02  0.13441456491E+02 -0.79121470464E+01  0.21197656142E+02  0.51100000000E-03 0.  1.
        -11    1    3    3    0    0 -0.46706135387E+01  0.86165080041E+01 -0.49089354452E+01  0.10961591512E+02  0.51100000000E-03 0. -1.
        -12    1    3    3    0    0 -0.15352136647E+02 -0.69188633792E+00 -0.28404845559E+01  0.15628024790E+02  0.00000000000E+00 0.  1.
</event>
<event>
 7    1  0.2486105E-010  0.4778727E+02  0.7816164E-02  0.1312668E+00
        -11   -1    0    0    0    0  0.00000000000E+00  0.00000000000E+00  0.45593999997E+02  0.45594000000E+02  0.51100000000E-03 0.  1.
         11   -1    0    0    0    0 -0.00000000000E+00 -0.00000000000E+00 -0.45593999997E+02  0.45594000000E+02  0.51100000000E-03 0. -1.
    9900012    2    1    2    0    0 -0.94634482854E+01  0.59189334773E+01  0.41940822568E+02  0.47787271611E+02  0.20000002584E+02 0.  0.
         12    1    1    2    0    0  0.94634482854E+01 -0.59189334773E+01 -0.41940822568E+02  0.43400728389E+02  0.00000000000E+00 0. -1.
         11    1    3    3    0    0  0.26543655683E+00  0.28693049642E+01  0.78313874514E+01  0.83446987494E+01  0.51100000000E-03 0. -1.
        -11    1    3    3    0    0  0.45617159364E+00 -0.59752780255E+01  0.79539223304E+01  0.99587610025E+01  0.51100000000E-03 0.  1.
        -12    1    3    3    0    0 -0.10185056436E+02  0.90249065385E+01  0.26155512787E+02  0.29483811859E+02  0.00000000000E+00 0.  1.
</event>
<event>
 7    1  0.2486105E-010  0.4778727E+02  0.7816164E-02  0.1312668E+00
        -11   -1    0    0    0    0  0.00000000000E+00  0.00000000000E+00  0.45593999997E+02  0.45594000000E+02  0.51100000000E-03 0. -1.
         11   -1    0    0    0    0 -0.00000000000E+00 -0.00000000000E+00 -0.45593999997E+02  0.45594000000E+02  0.51100000000E-03 0.  1.
    9900012    2    1    2    0    0  0.16119588211E+01 -0.38739623595E+02 -0.19500418414E+02  0.47787272289E+02  0.20000005675E+02 0.  0.
         12    1    1    2    0    0 -0.16119588211E+01  0.38739623595E+02  0.19500418414E+02  0.43400727711E+02  0.00000000000E+00 0. -1.
         11    1    3    3    0    0 -0.37868374331E+01 -0.12244594795E+02 -0.40891695327E+01  0.13453309896E+02  0.51100000000E-03 0. -1.
        -11    1    3    3    0    0 -0.16650347702E+01  0.98412717170E+00  0.20967928481E+00  0.19454595189E+01  0.51100000000E-03 0.  1.
         12    1    3    3    0    0  0.70638310243E+01 -0.27479155971E+02 -0.15620928166E+02  0.32388502874E+02  0.00000000000E+00 0. -1.
</event>
<event>
 7    1  0.2486105E-010  0.4778727E+02  0.7816164E-02  0.1312668E+00
        -11   -1    0    0    0    0  0.00000000000E+00  0.00000000000E+00  0.45593999997E+02  0.45594000000E+02  0.51100000000E-03 0. -1.
         11   -1    0    0    0    0 -0.00000000000E+00 -0.00000000000E+00 -0.45593999997E+02  0.45594000000E+02  0.51100000000E-03 0.  1.
    9900012    2    1    2    0    0  0.29463931591E+02  0.12903520462E+02 -0.29137595134E+02  0.47787267802E+02  0.19999985216E+02 0.  0.
         12    1    1    2    0    0 -0.29463931591E+02 -0.12903520462E+02  0.29137595134E+02  0.43400732198E+02  0.00000000000E+00 0. -1.
         11    1    3    3    0    0  0.11250981649E+02  0.66709426718E+00 -0.43149128295E+01  0.12068474461E+02  0.51100000000E-03 0. -1.
        -11    1    3    3    0    0  0.72891836478E+01  0.80485449001E+01 -0.35198460456E+01  0.11414928371E+02  0.51100000000E-03 0.  1.
        -12    1    3    3    0    0  0.10923766294E+02  0.41878812948E+01 -0.21302836259E+02  0.24303864970E+02  0.00000000000E+00 0.  1.
</event>
<event>
 7    1  0.2486105E-010  0.4778727E+02  0.7816164E-02  0.1312668E+00
        -11   -1    0    0    0    0  0.00000000000E+00  0.00000000000E+00  0.45593999997E+02  0.45594000000E+02  0.51100000000E-03 0.  1.
         11   -1    0    0    0    0 -0.00000000000E+00 -0.00000000000E+00 -0.45593999997E+02  0.45594000000E+02  0.51100000000E-03 0. -1.
    9900012    2    1    2    0    0 -0.14337287549E+02  0.38731368725E+02  0.13339660007E+02  0.47787271127E+02  0.20000000376E+02 0.  0.
         12    1    1    2    0    0  0.14337287549E+02 -0.38731368725E+02 -0.13339660007E+02  0.43400728873E+02  0.00000000000E+00 0. -1.
         11    1    3    3    0    0 -0.86912473666E+01  0.28739541098E+02  0.78375406133E+01  0.31031049715E+02  0.51100000000E-03 0. -1.
        -11    1    3    3    0    0 -0.32707277229E+01  0.89049715802E+01  0.85297650411E+01  0.12757471168E+02  0.51100000000E-03 0.  1.
         12    1    3    3    0    0 -0.23753124596E+01  0.10868560470E+01 -0.30276456470E+01  0.39987502437E+01  0.00000000000E+00 0. -1.
</event>
<event>
 7    1  0.2486105E-010  0.4778727E+02  0.7816164E-02  0.1312668E+00
        -11   -1    0    0    0    0  0.00000000000E+00  0.00000000000E+00  0.45593999997E+02  0.45594000000E+02  0.51100000000E-03 0.  1.
         11   -1    0    0    0    0 -0.00000000000E+00 -0.00000000000E+00 -0.45593999997E+02  0.45594000000E+02  0.51100000000E-03 0. -1.
    9900012    2    1    2    0    0  0.84705178267E+01 -0.17693957247E+02  0.38714304015E+02  0.47787272694E+02  0.20000007522E+02 0.  0.
         12    1    1    2    0    0 -0.84705178267E+01  0.17693957247E+02 -0.38714304015E+02  0.43400727306E+02  0.00000000000E+00 0. -1.
         11    1    3    3    0    0 -0.10234888944E+01 -0.73179597770E+01  0.40836504454E+01  0.84425272304E+01  0.51100000000E-03 0. -1.
        -11    1    3    3    0    0  0.51587038361E+01 -0.57225823727E+01  0.53464867294E+01  0.93779046108E+01  0.51100000000E-03 0.  1.
        -12    1    3    3    0    0  0.43353028850E+01 -0.46534150968E+01  0.29284166840E+02  0.29966840853E+02  0.00000000000E+00 0.  1.
</event>
<event>
 7    1  0.2486105E-010  0.4778727E+02  0.7816164E-02  0.1312668E+00
        -11   -1    0    0    0    0  0.00000000000E+00  0.00000000000E+00  0.45593999997E+02  0.45594000000E+02  0.51100000000E-03 0.  1.
         11   -1    0    0    0    0 -0.00000000000E+00 -0.00000000000E+00 -0.45593999997E+02  0.45594000000E+02  0.51100000000E-03 0. -1.
    9900012    2    1    2    0    0  0.16945686527E+02  0.19642646143E+02  0.34794159269E+02  0.47787270069E+02  0.19999995551E+02 0.  0.
         12    1    1    2    0    0 -0.16945686527E+02 -0.19642646143E+02 -0.34794159269E+02  0.43400729931E+02  0.00000000000E+00 0. -1.
         11    1    3    3    0    0 -0.17385693890E+01  0.33893263939E+01 -0.33253833823E+00  0.38237074851E+01  0.51100000000E-03 0. -1.
        -11    1    3    3    0    0  0.25137006404E+01  0.77158827750E+01  0.97574367238E+01  0.12690985367E+02  0.51100000000E-03 0.  1.
        -12    1    3    3    0    0  0.16170555275E+02  0.85374369741E+01  0.25369260883E+02  0.31272577216E+02  0.00000000000E+00 0.  1.
</event>
<event>
 7    1  0.2486105E-010  0.4778727E+02  0.7816164E-02  0.1312668E+00
        -11   -1    0    0    0    0  0.00000000000E+00  0.00000000000E+00  0.45593999997E+02  0.45594000000E+02  0.51100000000E-03 0. -1.
         11   -1    0    0    0    0 -0.00000000000E+00 -0.00000000000E+00 -0.45593999997E+02  0.45594000000E+02  0.51100000000E-03 0.  1.
    9900012    2    1    2    0    0  0.92098378982E+01  0.42279433558E+02  0.33543810846E+01  0.47787268571E+02  0.19999988724E+02 0.  0.
         12    1    1    2    0    0 -0.92098378982E+01 -0.42279433558E+02 -0.33543810846E+01  0.43400731429E+02  0.00000000000E+00 0. -1.
         11    1    3    3    0    0  0.61819662116E+01  0.17283890953E+02  0.62445666209E+01  0.19389280679E+02  0.51100000000E-03 0. -1.
        -11    1    3    3    0    0  0.20364310371E+01  0.15566287452E+02  0.45511334019E+01  0.16345310395E+02  0.51100000000E-03 0.  1.
        -12    1    3    3    0    0  0.99144064949E+00  0.94292551524E+01 -0.74413189382E+01  0.12052677496E+02  0.00000000000E+00 0.  1.
</event>
<event>
 7    1  0.2486105E-010  0.4778727E+02  0.7816164E-02  0.1312668E+00
        -11   -1    0    0    0    0  0.00000000000E+00  0.00000000000E+00  0.45593999997E+02  0.45594000000E+02  0.51100000000E-03 0. -1.
         11   -1    0    0    0    0 -0.00000000000E+00 -0.00000000000E+00 -0.45593999997E+02  0.45594000000E+02  0.51100000000E-03 0.  1.
    9900012    2    1    2    0    0  0.27421755721E+02  0.30408711763E+02 -0.14386821488E+02  0.47787273388E+02  0.20000010687E+02 0.  0.
         12    1    1    2    0    0 -0.27421755721E+02 -0.30408711763E+02  0.14386821488E+02  0.43400726612E+02  0.00000000000E+00 0. -1.
         11    1    3    3    0    0  0.11421856263E+02  0.79243457706E+01 -0.93191940930E+01  0.16736231212E+02  0.51100000000E-03 0. -1.
        -11    1    3    3    0    0  0.17601664937E+01 -0.16090429031E+01 -0.15494767719E+01  0.28439556392E+01  0.51100000000E-03 0.  1.
        -12    1    3    3    0    0  0.14239732964E+02  0.24093408896E+02 -0.35181506229E+01  0.28207086537E+02  0.00000000000E+00 0.  1.
</event>
<event>
 7    1  0.2486105E-010  0.4778727E+02  0.7816164E-02  0.1312668E+00
        -11   -1    0    0    0    0  0.00000000000E+00  0.00000000000E+00  0.45593999997E+02  0.45594000000E+02  0.51100000000E-03 0.  1.
         11   -1    0    0    0    0 -0.00000000000E+00 -0.00000000000E+00 -0.45593999997E+02  0.45594000000E+02  0.51100000000E-03 0. -1.
    9900012    2    1    2    0    0  0.33807534939E+02 -0.13019456449E+01  0.27184164387E+02  0.47787271037E+02  0.19999999965E+02 0.  0.
         12    1    1    2    0    0 -0.33807534939E+02  0.13019456449E+01 -0.27184164387E+02  0.43400728963E+02  0.00000000000E+00 0. -1.
         11    1    3    3    0    0  0.22026203285E+02 -0.50610947398E+01  0.77776961184E+01  0.23901064166E+02  0.51100000000E-03 0.  1.
        -11    1    3    3    0    0  0.52667520517E+01  0.34784714746E+01  0.49299464513E+01  0.80089208541E+01  0.51100000000E-03 0. -1.
        -12    1    3    3    0    0  0.65145796027E+01  0.28067762031E+00  0.14476521817E+02  0.15877286016E+02  0.00000000000E+00 0.  1.
</event>
<event>
 7    1  0.2486105E-010  0.4778726E+02  0.7816164E-02  0.1312668E+00
        -11   -1    0    0    0    0  0.00000000000E+00  0.00000000000E+00  0.45593999997E+02  0.45594000000E+02  0.51100000000E-03 0. -1.
         11   -1    0    0    0    0 -0.00000000000E+00 -0.00000000000E+00 -0.45593999997E+02  0.45594000000E+02  0.51100000000E-03 0.  1.
    9900012    2    1    2    0    0 -0.18642375253E+02  0.19340941471E+02  0.34088322607E+02  0.47787263713E+02  0.19999966575E+02 0.  0.
         12    1    1    2    0    0  0.18642375253E+02 -0.19340941471E+02 -0.34088322607E+02  0.43400736287E+02  0.00000000000E+00 0. -1.
         11    1    3    3    0    0 -0.14753571157E+01 -0.17722287290E+01 -0.27825296586E+00  0.23226920288E+01  0.51100000000E-03 0. -1.
        -11    1    3    3    0    0  0.15179378206E+01  0.11202090246E+01  0.55463809503E+00  0.19663741159E+01  0.51100000000E-03 0.  1.
        -12    1    3    3    0    0 -0.18684955957E+02  0.19992961175E+02  0.33811937478E+02  0.43498197569E+02  0.00000000000E+00 0.  1.
</event>
<event>
 7    1  0.2486105E-010  0.4778727E+02  0.7816164E-02  0.1312668E+00
        -11   -1    0    0    0    0  0.00000000000E+00  0.00000000000E+00  0.45593999997E+02  0.45594000000E+02  0.51100000000E-03 0.  1.
         11   -1    0    0    0    0 -0.00000000000E+00 -0.00000000000E+00 -0.45593999997E+02  0.45594000000E+02  0.51100000000E-03 0. -1.
    9900012    2    1    2    0    0  0.29123937098E+02 -0.13637029323E+02  0.29145345848E+02  0.47787268838E+02  0.19999989938E+02 0.  0.
         12    1    1    2    0    0 -0.29123937098E+02  0.13637029323E+02 -0.29145345848E+02  0.43400731162E+02  0.00000000000E+00 0. -1.
         11    1    3    3    0    0  0.13359434445E+02 -0.97261088377E+01  0.11007017154E+02  0.19855128021E+02  0.51100000000E-03 0. -1.
        -11    1    3    3    0    0  0.37705085982E+01 -0.73043240888E+01  0.41919500610E+01  0.92272602140E+01  0.51100000000E-03 0.  1.
         12    1    3    3    0    0  0.11993994054E+02  0.33934036039E+01  0.13946378633E+02  0.18704880603E+02  0.00000000000E+00 0. -1.
</event>
<event>
 7    1  0.2486105E-010  0.4778732E+02  0.7816164E-02  0.1312668E+00
        -11   -1    0    0    0    0  0.00000000000E+00  0.00000000000E+00  0.45593999997E+02  0.45594000000E+02  0.51100000000E-03 0.  1.
         11   -1    0    0    0    0 -0.00000000000E+00 -0.00000000000E+00 -0.45593999997E+02  0.45594000000E+02  0.51100000000E-03 0. -1.
    9900012    2    1    2    0    0  0.60060703332E+01 -0.13941973051E+02  0.40659166368E+02  0.47787316789E+02  0.20000208567E+02 0.  0.
         12    1    1    2    0    0 -0.60060703332E+01  0.13941973051E+02 -0.40659166368E+02  0.43400683211E+02  0.00000000000E+00 0. -1.
         11    1    3    3    0    0 -0.28695912901E+01  0.78221359139E+00 -0.59144696951E+00  0.30325273377E+01  0.51100000000E-03 0. -1.
        -11    1    3    3    0    0  0.29334358457E+00 -0.46551643384E+00  0.28556330835E+01  0.29081603424E+01  0.51100000000E-03 0.  1.
        -12    1    3    3    0    0  0.85823180387E+01 -0.14258670209E+02  0.38394980255E+02  0.41846629109E+02  0.00000000000E+00 0.  1.
</event>
<event>
 7    1  0.2486105E-010  0.4778727E+02  0.7816164E-02  0.1312668E+00
        -11   -1    0    0    0    0  0.00000000000E+00  0.00000000000E+00  0.45593999997E+02  0.45594000000E+02  0.51100000000E-03 0.  1.
         11   -1    0    0    0    0 -0.00000000000E+00 -0.00000000000E+00 -0.45593999997E+02  0.45594000000E+02  0.51100000000E-03 0. -1.
    9900012    2    1    2    0    0  0.13246567114E+02  0.12691921866E+02  0.39332775324E+02  0.47787266877E+02  0.19999980998E+02 0.  0.
         12    1    1    2    0    0 -0.13246567114E+02 -0.12691921866E+02 -0.39332775324E+02  0.43400733123E+02  0.00000000000E+00 0. -1.
         11    1    3    3    0    0  0.27431158244E+01  0.63343678824E+01  0.24274655198E+01  0.73172050679E+01  0.51100000000E-03 0. -1.
        -11    1    3    3    0    0  0.41304091461E+01  0.85548106362E+01  0.25621641079E+02  0.27326060027E+02  0.51100000000E-03 0.  1.
        -12    1    3    3    0    0  0.63730421438E+01 -0.21972566525E+01  0.11283668725E+02  0.13144001782E+02  0.00000000000E+00 0.  1.
</event>
<event>
 7    1  0.2486105E-010  0.4778727E+02  0.7816164E-02  0.1312668E+00
        -11   -1    0    0    0    0  0.00000000000E+00  0.00000000000E+00  0.45593999997E+02  0.45594000000E+02  0.51100000000E-03 0.  1.
         11   -1    0    0    0    0 -0.00000000000E+00 -0.00000000000E+00 -0.45593999997E+02  0.45594000000E+02  0.51100000000E-03 0. -1.
    9900012    2    1    2    0    0  0.40348459339E+02 -0.93921538768E+01  0.12938795988E+02  0.47787272275E+02  0.20000005610E+02 0.  0.
         12    1    1    2    0    0 -0.40348459339E+02  0.93921538768E+01 -0.12938795988E+02  0.43400727725E+02  0.00000000000E+00 0. -1.
         11    1    3    3    0    0  0.19046178737E+02 -0.64380487851E+01 -0.31434012394E+01  0.20349112223E+02  0.51100000000E-03 0. -1.
        -11    1    3    3    0    0  0.95816698243E+01 -0.36890414025E+01  0.55912158559E+01  0.11690984479E+02  0.51100000000E-03 0.  1.
        -12    1    3    3    0    0  0.11720610778E+02  0.73493631077E+00  0.10490981371E+02  0.15747175573E+02  0.00000000000E+00 0.  1.
</event>
<event>
 7    1  0.2486105E-010  0.4778724E+02  0.7816164E-02  0.1312668E+00
        -11   -1    0    0    0    0  0.00000000000E+00  0.00000000000E+00  0.45593999997E+02  0.45594000000E+02  0.51100000000E-03 0. -1.
         11   -1    0    0    0    0 -0.00000000000E+00 -0.00000000000E+00 -0.45593999997E+02  0.45594000000E+02  0.51100000000E-03 0.  1.
    9900012    2    1    2    0    0  0.18314946467E+02  0.20250595654E+02 -0.33735768101E+02  0.47787240354E+02  0.19999860071E+02 0.  0.
         12    1    1    2    0    0 -0.18314946467E+02 -0.20250595654E+02  0.33735768101E+02  0.43400759646E+02  0.00000000000E+00 0. -1.
         11    1    3    3    0    0  0.14853883418E+01 -0.16902248620E+01 -0.34960027297E+01  0.41575562483E+01  0.51100000000E-03 0. -1.
        -11    1    3    3    0    0  0.72618858691E+01  0.96025700145E+01 -0.23933505761E+02  0.26790987954E+02  0.51100000000E-03 0.  1.
         12    1    3    3    0    0  0.95676722560E+01  0.12338250502E+02 -0.63062596105E+01  0.16838696152E+02  0.00000000000E+00 0. -1.
</event>
<event>
 7    1  0.2486105E-010  0.4778727E+02  0.7816164E-02  0.1312668E+00
        -11   -1    0    0    0    0  0.00000000000E+00  0.00000000000E+00  0.45593999997E+02  0.45594000000E+02  0.51100000000E-03 0.  1.
         11   -1    0    0    0    0 -0.00000000000E+00 -0.00000000000E+00 -0.45593999997E+02  0.45594000000E+02  0.51100000000E-03 0. -1.
    9900012    2    1    2    0    0  0.28856149293E+02 -0.19941157997E+02  0.25559657115E+02  0.47787271825E+02  0.20000003559E+02 0.  0.
         12    1    1    2    0    0 -0.28856149293E+02  0.19941157997E+02 -0.25559657115E+02  0.43400728175E+02  0.00000000000E+00 0. -1.
         11    1    3    3    0    0  0.18441255751E+02 -0.15028355921E+02  0.91502658546E+01  0.25488404439E+02  0.51100000000E-03 0. -1.
        -11    1    3    3    0    0  0.10255138529E+02 -0.47465876173E+01  0.79037756163E+01  0.13790127973E+02  0.51100000000E-03 0.  1.
        -12    1    3    3    0    0  0.15975501267E+00 -0.16621445891E+00  0.85056156444E+01  0.85087394132E+01  0.00000000000E+00 0.  1.
</event>
<event>
 7    1  0.2486105E-010  0.4778726E+02  0.7816164E-02  0.1312668E+00
        -11   -1    0    0    0    0  0.00000000000E+00  0.00000000000E+00  0.45593999997E+02  0.45594000000E+02  0.51100000000E-03 0.  1.
         11   -1    0    0    0    0 -0.00000000000E+00 -0.00000000000E+00 -0.45593999997E+02  0.45594000000E+02  0.51100000000E-03 0. -1.
    9900012    2    1    2    0    0 -0.39362262090E+02 -0.43095180069E+01  0.17766942124E+02  0.47787264352E+02  0.19999969488E+02 0.  0.
         12    1    1    2    0    0  0.39362262090E+02  0.43095180069E+01 -0.17766942124E+02  0.43400735648E+02  0.00000000000E+00 0. -1.
         11    1    3    3    0    0  0.83268697905E+00 -0.12104961344E+01 -0.10889088188E+01  0.18287676652E+01  0.51100000000E-03 0. -1.
        -11    1    3    3    0    0 -0.81100372501E+01  0.68811445149E+00  0.91025171312E+01  0.12210733970E+02  0.51100000000E-03 0.  1.
         12    1    3    3    0    0 -0.32084911819E+02 -0.37871363239E+01  0.97533338117E+01  0.33747762717E+02  0.00000000000E+00 0. -1.
</event>
<event>
 7    1  0.2486105E-010  0.4778727E+02  0.7816164E-02  0.1312668E+00
        -11   -1    0    0    0    0  0.00000000000E+00  0.00000000000E+00  0.45593999997E+02  0.45594000000E+02  0.51100000000E-03 0.  1.
         11   -1    0    0    0    0 -0.00000000000E+00 -0.00000000000E+00 -0.45593999997E+02  0.45594000000E+02  0.51100000000E-03 0. -1.
    9900012    2    1    2    0    0 -0.17835779957E+02 -0.25642348702E+02  0.30132671424E+02  0.47787274421E+02  0.20000015395E+02 0.  0.
         12    1    1    2    0    0  0.17835779957E+02  0.25642348702E+02 -0.30132671424E+02  0.43400725579E+02  0.00000000000E+00 0. -1.
         11    1    3    3    0    0 -0.58558672667E+01 -0.10212793538E+02  0.58435249773E+01  0.13143025440E+02  0.51100000000E-03 0.  1.
        -11    1    3    3    0    0 -0.19657197369E+01 -0.32796363189E+01 -0.17577737522E+01  0.42083057509E+01  0.51100000000E-03 0. -1.
        -12    1    3    3    0    0 -0.10014192953E+02 -0.12149918846E+02  0.26046920199E+02  0.30435943230E+02  0.00000000000E+00 0.  1.
</event>
<event>
 7    1  0.2486105E-010  0.4778727E+02  0.7816164E-02  0.1312668E+00
        -11   -1    0    0    0    0  0.00000000000E+00  0.00000000000E+00  0.45593999997E+02  0.45594000000E+02  0.51100000000E-03 0.  1.
         11   -1    0    0    0    0 -0.00000000000E+00 -0.00000000000E+00 -0.45593999997E+02  0.45594000000E+02  0.51100000000E-03 0. -1.
    9900012    2    1    2    0    0 -0.46292866637E+01  0.81928186763E+01  0.42368270778E+02  0.47787274873E+02  0.20000017455E+02 0.  0.
         12    1    1    2    0    0  0.46292866637E+01 -0.81928186763E+01 -0.42368270778E+02  0.43400725127E+02  0.00000000000E+00 0. -1.
         11    1    3    3    0    0  0.37724814660E+01  0.25347278110E+01  0.11706324759E+02  0.12557647117E+02  0.51100000000E-03 0. -1.
        -11    1    3    3    0    0  0.21728624794E+01 -0.24230423183E+01  0.25787087883E+01  0.41523733824E+01  0.51100000000E-03 0.  1.
        -12    1    3    3    0    0 -0.10574630609E+02  0.80811331836E+01  0.28083237230E+02  0.31077254373E+02  0.00000000000E+00 0.  1.
</event>
<event>
 7    1  0.2486105E-010  0.4778727E+02  0.7816164E-02  0.1312668E+00
        -11   -1    0    0    0    0  0.00000000000E+00  0.00000000000E+00  0.45593999997E+02  0.45594000000E+02  0.51100000000E-03 0.  1.
         11   -1    0    0    0    0 -0.00000000000E+00 -0.00000000000E+00 -0.45593999997E+02  0.45594000000E+02  0.51100000000E-03 0. -1.
    9900012    2    1    2    0    0  0.96641456144E+01 -0.21356560172E+02  0.36525678923E+02  0.47787267360E+02  0.19999983203E+02 0.  0.
         12    1    1    2    0    0 -0.96641456144E+01  0.21356560172E+02 -0.36525678923E+02  0.43400732640E+02  0.00000000000E+00 0. -1.
         11    1    3    3    0    0 -0.29256346213E+00 -0.30570258686E+01 -0.13185007813E+01  0.33420719789E+01  0.51100000000E-03 0. -1.
        -11    1    3    3    0    0  0.20417742406E+00 -0.34831381365E+01  0.11248543930E+01  0.36659565416E+01  0.51100000000E-03 0.  1.
        -12    1    3    3    0    0  0.97525316525E+01 -0.14816396167E+02  0.36719325312E+02  0.40779238840E+02  0.00000000000E+00 0.  1.
</event>
<event>
 7    1  0.2486105E-010  0.4778726E+02  0.7816164E-02  0.1312668E+00
        -11   -1    0    0    0    0  0.00000000000E+00  0.00000000000E+00  0.45593999997E+02  0.45594000000E+02  0.51100000000E-03 0.  1.
         11   -1    0    0    0    0 -0.00000000000E+00 -0.00000000000E+00 -0.45593999997E+02  0.45594000000E+02  0.51100000000E-03 0. -1.
    9900012    2    1    2    0    0  0.38845701056E+02  0.50448356702E+01  0.18686492645E+02  0.47787264237E+02  0.19999968960E+02 0.  0.
         12    1    1    2    0    0 -0.38845701056E+02 -0.50448356702E+01 -0.18686492645E+02  0.43400735763E+02  0.00000000000E+00 0. -1.
         11    1    3    3    0    0  0.15418072247E+02  0.70920197947E+01  0.48473693258E+01  0.17649665329E+02  0.51100000000E-03 0. -1.
        -11    1    3    3    0    0  0.97547404473E+00  0.26225545653E+01  0.46612663353E+01  0.54366116442E+01  0.51100000000E-03 0.  1.
        -12    1    3    3    0    0  0.22452154764E+02 -0.46697386898E+01  0.91778569837E+01  0.24700987264E+02  0.00000000000E+00 0.  1.
</event>
<event>
 7    1  0.2486105E-010  0.4778727E+02  0.7816164E-02  0.1312668E+00
        -11   -1    0    0    0    0  0.00000000000E+00  0.00000000000E+00  0.45593999997E+02  0.45594000000E+02  0.51100000000E-03 0.  1.
         11   -1    0    0    0    0 -0.00000000000E+00 -0.00000000000E+00 -0.45593999997E+02  0.45594000000E+02  0.51100000000E-03 0. -1.
    9900012    2    1    2    0    0  0.33081120764E+02 -0.22212883123E+02  0.17200304898E+02  0.47787271709E+02  0.20000003031E+02 0.  0.
         12    1    1    2    0    0 -0.33081120764E+02  0.22212883123E+02 -0.17200304898E+02  0.43400728291E+02  0.00000000000E+00 0. -1.
         11    1    3    3    0    0  0.21519985107E+01  0.71399669607E+00  0.38884204647E+00  0.23004537096E+01  0.51100000000E-03 0. -1.
        -11    1    3    3    0    0  0.10094094005E+02 -0.14563522910E+02  0.48345430369E+00  0.17726270382E+02  0.51100000000E-03 0.  1.
         12    1    3    3    0    0  0.20835028248E+02 -0.83633569083E+01  0.16328008548E+02  0.27760547617E+02  0.00000000000E+00 0. -1.
</event>
<event>
 7    1  0.2486105E-010  0.4778727E+02  0.7816164E-02  0.1312668E+00
        -11   -1    0    0    0    0  0.00000000000E+00  0.00000000000E+00  0.45593999997E+02  0.45594000000E+02  0.51100000000E-03 0.  1.
         11   -1    0    0    0    0 -0.00000000000E+00 -0.00000000000E+00 -0.45593999997E+02  0.45594000000E+02  0.51100000000E-03 0. -1.
    9900012    2    1    2    0    0 -0.30434395376E+02  0.27677153835E+02  0.13832792433E+02  0.47787269444E+02  0.19999992702E+02 0.  0.
         12    1    1    2    0    0  0.30434395376E+02 -0.27677153835E+02 -0.13832792433E+02  0.43400730556E+02  0.00000000000E+00 0. -1.
         11    1    3    3    0    0 -0.12439333010E+02  0.50790965877E+01 -0.22095417948E+01  0.13616765515E+02  0.51100000000E-03 0. -1.
        -11    1    3    3    0    0 -0.11996823104E+02  0.92926189657E+01  0.53982433154E+01  0.16106444766E+02  0.51100000000E-03 0.  1.
        -12    1    3    3    0    0 -0.59982392619E+01  0.13305438282E+02  0.10644090912E+02  0.18064059164E+02  0.00000000000E+00 0.  1.
</event>
<event>
 7    1  0.2486105E-010  0.4778727E+02  0.7816164E-02  0.1312668E+00
        -11   -1    0    0    0    0  0.00000000000E+00  0.00000000000E+00  0.45593999997E+02  0.45594000000E+02  0.51100000000E-03 0.  1.
         11   -1    0    0    0    0 -0.00000000000E+00 -0.00000000000E+00 -0.45593999997E+02  0.45594000000E+02  0.51100000000E-03 0. -1.
    9900012    2    1    2    0    0 -0.21211177629E+02  0.37731182776E+02 -0.31728344605E+01  0.47787273179E+02  0.20000009733E+02 0.  0.
         12    1    1    2    0    0  0.21211177629E+02 -0.37731182776E+02  0.31728344605E+01  0.43400726821E+02  0.00000000000E+00 0. -1.
         11    1    3    3    0    0 -0.30338139639E+01  0.12468457644E+02 -0.38102233385E+01  0.13385972708E+02  0.51100000000E-03 0. -1.
        -11    1    3    3    0    0 -0.17859616862E+01  0.13006644161E+02 -0.33508140266E+01  0.13549553733E+02  0.51100000000E-03 0.  1.
        -12    1    3    3    0    0 -0.16391401979E+02  0.12256080971E+02  0.39882029046E+01  0.20851746738E+02  0.00000000000E+00 0.  1.
</event>
<event>
 7    1  0.2486105E-010  0.4778727E+02  0.7816164E-02  0.1312668E+00
        -11   -1    0    0    0    0  0.00000000000E+00  0.00000000000E+00  0.45593999997E+02  0.45594000000E+02  0.51100000000E-03 0. -1.
         11   -1    0    0    0    0 -0.00000000000E+00 -0.00000000000E+00 -0.45593999997E+02  0.45594000000E+02  0.51100000000E-03 0.  1.
    9900012    2    1    2    0    0  0.23288884061E+02  0.30469439328E+02 -0.20319059933E+02  0.47787273619E+02  0.20000011740E+02 0.  0.
         12    1    1    2    0    0 -0.23288884061E+02 -0.30469439328E+02  0.20319059933E+02  0.43400726381E+02  0.00000000000E+00 0. -1.
         11    1    3    3    0    0 -0.46772332914E+00  0.23925311769E+01 -0.53155278262E+01  0.58478890958E+01  0.51100000000E-03 0. -1.
        -11    1    3    3    0    0  0.16855345964E+01  0.70583343012E+01 -0.77357898069E+01  0.10606769262E+02  0.51100000000E-03 0.  1.
         12    1    3    3    0    0  0.22071072794E+02  0.21018573850E+02 -0.72677423004E+01  0.31332615261E+02  0.00000000000E+00 0. -1.
</event>
<event>
 7    1  0.2486105E-010  0.4778727E+02  0.7816164E-02  0.1312668E+00
        -11   -1    0    0    0    0  0.00000000000E+00  0.00000000000E+00  0.45593999997E+02  0.45594000000E+02  0.51100000000E-03 0.  1.
         11   -1    0    0    0    0 -0.00000000000E+00 -0.00000000000E+00 -0.45593999997E+02  0.45594000000E+02  0.51100000000E-03 0. -1.
    9900012    2    1    2    0    0  0.41050767418E+02  0.72751534573E+01  0.12063567760E+02  0.47787273848E+02  0.20000012783E+02 0.  0.
         12    1    1    2    0    0 -0.41050767418E+02 -0.72751534573E+01 -0.12063567760E+02  0.43400726152E+02  0.00000000000E+00 0. -1.
         11    1    3    3    0    0  0.22771328502E+02  0.68075901455E+01  0.98666439137E+01  0.25733778341E+02  0.51100000000E-03 0. -1.
        -11    1    3    3    0    0  0.17175646018E+02  0.31182391425E+01  0.48779032193E+01  0.18125125422E+02  0.51100000000E-03 0.  1.
         12    1    3    3    0    0  0.11037928974E+01 -0.26506758307E+01 -0.26809793732E+01  0.39283700843E+01  0.00000000000E+00 0. -1.
</event>
<event>
 7    1  0.2486105E-010  0.4778727E+02  0.7816164E-02  0.1312668E+00
        -11   -1    0    0    0    0  0.00000000000E+00  0.00000000000E+00  0.45593999997E+02  0.45594000000E+02  0.51100000000E-03 0.  1.
         11   -1    0    0    0    0 -0.00000000000E+00 -0.00000000000E+00 -0.45593999997E+02  0.45594000000E+02  0.51100000000E-03 0. -1.
    9900012    2    1    2    0    0 -0.40350489023E+01 -0.42112350987E+02 -0.96897850922E+01  0.47787266591E+02  0.19999979697E+02 0.  0.
         12    1    1    2    0    0  0.40350489023E+01  0.42112350987E+02  0.96897850922E+01  0.43400733409E+02  0.00000000000E+00 0. -1.
         11    1    3    3    0    0 -0.28507596455E+01 -0.18602768428E+02 -0.11846279837E+02  0.22237899406E+02  0.51100000000E-03 0. -1.
        -11    1    3    3    0    0  0.28891337736E+01 -0.25638832658E+01 -0.97198430783E+00  0.39831325761E+01  0.51100000000E-03 0.  1.
        -12    1    3    3    0    0 -0.40734230305E+01 -0.20945699293E+02  0.31284790528E+01  0.21566234610E+02  0.00000000000E+00 0.  1.
</event>
<event>
 7    1  0.2486105E-010  0.4778728E+02  0.7816164E-02  0.1312668E+00
        -11   -1    0    0    0    0  0.00000000000E+00  0.00000000000E+00  0.45593999997E+02  0.45594000000E+02  0.51100000000E-03 0. -1.
         11   -1    0    0    0    0 -0.00000000000E+00 -0.00000000000E+00 -0.45593999997E+02  0.45594000000E+02  0.51100000000E-03 0.  1.
    9900012    2    1    2    0    0  0.40458598835E+02 -0.15398040321E+02 -0.31023914412E+01  0.47787277678E+02  0.20000030245E+02 0.  0.
         12    1    1    2    0    0 -0.40458598835E+02  0.15398040321E+02  0.31023914412E+01  0.43400722322E+02  0.00000000000E+00 0. -1.
         11    1    3    3    0    0  0.33005087848E+01 -0.47422706992E+01 -0.27249013871E+00  0.57841802150E+01  0.51100000000E-03 0. -1.
        -11    1    3    3    0    0  0.50950462165E+01  0.11775157862E+01 -0.56639169927E+01  0.77088258079E+01  0.51100000000E-03 0.  1.
         12    1    3    3    0    0  0.32063043834E+02 -0.11833285408E+02  0.28340156902E+01  0.34294271655E+02  0.00000000000E+00 0. -1.
</event>
<event>
 7    1  0.2486105E-010  0.4778727E+02  0.7816164E-02  0.1312668E+00
        -11   -1    0    0    0    0  0.00000000000E+00  0.00000000000E+00  0.45593999997E+02  0.45594000000E+02  0.51100000000E-03 0. -1.
         11   -1    0    0    0    0 -0.00000000000E+00 -0.00000000000E+00 -0.45593999997E+02  0.45594000000E+02  0.51100000000E-03 0.  1.
    9900012    2    1    2    0    0 -0.40196427710E+02 -0.14539756593E+02 -0.75143865913E+01  0.47787270418E+02  0.19999997145E+02 0.  0.
         12    1    1    2    0    0  0.40196427710E+02  0.14539756593E+02  0.75143865913E+01  0.43400729582E+02  0.00000000000E+00 0. -1.
         11    1    3    3    0    0 -0.91240407998E+00 -0.29331864303E+01 -0.14979569194E+01  0.34175925786E+01  0.51100000000E-03 0. -1.
        -11    1    3    3    0    0 -0.35762893056E+02 -0.13544637697E+02 -0.14261924976E+01  0.38268469467E+02  0.51100000000E-03 0.  1.
        -12    1    3    3    0    0 -0.35211305737E+01  0.19380675344E+01 -0.45902371743E+01  0.61012083722E+01  0.00000000000E+00 0.  1.
</event>
<event>
 7    1  0.2486105E-010  0.4778727E+02  0.7816164E-02  0.1312668E+00
        -11   -1    0    0    0    0  0.00000000000E+00  0.00000000000E+00  0.45593999997E+02  0.45594000000E+02  0.51100000000E-03 0.  1.
         11   -1    0    0    0    0 -0.00000000000E+00 -0.00000000000E+00 -0.45593999997E+02  0.45594000000E+02  0.51100000000E-03 0. -1.
    9900012    2    1    2    0    0  0.11151633918E+02 -0.35550005508E+02  0.22258958728E+02  0.47787273344E+02  0.20000010483E+02 0.  0.
         12    1    1    2    0    0 -0.11151633918E+02  0.35550005508E+02 -0.22258958728E+02  0.43400726656E+02  0.00000000000E+00 0. -1.
         11    1    3    3    0    0 -0.32732043945E+01 -0.74709727481E+01  0.10573187362E+02  0.13353710797E+02  0.51100000000E-03 0. -1.
        -11    1    3    3    0    0  0.58969573233E+01 -0.95157543462E+01  0.77861708966E+01  0.13636280429E+02  0.51100000000E-03 0.  1.
        -12    1    3    3    0    0  0.85278809894E+01 -0.18563278414E+02  0.38996004691E+01  0.20797282117E+02  0.00000000000E+00 0.  1.
</event>
<event>
 7    1  0.2486105E-010  0.4778727E+02  0.7816164E-02  0.1312668E+00
        -11   -1    0    0    0    0  0.00000000000E+00  0.00000000000E+00  0.45593999997E+02  0.45594000000E+02  0.51100000000E-03 0.  1.
         11   -1    0    0    0    0 -0.00000000000E+00 -0.00000000000E+00 -0.45593999997E+02  0.45594000000E+02  0.51100000000E-03 0. -1.
    9900012    2    1    2    0    0  0.12576930287E+02 -0.20652220109E+02  0.36040669403E+02  0.47787271643E+02  0.20000002730E+02 0.  0.
         12    1    1    2    0    0 -0.12576930287E+02  0.20652220109E+02 -0.36040669403E+02  0.43400728357E+02  0.00000000000E+00 0. -1.
         11    1    3    3    0    0  0.13319619735E+01  0.25682080839E+01  0.18122384590E+01  0.34137990501E+01  0.51100000000E-03 0. -1.
        -11    1    3    3    0    0  0.31788632989E+01 -0.20692296016E+01  0.12243644874E+02  0.12817711304E+02  0.51100000000E-03 0.  1.
        -12    1    3    3    0    0  0.80661050143E+01 -0.21151198591E+02  0.21984786070E+02  0.31555761289E+02  0.00000000000E+00 0.  1.
</event>
<event>
 7    1  0.2486105E-010  0.4778727E+02  0.7816164E-02  0.1312668E+00
        -11   -1    0    0    0    0  0.00000000000E+00  0.00000000000E+00  0.45593999997E+02  0.45594000000E+02  0.51100000000E-03 0.  1.
         11   -1    0    0    0    0 -0.00000000000E+00 -0.00000000000E+00 -0.45593999997E+02  0.45594000000E+02  0.51100000000E-03 0. -1.
    9900012    2    1    2    0    0  0.21603160566E+02 -0.25213682505E+02  0.27949903631E+02  0.47787269074E+02  0.19999991017E+02 0.  0.
         12    1    1    2    0    0 -0.21603160566E+02  0.25213682505E+02 -0.27949903631E+02  0.43400730926E+02  0.00000000000E+00 0. -1.
         11    1    3    3    0    0  0.50625127282E+01 -0.86241803659E+01  0.17855235897E+02  0.20464969369E+02  0.51100000000E-03 0. -1.
        -11    1    3    3    0    0  0.12636199930E+02 -0.13096674513E+02  0.11942281349E+02  0.21767280860E+02  0.51100000000E-03 0.  1.
         12    1    3    3    0    0  0.39044479086E+01 -0.34928276258E+01 -0.18476136147E+01  0.55550188446E+01  0.00000000000E+00 0. -1.
</event>
<event>
 7    1  0.2486105E-010  0.4778727E+02  0.7816164E-02  0.1312668E+00
        -11   -1    0    0    0    0  0.00000000000E+00  0.00000000000E+00  0.45593999997E+02  0.45594000000E+02  0.51100000000E-03 0.  1.
         11   -1    0    0    0    0 -0.00000000000E+00 -0.00000000000E+00 -0.45593999997E+02  0.45594000000E+02  0.51100000000E-03 0. -1.
    9900012    2    1    2    0    0 -0.24795302346E+02 -0.63345299856E+01  0.35052670328E+02  0.47787274365E+02  0.20000015140E+02 0.  0.
         12    1    1    2    0    0  0.24795302346E+02  0.63345299856E+01 -0.35052670328E+02  0.43400725635E+02  0.00000000000E+00 0. -1.
         11    1    3    3    0    0 -0.25807676073E+01 -0.21394255598E+01  0.11015426870E+02  0.11514214370E+02  0.51100000000E-03 0. -1.
        -11    1    3    3    0    0 -0.85231729729E+01 -0.30215905146E+01  0.20002133807E+02  0.21951306199E+02  0.51100000000E-03 0.  1.
         12    1    3    3    0    0 -0.13691361765E+02 -0.11735139112E+01  0.40351096506E+01  0.14321753796E+02  0.00000000000E+00 0. -1.
</event>
<event>
 7    1  0.2486105E-010  0.4778727E+02  0.7816164E-02  0.1312668E+00
        -11   -1    0    0    0    0  0.00000000000E+00  0.00000000000E+00  0.45593999997E+02  0.45594000000E+02  0.51100000000E-03 0.  1.
         11   -1    0    0    0    0 -0.00000000000E+00 -0.00000000000E+00 -0.45593999997E+02  0.45594000000E+02  0.51100000000E-03 0. -1.
    9900012    2    1    2    0    0  0.79287798057E+01  0.96861033383E+01  0.41556433554E+02  0.47787270550E+02  0.19999997746E+02 0.  0.
         12    1    1    2    0    0 -0.79287798057E+01 -0.96861033383E+01 -0.41556433554E+02  0.43400729450E+02  0.00000000000E+00 0. -1.
         11    1    3    3    0    0 -0.23112808943E+01  0.53261962678E+01  0.23939362119E+02  0.24633380705E+02  0.51100000000E-03 0. -1.
        -11    1    3    3    0    0  0.62974276201E+01  0.24826093778E+01  0.17524216793E+02  0.18786141659E+02  0.51100000000E-03 0.  1.
         12    1    3    3    0    0  0.39426330799E+01  0.18772976927E+01  0.92854641562E-01  0.43677481858E+01  0.00000000000E+00 0. -1.
</event>
<event>
 7    1  0.2486105E-010  0.4778727E+02  0.7816164E-02  0.1312668E+00
        -11   -1    0    0    0    0  0.00000000000E+00  0.00000000000E+00  0.45593999997E+02  0.45594000000E+02  0.51100000000E-03 0.  1.
         11   -1    0    0    0    0 -0.00000000000E+00 -0.00000000000E+00 -0.45593999997E+02  0.45594000000E+02  0.51100000000E-03 0. -1.
    9900012    2    1    2    0    0  0.21586025973E+02 -0.35277148764E+02  0.13160155854E+02  0.47787269081E+02  0.19999991047E+02 0.  0.
         12    1    1    2    0    0 -0.21586025973E+02  0.35277148764E+02 -0.13160155854E+02  0.43400730919E+02  0.00000000000E+00 0. -1.
         11    1    3    3    0    0  0.62902045557E+01 -0.13805842660E+02  0.10317785732E+02  0.18347334072E+02  0.51100000000E-03 0.  1.
        -11    1    3    3    0    0  0.14878106907E+02 -0.18510813658E+02  0.65895952333E+01  0.24646116388E+02  0.51100000000E-03 0. -1.
        -12    1    3    3    0    0  0.41771451098E+00 -0.29604924460E+01 -0.37472251107E+01  0.47938186204E+01  0.00000000000E+00 0.  1.
</event>
<event>
 7    1  0.2486105E-010  0.4778727E+02  0.7816164E-02  0.1312668E+00
        -11   -1    0    0    0    0  0.00000000000E+00  0.00000000000E+00  0.45593999997E+02  0.45594000000E+02  0.51100000000E-03 0.  1.
         11   -1    0    0    0    0 -0.00000000000E+00 -0.00000000000E+00 -0.45593999997E+02  0.45594000000E+02  0.51100000000E-03 0. -1.
    9900012    2    1    2    0    0 -0.37418075799E+02  0.21881969499E+02 -0.21656602743E+01  0.47787273393E+02  0.20000010706E+02 0.  0.
         12    1    1    2    0    0  0.37418075799E+02 -0.21881969499E+02  0.21656602743E+01  0.43400726607E+02  0.00000000000E+00 0. -1.
         11    1    3    3    0    0 -0.58027558454E+00  0.27962424301E+01  0.88507309111E+00  0.29898237606E+01  0.51100000000E-03 0. -1.
        -11    1    3    3    0    0 -0.22666087752E+02  0.20296385392E+02 -0.30131266993E+01  0.30574069515E+02  0.51100000000E-03 0.  1.
         12    1    3    3    0    0 -0.14171712462E+02 -0.12106583230E+01 -0.37606666149E-01  0.14223380117E+02  0.00000000000E+00 0. -1.
</event>
<event>
 7    1  0.2486105E-010  0.4778727E+02  0.7816164E-02  0.1312668E+00
        -11   -1    0    0    0    0  0.00000000000E+00  0.00000000000E+00  0.45593999997E+02  0.45594000000E+02  0.51100000000E-03 0. -1.
         11   -1    0    0    0    0 -0.00000000000E+00 -0.00000000000E+00 -0.45593999997E+02  0.45594000000E+02  0.51100000000E-03 0.  1.
    9900012    2    1    2    0    0  0.13431196250E+02 -0.19593005572E+02 -0.36322726290E+02  0.47787270222E+02  0.19999996252E+02 0.  0.
         12    1    1    2    0    0 -0.13431196250E+02  0.19593005572E+02  0.36322726290E+02  0.43400729778E+02  0.00000000000E+00 0. -1.
         11    1    3    3    0    0  0.79365611268E+01 -0.48791736041E+01 -0.22543461893E+02  0.24392683574E+02  0.51100000000E-03 0. -1.
        -11    1    3    3    0    0  0.56514467454E+01 -0.99486836342E+01 -0.14607799935E+02  0.18555402867E+02  0.51100000000E-03 0.  1.
         12    1    3    3    0    0 -0.15681162169E+00 -0.47651483340E+01  0.82853553742E+00  0.48391837810E+01  0.00000000000E+00 0. -1.
</event>
<event>
 7    1  0.2486105E-010  0.4778725E+02  0.7816164E-02  0.1312668E+00
        -11   -1    0    0    0    0  0.00000000000E+00  0.00000000000E+00  0.45593999997E+02  0.45594000000E+02  0.51100000000E-03 0.  1.
         11   -1    0    0    0    0 -0.00000000000E+00 -0.00000000000E+00 -0.45593999997E+02  0.45594000000E+02  0.51100000000E-03 0. -1.
    9900012    2    1    2    0    0 -0.42277598972E+02  0.97122330304E+01 -0.13793047378E+01  0.47787247394E+02  0.19999892166E+02 0.  0.
         12    1    1    2    0    0  0.42277598972E+02 -0.97122330304E+01  0.13793047378E+01  0.43400752606E+02  0.00000000000E+00 0. -1.
         11    1    3    3    0    0 -0.26689081666E+02  0.34580644293E+01  0.38735135132E+01  0.27189508950E+02  0.51100000000E-03 0. -1.
        -11    1    3    3    0    0 -0.15001825222E+02  0.14660483612E+01 -0.43670797197E+01  0.15693165498E+02  0.51100000000E-03 0.  1.
         12    1    3    3    0    0 -0.58669208356E+00  0.47881202400E+01 -0.88573853127E+00  0.49045729456E+01  0.00000000000E+00 0. -1.
</event>
<event>
 7    1  0.2486105E-010  0.4778727E+02  0.7816164E-02  0.1312668E+00
        -11   -1    0    0    0    0  0.00000000000E+00  0.00000000000E+00  0.45593999997E+02  0.45594000000E+02  0.51100000000E-03 0. -1.
         11   -1    0    0    0    0 -0.00000000000E+00 -0.00000000000E+00 -0.45593999997E+02  0.45594000000E+02  0.51100000000E-03 0.  1.
    9900012    2    1    2    0    0 -0.55899652350E+01  0.18795419670E+02 -0.38718317879E+02  0.47787266696E+02  0.19999980175E+02 0.  0.
         12    1    1    2    0    0  0.55899652350E+01 -0.18795419670E+02  0.38718317879E+02  0.43400733304E+02  0.00000000000E+00 0. -1.
         11    1    3    3    0    0  0.62730844598E+01  0.37908806304E+01 -0.78063029929E+01  0.10707975125E+02  0.51100000000E-03 0. -1.
        -11    1    3    3    0    0 -0.11543520733E+01  0.36012929666E+01 -0.21808731585E+01  0.43655523974E+01  0.51100000000E-03 0.  1.
         12    1    3    3    0    0 -0.10708697622E+02  0.11403246073E+02 -0.28731141728E+02  0.32713739174E+02  0.00000000000E+00 0. -1.
</event>
<event>
 7    1  0.2486105E-010  0.4778727E+02  0.7816164E-02  0.1312668E+00
        -11   -1    0    0    0    0  0.00000000000E+00  0.00000000000E+00  0.45593999997E+02  0.45594000000E+02  0.51100000000E-03 0.  1.
         11   -1    0    0    0    0 -0.00000000000E+00 -0.00000000000E+00 -0.45593999997E+02  0.45594000000E+02  0.51100000000E-03 0. -1.
    9900012    2    1    2    0    0 -0.16254862237E+02 -0.35697670860E+02  0.18576302921E+02  0.47787270958E+02  0.19999999608E+02 0.  0.
         12    1    1    2    0    0  0.16254862237E+02  0.35697670860E+02 -0.18576302921E+02  0.43400729042E+02  0.00000000000E+00 0. -1.
         11    1    3    3    0    0 -0.23813924979E+01 -0.89721366424E+01  0.47703297415E+01  0.10436776910E+02  0.51100000000E-03 0. -1.
        -11    1    3    3    0    0 -0.26901773046E+01 -0.51237268395E+01  0.11553071157E+02  0.12921419584E+02  0.51100000000E-03 0.  1.
         12    1    3    3    0    0 -0.11183292435E+02 -0.21601807378E+02  0.22529020222E+01  0.24429074464E+02  0.00000000000E+00 0. -1.
</event>
<event>
 7    1  0.2486105E-010  0.4778727E+02  0.7816164E-02  0.1312668E+00
        -11   -1    0    0    0    0  0.00000000000E+00  0.00000000000E+00  0.45593999997E+02  0.45594000000E+02  0.51100000000E-03 0. -1.
         11   -1    0    0    0    0 -0.00000000000E+00 -0.00000000000E+00 -0.45593999997E+02  0.45594000000E+02  0.51100000000E-03 0.  1.
    9900012    2    1    2    0    0 -0.96069692830E+01 -0.12838725596E+02 -0.40329844173E+02  0.47787273454E+02  0.20000010987E+02 0.  0.
         12    1    1    2    0    0  0.96069692830E+01  0.12838725596E+02  0.40329844173E+02  0.43400726546E+02  0.00000000000E+00 0. -1.
         11    1    3    3    0    0 -0.27773734510E+01 -0.11767842045E+01 -0.24287477240E+02  0.24474071490E+02  0.51100000000E-03 0. -1.
        -11    1    3    3    0    0 -0.33502848934E+01 -0.82058770609E+01 -0.16133925041E+02  0.18408268922E+02  0.51100000000E-03 0.  1.
         12    1    3    3    0    0 -0.34793109386E+01 -0.34560643303E+01  0.91558108690E-01  0.49049330424E+01  0.00000000000E+00 0. -1.
</event>
<event>
 7    1  0.2486105E-010  0.4778727E+02  0.7816164E-02  0.1312668E+00
        -11   -1    0    0    0    0  0.00000000000E+00  0.00000000000E+00  0.45593999997E+02  0.45594000000E+02  0.51100000000E-03 0. -1.
         11   -1    0    0    0    0 -0.00000000000E+00 -0.00000000000E+00 -0.45593999997E+02  0.45594000000E+02  0.51100000000E-03 0.  1.
    9900012    2    1    2    0    0 -0.19540102471E+02  0.18244889693E+02 -0.34189641845E+02  0.47787271734E+02  0.20000003145E+02 0.  0.
         12    1    1    2    0    0  0.19540102471E+02 -0.18244889693E+02  0.34189641845E+02  0.43400728266E+02  0.00000000000E+00 0. -1.
         11    1    3    3    0    0 -0.11987703479E+02  0.57708331040E+01 -0.18030893890E+02  0.22408049539E+02  0.51100000000E-03 0.  1.
        -11    1    3    3    0    0 -0.46386493667E+01  0.19381473366E+01 -0.13094634509E+02  0.14026508340E+02  0.51100000000E-03 0. -1.
         12    1    3    3    0    0 -0.29137496258E+01  0.10535909252E+02 -0.30641134462E+01  0.11352713855E+02  0.00000000000E+00 0. -1.
</event>
<event>
 7    1  0.2486105E-010  0.4778727E+02  0.7816164E-02  0.1312668E+00
        -11   -1    0    0    0    0  0.00000000000E+00  0.00000000000E+00  0.45593999997E+02  0.45594000000E+02  0.51100000000E-03 0. -1.
         11   -1    0    0    0    0 -0.00000000000E+00 -0.00000000000E+00 -0.45593999997E+02  0.45594000000E+02  0.51100000000E-03 0.  1.
    9900012    2    1    2    0    0 -0.18113099363E+02 -0.39322839713E+02 -0.30418981363E+01  0.47787271482E+02  0.20000001993E+02 0.  0.
         12    1    1    2    0    0  0.18113099363E+02  0.39322839713E+02  0.30418981363E+01  0.43400728518E+02  0.00000000000E+00 0. -1.
         11    1    3    3    0    0 -0.11036300195E+01 -0.73728151783E+00 -0.19277925811E+01  0.23405058755E+01  0.51100000000E-03 0. -1.
        -11    1    3    3    0    0 -0.44705608544E+01 -0.68416158008E+01  0.65412322547E+01  0.10468110660E+02  0.51100000000E-03 0.  1.
        -12    1    3    3    0    0 -0.12538908489E+02 -0.31743942395E+02 -0.76553378099E+01  0.34978654946E+02  0.00000000000E+00 0.  1.
</event>
<event>
 7    1  0.2486105E-010  0.4778727E+02  0.7816164E-02  0.1312668E+00
        -11   -1    0    0    0    0  0.00000000000E+00  0.00000000000E+00  0.45593999997E+02  0.45594000000E+02  0.51100000000E-03 0.  1.
         11   -1    0    0    0    0 -0.00000000000E+00 -0.00000000000E+00 -0.45593999997E+02  0.45594000000E+02  0.51100000000E-03 0. -1.
    9900012    2    1    2    0    0  0.26557187949E+02  0.34265498134E+02  0.20530013332E+01  0.47787269492E+02  0.19999992924E+02 0.  0.
         12    1    1    2    0    0 -0.26557187949E+02 -0.34265498134E+02 -0.20530013332E+01  0.43400730508E+02  0.00000000000E+00 0. -1.
         11    1    3    3    0    0  0.54488012448E+01 -0.96616408571E+00  0.10211210790E+01  0.56272192569E+01  0.51100000000E-03 0.  1.
        -11    1    3    3    0    0  0.16422647115E+01 -0.38791996055E-01  0.90221806194E+00  0.18741760573E+01  0.51100000000E-03 0. -1.
        -12    1    3    3    0    0  0.19466121993E+02  0.35270454216E+02  0.12966219226E+00  0.40285874178E+02  0.00000000000E+00 0.  1.
</event>
<event>
 7    1  0.2486105E-010  0.4778727E+02  0.7816164E-02  0.1312668E+00
        -11   -1    0    0    0    0  0.00000000000E+00  0.00000000000E+00  0.45593999997E+02  0.45594000000E+02  0.51100000000E-03 0.  1.
         11   -1    0    0    0    0 -0.00000000000E+00 -0.00000000000E+00 -0.45593999997E+02  0.45594000000E+02  0.51100000000E-03 0. -1.
    9900012    2    1    2    0    0 -0.37998309787E+02 -0.17572763924E+02  0.11443322709E+02  0.47787271743E+02  0.20000003187E+02 0.  0.
         12    1    1    2    0    0  0.37998309787E+02  0.17572763924E+02 -0.11443322709E+02  0.43400728257E+02  0.00000000000E+00 0. -1.
         11    1    3    3    0    0 -0.28258400235E+00  0.20399037133E+01  0.17665434267E+01  0.27132520741E+01  0.51100000000E-03 0. -1.
        -11    1    3    3    0    0 -0.15049611554E+02 -0.49315460817E+01  0.86587304196E+01  0.18049503246E+02  0.51100000000E-03 0.  1.
        -12    1    3    3    0    0 -0.22666114230E+02 -0.14681121556E+02  0.10180488624E+01  0.27024516424E+02  0.00000000000E+00 0.  1.
</event>
<event>
 7    1  0.2486105E-010  0.4778727E+02  0.7816164E-02  0.1312668E+00
        -11   -1    0    0    0    0  0.00000000000E+00  0.00000000000E+00  0.45593999997E+02  0.45594000000E+02  0.51100000000E-03 0.  1.
         11   -1    0    0    0    0 -0.00000000000E+00 -0.00000000000E+00 -0.45593999997E+02  0.45594000000E+02  0.51100000000E-03 0. -1.
    9900012    2    1    2    0    0 -0.34071704823E+02  0.12416342076E+02  0.23844843398E+02  0.47787272163E+02  0.20000005102E+02 0.  0.
         12    1    1    2    0    0  0.34071704823E+02 -0.12416342076E+02 -0.23844843398E+02  0.43400727837E+02  0.00000000000E+00 0. -1.
         11    1    3    3    0    0 -0.32048354383E+01  0.16897665522E+01 -0.12467247727E+01  0.38315276468E+01  0.51100000000E-03 0. -1.
        -11    1    3    3    0    0 -0.16138155392E+02  0.94481052653E+01  0.56575822384E+01  0.19537527725E+02  0.51100000000E-03 0.  1.
         12    1    3    3    0    0 -0.14728713993E+02  0.12784702580E+01  0.19433985932E+02  0.24418216792E+02  0.00000000000E+00 0. -1.
</event>
<event>
 7    1  0.2486105E-010  0.4778727E+02  0.7816164E-02  0.1312668E+00
        -11   -1    0    0    0    0  0.00000000000E+00  0.00000000000E+00  0.45593999997E+02  0.45594000000E+02  0.51100000000E-03 0. -1.
         11   -1    0    0    0    0 -0.00000000000E+00 -0.00000000000E+00 -0.45593999997E+02  0.45594000000E+02  0.51100000000E-03 0.  1.
    9900012    2    1    2    0    0 -0.24600277838E+01 -0.21396076593E+02 -0.37679960229E+02  0.47787271514E+02  0.20000002141E+02 0.  0.
         12    1    1    2    0    0  0.24600277838E+01  0.21396076593E+02  0.37679960229E+02  0.43400728486E+02  0.00000000000E+00 0. -1.
         11    1    3    3    0    0  0.29232772105E+01 -0.45272900578E+01 -0.48137362810E+01  0.72259229280E+01  0.51100000000E-03 0. -1.
        -11    1    3    3    0    0  0.45873822783E+01 -0.11137047664E+02 -0.14023442014E+02  0.18486071324E+02  0.51100000000E-03 0.  1.
         12    1    3    3    0    0 -0.99706872726E+01 -0.57317388717E+01 -0.18842781934E+02  0.22075277262E+02  0.00000000000E+00 0. -1.
</event>
<event>
 7    1  0.2486105E-010  0.4778728E+02  0.7816164E-02  0.1312668E+00
        -11   -1    0    0    0    0  0.00000000000E+00  0.00000000000E+00  0.45593999997E+02  0.45594000000E+02  0.51100000000E-03 0.  1.
         11   -1    0    0    0    0 -0.00000000000E+00 -0.00000000000E+00 -0.45593999997E+02  0.45594000000E+02  0.51100000000E-03 0. -1.
    9900012    2    1    2    0    0  0.36791000239E+02  0.22101253668E+02 -0.64482218606E+01  0.47787277915E+02  0.20000031326E+02 0.  0.
         12    1    1    2    0    0 -0.36791000239E+02 -0.22101253668E+02  0.64482218606E+01  0.43400722085E+02  0.00000000000E+00 0. -1.
         11    1    3    3    0    0 -0.42077980211E+00  0.21762525340E+01  0.10976351639E+01  0.24734457640E+01  0.51100000000E-03 0. -1.
        -11    1    3    3    0    0  0.21268463423E+02  0.80931227780E+01  0.27966687652E+01  0.22927440527E+02  0.51100000000E-03 0.  1.
         12    1    3    3    0    0  0.15943316618E+02  0.11831878356E+02 -0.10342525790E+02  0.22386391624E+02  0.00000000000E+00 0. -1.
</event>
<event>
 7    1  0.2486105E-010  0.4778726E+02  0.7816164E-02  0.1312668E+00
        -11   -1    0    0    0    0  0.00000000000E+00  0.00000000000E+00  0.45593999997E+02  0.45594000000E+02  0.51100000000E-03 0. -1.
         11   -1    0    0    0    0 -0.00000000000E+00 -0.00000000000E+00 -0.45593999997E+02  0.45594000000E+02  0.51100000000E-03 0.  1.
    9900012    2    1    2    0    0 -0.10412793527E+01 -0.14550391219E+02 -0.40875741787E+02  0.47787257910E+02  0.19999940114E+02 0.  0.
         12    1    1    2    0    0  0.10412793527E+01  0.14550391219E+02  0.40875741787E+02  0.43400742090E+02  0.00000000000E+00 0. -1.
         11    1    3    3    0    0  0.53292283975E+01 -0.41734685833E+01 -0.12961984687E+02  0.14622980634E+02  0.51100000000E-03 0.  1.
        -11    1    3    3    0    0  0.89081601359E+00 -0.14254147555E+01 -0.17651987388E+02  0.17731836324E+02  0.51100000000E-03 0. -1.
         12    1    3    3    0    0 -0.72613237637E+01 -0.89515078801E+01 -0.10261769712E+02  0.15432440953E+02  0.00000000000E+00 0. -1.
</event>
<event>
 7    1  0.2486105E-010  0.4778727E+02  0.7816164E-02  0.1312668E+00
        -11   -1    0    0    0    0  0.00000000000E+00  0.00000000000E+00  0.45593999997E+02  0.45594000000E+02  0.51100000000E-03 0.  1.
         11   -1    0    0    0    0 -0.00000000000E+00 -0.00000000000E+00 -0.45593999997E+02  0.45594000000E+02  0.51100000000E-03 0. -1.
    9900012    2    1    2    0    0 -0.52730555045E+01 -0.25147553905E+01  0.43005743093E+02  0.47787273646E+02  0.20000011863E+02 0.  0.
         12    1    1    2    0    0  0.52730555045E+01  0.25147553905E+01 -0.43005743093E+02  0.43400726354E+02  0.00000000000E+00 0. -1.
         11    1    3    3    0    0  0.39709313358E+01 -0.62215700714E+01  0.27685401178E+02  0.28652358864E+02  0.51100000000E-03 0.  1.
        -11    1    3    3    0    0 -0.58071805363E+00 -0.11251831741E+01  0.33934148938E+01  0.36219518958E+01  0.51100000000E-03 0. -1.
        -12    1    3    3    0    0 -0.86632687867E+01  0.48319978550E+01  0.11926927021E+02  0.15512962886E+02  0.00000000000E+00 0.  1.
</event>
<event>
 7    1  0.2486105E-010  0.4778727E+02  0.7816164E-02  0.1312668E+00
        -11   -1    0    0    0    0  0.00000000000E+00  0.00000000000E+00  0.45593999997E+02  0.45594000000E+02  0.51100000000E-03 0. -1.
         11   -1    0    0    0    0 -0.00000000000E+00 -0.00000000000E+00 -0.45593999997E+02  0.45594000000E+02  0.51100000000E-03 0.  1.
    9900012    2    1    2    0    0 -0.13713813891E+02 -0.29662620417E+02 -0.28560179632E+02  0.47787267264E+02  0.19999982762E+02 0.  0.
         12    1    1    2    0    0  0.13713813891E+02  0.29662620417E+02  0.28560179632E+02  0.43400732736E+02  0.00000000000E+00 0. -1.
         11    1    3    3    0    0 -0.57185739080E+01 -0.92728047132E+00 -0.93818001061E+01  0.11026337112E+02  0.51100000000E-03 0. -1.
        -11    1    3    3    0    0 -0.67119548488E+01 -0.22263966187E+02 -0.19211968216E+02  0.30163458874E+02  0.51100000000E-03 0.  1.
        -12    1    3    3    0    0 -0.12832851344E+01 -0.64713737582E+01  0.33588689971E-01  0.65974712773E+01  0.00000000000E+00 0.  1.
</event>
<event>
 7    1  0.2486105E-010  0.4778727E+02  0.7816164E-02  0.1312668E+00
        -11   -1    0    0    0    0  0.00000000000E+00  0.00000000000E+00  0.45593999997E+02  0.45594000000E+02  0.51100000000E-03 0.  1.
         11   -1    0    0    0    0 -0.00000000000E+00 -0.00000000000E+00 -0.45593999997E+02  0.45594000000E+02  0.51100000000E-03 0. -1.
    9900012    2    1    2    0    0  0.10154245521E+02 -0.42173180933E+02  0.13918925785E+01  0.47787271238E+02  0.20000000883E+02 0.  0.
         12    1    1    2    0    0 -0.10154245521E+02  0.42173180933E+02 -0.13918925785E+01  0.43400728762E+02  0.00000000000E+00 0. -1.
         11    1    3    3    0    0  0.19177601689E+01 -0.11491093270E+02  0.36595673225E+01  0.12211284202E+02  0.51100000000E-03 0. -1.
        -11    1    3    3    0    0 -0.46349975060E+01 -0.75086187130E+01 -0.20858754392E+01  0.90671623713E+01  0.51100000000E-03 0.  1.
        -12    1    3    3    0    0  0.12871482858E+02 -0.23173468950E+02 -0.18179930482E+00  0.26508824665E+02  0.00000000000E+00 0.  1.
</event>
<event>
 7    1  0.2486105E-010  0.4778727E+02  0.7816164E-02  0.1312668E+00
        -11   -1    0    0    0    0  0.00000000000E+00  0.00000000000E+00  0.45593999997E+02  0.45594000000E+02  0.51100000000E-03 0.  1.
         11   -1    0    0    0    0 -0.00000000000E+00 -0.00000000000E+00 -0.45593999997E+02  0.45594000000E+02  0.51100000000E-03 0. -1.
    9900012    2    1    2    0    0  0.15874301470E+02 -0.17918912947E+02  0.36201415102E+02  0.47787270239E+02  0.19999996328E+02 0.  0.
         12    1    1    2    0    0 -0.15874301470E+02  0.17918912947E+02 -0.36201415102E+02  0.43400729761E+02  0.00000000000E+00 0. -1.
         11    1    3    3    0    0  0.26091581977E+01 -0.99498289064E+01  0.71092870467E+01  0.12503949949E+02  0.51100000000E-03 0. -1.
        -11    1    3    3    0    0  0.12506890267E+02 -0.88797252171E+01  0.16098838040E+02  0.22236106012E+02  0.51100000000E-03 0.  1.
         12    1    3    3    0    0  0.75825300568E+00  0.91064117660E+00  0.12993290016E+02  0.13047214278E+02  0.00000000000E+00 0. -1.
</event>
<event>
 7    1  0.2486105E-010  0.4778727E+02  0.7816164E-02  0.1312668E+00
        -11   -1    0    0    0    0  0.00000000000E+00  0.00000000000E+00  0.45593999997E+02  0.45594000000E+02  0.51100000000E-03 0.  1.
         11   -1    0    0    0    0 -0.00000000000E+00 -0.00000000000E+00 -0.45593999997E+02  0.45594000000E+02  0.51100000000E-03 0. -1.
    9900012    2    1    2    0    0 -0.38557987971E+02 -0.18521957107E+02  0.73376998448E+01  0.47787272236E+02  0.20000005433E+02 0.  0.
         12    1    1    2    0    0  0.38557987971E+02  0.18521957107E+02 -0.73376998448E+01  0.43400727764E+02  0.00000000000E+00 0. -1.
         11    1    3    3    0    0 -0.20704310841E+01 -0.36502365115E+01 -0.11894066793E+01  0.43618344735E+01  0.51100000000E-03 0. -1.
        -11    1    3    3    0    0 -0.23752063344E+02 -0.16443985696E+02  0.18199401603E+01  0.28946111330E+02  0.51100000000E-03 0.  1.
        -12    1    3    3    0    0 -0.12735493542E+02  0.15722651005E+01  0.67071663637E+01  0.14479326433E+02  0.00000000000E+00 0.  1.
</event>
<event>
 7    1  0.2486105E-010  0.4778727E+02  0.7816164E-02  0.1312668E+00
        -11   -1    0    0    0    0  0.00000000000E+00  0.00000000000E+00  0.45593999997E+02  0.45594000000E+02  0.51100000000E-03 0. -1.
         11   -1    0    0    0    0 -0.00000000000E+00 -0.00000000000E+00 -0.45593999997E+02  0.45594000000E+02  0.51100000000E-03 0.  1.
    9900012    2    1    2    0    0 -0.56630990722E+01  0.43023887818E+02 -0.70539630679E+00  0.47787271918E+02  0.20000003983E+02 0.  0.
         12    1    1    2    0    0  0.56630990722E+01 -0.43023887818E+02  0.70539630679E+00  0.43400728082E+02  0.00000000000E+00 0. -1.
         11    1    3    3    0    0 -0.52638812948E+01  0.12988998797E+02 -0.43141242820E+01  0.14664044620E+02  0.51100000000E-03 0. -1.
        -11    1    3    3    0    0 -0.68172356622E+01  0.18546376179E+02  0.18370997721E+01  0.19844840822E+02  0.51100000000E-03 0.  1.
         12    1    3    3    0    0  0.64180178848E+01  0.11488512843E+02  0.17716282031E+01  0.13278386476E+02  0.00000000000E+00 0. -1.
</event>
<event>
 7    1  0.2486105E-010  0.4778727E+02  0.7816164E-02  0.1312668E+00
        -11   -1    0    0    0    0  0.00000000000E+00  0.00000000000E+00  0.45593999997E+02  0.45594000000E+02  0.51100000000E-03 0.  1.
         11   -1    0    0    0    0 -0.00000000000E+00 -0.00000000000E+00 -0.45593999997E+02  0.45594000000E+02  0.51100000000E-03 0. -1.
    9900012    2    1    2    0    0 -0.15978721347E+02  0.21246303550E+02  0.34305953005E+02  0.47787270029E+02  0.19999995371E+02 0.  0.
         12    1    1    2    0    0  0.15978721347E+02 -0.21246303550E+02 -0.34305953005E+02  0.43400729971E+02  0.00000000000E+00 0. -1.
         11    1    3    3    0    0 -0.33014070753E+01  0.29479655089E+01  0.14600966024E+01  0.46606514210E+01  0.51100000000E-03 0.  1.
        -11    1    3    3    0    0  0.36455427323E+01  0.70048868912E+01  0.71122142271E+01  0.10627418014E+02  0.51100000000E-03 0. -1.
        -12    1    3    3    0    0 -0.16322857004E+02  0.11293451150E+02  0.25733642176E+02  0.32499200594E+02  0.00000000000E+00 0.  1.
</event>
<event>
 7    1  0.2486105E-010  0.4778727E+02  0.7816164E-02  0.1312668E+00
        -11   -1    0    0    0    0  0.00000000000E+00  0.00000000000E+00  0.45593999997E+02  0.45594000000E+02  0.51100000000E-03 0. -1.
         11   -1    0    0    0    0 -0.00000000000E+00 -0.00000000000E+00 -0.45593999997E+02  0.45594000000E+02  0.51100000000E-03 0.  1.
    9900012    2    1    2    0    0 -0.39721079503E+02  0.50219791651E-01 -0.17488758115E+02  0.47787270291E+02  0.19999996564E+02 0.  0.
         12    1    1    2    0    0  0.39721079503E+02 -0.50219791651E-01  0.17488758115E+02  0.43400729709E+02  0.00000000000E+00 0. -1.
         11    1    3    3    0    0 -0.11431143762E+02  0.56421283593E+01 -0.75230838286E+01  0.14802075891E+02  0.51100000000E-03 0. -1.
        -11    1    3    3    0    0 -0.18270138107E+02 -0.29820072992E+01 -0.12485499704E+02  0.22328860631E+02  0.51100000000E-03 0.  1.
         12    1    3    3    0    0 -0.10019797634E+02 -0.26099012685E+01  0.25198254174E+01  0.10656333768E+02  0.00000000000E+00 0. -1.
</event>
<event>
 7    1  0.2486105E-010  0.4778727E+02  0.7816164E-02  0.1312668E+00
        -11   -1    0    0    0    0  0.00000000000E+00  0.00000000000E+00  0.45593999997E+02  0.45594000000E+02  0.51100000000E-03 0.  1.
         11   -1    0    0    0    0 -0.00000000000E+00 -0.00000000000E+00 -0.45593999997E+02  0.45594000000E+02  0.51100000000E-03 0. -1.
    9900012    2    1    2    0    0  0.14197283320E+02  0.62224725569E+00  0.41008210863E+02  0.47787269551E+02  0.19999993191E+02 0.  0.
         12    1    1    2    0    0 -0.14197283320E+02 -0.62224725569E+00 -0.41008210863E+02  0.43400730449E+02  0.00000000000E+00 0. -1.
         11    1    3    3    0    0  0.80733626143E+01  0.85017006599E+00  0.50381804799E+01  0.95543307381E+01  0.51100000000E-03 0. -1.
        -11    1    3    3    0    0 -0.11524849427E+01 -0.88445167589E+00 -0.75247767014E-01  0.14546954313E+01  0.51100000000E-03 0.  1.
        -12    1    3    3    0    0  0.72764056481E+01  0.65652886559E+00  0.36045278150E+02  0.36778243382E+02  0.00000000000E+00 0.  1.
</event>
<event>
 7    1  0.2486105E-010  0.4778727E+02  0.7816164E-02  0.1312668E+00
        -11   -1    0    0    0    0  0.00000000000E+00  0.00000000000E+00  0.45593999997E+02  0.45594000000E+02  0.51100000000E-03 0. -1.
         11   -1    0    0    0    0 -0.00000000000E+00 -0.00000000000E+00 -0.45593999997E+02  0.45594000000E+02  0.51100000000E-03 0.  1.
    9900012    2    1    2    0    0  0.34220265284E+02  0.21602499748E+02  0.15682105444E+02  0.47787274399E+02  0.20000015296E+02 0.  0.
         12    1    1    2    0    0 -0.34220265284E+02 -0.21602499748E+02 -0.15682105444E+02  0.43400725601E+02  0.00000000000E+00 0. -1.
         11    1    3    3    0    0  0.20936789305E+02  0.99642792155E+01  0.16108485168E+02  0.28233301284E+02  0.51100000000E-03 0.  1.
        -11    1    3    3    0    0  0.34278510028E+01 -0.80173582403E+00  0.88216153161E+00  0.36292081861E+01  0.51100000000E-03 0. -1.
        -12    1    3    3    0    0  0.98556249763E+01  0.12439956357E+02 -0.13085412558E+01  0.15924764929E+02  0.00000000000E+00 0.  1.
</event>
<event>
 7    1  0.2486105E-010  0.4778727E+02  0.7816164E-02  0.1312668E+00
        -11   -1    0    0    0    0  0.00000000000E+00  0.00000000000E+00  0.45593999997E+02  0.45594000000E+02  0.51100000000E-03 0.  1.
         11   -1    0    0    0    0 -0.00000000000E+00 -0.00000000000E+00 -0.45593999997E+02  0.45594000000E+02  0.51100000000E-03 0. -1.
    9900012    2    1    2    0    0 -0.27364120808E+02  0.96036913604E+01  0.32289273757E+02  0.47787271952E+02  0.20000004138E+02 0.  0.
         12    1    1    2    0    0  0.27364120808E+02 -0.96036913604E+01 -0.32289273757E+02  0.43400728048E+02  0.00000000000E+00 0. -1.
         11    1    3    3    0    0 -0.35088638631E+01 -0.38684423505E+01  0.43214227012E+01  0.67787658355E+01  0.51100000000E-03 0. -1.
        -11    1    3    3    0    0 -0.15550447087E+02  0.20746917323E+01  0.12350762226E+02  0.19966523939E+02  0.51100000000E-03 0.  1.
        -12    1    3    3    0    0 -0.83048098577E+01  0.11397441979E+02  0.15617088830E+02  0.21041982177E+02  0.00000000000E+00 0.  1.
</event>
<event>
 7    1  0.2486105E-010  0.4778727E+02  0.7816164E-02  0.1312668E+00
        -11   -1    0    0    0    0  0.00000000000E+00  0.00000000000E+00  0.45593999997E+02  0.45594000000E+02  0.51100000000E-03 0. -1.
         11   -1    0    0    0    0 -0.00000000000E+00 -0.00000000000E+00 -0.45593999997E+02  0.45594000000E+02  0.51100000000E-03 0.  1.
    9900012    2    1    2    0    0  0.26887895281E+02  0.31731804114E+02 -0.12399883825E+02  0.47787269316E+02  0.19999992121E+02 0.  0.
         12    1    1    2    0    0 -0.26887895281E+02 -0.31731804114E+02  0.12399883825E+02  0.43400730684E+02  0.00000000000E+00 0. -1.
         11    1    3    3    0    0  0.43163358967E+01  0.36488389757E+01  0.18610624515E+01  0.59504903288E+01  0.51100000000E-03 0. -1.
        -11    1    3    3    0    0  0.61692912056E+00  0.90544087535E+01 -0.80409309633E+01  0.12125159398E+02  0.51100000000E-03 0.  1.
        -12    1    3    3    0    0  0.21954630264E+02  0.19028556385E+02 -0.62200153136E+01  0.29711619589E+02  0.00000000000E+00 0.  1.
</event>
<event>
 7    1  0.2486105E-010  0.4778727E+02  0.7816164E-02  0.1312668E+00
        -11   -1    0    0    0    0  0.00000000000E+00  0.00000000000E+00  0.45593999997E+02  0.45594000000E+02  0.51100000000E-03 0.  1.
         11   -1    0    0    0    0 -0.00000000000E+00 -0.00000000000E+00 -0.45593999997E+02  0.45594000000E+02  0.51100000000E-03 0. -1.
    9900012    2    1    2    0    0 -0.42656557317E+02 -0.65367486292E+01 -0.46165721499E+01  0.47787266098E+02  0.19999977448E+02 0.  0.
         12    1    1    2    0    0  0.42656557317E+02  0.65367486292E+01  0.46165721499E+01  0.43400733902E+02  0.00000000000E+00 0. -1.
         11    1    3    3    0    0 -0.77335283403E+01 -0.17590734791E+01 -0.53695782537E+00  0.79492216011E+01  0.51100000000E-03 0. -1.
        -11    1    3    3    0    0 -0.36723897809E+02 -0.34824025631E+01 -0.53611340337E+01  0.37276179475E+02  0.51100000000E-03 0.  1.
         12    1    3    3    0    0  0.18008688320E+01 -0.12952725870E+01  0.12815197091E+01  0.25618650218E+01  0.00000000000E+00 0. -1.
</event>
<event>
 7    1  0.2486105E-010  0.4778726E+02  0.7816164E-02  0.1312668E+00
        -11   -1    0    0    0    0  0.00000000000E+00  0.00000000000E+00  0.45593999997E+02  0.45594000000E+02  0.51100000000E-03 0.  1.
         11   -1    0    0    0    0 -0.00000000000E+00 -0.00000000000E+00 -0.45593999997E+02  0.45594000000E+02  0.51100000000E-03 0. -1.
    9900012    2    1    2    0    0 -0.26365489857E+02 -0.51591035702E+01  0.34086202007E+02  0.47787256086E+02  0.19999931796E+02 0.  0.
         12    1    1    2    0    0  0.26365489857E+02  0.51591035702E+01 -0.34086202007E+02  0.43400743914E+02  0.00000000000E+00 0. -1.
         11    1    3    3    0    0 -0.41682289710E+00 -0.32760229863E+01 -0.27712683266E+00  0.33140409588E+01  0.51100000000E-03 0. -1.
        -11    1    3    3    0    0 -0.91809068008E+01  0.56231366306E+00  0.47443552737E+01  0.10349596783E+02  0.51100000000E-03 0.  1.
         12    1    3    3    0    0 -0.16767760159E+02 -0.24453942470E+01  0.29618973566E+02  0.34123618344E+02  0.00000000000E+00 0. -1.
</event>
<event>
 7    1  0.2486105E-010  0.4778727E+02  0.7816164E-02  0.1312668E+00
        -11   -1    0    0    0    0  0.00000000000E+00  0.00000000000E+00  0.45593999997E+02  0.45594000000E+02  0.51100000000E-03 0. -1.
         11   -1    0    0    0    0 -0.00000000000E+00 -0.00000000000E+00 -0.45593999997E+02  0.45594000000E+02  0.51100000000E-03 0.  1.
    9900012    2    1    2    0    0  0.39071254514E+02  0.18509152946E+02  0.38041625664E+01  0.47787270456E+02  0.19999997318E+02 0.  0.
         12    1    1    2    0    0 -0.39071254514E+02 -0.18509152946E+02 -0.38041625664E+01  0.43400729544E+02  0.00000000000E+00 0. -1.
         11    1    3    3    0    0  0.19782392567E+02  0.55000338114E+01  0.69518880304E+01  0.21677688416E+02  0.51100000000E-03 0. -1.
        -11    1    3    3    0    0  0.13670375329E+02  0.85313076036E+01  0.33086750893E+01  0.16450218909E+02  0.51100000000E-03 0.  1.
         12    1    3    3    0    0  0.56184866184E+01  0.44778115312E+01 -0.64564005533E+01  0.96593631309E+01  0.00000000000E+00 0. -1.
</event>
<event>
 7    1  0.2486105E-010  0.4778727E+02  0.7816164E-02  0.1312668E+00
        -11   -1    0    0    0    0  0.00000000000E+00  0.00000000000E+00  0.45593999997E+02  0.45594000000E+02  0.51100000000E-03 0.  1.
         11   -1    0    0    0    0 -0.00000000000E+00 -0.00000000000E+00 -0.45593999997E+02  0.45594000000E+02  0.51100000000E-03 0. -1.
    9900012    2    1    2    0    0  0.11477600194E+02  0.77849193089E+01  0.41125207311E+02  0.47787274762E+02  0.20000016950E+02 0.  0.
         12    1    1    2    0    0 -0.11477600194E+02 -0.77849193089E+01 -0.41125207311E+02  0.43400725238E+02  0.00000000000E+00 0. -1.
         11    1    3    3    0    0  0.10577181313E+02 -0.31196117183E+01  0.12286297914E+02  0.16509447553E+02  0.51100000000E-03 0. -1.
        -11    1    3    3    0    0  0.52347908746E+00  0.33301372837E-01  0.80182314016E-01  0.53063056927E+00  0.51100000000E-03 0.  1.
        -12    1    3    3    0    0  0.37693979286E+00  0.10871229654E+02  0.28758727082E+02  0.30747196639E+02  0.00000000000E+00 0.  1.
</event>
<event>
 7    1  0.2486105E-010  0.4778726E+02  0.7816164E-02  0.1312668E+00
        -11   -1    0    0    0    0  0.00000000000E+00  0.00000000000E+00  0.45593999997E+02  0.45594000000E+02  0.51100000000E-03 0.  1.
         11   -1    0    0    0    0 -0.00000000000E+00 -0.00000000000E+00 -0.45593999997E+02  0.45594000000E+02  0.51100000000E-03 0. -1.
    9900012    2    1    2    0    0 -0.10072946848E+02 -0.35662399893E+02  0.22590988845E+02  0.47787264968E+02  0.19999972293E+02 0.  0.
         12    1    1    2    0    0  0.10072946848E+02  0.35662399893E+02 -0.22590988845E+02  0.43400735032E+02  0.00000000000E+00 0. -1.
         11    1    3    3    0    0 -0.43906944724E+01 -0.19872346880E+02  0.12959053719E+02  0.24127275893E+02  0.51100000000E-03 0. -1.
        -11    1    3    3    0    0 -0.35476053009E+01 -0.17514917340E+02  0.54965357784E+01  0.18696784179E+02  0.51100000000E-03 0.  1.
         12    1    3    3    0    0 -0.21346470746E+01  0.17248643262E+01  0.41353993478E+01  0.49632048963E+01  0.00000000000E+00 0. -1.
</event>
<event>
 7    1  0.2486105E-010  0.4778727E+02  0.7816164E-02  0.1312668E+00
        -11   -1    0    0    0    0  0.00000000000E+00  0.00000000000E+00  0.45593999997E+02  0.45594000000E+02  0.51100000000E-03 0.  1.
         11   -1    0    0    0    0 -0.00000000000E+00 -0.00000000000E+00 -0.45593999997E+02  0.45594000000E+02  0.51100000000E-03 0. -1.
    9900012    2    1    2    0    0  0.27745536177E+01 -0.18125632326E+02  0.39336839799E+02  0.47787266592E+02  0.19999979700E+02 0.  0.
         12    1    1    2    0    0 -0.27745536177E+01  0.18125632326E+02 -0.39336839799E+02  0.43400733408E+02  0.00000000000E+00 0. -1.
         11    1    3    3    0    0 -0.63450253854E+01 -0.29370207786E+01  0.18748510636E+02  0.20009799837E+02  0.51100000000E-03 0. -1.
        -11    1    3    3    0    0  0.65496914703E+01 -0.54231615133E+01  0.10382438481E+02  0.13420289424E+02  0.51100000000E-03 0.  1.
        -12    1    3    3    0    0  0.25698875328E+01 -0.97654500344E+01  0.10205890682E+02  0.14357177331E+02  0.00000000000E+00 0.  1.
</event>
<event>
 7    1  0.2486105E-010  0.4778727E+02  0.7816164E-02  0.1312668E+00
        -11   -1    0    0    0    0  0.00000000000E+00  0.00000000000E+00  0.45593999997E+02  0.45594000000E+02  0.51100000000E-03 0.  1.
         11   -1    0    0    0    0 -0.00000000000E+00 -0.00000000000E+00 -0.45593999997E+02  0.45594000000E+02  0.51100000000E-03 0. -1.
    9900012    2    1    2    0    0  0.10425074422E+02  0.38566656263E+02  0.16957431409E+02  0.47787266919E+02  0.19999981190E+02 0.  0.
         12    1    1    2    0    0 -0.10425074422E+02 -0.38566656263E+02 -0.16957431409E+02  0.43400733081E+02  0.00000000000E+00 0. -1.
         11    1    3    3    0    0  0.50193666453E+01  0.18476357914E+02  0.32800694321E+01  0.19424950425E+02  0.51100000000E-03 0. -1.
        -11    1    3    3    0    0 -0.17656446881E+01  0.84313092354E+01 -0.53439105051E+00  0.86307618809E+01  0.51100000000E-03 0.  1.
         12    1    3    3    0    0  0.71713524647E+01  0.11658989113E+02  0.14211753028E+02  0.19731554613E+02  0.00000000000E+00 0. -1.
</event>
<event>
 7    1  0.2486105E-010  0.4778727E+02  0.7816164E-02  0.1312668E+00
        -11   -1    0    0    0    0  0.00000000000E+00  0.00000000000E+00  0.45593999997E+02  0.45594000000E+02  0.51100000000E-03 0. -1.
         11   -1    0    0    0    0 -0.00000000000E+00 -0.00000000000E+00 -0.45593999997E+02  0.45594000000E+02  0.51100000000E-03 0.  1.
    9900012    2    1    2    0    0 -0.39977853212E+00  0.42769057764E+02 -0.73668885889E+01  0.47787272214E+02  0.20000005331E+02 0.  0.
         12    1    1    2    0    0  0.39977853212E+00 -0.42769057764E+02  0.73668885889E+01  0.43400727786E+02  0.00000000000E+00 0. -1.
         11    1    3    3    0    0 -0.30233516695E+01  0.87320077007E+01  0.42108569871E+01  0.10154798404E+02  0.51100000000E-03 0. -1.
        -11    1    3    3    0    0 -0.19636780404E+01  0.15724171006E+02 -0.73880009303E+00  0.15863524549E+02  0.51100000000E-03 0.  1.
        -12    1    3    3    0    0  0.45872511778E+01  0.18312879057E+02 -0.10838945483E+02  0.21768949261E+02  0.00000000000E+00 0.  1.
</event>
<event>
 7    1  0.2486105E-010  0.4778727E+02  0.7816164E-02  0.1312668E+00
        -11   -1    0    0    0    0  0.00000000000E+00  0.00000000000E+00  0.45593999997E+02  0.45594000000E+02  0.51100000000E-03 0. -1.
         11   -1    0    0    0    0 -0.00000000000E+00 -0.00000000000E+00 -0.45593999997E+02  0.45594000000E+02  0.51100000000E-03 0.  1.
    9900012    2    1    2    0    0  0.18218483726E+02  0.25521940567E+02 -0.30005684477E+02  0.47787266129E+02  0.19999977590E+02 0.  0.
         12    1    1    2    0    0 -0.18218483726E+02 -0.25521940567E+02  0.30005684477E+02  0.43400733871E+02  0.00000000000E+00 0. -1.
         11    1    3    3    0    0  0.15653998949E+01  0.61483603897E+01 -0.55606301525E+01  0.84364340966E+01  0.51100000000E-03 0. -1.
        -11    1    3    3    0    0  0.16664940637E+02  0.22335091694E+02 -0.22362936478E+02  0.35730624059E+02  0.51100000000E-03 0.  1.
         12    1    3    3    0    0 -0.11856806193E-01 -0.29615115170E+01 -0.20821178465E+01  0.36202079741E+01  0.00000000000E+00 0. -1.
</event>
<event>
 7    1  0.2486105E-010  0.4778727E+02  0.7816164E-02  0.1312668E+00
        -11   -1    0    0    0    0  0.00000000000E+00  0.00000000000E+00  0.45593999997E+02  0.45594000000E+02  0.51100000000E-03 0. -1.
         11   -1    0    0    0    0 -0.00000000000E+00 -0.00000000000E+00 -0.45593999997E+02  0.45594000000E+02  0.51100000000E-03 0.  1.
    9900012    2    1    2    0    0  0.12803619155E+02  0.36800541677E+02  0.19115717486E+02  0.47787272055E+02  0.20000004606E+02 0.  0.
         12    1    1    2    0    0 -0.12803619155E+02 -0.36800541677E+02 -0.19115717486E+02  0.43400727945E+02  0.00000000000E+00 0. -1.
         11    1    3    3    0    0  0.29415996350E+01  0.25193418439E+02  0.19565428822E+02  0.32033846886E+02  0.51100000000E-03 0. -1.
        -11    1    3    3    0    0  0.71138406007E+00  0.32894771657E+01 -0.38324034173E+00  0.33872703945E+01  0.51100000000E-03 0.  1.
        -12    1    3    3    0    0  0.91506354604E+01  0.83176460721E+01 -0.66470994595E-01  0.12366154774E+02  0.00000000000E+00 0.  1.
</event>
<event>
 7    1  0.2486105E-010  0.4778729E+02  0.7816164E-02  0.1312668E+00
        -11   -1    0    0    0    0  0.00000000000E+00  0.00000000000E+00  0.45593999997E+02  0.45594000000E+02  0.51100000000E-03 0.  1.
         11   -1    0    0    0    0 -0.00000000000E+00 -0.00000000000E+00 -0.45593999997E+02  0.45594000000E+02  0.51100000000E-03 0. -1.
    9900012    2    1    2    0    0  0.40679105394E+02 -0.15118446086E+02 -0.51458001567E+00  0.47787287790E+02  0.20000076351E+02 0.  0.
         12    1    1    2    0    0 -0.40679105394E+02  0.15118446086E+02  0.51458001567E+00  0.43400712210E+02  0.00000000000E+00 0. -1.
         11    1    3    3    0    0 -0.70395284400E+00 -0.35942254832E+01 -0.27675886150E+01  0.45905940175E+01  0.51100000000E-03 0. -1.
        -11    1    3    3    0    0  0.13283512732E+02 -0.48964183514E+01 -0.70624429769E+00  0.14174815852E+02  0.51100000000E-03 0.  1.
         12    1    3    3    0    0  0.28099545506E+02 -0.66278022515E+01  0.29592528970E+01  0.29021877921E+02  0.00000000000E+00 0. -1.
</event>
<event>
 7    1  0.2486105E-010  0.4778722E+02  0.7816164E-02  0.1312668E+00
        -11   -1    0    0    0    0  0.00000000000E+00  0.00000000000E+00  0.45593999997E+02  0.45594000000E+02  0.51100000000E-03 0. -1.
         11   -1    0    0    0    0 -0.00000000000E+00 -0.00000000000E+00 -0.45593999997E+02  0.45594000000E+02  0.51100000000E-03 0.  1.
    9900012    2    1    2    0    0  0.30338270270E+02 -0.26348172756E+02 -0.16400953158E+02  0.47787215271E+02  0.19999745707E+02 0.  0.
         12    1    1    2    0    0 -0.30338270270E+02  0.26348172756E+02  0.16400953158E+02  0.43400784729E+02  0.00000000000E+00 0. -1.
         11    1    3    3    0    0  0.11343482244E+02 -0.17523930204E+02 -0.65704711937E+01  0.21884556454E+02  0.51100000000E-03 0. -1.
        -11    1    3    3    0    0  0.33287164547E+01 -0.14577469732E+01  0.27040923691E+01  0.45296241870E+01  0.51100000000E-03 0.  1.
        -12    1    3    3    0    0  0.15666071571E+02 -0.73664955783E+01 -0.12534574334E+02  0.21373034630E+02  0.00000000000E+00 0.  1.
</event>
<event>
 7    1  0.2486105E-010  0.4778728E+02  0.7816164E-02  0.1312668E+00
        -11   -1    0    0    0    0  0.00000000000E+00  0.00000000000E+00  0.45593999997E+02  0.45594000000E+02  0.51100000000E-03 0.  1.
         11   -1    0    0    0    0 -0.00000000000E+00 -0.00000000000E+00 -0.45593999997E+02  0.45594000000E+02  0.51100000000E-03 0. -1.
    9900012    2    1    2    0    0  0.24461446187E+02  0.31975873774E+02  0.16211232941E+02  0.47787275045E+02  0.20000018241E+02 0.  0.
         12    1    1    2    0    0 -0.24461446187E+02 -0.31975873774E+02 -0.16211232941E+02  0.43400724955E+02  0.00000000000E+00 0. -1.
         11    1    3    3    0    0  0.19470704370E+02  0.19252905196E+02  0.54839411589E+01  0.27925907291E+02  0.51100000000E-03 0. -1.
        -11    1    3    3    0    0  0.65981606722E+00  0.63636297186E+01 -0.31201677786E+00  0.64053489498E+01  0.51100000000E-03 0.  1.
         12    1    3    3    0    0  0.43309257493E+01  0.63593388595E+01  0.11039308560E+02  0.13456018804E+02  0.00000000000E+00 0. -1.
</event>
<event>
 7    1  0.2486105E-010  0.4778727E+02  0.7816164E-02  0.1312668E+00
        -11   -1    0    0    0    0  0.00000000000E+00  0.00000000000E+00  0.45593999997E+02  0.45594000000E+02  0.51100000000E-03 0.  1.
         11   -1    0    0    0    0 -0.00000000000E+00 -0.00000000000E+00 -0.45593999997E+02  0.45594000000E+02  0.51100000000E-03 0. -1.
    9900012    2    1    2    0    0 -0.27826766354E+02  0.30086282037E+02 -0.14286702819E+02  0.47787272241E+02  0.20000005457E+02 0.  0.
         12    1    1    2    0    0  0.27826766354E+02 -0.30086282037E+02  0.14286702819E+02  0.43400727759E+02  0.00000000000E+00 0. -1.
         11    1    3    3    0    0  0.52889754773E+00  0.80718192087E+01 -0.25381135201E+01  0.84779725439E+01  0.51100000000E-03 0. -1.
        -11    1    3    3    0    0 -0.71295389742E+01  0.33771144937E+01  0.16277190833E+01  0.80551038456E+01  0.51100000000E-03 0.  1.
        -12    1    3    3    0    0 -0.21226124928E+02  0.18637348335E+02 -0.13376308382E+02  0.31254195852E+02  0.00000000000E+00 0.  1.
</event>
<event>
 7    1  0.2486105E-010  0.4778727E+02  0.7816164E-02  0.1312668E+00
        -11   -1    0    0    0    0  0.00000000000E+00  0.00000000000E+00  0.45593999997E+02  0.45594000000E+02  0.51100000000E-03 0. -1.
         11   -1    0    0    0    0 -0.00000000000E+00 -0.00000000000E+00 -0.45593999997E+02  0.45594000000E+02  0.51100000000E-03 0.  1.
    9900012    2    1    2    0    0 -0.23413159897E+02 -0.33534136041E+02  0.14522710509E+02  0.47787268936E+02  0.19999990387E+02 0.  0.
         12    1    1    2    0    0  0.23413159897E+02  0.33534136041E+02 -0.14522710509E+02  0.43400731064E+02  0.00000000000E+00 0. -1.
         11    1    3    3    0    0 -0.31007612004E+01  0.14638904373E+01  0.29224683694E+01  0.45053875378E+01  0.51100000000E-03 0. -1.
        -11    1    3    3    0    0 -0.25743646191E+01 -0.10054632628E+01  0.28171368158E+01  0.39464629309E+01  0.51100000000E-03 0.  1.
        -12    1    3    3    0    0 -0.17738034077E+02 -0.33992563215E+02  0.87831053241E+01  0.39335418467E+02  0.00000000000E+00 0.  1.
</event>
<event>
 7    1  0.2486105E-010  0.4778726E+02  0.7816164E-02  0.1312668E+00
        -11   -1    0    0    0    0  0.00000000000E+00  0.00000000000E+00  0.45593999997E+02  0.45594000000E+02  0.51100000000E-03 0.  1.
         11   -1    0    0    0    0 -0.00000000000E+00 -0.00000000000E+00 -0.45593999997E+02  0.45594000000E+02  0.51100000000E-03 0. -1.
    9900012    2    1    2    0    0 -0.36020543539E+02 -0.10833918215E+02  0.21651119149E+02  0.47787259210E+02  0.19999946042E+02 0.  0.
         12    1    1    2    0    0  0.36020543539E+02  0.10833918215E+02 -0.21651119149E+02  0.43400740790E+02  0.00000000000E+00 0. -1.
         11    1    3    3    0    0 -0.28734195546E+02 -0.85205910490E+01  0.14285708888E+02  0.33201444911E+02  0.51100000000E-03 0. -1.
        -11    1    3    3    0    0 -0.77123145204E+01  0.17166621524E+01  0.69308224982E+01  0.10510139151E+02  0.51100000000E-03 0.  1.
         12    1    3    3    0    0  0.42596652779E+00 -0.40299893180E+01  0.43458776305E+00  0.40756751478E+01  0.00000000000E+00 0. -1.
</event>
<event>
 7    1  0.2486105E-010  0.4778727E+02  0.7816164E-02  0.1312668E+00
        -11   -1    0    0    0    0  0.00000000000E+00  0.00000000000E+00  0.45593999997E+02  0.45594000000E+02  0.51100000000E-03 0.  1.
         11   -1    0    0    0    0 -0.00000000000E+00 -0.00000000000E+00 -0.45593999997E+02  0.45594000000E+02  0.51100000000E-03 0. -1.
    9900012    2    1    2    0    0 -0.24972305162E+02 -0.73890611349E+01  0.34718998771E+02  0.47787272756E+02  0.20000007806E+02 0.  0.
         12    1    1    2    0    0  0.24972305162E+02  0.73890611349E+01 -0.34718998771E+02  0.43400727244E+02  0.00000000000E+00 0. -1.
         11    1    3    3    0    0 -0.11800511272E+02 -0.61172824705E+01  0.19432687113E+02  0.23543630557E+02  0.51100000000E-03 0. -1.
        -11    1    3    3    0    0 -0.14208503715E+02 -0.41698417784E+01  0.15116941400E+02  0.21161074543E+02  0.51100000000E-03 0.  1.
         12    1    3    3    0    0  0.10367098244E+01  0.28980631141E+01  0.16937025872E+00  0.30825676566E+01  0.00000000000E+00 0. -1.
</event>
<event>
 7    1  0.2486105E-010  0.4778727E+02  0.7816164E-02  0.1312668E+00
        -11   -1    0    0    0    0  0.00000000000E+00  0.00000000000E+00  0.45593999997E+02  0.45594000000E+02  0.51100000000E-03 0.  1.
         11   -1    0    0    0    0 -0.00000000000E+00 -0.00000000000E+00 -0.45593999997E+02  0.45594000000E+02  0.51100000000E-03 0. -1.
    9900012    2    1    2    0    0 -0.87338747289E+01 -0.15626049051E+02  0.39536933663E+02  0.47787273045E+02  0.20000009120E+02 0.  0.
         12    1    1    2    0    0  0.87338747289E+01  0.15626049051E+02 -0.39536933663E+02  0.43400726955E+02  0.00000000000E+00 0. -1.
         11    1    3    3    0    0  0.22493708440E+01  0.67923760863E+00  0.58401009071E+01  0.62950624929E+01  0.51100000000E-03 0. -1.
        -11    1    3    3    0    0 -0.14185406312E+02 -0.10761775389E+02  0.24520952284E+02  0.30303773080E+02  0.51100000000E-03 0.  1.
         12    1    3    3    0    0  0.32021607386E+01 -0.55435112705E+01  0.91758804727E+01  0.11188437471E+02  0.00000000000E+00 0. -1.
</event>
<event>
 7    1  0.2486105E-010  0.4778727E+02  0.7816164E-02  0.1312668E+00
        -11   -1    0    0    0    0  0.00000000000E+00  0.00000000000E+00  0.45593999997E+02  0.45594000000E+02  0.51100000000E-03 0.  1.
         11   -1    0    0    0    0 -0.00000000000E+00 -0.00000000000E+00 -0.45593999997E+02  0.45594000000E+02  0.51100000000E-03 0. -1.
    9900012    2    1    2    0    0 -0.24455086482E+01 -0.43151577252E+02 -0.39476820557E+01  0.47787270450E+02  0.19999997289E+02 0.  0.
         12    1    1    2    0    0  0.24455086482E+01  0.43151577252E+02  0.39476820557E+01  0.43400729550E+02  0.00000000000E+00 0. -1.
         11    1    3    3    0    0 -0.44113676763E+00 -0.19631408276E+02  0.57310665891E+01  0.20455608450E+02  0.51100000000E-03 0. -1.
        -11    1    3    3    0    0 -0.37595920816E+01 -0.22386922198E+02 -0.66540682350E+01  0.23655558384E+02  0.51100000000E-03 0.  1.
        -12    1    3    3    0    0  0.17552202010E+01 -0.11332467774E+01 -0.30246804097E+01  0.36761036157E+01  0.00000000000E+00 0.  1.
</event>
<event>
 7    1  0.3104623E-010  0.4778727E+02  0.7816164E-02  0.1312668E+00
        -11   -1    0    0    0    0  0.00000000000E+00  0.00000000000E+00  0.45593999997E+02  0.45594000000E+02  0.51100000000E-03 0. -1.
         11   -1    0    0    0    0 -0.00000000000E+00 -0.00000000000E+00 -0.45593999997E+02  0.45594000000E+02  0.51100000000E-03 0.  1.
    9900012    2    1    2    0    0 -0.37498810177E+02  0.18526805875E+02 -0.11585340031E+02  0.47787269542E+02  0.19999993151E+02 0.  0.
         12    1    1    2    0    0  0.37498810177E+02 -0.18526805875E+02  0.11585340031E+02  0.43400730458E+02  0.00000000000E+00 0. -1.
         11    1    3    3    0    0 -0.35253342280E+01 -0.17286554676E+01  0.73631553684E+00  0.39947956112E+01  0.51100000000E-03 0. -1.
        -11    1    3    3    0    0 -0.50217495987E+00  0.25890031839E-01 -0.37126126562E+01  0.37465107741E+01  0.51100000000E-03 0.  1.
        -12    1    3    3    0    0 -0.33471300989E+02  0.20229571310E+02 -0.86090429119E+01  0.40045963157E+02  0.00000000000E+00 0.  1.
</event>
<event>
 7    1  0.2679497E-010  0.4778727E+02  0.7816164E-02  0.1312668E+00
        -11   -1    0    0    0    0  0.00000000000E+00  0.00000000000E+00  0.45593999997E+02  0.45594000000E+02  0.51100000000E-03 0.  1.
         11   -1    0    0    0    0 -0.00000000000E+00 -0.00000000000E+00 -0.45593999997E+02  0.45594000000E+02  0.51100000000E-03 0. -1.
    9900012    2    1    2    0    0 -0.27997613213E+02  0.29646813601E+02  0.14860129253E+02  0.47787270239E+02  0.19999996330E+02 0.  0.
         12    1    1    2    0    0  0.27997613213E+02 -0.29646813601E+02 -0.14860129253E+02  0.43400729761E+02  0.00000000000E+00 0. -1.
         11    1    3    3    0    0 -0.36337154822E+01  0.10230997626E+02  0.82946492199E+01  0.13663030651E+02  0.51100000000E-03 0. -1.
        -11    1    3    3    0    0 -0.18475866556E+02  0.18274821186E+02  0.92082278319E+01  0.27570241103E+02  0.51100000000E-03 0.  1.
        -12    1    3    3    0    0 -0.58880311746E+01  0.11409947886E+01 -0.26427477986E+01  0.65539984855E+01  0.00000000000E+00 0.  1.
</event>
<event>
 7    1  0.2486105E-010  0.4778724E+02  0.7816164E-02  0.1312668E+00
        -11   -1    0    0    0    0  0.00000000000E+00  0.00000000000E+00  0.45593999997E+02  0.45594000000E+02  0.51100000000E-03 0. -1.
         11   -1    0    0    0    0 -0.00000000000E+00 -0.00000000000E+00 -0.45593999997E+02  0.45594000000E+02  0.51100000000E-03 0.  1.
    9900012    2    1    2    0    0  0.25938172831E+02 -0.47765014039E+01 -0.34467703315E+02  0.47787235637E+02  0.19999838563E+02 0.  0.
         12    1    1    2    0    0 -0.25938172831E+02  0.47765014039E+01  0.34467703315E+02  0.43400764363E+02  0.00000000000E+00 0. -1.
         11    1    3    3    0    0 -0.59538979630E+00 -0.27034338323E+01 -0.31923401653E+01  0.42254087953E+01  0.51100000000E-03 0. -1.
        -11    1    3    3    0    0 -0.11194067165E+01 -0.38199424856E+00 -0.58181264718E+01  0.59371362546E+01  0.51100000000E-03 0.  1.
         12    1    3    3    0    0  0.27652969343E+02 -0.16910733230E+01 -0.25457236678E+02  0.37624690587E+02  0.00000000000E+00 0. -1.
</event>
<event>
 7    1  0.2486105E-010  0.4778727E+02  0.7816164E-02  0.1312668E+00
        -11   -1    0    0    0    0  0.00000000000E+00  0.00000000000E+00  0.45593999997E+02  0.45594000000E+02  0.51100000000E-03 0.  1.
         11   -1    0    0    0    0 -0.00000000000E+00 -0.00000000000E+00 -0.45593999997E+02  0.45594000000E+02  0.51100000000E-03 0. -1.
    9900012    2    1    2    0    0  0.40421175649E+02  0.98740349934E+01  0.12339163211E+02  0.47787274699E+02  0.20000016661E+02 0.  0.
         12    1    1    2    0    0 -0.40421175649E+02 -0.98740349934E+01 -0.12339163211E+02  0.43400725301E+02  0.00000000000E+00 0. -1.
         11    1    3    3    0    0  0.19379760460E+02  0.11784590184E+01 -0.23327542476E+01  0.19555194292E+02  0.51100000000E-03 0. -1.
        -11    1    3    3    0    0  0.13868677147E+02  0.44069484779E+01  0.48568105145E+01  0.15341121515E+02  0.51100000000E-03 0.  1.
        -12    1    3    3    0    0  0.71727380424E+01  0.42886274970E+01  0.98151069445E+01  0.12890958892E+02  0.00000000000E+00 0.  1.
</event>
<event>
 7    1  0.2486105E-010  0.4778727E+02  0.7816164E-02  0.1312668E+00
        -11   -1    0    0    0    0  0.00000000000E+00  0.00000000000E+00  0.45593999997E+02  0.45594000000E+02  0.51100000000E-03 0.  1.
         11   -1    0    0    0    0 -0.00000000000E+00 -0.00000000000E+00 -0.45593999997E+02  0.45594000000E+02  0.51100000000E-03 0. -1.
    9900012    2    1    2    0    0 -0.20997152184E+02  0.31631242819E+02  0.21028727010E+02  0.47787270953E+02  0.19999999584E+02 0.  0.
         12    1    1    2    0    0  0.20997152184E+02 -0.31631242819E+02 -0.21028727010E+02  0.43400729047E+02  0.00000000000E+00 0. -1.
         11    1    3    3    0    0 -0.12634464687E+02  0.44396190563E+01  0.62219752636E+01  0.14766614092E+02  0.51100000000E-03 0. -1.
        -11    1    3    3    0    0 -0.76333415690E+01  0.11494096262E+02  0.67107438032E+01  0.15343279801E+02  0.51100000000E-03 0.  1.
        -12    1    3    3    0    0 -0.72934592786E+00  0.15697527501E+02  0.80960079436E+01  0.17677377061E+02  0.00000000000E+00 0.  1.
</event>
<event>
 7    1  0.2486105E-010  0.4778727E+02  0.7816164E-02  0.1312668E+00
        -11   -1    0    0    0    0  0.00000000000E+00  0.00000000000E+00  0.45593999997E+02  0.45594000000E+02  0.51100000000E-03 0.  1.
         11   -1    0    0    0    0 -0.00000000000E+00 -0.00000000000E+00 -0.45593999997E+02  0.45594000000E+02  0.51100000000E-03 0. -1.
    9900012    2    1    2    0    0  0.30789517168E+01 -0.27732432864E+02  0.33242374477E+02  0.47787271468E+02  0.20000001930E+02 0.  0.
         12    1    1    2    0    0 -0.30789517168E+01  0.27732432864E+02 -0.33242374477E+02  0.43400728532E+02  0.00000000000E+00 0. -1.
         11    1    3    3    0    0  0.81397910265E+01 -0.75823374902E+01  0.10191554237E+02  0.15086941963E+02  0.51100000000E-03 0. -1.
        -11    1    3    3    0    0  0.31901927730E+01 -0.63936560372E+01  0.74949208658E+01  0.10355192248E+02  0.51100000000E-03 0.  1.
         12    1    3    3    0    0 -0.82510320828E+01 -0.13756439337E+02  0.15555899374E+02  0.22345137256E+02  0.00000000000E+00 0. -1.
</event>
<event>
 7    1  0.2486105E-010  0.4778727E+02  0.7816164E-02  0.1312668E+00
        -11   -1    0    0    0    0  0.00000000000E+00  0.00000000000E+00  0.45593999997E+02  0.45594000000E+02  0.51100000000E-03 0.  1.
         11   -1    0    0    0    0 -0.00000000000E+00 -0.00000000000E+00 -0.45593999997E+02  0.45594000000E+02  0.51100000000E-03 0. -1.
    9900012    2    1    2    0    0 -0.11461165070E+02  0.22538713788E+02  0.35274228235E+02  0.47787273030E+02  0.20000009053E+02 0.  0.
         12    1    1    2    0    0  0.11461165070E+02 -0.22538713788E+02 -0.35274228235E+02  0.43400726970E+02  0.00000000000E+00 0. -1.
         11    1    3    3    0    0 -0.14034578753E+01  0.30759850581E+01  0.25634010680E+01  0.42429239189E+01  0.51100000000E-03 0. -1.
        -11    1    3    3    0    0 -0.19921102447E+01  0.20441676244E+02  0.24853580852E+02  0.32241760379E+02  0.51100000000E-03 0.  1.
         12    1    3    3    0    0 -0.80655969500E+01 -0.97894751435E+00  0.78572463150E+01  0.11302588732E+02  0.00000000000E+00 0. -1.
</event>
<event>
 7    1  0.2486105E-010  0.4778727E+02  0.7816164E-02  0.1312668E+00
        -11   -1    0    0    0    0  0.00000000000E+00  0.00000000000E+00  0.45593999997E+02  0.45594000000E+02  0.51100000000E-03 0. -1.
         11   -1    0    0    0    0 -0.00000000000E+00 -0.00000000000E+00 -0.45593999997E+02  0.45594000000E+02  0.51100000000E-03 0.  1.
    9900012    2    1    2    0    0 -0.22356888235E+02 -0.99915949398E+01 -0.35832395408E+02  0.47787274410E+02  0.20000015346E+02 0.  0.
         12    1    1    2    0    0  0.22356888235E+02  0.99915949398E+01  0.35832395408E+02  0.43400725590E+02  0.00000000000E+00 0. -1.
         11    1    3    3    0    0 -0.30054759377E+01 -0.82537398138E+00 -0.10253702105E+02  0.10716927495E+02  0.51100000000E-03 0. -1.
        -11    1    3    3    0    0 -0.11786102562E+02 -0.10088264716E+02 -0.25005922908E+02  0.29427563259E+02  0.51100000000E-03 0.  1.
         12    1    3    3    0    0 -0.75653097361E+01  0.92204375799E+00 -0.57277039552E+00  0.76427836566E+01  0.00000000000E+00 0. -1.
</event>
<event>
 7    1  0.2486105E-010  0.4778727E+02  0.7816164E-02  0.1312668E+00
        -11   -1    0    0    0    0  0.00000000000E+00  0.00000000000E+00  0.45593999997E+02  0.45594000000E+02  0.51100000000E-03 0. -1.
         11   -1    0    0    0    0 -0.00000000000E+00 -0.00000000000E+00 -0.45593999997E+02  0.45594000000E+02  0.51100000000E-03 0.  1.
    9900012    2    1    2    0    0 -0.36416244111E+02 -0.83163468845E+01 -0.22097930424E+02  0.47787274318E+02  0.20000014927E+02 0.  0.
         12    1    1    2    0    0  0.36416244111E+02  0.83163468845E+01  0.22097930424E+02  0.43400725682E+02  0.00000000000E+00 0. -1.
         11    1    3    3    0    0 -0.16098105527E+02  0.59977700596E+00 -0.48301904196E+01  0.16817832018E+02  0.51100000000E-03 0. -1.
        -11    1    3    3    0    0 -0.70908131499E+01  0.16569101978E+01 -0.76091613903E+00  0.73214736332E+01  0.51100000000E-03 0.  1.
        -12    1    3    3    0    0 -0.13227325434E+02 -0.10573034088E+02 -0.16506823866E+02  0.23647968667E+02  0.00000000000E+00 0.  1.
</event>
<event>
 7    1  0.2486105E-010  0.4778727E+02  0.7816164E-02  0.1312668E+00
        -11   -1    0    0    0    0  0.00000000000E+00  0.00000000000E+00  0.45593999997E+02  0.45594000000E+02  0.51100000000E-03 0.  1.
         11   -1    0    0    0    0 -0.00000000000E+00 -0.00000000000E+00 -0.45593999997E+02  0.45594000000E+02  0.51100000000E-03 0. -1.
    9900012    2    1    2    0    0  0.14452159045E+02 -0.40403724340E+02  0.65036399340E+01  0.47787272195E+02  0.20000005246E+02 0.  0.
         12    1    1    2    0    0 -0.14452159045E+02  0.40403724340E+02 -0.65036399340E+01  0.43400727805E+02  0.00000000000E+00 0. -1.
         11    1    3    3    0    0  0.66107866219E+01 -0.14799957597E+02  0.77022579489E+01  0.17946197993E+02  0.51100000000E-03 0.  1.
        -11    1    3    3    0    0  0.13515260374E+01 -0.18355536509E+02  0.39637712641E+01  0.18827209726E+02  0.51100000000E-03 0. -1.
        -12    1    3    3    0    0  0.64898463853E+01 -0.72482302336E+01 -0.51623892790E+01  0.11013864476E+02  0.00000000000E+00 0.  1.
</event>
<event>
 7    1  0.2486105E-010  0.4778727E+02  0.7816164E-02  0.1312668E+00
        -11   -1    0    0    0    0  0.00000000000E+00  0.00000000000E+00  0.45593999997E+02  0.45594000000E+02  0.51100000000E-03 0.  1.
         11   -1    0    0    0    0 -0.00000000000E+00 -0.00000000000E+00 -0.45593999997E+02  0.45594000000E+02  0.51100000000E-03 0. -1.
    9900012    2    1    2    0    0  0.22743310869E+02  0.32975930750E+02  0.16701886264E+02  0.47787271863E+02  0.20000003732E+02 0.  0.
         12    1    1    2    0    0 -0.22743310869E+02 -0.32975930750E+02 -0.16701886264E+02  0.43400728137E+02  0.00000000000E+00 0. -1.
         11    1    3    3    0    0  0.13648555896E+01  0.95962360679E+01  0.30020025502E+01  0.10147048685E+02  0.51100000000E-03 0. -1.
        -11    1    3    3    0    0  0.39127944796E+01  0.15314439150E+02  0.67128246367E+01  0.17172769782E+02  0.51100000000E-03 0.  1.
         12    1    3    3    0    0  0.17465660799E+02  0.80652555314E+01  0.69870590768E+01  0.20467453395E+02  0.00000000000E+00 0. -1.
</event>
<event>
 7    1  0.2486105E-010  0.4778727E+02  0.7816164E-02  0.1312668E+00
        -11   -1    0    0    0    0  0.00000000000E+00  0.00000000000E+00  0.45593999997E+02  0.45594000000E+02  0.51100000000E-03 0.  1.
         11   -1    0    0    0    0 -0.00000000000E+00 -0.00000000000E+00 -0.45593999997E+02  0.45594000000E+02  0.51100000000E-03 0. -1.
    9900012    2    1    2    0    0 -0.14050392653E+02  0.39115614568E+02  0.12497139315E+02  0.47787270423E+02  0.19999997166E+02 0.  0.
         12    1    1    2    0    0  0.14050392653E+02 -0.39115614568E+02 -0.12497139315E+02  0.43400729577E+02  0.00000000000E+00 0. -1.
         11    1    3    3    0    0 -0.16638669242E+00 -0.12994242326E+01  0.11474366940E+01  0.17414933521E+01  0.51100000000E-03 0. -1.
        -11    1    3    3    0    0 -0.10315201325E+02  0.14602972035E+02  0.68986191480E+00  0.17892067526E+02  0.51100000000E-03 0.  1.
         12    1    3    3    0    0 -0.35688046358E+01  0.25812066766E+02  0.10659840706E+02  0.28153709545E+02  0.00000000000E+00 0. -1.
</event>
<event>
 7    1  0.2486105E-010  0.4778727E+02  0.7816164E-02  0.1312668E+00
        -11   -1    0    0    0    0  0.00000000000E+00  0.00000000000E+00  0.45593999997E+02  0.45594000000E+02  0.51100000000E-03 0. -1.
         11   -1    0    0    0    0 -0.00000000000E+00 -0.00000000000E+00 -0.45593999997E+02  0.45594000000E+02  0.51100000000E-03 0.  1.
    9900012    2    1    2    0    0  0.28163332245E+02 -0.19360198127E+02 -0.26751314403E+02  0.47787269857E+02  0.19999994584E+02 0.  0.
         12    1    1    2    0    0 -0.28163332245E+02  0.19360198127E+02  0.26751314403E+02  0.43400730143E+02  0.00000000000E+00 0. -1.
         11    1    3    3    0    0  0.11810525300E+02 -0.20982695652E+01 -0.36564836136E+01  0.12540379409E+02  0.51100000000E-03 0. -1.
        -11    1    3    3    0    0  0.59824968471E+00 -0.45345132008E+01 -0.59618167233E-01  0.45741958026E+01  0.51100000000E-03 0.  1.
        -12    1    3    3    0    0  0.15754557260E+02 -0.12727415361E+02 -0.23035212622E+02  0.30672694645E+02  0.00000000000E+00 0.  1.
</event>
<event>
 7    1  0.2486105E-010  0.4778727E+02  0.7816164E-02  0.1312668E+00
        -11   -1    0    0    0    0  0.00000000000E+00  0.00000000000E+00  0.45593999997E+02  0.45594000000E+02  0.51100000000E-03 0.  1.
         11   -1    0    0    0    0 -0.00000000000E+00 -0.00000000000E+00 -0.45593999997E+02  0.45594000000E+02  0.51100000000E-03 0. -1.
    9900012    2    1    2    0    0  0.10485000527E+01  0.21565437624E+02  0.37649114247E+02  0.47787271252E+02  0.20000000947E+02 0.  0.
         12    1    1    2    0    0 -0.10485000527E+01 -0.21565437624E+02 -0.37649114247E+02  0.43400728748E+02  0.00000000000E+00 0. -1.
         11    1    3    3    0    0 -0.58142717558E+01  0.92310296019E+01  0.12182451256E+02  0.16353280479E+02  0.51100000000E-03 0. -1.
        -11    1    3    3    0    0  0.74739386236E+00  0.87984857434E+01  0.21701466102E+02  0.23429160894E+02  0.51100000000E-03 0.  1.
        -12    1    3    3    0    0  0.61153779462E+01  0.35359222785E+01  0.37651968896E+01  0.80048298796E+01  0.00000000000E+00 0.  1.
</event>
<event>
 7    1  0.2486105E-010  0.4778727E+02  0.7816164E-02  0.1312668E+00
        -11   -1    0    0    0    0  0.00000000000E+00  0.00000000000E+00  0.45593999997E+02  0.45594000000E+02  0.51100000000E-03 0.  1.
         11   -1    0    0    0    0 -0.00000000000E+00 -0.00000000000E+00 -0.45593999997E+02  0.45594000000E+02  0.51100000000E-03 0. -1.
    9900012    2    1    2    0    0 -0.16633129140E+01 -0.15118548328E+02  0.40648324214E+02  0.47787269881E+02  0.19999994697E+02 0.  0.
         12    1    1    2    0    0  0.16633129140E+01  0.15118548328E+02 -0.40648324214E+02  0.43400730119E+02  0.00000000000E+00 0. -1.
         11    1    3    3    0    0 -0.71941456494E+00  0.12723903116E+01  0.35772840308E+01  0.38643881429E+01  0.51100000000E-03 0. -1.
        -11    1    3    3    0    0  0.63075486828E+01 -0.77470492981E+01  0.81965127681E+01  0.12922258511E+02  0.51100000000E-03 0.  1.
        -12    1    3    3    0    0 -0.72514470319E+01 -0.86438893417E+01  0.28874527415E+02  0.31000623227E+02  0.00000000000E+00 0.  1.
</event>
<event>
 7    1  0.2486105E-010  0.4778727E+02  0.7816164E-02  0.1312668E+00
        -11   -1    0    0    0    0  0.00000000000E+00  0.00000000000E+00  0.45593999997E+02  0.45594000000E+02  0.51100000000E-03 0. -1.
         11   -1    0    0    0    0 -0.00000000000E+00 -0.00000000000E+00 -0.45593999997E+02  0.45594000000E+02  0.51100000000E-03 0.  1.
    9900012    2    1    2    0    0 -0.22663516371E+02  0.10902854745E+02 -0.35371115344E+02  0.47787274009E+02  0.20000013517E+02 0.  0.
         12    1    1    2    0    0  0.22663516371E+02 -0.10902854745E+02  0.35371115344E+02  0.43400725991E+02  0.00000000000E+00 0. -1.
         11    1    3    3    0    0 -0.12314950271E+01  0.14557529218E+01 -0.12076771655E+02  0.12226373560E+02  0.51100000000E-03 0. -1.
        -11    1    3    3    0    0 -0.11368514222E+02  0.53362524531E+00 -0.17604567432E+02  0.20963030941E+02  0.51100000000E-03 0.  1.
         12    1    3    3    0    0 -0.10063507122E+02  0.89134765781E+01 -0.56897762568E+01  0.14597869508E+02  0.00000000000E+00 0. -1.
</event>
<event>
 7    1  0.2486105E-010  0.4778727E+02  0.7816164E-02  0.1312668E+00
        -11   -1    0    0    0    0  0.00000000000E+00  0.00000000000E+00  0.45593999997E+02  0.45594000000E+02  0.51100000000E-03 0.  1.
         11   -1    0    0    0    0 -0.00000000000E+00 -0.00000000000E+00 -0.45593999997E+02  0.45594000000E+02  0.51100000000E-03 0. -1.
    9900012    2    1    2    0    0  0.39472296968E+02  0.59463972647E+01  0.17035296535E+02  0.47787271937E+02  0.20000004071E+02 0.  0.
         12    1    1    2    0    0 -0.39472296968E+02 -0.59463972647E+01 -0.17035296535E+02  0.43400728063E+02  0.00000000000E+00 0. -1.
         11    1    3    3    0    0  0.91238334426E+01  0.89158803077E+01  0.25456983110E+00  0.12759391224E+02  0.51100000000E-03 0. -1.
        -11    1    3    3    0    0  0.14036048910E+01  0.55663443502E+00  0.31943180376E+00  0.15433682395E+01  0.51100000000E-03 0.  1.
        -12    1    3    3    0    0  0.28944858634E+02 -0.35261174780E+01  0.16461294900E+02  0.33484512474E+02  0.00000000000E+00 0.  1.
</event>
<event>
 7    1  0.2486105E-010  0.4778726E+02  0.7816164E-02  0.1312668E+00
        -11   -1    0    0    0    0  0.00000000000E+00  0.00000000000E+00  0.45593999997E+02  0.45594000000E+02  0.51100000000E-03 0.  1.
         11   -1    0    0    0    0 -0.00000000000E+00 -0.00000000000E+00 -0.45593999997E+02  0.45594000000E+02  0.51100000000E-03 0. -1.
    9900012    2    1    2    0    0  0.27689914482E+02  0.79780466576E+01  0.32453720971E+02  0.47787255797E+02  0.19999930483E+02 0.  0.
         12    1    1    2    0    0 -0.27689914482E+02 -0.79780466576E+01 -0.32453720971E+02  0.43400744203E+02  0.00000000000E+00 0. -1.
         11    1    3    3    0    0  0.38524088223E+01  0.45096412008E+01  0.16091072073E+01  0.61454978448E+01  0.51100000000E-03 0. -1.
        -11    1    3    3    0    0  0.60973216913E+01  0.73881227387E+01  0.13253730652E+02  0.16353075119E+02  0.51100000000E-03 0.  1.
         12    1    3    3    0    0  0.17740183968E+02 -0.39197172819E+01  0.17590883112E+02  0.25288682833E+02  0.00000000000E+00 0. -1.
</event>
<event>
 7    1  0.2486105E-010  0.4778727E+02  0.7816164E-02  0.1312668E+00
        -11   -1    0    0    0    0  0.00000000000E+00  0.00000000000E+00  0.45593999997E+02  0.45594000000E+02  0.51100000000E-03 0.  1.
         11   -1    0    0    0    0 -0.00000000000E+00 -0.00000000000E+00 -0.45593999997E+02  0.45594000000E+02  0.51100000000E-03 0. -1.
    9900012    2    1    2    0    0 -0.14185715239E+02  0.40875455200E+02 -0.34038299432E+01  0.47787269443E+02  0.19999992696E+02 0.  0.
         12    1    1    2    0    0  0.14185715239E+02 -0.40875455200E+02  0.34038299432E+01  0.43400730557E+02  0.00000000000E+00 0. -1.
         11    1    3    3    0    0 -0.65697669405E+01  0.59839338670E+01 -0.69633673176E+00  0.89137078302E+01  0.51100000000E-03 0. -1.
        -11    1    3    3    0    0 -0.12139234540E+02  0.22530854605E+02 -0.11413758865E+01  0.25618414542E+02  0.51100000000E-03 0.  1.
        -12    1    3    3    0    0  0.45232862421E+01  0.12360666728E+02 -0.15661173249E+01  0.13255147071E+02  0.00000000000E+00 0.  1.
</event>
<event>
 7    1  0.2486105E-010  0.4778727E+02  0.7816164E-02  0.1312668E+00
        -11   -1    0    0    0    0  0.00000000000E+00  0.00000000000E+00  0.45593999997E+02  0.45594000000E+02  0.51100000000E-03 0.  1.
         11   -1    0    0    0    0 -0.00000000000E+00 -0.00000000000E+00 -0.45593999997E+02  0.45594000000E+02  0.51100000000E-03 0. -1.
    9900012    2    1    2    0    0 -0.24112720202E+02 -0.11317758127E+01  0.36068252812E+02  0.47787273590E+02  0.20000011607E+02 0.  0.
         12    1    1    2    0    0  0.24112720202E+02  0.11317758127E+01 -0.36068252812E+02  0.43400726410E+02  0.00000000000E+00 0. -1.
         11    1    3    3    0    0 -0.88782119455E+01 -0.25776457952E+01  0.71594627099E+01  0.11692938542E+02  0.51100000000E-03 0.  1.
        -11    1    3    3    0    0 -0.65389394449E+01  0.26374706605E+01  0.13594318398E+01  0.71806709809E+01  0.51100000000E-03 0. -1.
         12    1    3    3    0    0 -0.86955688113E+01 -0.11916006779E+01  0.27549358262E+02  0.28913664067E+02  0.00000000000E+00 0. -1.
</event>
<event>
 7    1  0.2486105E-010  0.4778727E+02  0.7816164E-02  0.1312668E+00
        -11   -1    0    0    0    0  0.00000000000E+00  0.00000000000E+00  0.45593999997E+02  0.45594000000E+02  0.51100000000E-03 0.  1.
         11   -1    0    0    0    0 -0.00000000000E+00 -0.00000000000E+00 -0.45593999997E+02  0.45594000000E+02  0.51100000000E-03 0. -1.
    9900012    2    1    2    0    0  0.40328991437E+02 -0.10517055084E+02  0.12107322937E+02  0.47787271127E+02  0.20000000377E+02 0.  0.
         12    1    1    2    0    0 -0.40328991437E+02  0.10517055084E+02 -0.12107322937E+02  0.43400728873E+02  0.00000000000E+00 0. -1.
         11    1    3    3    0    0 -0.51373191171E+00 -0.23079978908E+01  0.40559068323E+00  0.23990162160E+01  0.51100000000E-03 0. -1.
        -11    1    3    3    0    0  0.71039979739E+01  0.24031860606E+01  0.59111076564E+01  0.95489938968E+01  0.51100000000E-03 0.  1.
         12    1    3    3    0    0  0.33738725375E+02 -0.10612243254E+02  0.57906245974E+01  0.35839261014E+02  0.00000000000E+00 0. -1.
</event>
<event>
 7    1  0.2486105E-010  0.4778727E+02  0.7816164E-02  0.1312668E+00
        -11   -1    0    0    0    0  0.00000000000E+00  0.00000000000E+00  0.45593999997E+02  0.45594000000E+02  0.51100000000E-03 0.  1.
         11   -1    0    0    0    0 -0.00000000000E+00 -0.00000000000E+00 -0.45593999997E+02  0.45594000000E+02  0.51100000000E-03 0. -1.
    9900012    2    1    2    0    0 -0.35311605695E+01 -0.52462052561E+01  0.42937531746E+02  0.47787269626E+02  0.19999993535E+02 0.  0.
         12    1    1    2    0    0  0.35311605695E+01  0.52462052561E+01 -0.42937531746E+02  0.43400730374E+02  0.00000000000E+00 0. -1.
         11    1    3    3    0    0 -0.52663477302E+01  0.28727225421E+01  0.32012599108E+02  0.32569824303E+02  0.51100000000E-03 0. -1.
        -11    1    3    3    0    0 -0.20000596701E+01 -0.37078312347E+01  0.71971410060E+01  0.83394897968E+01  0.51100000000E-03 0.  1.
         12    1    3    3    0    0  0.37352468308E+01 -0.44110965635E+01  0.37277916316E+01  0.68779555268E+01  0.00000000000E+00 0. -1.
</event>
<event>
 7    1  0.2486105E-010  0.4778727E+02  0.7816164E-02  0.1312668E+00
        -11   -1    0    0    0    0  0.00000000000E+00  0.00000000000E+00  0.45593999997E+02  0.45594000000E+02  0.51100000000E-03 0.  1.
         11   -1    0    0    0    0 -0.00000000000E+00 -0.00000000000E+00 -0.45593999997E+02  0.45594000000E+02  0.51100000000E-03 0. -1.
    9900012    2    1    2    0    0 -0.19456198045E+02  0.14474252628E+02  0.35994103493E+02  0.47787272843E+02  0.20000008199E+02 0.  0.
         12    1    1    2    0    0  0.19456198045E+02 -0.14474252628E+02 -0.35994103493E+02  0.43400727157E+02  0.00000000000E+00 0. -1.
         11    1    3    3    0    0  0.75593075130E+00  0.17410679072E+01 -0.13700935021E+01  0.23409197388E+01  0.51100000000E-03 0. -1.
        -11    1    3    3    0    0 -0.97706376666E+01  0.46529949803E+01  0.86921207624E+01  0.13880514627E+02  0.51100000000E-03 0.  1.
        -12    1    3    3    0    0 -0.10441491130E+02  0.80801897405E+01  0.28672076233E+02  0.31565838477E+02  0.00000000000E+00 0.  1.
</event>
<event>
 7    1  0.2486105E-010  0.4778727E+02  0.7816164E-02  0.1312668E+00
        -11   -1    0    0    0    0  0.00000000000E+00  0.00000000000E+00  0.45593999997E+02  0.45594000000E+02  0.51100000000E-03 0. -1.
         11   -1    0    0    0    0 -0.00000000000E+00 -0.00000000000E+00 -0.45593999997E+02  0.45594000000E+02  0.51100000000E-03 0.  1.
    9900012    2    1    2    0    0  0.34223180969E+02 -0.26469222230E+02 -0.34318568768E+01  0.47787268638E+02  0.19999989029E+02 0.  0.
         12    1    1    2    0    0 -0.34223180969E+02  0.26469222230E+02  0.34318568768E+01  0.43400731362E+02  0.00000000000E+00 0. -1.
         11    1    3    3    0    0  0.28867723819E+02 -0.20659797747E+02  0.38362850092E+01  0.35705599062E+02  0.51100000000E-03 0.  1.
        -11    1    3    3    0    0  0.82575498207E-01 -0.11436661844E+01  0.78125265953E+00  0.13874966787E+01  0.51100000000E-03 0. -1.
        -12    1    3    3    0    0  0.52728816524E+01 -0.46657582983E+01 -0.80493945455E+01  0.10694172898E+02  0.00000000000E+00 0.  1.
</event>
<event>
 7    1  0.2486105E-010  0.4778727E+02  0.7816164E-02  0.1312668E+00
        -11   -1    0    0    0    0  0.00000000000E+00  0.00000000000E+00  0.45593999997E+02  0.45594000000E+02  0.51100000000E-03 0. -1.
         11   -1    0    0    0    0 -0.00000000000E+00 -0.00000000000E+00 -0.45593999997E+02  0.45594000000E+02  0.51100000000E-03 0.  1.
    9900012    2    1    2    0    0  0.15532291384E+02  0.40038059774E+02 -0.62709708393E+01  0.47787269806E+02  0.19999994351E+02 0.  0.
         12    1    1    2    0    0 -0.15532291384E+02 -0.40038059774E+02  0.62709708393E+01  0.43400730194E+02  0.00000000000E+00 0. -1.
         11    1    3    3    0    0 -0.45043904100E+00 -0.54647848615E+00  0.11624998696E+01  0.13612274878E+01  0.51100000000E-03 0. -1.
        -11    1    3    3    0    0  0.11207245694E+02  0.16591456423E+02  0.21819603015E+01  0.20140499827E+02  0.51100000000E-03 0.  1.
        -12    1    3    3    0    0  0.47754847310E+01  0.23993081838E+02 -0.96154310104E+01  0.26285542490E+02  0.00000000000E+00 0.  1.
</event>
<event>
 7    1  0.2486105E-010  0.4778727E+02  0.7816164E-02  0.1312668E+00
        -11   -1    0    0    0    0  0.00000000000E+00  0.00000000000E+00  0.45593999997E+02  0.45594000000E+02  0.51100000000E-03 0. -1.
         11   -1    0    0    0    0 -0.00000000000E+00 -0.00000000000E+00 -0.45593999997E+02  0.45594000000E+02  0.51100000000E-03 0.  1.
    9900012    2    1    2    0    0 -0.28770175753E+02  0.32494224481E+02  0.15993568024E+00  0.47787271701E+02  0.20000002993E+02 0.  0.
         12    1    1    2    0    0  0.28770175753E+02 -0.32494224481E+02 -0.15993568024E+00  0.43400728299E+02  0.00000000000E+00 0. -1.
         11    1    3    3    0    0 -0.26617434523E+01  0.42396511072E+01 -0.45106563338E+01  0.67383633428E+01  0.51100000000E-03 0. -1.
        -11    1    3    3    0    0  0.69769857626E+00  0.18246207387E+01  0.27266713430E+01  0.33542154101E+01  0.51100000000E-03 0.  1.
        -12    1    3    3    0    0 -0.26806130877E+02  0.26429952635E+02  0.19439206710E+01  0.37694692948E+02  0.00000000000E+00 0.  1.
</event>
<event>
 7    1  0.2486105E-010  0.4778727E+02  0.7816164E-02  0.1312668E+00
        -11   -1    0    0    0    0  0.00000000000E+00  0.00000000000E+00  0.45593999997E+02  0.45594000000E+02  0.51100000000E-03 0.  1.
         11   -1    0    0    0    0 -0.00000000000E+00 -0.00000000000E+00 -0.45593999997E+02  0.45594000000E+02  0.51100000000E-03 0. -1.
    9900012    2    1    2    0    0 -0.15455490609E+02 -0.14747069739E+02  0.37779289681E+02  0.47787274376E+02  0.20000015191E+02 0.  0.
         12    1    1    2    0    0  0.15455490609E+02  0.14747069739E+02 -0.37779289681E+02  0.43400725624E+02  0.00000000000E+00 0. -1.
         11    1    3    3    0    0  0.10274755177E+01  0.72762948439E+00 -0.89738135090E-01  0.12622217714E+01  0.51100000000E-03 0. -1.
        -11    1    3    3    0    0 -0.84746153911E+01 -0.13953530740E+02  0.14716482434E+02  0.21979421777E+02  0.51100000000E-03 0.  1.
         12    1    3    3    0    0 -0.80083507359E+01 -0.15211684826E+01  0.23152545383E+02  0.24545630828E+02  0.00000000000E+00 0. -1.
</event>
<event>
 7    1  0.2486105E-010  0.4778727E+02  0.7816164E-02  0.1312668E+00
        -11   -1    0    0    0    0  0.00000000000E+00  0.00000000000E+00  0.45593999997E+02  0.45594000000E+02  0.51100000000E-03 0.  1.
         11   -1    0    0    0    0 -0.00000000000E+00 -0.00000000000E+00 -0.45593999997E+02  0.45594000000E+02  0.51100000000E-03 0. -1.
    9900012    2    1    2    0    0  0.10562931747E+02  0.14263026158E+02  0.39605728994E+02  0.47787271764E+02  0.20000003281E+02 0.  0.
         12    1    1    2    0    0 -0.10562931747E+02 -0.14263026158E+02 -0.39605728994E+02  0.43400728236E+02  0.00000000000E+00 0. -1.
         11    1    3    3    0    0  0.15815906630E+01 -0.85800083527E+00 -0.38503795290E+00  0.18400676469E+01  0.51100000000E-03 0.  1.
        -11    1    3    3    0    0  0.73890757858E+01  0.12656327655E+00  0.15779491037E+02  0.17424316253E+02  0.51100000000E-03 0. -1.
        -12    1    3    3    0    0  0.15922652978E+01  0.14994463717E+02  0.24211275909E+02  0.28522887864E+02  0.00000000000E+00 0.  1.
</event>
<event>
 7    1  0.2486105E-010  0.4778727E+02  0.7816164E-02  0.1312668E+00
        -11   -1    0    0    0    0  0.00000000000E+00  0.00000000000E+00  0.45593999997E+02  0.45594000000E+02  0.51100000000E-03 0.  1.
         11   -1    0    0    0    0 -0.00000000000E+00 -0.00000000000E+00 -0.45593999997E+02  0.45594000000E+02  0.51100000000E-03 0. -1.
    9900012    2    1    2    0    0 -0.21622265877E+02  0.22642981910E+02  0.30056556140E+02  0.47787267536E+02  0.19999984002E+02 0.  0.
         12    1    1    2    0    0  0.21622265877E+02 -0.22642981910E+02 -0.30056556140E+02  0.43400732464E+02  0.00000000000E+00 0. -1.
         11    1    3    3    0    0 -0.48986402399E+01  0.86488547142E+01  0.67358320857E+01  0.12007114483E+02  0.51100000000E-03 0. -1.
        -11    1    3    3    0    0 -0.13238570446E+02  0.17386922203E+02  0.21289815760E+02  0.30509360310E+02  0.51100000000E-03 0.  1.
        -12    1    3    3    0    0 -0.34850551906E+01 -0.33927950063E+01  0.20309082942E+01  0.52707927426E+01  0.00000000000E+00 0.  1.
</event>
<event>
 7    1  0.2486105E-010  0.4778727E+02  0.7816164E-02  0.1312668E+00
        -11   -1    0    0    0    0  0.00000000000E+00  0.00000000000E+00  0.45593999997E+02  0.45594000000E+02  0.51100000000E-03 0.  1.
         11   -1    0    0    0    0 -0.00000000000E+00 -0.00000000000E+00 -0.45593999997E+02  0.45594000000E+02  0.51100000000E-03 0. -1.
    9900012    2    1    2    0    0  0.14852426108E+02 -0.23566697209E+02  0.33281218720E+02  0.47787270765E+02  0.19999998725E+02 0.  0.
         12    1    1    2    0    0 -0.14852426108E+02  0.23566697209E+02 -0.33281218720E+02  0.43400729235E+02  0.00000000000E+00 0. -1.
         11    1    3    3    0    0  0.82455495284E+01 -0.28249376853E+01  0.64796793913E+01  0.10860736864E+02  0.51100000000E-03 0. -1.
        -11    1    3    3    0    0 -0.19372741774E+00 -0.54753236277E+01  0.16520652889E+00  0.54812400603E+01  0.51100000000E-03 0.  1.
        -12    1    3    3    0    0  0.68006039978E+01 -0.15266435896E+02  0.26636332800E+02  0.31445293841E+02  0.00000000000E+00 0.  1.
</event>
<event>
 7    1  0.2486105E-010  0.4778727E+02  0.7816164E-02  0.1312668E+00
        -11   -1    0    0    0    0  0.00000000000E+00  0.00000000000E+00  0.45593999997E+02  0.45594000000E+02  0.51100000000E-03 0.  1.
         11   -1    0    0    0    0 -0.00000000000E+00 -0.00000000000E+00 -0.45593999997E+02  0.45594000000E+02  0.51100000000E-03 0. -1.
    9900012    2    1    2    0    0  0.60263294185E+01  0.23719350356E+02  0.35842703450E+02  0.47787267078E+02  0.19999981915E+02 0.  0.
         12    1    1    2    0    0 -0.60263294185E+01 -0.23719350356E+02 -0.35842703450E+02  0.43400732922E+02  0.00000000000E+00 0. -1.
         11    1    3    3    0    0 -0.49359967570E+00  0.57743844765E+01  0.15518675297E+02  0.16565519611E+02  0.51100000000E-03 0. -1.
        -11    1    3    3    0    0 -0.92543103348E+00  0.15802997337E+02  0.15105400997E+02  0.21880682964E+02  0.51100000000E-03 0.  1.
         12    1    3    3    0    0  0.74453601277E+01  0.21419685428E+01  0.52186271555E+01  0.93410645034E+01  0.00000000000E+00 0. -1.
</event>
<event>
 7    1  0.2486105E-010  0.4778727E+02  0.7816164E-02  0.1312668E+00
        -11   -1    0    0    0    0  0.00000000000E+00  0.00000000000E+00  0.45593999997E+02  0.45594000000E+02  0.51100000000E-03 0. -1.
         11   -1    0    0    0    0 -0.00000000000E+00 -0.00000000000E+00 -0.45593999997E+02  0.45594000000E+02  0.51100000000E-03 0.  1.
    9900012    2    1    2    0    0  0.23071782288E+02 -0.13769540269E+02 -0.34083952539E+02  0.47787271920E+02  0.20000003994E+02 0.  0.
         12    1    1    2    0    0 -0.23071782288E+02  0.13769540269E+02  0.34083952539E+02  0.43400728080E+02  0.00000000000E+00 0. -1.
         11    1    3    3    0    0  0.24724470385E+02 -0.11568601035E+02 -0.33617264872E+02  0.43304185288E+02  0.51100000000E-03 0. -1.
        -11    1    3    3    0    0 -0.95195672319E+00  0.60708965944E-01 -0.15963923832E+01  0.18596709611E+01  0.51100000000E-03 0.  1.
         12    1    3    3    0    0 -0.70073137333E+00 -0.22616482002E+01  0.11297047165E+01  0.26234156715E+01  0.00000000000E+00 0. -1.
</event>
<event>
 7    1  0.2486105E-010  0.4778727E+02  0.7816164E-02  0.1312668E+00
        -11   -1    0    0    0    0  0.00000000000E+00  0.00000000000E+00  0.45593999997E+02  0.45594000000E+02  0.51100000000E-03 0.  1.
         11   -1    0    0    0    0 -0.00000000000E+00 -0.00000000000E+00 -0.45593999997E+02  0.45594000000E+02  0.51100000000E-03 0. -1.
    9900012    2    1    2    0    0 -0.27359566853E+02  0.14053624183E+02  0.30619818154E+02  0.47787268269E+02  0.19999987344E+02 0.  0.
         12    1    1    2    0    0  0.27359566853E+02 -0.14053624183E+02 -0.30619818154E+02  0.43400731731E+02  0.00000000000E+00 0. -1.
         11    1    3    3    0    0 -0.12266367732E+02  0.44070151038E+01  0.35415741762E+01  0.13506602362E+02  0.51100000000E-03 0. -1.
        -11    1    3    3    0    0 -0.11934886312E+02  0.10946827314E+02  0.16313433450E+02  0.22987010478E+02  0.51100000000E-03 0.  1.
         12    1    3    3    0    0 -0.31583128083E+01 -0.13002182340E+01  0.10764810527E+02  0.11293655429E+02  0.00000000000E+00 0. -1.
</event>
<event>
 7    1  0.2486105E-010  0.4778727E+02  0.7816164E-02  0.1312668E+00
        -11   -1    0    0    0    0  0.00000000000E+00  0.00000000000E+00  0.45593999997E+02  0.45594000000E+02  0.51100000000E-03 0.  1.
         11   -1    0    0    0    0 -0.00000000000E+00 -0.00000000000E+00 -0.45593999997E+02  0.45594000000E+02  0.51100000000E-03 0. -1.
    9900012    2    1    2    0    0 -0.17688206555E+02 -0.39612391738E+02  0.12684831268E+01  0.47787270977E+02  0.19999999691E+02 0.  0.
         12    1    1    2    0    0  0.17688206555E+02  0.39612391738E+02 -0.12684831268E+01  0.43400729023E+02  0.00000000000E+00 0. -1.
         11    1    3    3    0    0 -0.33820483108E+00 -0.21273726829E+02  0.29375594130E+01  0.21478246932E+02  0.51100000000E-03 0. -1.
        -11    1    3    3    0    0 -0.74251330967E+01 -0.86935280782E+01  0.27910162318E+01  0.11768593961E+02  0.51100000000E-03 0.  1.
        -12    1    3    3    0    0 -0.99248686275E+01 -0.96451368305E+01 -0.44600925180E+01  0.14540430084E+02  0.00000000000E+00 0.  1.
</event>
<event>
 7    1  0.2486105E-010  0.4778727E+02  0.7816164E-02  0.1312668E+00
        -11   -1    0    0    0    0  0.00000000000E+00  0.00000000000E+00  0.45593999997E+02  0.45594000000E+02  0.51100000000E-03 0.  1.
         11   -1    0    0    0    0 -0.00000000000E+00 -0.00000000000E+00 -0.45593999997E+02  0.45594000000E+02  0.51100000000E-03 0. -1.
    9900012    2    1    2    0    0 -0.19958937776E+02 -0.23132378927E+02  0.30824620638E+02  0.47787269713E+02  0.19999993930E+02 0.  0.
         12    1    1    2    0    0  0.19958937776E+02  0.23132378927E+02 -0.30824620638E+02  0.43400730287E+02  0.00000000000E+00 0. -1.
         11    1    3    3    0    0 -0.55606370706E+01  0.93051173598E-01  0.26224827523E+01  0.61487201269E+01  0.51100000000E-03 0. -1.
        -11    1    3    3    0    0 -0.56869684205E+01 -0.40222072591E+01  0.15571309198E+02  0.17058295092E+02  0.51100000000E-03 0.  1.
         12    1    3    3    0    0 -0.87113322850E+01 -0.19203222841E+02  0.12630828688E+02  0.24580254494E+02  0.00000000000E+00 0. -1.
</event>
<event>
 7    1  0.2486105E-010  0.4778727E+02  0.7816164E-02  0.1312668E+00
        -11   -1    0    0    0    0  0.00000000000E+00  0.00000000000E+00  0.45593999997E+02  0.45594000000E+02  0.51100000000E-03 0.  1.
         11   -1    0    0    0    0 -0.00000000000E+00 -0.00000000000E+00 -0.45593999997E+02  0.45594000000E+02  0.51100000000E-03 0. -1.
    9900012    2    1    2    0    0 -0.38473998330E+02 -0.19615333348E+02  0.43143616982E+01  0.47787267671E+02  0.19999984617E+02 0.  0.
         12    1    1    2    0    0  0.38473998330E+02  0.19615333348E+02 -0.43143616982E+01  0.43400732329E+02  0.00000000000E+00 0. -1.
         11    1    3    3    0    0 -0.23328864212E+01 -0.40638267915E+01 -0.27959801105E+01  0.54566062974E+01  0.51100000000E-03 0. -1.
        -11    1    3    3    0    0 -0.93653927613E+01  0.88700727108E+00 -0.19995327307E+01  0.96174578176E+01  0.51100000000E-03 0.  1.
        -12    1    3    3    0    0 -0.26775719148E+02 -0.16438513827E+02  0.91098745393E+01  0.32713203556E+02  0.00000000000E+00 0.  1.
</event>
<event>
 7    1  0.2486105E-010  0.4778727E+02  0.7816164E-02  0.1312668E+00
        -11   -1    0    0    0    0  0.00000000000E+00  0.00000000000E+00  0.45593999997E+02  0.45594000000E+02  0.51100000000E-03 0.  1.
         11   -1    0    0    0    0 -0.00000000000E+00 -0.00000000000E+00 -0.45593999997E+02  0.45594000000E+02  0.51100000000E-03 0. -1.
    9900012    2    1    2    0    0 -0.38188481771E+02 -0.10740715815E+02  0.17603989233E+02  0.47787267828E+02  0.19999985334E+02 0.  0.
         12    1    1    2    0    0  0.38188481771E+02  0.10740715815E+02 -0.17603989233E+02  0.43400732172E+02  0.00000000000E+00 0. -1.
         11    1    3    3    0    0 -0.23587446920E+01  0.81940127830E+00 -0.11583322225E+01  0.27526039991E+01  0.51100000000E-03 0. -1.
        -11    1    3    3    0    0 -0.52582180991E+01 -0.52051933491E+01 -0.18414169591E+01  0.76245466788E+01  0.51100000000E-03 0.  1.
        -12    1    3    3    0    0 -0.30571518980E+02 -0.63549237439E+01  0.20603738414E+02  0.37410117150E+02  0.00000000000E+00 0.  1.
</event>
<event>
 7    1  0.2486105E-010  0.4778727E+02  0.7816164E-02  0.1312668E+00
        -11   -1    0    0    0    0  0.00000000000E+00  0.00000000000E+00  0.45593999997E+02  0.45594000000E+02  0.51100000000E-03 0.  1.
         11   -1    0    0    0    0 -0.00000000000E+00 -0.00000000000E+00 -0.45593999997E+02  0.45594000000E+02  0.51100000000E-03 0. -1.
    9900012    2    1    2    0    0 -0.30739281841E+02 -0.16988693764E+01  0.30591404232E+02  0.47787267078E+02  0.19999981917E+02 0.  0.
         12    1    1    2    0    0  0.30739281841E+02  0.16988693764E+01 -0.30591404232E+02  0.43400732922E+02  0.00000000000E+00 0. -1.
         11    1    3    3    0    0 -0.85646518106E+01  0.12908124994E+01  0.50605549884E+01  0.10031384481E+02  0.51100000000E-03 0. -1.
        -11    1    3    3    0    0 -0.24271281191E+02 -0.46212062293E+01  0.20656989262E+02  0.32204997179E+02  0.51100000000E-03 0.  1.
         12    1    3    3    0    0  0.20966511612E+01  0.16315243534E+01  0.48738599817E+01  0.55508854184E+01  0.00000000000E+00 0. -1.
</event>
<event>
 7    1  0.2486105E-010  0.4778727E+02  0.7816164E-02  0.1312668E+00
        -11   -1    0    0    0    0  0.00000000000E+00  0.00000000000E+00  0.45593999997E+02  0.45594000000E+02  0.51100000000E-03 0. -1.
         11   -1    0    0    0    0 -0.00000000000E+00 -0.00000000000E+00 -0.45593999997E+02  0.45594000000E+02  0.51100000000E-03 0.  1.
    9900012    2    1    2    0    0 -0.72045843622E+01 -0.32381013868E+02 -0.27985482578E+02  0.47787270397E+02  0.19999997047E+02 0.  0.
         12    1    1    2    0    0  0.72045843622E+01  0.32381013868E+02  0.27985482578E+02  0.43400729603E+02  0.00000000000E+00 0. -1.
         11    1    3    3    0    0 -0.72779235100E+01 -0.13797934371E+02 -0.11835660638E+02  0.19581471511E+02  0.51100000000E-03 0. -1.
        -11    1    3    3    0    0 -0.63631114610E+01 -0.83567639403E+01 -0.10552996745E+02  0.14889272366E+02  0.51100000000E-03 0.  1.
         12    1    3    3    0    0  0.64364506089E+01 -0.10226315557E+02 -0.55968251953E+01  0.13316526520E+02  0.00000000000E+00 0. -1.
</event>
<event>
 7    1  0.2486105E-010  0.4778727E+02  0.7816164E-02  0.1312668E+00
        -11   -1    0    0    0    0  0.00000000000E+00  0.00000000000E+00  0.45593999997E+02  0.45594000000E+02  0.51100000000E-03 0.  1.
         11   -1    0    0    0    0 -0.00000000000E+00 -0.00000000000E+00 -0.45593999997E+02  0.45594000000E+02  0.51100000000E-03 0. -1.
    9900012    2    1    2    0    0  0.29307661679E+02 -0.16678316370E+02  0.27322475685E+02  0.47787274803E+02  0.20000017139E+02 0.  0.
         12    1    1    2    0    0 -0.29307661679E+02  0.16678316370E+02 -0.27322475685E+02  0.43400725197E+02  0.00000000000E+00 0. -1.
         11    1    3    3    0    0  0.41891333308E+00 -0.13695938221E+00 -0.64872154021E+00  0.78427428293E+00  0.51100000000E-03 0. -1.
        -11    1    3    3    0    0  0.20213674883E+02 -0.12878104730E+02  0.85990337940E+01  0.25463338669E+02  0.51100000000E-03 0.  1.
        -12    1    3    3    0    0  0.86750734633E+01 -0.36632522581E+01  0.19372163431E+02  0.21539661852E+02  0.00000000000E+00 0.  1.
</event>
<event>
 7    1  0.2486105E-010  0.4778723E+02  0.7816164E-02  0.1312668E+00
        -11   -1    0    0    0    0  0.00000000000E+00  0.00000000000E+00  0.45593999997E+02  0.45594000000E+02  0.51100000000E-03 0.  1.
         11   -1    0    0    0    0 -0.00000000000E+00 -0.00000000000E+00 -0.45593999997E+02  0.45594000000E+02  0.51100000000E-03 0. -1.
    9900012    2    1    2    0    0  0.89145442932E+01 -0.28167676329E+02  0.31792137896E+02  0.47787226715E+02  0.19999797884E+02 0.  0.
         12    1    1    2    0    0 -0.89145442932E+01  0.28167676329E+02 -0.31792137896E+02  0.43400773285E+02  0.00000000000E+00 0. -1.
         11    1    3    3    0    0 -0.51216826163E-01 -0.16331027594E+02  0.13156225537E+02  0.20971203019E+02  0.51100000000E-03 0. -1.
        -11    1    3    3    0    0  0.58137565333E+01 -0.13920391389E+02  0.16912746565E+02  0.22663143164E+02  0.51100000000E-03 0.  1.
        -12    1    3    3    0    0  0.31520045861E+01  0.20837426537E+01  0.17231657940E+01  0.41528805318E+01  0.00000000000E+00 0.  1.
</event>
<event>
 7    1  0.2486105E-010  0.4778727E+02  0.7816164E-02  0.1312668E+00
        -11   -1    0    0    0    0  0.00000000000E+00  0.00000000000E+00  0.45593999997E+02  0.45594000000E+02  0.51100000000E-03 0.  1.
         11   -1    0    0    0    0 -0.00000000000E+00 -0.00000000000E+00 -0.45593999997E+02  0.45594000000E+02  0.51100000000E-03 0. -1.
    9900012    2    1    2    0    0  0.31216095039E+02  0.11758724879E+02  0.27765292469E+02  0.47787266526E+02  0.19999979396E+02 0.  0.
         12    1    1    2    0    0 -0.31216095039E+02 -0.11758724879E+02 -0.27765292469E+02  0.43400733474E+02  0.00000000000E+00 0. -1.
         11    1    3    3    0    0  0.65780141969E+01 -0.68387257459E+00  0.10216706581E+02  0.12170416841E+02  0.51100000000E-03 0. -1.
        -11    1    3    3    0    0  0.20237455002E+02  0.12422497591E+02  0.19572907626E+02  0.30772906014E+02  0.51100000000E-03 0.  1.
         12    1    3    3    0    0  0.44006258393E+01  0.20099862334E-01 -0.20243217374E+01  0.48439436701E+01  0.00000000000E+00 0. -1.
</event>
<event>
 7    1  0.2486105E-010  0.4778727E+02  0.7816164E-02  0.1312668E+00
        -11   -1    0    0    0    0  0.00000000000E+00  0.00000000000E+00  0.45593999997E+02  0.45594000000E+02  0.51100000000E-03 0.  1.
         11   -1    0    0    0    0 -0.00000000000E+00 -0.00000000000E+00 -0.45593999997E+02  0.45594000000E+02  0.51100000000E-03 0. -1.
    9900012    2    1    2    0    0 -0.18743274627E+02 -0.10537505564E+02  0.37699784601E+02  0.47787272745E+02  0.20000007754E+02 0.  0.
         12    1    1    2    0    0  0.18743274627E+02  0.10537505564E+02 -0.37699784601E+02  0.43400727255E+02  0.00000000000E+00 0. -1.
         11    1    3    3    0    0 -0.77246562359E+01 -0.71239511643E+01  0.11673407264E+02  0.15706350040E+02  0.51100000000E-03 0. -1.
        -11    1    3    3    0    0 -0.27769513375E+01 -0.57170357441E+01  0.21459749031E+02  0.22381170326E+02  0.51100000000E-03 0.  1.
         12    1    3    3    0    0 -0.82416670540E+01  0.23034813442E+01  0.45666283059E+01  0.96997523791E+01  0.00000000000E+00 0. -1.
</event>
<event>
 7    1  0.2486105E-010  0.4778727E+02  0.7816164E-02  0.1312668E+00
        -11   -1    0    0    0    0  0.00000000000E+00  0.00000000000E+00  0.45593999997E+02  0.45594000000E+02  0.51100000000E-03 0.  1.
         11   -1    0    0    0    0 -0.00000000000E+00 -0.00000000000E+00 -0.45593999997E+02  0.45594000000E+02  0.51100000000E-03 0. -1.
    9900012    2    1    2    0    0  0.27936251474E+02  0.32029907136E+02  0.87905767149E+01  0.47787270322E+02  0.19999996706E+02 0.  0.
         12    1    1    2    0    0 -0.27936251474E+02 -0.32029907136E+02 -0.87905767149E+01  0.43400729678E+02  0.00000000000E+00 0. -1.
         11    1    3    3    0    0  0.34414428440E+01  0.83074094617E+01  0.13812792775E+01  0.90975003993E+01  0.51100000000E-03 0. -1.
        -11    1    3    3    0    0  0.13852644386E+02  0.23554962250E+02  0.50861154729E+01  0.27795693442E+02  0.51100000000E-03 0.  1.
         12    1    3    3    0    0  0.10642164244E+02  0.16753542512E+00  0.23231819645E+01  0.10894076480E+02  0.00000000000E+00 0. -1.
</event>
<event>
 7    1  0.2486105E-010  0.4778727E+02  0.7816164E-02  0.1312668E+00
        -11   -1    0    0    0    0  0.00000000000E+00  0.00000000000E+00  0.45593999997E+02  0.45594000000E+02  0.51100000000E-03 0. -1.
         11   -1    0    0    0    0 -0.00000000000E+00 -0.00000000000E+00 -0.45593999997E+02  0.45594000000E+02  0.51100000000E-03 0.  1.
    9900012    2    1    2    0    0 -0.23321819592E+01  0.41469448615E+02  0.12588448852E+02  0.47787270909E+02  0.19999999383E+02 0.  0.
         12    1    1    2    0    0  0.23321819592E+01 -0.41469448615E+02 -0.12588448852E+02  0.43400729091E+02  0.00000000000E+00 0. -1.
         11    1    3    3    0    0 -0.26322510112E+01  0.11104374354E+02 -0.12014897058E+01  0.11475166794E+02  0.51100000000E-03 0. -1.
        -11    1    3    3    0    0  0.20552092144E+01  0.26732963400E+02  0.59038406311E+01  0.27454153630E+02  0.51100000000E-03 0.  1.
         12    1    3    3    0    0 -0.17551401624E+01  0.36321108609E+01  0.78860979262E+01  0.88579504852E+01  0.00000000000E+00 0. -1.
</event>
<event>
 7    1  0.2486105E-010  0.4778727E+02  0.7816164E-02  0.1312668E+00
        -11   -1    0    0    0    0  0.00000000000E+00  0.00000000000E+00  0.45593999997E+02  0.45594000000E+02  0.51100000000E-03 0. -1.
         11   -1    0    0    0    0 -0.00000000000E+00 -0.00000000000E+00 -0.45593999997E+02  0.45594000000E+02  0.51100000000E-03 0.  1.
    9900012    2    1    2    0    0 -0.43600223940E+01 -0.40770766841E+01 -0.42988264614E+02  0.47787271387E+02  0.20000001563E+02 0.  0.
         12    1    1    2    0    0  0.43600223940E+01  0.40770766841E+01  0.42988264614E+02  0.43400728613E+02  0.00000000000E+00 0. -1.
         11    1    3    3    0    0 -0.46820578836E+01 -0.73792071519E+01 -0.14575131995E+02  0.16994376633E+02  0.51100000000E-03 0.  1.
        -11    1    3    3    0    0  0.42610469743E+01 -0.52868331280E+00 -0.43566830362E+01  0.61169203609E+01  0.51100000000E-03 0. -1.
        -12    1    3    3    0    0 -0.39390114848E+01  0.38308137806E+01 -0.24056449583E+02  0.24675974393E+02  0.00000000000E+00 0.  1.
</event>
<event>
 7    1  0.2486105E-010  0.4778727E+02  0.7816164E-02  0.1312668E+00
        -11   -1    0    0    0    0  0.00000000000E+00  0.00000000000E+00  0.45593999997E+02  0.45594000000E+02  0.51100000000E-03 0.  1.
         11   -1    0    0    0    0 -0.00000000000E+00 -0.00000000000E+00 -0.45593999997E+02  0.45594000000E+02  0.51100000000E-03 0. -1.
    9900012    2    1    2    0    0  0.20060891288E+02 -0.24542899758E+02  0.29645075575E+02  0.47787265057E+02  0.19999972699E+02 0.  0.
         12    1    1    2    0    0 -0.20060891288E+02  0.24542899758E+02 -0.29645075575E+02  0.43400734943E+02  0.00000000000E+00 0. -1.
         11    1    3    3    0    0 -0.30400229628E+01 -0.44977150095E+01  0.74409701465E+01  0.92108206422E+01  0.51100000000E-03 0. -1.
        -11    1    3    3    0    0  0.35624141662E+01 -0.62148547276E+01  0.80125261164E+01  0.10747827176E+02  0.51100000000E-03 0.  1.
        -12    1    3    3    0    0  0.19538500084E+02 -0.13830330021E+02  0.14191579312E+02  0.27828617238E+02  0.00000000000E+00 0.  1.
</event>
<event>
 7    1  0.2486105E-010  0.4778726E+02  0.7816164E-02  0.1312668E+00
        -11   -1    0    0    0    0  0.00000000000E+00  0.00000000000E+00  0.45593999997E+02  0.45594000000E+02  0.51100000000E-03 0.  1.
         11   -1    0    0    0    0 -0.00000000000E+00 -0.00000000000E+00 -0.45593999997E+02  0.45594000000E+02  0.51100000000E-03 0. -1.
    9900012    2    1    2    0    0 -0.21861764009E+02 -0.10881869230E+02  0.35878573654E+02  0.47787264396E+02  0.19999969687E+02 0.  0.
         12    1    1    2    0    0  0.21861764009E+02  0.10881869230E+02 -0.35878573654E+02  0.43400735604E+02  0.00000000000E+00 0. -1.
         11    1    3    3    0    0 -0.35782712188E+01  0.14552309515E+01  0.69433208266E+01  0.79455287048E+01  0.51100000000E-03 0. -1.
        -11    1    3    3    0    0 -0.11995482381E+02 -0.13392914099E+02  0.28171692665E+02  0.33420143828E+02  0.51100000000E-03 0.  1.
         12    1    3    3    0    0 -0.62880104091E+01  0.10558139169E+01  0.76356016206E+00  0.64215918628E+01  0.00000000000E+00 0. -1.
</event>
<event>
 7    1  0.2486105E-010  0.4778727E+02  0.7816164E-02  0.1312668E+00
        -11   -1    0    0    0    0  0.00000000000E+00  0.00000000000E+00  0.45593999997E+02  0.45594000000E+02  0.51100000000E-03 0.  1.
         11   -1    0    0    0    0 -0.00000000000E+00 -0.00000000000E+00 -0.45593999997E+02  0.45594000000E+02  0.51100000000E-03 0. -1.
    9900012    2    1    2    0    0 -0.10985963627E+02 -0.98654214715E+01  0.40811829696E+02  0.47787269813E+02  0.19999994386E+02 0.  0.
         12    1    1    2    0    0  0.10985963627E+02  0.98654214715E+01 -0.40811829696E+02  0.43400730187E+02  0.00000000000E+00 0. -1.
         11    1    3    3    0    0 -0.34407151302E+01  0.73026422236E+00  0.10134405133E+01  0.36604464723E+01  0.51100000000E-03 0. -1.
        -11    1    3    3    0    0  0.29408856980E+01 -0.39743384661E+01  0.43986051959E+01  0.66175450782E+01  0.51100000000E-03 0.  1.
        -12    1    3    3    0    0 -0.10486134195E+02 -0.66213472277E+01  0.35399783987E+02  0.37509278263E+02  0.00000000000E+00 0.  1.
</event>
<event>
 7    1  0.2486105E-010  0.4778727E+02  0.7816164E-02  0.1312668E+00
        -11   -1    0    0    0    0  0.00000000000E+00  0.00000000000E+00  0.45593999997E+02  0.45594000000E+02  0.51100000000E-03 0.  1.
         11   -1    0    0    0    0 -0.00000000000E+00 -0.00000000000E+00 -0.45593999997E+02  0.45594000000E+02  0.51100000000E-03 0. -1.
    9900012    2    1    2    0    0  0.30992965760E+02  0.27084980195E+02  0.13764562176E+02  0.47787271312E+02  0.20000001220E+02 0.  0.
         12    1    1    2    0    0 -0.30992965760E+02 -0.27084980195E+02 -0.13764562176E+02  0.43400728688E+02  0.00000000000E+00 0. -1.
         11    1    3    3    0    0  0.15521738746E+02  0.88885886814E+01  0.27477534209E+01  0.18096450800E+02  0.51100000000E-03 0. -1.
        -11    1    3    3    0    0  0.13993073376E+02  0.59060543421E+01  0.58194196025E+01  0.16265092227E+02  0.51100000000E-03 0.  1.
        -12    1    3    3    0    0  0.14781536380E+01  0.12290337171E+02  0.51973891530E+01  0.13425728284E+02  0.00000000000E+00 0.  1.
</event>
<event>
 7    1  0.2486105E-010  0.4778726E+02  0.7816164E-02  0.1312668E+00
        -11   -1    0    0    0    0  0.00000000000E+00  0.00000000000E+00  0.45593999997E+02  0.45594000000E+02  0.51100000000E-03 0.  1.
         11   -1    0    0    0    0 -0.00000000000E+00 -0.00000000000E+00 -0.45593999997E+02  0.45594000000E+02  0.51100000000E-03 0. -1.
    9900012    2    1    2    0    0 -0.33260268511E+02 -0.11053347964E+02  0.25596912888E+02  0.47787263692E+02  0.19999966479E+02 0.  0.
         12    1    1    2    0    0  0.33260268511E+02  0.11053347964E+02 -0.25596912888E+02  0.43400736308E+02  0.00000000000E+00 0. -1.
         11    1    3    3    0    0 -0.13671490647E+01 -0.17161867789E+01  0.46253689690E+00  0.22423947617E+01  0.51100000000E-03 0. -1.
        -11    1    3    3    0    0 -0.28691060163E+02 -0.12094169289E+02  0.26722406969E+02  0.41030877380E+02  0.51100000000E-03 0.  1.
        -12    1    3    3    0    0 -0.32020592832E+01  0.27570081038E+01 -0.15880309778E+01  0.45139915511E+01  0.00000000000E+00 0.  1.
</event>
<event>
 7    1  0.2486105E-010  0.4778727E+02  0.7816164E-02  0.1312668E+00
        -11   -1    0    0    0    0  0.00000000000E+00  0.00000000000E+00  0.45593999997E+02  0.45594000000E+02  0.51100000000E-03 0.  1.
         11   -1    0    0    0    0 -0.00000000000E+00 -0.00000000000E+00 -0.45593999997E+02  0.45594000000E+02  0.51100000000E-03 0. -1.
    9900012    2    1    2    0    0 -0.12089500167E+02  0.12315781374E+02  0.39821967082E+02  0.47787267893E+02  0.19999985629E+02 0.  0.
         12    1    1    2    0    0  0.12089500167E+02 -0.12315781374E+02 -0.39821967082E+02  0.43400732107E+02  0.00000000000E+00 0. -1.
         11    1    3    3    0    0 -0.26097594965E+01  0.17492126467E+01 -0.80746259028E+00  0.32438535122E+01  0.51100000000E-03 0. -1.
        -11    1    3    3    0    0 -0.89088576672E+01  0.91137143251E+01  0.19125301146E+02  0.22982703886E+02  0.51100000000E-03 0.  1.
        -12    1    3    3    0    0 -0.57088300367E+00  0.14528544026E+01  0.21504128527E+02  0.21560710494E+02  0.00000000000E+00 0.  1.
</event>
<event>
 7    1  0.2486105E-010  0.4778727E+02  0.7816164E-02  0.1312668E+00
        -11   -1    0    0    0    0  0.00000000000E+00  0.00000000000E+00  0.45593999997E+02  0.45594000000E+02  0.51100000000E-03 0.  1.
         11   -1    0    0    0    0 -0.00000000000E+00 -0.00000000000E+00 -0.45593999997E+02  0.45594000000E+02  0.51100000000E-03 0. -1.
    9900012    2    1    2    0    0  0.19744552655E+02  0.10241408395E+02  0.37267804748E+02  0.47787273322E+02  0.20000010385E+02 0.  0.
         12    1    1    2    0    0 -0.19744552655E+02 -0.10241408395E+02 -0.37267804748E+02  0.43400726678E+02  0.00000000000E+00 0. -1.
         11    1    3    3    0    0  0.11141122759E+02  0.48171040447E+00  0.21683253122E+02  0.24382783423E+02  0.51100000000E-03 0. -1.
        -11    1    3    3    0    0  0.56703948295E+01  0.88746738984E+01  0.17025011544E+02  0.20019096699E+02  0.51100000000E-03 0.  1.
        -12    1    3    3    0    0  0.29330350661E+01  0.88502409180E+00 -0.14404599178E+01  0.33853931998E+01  0.00000000000E+00 0.  1.
</event>
<event>
 7    1  0.2486105E-010  0.4778729E+02  0.7816164E-02  0.1312668E+00
        -11   -1    0    0    0    0  0.00000000000E+00  0.00000000000E+00  0.45593999997E+02  0.45594000000E+02  0.51100000000E-03 0. -1.
         11   -1    0    0    0    0 -0.00000000000E+00 -0.00000000000E+00 -0.45593999997E+02  0.45594000000E+02  0.51100000000E-03 0.  1.
    9900012    2    1    2    0    0 -0.17379854278E+02  0.32214631084E+02 -0.23319091654E+02  0.47787287723E+02  0.20000076042E+02 0.  0.
         12    1    1    2    0    0  0.17379854278E+02 -0.32214631084E+02  0.23319091654E+02  0.43400712277E+02  0.00000000000E+00 0. -1.
         11    1    3    3    0    0 -0.69798690171E+01  0.94142235724E+01  0.15707662202E+01  0.11824275189E+02  0.51100000000E-03 0. -1.
        -11    1    3    3    0    0 -0.19023911382E+01  0.12282561018E+01 -0.47077503556E+01  0.52240423778E+01  0.51100000000E-03 0.  1.
        -12    1    3    3    0    0 -0.84975941231E+01  0.21572151410E+02 -0.20182107519E+02  0.30738970156E+02  0.00000000000E+00 0.  1.
</event>
<event>
 7    1  0.2486105E-010  0.4778727E+02  0.7816164E-02  0.1312668E+00
        -11   -1    0    0    0    0  0.00000000000E+00  0.00000000000E+00  0.45593999997E+02  0.45594000000E+02  0.51100000000E-03 0.  1.
         11   -1    0    0    0    0 -0.00000000000E+00 -0.00000000000E+00 -0.45593999997E+02  0.45594000000E+02  0.51100000000E-03 0. -1.
    9900012    2    1    2    0    0  0.23137317987E+02 -0.16164981720E+02  0.32969397240E+02  0.47787271066E+02  0.20000000098E+02 0.  0.
         12    1    1    2    0    0 -0.23137317987E+02  0.16164981720E+02 -0.32969397240E+02  0.43400728934E+02  0.00000000000E+00 0. -1.
         11    1    3    3    0    0  0.10870350444E+02 -0.20386453977E+01  0.97870081885E+01  0.14768416414E+02  0.51100000000E-03 0.  1.
        -11    1    3    3    0    0  0.75494320768E+01 -0.89262999204E+00  0.14854379929E+02  0.16686620878E+02  0.51100000000E-03 0. -1.
         12    1    3    3    0    0  0.47175354660E+01 -0.13233706330E+02  0.83280091220E+01  0.16332233774E+02  0.00000000000E+00 0. -1.
</event>
<event>
 7    1  0.2486105E-010  0.4778727E+02  0.7816164E-02  0.1312668E+00
        -11   -1    0    0    0    0  0.00000000000E+00  0.00000000000E+00  0.45593999997E+02  0.45594000000E+02  0.51100000000E-03 0.  1.
         11   -1    0    0    0    0 -0.00000000000E+00 -0.00000000000E+00 -0.45593999997E+02  0.45594000000E+02  0.51100000000E-03 0. -1.
    9900012    2    1    2    0    0 -0.62831728744E+01  0.20993387016E+02  0.37462282841E+02  0.47787271948E+02  0.20000004120E+02 0.  0.
         12    1    1    2    0    0  0.62831728744E+01 -0.20993387016E+02 -0.37462282841E+02  0.43400728052E+02  0.00000000000E+00 0. -1.
         11    1    3    3    0    0  0.31019739878E+01  0.10448195797E+02  0.11636038699E+02  0.15943162638E+02  0.51100000000E-03 0. -1.
        -11    1    3    3    0    0 -0.12014013491E+02  0.10136538316E+02  0.23697196185E+02  0.28436649530E+02  0.51100000000E-03 0.  1.
         12    1    3    3    0    0  0.26288666289E+01  0.40865290264E+00  0.21290479569E+01  0.34074597797E+01  0.00000000000E+00 0. -1.
</event>
<event>
 7    1  0.2486105E-010  0.4778727E+02  0.7816164E-02  0.1312668E+00
        -11   -1    0    0    0    0  0.00000000000E+00  0.00000000000E+00  0.45593999997E+02  0.45594000000E+02  0.51100000000E-03 0.  1.
         11   -1    0    0    0    0 -0.00000000000E+00 -0.00000000000E+00 -0.45593999997E+02  0.45594000000E+02  0.51100000000E-03 0. -1.
    9900012    2    1    2    0    0 -0.30479652429E+02  0.63874995840E+01  0.30229352281E+02  0.47787273020E+02  0.20000009007E+02 0.  0.
         12    1    1    2    0    0  0.30479652429E+02 -0.63874995840E+01 -0.30229352281E+02  0.43400726980E+02  0.00000000000E+00 0. -1.
         11    1    3    3    0    0 -0.10029394217E+02  0.22787279949E-02  0.10591580284E+02  0.14586648920E+02  0.51100000000E-03 0. -1.
        -11    1    3    3    0    0 -0.21858330852E+02  0.51445079835E+01  0.21106280892E+02  0.30817652139E+02  0.51100000000E-03 0.  1.
        -12    1    3    3    0    0  0.14080726402E+01  0.12407128725E+01 -0.14685088947E+01  0.23829719608E+01  0.00000000000E+00 0.  1.
</event>
<event>
 7    1  0.2486105E-010  0.4778728E+02  0.7816164E-02  0.1312668E+00
        -11   -1    0    0    0    0  0.00000000000E+00  0.00000000000E+00  0.45593999997E+02  0.45594000000E+02  0.51100000000E-03 0.  1.
         11   -1    0    0    0    0 -0.00000000000E+00 -0.00000000000E+00 -0.45593999997E+02  0.45594000000E+02  0.51100000000E-03 0. -1.
    9900012    2    1    2    0    0 -0.34851535524E+02  0.16872552710E+02  0.19603832201E+02  0.47787276500E+02  0.20000024874E+02 0.  0.
         12    1    1    2    0    0  0.34851535524E+02 -0.16872552710E+02 -0.19603832201E+02  0.43400723500E+02  0.00000000000E+00 0. -1.
         11    1    3    3    0    0 -0.64008873678E+01  0.19495841903E+01 -0.14454110854E+01  0.68455424239E+01  0.51100000000E-03 0. -1.
        -11    1    3    3    0    0 -0.51283476226E+01  0.10057779739E+02  0.69814467857E+01  0.13274015297E+02  0.51100000000E-03 0.  1.
         12    1    3    3    0    0 -0.23322300534E+02  0.48651887811E+01  0.14067796501E+02  0.27667718779E+02  0.00000000000E+00 0. -1.
</event>
<event>
 7    1  0.2486105E-010  0.4778726E+02  0.7816164E-02  0.1312668E+00
        -11   -1    0    0    0    0  0.00000000000E+00  0.00000000000E+00  0.45593999997E+02  0.45594000000E+02  0.51100000000E-03 0. -1.
         11   -1    0    0    0    0 -0.00000000000E+00 -0.00000000000E+00 -0.45593999997E+02  0.45594000000E+02  0.51100000000E-03 0.  1.
    9900012    2    1    2    0    0  0.23924922946E+02 -0.30637276197E+02 -0.19302311166E+02  0.47787264441E+02  0.19999969892E+02 0.  0.
         12    1    1    2    0    0 -0.23924922946E+02  0.30637276197E+02  0.19302311166E+02  0.43400735559E+02  0.00000000000E+00 0. -1.
         11    1    3    3    0    0  0.17914467605E+00 -0.26230874243E+00 -0.17739176266E+01  0.18021328193E+01  0.51100000000E-03 0. -1.
        -11    1    3    3    0    0  0.23387310952E+01 -0.13236060383E+02 -0.11983599946E+02  0.18007488041E+02  0.51100000000E-03 0.  1.
         12    1    3    3    0    0  0.21407047175E+02 -0.17138907071E+02 -0.55447935926E+01  0.27977643581E+02  0.00000000000E+00 0. -1.
</event>
<event>
 7    1  0.2486105E-010  0.4778727E+02  0.7816164E-02  0.1312668E+00
        -11   -1    0    0    0    0  0.00000000000E+00  0.00000000000E+00  0.45593999997E+02  0.45594000000E+02  0.51100000000E-03 0. -1.
         11   -1    0    0    0    0 -0.00000000000E+00 -0.00000000000E+00 -0.45593999997E+02  0.45594000000E+02  0.51100000000E-03 0.  1.
    9900012    2    1    2    0    0  0.45603496616E+01  0.25862772900E+02 -0.34553490148E+02  0.47787268525E+02  0.19999988515E+02 0.  0.
         12    1    1    2    0    0 -0.45603496616E+01 -0.25862772900E+02  0.34553490148E+02  0.43400731475E+02  0.00000000000E+00 0. -1.
         11    1    3    3    0    0 -0.60109867709E+00 -0.24949554944E+01 -0.47215834924E+01  0.53739625487E+01  0.51100000000E-03 0.  1.
        -11    1    3    3    0    0 -0.11405253468E+01  0.13351759002E+01 -0.12085581050E+00  0.17601417952E+01  0.51100000000E-03 0. -1.
        -12    1    3    3    0    0  0.63019736856E+01  0.27022552495E+02 -0.29711050845E+02  0.40653164181E+02  0.00000000000E+00 0.  1.
</event>
<event>
 7    1  0.2486105E-010  0.4778727E+02  0.7816164E-02  0.1312668E+00
        -11   -1    0    0    0    0  0.00000000000E+00  0.00000000000E+00  0.45593999997E+02  0.45594000000E+02  0.51100000000E-03 0.  1.
         11   -1    0    0    0    0 -0.00000000000E+00 -0.00000000000E+00 -0.45593999997E+02  0.45594000000E+02  0.51100000000E-03 0. -1.
    9900012    2    1    2    0    0 -0.91878993419E+01 -0.38237116623E+02  0.18361065484E+02  0.47787270655E+02  0.19999998226E+02 0.  0.
         12    1    1    2    0    0  0.91878993419E+01  0.38237116623E+02 -0.18361065484E+02  0.43400729345E+02  0.00000000000E+00 0. -1.
         11    1    3    3    0    0 -0.37903227399E+01 -0.38508528811E+01 -0.14181269762E+01  0.55862956211E+01  0.51100000000E-03 0. -1.
        -11    1    3    3    0    0  0.11750458096E+00 -0.63003456451E+01 -0.15693243007E+01  0.64939157367E+01  0.51100000000E-03 0.  1.
        -12    1    3    3    0    0 -0.55150811830E+01 -0.28085918097E+02  0.21348516761E+02  0.35707059297E+02  0.00000000000E+00 0.  1.
</event>
<event>
 7    1  0.2486105E-010  0.4778727E+02  0.7816164E-02  0.1312668E+00
        -11   -1    0    0    0    0  0.00000000000E+00  0.00000000000E+00  0.45593999997E+02  0.45594000000E+02  0.51100000000E-03 0.  1.
         11   -1    0    0    0    0 -0.00000000000E+00 -0.00000000000E+00 -0.45593999997E+02  0.45594000000E+02  0.51100000000E-03 0. -1.
    9900012    2    1    2    0    0  0.98979777962E+00 -0.85969573714E+01  0.42529240983E+02  0.47787265971E+02  0.19999976867E+02 0.  0.
         12    1    1    2    0    0 -0.98979777962E+00  0.85969573714E+01 -0.42529240983E+02  0.43400734029E+02  0.00000000000E+00 0. -1.
         11    1    3    3    0    0 -0.11339456401E+01  0.49651873400E+00  0.16477583166E+01  0.20609394215E+01  0.51100000000E-03 0. -1.
        -11    1    3    3    0    0  0.59976987827E+01 -0.59865689109E+01  0.39736586412E+02  0.40630132881E+02  0.51100000000E-03 0.  1.
         12    1    3    3    0    0 -0.38739553629E+01 -0.31069071945E+01  0.11448962548E+01  0.50961936682E+01  0.00000000000E+00 0. -1.
</event>
<event>
 7    1  0.2486105E-010  0.4778727E+02  0.7816164E-02  0.1312668E+00
        -11   -1    0    0    0    0  0.00000000000E+00  0.00000000000E+00  0.45593999997E+02  0.45594000000E+02  0.51100000000E-03 0.  1.
         11   -1    0    0    0    0 -0.00000000000E+00 -0.00000000000E+00 -0.45593999997E+02  0.45594000000E+02  0.51100000000E-03 0. -1.
    9900012    2    1    2    0    0 -0.12232149434E+02  0.75763627694E+01  0.40946264565E+02  0.47787270347E+02  0.19999996819E+02 0.  0.
         12    1    1    2    0    0  0.12232149434E+02 -0.75763627694E+01 -0.40946264565E+02  0.43400729653E+02  0.00000000000E+00 0. -1.
         11    1    3    3    0    0 -0.43794578520E+01  0.37317811653E+01  0.69318447964E+01  0.90086799413E+01  0.51100000000E-03 0.  1.
        -11    1    3    3    0    0 -0.50326485822E+01  0.23296558700E+00  0.33819042529E+02  0.34192242725E+02  0.51100000000E-03 0. -1.
         12    1    3    3    0    0 -0.28200430003E+01  0.36116160172E+01  0.19537723933E+00  0.45863476803E+01  0.00000000000E+00 0. -1.
</event>
<event>
 7    1  0.2486105E-010  0.4778728E+02  0.7816164E-02  0.1312668E+00
        -11   -1    0    0    0    0  0.00000000000E+00  0.00000000000E+00  0.45593999997E+02  0.45594000000E+02  0.51100000000E-03 0.  1.
         11   -1    0    0    0    0 -0.00000000000E+00 -0.00000000000E+00 -0.45593999997E+02  0.45594000000E+02  0.51100000000E-03 0. -1.
    9900012    2    1    2    0    0 -0.41355123297E+02  0.22957881541E+01  0.12965568782E+02  0.47787276043E+02  0.20000022792E+02 0.  0.
         12    1    1    2    0    0  0.41355123297E+02 -0.22957881541E+01 -0.12965568782E+02  0.43400723957E+02  0.00000000000E+00 0. -1.
         11    1    3    3    0    0 -0.20550784065E+02  0.40477101324E+00  0.98997088607E+01  0.22814530481E+02  0.51100000000E-03 0.  1.
        -11    1    3    3    0    0 -0.11411462651E+02 -0.42097122410E+01  0.57523445643E+01  0.13454836500E+02  0.51100000000E-03 0. -1.
         12    1    3    3    0    0 -0.93928765800E+01  0.61007293818E+01 -0.26864846426E+01  0.11517909062E+02  0.00000000000E+00 0. -1.
</event>
<event>
 7    1  0.2486105E-010  0.4778727E+02  0.7816164E-02  0.1312668E+00
        -11   -1    0    0    0    0  0.00000000000E+00  0.00000000000E+00  0.45593999997E+02  0.45594000000E+02  0.51100000000E-03 0.  1.
         11   -1    0    0    0    0 -0.00000000000E+00 -0.00000000000E+00 -0.45593999997E+02  0.45594000000E+02  0.51100000000E-03 0. -1.
    9900012    2    1    2    0    0  0.13057429609E+02 -0.29388033186E+02  0.29145682876E+02  0.47787265066E+02  0.19999972740E+02 0.  0.
         12    1    1    2    0    0 -0.13057429609E+02  0.29388033186E+02 -0.29145682876E+02  0.43400734934E+02  0.00000000000E+00 0. -1.
         11    1    3    3    0    0  0.60313964158E+01 -0.34199910165E+01  0.24725046700E+01  0.73612064828E+01  0.51100000000E-03 0. -1.
        -11    1    3    3    0    0  0.10044903064E+02 -0.21061672613E+02  0.15985830352E+02  0.28284994311E+02  0.51100000000E-03 0.  1.
         12    1    3    3    0    0 -0.30188698710E+01 -0.49063695563E+01  0.10687347854E+02  0.12141064272E+02  0.00000000000E+00 0. -1.
</event>
<event>
 7    1  0.2486105E-010  0.4778727E+02  0.7816164E-02  0.1312668E+00
        -11   -1    0    0    0    0  0.00000000000E+00  0.00000000000E+00  0.45593999997E+02  0.45594000000E+02  0.51100000000E-03 0.  1.
         11   -1    0    0    0    0 -0.00000000000E+00 -0.00000000000E+00 -0.45593999997E+02  0.45594000000E+02  0.51100000000E-03 0. -1.
    9900012    2    1    2    0    0 -0.19841775316E+02  0.12883110831E+02  0.36386157165E+02  0.47787273904E+02  0.20000013040E+02 0.  0.
         12    1    1    2    0    0  0.19841775316E+02 -0.12883110831E+02 -0.36386157165E+02  0.43400726096E+02  0.00000000000E+00 0. -1.
         11    1    3    3    0    0 -0.39349541384E+01  0.10380852796E+02  0.12548041467E+02  0.16754083495E+02  0.51100000000E-03 0. -1.
        -11    1    3    3    0    0 -0.11918867501E+02  0.65129686473E+01  0.20081193865E+02  0.24243195136E+02  0.51100000000E-03 0.  1.
         12    1    3    3    0    0 -0.39879536767E+01 -0.40107106125E+01  0.37569218330E+01  0.67899952728E+01  0.00000000000E+00 0. -1.
</event>
<event>
 7    1  0.2486105E-010  0.4778727E+02  0.7816164E-02  0.1312668E+00
        -11   -1    0    0    0    0  0.00000000000E+00  0.00000000000E+00  0.45593999997E+02  0.45594000000E+02  0.51100000000E-03 0.  1.
         11   -1    0    0    0    0 -0.00000000000E+00 -0.00000000000E+00 -0.45593999997E+02  0.45594000000E+02  0.51100000000E-03 0. -1.
    9900012    2    1    2    0    0  0.39646452265E+02 -0.47173422188E+01  0.17015548321E+02  0.47787269828E+02  0.19999994454E+02 0.  0.
         12    1    1    2    0    0 -0.39646452265E+02  0.47173422188E+01 -0.17015548321E+02  0.43400730172E+02  0.00000000000E+00 0. -1.
         11    1    3    3    0    0  0.14879449825E+02  0.26449139866E+01  0.20853017466E+01  0.15255886756E+02  0.51100000000E-03 0. -1.
        -11    1    3    3    0    0  0.19608893025E+02  0.25647086925E+00  0.89372401953E+01  0.21551072492E+02  0.51100000000E-03 0.  1.
         12    1    3    3    0    0  0.51581094153E+01 -0.76187270746E+01  0.59930063788E+01  0.10980310580E+02  0.00000000000E+00 0. -1.
</event>
<event>
 7    1  0.2486105E-010  0.4778727E+02  0.7816164E-02  0.1312668E+00
        -11   -1    0    0    0    0  0.00000000000E+00  0.00000000000E+00  0.45593999997E+02  0.45594000000E+02  0.51100000000E-03 0. -1.
         11   -1    0    0    0    0 -0.00000000000E+00 -0.00000000000E+00 -0.45593999997E+02  0.45594000000E+02  0.51100000000E-03 0.  1.
    9900012    2    1    2    0    0  0.26719038376E+01  0.18715199519E+02 -0.39066937061E+02  0.47787270346E+02  0.19999996817E+02 0.  0.
         12    1    1    2    0    0 -0.26719038376E+01 -0.18715199519E+02  0.39066937061E+02  0.43400729654E+02  0.00000000000E+00 0. -1.
         11    1    3    3    0    0  0.15478847450E+01  0.11077243466E+02 -0.27502817633E+02  0.29690170899E+02  0.51100000000E-03 0.  1.
        -11    1    3    3    0    0 -0.17124986455E+01  0.26770639890E+01 -0.11954032831E+02  0.12369245102E+02  0.51100000000E-03 0. -1.
         12    1    3    3    0    0  0.28365177382E+01  0.49608920632E+01  0.38991340254E+00  0.57278543455E+01  0.00000000000E+00 0. -1.
</event>
<event>
 7    1  0.2486105E-010  0.4778727E+02  0.7816164E-02  0.1312668E+00
        -11   -1    0    0    0    0  0.00000000000E+00  0.00000000000E+00  0.45593999997E+02  0.45594000000E+02  0.51100000000E-03 0. -1.
         11   -1    0    0    0    0 -0.00000000000E+00 -0.00000000000E+00 -0.45593999997E+02  0.45594000000E+02  0.51100000000E-03 0.  1.
    9900012    2    1    2    0    0 -0.17219754509E+02  0.39607459085E+02 -0.42839567195E+01  0.47787273674E+02  0.20000011987E+02 0.  0.
         12    1    1    2    0    0  0.17219754509E+02 -0.39607459085E+02  0.42839567195E+01  0.43400726326E+02  0.00000000000E+00 0. -1.
         11    1    3    3    0    0 -0.15571688893E+02  0.27675749140E+02 -0.33788467191E+01  0.31934952495E+02  0.51100000000E-03 0. -1.
        -11    1    3    3    0    0 -0.21926026657E+01  0.69397500659E+01 -0.54398451388E+01  0.90862287459E+01  0.51100000000E-03 0.  1.
         12    1    3    3    0    0  0.54453705014E+00  0.49919598788E+01  0.45347351384E+01  0.67660924326E+01  0.00000000000E+00 0. -1.
</event>
<event>
 7    1  0.2486105E-010  0.4778727E+02  0.7816164E-02  0.1312668E+00
        -11   -1    0    0    0    0  0.00000000000E+00  0.00000000000E+00  0.45593999997E+02  0.45594000000E+02  0.51100000000E-03 0.  1.
         11   -1    0    0    0    0 -0.00000000000E+00 -0.00000000000E+00 -0.45593999997E+02  0.45594000000E+02  0.51100000000E-03 0. -1.
    9900012    2    1    2    0    0 -0.28186657764E+02 -0.21479490083E+02 -0.25055282973E+02  0.47787269880E+02  0.19999994689E+02 0.  0.
         12    1    1    2    0    0  0.28186657764E+02  0.21479490083E+02  0.25055282973E+02  0.43400730120E+02  0.00000000000E+00 0. -1.
         11    1    3    3    0    0 -0.16852903951E+02 -0.69994379423E+01 -0.52484299715E+01  0.18988378565E+02  0.51100000000E-03 0. -1.
        -11    1    3    3    0    0 -0.17209272752E-01 -0.33322590688E+01  0.96379135422E-01  0.33336970257E+01  0.51100000000E-03 0.  1.
        -12    1    3    3    0    0 -0.11316544541E+02 -0.11147793072E+02 -0.19903232136E+02  0.25465194289E+02  0.00000000000E+00 0.  1.
</event>
<event>
 7    1  0.2486105E-010  0.4778727E+02  0.7816164E-02  0.1312668E+00
        -11   -1    0    0    0    0  0.00000000000E+00  0.00000000000E+00  0.45593999997E+02  0.45594000000E+02  0.51100000000E-03 0. -1.
         11   -1    0    0    0    0 -0.00000000000E+00 -0.00000000000E+00 -0.45593999997E+02  0.45594000000E+02  0.51100000000E-03 0.  1.
    9900012    2    1    2    0    0  0.96787055302E+01 -0.23100768981E+02 -0.35444327486E+02  0.47787271674E+02  0.20000002872E+02 0.  0.
         12    1    1    2    0    0 -0.96787055302E+01  0.23100768981E+02  0.35444327486E+02  0.43400728326E+02  0.00000000000E+00 0. -1.
         11    1    3    3    0    0  0.80779668590E+01 -0.63726961182E+01 -0.13596180526E+02  0.17050540447E+02  0.51100000000E-03 0. -1.
        -11    1    3    3    0    0  0.72170205946E+01 -0.93824250082E+01 -0.88246041574E+01  0.14764447978E+02  0.51100000000E-03 0.  1.
        -12    1    3    3    0    0 -0.56162819234E+01 -0.73456478550E+01 -0.13023542802E+02  0.15972283249E+02  0.00000000000E+00 0.  1.
</event>
<event>
 7    1  0.2486105E-010  0.4778728E+02  0.7816164E-02  0.1312668E+00
        -11   -1    0    0    0    0  0.00000000000E+00  0.00000000000E+00  0.45593999997E+02  0.45594000000E+02  0.51100000000E-03 0.  1.
         11   -1    0    0    0    0 -0.00000000000E+00 -0.00000000000E+00 -0.45593999997E+02  0.45594000000E+02  0.51100000000E-03 0. -1.
    9900012    2    1    2    0    0 -0.14562563011E+02  0.14897754987E+02  0.38073756762E+02  0.47787282275E+02  0.20000051205E+02 0.  0.
         12    1    1    2    0    0  0.14562563011E+02 -0.14897754987E+02 -0.38073756762E+02  0.43400717725E+02  0.00000000000E+00 0. -1.
         11    1    3    3    0    0 -0.34770525970E+01 -0.33869052209E+00  0.80118834198E+01  0.87404165933E+01  0.51100000000E-03 0. -1.
        -11    1    3    3    0    0 -0.73351480025E+01  0.78081178277E+01  0.28674766667E+02  0.30610673692E+02  0.51100000000E-03 0.  1.
         12    1    3    3    0    0 -0.37503624114E+01  0.74283276812E+01  0.13871066751E+01  0.84361919895E+01  0.00000000000E+00 0. -1.
</event>
<event>
 7    1  0.2486105E-010  0.4778726E+02  0.7816164E-02  0.1312668E+00
        -11   -1    0    0    0    0  0.00000000000E+00  0.00000000000E+00  0.45593999997E+02  0.45594000000E+02  0.51100000000E-03 0.  1.
         11   -1    0    0    0    0 -0.00000000000E+00 -0.00000000000E+00 -0.45593999997E+02  0.45594000000E+02  0.51100000000E-03 0. -1.
    9900012    2    1    2    0    0  0.49477699905E-01 -0.32360073374E+00  0.43399503844E+02  0.47787261534E+02  0.19999956638E+02 0.  0.
         12    1    1    2    0    0 -0.49477699905E-01  0.32360073374E+00 -0.43399503844E+02  0.43400738466E+02  0.00000000000E+00 0. -1.
         11    1    3    3    0    0 -0.29724488556E+01 -0.40025256744E+00  0.77445422850E+00  0.30976497429E+01  0.51100000000E-03 0. -1.
        -11    1    3    3    0    0  0.47815190193E+01  0.60334780366E-01  0.46374202606E+01  0.66612484830E+01  0.51100000000E-03 0.  1.
        -12    1    3    3    0    0 -0.17595924638E+01  0.16317053328E-01  0.37987629355E+02  0.38028363308E+02  0.00000000000E+00 0.  1.
</event>
<event>
 7    1  0.2486105E-010  0.4778727E+02  0.7816164E-02  0.1312668E+00
        -11   -1    0    0    0    0  0.00000000000E+00  0.00000000000E+00  0.45593999997E+02  0.45594000000E+02  0.51100000000E-03 0. -1.
         11   -1    0    0    0    0 -0.00000000000E+00 -0.00000000000E+00 -0.45593999997E+02  0.45594000000E+02  0.51100000000E-03 0.  1.
    9900012    2    1    2    0    0 -0.87503212067E+01 -0.17301881205E+02 -0.38829114328E+02  0.47787270352E+02  0.19999996844E+02 0.  0.
         12    1    1    2    0    0  0.87503212067E+01  0.17301881205E+02  0.38829114328E+02  0.43400729648E+02  0.00000000000E+00 0. -1.
         11    1    3    3    0    0 -0.19527468635E+01  0.13463160391E+01 -0.62807378979E+01  0.67136767865E+01  0.51100000000E-03 0. -1.
        -11    1    3    3    0    0  0.48050244263E+01 -0.43491649033E+01 -0.10593489126E+02  0.12418756267E+02  0.51100000000E-03 0.  1.
        -12    1    3    3    0    0 -0.11602598770E+02 -0.14299032341E+02 -0.21954887304E+02  0.28654837299E+02  0.00000000000E+00 0.  1.
</event>
<event>
 7    1  0.2486105E-010  0.4778723E+02  0.7816164E-02  0.1312668E+00
        -11   -1    0    0    0    0  0.00000000000E+00  0.00000000000E+00  0.45593999997E+02  0.45594000000E+02  0.51100000000E-03 0.  1.
         11   -1    0    0    0    0 -0.00000000000E+00 -0.00000000000E+00 -0.45593999997E+02  0.45594000000E+02  0.51100000000E-03 0. -1.
    9900012    2    1    2    0    0 -0.19988429477E+02 -0.31126204322E+02  0.22699093934E+02  0.47787230722E+02  0.19999816154E+02 0.  0.
         12    1    1    2    0    0  0.19988429477E+02  0.31126204322E+02 -0.22699093934E+02  0.43400769278E+02  0.00000000000E+00 0. -1.
         11    1    3    3    0    0 -0.71075186528E+01 -0.11588905865E+02  0.92036775236E+01  0.16417284817E+02  0.51100000000E-03 0. -1.
        -11    1    3    3    0    0 -0.10637332070E+02 -0.18111511362E+02  0.16964467033E+02  0.26999496650E+02  0.51100000000E-03 0.  1.
         12    1    3    3    0    0 -0.22435787544E+01 -0.14257870952E+01 -0.34690506225E+01  0.43704492549E+01  0.00000000000E+00 0. -1.
</event>
<event>
 7    1  0.2486105E-010  0.4778727E+02  0.7816164E-02  0.1312668E+00
        -11   -1    0    0    0    0  0.00000000000E+00  0.00000000000E+00  0.45593999997E+02  0.45594000000E+02  0.51100000000E-03 0.  1.
         11   -1    0    0    0    0 -0.00000000000E+00 -0.00000000000E+00 -0.45593999997E+02  0.45594000000E+02  0.51100000000E-03 0. -1.
    9900012    2    1    2    0    0  0.18479308637E+02 -0.27210765030E+02  0.28314535448E+02  0.47787268453E+02  0.19999988184E+02 0.  0.
         12    1    1    2    0    0 -0.18479308637E+02  0.27210765030E+02 -0.28314535448E+02  0.43400731547E+02  0.00000000000E+00 0. -1.
         11    1    3    3    0    0 -0.17347532735E+00  0.13906193740E+00  0.10597378508E+01  0.10828095332E+01  0.51100000000E-03 0. -1.
        -11    1    3    3    0    0  0.17728924961E+02 -0.24781331056E+02  0.30051645402E+02  0.42796384669E+02  0.51100000000E-03 0.  1.
        -12    1    3    3    0    0  0.92385900301E+00 -0.25684959114E+01 -0.27968478044E+01  0.39080742502E+01  0.00000000000E+00 0.  1.
</event>
<event>
 7    1  0.2486105E-010  0.4778727E+02  0.7816164E-02  0.1312668E+00
        -11   -1    0    0    0    0  0.00000000000E+00  0.00000000000E+00  0.45593999997E+02  0.45594000000E+02  0.51100000000E-03 0.  1.
         11   -1    0    0    0    0 -0.00000000000E+00 -0.00000000000E+00 -0.45593999997E+02  0.45594000000E+02  0.51100000000E-03 0. -1.
    9900012    2    1    2    0    0  0.35188286652E+02  0.11199437911E+02  0.22803073976E+02  0.47787272935E+02  0.20000008621E+02 0.  0.
         12    1    1    2    0    0 -0.35188286652E+02 -0.11199437911E+02 -0.22803073976E+02  0.43400727065E+02  0.00000000000E+00 0. -1.
         11    1    3    3    0    0  0.77265855480E+01  0.71755735260E+00  0.11161666025E+02  0.13594035512E+02  0.51100000000E-03 0. -1.
        -11    1    3    3    0    0  0.24394616859E+02  0.11033040680E+02  0.14067161557E+02  0.30244178826E+02  0.51100000000E-03 0.  1.
         12    1    3    3    0    0  0.30670842453E+01 -0.55116012141E+00 -0.24257536064E+01  0.39490585974E+01  0.00000000000E+00 0. -1.
</event>
<event>
 7    1  0.2486105E-010  0.4778727E+02  0.7816164E-02  0.1312668E+00
        -11   -1    0    0    0    0  0.00000000000E+00  0.00000000000E+00  0.45593999997E+02  0.45594000000E+02  0.51100000000E-03 0.  1.
         11   -1    0    0    0    0 -0.00000000000E+00 -0.00000000000E+00 -0.45593999997E+02  0.45594000000E+02  0.51100000000E-03 0. -1.
    9900012    2    1    2    0    0 -0.20703856484E+02 -0.73348380752E+01  0.37432255217E+02  0.47787271279E+02  0.20000001069E+02 0.  0.
         12    1    1    2    0    0  0.20703856484E+02  0.73348380752E+01 -0.37432255217E+02  0.43400728721E+02  0.00000000000E+00 0. -1.
         11    1    3    3    0    0 -0.93950886940E+01 -0.36399192017E+01  0.44878023607E+01  0.11029826547E+02  0.51100000000E-03 0. -1.
        -11    1    3    3    0    0 -0.81541429626E+01 -0.18140203846E+01  0.80753823900E+01  0.11618628078E+02  0.51100000000E-03 0.  1.
         12    1    3    3    0    0 -0.31546248277E+01 -0.18808984889E+01  0.24869070466E+02  0.25138816654E+02  0.00000000000E+00 0. -1.
</event>
<event>
 7    1  0.2486105E-010  0.4778727E+02  0.7816164E-02  0.1312668E+00
        -11   -1    0    0    0    0  0.00000000000E+00  0.00000000000E+00  0.45593999997E+02  0.45594000000E+02  0.51100000000E-03 0. -1.
         11   -1    0    0    0    0 -0.00000000000E+00 -0.00000000000E+00 -0.45593999997E+02  0.45594000000E+02  0.51100000000E-03 0.  1.
    9900012    2    1    2    0    0  0.22208732919E+02  0.31754024748E+01 -0.37152558831E+02  0.47787266983E+02  0.19999981483E+02 0.  0.
         12    1    1    2    0    0 -0.22208732919E+02 -0.31754024748E+01  0.37152558831E+02  0.43400733017E+02  0.00000000000E+00 0. -1.
         11    1    3    3    0    0  0.13987455790E+02  0.15438939274E+01 -0.14580374262E+02  0.20263756854E+02  0.51100000000E-03 0.  1.
        -11    1    3    3    0    0  0.82500819491E+01  0.64809694872E+01 -0.18131395782E+02  0.20947895621E+02  0.51100000000E-03 0. -1.
         12    1    3    3    0    0 -0.28804820745E-01 -0.48494609398E+01 -0.44407887863E+01  0.65756145088E+01  0.00000000000E+00 0. -1.
</event>
<event>
 7    1  0.2486105E-010  0.4778727E+02  0.7816164E-02  0.1312668E+00
        -11   -1    0    0    0    0  0.00000000000E+00  0.00000000000E+00  0.45593999997E+02  0.45594000000E+02  0.51100000000E-03 0.  1.
         11   -1    0    0    0    0 -0.00000000000E+00 -0.00000000000E+00 -0.45593999997E+02  0.45594000000E+02  0.51100000000E-03 0. -1.
    9900012    2    1    2    0    0 -0.57404367645E+01 -0.40100863124E+02  0.15575350763E+02  0.47787269719E+02  0.19999993957E+02 0.  0.
         12    1    1    2    0    0  0.57404367645E+01  0.40100863124E+02 -0.15575350763E+02  0.43400730281E+02  0.00000000000E+00 0. -1.
         11    1    3    3    0    0  0.76052730048E+00 -0.12770388849E+01  0.98966260026E+00  0.17856826179E+01  0.51100000000E-03 0. -1.
        -11    1    3    3    0    0  0.53729860041E+01 -0.23622669171E+02  0.97597154895E+01  0.26118030631E+02  0.51100000000E-03 0.  1.
        -12    1    3    3    0    0 -0.11873950069E+02 -0.15201155068E+02  0.48259726735E+01  0.19883556470E+02  0.00000000000E+00 0.  1.
</event>
<event>
 7    1  0.2486105E-010  0.4778727E+02  0.7816164E-02  0.1312668E+00
        -11   -1    0    0    0    0  0.00000000000E+00  0.00000000000E+00  0.45593999997E+02  0.45594000000E+02  0.51100000000E-03 0.  1.
         11   -1    0    0    0    0 -0.00000000000E+00 -0.00000000000E+00 -0.45593999997E+02  0.45594000000E+02  0.51100000000E-03 0. -1.
    9900012    2    1    2    0    0  0.39079186827E+02 -0.56050257886E+01  0.18028418955E+02  0.47787273656E+02  0.20000011907E+02 0.  0.
         12    1    1    2    0    0 -0.39079186827E+02  0.56050257886E+01 -0.18028418955E+02  0.43400726344E+02  0.00000000000E+00 0. -1.
         11    1    3    3    0    0  0.30679409376E+01 -0.89157165020E+00  0.66168678170E+01  0.73477956948E+01  0.51100000000E-03 0.  1.
        -11    1    3    3    0    0  0.33925674928E+01  0.27918652294E+01 -0.13833841949E+01  0.46062759084E+01  0.51100000000E-03 0. -1.
        -12    1    3    3    0    0  0.32618678397E+02 -0.75053193678E+01  0.12794935333E+02  0.35833202053E+02  0.00000000000E+00 0.  1.
</event>
<event>
 7    1  0.2486105E-010  0.4778727E+02  0.7816164E-02  0.1312668E+00
        -11   -1    0    0    0    0  0.00000000000E+00  0.00000000000E+00  0.45593999997E+02  0.45594000000E+02  0.51100000000E-03 0.  1.
         11   -1    0    0    0    0 -0.00000000000E+00 -0.00000000000E+00 -0.45593999997E+02  0.45594000000E+02  0.51100000000E-03 0. -1.
    9900012    2    1    2    0    0  0.25423863209E+02  0.14217165050E+02  0.32173322191E+02  0.47787271166E+02  0.20000000554E+02 0.  0.
         12    1    1    2    0    0 -0.25423863209E+02 -0.14217165050E+02 -0.32173322191E+02  0.43400728834E+02  0.00000000000E+00 0. -1.
         11    1    3    3    0    0 -0.51508486256E+00 -0.68052816197E+00 -0.71075089955E+00  0.11106746136E+01  0.51100000000E-03 0. -1.
        -11    1    3    3    0    0  0.10235328111E+02  0.17918899758E+01  0.19899841909E+02  0.22449421362E+02  0.51100000000E-03 0.  1.
         12    1    3    3    0    0  0.15703619961E+02  0.13105803236E+02  0.12984231181E+02  0.24227175190E+02  0.00000000000E+00 0. -1.
</event>
<event>
 7    1  0.2486105E-010  0.4778728E+02  0.7816164E-02  0.1312668E+00
        -11   -1    0    0    0    0  0.00000000000E+00  0.00000000000E+00  0.45593999997E+02  0.45594000000E+02  0.51100000000E-03 0.  1.
         11   -1    0    0    0    0 -0.00000000000E+00 -0.00000000000E+00 -0.45593999997E+02  0.45594000000E+02  0.51100000000E-03 0. -1.
    9900012    2    1    2    0    0 -0.34148417479E+02  0.16758328325E+02 -0.20896577348E+02  0.47787275013E+02  0.20000018093E+02 0.  0.
         12    1    1    2    0    0  0.34148417479E+02 -0.16758328325E+02  0.20896577348E+02  0.43400724987E+02  0.00000000000E+00 0. -1.
         11    1    3    3    0    0 -0.90231385735E+01  0.23249802142E+01 -0.89529663786E+01  0.12922003326E+02  0.51100000000E-03 0. -1.
        -11    1    3    3    0    0  0.78275097428E+00  0.42628139612E+01  0.52772029807E+00  0.43660933258E+01  0.51100000000E-03 0.  1.
        -12    1    3    3    0    0 -0.25908029880E+02  0.10170534150E+02 -0.12471331267E+02  0.30499178361E+02  0.00000000000E+00 0.  1.
</event>
<event>
 7    1  0.2486105E-010  0.4778726E+02  0.7816164E-02  0.1312668E+00
        -11   -1    0    0    0    0  0.00000000000E+00  0.00000000000E+00  0.45593999997E+02  0.45594000000E+02  0.51100000000E-03 0.  1.
         11   -1    0    0    0    0 -0.00000000000E+00 -0.00000000000E+00 -0.45593999997E+02  0.45594000000E+02  0.51100000000E-03 0. -1.
    9900012    2    1    2    0    0  0.36278427110E+01  0.28569392893E+02  0.32469253039E+02  0.47787264454E+02  0.19999969953E+02 0.  0.
         12    1    1    2    0    0 -0.36278427110E+01 -0.28569392893E+02 -0.32469253039E+02  0.43400735546E+02  0.00000000000E+00 0. -1.
         11    1    3    3    0    0 -0.14200840785E+01  0.12174450383E+02  0.88162634282E+01  0.15098356931E+02  0.51100000000E-03 0. -1.
        -11    1    3    3    0    0  0.66436426649E+01  0.94529180131E+01  0.47570894013E+01  0.12495020875E+02  0.51100000000E-03 0.  1.
        -12    1    3    3    0    0 -0.15957158753E+01  0.69420244974E+01  0.18895900209E+02  0.20193886649E+02  0.00000000000E+00 0.  1.
</event>
<event>
 7    1  0.2486105E-010  0.4778727E+02  0.7816164E-02  0.1312668E+00
        -11   -1    0    0    0    0  0.00000000000E+00  0.00000000000E+00  0.45593999997E+02  0.45594000000E+02  0.51100000000E-03 0. -1.
         11   -1    0    0    0    0 -0.00000000000E+00 -0.00000000000E+00 -0.45593999997E+02  0.45594000000E+02  0.51100000000E-03 0.  1.
    9900012    2    1    2    0    0  0.38562226779E+01  0.66380749254E+01 -0.42716376103E+02  0.47787270980E+02  0.19999999708E+02 0.  0.
         12    1    1    2    0    0 -0.38562226779E+01 -0.66380749254E+01  0.42716376103E+02  0.43400729020E+02  0.00000000000E+00 0. -1.
         11    1    3    3    0    0 -0.32307504400E+01  0.37876854392E+00 -0.12100899425E+02  0.12530482081E+02  0.51100000000E-03 0. -1.
        -11    1    3    3    0    0 -0.59789741316E+00  0.78496863770E+01 -0.23045653131E+02  0.24353176097E+02  0.51100000000E-03 0.  1.
         12    1    3    3    0    0  0.76848705311E+01 -0.15903799955E+01 -0.75698235469E+01  0.10903612802E+02  0.00000000000E+00 0. -1.
</event>
<event>
 7    1  0.2486105E-010  0.4778727E+02  0.7816164E-02  0.1312668E+00
        -11   -1    0    0    0    0  0.00000000000E+00  0.00000000000E+00  0.45593999997E+02  0.45594000000E+02  0.51100000000E-03 0. -1.
         11   -1    0    0    0    0 -0.00000000000E+00 -0.00000000000E+00 -0.45593999997E+02  0.45594000000E+02  0.51100000000E-03 0.  1.
    9900012    2    1    2    0    0 -0.24600729775E+01  0.36445746298E+02 -0.23436699334E+02  0.47787271228E+02  0.20000000835E+02 0.  0.
         12    1    1    2    0    0  0.24600729775E+01 -0.36445746298E+02  0.23436699334E+02  0.43400728772E+02  0.00000000000E+00 0. -1.
         11    1    3    3    0    0  0.41374843444E+00  0.62934166535E+00  0.51610504878E+00  0.91302978113E+00  0.51100000000E-03 0. -1.
        -11    1    3    3    0    0 -0.68207840525E+01  0.50633894274E+01 -0.92523865155E+01  0.12560559863E+02  0.51100000000E-03 0.  1.
         12    1    3    3    0    0  0.39469626405E+01  0.30753015206E+02 -0.14700417867E+02  0.34313681583E+02  0.00000000000E+00 0. -1.
</event>
<event>
 7    1  0.2486105E-010  0.4778723E+02  0.7816164E-02  0.1312668E+00
        -11   -1    0    0    0    0  0.00000000000E+00  0.00000000000E+00  0.45593999997E+02  0.45594000000E+02  0.51100000000E-03 0.  1.
         11   -1    0    0    0    0 -0.00000000000E+00 -0.00000000000E+00 -0.45593999997E+02  0.45594000000E+02  0.51100000000E-03 0. -1.
    9900012    2    1    2    0    0  0.99986240615E+01  0.10329833953E+02  0.40950567845E+02  0.47787228584E+02  0.19999806407E+02 0.  0.
         12    1    1    2    0    0 -0.99986240615E+01 -0.10329833953E+02 -0.40950567845E+02  0.43400771416E+02  0.00000000000E+00 0. -1.
         11    1    3    3    0    0  0.30933233074E+01  0.31101645677E+01  0.17620304797E+02  0.18158108771E+02  0.51100000000E-03 0. -1.
        -11    1    3    3    0    0  0.42064516275E+00 -0.17089625818E+01  0.16622380557E+02  0.16715293330E+02  0.51100000000E-03 0.  1.
         12    1    3    3    0    0  0.64846555913E+01  0.89286319668E+01  0.67078824910E+01  0.12913826484E+02  0.00000000000E+00 0. -1.
</event>
<event>
 7    1  0.2486105E-010  0.4778727E+02  0.7816164E-02  0.1312668E+00
        -11   -1    0    0    0    0  0.00000000000E+00  0.00000000000E+00  0.45593999997E+02  0.45594000000E+02  0.51100000000E-03 0.  1.
         11   -1    0    0    0    0 -0.00000000000E+00 -0.00000000000E+00 -0.45593999997E+02  0.45594000000E+02  0.51100000000E-03 0. -1.
    9900012    2    1    2    0    0 -0.98622815632E+01  0.20681338177E+02  0.36859746882E+02  0.47787270897E+02  0.19999999329E+02 0.  0.
         12    1    1    2    0    0  0.98622815632E+01 -0.20681338177E+02 -0.36859746882E+02  0.43400729103E+02  0.00000000000E+00 0. -1.
         11    1    3    3    0    0  0.11345745773E+01 -0.10721668062E+00 -0.36705668264E+00  0.11972826556E+01  0.51100000000E-03 0. -1.
        -11    1    3    3    0    0  0.24407861958E+01  0.79501620858E+01  0.60134484123E+01  0.10262751898E+02  0.51100000000E-03 0.  1.
        -12    1    3    3    0    0 -0.13437642336E+02  0.12838392772E+02  0.31213355152E+02  0.36327236344E+02  0.00000000000E+00 0.  1.
</event>
<event>
 7    1  0.2486105E-010  0.4778728E+02  0.7816164E-02  0.1312668E+00
        -11   -1    0    0    0    0  0.00000000000E+00  0.00000000000E+00  0.45593999997E+02  0.45594000000E+02  0.51100000000E-03 0.  1.
         11   -1    0    0    0    0 -0.00000000000E+00 -0.00000000000E+00 -0.45593999997E+02  0.45594000000E+02  0.51100000000E-03 0. -1.
    9900012    2    1    2    0    0 -0.42485375903E+02  0.25546622019E+01 -0.84905497894E+01  0.47787275348E+02  0.20000019620E+02 0.  0.
         12    1    1    2    0    0  0.42485375903E+02 -0.25546622019E+01  0.84905497894E+01  0.43400724652E+02  0.00000000000E+00 0. -1.
         11    1    3    3    0    0 -0.17137258933E+02 -0.35751022918E+00 -0.65930270536E+01  0.18365224292E+02  0.51100000000E-03 0.  1.
        -11    1    3    3    0    0 -0.99250919510E+01 -0.56724537765E+01  0.12235963219E+01  0.11497015713E+02  0.51100000000E-03 0. -1.
         12    1    3    3    0    0 -0.15423025019E+02  0.85846262075E+01 -0.31211190577E+01  0.17925035343E+02  0.00000000000E+00 0. -1.
</event>
<event>
 7    1  0.2486105E-010  0.4778727E+02  0.7816164E-02  0.1312668E+00
        -11   -1    0    0    0    0  0.00000000000E+00  0.00000000000E+00  0.45593999997E+02  0.45594000000E+02  0.51100000000E-03 0.  1.
         11   -1    0    0    0    0 -0.00000000000E+00 -0.00000000000E+00 -0.45593999997E+02  0.45594000000E+02  0.51100000000E-03 0. -1.
    9900012    2    1    2    0    0 -0.19676231888E+02  0.11530211997E+02  0.36925918221E+02  0.47787270439E+02  0.19999997237E+02 0.  0.
         12    1    1    2    0    0  0.19676231888E+02 -0.11530211997E+02 -0.36925918221E+02  0.43400729561E+02  0.00000000000E+00 0. -1.
         11    1    3    3    0    0 -0.10944734646E+02  0.41347395752E+01  0.10373160823E+02  0.15636040213E+02  0.51100000000E-03 0. -1.
        -11    1    3    3    0    0 -0.10715234975E+02  0.10078550830E+02  0.20381130926E+02  0.25135312719E+02  0.51100000000E-03 0.  1.
         12    1    3    3    0    0  0.19837377331E+01 -0.26830784087E+01  0.61716264726E+01  0.70159175065E+01  0.00000000000E+00 0. -1.
</event>
<event>
 7    1  0.2486105E-010  0.4778727E+02  0.7816164E-02  0.1312668E+00
        -11   -1    0    0    0    0  0.00000000000E+00  0.00000000000E+00  0.45593999997E+02  0.45594000000E+02  0.51100000000E-03 0.  1.
         11   -1    0    0    0    0 -0.00000000000E+00 -0.00000000000E+00 -0.45593999997E+02  0.45594000000E+02  0.51100000000E-03 0. -1.
    9900012    2    1    2    0    0 -0.75187247514E+01 -0.40414457655E+02  0.13919893242E+02  0.47787273770E+02  0.20000012425E+02 0.  0.
         12    1    1    2    0    0  0.75187247514E+01  0.40414457655E+02 -0.13919893242E+02  0.43400726230E+02  0.00000000000E+00 0. -1.
         11    1    3    3    0    0 -0.29082526942E+01 -0.18383248898E+02  0.11620903134E+02  0.21941904286E+02  0.51100000000E-03 0. -1.
        -11    1    3    3    0    0 -0.22620261515E+01 -0.19388566583E+02  0.62949346917E+01  0.20509984873E+02  0.51100000000E-03 0.  1.
         12    1    3    3    0    0 -0.23484459057E+01 -0.26426421738E+01 -0.39959445834E+01  0.53353846107E+01  0.00000000000E+00 0. -1.
</event>
<event>
 7    1  0.2486105E-010  0.4778727E+02  0.7816164E-02  0.1312668E+00
        -11   -1    0    0    0    0  0.00000000000E+00  0.00000000000E+00  0.45593999997E+02  0.45594000000E+02  0.51100000000E-03 0.  1.
         11   -1    0    0    0    0 -0.00000000000E+00 -0.00000000000E+00 -0.45593999997E+02  0.45594000000E+02  0.51100000000E-03 0. -1.
    9900012    2    1    2    0    0  0.11608789178E+02 -0.28846687627E+02  0.30277514449E+02  0.47787271268E+02  0.20000001021E+02 0.  0.
         12    1    1    2    0    0 -0.11608789178E+02  0.28846687627E+02 -0.30277514449E+02  0.43400728732E+02  0.00000000000E+00 0. -1.
         11    1    3    3    0    0  0.56796607360E+01 -0.63952710125E+01  0.16978100518E+01  0.87201259528E+01  0.51100000000E-03 0. -1.
        -11    1    3    3    0    0  0.49144128599E+01 -0.59262398804E+01  0.17574563004E+02  0.19186897558E+02  0.51100000000E-03 0.  1.
         12    1    3    3    0    0  0.10147155822E+01 -0.16525176734E+02  0.11005141393E+02  0.19880247757E+02  0.00000000000E+00 0. -1.
</event>
<event>
 7    1  0.2486105E-010  0.4778727E+02  0.7816164E-02  0.1312668E+00
        -11   -1    0    0    0    0  0.00000000000E+00  0.00000000000E+00  0.45593999997E+02  0.45594000000E+02  0.51100000000E-03 0. -1.
         11   -1    0    0    0    0 -0.00000000000E+00 -0.00000000000E+00 -0.45593999997E+02  0.45594000000E+02  0.51100000000E-03 0.  1.
    9900012    2    1    2    0    0  0.33086522572E+02 -0.77804492360E+00 -0.28076679235E+02  0.47787271358E+02  0.20000001428E+02 0.  0.
         12    1    1    2    0    0 -0.33086522572E+02  0.77804492360E+00  0.28076679235E+02  0.43400728642E+02  0.00000000000E+00 0. -1.
         11    1    3    3    0    0  0.75777106301E+00 -0.31555376935E+01  0.46602931483E+00  0.32785391110E+01  0.51100000000E-03 0. -1.
        -11    1    3    3    0    0  0.23149037004E+01 -0.10911318377E+01  0.49145075818E+00  0.26059301484E+01  0.51100000000E-03 0.  1.
        -12    1    3    3    0    0  0.30013847809E+02  0.34686246075E+01 -0.29034159308E+02  0.41902802098E+02  0.00000000000E+00 0.  1.
</event>
<event>
 7    1  0.2486105E-010  0.4778727E+02  0.7816164E-02  0.1312668E+00
        -11   -1    0    0    0    0  0.00000000000E+00  0.00000000000E+00  0.45593999997E+02  0.45594000000E+02  0.51100000000E-03 0.  1.
         11   -1    0    0    0    0 -0.00000000000E+00 -0.00000000000E+00 -0.45593999997E+02  0.45594000000E+02  0.51100000000E-03 0. -1.
    9900012    2    1    2    0    0 -0.35072969698E+02 -0.23888543546E+02  0.91020594950E+01  0.47787271859E+02  0.20000003712E+02 0.  0.
         12    1    1    2    0    0  0.35072969698E+02  0.23888543546E+02 -0.91020594950E+01  0.43400728141E+02  0.00000000000E+00 0. -1.
         11    1    3    3    0    0 -0.85130576230E+00 -0.48435402397E-01  0.24465876987E+01  0.25909185857E+01  0.51100000000E-03 0. -1.
        -11    1    3    3    0    0 -0.18688121142E+02 -0.80048819137E+01 -0.37855764553E+01  0.20679811305E+02  0.51100000000E-03 0.  1.
        -12    1    3    3    0    0 -0.15533542794E+02 -0.15835226229E+02  0.10441048252E+02  0.24516541968E+02  0.00000000000E+00 0.  1.
</event>
<event>
 7    1  0.2486105E-010  0.4778728E+02  0.7816164E-02  0.1312668E+00
        -11   -1    0    0    0    0  0.00000000000E+00  0.00000000000E+00  0.45593999997E+02  0.45594000000E+02  0.51100000000E-03 0.  1.
         11   -1    0    0    0    0 -0.00000000000E+00 -0.00000000000E+00 -0.45593999997E+02  0.45594000000E+02  0.51100000000E-03 0. -1.
    9900012    2    1    2    0    0 -0.22055885305E+02 -0.99608365714E+01  0.36026969898E+02  0.47787275331E+02  0.20000019545E+02 0.  0.
         12    1    1    2    0    0  0.22055885305E+02  0.99608365714E+01 -0.36026969898E+02  0.43400724669E+02  0.00000000000E+00 0. -1.
         11    1    3    3    0    0  0.87039429499E+00 -0.51425640334E+01  0.13372237465E+01  0.53843958506E+01  0.51100000000E-03 0. -1.
        -11    1    3    3    0    0 -0.15344587604E+02 -0.28537020742E+01  0.17120840385E+02  0.23167286419E+02  0.51100000000E-03 0.  1.
        -12    1    3    3    0    0 -0.75816919954E+01 -0.19645704638E+01  0.17568905766E+02  0.19235593062E+02  0.00000000000E+00 0.  1.
</event>
<event>
 7    1  0.2486105E-010  0.4778727E+02  0.7816164E-02  0.1312668E+00
        -11   -1    0    0    0    0  0.00000000000E+00  0.00000000000E+00  0.45593999997E+02  0.45594000000E+02  0.51100000000E-03 0. -1.
         11   -1    0    0    0    0 -0.00000000000E+00 -0.00000000000E+00 -0.45593999997E+02  0.45594000000E+02  0.51100000000E-03 0.  1.
    9900012    2    1    2    0    0 -0.28299222520E+02 -0.32639845862E+02 -0.41734317275E+01  0.47787273444E+02  0.20000010942E+02 0.  0.
         12    1    1    2    0    0  0.28299222520E+02  0.32639845862E+02  0.41734317275E+01  0.43400726556E+02  0.00000000000E+00 0. -1.
         11    1    3    3    0    0  0.16351513589E+01 -0.14813789720E+01 -0.86448823789E+00  0.23697138645E+01  0.51100000000E-03 0. -1.
        -11    1    3    3    0    0 -0.12260949116E+02 -0.20814268167E+02  0.20676398816E+01  0.24245407142E+02  0.51100000000E-03 0.  1.
        -12    1    3    3    0    0 -0.17673424763E+02 -0.10344198724E+02 -0.53765833713E+01  0.21172152438E+02  0.00000000000E+00 0.  1.
</event>
<event>
 7    1  0.2486105E-010  0.4778727E+02  0.7816164E-02  0.1312668E+00
        -11   -1    0    0    0    0  0.00000000000E+00  0.00000000000E+00  0.45593999997E+02  0.45594000000E+02  0.51100000000E-03 0.  1.
         11   -1    0    0    0    0 -0.00000000000E+00 -0.00000000000E+00 -0.45593999997E+02  0.45594000000E+02  0.51100000000E-03 0. -1.
    9900012    2    1    2    0    0  0.34710257906E+02  0.92175051052E+01 -0.24369218402E+02  0.47787271782E+02  0.20000003365E+02 0.  0.
         12    1    1    2    0    0 -0.34710257906E+02 -0.92175051052E+01  0.24369218402E+02  0.43400728218E+02  0.00000000000E+00 0. -1.
         11    1    3    3    0    0  0.10418611388E+02  0.10999977403E+01 -0.11134639130E+02  0.15288480862E+02  0.51100000000E-03 0. -1.
        -11    1    3    3    0    0  0.15965400209E+02  0.49904511991E+01 -0.16037731750E+02  0.23173421131E+02  0.51100000000E-03 0.  1.
         12    1    3    3    0    0  0.83262463103E+01  0.31270561658E+01  0.28031524773E+01  0.93253697887E+01  0.00000000000E+00 0. -1.
</event>
<event>
 7    1  0.2486105E-010  0.4778727E+02  0.7816164E-02  0.1312668E+00
        -11   -1    0    0    0    0  0.00000000000E+00  0.00000000000E+00  0.45593999997E+02  0.45594000000E+02  0.51100000000E-03 0.  1.
         11   -1    0    0    0    0 -0.00000000000E+00 -0.00000000000E+00 -0.45593999997E+02  0.45594000000E+02  0.51100000000E-03 0. -1.
    9900012    2    1    2    0    0 -0.23733956512E+02  0.29961989089E+02 -0.20557287696E+02  0.47787267756E+02  0.19999985007E+02 0.  0.
         12    1    1    2    0    0  0.23733956512E+02 -0.29961989089E+02  0.20557287696E+02  0.43400732244E+02  0.00000000000E+00 0. -1.
         11    1    3    3    0    0 -0.90229689363E+01  0.79317317037E+01 -0.23201264924E+01  0.12235576139E+02  0.51100000000E-03 0. -1.
        -11    1    3    3    0    0 -0.81096494630E+00 -0.83439948998E+00  0.17857182137E+01  0.21313555436E+01  0.51100000000E-03 0.  1.
        -12    1    3    3    0    0 -0.13900022629E+02  0.22864656875E+02 -0.20022879418E+02  0.33420336074E+02  0.00000000000E+00 0.  1.
</event>
<event>
 7    1  0.2486105E-010  0.4778726E+02  0.7816164E-02  0.1312668E+00
        -11   -1    0    0    0    0  0.00000000000E+00  0.00000000000E+00  0.45593999997E+02  0.45594000000E+02  0.51100000000E-03 0.  1.
         11   -1    0    0    0    0 -0.00000000000E+00 -0.00000000000E+00 -0.45593999997E+02  0.45594000000E+02  0.51100000000E-03 0. -1.
    9900012    2    1    2    0    0 -0.12928950259E+02 -0.25411043206E+02  0.32722247985E+02  0.47787258246E+02  0.19999941647E+02 0.  0.
         12    1    1    2    0    0  0.12928950259E+02  0.25411043206E+02 -0.32722247985E+02  0.43400741754E+02  0.00000000000E+00 0. -1.
         11    1    3    3    0    0 -0.71482789792E+01 -0.11452119739E+02  0.11442894952E+02  0.17697140561E+02  0.51100000000E-03 0. -1.
        -11    1    3    3    0    0 -0.10367165154E+02 -0.57525656999E+01  0.11265794767E+02  0.16355068249E+02  0.51100000000E-03 0.  1.
         12    1    3    3    0    0  0.45864938740E+01 -0.82063577671E+01  0.10013558266E+02  0.13735049436E+02  0.00000000000E+00 0. -1.
</event>
<event>
 7    1  0.2486105E-010  0.4778727E+02  0.7816164E-02  0.1312668E+00
        -11   -1    0    0    0    0  0.00000000000E+00  0.00000000000E+00  0.45593999997E+02  0.45594000000E+02  0.51100000000E-03 0.  1.
         11   -1    0    0    0    0 -0.00000000000E+00 -0.00000000000E+00 -0.45593999997E+02  0.45594000000E+02  0.51100000000E-03 0. -1.
    9900012    2    1    2    0    0 -0.21176228283E+02  0.35446347844E+02  0.13369640022E+02  0.47787268507E+02  0.19999988430E+02 0.  0.
         12    1    1    2    0    0  0.21176228283E+02 -0.35446347844E+02 -0.13369640022E+02  0.43400731493E+02  0.00000000000E+00 0. -1.
         11    1    3    3    0    0 -0.56968881237E+01  0.85087166467E+01 -0.22815166622E+01  0.10490858488E+02  0.51100000000E-03 0. -1.
        -11    1    3    3    0    0 -0.82176157959E+01  0.85037408385E+01 -0.34775321728E+00  0.11830627632E+02  0.51100000000E-03 0.  1.
        -12    1    3    3    0    0 -0.72617243637E+01  0.18433890359E+02  0.15998909902E+02  0.25465782387E+02  0.00000000000E+00 0.  1.
</event>
<event>
 7    1  0.2486105E-010  0.4778725E+02  0.7816164E-02  0.1312668E+00
        -11   -1    0    0    0    0  0.00000000000E+00  0.00000000000E+00  0.45593999997E+02  0.45594000000E+02  0.51100000000E-03 0.  1.
         11   -1    0    0    0    0 -0.00000000000E+00 -0.00000000000E+00 -0.45593999997E+02  0.45594000000E+02  0.51100000000E-03 0. -1.
    9900012    2    1    2    0    0  0.64057107950E+01 -0.39182154348E+02  0.17531416290E+02  0.47787252227E+02  0.19999914203E+02 0.  0.
         12    1    1    2    0    0 -0.64057107950E+01  0.39182154348E+02 -0.17531416290E+02  0.43400747773E+02  0.00000000000E+00 0. -1.
         11    1    3    3    0    0  0.87291821327E+01 -0.34424996975E+02  0.17065399741E+02  0.39401864245E+02  0.51100000000E-03 0.  1.
        -11    1    3    3    0    0  0.19694632101E+00 -0.44924352919E+00  0.28233455409E+01  0.28656391793E+01  0.51100000000E-03 0. -1.
        -12    1    3    3    0    0 -0.25204176588E+01 -0.43079138442E+01 -0.23573289922E+01  0.55197488023E+01  0.00000000000E+00 0.  1.
</event>
<event>
 7    1  0.2486105E-010  0.4778727E+02  0.7816164E-02  0.1312668E+00
        -11   -1    0    0    0    0  0.00000000000E+00  0.00000000000E+00  0.45593999997E+02  0.45594000000E+02  0.51100000000E-03 0.  1.
         11   -1    0    0    0    0 -0.00000000000E+00 -0.00000000000E+00 -0.45593999997E+02  0.45594000000E+02  0.51100000000E-03 0. -1.
    9900012    2    1    2    0    0 -0.27643507046E+02  0.21143268077E+01  0.33391457645E+02  0.47787270705E+02  0.19999998452E+02 0.  0.
         12    1    1    2    0    0  0.27643507046E+02 -0.21143268077E+01 -0.33391457645E+02  0.43400729295E+02  0.00000000000E+00 0. -1.
         11    1    3    3    0    0 -0.32241644935E+01  0.33115028751E+01  0.58400639666E+01  0.74476597242E+01  0.51100000000E-03 0. -1.
        -11    1    3    3    0    0 -0.13826890484E+02  0.22363546774E+01  0.25389357028E+02  0.28996614169E+02  0.51100000000E-03 0.  1.
         12    1    3    3    0    0 -0.10592452068E+02 -0.34335307448E+01  0.21620366507E+01  0.11342996812E+02  0.00000000000E+00 0. -1.
</event>
<event>
 7    1  0.2486105E-010  0.4778727E+02  0.7816164E-02  0.1312668E+00
        -11   -1    0    0    0    0  0.00000000000E+00  0.00000000000E+00  0.45593999997E+02  0.45594000000E+02  0.51100000000E-03 0. -1.
         11   -1    0    0    0    0 -0.00000000000E+00 -0.00000000000E+00 -0.45593999997E+02  0.45594000000E+02  0.51100000000E-03 0.  1.
    9900012    2    1    2    0    0  0.42403119078E+02 -0.47922768675E+00 -0.92395426498E+01  0.47787270570E+02  0.19999997836E+02 0.  0.
         12    1    1    2    0    0 -0.42403119078E+02  0.47922768675E+00  0.92395426498E+01  0.43400729430E+02  0.00000000000E+00 0. -1.
         11    1    3    3    0    0  0.39383552899E+01  0.34305687948E+01 -0.15847029797E+01  0.54580883503E+01  0.51100000000E-03 0. -1.
        -11    1    3    3    0    0  0.23818816889E+02  0.28017704360E+01 -0.10120723097E+02  0.26031039008E+02  0.51100000000E-03 0.  1.
        -12    1    3    3    0    0  0.14645946899E+02 -0.67115669176E+01  0.24658834273E+01  0.16298143211E+02  0.00000000000E+00 0.  1.
</event>
<event>
 7    1  0.2486105E-010  0.4778727E+02  0.7816164E-02  0.1312668E+00
        -11   -1    0    0    0    0  0.00000000000E+00  0.00000000000E+00  0.45593999997E+02  0.45594000000E+02  0.51100000000E-03 0.  1.
         11   -1    0    0    0    0 -0.00000000000E+00 -0.00000000000E+00 -0.45593999997E+02  0.45594000000E+02  0.51100000000E-03 0. -1.
    9900012    2    1    2    0    0  0.20659128701E+02 -0.38155202856E+02  0.10020070098E+01  0.47787272797E+02  0.20000007992E+02 0.  0.
         12    1    1    2    0    0 -0.20659128701E+02  0.38155202856E+02 -0.10020070098E+01  0.43400727203E+02  0.00000000000E+00 0. -1.
         11    1    3    3    0    0  0.12553281274E+01 -0.88093346656E+01 -0.48353056474E+01  0.10127211212E+02  0.51100000000E-03 0.  1.
        -11    1    3    3    0    0  0.85184681523E+01 -0.74856163935E+01 -0.29315367294E+01  0.11712927060E+02  0.51100000000E-03 0. -1.
        -12    1    3    3    0    0  0.10885332421E+02 -0.21860251797E+02  0.87688493866E+01  0.25947134526E+02  0.00000000000E+00 0.  1.
</event>
<event>
 7    1  0.2486105E-010  0.4778727E+02  0.7816164E-02  0.1312668E+00
        -11   -1    0    0    0    0  0.00000000000E+00  0.00000000000E+00  0.45593999997E+02  0.45594000000E+02  0.51100000000E-03 0.  1.
         11   -1    0    0    0    0 -0.00000000000E+00 -0.00000000000E+00 -0.45593999997E+02  0.45594000000E+02  0.51100000000E-03 0. -1.
    9900012    2    1    2    0    0 -0.36362704373E+02 -0.20899973211E+02  0.11161017644E+02  0.47787268850E+02  0.19999989993E+02 0.  0.
         12    1    1    2    0    0  0.36362704373E+02  0.20899973211E+02 -0.11161017644E+02  0.43400731150E+02  0.00000000000E+00 0. -1.
         11    1    3    3    0    0  0.20431575579E+00 -0.31547215336E+00 -0.27625801923E-01  0.37687007531E+00  0.51100000000E-03 0. -1.
        -11    1    3    3    0    0 -0.15480891437E+02 -0.24568850352E+01  0.11762754835E+02  0.19597364245E+02  0.51100000000E-03 0.  1.
        -12    1    3    3    0    0 -0.21086128692E+02 -0.18127616022E+02 -0.57411138951E+00  0.27813034530E+02  0.00000000000E+00 0.  1.
</event>
<event>
 7    1  0.2486105E-010  0.4778729E+02  0.7816164E-02  0.1312668E+00
        -11   -1    0    0    0    0  0.00000000000E+00  0.00000000000E+00  0.45593999997E+02  0.45594000000E+02  0.51100000000E-03 0.  1.
         11   -1    0    0    0    0 -0.00000000000E+00 -0.00000000000E+00 -0.45593999997E+02  0.45594000000E+02  0.51100000000E-03 0. -1.
    9900012    2    1    2    0    0  0.16910429563E+02 -0.13969530351E+02  0.37450116306E+02  0.47787290126E+02  0.20000087001E+02 0.  0.
         12    1    1    2    0    0 -0.16910429563E+02  0.13969530351E+02 -0.37450116306E+02  0.43400709874E+02  0.00000000000E+00 0. -1.
         11    1    3    3    0    0  0.65515206950E+01 -0.34810768980E+01  0.84834917068E+01  0.11269869191E+02  0.51100000000E-03 0.  1.
        -11    1    3    3    0    0  0.62338045338E+01  0.55457072246E+00  0.12279348211E+01  0.63777497472E+01  0.51100000000E-03 0. -1.
         12    1    3    3    0    0  0.41251043344E+01 -0.11043024175E+02  0.27738689778E+02  0.30139671188E+02  0.00000000000E+00 0. -1.
</event>
<event>
 7    1  0.2486105E-010  0.4778727E+02  0.7816164E-02  0.1312668E+00
        -11   -1    0    0    0    0  0.00000000000E+00  0.00000000000E+00  0.45593999997E+02  0.45594000000E+02  0.51100000000E-03 0.  1.
         11   -1    0    0    0    0 -0.00000000000E+00 -0.00000000000E+00 -0.45593999997E+02  0.45594000000E+02  0.51100000000E-03 0. -1.
    9900012    2    1    2    0    0  0.75213563803E+01 -0.22926361672E+02  0.36075401968E+02  0.47787268572E+02  0.19999988726E+02 0.  0.
         12    1    1    2    0    0 -0.75213563803E+01  0.22926361672E+02 -0.36075401968E+02  0.43400731428E+02  0.00000000000E+00 0. -1.
         11    1    3    3    0    0  0.12690255059E+01 -0.10737241910E+01 -0.12699239162E+01  0.20918930152E+01  0.51100000000E-03 0. -1.
        -11    1    3    3    0    0  0.80008900935E+01 -0.59170588226E+01  0.18030856622E+02  0.20594601676E+02  0.51100000000E-03 0.  1.
        -12    1    3    3    0    0 -0.17485592191E+01 -0.15935578659E+02  0.19314469262E+02  0.25100773881E+02  0.00000000000E+00 0.  1.
</event>
<event>
 7    1  0.2486105E-010  0.4778728E+02  0.7816164E-02  0.1312668E+00
        -11   -1    0    0    0    0  0.00000000000E+00  0.00000000000E+00  0.45593999997E+02  0.45594000000E+02  0.51100000000E-03 0.  1.
         11   -1    0    0    0    0 -0.00000000000E+00 -0.00000000000E+00 -0.45593999997E+02  0.45594000000E+02  0.51100000000E-03 0. -1.
    9900012    2    1    2    0    0 -0.33365108703E+02 -0.19511182428E+02  0.19740958453E+02  0.47787283887E+02  0.20000058556E+02 0.  0.
         12    1    1    2    0    0  0.33365108703E+02  0.19511182428E+02 -0.19740958453E+02  0.43400716113E+02  0.00000000000E+00 0. -1.
         11    1    3    3    0    0 -0.16144997428E+02 -0.12350167498E+02  0.74303085948E+01  0.21642482881E+02  0.51100000000E-03 0. -1.
        -11    1    3    3    0    0 -0.12758286895E+02 -0.83885849110E+01  0.27383539643E+01  0.15512602103E+02  0.51100000000E-03 0.  1.
        -12    1    3    3    0    0 -0.44618243791E+01  0.12275699812E+01  0.95722958936E+01  0.10632198903E+02  0.00000000000E+00 0.  1.
</event>
<event>
 7    1  0.3248979E-010  0.4778727E+02  0.7816164E-02  0.1312668E+00
        -11   -1    0    0    0    0  0.00000000000E+00  0.00000000000E+00  0.45593999997E+02  0.45594000000E+02  0.51100000000E-03 0. -1.
         11   -1    0    0    0    0 -0.00000000000E+00 -0.00000000000E+00 -0.45593999997E+02  0.45594000000E+02  0.51100000000E-03 0.  1.
    9900012    2    1    2    0    0 -0.42899429199E+02 -0.65743697011E+01 -0.19981988471E+00  0.47787270852E+02  0.19999999124E+02 0.  0.
         12    1    1    2    0    0  0.42899429199E+02  0.65743697011E+01  0.19981988471E+00  0.43400729148E+02  0.00000000000E+00 0. -1.
         11    1    3    3    0    0 -0.24067053743E+01 -0.77139141205E+00 -0.39513048193E+01  0.46904248747E+01  0.51100000000E-03 0. -1.
        -11    1    3    3    0    0 -0.15607879713E+02 -0.87142531418E+01  0.18090129385E+01  0.17967098960E+02  0.51100000000E-03 0.  1.
        -12    1    3    3    0    0 -0.24884844112E+02  0.29112748527E+01  0.19424719961E+01  0.25129747018E+02  0.00000000000E+00 0.  1.
</event>
<event>
 7    1  0.2486105E-010  0.4778727E+02  0.7816164E-02  0.1312668E+00
        -11   -1    0    0    0    0  0.00000000000E+00  0.00000000000E+00  0.45593999997E+02  0.45594000000E+02  0.51100000000E-03 0. -1.
         11   -1    0    0    0    0 -0.00000000000E+00 -0.00000000000E+00 -0.45593999997E+02  0.45594000000E+02  0.51100000000E-03 0.  1.
    9900012    2    1    2    0    0  0.20209132332E+02 -0.25159910395E+02 -0.29020565337E+02  0.47787270361E+02  0.19999996885E+02 0.  0.
         12    1    1    2    0    0 -0.20209132332E+02  0.25159910395E+02  0.29020565337E+02  0.43400729639E+02  0.00000000000E+00 0. -1.
         11    1    3    3    0    0  0.69643134023E+00  0.14675263706E+01 -0.66491069213E+00  0.17552084633E+01  0.51100000000E-03 0. -1.
        -11    1    3    3    0    0  0.10984245261E+01 -0.11194137540E+02 -0.43256742199E+01  0.12051004499E+02  0.51100000000E-03 0.  1.
        -12    1    3    3    0    0  0.18414276466E+02 -0.15433299226E+02 -0.24029980425E+02  0.33981057399E+02  0.00000000000E+00 0.  1.
</event>
<event>
 7    1  0.2486105E-010  0.4778727E+02  0.7816164E-02  0.1312668E+00
        -11   -1    0    0    0    0  0.00000000000E+00  0.00000000000E+00  0.45593999997E+02  0.45594000000E+02  0.51100000000E-03 0.  1.
         11   -1    0    0    0    0 -0.00000000000E+00 -0.00000000000E+00 -0.45593999997E+02  0.45594000000E+02  0.51100000000E-03 0. -1.
    9900012    2    1    2    0    0  0.14632084881E+02 -0.16856913555E+02  0.37220554106E+02  0.47787273156E+02  0.20000009629E+02 0.  0.
         12    1    1    2    0    0 -0.14632084881E+02  0.16856913555E+02 -0.37220554106E+02  0.43400726844E+02  0.00000000000E+00 0. -1.
         11    1    3    3    0    0  0.62921145949E+01 -0.13781056998E+02  0.18372058537E+02  0.23812617941E+02  0.51100000000E-03 0.  1.
        -11    1    3    3    0    0  0.78709672031E+01 -0.39679893041E+01  0.50887349458E+01  0.10178029644E+02  0.51100000000E-03 0. -1.
         12    1    3    3    0    0  0.46900308296E+00  0.89213274693E+00  0.13759760623E+02  0.13796625571E+02  0.00000000000E+00 0. -1.
</event>
<event>
 7    1  0.2486105E-010  0.4778727E+02  0.7816164E-02  0.1312668E+00
        -11   -1    0    0    0    0  0.00000000000E+00  0.00000000000E+00  0.45593999997E+02  0.45594000000E+02  0.51100000000E-03 0.  1.
         11   -1    0    0    0    0 -0.00000000000E+00 -0.00000000000E+00 -0.45593999997E+02  0.45594000000E+02  0.51100000000E-03 0. -1.
    9900012    2    1    2    0    0 -0.26069275102E+02 -0.10856670444E+02  0.32956770583E+02  0.47787272762E+02  0.20000007832E+02 0.  0.
         12    1    1    2    0    0  0.26069275102E+02  0.10856670444E+02 -0.32956770583E+02  0.43400727238E+02  0.00000000000E+00 0. -1.
         11    1    3    3    0    0 -0.12927820365E+02 -0.13488148120E+02  0.21170161180E+02  0.28235339625E+02  0.51100000000E-03 0. -1.
        -11    1    3    3    0    0 -0.68958600591E+00 -0.24769130191E+00 -0.11521442796E+01  0.13653997740E+01  0.51100000000E-03 0.  1.
        -12    1    3    3    0    0 -0.12451868732E+02  0.28791689778E+01  0.12938753683E+02  0.18186533363E+02  0.00000000000E+00 0.  1.
</event>
<event>
 7    1  0.2486105E-010  0.4778727E+02  0.7816164E-02  0.1312668E+00
        -11   -1    0    0    0    0  0.00000000000E+00  0.00000000000E+00  0.45593999997E+02  0.45594000000E+02  0.51100000000E-03 0. -1.
         11   -1    0    0    0    0 -0.00000000000E+00 -0.00000000000E+00 -0.45593999997E+02  0.45594000000E+02  0.51100000000E-03 0.  1.
    9900012    2    1    2    0    0 -0.56270218587E+01  0.40621314140E+02  0.14208055518E+02  0.47787269833E+02  0.19999994476E+02 0.  0.
         12    1    1    2    0    0  0.56270218587E+01 -0.40621314140E+02 -0.14208055518E+02  0.43400730167E+02  0.00000000000E+00 0. -1.
         11    1    3    3    0    0 -0.27122466471E+01  0.24499001279E+02  0.16002398117E+02  0.29387652021E+02  0.51100000000E-03 0. -1.
        -11    1    3    3    0    0  0.17769775269E+01  0.34430163519E+01  0.19965275219E+01  0.43586847945E+01  0.51100000000E-03 0.  1.
        -12    1    3    3    0    0 -0.46917527385E+01  0.12679296509E+02 -0.37908701216E+01  0.14040933017E+02  0.00000000000E+00 0.  1.
</event>
<event>
 7    1  0.2486105E-010  0.4778727E+02  0.7816164E-02  0.1312668E+00
        -11   -1    0    0    0    0  0.00000000000E+00  0.00000000000E+00  0.45593999997E+02  0.45594000000E+02  0.51100000000E-03 0.  1.
         11   -1    0    0    0    0 -0.00000000000E+00 -0.00000000000E+00 -0.45593999997E+02  0.45594000000E+02  0.51100000000E-03 0. -1.
    9900012    2    1    2    0    0 -0.37954874199E+02 -0.16851869064E+02  0.12612115990E+02  0.47787269175E+02  0.19999991476E+02 0.  0.
         12    1    1    2    0    0  0.37954874199E+02  0.16851869064E+02 -0.12612115990E+02  0.43400730825E+02  0.00000000000E+00 0. -1.
         11    1    3    3    0    0 -0.39167139491E+01 -0.53906039265E+01 -0.32357384319E+01  0.74073789097E+01  0.51100000000E-03 0. -1.
        -11    1    3    3    0    0 -0.56183388946E+01 -0.14094243511E+01  0.67440489371E+01  0.88901296539E+01  0.51100000000E-03 0.  1.
        -12    1    3    3    0    0 -0.28419821355E+02 -0.10051840786E+02  0.91038054847E+01  0.31489760611E+02  0.00000000000E+00 0.  1.
</event>
<event>
 7    1  0.2486105E-010  0.4778727E+02  0.7816164E-02  0.1312668E+00
        -11   -1    0    0    0    0  0.00000000000E+00  0.00000000000E+00  0.45593999997E+02  0.45594000000E+02  0.51100000000E-03 0. -1.
         11   -1    0    0    0    0 -0.00000000000E+00 -0.00000000000E+00 -0.45593999997E+02  0.45594000000E+02  0.51100000000E-03 0.  1.
    9900012    2    1    2    0    0  0.28981628412E+01 -0.39292346700E+02 -0.18202619524E+02  0.47787271727E+02  0.20000003113E+02 0.  0.
         12    1    1    2    0    0 -0.28981628412E+01  0.39292346700E+02  0.18202619524E+02  0.43400728273E+02  0.00000000000E+00 0. -1.
         11    1    3    3    0    0 -0.11646248178E+01 -0.35858541728E+00 -0.45455300523E+01  0.47060363561E+01  0.51100000000E-03 0. -1.
        -11    1    3    3    0    0  0.56105948711E+01 -0.14385893506E+02 -0.95172832357E+01  0.18138671043E+02  0.51100000000E-03 0.  1.
         12    1    3    3    0    0 -0.15478072121E+01 -0.24547867777E+02 -0.41398062362E+01  0.24942564328E+02  0.00000000000E+00 0. -1.
</event>
<event>
 7    1  0.2486105E-010  0.4778726E+02  0.7816164E-02  0.1312668E+00
        -11   -1    0    0    0    0  0.00000000000E+00  0.00000000000E+00  0.45593999997E+02  0.45594000000E+02  0.51100000000E-03 0.  1.
         11   -1    0    0    0    0 -0.00000000000E+00 -0.00000000000E+00 -0.45593999997E+02  0.45594000000E+02  0.51100000000E-03 0. -1.
    9900012    2    1    2    0    0 -0.11847361942E+02 -0.38657421990E+02  0.15775540437E+02  0.47787263417E+02  0.19999965221E+02 0.  0.
         12    1    1    2    0    0  0.11847361942E+02  0.38657421990E+02 -0.15775540437E+02  0.43400736583E+02  0.00000000000E+00 0. -1.
         11    1    3    3    0    0 -0.22929198057E+00  0.33619962333E+00  0.14583427822E+01  0.15140571094E+01  0.51100000000E-03 0. -1.
        -11    1    3    3    0    0 -0.50866471471E+01 -0.25523698781E+02  0.69781649634E+00  0.26034978909E+02  0.51100000000E-03 0.  1.
        -12    1    3    3    0    0 -0.65314228139E+01 -0.13469922833E+02  0.13619381158E+02  0.20238227398E+02  0.00000000000E+00 0.  1.
</event>
<event>
 7    1  0.2486105E-010  0.4778727E+02  0.7816164E-02  0.1312668E+00
        -11   -1    0    0    0    0  0.00000000000E+00  0.00000000000E+00  0.45593999997E+02  0.45594000000E+02  0.51100000000E-03 0. -1.
         11   -1    0    0    0    0 -0.00000000000E+00 -0.00000000000E+00 -0.45593999997E+02  0.45594000000E+02  0.51100000000E-03 0.  1.
    9900012    2    1    2    0    0 -0.14970981820E+02 -0.37677254186E+02 -0.15489267329E+02  0.47787272103E+02  0.20000004826E+02 0.  0.
         12    1    1    2    0    0  0.14970981820E+02  0.37677254186E+02  0.15489267329E+02  0.43400727897E+02  0.00000000000E+00 0. -1.
         11    1    3    3    0    0 -0.17621726696E+01 -0.45785890243E+00 -0.44259485464E+01  0.47858027633E+01  0.51100000000E-03 0.  1.
        -11    1    3    3    0    0 -0.10318627782E+02 -0.12406525393E+02 -0.13296678309E+01  0.16191478266E+02  0.51100000000E-03 0. -1.
         12    1    3    3    0    0 -0.28901813685E+01 -0.24812869891E+02 -0.97336509514E+01  0.26809991074E+02  0.00000000000E+00 0. -1.
</event>
<event>
 7    1  0.2486105E-010  0.4778727E+02  0.7816164E-02  0.1312668E+00
        -11   -1    0    0    0    0  0.00000000000E+00  0.00000000000E+00  0.45593999997E+02  0.45594000000E+02  0.51100000000E-03 0.  1.
         11   -1    0    0    0    0 -0.00000000000E+00 -0.00000000000E+00 -0.45593999997E+02  0.45594000000E+02  0.51100000000E-03 0. -1.
    9900012    2    1    2    0    0  0.41528614842E+01 -0.41556039298E+02  0.11809857841E+02  0.47787269558E+02  0.19999993224E+02 0.  0.
         12    1    1    2    0    0 -0.41528614842E+01  0.41556039298E+02 -0.11809857841E+02  0.43400730442E+02  0.00000000000E+00 0. -1.
         11    1    3    3    0    0  0.13191888715E+01  0.87630794161E+00 -0.93711356753E+00  0.18402056914E+01  0.51100000000E-03 0. -1.
        -11    1    3    3    0    0  0.57854215006E+01 -0.98199487296E+01  0.32169170246E+01  0.11842763630E+02  0.51100000000E-03 0.  1.
        -12    1    3    3    0    0 -0.29517488879E+01 -0.32612398510E+02  0.95300543837E+01  0.34104300237E+02  0.00000000000E+00 0.  1.
</event>
<event>
 7    1  0.2486105E-010  0.4778727E+02  0.7816164E-02  0.1312668E+00
        -11   -1    0    0    0    0  0.00000000000E+00  0.00000000000E+00  0.45593999997E+02  0.45594000000E+02  0.51100000000E-03 0. -1.
         11   -1    0    0    0    0 -0.00000000000E+00 -0.00000000000E+00 -0.45593999997E+02  0.45594000000E+02  0.51100000000E-03 0.  1.
    9900012    2    1    2    0    0 -0.72301546307E+01 -0.22183885429E+02 -0.36595400581E+02  0.47787271292E+02  0.20000001128E+02 0.  0.
         12    1    1    2    0    0  0.72301546307E+01  0.22183885429E+02  0.36595400581E+02  0.43400728708E+02  0.00000000000E+00 0. -1.
         11    1    3    3    0    0  0.25612779836E+01 -0.41272284894E+00 -0.32941619761E+01  0.41930881752E+01  0.51100000000E-03 0. -1.
        -11    1    3    3    0    0  0.75622169987E+00 -0.12550047232E+02 -0.22973553567E+02  0.26188923623E+02  0.51100000000E-03 0.  1.
         12    1    3    3    0    0 -0.10547654314E+02 -0.92211153485E+01 -0.10327685038E+02  0.17405259494E+02  0.00000000000E+00 0. -1.
</event>
<event>
 7    1  0.2486105E-010  0.4778727E+02  0.7816164E-02  0.1312668E+00
        -11   -1    0    0    0    0  0.00000000000E+00  0.00000000000E+00  0.45593999997E+02  0.45594000000E+02  0.51100000000E-03 0.  1.
         11   -1    0    0    0    0 -0.00000000000E+00 -0.00000000000E+00 -0.45593999997E+02  0.45594000000E+02  0.51100000000E-03 0. -1.
    9900012    2    1    2    0    0  0.42225858412E+02 -0.96314589300E+01  0.27991741654E+01  0.47787268488E+02  0.19999988343E+02 0.  0.
         12    1    1    2    0    0 -0.42225858412E+02  0.96314589300E+01 -0.27991741654E+01  0.43400731512E+02  0.00000000000E+00 0. -1.
         11    1    3    3    0    0  0.40306766757E+01 -0.42189898522E+01 -0.11204054951E+00  0.58359903344E+01  0.51100000000E-03 0. -1.
        -11    1    3    3    0    0  0.24106208120E+02 -0.41590809441E+01 -0.60596960532E+01  0.25201728924E+02  0.51100000000E-03 0.  1.
         12    1    3    3    0    0  0.14088973616E+02 -0.12533881337E+01  0.89709107681E+01  0.16749549229E+02  0.00000000000E+00 0. -1.
</event>
<event>
 7    1  0.2486105E-010  0.4778726E+02  0.7816164E-02  0.1312668E+00
        -11   -1    0    0    0    0  0.00000000000E+00  0.00000000000E+00  0.45593999997E+02  0.45594000000E+02  0.51100000000E-03 0.  1.
         11   -1    0    0    0    0 -0.00000000000E+00 -0.00000000000E+00 -0.45593999997E+02  0.45594000000E+02  0.51100000000E-03 0. -1.
    9900012    2    1    2    0    0 -0.19742557279E+02  0.38179884715E+02  0.60126425697E+01  0.47787262271E+02  0.19999959999E+02 0.  0.
         12    1    1    2    0    0  0.19742557279E+02 -0.38179884715E+02 -0.60126425697E+01  0.43400737729E+02  0.00000000000E+00 0. -1.
         11    1    3    3    0    0 -0.74165461359E+01  0.32452180721E+02  0.26710527215E+01  0.33395863712E+02  0.51100000000E-03 0. -1.
        -11    1    3    3    0    0 -0.22244611882E+01  0.29039877237E+00 -0.49050593394E+00  0.22963352014E+01  0.51100000000E-03 0.  1.
         12    1    3    3    0    0 -0.10101549954E+02  0.54373052211E+01  0.38320957821E+01  0.12095063358E+02  0.00000000000E+00 0. -1.
</event>
<event>
 7    1  0.2486105E-010  0.4778727E+02  0.7816164E-02  0.1312668E+00
        -11   -1    0    0    0    0  0.00000000000E+00  0.00000000000E+00  0.45593999997E+02  0.45594000000E+02  0.51100000000E-03 0.  1.
         11   -1    0    0    0    0 -0.00000000000E+00 -0.00000000000E+00 -0.45593999997E+02  0.45594000000E+02  0.51100000000E-03 0. -1.
    9900012    2    1    2    0    0  0.72193449515E+01 -0.17972082170E+02  0.38839524075E+02  0.47787270635E+02  0.19999998132E+02 0.  0.
         12    1    1    2    0    0 -0.72193449515E+01  0.17972082170E+02 -0.38839524075E+02  0.43400729365E+02  0.00000000000E+00 0. -1.
         11    1    3    3    0    0  0.28519626519E+01 -0.31048860179E+01  0.35965711954E+01  0.55416002000E+01  0.51100000000E-03 0. -1.
        -11    1    3    3    0    0  0.10180897708E+02 -0.92287893499E+01  0.28751652453E+02  0.31866577319E+02  0.51100000000E-03 0.  1.
         12    1    3    3    0    0 -0.58135154083E+01 -0.56384068024E+01  0.64913004266E+01  0.10379093115E+02  0.00000000000E+00 0. -1.
</event>
<event>
 7    1  0.2486105E-010  0.4778727E+02  0.7816164E-02  0.1312668E+00
        -11   -1    0    0    0    0  0.00000000000E+00  0.00000000000E+00  0.45593999997E+02  0.45594000000E+02  0.51100000000E-03 0. -1.
         11   -1    0    0    0    0 -0.00000000000E+00 -0.00000000000E+00 -0.45593999997E+02  0.45594000000E+02  0.51100000000E-03 0.  1.
    9900012    2    1    2    0    0 -0.33228348436E+02 -0.27024925886E+02  0.70109891617E+01  0.47787265814E+02  0.19999976150E+02 0.  0.
         12    1    1    2    0    0  0.33228348436E+02  0.27024925886E+02 -0.70109891617E+01  0.43400734186E+02  0.00000000000E+00 0. -1.
         11    1    3    3    0    0 -0.16896725730E+02 -0.96997850124E+01 -0.28912646498E+01  0.19696308822E+02  0.51100000000E-03 0. -1.
        -11    1    3    3    0    0 -0.66957522736E+01 -0.39644501919E+00  0.36317656864E+01  0.76275808370E+01  0.51100000000E-03 0.  1.
         12    1    3    3    0    0 -0.96358704320E+01 -0.16928695854E+02  0.62704881251E+01  0.20463376154E+02  0.00000000000E+00 0. -1.
</event>
<event>
 7    1  0.2486105E-010  0.4778729E+02  0.7816164E-02  0.1312668E+00
        -11   -1    0    0    0    0  0.00000000000E+00  0.00000000000E+00  0.45593999997E+02  0.45594000000E+02  0.51100000000E-03 0. -1.
         11   -1    0    0    0    0 -0.00000000000E+00 -0.00000000000E+00 -0.45593999997E+02  0.45594000000E+02  0.51100000000E-03 0.  1.
    9900012    2    1    2    0    0 -0.35835463915E+02 -0.14003925318E+02 -0.20083113931E+02  0.47787287293E+02  0.20000074085E+02 0.  0.
         12    1    1    2    0    0  0.35835463915E+02  0.14003925318E+02  0.20083113931E+02  0.43400712707E+02  0.00000000000E+00 0. -1.
         11    1    3    3    0    0 -0.82085091438E+01 -0.67041775263E+01  0.91177500858E+00  0.10637525680E+02  0.51100000000E-03 0. -1.
        -11    1    3    3    0    0 -0.15603628961E+01 -0.30076103372E+01  0.27488287215E-01  0.33883931554E+01  0.51100000000E-03 0.  1.
        -12    1    3    3    0    0 -0.26066591875E+02 -0.42921374543E+01 -0.21022377226E+02  0.33761368458E+02  0.00000000000E+00 0.  1.
</event>
<event>
 7    1  0.2486105E-010  0.4778727E+02  0.7816164E-02  0.1312668E+00
        -11   -1    0    0    0    0  0.00000000000E+00  0.00000000000E+00  0.45593999997E+02  0.45594000000E+02  0.51100000000E-03 0. -1.
         11   -1    0    0    0    0 -0.00000000000E+00 -0.00000000000E+00 -0.45593999997E+02  0.45594000000E+02  0.51100000000E-03 0.  1.
    9900012    2    1    2    0    0 -0.23916320214E+02 -0.28343341134E+02 -0.22545243818E+02  0.47787269845E+02  0.19999994529E+02 0.  0.
         12    1    1    2    0    0  0.23916320214E+02  0.28343341134E+02  0.22545243818E+02  0.43400730155E+02  0.00000000000E+00 0. -1.
         11    1    3    3    0    0 -0.52655972955E+01 -0.92280610456E+01 -0.21790609478E+01  0.10845825576E+02  0.51100000000E-03 0. -1.
        -11    1    3    3    0    0  0.12981467111E+01 -0.39363764191E+01 -0.79551390789E+01  0.89701996758E+01  0.51100000000E-03 0.  1.
         12    1    3    3    0    0 -0.19948869630E+02 -0.15178903669E+02 -0.12411043791E+02  0.27971244593E+02  0.00000000000E+00 0. -1.
</event>
<event>
 7    1  0.2486105E-010  0.4778727E+02  0.7816164E-02  0.1312668E+00
        -11   -1    0    0    0    0  0.00000000000E+00  0.00000000000E+00  0.45593999997E+02  0.45594000000E+02  0.51100000000E-03 0.  1.
         11   -1    0    0    0    0 -0.00000000000E+00 -0.00000000000E+00 -0.45593999997E+02  0.45594000000E+02  0.51100000000E-03 0. -1.
    9900012    2    1    2    0    0  0.31321260135E+01  0.11936332283E+02  0.41609335165E+02  0.47787274031E+02  0.20000013617E+02 0.  0.
         12    1    1    2    0    0 -0.31321260135E+01 -0.11936332283E+02 -0.41609335165E+02  0.43400725969E+02  0.00000000000E+00 0. -1.
         11    1    3    3    0    0  0.38651508237E+01  0.38384865114E+01  0.73314398416E+00  0.54964415716E+01  0.51100000000E-03 0. -1.
        -11    1    3    3    0    0  0.27195685345E+01  0.25222483535E+01  0.87768654405E+01  0.95284393787E+01  0.51100000000E-03 0.  1.
        -12    1    3    3    0    0 -0.34525933447E+01  0.55755974184E+01  0.32099325741E+02  0.32762393081E+02  0.00000000000E+00 0.  1.
</event>
<event>
 7    1  0.2667004E-010  0.4778728E+02  0.7816164E-02  0.1312668E+00
        -11   -1    0    0    0    0  0.00000000000E+00  0.00000000000E+00  0.45593999997E+02  0.45594000000E+02  0.51100000000E-03 0. -1.
         11   -1    0    0    0    0 -0.00000000000E+00 -0.00000000000E+00 -0.45593999997E+02  0.45594000000E+02  0.51100000000E-03 0.  1.
    9900012    2    1    2    0    0  0.28853540632E+02 -0.27033411911E+02 -0.17896647931E+02  0.47787283719E+02  0.20000057790E+02 0.  0.
         12    1    1    2    0    0 -0.28853540632E+02  0.27033411911E+02  0.17896647931E+02  0.43400716281E+02  0.00000000000E+00 0. -1.
         11    1    3    3    0    0  0.20364089297E+02 -0.17949289952E+02 -0.59967670034E+01  0.27799898515E+02  0.51100000000E-03 0. -1.
        -11    1    3    3    0    0  0.87285747006E+01 -0.11045118867E+02 -0.10258159473E+02  0.17418739998E+02  0.51100000000E-03 0.  1.
         12    1    3    3    0    0 -0.23912336571E+00  0.19609969090E+01 -0.16417214543E+01  0.25686452060E+01  0.00000000000E+00 0. -1.
</event>
<event>
 7    1  0.2486105E-010  0.4778727E+02  0.7816164E-02  0.1312668E+00
        -11   -1    0    0    0    0  0.00000000000E+00  0.00000000000E+00  0.45593999997E+02  0.45594000000E+02  0.51100000000E-03 0. -1.
         11   -1    0    0    0    0 -0.00000000000E+00 -0.00000000000E+00 -0.45593999997E+02  0.45594000000E+02  0.51100000000E-03 0.  1.
    9900012    2    1    2    0    0 -0.34227194545E+02 -0.12890868894E+02 -0.23365533030E+02  0.47787268658E+02  0.19999989118E+02 0.  0.
         12    1    1    2    0    0  0.34227194545E+02  0.12890868894E+02  0.23365533030E+02  0.43400731342E+02  0.00000000000E+00 0. -1.
         11    1    3    3    0    0 -0.80465469580E+01 -0.77052026197E+01 -0.92647482238E-01  0.11141169112E+02  0.51100000000E-03 0. -1.
        -11    1    3    3    0    0 -0.64000939452E+01 -0.18562135973E+00 -0.10683635145E+01  0.64913063906E+01  0.51100000000E-03 0.  1.
        -12    1    3    3    0    0 -0.19780553642E+02 -0.50000449146E+01 -0.22204522034E+02  0.30154793156E+02  0.00000000000E+00 0.  1.
</event>
<event>
 7    1  0.2486105E-010  0.4778727E+02  0.7816164E-02  0.1312668E+00
        -11   -1    0    0    0    0  0.00000000000E+00  0.00000000000E+00  0.45593999997E+02  0.45594000000E+02  0.51100000000E-03 0.  1.
         11   -1    0    0    0    0 -0.00000000000E+00 -0.00000000000E+00 -0.45593999997E+02  0.45594000000E+02  0.51100000000E-03 0. -1.
    9900012    2    1    2    0    0 -0.34696485014E+02 -0.20452727917E+02  0.16169816998E+02  0.47787272664E+02  0.20000007383E+02 0.  0.
         12    1    1    2    0    0  0.34696485014E+02  0.20452727917E+02 -0.16169816998E+02  0.43400727336E+02  0.00000000000E+00 0. -1.
         11    1    3    3    0    0 -0.13875135407E+02 -0.22659132867E+01  0.96357430115E+01  0.17044098369E+02  0.51100000000E-03 0. -1.
        -11    1    3    3    0    0  0.13397807894E+01 -0.61146461158E-01  0.74470926027E+00  0.15340611450E+01  0.51100000000E-03 0.  1.
         12    1    3    3    0    0 -0.22161130396E+02 -0.18125668170E+02  0.57893647260E+01  0.29209113149E+02  0.00000000000E+00 0. -1.
</event>
<event>
 7    1  0.2486105E-010  0.4778727E+02  0.7816164E-02  0.1312668E+00
        -11   -1    0    0    0    0  0.00000000000E+00  0.00000000000E+00  0.45593999997E+02  0.45594000000E+02  0.51100000000E-03 0. -1.
         11   -1    0    0    0    0 -0.00000000000E+00 -0.00000000000E+00 -0.45593999997E+02  0.45594000000E+02  0.51100000000E-03 0.  1.
    9900012    2    1    2    0    0 -0.34039659955E+02 -0.83741247241E+01 -0.25589037261E+02  0.47787271404E+02  0.20000001639E+02 0.  0.
         12    1    1    2    0    0  0.34039659955E+02  0.83741247241E+01  0.25589037261E+02  0.43400728596E+02  0.00000000000E+00 0. -1.
         11    1    3    3    0    0 -0.43526908605E+01  0.20026833666E+01 -0.42280216049E+01  0.63900567561E+01  0.51100000000E-03 0. -1.
        -11    1    3    3    0    0 -0.47086533505E+01 -0.79200824626E+01 -0.10720406474E+02  0.14135990868E+02  0.51100000000E-03 0.  1.
        -12    1    3    3    0    0 -0.24978315744E+02 -0.24567256281E+01 -0.10640609182E+02  0.27261223780E+02  0.00000000000E+00 0.  1.
</event>
<event>
 7    1  0.2486105E-010  0.4778727E+02  0.7816164E-02  0.1312668E+00
        -11   -1    0    0    0    0  0.00000000000E+00  0.00000000000E+00  0.45593999997E+02  0.45594000000E+02  0.51100000000E-03 0.  1.
         11   -1    0    0    0    0 -0.00000000000E+00 -0.00000000000E+00 -0.45593999997E+02  0.45594000000E+02  0.51100000000E-03 0. -1.
    9900012    2    1    2    0    0  0.22982816457E+02  0.28100316064E+01  0.36708547386E+02  0.47787267505E+02  0.19999983861E+02 0.  0.
         12    1    1    2    0    0 -0.22982816457E+02 -0.28100316064E+01 -0.36708547386E+02  0.43400732495E+02  0.00000000000E+00 0. -1.
         11    1    3    3    0    0  0.12722063502E+01 -0.14489770368E+01  0.15365452254E+01  0.24655658461E+01  0.51100000000E-03 0. -1.
        -11    1    3    3    0    0  0.14619601494E+02  0.17216461679E+01  0.34795187099E+02  0.37780972180E+02  0.51100000000E-03 0.  1.
         12    1    3    3    0    0  0.70910086124E+01  0.25373624753E+01  0.37681506199E+00  0.75407294782E+01  0.00000000000E+00 0. -1.
</event>
<event>
 7    1  0.2486105E-010  0.4778730E+02  0.7816164E-02  0.1312668E+00
        -11   -1    0    0    0    0  0.00000000000E+00  0.00000000000E+00  0.45593999997E+02  0.45594000000E+02  0.51100000000E-03 0. -1.
         11   -1    0    0    0    0 -0.00000000000E+00 -0.00000000000E+00 -0.45593999997E+02  0.45594000000E+02  0.51100000000E-03 0.  1.
    9900012    2    1    2    0    0 -0.38691617249E+02  0.14301746826E+02  0.13492201365E+02  0.47787300636E+02  0.20000134918E+02 0.  0.
         12    1    1    2    0    0  0.38691617249E+02 -0.14301746826E+02 -0.13492201365E+02  0.43400699364E+02  0.00000000000E+00 0. -1.
         11    1    3    3    0    0 -0.28718297668E+02  0.89514854936E+01  0.95594467000E+01  0.31563471529E+02  0.51100000000E-03 0. -1.
        -11    1    3    3    0    0 -0.10769279012E+02  0.76665972230E+01  0.38678814994E+01  0.13773691987E+02  0.51100000000E-03 0.  1.
         12    1    3    3    0    0  0.79595943026E+00 -0.23163358910E+01  0.64873165577E-01  0.24501371191E+01  0.00000000000E+00 0. -1.
</event>
<event>
 7    1  0.2486105E-010  0.4778727E+02  0.7816164E-02  0.1312668E+00
        -11   -1    0    0    0    0  0.00000000000E+00  0.00000000000E+00  0.45593999997E+02  0.45594000000E+02  0.51100000000E-03 0. -1.
         11   -1    0    0    0    0 -0.00000000000E+00 -0.00000000000E+00 -0.45593999997E+02  0.45594000000E+02  0.51100000000E-03 0.  1.
    9900012    2    1    2    0    0  0.19657184318E+00  0.42302126829E+02 -0.97012709814E+01  0.47787271511E+02  0.20000002127E+02 0.  0.
         12    1    1    2    0    0 -0.19657184318E+00 -0.42302126829E+02  0.97012709814E+01  0.43400728489E+02  0.00000000000E+00 0. -1.
         11    1    3    3    0    0  0.22541304546E+01 -0.12571721264E+01  0.23331760876E+00  0.25915291296E+01  0.51100000000E-03 0. -1.
        -11    1    3    3    0    0 -0.11815726372E+01  0.65908547578E+01 -0.38375335407E+01  0.77176514739E+01  0.51100000000E-03 0.  1.
        -12    1    3    3    0    0 -0.87598597423E+00  0.36968444197E+02 -0.60970550494E+01  0.37478090908E+02  0.00000000000E+00 0.  1.
</event>
<event>
 7    1  0.2486105E-010  0.4778727E+02  0.7816164E-02  0.1312668E+00
        -11   -1    0    0    0    0  0.00000000000E+00  0.00000000000E+00  0.45593999997E+02  0.45594000000E+02  0.51100000000E-03 0. -1.
         11   -1    0    0    0    0 -0.00000000000E+00 -0.00000000000E+00 -0.45593999997E+02  0.45594000000E+02  0.51100000000E-03 0.  1.
    9900012    2    1    2    0    0  0.12882412094E+02 -0.18331913226E+02 -0.37169985291E+02  0.47787269701E+02  0.19999993877E+02 0.  0.
         12    1    1    2    0    0 -0.12882412094E+02  0.18331913226E+02  0.37169985291E+02  0.43400730299E+02  0.00000000000E+00 0. -1.
         11    1    3    3    0    0  0.45790713489E+01  0.62105656172E+00 -0.59896765406E+01  0.75650400524E+01  0.51100000000E-03 0.  1.
        -11    1    3    3    0    0  0.35891178284E+01 -0.53223564119E+01 -0.64460065426E+00  0.64517249496E+01  0.51100000000E-03 0. -1.
        -12    1    3    3    0    0  0.47142229171E+01 -0.13630613376E+02 -0.30535708096E+02  0.33770504699E+02  0.00000000000E+00 0.  1.
</event>
<event>
 7    1  0.2486105E-010  0.4778727E+02  0.7816164E-02  0.1312668E+00
        -11   -1    0    0    0    0  0.00000000000E+00  0.00000000000E+00  0.45593999997E+02  0.45594000000E+02  0.51100000000E-03 0. -1.
         11   -1    0    0    0    0 -0.00000000000E+00 -0.00000000000E+00 -0.45593999997E+02  0.45594000000E+02  0.51100000000E-03 0.  1.
    9900012    2    1    2    0    0 -0.77616339480E+01 -0.40091343530E+02 -0.14699128425E+02  0.47787272309E+02  0.20000005767E+02 0.  0.
         12    1    1    2    0    0  0.77616339480E+01  0.40091343530E+02  0.14699128425E+02  0.43400727691E+02  0.00000000000E+00 0. -1.
         11    1    3    3    0    0 -0.70804085663E+01 -0.15213361103E+02 -0.84206221640E+01  0.18774595053E+02  0.51100000000E-03 0. -1.
        -11    1    3    3    0    0 -0.20301324937E+01 -0.20735509772E+02 -0.10158097419E+02  0.23179079940E+02  0.51100000000E-03 0.  1.
         12    1    3    3    0    0  0.13489071119E+01 -0.41424726552E+01  0.38795911574E+01  0.58335973159E+01  0.00000000000E+00 0. -1.
</event>
<event>
 7    1  0.2486105E-010  0.4778727E+02  0.7816164E-02  0.1312668E+00
        -11   -1    0    0    0    0  0.00000000000E+00  0.00000000000E+00  0.45593999997E+02  0.45594000000E+02  0.51100000000E-03 0. -1.
         11   -1    0    0    0    0 -0.00000000000E+00 -0.00000000000E+00 -0.45593999997E+02  0.45594000000E+02  0.51100000000E-03 0.  1.
    9900012    2    1    2    0    0  0.89366192032E+01  0.42224636123E+02 -0.45650991897E+01  0.47787272021E+02  0.20000004451E+02 0.  0.
         12    1    1    2    0    0 -0.89366192032E+01 -0.42224636123E+02  0.45650991897E+01  0.43400727979E+02  0.00000000000E+00 0. -1.
         11    1    3    3    0    0 -0.35569307062E+01  0.21034131621E+02  0.27998045547E+01  0.21515700195E+02  0.51100000000E-03 0. -1.
        -11    1    3    3    0    0  0.42415001624E+01  0.11285466681E+02 -0.16463387723E+01  0.12168094076E+02  0.51100000000E-03 0.  1.
         12    1    3    3    0    0  0.82520497470E+01  0.99050378213E+01 -0.57185649721E+01  0.14103477749E+02  0.00000000000E+00 0. -1.
</event>
<event>
 7    1  0.2486105E-010  0.4778727E+02  0.7816164E-02  0.1312668E+00
        -11   -1    0    0    0    0  0.00000000000E+00  0.00000000000E+00  0.45593999997E+02  0.45594000000E+02  0.51100000000E-03 0.  1.
         11   -1    0    0    0    0 -0.00000000000E+00 -0.00000000000E+00 -0.45593999997E+02  0.45594000000E+02  0.51100000000E-03 0. -1.
    9900012    2    1    2    0    0  0.40887565764E+02 -0.13035085523E+02  0.64743268173E+01  0.47787269633E+02  0.19999993563E+02 0.  0.
         12    1    1    2    0    0 -0.40887565764E+02  0.13035085523E+02 -0.64743268173E+01  0.43400730367E+02  0.00000000000E+00 0. -1.
         11    1    3    3    0    0  0.21928806125E+02 -0.85511868642E+01  0.80000477469E+01  0.24859527330E+02  0.51100000000E-03 0.  1.
        -11    1    3    3    0    0  0.29426863257E+00  0.35984031817E+00  0.30699115773E+01  0.31049052217E+01  0.51100000000E-03 0. -1.
         12    1    3    3    0    0  0.18664491007E+02 -0.48437389769E+01 -0.45956325069E+01  0.19822837081E+02  0.00000000000E+00 0. -1.
</event>
<event>
 7    1  0.2486105E-010  0.4778727E+02  0.7816164E-02  0.1312668E+00
        -11   -1    0    0    0    0  0.00000000000E+00  0.00000000000E+00  0.45593999997E+02  0.45594000000E+02  0.51100000000E-03 0. -1.
         11   -1    0    0    0    0 -0.00000000000E+00 -0.00000000000E+00 -0.45593999997E+02  0.45594000000E+02  0.51100000000E-03 0.  1.
    9900012    2    1    2    0    0  0.13561358957E+02 -0.37036355637E+02 -0.18111347194E+02  0.47787274283E+02  0.20000014765E+02 0.  0.
         12    1    1    2    0    0 -0.13561358957E+02  0.37036355637E+02  0.18111347194E+02  0.43400725717E+02  0.00000000000E+00 0. -1.
         11    1    3    3    0    0  0.23739716881E+01 -0.12374871210E+02 -0.36756046728E+01  0.13125671374E+02  0.51100000000E-03 0. -1.
        -11    1    3    3    0    0 -0.23115066114E+01 -0.10495671652E+02 -0.98177893178E+01  0.14556482185E+02  0.51100000000E-03 0.  1.
         12    1    3    3    0    0  0.13498893880E+02 -0.14165812774E+02 -0.46179532036E+01  0.20105120724E+02  0.00000000000E+00 0. -1.
</event>
<event>
 7    1  0.2486105E-010  0.4778727E+02  0.7816164E-02  0.1312668E+00
        -11   -1    0    0    0    0  0.00000000000E+00  0.00000000000E+00  0.45593999997E+02  0.45594000000E+02  0.51100000000E-03 0.  1.
         11   -1    0    0    0    0 -0.00000000000E+00 -0.00000000000E+00 -0.45593999997E+02  0.45594000000E+02  0.51100000000E-03 0. -1.
    9900012    2    1    2    0    0  0.99704625492E+01  0.42135337402E+02 -0.29708937070E+01  0.47787274305E+02  0.20000014865E+02 0.  0.
         12    1    1    2    0    0 -0.99704625492E+01 -0.42135337402E+02  0.29708937070E+01  0.43400725695E+02  0.00000000000E+00 0. -1.
         11    1    3    3    0    0  0.32569554357E+01  0.94686162776E+01 -0.44011938976E+01  0.10937685354E+02  0.51100000000E-03 0. -1.
        -11    1    3    3    0    0 -0.50340539793E+01  0.93109982542E+01  0.16021203681E+01  0.10705287380E+02  0.51100000000E-03 0.  1.
        -12    1    3    3    0    0  0.11747561093E+02  0.23355722871E+02 -0.17182017747E+00  0.26144301570E+02  0.00000000000E+00 0.  1.
</event>
<event>
 7    1  0.3002638E-010  0.4778727E+02  0.7816164E-02  0.1312668E+00
        -11   -1    0    0    0    0  0.00000000000E+00  0.00000000000E+00  0.45593999997E+02  0.45594000000E+02  0.51100000000E-03 0. -1.
         11   -1    0    0    0    0 -0.00000000000E+00 -0.00000000000E+00 -0.45593999997E+02  0.45594000000E+02  0.51100000000E-03 0.  1.
    9900012    2    1    2    0    0  0.13385514959E+02 -0.33317393522E+02 -0.24380378025E+02  0.47787267812E+02  0.19999985261E+02 0.  0.
         12    1    1    2    0    0 -0.13385514959E+02  0.33317393522E+02  0.24380378025E+02  0.43400732188E+02  0.00000000000E+00 0. -1.
         11    1    3    3    0    0 -0.27868647498E+01 -0.26568839369E+01 -0.50916379546E+01  0.63836059331E+01  0.51100000000E-03 0. -1.
        -11    1    3    3    0    0  0.54657230780E+01 -0.16836254963E+02 -0.15464202656E+02  0.23504790447E+02  0.51100000000E-03 0.  1.
        -12    1    3    3    0    0  0.10706656631E+02 -0.13824254623E+02 -0.38245374147E+01  0.17898871432E+02  0.00000000000E+00 0.  1.
</event>
<event>
 7    1  0.2486105E-010  0.4778727E+02  0.7816164E-02  0.1312668E+00
        -11   -1    0    0    0    0  0.00000000000E+00  0.00000000000E+00  0.45593999997E+02  0.45594000000E+02  0.51100000000E-03 0.  1.
         11   -1    0    0    0    0 -0.00000000000E+00 -0.00000000000E+00 -0.45593999997E+02  0.45594000000E+02  0.51100000000E-03 0. -1.
    9900012    2    1    2    0    0 -0.27607279475E+02  0.20374647893E+02  0.26576964071E+02  0.47787272172E+02  0.20000005143E+02 0.  0.
         12    1    1    2    0    0  0.27607279475E+02 -0.20374647893E+02 -0.26576964071E+02  0.43400727828E+02  0.00000000000E+00 0. -1.
         11    1    3    3    0    0 -0.14755697370E+01  0.31995330504E+01  0.12891458270E+02  0.13364281289E+02  0.51100000000E-03 0. -1.
        -11    1    3    3    0    0 -0.69866731407E+01  0.58084827107E+01  0.59121171993E+01  0.10839981689E+02  0.51100000000E-03 0.  1.
        -12    1    3    3    0    0 -0.19145036597E+02  0.11366632132E+02  0.77733886016E+01  0.23583009194E+02  0.00000000000E+00 0.  1.
</event>
<event>
 7    1  0.2486105E-010  0.4778727E+02  0.7816164E-02  0.1312668E+00
        -11   -1    0    0    0    0  0.00000000000E+00  0.00000000000E+00  0.45593999997E+02  0.45594000000E+02  0.51100000000E-03 0. -1.
         11   -1    0    0    0    0 -0.00000000000E+00 -0.00000000000E+00 -0.45593999997E+02  0.45594000000E+02  0.51100000000E-03 0.  1.
    9900012    2    1    2    0    0  0.43034036136E+02  0.11098052573E+01  0.55193803288E+01  0.47787268519E+02  0.19999988485E+02 0.  0.
         12    1    1    2    0    0 -0.43034036136E+02 -0.11098052573E+01 -0.55193803288E+01  0.43400731481E+02  0.00000000000E+00 0. -1.
         11    1    3    3    0    0  0.56609458439E+01  0.24016089513E+01  0.65718747874E+01  0.90001984359E+01  0.51100000000E-03 0. -1.
        -11    1    3    3    0    0  0.16323659837E+02 -0.46461298101E+01  0.25730003548E+01  0.17165917504E+02  0.51100000000E-03 0.  1.
         12    1    3    3    0    0  0.21049430455E+02  0.33543261161E+01 -0.36254948134E+01  0.21621152579E+02  0.00000000000E+00 0. -1.
</event>
<event>
 7    1  0.2486105E-010  0.4778727E+02  0.7816164E-02  0.1312668E+00
        -11   -1    0    0    0    0  0.00000000000E+00  0.00000000000E+00  0.45593999997E+02  0.45594000000E+02  0.51100000000E-03 0.  1.
         11   -1    0    0    0    0 -0.00000000000E+00 -0.00000000000E+00 -0.45593999997E+02  0.45594000000E+02  0.51100000000E-03 0. -1.
    9900012    2    1    2    0    0  0.31279777230E+02 -0.36555770090E+01  0.29863618737E+02  0.47787269236E+02  0.19999991753E+02 0.  0.
         12    1    1    2    0    0 -0.31279777230E+02  0.36555770090E+01 -0.29863618737E+02  0.43400730764E+02  0.00000000000E+00 0. -1.
         11    1    3    3    0    0  0.41753992765E+01  0.32868460937E+01  0.88047934462E+00  0.53863308940E+01  0.51100000000E-03 0. -1.
        -11    1    3    3    0    0  0.61061328127E+00  0.90244462033E+00  0.70211101953E+01  0.71051561213E+01  0.51100000000E-03 0.  1.
        -12    1    3    3    0    0  0.26493764672E+02 -0.78448677230E+01  0.21962029197E+02  0.35295782220E+02  0.00000000000E+00 0.  1.
</event>
<event>
 7    1  0.2486105E-010  0.4778727E+02  0.7816164E-02  0.1312668E+00
        -11   -1    0    0    0    0  0.00000000000E+00  0.00000000000E+00  0.45593999997E+02  0.45594000000E+02  0.51100000000E-03 0.  1.
         11   -1    0    0    0    0 -0.00000000000E+00 -0.00000000000E+00 -0.45593999997E+02  0.45594000000E+02  0.51100000000E-03 0. -1.
    9900012    2    1    2    0    0  0.35716308429E+01 -0.28091813345E+02  0.32889463642E+02  0.47787270253E+02  0.19999996392E+02 0.  0.
         12    1    1    2    0    0 -0.35716308429E+01  0.28091813345E+02 -0.32889463642E+02  0.43400729747E+02  0.00000000000E+00 0. -1.
         11    1    3    3    0    0  0.37639695315E+01 -0.11870770710E+02  0.10355638062E+02  0.16196354646E+02  0.51100000000E-03 0. -1.
        -11    1    3    3    0    0  0.42628382027E+01 -0.22097335540E+01  0.13515005449E+02  0.14342596853E+02  0.51100000000E-03 0.  1.
         12    1    3    3    0    0 -0.44551768914E+01 -0.14011309081E+02  0.90188201308E+01  0.17248318755E+02  0.00000000000E+00 0. -1.
</event>
<event>
 7    1  0.2486105E-010  0.4778727E+02  0.7816164E-02  0.1312668E+00
        -11   -1    0    0    0    0  0.00000000000E+00  0.00000000000E+00  0.45593999997E+02  0.45594000000E+02  0.51100000000E-03 0.  1.
         11   -1    0    0    0    0 -0.00000000000E+00 -0.00000000000E+00 -0.45593999997E+02  0.45594000000E+02  0.51100000000E-03 0. -1.
    9900012    2    1    2    0    0  0.15754811540E+01  0.42410094436E+02  0.90843216710E+01  0.47787272458E+02  0.20000006447E+02 0.  0.
         12    1    1    2    0    0 -0.15754811540E+01 -0.42410094436E+02 -0.90843216710E+01  0.43400727542E+02  0.00000000000E+00 0. -1.
         11    1    3    3    0    0  0.65457056677E+00  0.25341315240E+01 -0.45089065853E+01  0.52134944196E+01  0.51100000000E-03 0. -1.
        -11    1    3    3    0    0 -0.95376540441E-01 -0.26776634763E-02 -0.31345696400E+00  0.32765741827E+00  0.51100000000E-03 0.  1.
        -12    1    3    3    0    0  0.10162871276E+01  0.39878640575E+02  0.13906685220E+02  0.42246120620E+02  0.00000000000E+00 0.  1.
</event>
<event>
 7    1  0.2486105E-010  0.4778727E+02  0.7816164E-02  0.1312668E+00
        -11   -1    0    0    0    0  0.00000000000E+00  0.00000000000E+00  0.45593999997E+02  0.45594000000E+02  0.51100000000E-03 0. -1.
         11   -1    0    0    0    0 -0.00000000000E+00 -0.00000000000E+00 -0.45593999997E+02  0.45594000000E+02  0.51100000000E-03 0.  1.
    9900012    2    1    2    0    0 -0.86826048468E+01  0.41811534555E+02 -0.77479666244E+01  0.47787273789E+02  0.20000012515E+02 0.  0.
         12    1    1    2    0    0  0.86826048468E+01 -0.41811534555E+02  0.77479666244E+01  0.43400726211E+02  0.00000000000E+00 0. -1.
         11    1    3    3    0    0 -0.80967500194E+01  0.67921595529E+01  0.21587331628E+01  0.10786608429E+02  0.51100000000E-03 0. -1.
        -11    1    3    3    0    0  0.24320045716E+00  0.42820380351E+01  0.94798226829E+00  0.43924556730E+01  0.51100000000E-03 0.  1.
        -12    1    3    3    0    0 -0.82905528456E+00  0.30737336967E+02 -0.10854682055E+02  0.32608209688E+02  0.00000000000E+00 0.  1.
</event>
<event>
 7    1  0.2486105E-010  0.4778727E+02  0.7816164E-02  0.1312668E+00
        -11   -1    0    0    0    0  0.00000000000E+00  0.00000000000E+00  0.45593999997E+02  0.45594000000E+02  0.51100000000E-03 0.  1.
         11   -1    0    0    0    0 -0.00000000000E+00 -0.00000000000E+00 -0.45593999997E+02  0.45594000000E+02  0.51100000000E-03 0. -1.
    9900012    2    1    2    0    0  0.22364237850E+02  0.19303314334E+02  0.31793813130E+02  0.47787266916E+02  0.19999981176E+02 0.  0.
         12    1    1    2    0    0 -0.22364237850E+02 -0.19303314334E+02 -0.31793813130E+02  0.43400733084E+02  0.00000000000E+00 0. -1.
         11    1    3    3    0    0  0.85014271190E+01  0.70799811193E+01  0.80387464309E+00  0.11092637667E+02  0.51100000000E-03 0. -1.
        -11    1    3    3    0    0  0.69019958761E+01  0.70485567888E+01  0.10310026897E+02  0.14269420267E+02  0.51100000000E-03 0.  1.
         12    1    3    3    0    0  0.69608148550E+01  0.51747764260E+01  0.20679911590E+02  0.22425208982E+02  0.00000000000E+00 0. -1.
</event>
<event>
 7    1  0.2486105E-010  0.4778728E+02  0.7816164E-02  0.1312668E+00
        -11   -1    0    0    0    0  0.00000000000E+00  0.00000000000E+00  0.45593999997E+02  0.45594000000E+02  0.51100000000E-03 0. -1.
         11   -1    0    0    0    0 -0.00000000000E+00 -0.00000000000E+00 -0.45593999997E+02  0.45594000000E+02  0.51100000000E-03 0.  1.
    9900012    2    1    2    0    0 -0.60112103816E+01 -0.26280474609E+02 -0.34012127512E+02  0.47787276344E+02  0.20000024164E+02 0.  0.
         12    1    1    2    0    0  0.60112103816E+01  0.26280474609E+02  0.34012127512E+02  0.43400723656E+02  0.00000000000E+00 0. -1.
         11    1    3    3    0    0 -0.30211054312E-02 -0.12586774050E+01 -0.32040792096E+00  0.12988223257E+01  0.51100000000E-03 0. -1.
        -11    1    3    3    0    0 -0.12430292609E+02 -0.14935590109E+02 -0.25204449689E+02  0.31825277856E+02  0.51100000000E-03 0.  1.
         12    1    3    3    0    0  0.64221033326E+01 -0.10086207095E+02 -0.84872699024E+01  0.14663176162E+02  0.00000000000E+00 0. -1.
</event>
<event>
 7    1  0.2486105E-010  0.4778726E+02  0.7816164E-02  0.1312668E+00
        -11   -1    0    0    0    0  0.00000000000E+00  0.00000000000E+00  0.45593999997E+02  0.45594000000E+02  0.51100000000E-03 0.  1.
         11   -1    0    0    0    0 -0.00000000000E+00 -0.00000000000E+00 -0.45593999997E+02  0.45594000000E+02  0.51100000000E-03 0. -1.
    9900012    2    1    2    0    0  0.90373406641E+01 -0.34380934663E+02  0.24897833479E+02  0.47787259148E+02  0.19999945757E+02 0.  0.
         12    1    1    2    0    0 -0.90373406641E+01  0.34380934663E+02 -0.24897833479E+02  0.43400740852E+02  0.00000000000E+00 0. -1.
         11    1    3    3    0    0 -0.20117333966E+01 -0.15650727244E+02  0.10448494149E+02  0.18925204484E+02  0.51100000000E-03 0. -1.
        -11    1    3    3    0    0  0.48002109544E+01 -0.17784384606E+02  0.12449242787E+02  0.22233083620E+02  0.51100000000E-03 0.  1.
         12    1    3    3    0    0  0.62488631063E+01 -0.94582281347E+00  0.20000965425E+01  0.66289710435E+01  0.00000000000E+00 0. -1.
</event>
<event>
 7    1  0.2486105E-010  0.4778727E+02  0.7816164E-02  0.1312668E+00
        -11   -1    0    0    0    0  0.00000000000E+00  0.00000000000E+00  0.45593999997E+02  0.45594000000E+02  0.51100000000E-03 0.  1.
         11   -1    0    0    0    0 -0.00000000000E+00 -0.00000000000E+00 -0.45593999997E+02  0.45594000000E+02  0.51100000000E-03 0. -1.
    9900012    2    1    2    0    0  0.32056572712E+02 -0.25839177534E+02  0.13723577225E+02  0.47787268191E+02  0.19999986992E+02 0.  0.
         12    1    1    2    0    0 -0.32056572712E+02  0.25839177534E+02 -0.13723577225E+02  0.43400731809E+02  0.00000000000E+00 0. -1.
         11    1    3    3    0    0  0.11406425555E+02 -0.21850404923E+01  0.49683959424E+01  0.12631939851E+02  0.51100000000E-03 0. -1.
        -11    1    3    3    0    0  0.27353778457E+01  0.14031807878E+01 -0.18967140711E+00  0.30801272353E+01  0.51100000000E-03 0.  1.
        -12    1    3    3    0    0  0.17914769310E+02 -0.25057317830E+02  0.89448526901E+01  0.32075201105E+02  0.00000000000E+00 0.  1.
</event>
<event>
 7    1  0.2486105E-010  0.4778732E+02  0.7816164E-02  0.1312668E+00
        -11   -1    0    0    0    0  0.00000000000E+00  0.00000000000E+00  0.45593999997E+02  0.45594000000E+02  0.51100000000E-03 0.  1.
         11   -1    0    0    0    0 -0.00000000000E+00 -0.00000000000E+00 -0.45593999997E+02  0.45594000000E+02  0.51100000000E-03 0. -1.
    9900012    2    1    2    0    0  0.71462535983E+01 -0.40349517148E+02 -0.14299184551E+02  0.47787318515E+02  0.20000216437E+02 0.  0.
         12    1    1    2    0    0 -0.71462535983E+01  0.40349517148E+02  0.14299184551E+02  0.43400681485E+02  0.00000000000E+00 0. -1.
         11    1    3    3    0    0  0.34376172649E+01 -0.12823113576E+02 -0.34904160934E+00  0.13280485102E+02  0.51100000000E-03 0. -1.
        -11    1    3    3    0    0  0.91542437809E+01 -0.21236749392E+02 -0.89298590036E+01  0.24789959379E+02  0.51100000000E-03 0.  1.
         12    1    3    3    0    0 -0.54456074476E+01 -0.62896541798E+01 -0.50202839377E+01  0.97168740338E+01  0.00000000000E+00 0. -1.
</event>
<event>
 7    1  0.2486105E-010  0.4778727E+02  0.7816164E-02  0.1312668E+00
        -11   -1    0    0    0    0  0.00000000000E+00  0.00000000000E+00  0.45593999997E+02  0.45594000000E+02  0.51100000000E-03 0.  1.
         11   -1    0    0    0    0 -0.00000000000E+00 -0.00000000000E+00 -0.45593999997E+02  0.45594000000E+02  0.51100000000E-03 0. -1.
    9900012    2    1    2    0    0  0.40520353015E+02  0.93420369479E+00  0.15519401558E+02  0.47787267636E+02  0.19999984460E+02 0.  0.
         12    1    1    2    0    0 -0.40520353015E+02 -0.93420369479E+00 -0.15519401558E+02  0.43400732364E+02  0.00000000000E+00 0. -1.
         11    1    3    3    0    0  0.72721775426E+01  0.81555261282E+00  0.90124621162E+01  0.11609227620E+02  0.51100000000E-03 0. -1.
        -11    1    3    3    0    0  0.11028733065E+01  0.27485112450E+01  0.20890013083E+01  0.36241647757E+01  0.51100000000E-03 0.  1.
        -12    1    3    3    0    0  0.32145302166E+02 -0.26298601630E+01  0.44179381336E+01  0.32553875240E+02  0.00000000000E+00 0.  1.
</event>
<event>
 7    1  0.2486105E-010  0.4778727E+02  0.7816164E-02  0.1312668E+00
        -11   -1    0    0    0    0  0.00000000000E+00  0.00000000000E+00  0.45593999997E+02  0.45594000000E+02  0.51100000000E-03 0.  1.
         11   -1    0    0    0    0 -0.00000000000E+00 -0.00000000000E+00 -0.45593999997E+02  0.45594000000E+02  0.51100000000E-03 0. -1.
    9900012    2    1    2    0    0  0.18053403977E+02  0.36976646336E+02  0.13799469075E+02  0.47787272861E+02  0.20000008284E+02 0.  0.
         12    1    1    2    0    0 -0.18053403977E+02 -0.36976646336E+02 -0.13799469075E+02  0.43400727139E+02  0.00000000000E+00 0. -1.
         11    1    3    3    0    0  0.14510479086E+01 -0.43836759879E+00  0.14968705572E+01  0.21303351639E+01  0.51100000000E-03 0. -1.
        -11    1    3    3    0    0  0.82692903865E+01  0.12989254729E+02 -0.29506754368E+01  0.15678277574E+02  0.51100000000E-03 0.  1.
         12    1    3    3    0    0  0.83330656823E+01  0.24425759206E+02  0.15253273955E+02  0.29978660123E+02  0.00000000000E+00 0. -1.
</event>
<event>
 7    1  0.2486105E-010  0.4778727E+02  0.7816164E-02  0.1312668E+00
        -11   -1    0    0    0    0  0.00000000000E+00  0.00000000000E+00  0.45593999997E+02  0.45594000000E+02  0.51100000000E-03 0. -1.
         11   -1    0    0    0    0 -0.00000000000E+00 -0.00000000000E+00 -0.45593999997E+02  0.45594000000E+02  0.51100000000E-03 0.  1.
    9900012    2    1    2    0    0 -0.23172499090E+02 -0.29840522179E+02  0.21358884723E+02  0.47787269193E+02  0.19999991558E+02 0.  0.
         12    1    1    2    0    0  0.23172499090E+02  0.29840522179E+02 -0.21358884723E+02  0.43400730807E+02  0.00000000000E+00 0. -1.
         11    1    3    3    0    0 -0.10951340993E+02 -0.91453480819E+01 -0.12100226709E+01  0.14318987960E+02  0.51100000000E-03 0. -1.
        -11    1    3    3    0    0 -0.29827167676E+01 -0.45697154359E+01  0.87382242749E+01  0.10302206668E+02  0.51100000000E-03 0.  1.
        -12    1    3    3    0    0 -0.92384413298E+01 -0.16125458661E+02  0.13830683119E+02  0.23166074565E+02  0.00000000000E+00 0.  1.
</event>
<event>
 7    1  0.2486105E-010  0.4778727E+02  0.7816164E-02  0.1312668E+00
        -11   -1    0    0    0    0  0.00000000000E+00  0.00000000000E+00  0.45593999997E+02  0.45594000000E+02  0.51100000000E-03 0. -1.
         11   -1    0    0    0    0 -0.00000000000E+00 -0.00000000000E+00 -0.45593999997E+02  0.45594000000E+02  0.51100000000E-03 0.  1.
    9900012    2    1    2    0    0  0.19155976441E+02  0.38322217906E+02  0.69339293236E+01  0.47787271958E+02  0.20000004167E+02 0.  0.
         12    1    1    2    0    0 -0.19155976441E+02 -0.38322217906E+02 -0.69339293236E+01  0.43400728042E+02  0.00000000000E+00 0. -1.
         11    1    3    3    0    0  0.59891554792E+01  0.24284130749E+02  0.10463573863E+02  0.27112273380E+02  0.51100000000E-03 0. -1.
        -11    1    3    3    0    0  0.40734816697E+01  0.91805702578E+01 -0.21803571340E+01  0.10277649569E+02  0.51100000000E-03 0.  1.
         12    1    3    3    0    0  0.90933392924E+01  0.48575168992E+01 -0.13492874052E+01  0.10397349009E+02  0.00000000000E+00 0. -1.
</event>
<event>
 7    1  0.2486105E-010  0.4778727E+02  0.7816164E-02  0.1312668E+00
        -11   -1    0    0    0    0  0.00000000000E+00  0.00000000000E+00  0.45593999997E+02  0.45594000000E+02  0.51100000000E-03 0.  1.
         11   -1    0    0    0    0 -0.00000000000E+00 -0.00000000000E+00 -0.45593999997E+02  0.45594000000E+02  0.51100000000E-03 0. -1.
    9900012    2    1    2    0    0  0.20511528025E+02 -0.31004101081E+02  0.22397464461E+02  0.47787268669E+02  0.19999989172E+02 0.  0.
         12    1    1    2    0    0 -0.20511528025E+02  0.31004101081E+02 -0.22397464461E+02  0.43400731331E+02  0.00000000000E+00 0. -1.
         11    1    3    3    0    0  0.16856881729E+01  0.30819952843E+00  0.54305766839E+01  0.56945320217E+01  0.51100000000E-03 0.  1.
        -11    1    3    3    0    0  0.12171775274E+01 -0.10950638705E+02  0.83601927923E+01  0.13830792926E+02  0.51100000000E-03 0. -1.
         12    1    3    3    0    0  0.17608662324E+02 -0.20361661904E+02  0.86066949847E+01  0.28261943721E+02  0.00000000000E+00 0. -1.
</event>
<event>
 7    1  0.2486105E-010  0.4778727E+02  0.7816164E-02  0.1312668E+00
        -11   -1    0    0    0    0  0.00000000000E+00  0.00000000000E+00  0.45593999997E+02  0.45594000000E+02  0.51100000000E-03 0.  1.
         11   -1    0    0    0    0 -0.00000000000E+00 -0.00000000000E+00 -0.45593999997E+02  0.45594000000E+02  0.51100000000E-03 0. -1.
    9900012    2    1    2    0    0 -0.89290308218E+01 -0.18889140973E+02  0.38040715873E+02  0.47787270718E+02  0.19999998512E+02 0.  0.
         12    1    1    2    0    0  0.89290308218E+01  0.18889140973E+02 -0.38040715873E+02  0.43400729282E+02  0.00000000000E+00 0. -1.
         11    1    3    3    0    0 -0.63569862199E+01 -0.92424583545E+01  0.54313666748E+01  0.12463308327E+02  0.51100000000E-03 0. -1.
        -11    1    3    3    0    0  0.18415988485E+01 -0.60672146410E+01  0.88028870241E+01  0.10848658905E+02  0.51100000000E-03 0.  1.
         12    1    3    3    0    0 -0.44136434504E+01 -0.35794679771E+01  0.23806462174E+02  0.24475303486E+02  0.00000000000E+00 0. -1.
</event>
<event>
 7    1  0.2486105E-010  0.4778727E+02  0.7816164E-02  0.1312668E+00
        -11   -1    0    0    0    0  0.00000000000E+00  0.00000000000E+00  0.45593999997E+02  0.45594000000E+02  0.51100000000E-03 0.  1.
         11   -1    0    0    0    0 -0.00000000000E+00 -0.00000000000E+00 -0.45593999997E+02  0.45594000000E+02  0.51100000000E-03 0. -1.
    9900012    2    1    2    0    0 -0.20741739519E+02  0.16244727787E+02  0.34489306141E+02  0.47787272158E+02  0.20000005077E+02 0.  0.
         12    1    1    2    0    0  0.20741739519E+02 -0.16244727787E+02 -0.34489306141E+02  0.43400727842E+02  0.00000000000E+00 0. -1.
         11    1    3    3    0    0 -0.14513980164E+02  0.71614047558E+01  0.31693353001E+02  0.35586654282E+02  0.51100000000E-03 0.  1.
        -11    1    3    3    0    0 -0.13467940635E+01  0.12882958062E+01 -0.11530314779E+01  0.21915844004E+01  0.51100000000E-03 0. -1.
        -12    1    3    3    0    0 -0.48809652912E+01  0.77950272246E+01  0.39489846186E+01  0.10009033476E+02  0.00000000000E+00 0.  1.
</event>
<event>
 7    1  0.2654340E-010  0.4778727E+02  0.7816164E-02  0.1312668E+00
        -11   -1    0    0    0    0  0.00000000000E+00  0.00000000000E+00  0.45593999997E+02  0.45594000000E+02  0.51100000000E-03 0. -1.
         11   -1    0    0    0    0 -0.00000000000E+00 -0.00000000000E+00 -0.45593999997E+02  0.45594000000E+02  0.51100000000E-03 0.  1.
    9900012    2    1    2    0    0  0.12038875155E+01 -0.16993521840E+02 -0.39917337430E+02  0.47787274693E+02  0.20000016636E+02 0.  0.
         12    1    1    2    0    0 -0.12038875155E+01  0.16993521840E+02  0.39917337430E+02  0.43400725307E+02  0.00000000000E+00 0. -1.
         11    1    3    3    0    0  0.45163525412E+01 -0.94953421473E+01 -0.10886932724E+02  0.15135529960E+02  0.51100000000E-03 0. -1.
        -11    1    3    3    0    0  0.19301464516E+01 -0.65359861616E+01 -0.25154500736E+02  0.26061340870E+02  0.51100000000E-03 0.  1.
         12    1    3    3    0    0 -0.52426114772E+01 -0.96219353085E+00 -0.38759039703E+01  0.65904038631E+01  0.00000000000E+00 0. -1.
</event>
<event>
 7    1  0.2486105E-010  0.4778727E+02  0.7816164E-02  0.1312668E+00
        -11   -1    0    0    0    0  0.00000000000E+00  0.00000000000E+00  0.45593999997E+02  0.45594000000E+02  0.51100000000E-03 0.  1.
         11   -1    0    0    0    0 -0.00000000000E+00 -0.00000000000E+00 -0.45593999997E+02  0.45594000000E+02  0.51100000000E-03 0. -1.
    9900012    2    1    2    0    0  0.34520337223E+02  0.18681226992E+02  0.18519752907E+02  0.47787272222E+02  0.20000005367E+02 0.  0.
         12    1    1    2    0    0 -0.34520337223E+02 -0.18681226992E+02 -0.18519752907E+02  0.43400727778E+02  0.00000000000E+00 0. -1.
         11    1    3    3    0    0 -0.13269338774E+01  0.17501843001E+01 -0.11509871971E+00  0.21993513989E+01  0.51100000000E-03 0. -1.
        -11    1    3    3    0    0  0.20681679559E+01  0.56792818547E+00  0.53645072893E+01  0.57773523206E+01  0.51100000000E-03 0.  1.
        -12    1    3    3    0    0  0.33779103145E+02  0.16363114507E+02  0.13270344338E+02  0.39810568502E+02  0.00000000000E+00 0.  1.
</event>
<event>
 7    1  0.2486105E-010  0.4778727E+02  0.7816164E-02  0.1312668E+00
        -11   -1    0    0    0    0  0.00000000000E+00  0.00000000000E+00  0.45593999997E+02  0.45594000000E+02  0.51100000000E-03 0. -1.
         11   -1    0    0    0    0 -0.00000000000E+00 -0.00000000000E+00 -0.45593999997E+02  0.45594000000E+02  0.51100000000E-03 0.  1.
    9900012    2    1    2    0    0  0.38707849503E+02 -0.48876948402E+01  0.19011477476E+02  0.47787269017E+02  0.19999990758E+02 0.  0.
         12    1    1    2    0    0 -0.38707849503E+02  0.48876948402E+01 -0.19011477476E+02  0.43400730983E+02  0.00000000000E+00 0. -1.
         11    1    3    3    0    0  0.23702856877E+01  0.77268131454E+00  0.47850081241E+01  0.53955160703E+01  0.51100000000E-03 0. -1.
        -11    1    3    3    0    0  0.72646799577E+01  0.33620408649E+01  0.80070705092E+01  0.11322193783E+02  0.51100000000E-03 0.  1.
        -12    1    3    3    0    0  0.29072883858E+02 -0.90224170196E+01  0.62193988425E+01  0.31069559164E+02  0.00000000000E+00 0.  1.
</event>
<event>
 7    1  0.2486105E-010  0.4778727E+02  0.7816164E-02  0.1312668E+00
        -11   -1    0    0    0    0  0.00000000000E+00  0.00000000000E+00  0.45593999997E+02  0.45594000000E+02  0.51100000000E-03 0. -1.
         11   -1    0    0    0    0 -0.00000000000E+00 -0.00000000000E+00 -0.45593999997E+02  0.45594000000E+02  0.51100000000E-03 0.  1.
    9900012    2    1    2    0    0  0.43259375138E+01 -0.31605312149E+02 -0.29428113228E+02  0.47787270288E+02  0.19999996551E+02 0.  0.
         12    1    1    2    0    0 -0.43259375138E+01  0.31605312149E+02  0.29428113228E+02  0.43400729712E+02  0.00000000000E+00 0. -1.
         11    1    3    3    0    0 -0.12001909368E+01 -0.12233348686E+02 -0.22505847494E+02  0.25643877437E+02  0.51100000000E-03 0. -1.
        -11    1    3    3    0    0  0.74735926174E+00  0.17450118143E+00 -0.80437344630E+00  0.11117614091E+01  0.51100000000E-03 0.  1.
        -12    1    3    3    0    0  0.47787691889E+01 -0.19546464644E+02 -0.61178922878E+01  0.21031631441E+02  0.00000000000E+00 0.  1.
</event>
<event>
 7    1  0.2486105E-010  0.4778727E+02  0.7816164E-02  0.1312668E+00
        -11   -1    0    0    0    0  0.00000000000E+00  0.00000000000E+00  0.45593999997E+02  0.45594000000E+02  0.51100000000E-03 0.  1.
         11   -1    0    0    0    0 -0.00000000000E+00 -0.00000000000E+00 -0.45593999997E+02  0.45594000000E+02  0.51100000000E-03 0. -1.
    9900012    2    1    2    0    0 -0.36757706151E+02 -0.78511358080E+00  0.23062474591E+02  0.47787273058E+02  0.20000009179E+02 0.  0.
         12    1    1    2    0    0  0.36757706151E+02  0.78511358080E+00 -0.23062474591E+02  0.43400726942E+02  0.00000000000E+00 0. -1.
         11    1    3    3    0    0  0.13066430075E+01  0.10071577564E+01  0.10770162212E+01  0.19701895587E+01  0.51100000000E-03 0. -1.
        -11    1    3    3    0    0 -0.14271790063E+02 -0.68744612278E+01  0.94954966331E+01  0.18469073213E+02  0.51100000000E-03 0.  1.
        -12    1    3    3    0    0 -0.23792559096E+02  0.50821898906E+01  0.12489961737E+02  0.27348010286E+02  0.00000000000E+00 0.  1.
</event>
<event>
 7    1  0.2486105E-010  0.4778727E+02  0.7816164E-02  0.1312668E+00
        -11   -1    0    0    0    0  0.00000000000E+00  0.00000000000E+00  0.45593999997E+02  0.45594000000E+02  0.51100000000E-03 0.  1.
         11   -1    0    0    0    0 -0.00000000000E+00 -0.00000000000E+00 -0.45593999997E+02  0.45594000000E+02  0.51100000000E-03 0. -1.
    9900012    2    1    2    0    0 -0.32201169032E+02 -0.14227458018E+02  0.25382827032E+02  0.47787265481E+02  0.19999974635E+02 0.  0.
         12    1    1    2    0    0  0.32201169032E+02  0.14227458018E+02 -0.25382827032E+02  0.43400734519E+02  0.00000000000E+00 0. -1.
         11    1    3    3    0    0 -0.12449071058E+02 -0.31623998716E+01  0.18299590642E+02  0.22357440844E+02  0.51100000000E-03 0. -1.
        -11    1    3    3    0    0 -0.85594665824E+00 -0.40683582908E+01  0.21695117984E+01  0.46894525873E+01  0.51100000000E-03 0.  1.
         12    1    3    3    0    0 -0.18896151316E+02 -0.69966998559E+01  0.49137245909E+01  0.20740372050E+02  0.00000000000E+00 0. -1.
</event>
<event>
 7    1  0.2486105E-010  0.4778727E+02  0.7816164E-02  0.1312668E+00
        -11   -1    0    0    0    0  0.00000000000E+00  0.00000000000E+00  0.45593999997E+02  0.45594000000E+02  0.51100000000E-03 0.  1.
         11   -1    0    0    0    0 -0.00000000000E+00 -0.00000000000E+00 -0.45593999997E+02  0.45594000000E+02  0.51100000000E-03 0. -1.
    9900012    2    1    2    0    0  0.21359253860E+02  0.29839870314E+02  0.23172990894E+02  0.47787273131E+02  0.20000009513E+02 0.  0.
         12    1    1    2    0    0 -0.21359253860E+02 -0.29839870314E+02 -0.23172990894E+02  0.43400726869E+02  0.00000000000E+00 0. -1.
         11    1    3    3    0    0  0.24016764176E+01  0.66823714451E+01  0.12092202623E+01  0.72030793171E+01  0.51100000000E-03 0. -1.
        -11    1    3    3    0    0  0.12476932323E+02  0.22083096805E+02  0.22616186732E+02  0.33982773684E+02  0.51100000000E-03 0.  1.
        -12    1    3    3    0    0  0.64806451192E+01  0.10744020637E+01 -0.65241610103E+00  0.66014201294E+01  0.00000000000E+00 0.  1.
</event>
<event>
 7    1  0.2486105E-010  0.4778727E+02  0.7816164E-02  0.1312668E+00
        -11   -1    0    0    0    0  0.00000000000E+00  0.00000000000E+00  0.45593999997E+02  0.45594000000E+02  0.51100000000E-03 0. -1.
         11   -1    0    0    0    0 -0.00000000000E+00 -0.00000000000E+00 -0.45593999997E+02  0.45594000000E+02  0.51100000000E-03 0.  1.
    9900012    2    1    2    0    0 -0.37521126422E+02  0.97559328609E+01 -0.19509227733E+02  0.47787272809E+02  0.20000008045E+02 0.  0.
         12    1    1    2    0    0  0.37521126422E+02 -0.97559328609E+01  0.19509227733E+02  0.43400727191E+02  0.00000000000E+00 0. -1.
         11    1    3    3    0    0 -0.25919962165E+01 -0.15849797529E+01 -0.46880262137E+01  0.55864295615E+01  0.51100000000E-03 0. -1.
        -11    1    3    3    0    0 -0.17467781536E+02  0.26002430485E+00 -0.12303893134E+02  0.21367657591E+02  0.51100000000E-03 0.  1.
        -12    1    3    3    0    0 -0.17461348670E+02  0.11080888309E+02 -0.25173083860E+01  0.20833185656E+02  0.00000000000E+00 0.  1.
</event>
<event>
 7    1  0.2486105E-010  0.4778727E+02  0.7816164E-02  0.1312668E+00
        -11   -1    0    0    0    0  0.00000000000E+00  0.00000000000E+00  0.45593999997E+02  0.45594000000E+02  0.51100000000E-03 0.  1.
         11   -1    0    0    0    0 -0.00000000000E+00 -0.00000000000E+00 -0.45593999997E+02  0.45594000000E+02  0.51100000000E-03 0. -1.
    9900012    2    1    2    0    0 -0.39334659074E+02 -0.31530965014E+01  0.18068364167E+02  0.47787271830E+02  0.20000003581E+02 0.  0.
         12    1    1    2    0    0  0.39334659074E+02  0.31530965014E+01 -0.18068364167E+02  0.43400728170E+02  0.00000000000E+00 0. -1.
         11    1    3    3    0    0 -0.21226048731E+02 -0.40419061648E+01 -0.22705927490E+00  0.21608648879E+02  0.51100000000E-03 0. -1.
        -11    1    3    3    0    0 -0.88070341972E+01 -0.50471017121E+00  0.58745684655E+01  0.10598544175E+02  0.51100000000E-03 0.  1.
        -12    1    3    3    0    0 -0.93015761454E+01  0.13935198346E+01  0.12420854977E+02  0.15580078776E+02  0.00000000000E+00 0.  1.
</event>
<event>
 7    1  0.2486105E-010  0.4778727E+02  0.7816164E-02  0.1312668E+00
        -11   -1    0    0    0    0  0.00000000000E+00  0.00000000000E+00  0.45593999997E+02  0.45594000000E+02  0.51100000000E-03 0. -1.
         11   -1    0    0    0    0 -0.00000000000E+00 -0.00000000000E+00 -0.45593999997E+02  0.45594000000E+02  0.51100000000E-03 0.  1.
    9900012    2    1    2    0    0  0.20528471423E+02 -0.17901689325E+02 -0.33789561538E+02  0.47787273179E+02  0.20000009734E+02 0.  0.
         12    1    1    2    0    0 -0.20528471423E+02  0.17901689325E+02  0.33789561538E+02  0.43400726821E+02  0.00000000000E+00 0. -1.
         11    1    3    3    0    0  0.10087691094E+01 -0.43890656455E+01 -0.40184297788E+01  0.60356681904E+01  0.51100000000E-03 0. -1.
        -11    1    3    3    0    0  0.19618863500E+02 -0.11746237341E+02 -0.31730721015E+02  0.39111539897E+02  0.51100000000E-03 0.  1.
         12    1    3    3    0    0 -0.99161186643E-01 -0.17663863386E+01  0.19595892560E+01  0.26400650921E+01  0.00000000000E+00 0. -1.
</event>
<event>
 7    1  0.2486105E-010  0.4778727E+02  0.7816164E-02  0.1312668E+00
        -11   -1    0    0    0    0  0.00000000000E+00  0.00000000000E+00  0.45593999997E+02  0.45594000000E+02  0.51100000000E-03 0. -1.
         11   -1    0    0    0    0 -0.00000000000E+00 -0.00000000000E+00 -0.45593999997E+02  0.45594000000E+02  0.51100000000E-03 0.  1.
    9900012    2    1    2    0    0 -0.35089446060E+02 -0.24896820333E+02  0.57010842515E+01  0.47787271329E+02  0.20000001298E+02 0.  0.
         12    1    1    2    0    0  0.35089446060E+02  0.24896820333E+02 -0.57010842515E+01  0.43400728671E+02  0.00000000000E+00 0. -1.
         11    1    3    3    0    0  0.12147984092E+01  0.10094027812E+00 -0.89396100846E+00  0.15116516333E+01  0.51100000000E-03 0. -1.
        -11    1    3    3    0    0 -0.74369764394E+01 -0.88401250437E+01  0.63724026364E+01  0.13193329564E+02  0.51100000000E-03 0.  1.
        -12    1    3    3    0    0 -0.28867268030E+02 -0.16157635568E+02  0.22264262354E+00  0.33082290132E+02  0.00000000000E+00 0.  1.
</event>
<event>
 7    1  0.2486105E-010  0.4778727E+02  0.7816164E-02  0.1312668E+00
        -11   -1    0    0    0    0  0.00000000000E+00  0.00000000000E+00  0.45593999997E+02  0.45594000000E+02  0.51100000000E-03 0.  1.
         11   -1    0    0    0    0 -0.00000000000E+00 -0.00000000000E+00 -0.45593999997E+02  0.45594000000E+02  0.51100000000E-03 0. -1.
    9900012    2    1    2    0    0 -0.13781101229E+02 -0.36778938220E+02  0.18466576160E+02  0.47787268638E+02  0.19999989028E+02 0.  0.
         12    1    1    2    0    0  0.13781101229E+02  0.36778938220E+02 -0.18466576160E+02  0.43400731362E+02  0.00000000000E+00 0. -1.
         11    1    3    3    0    0 -0.11450749719E+01 -0.24795831815E+01 -0.25670661725E+01  0.37482473825E+01  0.51100000000E-03 0. -1.
        -11    1    3    3    0    0 -0.88824013850E+01 -0.15847105999E+02  0.39001901916E+01  0.18580616424E+02  0.51100000000E-03 0.  1.
         12    1    3    3    0    0 -0.37536248717E+01 -0.18452249040E+02  0.17133452141E+02  0.25458404832E+02  0.00000000000E+00 0. -1.
</event>
<event>
 7    1  0.2486105E-010  0.4778727E+02  0.7816164E-02  0.1312668E+00
        -11   -1    0    0    0    0  0.00000000000E+00  0.00000000000E+00  0.45593999997E+02  0.45594000000E+02  0.51100000000E-03 0.  1.
         11   -1    0    0    0    0 -0.00000000000E+00 -0.00000000000E+00 -0.45593999997E+02  0.45594000000E+02  0.51100000000E-03 0. -1.
    9900012    2    1    2    0    0 -0.59434905993E+01  0.12276888244E+02  0.41201654619E+02  0.47787269490E+02  0.19999992912E+02 0.  0.
         12    1    1    2    0    0  0.59434905993E+01 -0.12276888244E+02 -0.41201654619E+02  0.43400730510E+02  0.00000000000E+00 0. -1.
         11    1    3    3    0    0 -0.10758059132E+00  0.30550783578E+01  0.27730040050E+02  0.27898032167E+02  0.51100000000E-03 0. -1.
        -11    1    3    3    0    0 -0.94653324365E+00 -0.17513167794E+01  0.44203174853E+01  0.48479111559E+01  0.51100000000E-03 0.  1.
        -12    1    3    3    0    0 -0.48893767643E+01  0.10973126665E+02  0.90512970839E+01  0.15041326167E+02  0.00000000000E+00 0.  1.
</event>
<event>
 7    1  0.2486105E-010  0.4778727E+02  0.7816164E-02  0.1312668E+00
        -11   -1    0    0    0    0  0.00000000000E+00  0.00000000000E+00  0.45593999997E+02  0.45594000000E+02  0.51100000000E-03 0. -1.
         11   -1    0    0    0    0 -0.00000000000E+00 -0.00000000000E+00 -0.45593999997E+02  0.45594000000E+02  0.51100000000E-03 0.  1.
    9900012    2    1    2    0    0  0.85642918873E+01 -0.22187459224E+02 -0.36304169436E+02  0.47787272347E+02  0.20000005941E+02 0.  0.
         12    1    1    2    0    0 -0.85642918873E+01  0.22187459224E+02  0.36304169436E+02  0.43400727653E+02  0.00000000000E+00 0. -1.
         11    1    3    3    0    0  0.36050975132E+01 -0.69855528720E+00 -0.39304649247E+00  0.36931278579E+01  0.51100000000E-03 0. -1.
        -11    1    3    3    0    0  0.71142384457E+01 -0.78353647210E+01 -0.92197722468E+01  0.14036008318E+02  0.51100000000E-03 0.  1.
         12    1    3    3    0    0 -0.21550440715E+01 -0.13653539216E+02 -0.26691350697E+02  0.30058136171E+02  0.00000000000E+00 0. -1.
</event>
<event>
 7    1  0.2486105E-010  0.4778728E+02  0.7816164E-02  0.1312668E+00
        -11   -1    0    0    0    0  0.00000000000E+00  0.00000000000E+00  0.45593999997E+02  0.45594000000E+02  0.51100000000E-03 0. -1.
         11   -1    0    0    0    0 -0.00000000000E+00 -0.00000000000E+00 -0.45593999997E+02  0.45594000000E+02  0.51100000000E-03 0.  1.
    9900012    2    1    2    0    0 -0.21426006166E+02 -0.14155111376E+02 -0.34988304546E+02  0.47787281419E+02  0.20000047303E+02 0.  0.
         12    1    1    2    0    0  0.21426006166E+02  0.14155111376E+02  0.34988304546E+02  0.43400718581E+02  0.00000000000E+00 0. -1.
         11    1    3    3    0    0  0.21558070263E-01  0.18677506842E+00 -0.61064213102E+01  0.61093151135E+01  0.51100000000E-03 0. -1.
        -11    1    3    3    0    0 -0.10832426876E+02 -0.15931075875E+02 -0.17385909970E+02  0.25950154456E+02  0.51100000000E-03 0.  1.
         12    1    3    3    0    0 -0.10615137361E+02  0.15891894306E+01 -0.11495973267E+02  0.15727811850E+02  0.00000000000E+00 0. -1.
</event>
<event>
 7    1  0.2486105E-010  0.4778727E+02  0.7816164E-02  0.1312668E+00
        -11   -1    0    0    0    0  0.00000000000E+00  0.00000000000E+00  0.45593999997E+02  0.45594000000E+02  0.51100000000E-03 0. -1.
         11   -1    0    0    0    0 -0.00000000000E+00 -0.00000000000E+00 -0.45593999997E+02  0.45594000000E+02  0.51100000000E-03 0.  1.
    9900012    2    1    2    0    0 -0.29682422852E+01  0.40134048793E+02 -0.16250270758E+02  0.47787266890E+02  0.19999981059E+02 0.  0.
         12    1    1    2    0    0  0.29682422852E+01 -0.40134048793E+02  0.16250270758E+02  0.43400733110E+02  0.00000000000E+00 0. -1.
         11    1    3    3    0    0  0.56485665628E+01  0.15595174348E+02 -0.59239932901E+01  0.17612764233E+02  0.51100000000E-03 0. -1.
        -11    1    3    3    0    0 -0.62198852715E+01  0.35928480018E+01 -0.16112230956E+01  0.73614923541E+01  0.51100000000E-03 0.  1.
        -12    1    3    3    0    0 -0.23969235766E+01  0.20946026443E+02 -0.87150543723E+01  0.22813010303E+02  0.00000000000E+00 0.  1.
</event>
<event>
 7    1  0.2486105E-010  0.4778727E+02  0.7816164E-02  0.1312668E+00
        -11   -1    0    0    0    0  0.00000000000E+00  0.00000000000E+00  0.45593999997E+02  0.45594000000E+02  0.51100000000E-03 0.  1.
         11   -1    0    0    0    0 -0.00000000000E+00 -0.00000000000E+00 -0.45593999997E+02  0.45594000000E+02  0.51100000000E-03 0. -1.
    9900012    2    1    2    0    0  0.18685694120E+01 -0.36281521403E+02  0.23744120602E+02  0.47787267171E+02  0.19999982338E+02 0.  0.
         12    1    1    2    0    0 -0.18685694120E+01  0.36281521403E+02 -0.23744120602E+02  0.43400732829E+02  0.00000000000E+00 0. -1.
         11    1    3    3    0    0  0.18478700283E+01 -0.38924273574E+01 -0.66370165005E+00  0.43596002701E+01  0.51100000000E-03 0. -1.
        -11    1    3    3    0    0 -0.15997518470E+01  0.76523271169E+00 -0.59527234008E+00  0.18705978977E+01  0.51100000000E-03 0.  1.
        -12    1    3    3    0    0  0.16204512306E+01 -0.33154326757E+02  0.25003094592E+02  0.41557069003E+02  0.00000000000E+00 0.  1.
</event>
<event>
 7    1  0.2486105E-010  0.4778727E+02  0.7816164E-02  0.1312668E+00
        -11   -1    0    0    0    0  0.00000000000E+00  0.00000000000E+00  0.45593999997E+02  0.45594000000E+02  0.51100000000E-03 0. -1.
         11   -1    0    0    0    0 -0.00000000000E+00 -0.00000000000E+00 -0.45593999997E+02  0.45594000000E+02  0.51100000000E-03 0.  1.
    9900012    2    1    2    0    0 -0.17207762558E+02 -0.24679614883E+02 -0.31279906015E+02  0.47787274161E+02  0.20000014211E+02 0.  0.
         12    1    1    2    0    0  0.17207762558E+02  0.24679614883E+02  0.31279906015E+02  0.43400725839E+02  0.00000000000E+00 0. -1.
         11    1    3    3    0    0 -0.91520001527E+00  0.97246682585E+00 -0.70930346179E+01  0.72176466488E+01  0.51100000000E-03 0. -1.
        -11    1    3    3    0    0 -0.55906430981E+01 -0.12784483516E+02 -0.17889478259E+02  0.22687700229E+02  0.51100000000E-03 0.  1.
         12    1    3    3    0    0 -0.10701919445E+02 -0.12867598193E+02 -0.62973931378E+01  0.17881927284E+02  0.00000000000E+00 0. -1.
</event>
<event>
 7    1  0.2486105E-010  0.4778726E+02  0.7816164E-02  0.1312668E+00
        -11   -1    0    0    0    0  0.00000000000E+00  0.00000000000E+00  0.45593999997E+02  0.45594000000E+02  0.51100000000E-03 0.  1.
         11   -1    0    0    0    0 -0.00000000000E+00 -0.00000000000E+00 -0.45593999997E+02  0.45594000000E+02  0.51100000000E-03 0. -1.
    9900012    2    1    2    0    0 -0.12481489522E+02  0.39134963398E+02 -0.14010399106E+02  0.47787260099E+02  0.19999950095E+02 0.  0.
         12    1    1    2    0    0  0.12481489522E+02 -0.39134963398E+02  0.14010399106E+02  0.43400739901E+02  0.00000000000E+00 0. -1.
         11    1    3    3    0    0  0.13986139810E+01  0.32665221257E+01 -0.54998480554E+01  0.65478711623E+01  0.51100000000E-03 0. -1.
        -11    1    3    3    0    0 -0.32042307631E+01  0.55152889739E+00 -0.18717432243E+01  0.37516265628E+01  0.51100000000E-03 0.  1.
        -12    1    3    3    0    0 -0.10675872740E+02  0.35316912375E+02 -0.66388078268E+01  0.37487762374E+02  0.00000000000E+00 0.  1.
</event>
<event>
 7    1  0.2486105E-010  0.4778728E+02  0.7816164E-02  0.1312668E+00
        -11   -1    0    0    0    0  0.00000000000E+00  0.00000000000E+00  0.45593999997E+02  0.45594000000E+02  0.51100000000E-03 0.  1.
         11   -1    0    0    0    0 -0.00000000000E+00 -0.00000000000E+00 -0.45593999997E+02  0.45594000000E+02  0.51100000000E-03 0. -1.
    9900012    2    1    2    0    0  0.42164188467E+01 -0.11655774093E+02  0.41593111010E+02  0.47787284095E+02  0.20000059502E+02 0.  0.
         12    1    1    2    0    0 -0.42164188467E+01  0.11655774093E+02 -0.41593111010E+02  0.43400715905E+02  0.00000000000E+00 0. -1.
         11    1    3    3    0    0 -0.62359112940E+01 -0.58442017185E+01  0.74568937690E+01  0.11342246177E+02  0.51100000000E-03 0. -1.
        -11    1    3    3    0    0  0.14156256484E+01 -0.28655580941E+01  0.70840323243E+01  0.77716750704E+01  0.51100000000E-03 0.  1.
         12    1    3    3    0    0  0.90367044922E+01 -0.29460142799E+01  0.27052184917E+02  0.28673362848E+02  0.00000000000E+00 0. -1.
</event>
<event>
 7    1  0.2486105E-010  0.4778726E+02  0.7816164E-02  0.1312668E+00
        -11   -1    0    0    0    0  0.00000000000E+00  0.00000000000E+00  0.45593999997E+02  0.45594000000E+02  0.51100000000E-03 0. -1.
         11   -1    0    0    0    0 -0.00000000000E+00 -0.00000000000E+00 -0.45593999997E+02  0.45594000000E+02  0.51100000000E-03 0.  1.
    9900012    2    1    2    0    0 -0.34961254327E+02 -0.16226698193E+02 -0.19950664121E+02  0.47787262250E+02  0.19999959903E+02 0.  0.
         12    1    1    2    0    0  0.34961254327E+02  0.16226698193E+02  0.19950664121E+02  0.43400737750E+02  0.00000000000E+00 0. -1.
         11    1    3    3    0    0  0.64662915503E+00 -0.33446408235E+01 -0.32637014747E+01  0.47176794167E+01  0.51100000000E-03 0. -1.
        -11    1    3    3    0    0 -0.91293512357E+01  0.22524168897E+00  0.11429461880E-01  0.91321365900E+01  0.51100000000E-03 0.  1.
         12    1    3    3    0    0 -0.26478532246E+02 -0.13107299058E+02 -0.16698392108E+02  0.33937446243E+02  0.00000000000E+00 0. -1.
</event>
<event>
 7    1  0.2486105E-010  0.4778727E+02  0.7816164E-02  0.1312668E+00
        -11   -1    0    0    0    0  0.00000000000E+00  0.00000000000E+00  0.45593999997E+02  0.45594000000E+02  0.51100000000E-03 0. -1.
         11   -1    0    0    0    0 -0.00000000000E+00 -0.00000000000E+00 -0.45593999997E+02  0.45594000000E+02  0.51100000000E-03 0.  1.
    9900012    2    1    2    0    0  0.19769466853E+02 -0.86022838761E+01 -0.37666857815E+02  0.47787270914E+02  0.19999999404E+02 0.  0.
         12    1    1    2    0    0 -0.19769466853E+02  0.86022838761E+01  0.37666857815E+02  0.43400729086E+02  0.00000000000E+00 0. -1.
         11    1    3    3    0    0  0.21305353271E+01 -0.12545421878E+01 -0.22281322520E+02  0.22418081773E+02  0.51100000000E-03 0. -1.
        -11    1    3    3    0    0  0.59487118272E+01  0.38389053652E+00 -0.62617720555E+01  0.86454805467E+01  0.51100000000E-03 0.  1.
         12    1    3    3    0    0  0.11690219699E+02 -0.77316322249E+01 -0.91237632393E+01  0.16723708594E+02  0.00000000000E+00 0. -1.
</event>
<event>
 7    1  0.2486105E-010  0.4778727E+02  0.7816164E-02  0.1312668E+00
        -11   -1    0    0    0    0  0.00000000000E+00  0.00000000000E+00  0.45593999997E+02  0.45594000000E+02  0.51100000000E-03 0. -1.
         11   -1    0    0    0    0 -0.00000000000E+00 -0.00000000000E+00 -0.45593999997E+02  0.45594000000E+02  0.51100000000E-03 0.  1.
    9900012    2    1    2    0    0 -0.33754428003E+02  0.23132559440E+02 -0.14461895200E+02  0.47787272715E+02  0.20000007618E+02 0.  0.
         12    1    1    2    0    0  0.33754428003E+02 -0.23132559440E+02  0.14461895200E+02  0.43400727285E+02  0.00000000000E+00 0. -1.
         11    1    3    3    0    0 -0.69901796938E+01  0.28392471907E+01  0.15010858306E+01  0.76926715576E+01  0.51100000000E-03 0. -1.
        -11    1    3    3    0    0 -0.17102870307E+02  0.14886604972E+02 -0.27252827768E+01  0.22837389229E+02  0.51100000000E-03 0.  1.
         12    1    3    3    0    0 -0.96613780023E+01  0.54067072780E+01 -0.13237698254E+02  0.17257211929E+02  0.00000000000E+00 0. -1.
</event>
<event>
 7    1  0.2486105E-010  0.4778727E+02  0.7816164E-02  0.1312668E+00
        -11   -1    0    0    0    0  0.00000000000E+00  0.00000000000E+00  0.45593999997E+02  0.45594000000E+02  0.51100000000E-03 0. -1.
         11   -1    0    0    0    0 -0.00000000000E+00 -0.00000000000E+00 -0.45593999997E+02  0.45594000000E+02  0.51100000000E-03 0.  1.
    9900012    2    1    2    0    0 -0.41935494149E+02  0.10872043476E+02  0.26145931020E+01  0.47787273094E+02  0.20000009344E+02 0.  0.
         12    1    1    2    0    0  0.41935494149E+02 -0.10872043476E+02 -0.26145931020E+01  0.43400726906E+02  0.00000000000E+00 0. -1.
         11    1    3    3    0    0 -0.33459506047E+01  0.29995783476E+01 -0.19275031382E+01  0.48895934720E+01  0.51100000000E-03 0. -1.
        -11    1    3    3    0    0 -0.11954520371E+02  0.88944365611E+01 -0.29939603996E+01  0.15198202466E+02  0.51100000000E-03 0.  1.
         12    1    3    3    0    0 -0.26635023173E+02 -0.10219714324E+01  0.75360566398E+01  0.27699477156E+02  0.00000000000E+00 0. -1.
</event>
<event>
 7    1  0.2486105E-010  0.4778727E+02  0.7816164E-02  0.1312668E+00
        -11   -1    0    0    0    0  0.00000000000E+00  0.00000000000E+00  0.45593999997E+02  0.45594000000E+02  0.51100000000E-03 0.  1.
         11   -1    0    0    0    0 -0.00000000000E+00 -0.00000000000E+00 -0.45593999997E+02  0.45594000000E+02  0.51100000000E-03 0. -1.
    9900012    2    1    2    0    0  0.11825941326E+02 -0.93935891940E+01  0.40688215337E+02  0.47787271049E+02  0.20000000019E+02 0.  0.
         12    1    1    2    0    0 -0.11825941326E+02  0.93935891940E+01 -0.40688215337E+02  0.43400728951E+02  0.00000000000E+00 0. -1.
         11    1    3    3    0    0  0.11280839886E+01 -0.21762149228E+01  0.52790592518E+00  0.25074229405E+01  0.51100000000E-03 0. -1.
        -11    1    3    3    0    0  0.23576407822E+01  0.43994782587E+01  0.40065758503E+01  0.64005100822E+01  0.51100000000E-03 0.  1.
         12    1    3    3    0    0  0.83402165555E+01 -0.11616852530E+02  0.36153733562E+02  0.38879338026E+02  0.00000000000E+00 0. -1.
</event>
<event>
 7    1  0.2486105E-010  0.4778727E+02  0.7816164E-02  0.1312668E+00
        -11   -1    0    0    0    0  0.00000000000E+00  0.00000000000E+00  0.45593999997E+02  0.45594000000E+02  0.51100000000E-03 0.  1.
         11   -1    0    0    0    0 -0.00000000000E+00 -0.00000000000E+00 -0.45593999997E+02  0.45594000000E+02  0.51100000000E-03 0. -1.
    9900012    2    1    2    0    0  0.42832413113E+01  0.39380209949E+02  0.17733483604E+02  0.47787268065E+02  0.19999986415E+02 0.  0.
         12    1    1    2    0    0 -0.42832413113E+01 -0.39380209949E+02 -0.17733483604E+02  0.43400731935E+02  0.00000000000E+00 0. -1.
         11    1    3    3    0    0  0.39580124850E+01  0.20287675365E+02  0.12208150056E+02  0.24006135936E+02  0.51100000000E-03 0. -1.
        -11    1    3    3    0    0  0.49394687381E+00  0.20952320602E+02  0.39265278442E+01  0.21322789295E+02  0.51100000000E-03 0.  1.
         12    1    3    3    0    0 -0.16871804752E+00 -0.18597860177E+01  0.15988057035E+01  0.24583428339E+01  0.00000000000E+00 0. -1.
</event>
<event>
 7    1  0.2486105E-010  0.4778728E+02  0.7816164E-02  0.1312668E+00
        -11   -1    0    0    0    0  0.00000000000E+00  0.00000000000E+00  0.45593999997E+02  0.45594000000E+02  0.51100000000E-03 0. -1.
         11   -1    0    0    0    0 -0.00000000000E+00 -0.00000000000E+00 -0.45593999997E+02  0.45594000000E+02  0.51100000000E-03 0.  1.
    9900012    2    1    2    0    0  0.10007757428E+02  0.77862502112E+01 -0.41507129334E+02  0.47787277810E+02  0.20000030845E+02 0.  0.
         12    1    1    2    0    0 -0.10007757428E+02 -0.77862502112E+01  0.41507129334E+02  0.43400722190E+02  0.00000000000E+00 0. -1.
         11    1    3    3    0    0 -0.15247198859E+01  0.15458225743E+01 -0.45264285524E+00  0.22179323653E+01  0.51100000000E-03 0.  1.
        -11    1    3    3    0    0  0.98231424152E+01 -0.14926646373E+01 -0.12673318188E+02  0.16103886760E+02  0.51100000000E-03 0. -1.
        -12    1    3    3    0    0  0.17093348990E+01  0.77330922742E+01 -0.28381168291E+02  0.29465458684E+02  0.00000000000E+00 0.  1.
</event>
<event>
 7    1  0.2486105E-010  0.4778727E+02  0.7816164E-02  0.1312668E+00
        -11   -1    0    0    0    0  0.00000000000E+00  0.00000000000E+00  0.45593999997E+02  0.45594000000E+02  0.51100000000E-03 0.  1.
         11   -1    0    0    0    0 -0.00000000000E+00 -0.00000000000E+00 -0.45593999997E+02  0.45594000000E+02  0.51100000000E-03 0. -1.
    9900012    2    1    2    0    0 -0.27887615835E+02 -0.11127173154E+02  0.31338324936E+02  0.47787266030E+02  0.19999977137E+02 0.  0.
         12    1    1    2    0    0  0.27887615835E+02  0.11127173154E+02 -0.31338324936E+02  0.43400733970E+02  0.00000000000E+00 0. -1.
         11    1    3    3    0    0 -0.15216606839E+00 -0.37461061832E+00 -0.43566661063E+00  0.59438479495E+00  0.51100000000E-03 0. -1.
        -11    1    3    3    0    0 -0.56746512518E+01  0.51391003433E+01  0.59669178560E+01  0.97064992726E+01  0.51100000000E-03 0.  1.
        -12    1    3    3    0    0 -0.22060798515E+02 -0.15891662879E+02  0.25807073690E+02  0.37486381962E+02  0.00000000000E+00 0.  1.
</event>
<event>
 7    1  0.2486105E-010  0.4778726E+02  0.7816164E-02  0.1312668E+00
        -11   -1    0    0    0    0  0.00000000000E+00  0.00000000000E+00  0.45593999997E+02  0.45594000000E+02  0.51100000000E-03 0. -1.
         11   -1    0    0    0    0 -0.00000000000E+00 -0.00000000000E+00 -0.45593999997E+02  0.45594000000E+02  0.51100000000E-03 0.  1.
    9900012    2    1    2    0    0 -0.32474249733E+02 -0.20935834893E+02 -0.19767090577E+02  0.47787263275E+02  0.19999964577E+02 0.  0.
         12    1    1    2    0    0  0.32474249733E+02  0.20935834893E+02  0.19767090577E+02  0.43400736725E+02  0.00000000000E+00 0. -1.
         11    1    3    3    0    0 -0.97710344195E+01 -0.29907690633E+01 -0.11228151456E+02  0.15181870721E+02  0.51100000000E-03 0. -1.
        -11    1    3    3    0    0 -0.74434178783E+01 -0.15592524098E+01 -0.67062934315E+01  0.10139532023E+02  0.51100000000E-03 0.  1.
        -12    1    3    3    0    0 -0.15259797436E+02 -0.16385813420E+02 -0.18326456894E+01  0.22465860531E+02  0.00000000000E+00 0.  1.
</event>
<event>
 7    1  0.2486105E-010  0.4778730E+02  0.7816164E-02  0.1312668E+00
        -11   -1    0    0    0    0  0.00000000000E+00  0.00000000000E+00  0.45593999997E+02  0.45594000000E+02  0.51100000000E-03 0.  1.
         11   -1    0    0    0    0 -0.00000000000E+00 -0.00000000000E+00 -0.45593999997E+02  0.45594000000E+02  0.51100000000E-03 0. -1.
    9900012    2    1    2    0    0  0.81055226671E+01  0.36731622844E+02 -0.21649700325E+02  0.47787295644E+02  0.20000112158E+02 0.  0.
         12    1    1    2    0    0 -0.81055226671E+01 -0.36731622844E+02  0.21649700325E+02  0.43400704356E+02  0.00000000000E+00 0. -1.
         11    1    3    3    0    0  0.37672673796E+01  0.42048307198E+01 -0.87790318205E+00  0.57134594730E+01  0.51100000000E-03 0. -1.
        -11    1    3    3    0    0  0.73143134181E+01  0.70488549691E+01 -0.21686530984E+01  0.10386943423E+02  0.51100000000E-03 0.  1.
         12    1    3    3    0    0 -0.29760581306E+01  0.25477937155E+02 -0.18603144045E+02  0.31686892748E+02  0.00000000000E+00 0. -1.
</event>
<event>
 7    1  0.2486105E-010  0.4778727E+02  0.7816164E-02  0.1312668E+00
        -11   -1    0    0    0    0  0.00000000000E+00  0.00000000000E+00  0.45593999997E+02  0.45594000000E+02  0.51100000000E-03 0.  1.
         11   -1    0    0    0    0 -0.00000000000E+00 -0.00000000000E+00 -0.45593999997E+02  0.45594000000E+02  0.51100000000E-03 0. -1.
    9900012    2    1    2    0    0 -0.11800451776E+02 -0.28788201862E+02  0.30259078580E+02  0.47787273450E+02  0.20000010970E+02 0.  0.
         12    1    1    2    0    0  0.11800451776E+02  0.28788201862E+02 -0.30259078580E+02  0.43400726550E+02  0.00000000000E+00 0. -1.
         11    1    3    3    0    0 -0.22787554333E+01 -0.13561521838E+01 -0.15376916214E+01  0.30653500378E+01  0.51100000000E-03 0. -1.
        -11    1    3    3    0    0 -0.50309426221E+01 -0.17874437137E+02  0.11497874479E+02  0.21840490022E+02  0.51100000000E-03 0.  1.
         12    1    3    3    0    0 -0.44907537204E+01 -0.95576125412E+01  0.20298895722E+02  0.22881433390E+02  0.00000000000E+00 0. -1.
</event>
<event>
 7    1  0.2486105E-010  0.4778727E+02  0.7816164E-02  0.1312668E+00
        -11   -1    0    0    0    0  0.00000000000E+00  0.00000000000E+00  0.45593999997E+02  0.45594000000E+02  0.51100000000E-03 0. -1.
         11   -1    0    0    0    0 -0.00000000000E+00 -0.00000000000E+00 -0.45593999997E+02  0.45594000000E+02  0.51100000000E-03 0.  1.
    9900012    2    1    2    0    0  0.44074829057E+01 -0.33436564506E+02 -0.27316542856E+02  0.47787271145E+02  0.20000000459E+02 0.  0.
         12    1    1    2    0    0 -0.44074829057E+01  0.33436564506E+02  0.27316542856E+02  0.43400728855E+02  0.00000000000E+00 0. -1.
         11    1    3    3    0    0  0.29963817717E+01 -0.10865383440E+02 -0.38403611229E+01  0.11907276549E+02  0.51100000000E-03 0. -1.
        -11    1    3    3    0    0  0.29817242045E+01 -0.23040849402E+02 -0.24642766197E+02  0.33867939803E+02  0.51100000000E-03 0.  1.
        -12    1    3    3    0    0 -0.15706230706E+01  0.46966833579E+00  0.11665844641E+01  0.20120547923E+01  0.00000000000E+00 0.  1.
</event>
<event>
 7    1  0.2486105E-010  0.4778727E+02  0.7816164E-02  0.1312668E+00
        -11   -1    0    0    0    0  0.00000000000E+00  0.00000000000E+00  0.45593999997E+02  0.45594000000E+02  0.51100000000E-03 0. -1.
         11   -1    0    0    0    0 -0.00000000000E+00 -0.00000000000E+00 -0.45593999997E+02  0.45594000000E+02  0.51100000000E-03 0.  1.
    9900012    2    1    2    0    0 -0.17937889602E+02  0.25220816055E+02  0.30426400054E+02  0.47787271134E+02  0.20000000409E+02 0.  0.
         12    1    1    2    0    0  0.17937889602E+02 -0.25220816055E+02 -0.30426400054E+02  0.43400728866E+02  0.00000000000E+00 0. -1.
         11    1    3    3    0    0 -0.53363567809E+01  0.51689093212E+01  0.24387482824E+01  0.78193235455E+01  0.51100000000E-03 0. -1.
        -11    1    3    3    0    0 -0.15092338434E+02  0.13702738336E+02  0.15036133441E+02  0.25330397281E+02  0.51100000000E-03 0.  1.
         12    1    3    3    0    0  0.24908056126E+01  0.63491683983E+01  0.12951518330E+02  0.14637550308E+02  0.00000000000E+00 0. -1.
</event>
<event>
 7    1  0.2486105E-010  0.4778727E+02  0.7816164E-02  0.1312668E+00
        -11   -1    0    0    0    0  0.00000000000E+00  0.00000000000E+00  0.45593999997E+02  0.45594000000E+02  0.51100000000E-03 0.  1.
         11   -1    0    0    0    0 -0.00000000000E+00 -0.00000000000E+00 -0.45593999997E+02  0.45594000000E+02  0.51100000000E-03 0. -1.
    9900012    2    1    2    0    0 -0.18347470244E+02  0.18887380095E+02  0.34500149993E+02  0.47787272578E+02  0.20000006994E+02 0.  0.
         12    1    1    2    0    0  0.18347470244E+02 -0.18887380095E+02 -0.34500149993E+02  0.43400727422E+02  0.00000000000E+00 0. -1.
         11    1    3    3    0    0 -0.25968480392E+01 -0.10602435195E+01  0.17792741794E+01  0.33216792328E+01  0.51100000000E-03 0. -1.
        -11    1    3    3    0    0 -0.16525323358E+00 -0.23700304627E+01  0.78361669335E+00  0.25016811165E+01  0.51100000000E-03 0.  1.
        -12    1    3    3    0    0 -0.15585368971E+02  0.22317654077E+02  0.31937259120E+02  0.41963912229E+02  0.00000000000E+00 0.  1.
</event>
<event>
 7    1  0.2486105E-010  0.4778728E+02  0.7816164E-02  0.1312668E+00
        -11   -1    0    0    0    0  0.00000000000E+00  0.00000000000E+00  0.45593999997E+02  0.45594000000E+02  0.51100000000E-03 0.  1.
         11   -1    0    0    0    0 -0.00000000000E+00 -0.00000000000E+00 -0.45593999997E+02  0.45594000000E+02  0.51100000000E-03 0. -1.
    9900012    2    1    2    0    0 -0.39716545591E+01 -0.40966278180E+02  0.13769994974E+02  0.47787277086E+02  0.20000027547E+02 0.  0.
         12    1    1    2    0    0  0.39716545591E+01  0.40966278180E+02 -0.13769994974E+02  0.43400722914E+02  0.00000000000E+00 0. -1.
         11    1    3    3    0    0 -0.42623198427E+00 -0.43900441987E+01 -0.26312527908E+01  0.51359179590E+01  0.51100000000E-03 0. -1.
        -11    1    3    3    0    0 -0.20487441748E+01 -0.19008154475E+01  0.56719637066E+01  0.63231024513E+01  0.51100000000E-03 0.  1.
        -12    1    3    3    0    0 -0.14966783999E+01 -0.34675418534E+02  0.10729284058E+02  0.36328256676E+02  0.00000000000E+00 0.  1.
</event>
<event>
 7    1  0.2486105E-010  0.4778727E+02  0.7816164E-02  0.1312668E+00
        -11   -1    0    0    0    0  0.00000000000E+00  0.00000000000E+00  0.45593999997E+02  0.45594000000E+02  0.51100000000E-03 0.  1.
         11   -1    0    0    0    0 -0.00000000000E+00 -0.00000000000E+00 -0.45593999997E+02  0.45594000000E+02  0.51100000000E-03 0. -1.
    9900012    2    1    2    0    0  0.25092464110E+02 -0.33297458083E+02  0.12052833124E+02  0.47787271247E+02  0.20000000925E+02 0.  0.
         12    1    1    2    0    0 -0.25092464110E+02  0.33297458083E+02 -0.12052833124E+02  0.43400728753E+02  0.00000000000E+00 0. -1.
         11    1    3    3    0    0  0.10604272140E+02 -0.64900489589E+01  0.67439434716E+01  0.14143977408E+02  0.51100000000E-03 0. -1.
        -11    1    3    3    0    0  0.10510726573E+02 -0.18277195322E+02  0.97582794684E+01  0.23232633522E+02  0.51100000000E-03 0.  1.
         12    1    3    3    0    0  0.39774653977E+01 -0.85302138027E+01 -0.44493898159E+01  0.10410660317E+02  0.00000000000E+00 0. -1.
</event>
<event>
 7    1  0.2486105E-010  0.4778726E+02  0.7816164E-02  0.1312668E+00
        -11   -1    0    0    0    0  0.00000000000E+00  0.00000000000E+00  0.45593999997E+02  0.45594000000E+02  0.51100000000E-03 0.  1.
         11   -1    0    0    0    0 -0.00000000000E+00 -0.00000000000E+00 -0.45593999997E+02  0.45594000000E+02  0.51100000000E-03 0. -1.
    9900012    2    1    2    0    0  0.15330374173E+02  0.34144041950E+02  0.21972440270E+02  0.47787261476E+02  0.19999956374E+02 0.  0.
         12    1    1    2    0    0 -0.15330374173E+02 -0.34144041950E+02 -0.21972440270E+02  0.43400738524E+02  0.00000000000E+00 0. -1.
         11    1    3    3    0    0  0.17747232048E+00  0.19179140979E+02  0.51995291456E+01  0.19872243173E+02  0.51100000000E-03 0. -1.
        -11    1    3    3    0    0  0.56413377222E+01  0.79192397752E+01  0.40371907441E+01  0.10527960832E+02  0.51100000000E-03 0.  1.
         12    1    3    3    0    0  0.95115641304E+01  0.70456611961E+01  0.12735720381E+02  0.17387057471E+02  0.00000000000E+00 0. -1.
</event>
<event>
 7    1  0.2486105E-010  0.4778727E+02  0.7816164E-02  0.1312668E+00
        -11   -1    0    0    0    0  0.00000000000E+00  0.00000000000E+00  0.45593999997E+02  0.45594000000E+02  0.51100000000E-03 0.  1.
         11   -1    0    0    0    0 -0.00000000000E+00 -0.00000000000E+00 -0.45593999997E+02  0.45594000000E+02  0.51100000000E-03 0. -1.
    9900012    2    1    2    0    0 -0.20934414523E+01 -0.31395473512E+02  0.29892559301E+02  0.47787270102E+02  0.19999995702E+02 0.  0.
         12    1    1    2    0    0  0.20934414523E+01  0.31395473512E+02 -0.29892559301E+02  0.43400729898E+02  0.00000000000E+00 0. -1.
         11    1    3    3    0    0 -0.65373528343E+01 -0.95299850676E+01  0.11599530525E+02  0.16373964276E+02  0.51100000000E-03 0.  1.
        -11    1    3    3    0    0 -0.11541199977E+01 -0.11605885979E+01 -0.15056518207E+01  0.22239484096E+01  0.51100000000E-03 0. -1.
        -12    1    3    3    0    0  0.55980313797E+01 -0.20704899846E+02  0.19798680597E+02  0.29189357416E+02  0.00000000000E+00 0.  1.
</event>
<event>
 7    1  0.2486105E-010  0.4778727E+02  0.7816164E-02  0.1312668E+00
        -11   -1    0    0    0    0  0.00000000000E+00  0.00000000000E+00  0.45593999997E+02  0.45594000000E+02  0.51100000000E-03 0. -1.
         11   -1    0    0    0    0 -0.00000000000E+00 -0.00000000000E+00 -0.45593999997E+02  0.45594000000E+02  0.51100000000E-03 0.  1.
    9900012    2    1    2    0    0  0.11708504485E+02  0.40473715397E+02 -0.10412146340E+02  0.47787268362E+02  0.19999987771E+02 0.  0.
         12    1    1    2    0    0 -0.11708504485E+02 -0.40473715397E+02  0.10412146340E+02  0.43400731638E+02  0.00000000000E+00 0. -1.
         11    1    3    3    0    0  0.50529052541E+01  0.11835239127E+02  0.18607909057E+01  0.13002587426E+02  0.51100000000E-03 0. -1.
        -11    1    3    3    0    0 -0.62875857656E+00  0.66998017749E+01  0.26913486467E+01  0.72474850100E+01  0.51100000000E-03 0.  1.
        -12    1    3    3    0    0  0.72843578078E+01  0.21938674494E+02 -0.14964285892E+02  0.27537195927E+02  0.00000000000E+00 0.  1.
</event>
<event>
 7    1  0.2486105E-010  0.4778725E+02  0.7816164E-02  0.1312668E+00
        -11   -1    0    0    0    0  0.00000000000E+00  0.00000000000E+00  0.45593999997E+02  0.45594000000E+02  0.51100000000E-03 0.  1.
         11   -1    0    0    0    0 -0.00000000000E+00 -0.00000000000E+00 -0.45593999997E+02  0.45594000000E+02  0.51100000000E-03 0. -1.
    9900012    2    1    2    0    0  0.37841825155E+02 -0.61736202534E+01  0.20334895910E+02  0.47787247590E+02  0.19999893060E+02 0.  0.
         12    1    1    2    0    0 -0.37841825155E+02  0.61736202534E+01 -0.20334895910E+02  0.43400752410E+02  0.00000000000E+00 0. -1.
         11    1    3    3    0    0  0.58504837073E+01  0.34251116015E+01 -0.42906785104E+00  0.67929116419E+01  0.51100000000E-03 0. -1.
        -11    1    3    3    0    0  0.19745603098E+02 -0.39578682873E+01  0.60279689648E+01  0.21021179158E+02  0.51100000000E-03 0.  1.
        -12    1    3    3    0    0  0.12245738350E+02 -0.56408635676E+01  0.14735994797E+02  0.19973156790E+02  0.00000000000E+00 0.  1.
</event>
<event>
 7    1  0.2486105E-010  0.4778727E+02  0.7816164E-02  0.1312668E+00
        -11   -1    0    0    0    0  0.00000000000E+00  0.00000000000E+00  0.45593999997E+02  0.45594000000E+02  0.51100000000E-03 0.  1.
         11   -1    0    0    0    0 -0.00000000000E+00 -0.00000000000E+00 -0.45593999997E+02  0.45594000000E+02  0.51100000000E-03 0. -1.
    9900012    2    1    2    0    0 -0.26869869215E+02  0.32529562172E+02  0.10171586602E+02  0.47787268892E+02  0.19999990187E+02 0.  0.
         12    1    1    2    0    0  0.26869869215E+02 -0.32529562172E+02 -0.10171586602E+02  0.43400731108E+02  0.00000000000E+00 0. -1.
         11    1    3    3    0    0 -0.43485448229E+01  0.19620326366E+02  0.33783110990E+01  0.20378420815E+02  0.51100000000E-03 0. -1.
        -11    1    3    3    0    0 -0.38026010182E+01  0.48041615305E+01  0.10371000923E+01  0.62141225750E+01  0.51100000000E-03 0.  1.
        -12    1    3    3    0    0 -0.18718723373E+02  0.81050742756E+01  0.57561754109E+01  0.21194725502E+02  0.00000000000E+00 0.  1.
</event>
<event>
 7    1  0.2486105E-010  0.4778727E+02  0.7816164E-02  0.1312668E+00
        -11   -1    0    0    0    0  0.00000000000E+00  0.00000000000E+00  0.45593999997E+02  0.45594000000E+02  0.51100000000E-03 0. -1.
         11   -1    0    0    0    0 -0.00000000000E+00 -0.00000000000E+00 -0.45593999997E+02  0.45594000000E+02  0.51100000000E-03 0.  1.
    9900012    2    1    2    0    0 -0.25641090634E+02 -0.21726792042E+02  0.27460957632E+02  0.47787271718E+02  0.20000003070E+02 0.  0.
         12    1    1    2    0    0  0.25641090634E+02  0.21726792042E+02 -0.27460957632E+02  0.43400728282E+02  0.00000000000E+00 0. -1.
         11    1    3    3    0    0 -0.18346060583E+01 -0.31965620792E+00  0.14701957904E+01  0.23726431260E+01  0.51100000000E-03 0. -1.
        -11    1    3    3    0    0 -0.14311882239E+02 -0.13884373357E+02  0.40429291520E+01  0.20345787601E+02  0.51100000000E-03 0.  1.
         12    1    3    3    0    0 -0.94946023373E+01 -0.75227624773E+01  0.21947832690E+02  0.25068840991E+02  0.00000000000E+00 0. -1.
</event>
<event>
 7    1  0.2486105E-010  0.4778727E+02  0.7816164E-02  0.1312668E+00
        -11   -1    0    0    0    0  0.00000000000E+00  0.00000000000E+00  0.45593999997E+02  0.45594000000E+02  0.51100000000E-03 0.  1.
         11   -1    0    0    0    0 -0.00000000000E+00 -0.00000000000E+00 -0.45593999997E+02  0.45594000000E+02  0.51100000000E-03 0. -1.
    9900012    2    1    2    0    0  0.16813349678E+02  0.39941203479E+02  0.23737569321E+01  0.47787272071E+02  0.20000004683E+02 0.  0.
         12    1    1    2    0    0 -0.16813349678E+02 -0.39941203479E+02 -0.23737569321E+01  0.43400727929E+02  0.00000000000E+00 0. -1.
         11    1    3    3    0    0  0.10887586067E+01  0.13125793758E+02  0.22653475057E+00  0.13172819566E+02  0.51100000000E-03 0. -1.
        -11    1    3    3    0    0  0.16495086998E+02  0.28111318209E+02  0.32375182146E+01  0.32753864367E+02  0.51100000000E-03 0.  1.
        -12    1    3    3    0    0 -0.77049592705E+00 -0.12959084872E+01 -0.10902960331E+01  0.18605881384E+01  0.00000000000E+00 0.  1.
</event>
<event>
 7    1  0.2916293E-010  0.4778729E+02  0.7816164E-02  0.1312668E+00
        -11   -1    0    0    0    0  0.00000000000E+00  0.00000000000E+00  0.45593999997E+02  0.45594000000E+02  0.51100000000E-03 0.  1.
         11   -1    0    0    0    0 -0.00000000000E+00 -0.00000000000E+00 -0.45593999997E+02  0.45594000000E+02  0.51100000000E-03 0. -1.
    9900012    2    1    2    0    0  0.35409053556E+02  0.19294773777E+02  0.16047805881E+02  0.47787292144E+02  0.20000096199E+02 0.  0.
         12    1    1    2    0    0 -0.35409053556E+02 -0.19294773777E+02 -0.16047805881E+02  0.43400707856E+02  0.00000000000E+00 0. -1.
         11    1    3    3    0    0  0.12192247612E+01 -0.23815364124E+01 -0.22083860077E+00  0.26845846328E+01  0.51100000000E-03 0. -1.
        -11    1    3    3    0    0  0.17509727875E+02  0.76629554620E+01  0.23653768197E+01  0.19258932069E+02  0.51100000000E-03 0.  1.
        -12    1    3    3    0    0  0.16680100919E+02  0.14013354728E+02  0.13903267662E+02  0.25843775442E+02  0.00000000000E+00 0.  1.
</event>
<event>
 7    1  0.2486105E-010  0.4778727E+02  0.7816164E-02  0.1312668E+00
        -11   -1    0    0    0    0  0.00000000000E+00  0.00000000000E+00  0.45593999997E+02  0.45594000000E+02  0.51100000000E-03 0.  1.
         11   -1    0    0    0    0 -0.00000000000E+00 -0.00000000000E+00 -0.45593999997E+02  0.45594000000E+02  0.51100000000E-03 0. -1.
    9900012    2    1    2    0    0 -0.31057546787E+02 -0.24125908415E+02 -0.18357361553E+02  0.47787269679E+02  0.19999993774E+02 0.  0.
         12    1    1    2    0    0  0.31057546787E+02  0.24125908415E+02  0.18357361553E+02  0.43400730321E+02  0.00000000000E+00 0. -1.
         11    1    3    3    0    0 -0.23759031599E+02 -0.15209217061E+02 -0.13451560302E+02  0.31253101301E+02  0.51100000000E-03 0. -1.
        -11    1    3    3    0    0 -0.53557010311E+01  0.11850789383E+01 -0.13374790283E+01  0.56459539528E+01  0.51100000000E-03 0.  1.
        -12    1    3    3    0    0 -0.19428141568E+01 -0.10101770292E+02 -0.35683222220E+01  0.10888214425E+02  0.00000000000E+00 0.  1.
</event>
<event>
 7    1  0.2486105E-010  0.4778728E+02  0.7816164E-02  0.1312668E+00
        -11   -1    0    0    0    0  0.00000000000E+00  0.00000000000E+00  0.45593999997E+02  0.45594000000E+02  0.51100000000E-03 0.  1.
         11   -1    0    0    0    0 -0.00000000000E+00 -0.00000000000E+00 -0.45593999997E+02  0.45594000000E+02  0.51100000000E-03 0. -1.
    9900012    2    1    2    0    0 -0.14796036408E+02  0.40700556363E+02 -0.28574299742E+01  0.47787275493E+02  0.20000020284E+02 0.  0.
         12    1    1    2    0    0  0.14796036408E+02 -0.40700556363E+02  0.28574299742E+01  0.43400724507E+02  0.00000000000E+00 0. -1.
         11    1    3    3    0    0 -0.13573503900E+02  0.19485921134E+02 -0.69492880437E+01  0.24743357394E+02  0.51100000000E-03 0. -1.
        -11    1    3    3    0    0 -0.43445922387E+01  0.14603861443E+02  0.16008853128E+01  0.15320283444E+02  0.51100000000E-03 0.  1.
         12    1    3    3    0    0  0.31220597303E+01  0.66107737863E+01  0.24909727568E+01  0.77236346553E+01  0.00000000000E+00 0. -1.
</event>
<event>
 7    1  0.2486105E-010  0.4778727E+02  0.7816164E-02  0.1312668E+00
        -11   -1    0    0    0    0  0.00000000000E+00  0.00000000000E+00  0.45593999997E+02  0.45594000000E+02  0.51100000000E-03 0.  1.
         11   -1    0    0    0    0 -0.00000000000E+00 -0.00000000000E+00 -0.45593999997E+02  0.45594000000E+02  0.51100000000E-03 0. -1.
    9900012    2    1    2    0    0  0.21520774245E+02  0.12727546420E+02  0.35475185985E+02  0.47787274400E+02  0.20000015298E+02 0.  0.
         12    1    1    2    0    0 -0.21520774245E+02 -0.12727546420E+02 -0.35475185985E+02  0.43400725600E+02  0.00000000000E+00 0. -1.
         11    1    3    3    0    0  0.15200132158E+02  0.79702427917E+01  0.14713479093E+02  0.22606531248E+02  0.51100000000E-03 0. -1.
        -11    1    3    3    0    0  0.39906267510E+01  0.49416962306E+00  0.17110413397E+00  0.40247462489E+01  0.51100000000E-03 0.  1.
        -12    1    3    3    0    0  0.23300153355E+01  0.42631340057E+01  0.20590602758E+02  0.21155996903E+02  0.00000000000E+00 0.  1.
</event>
<event>
 7    1  0.2486105E-010  0.4778727E+02  0.7816164E-02  0.1312668E+00
        -11   -1    0    0    0    0  0.00000000000E+00  0.00000000000E+00  0.45593999997E+02  0.45594000000E+02  0.51100000000E-03 0.  1.
         11   -1    0    0    0    0 -0.00000000000E+00 -0.00000000000E+00 -0.45593999997E+02  0.45594000000E+02  0.51100000000E-03 0. -1.
    9900012    2    1    2    0    0  0.25673843499E+02 -0.12641270247E+02  0.32629363180E+02  0.47787270801E+02  0.19999998891E+02 0.  0.
         12    1    1    2    0    0 -0.25673843499E+02  0.12641270247E+02 -0.32629363180E+02  0.43400729199E+02  0.00000000000E+00 0. -1.
         11    1    3    3    0    0 -0.10047638938E+01 -0.20332147643E+01  0.52554963281E+01  0.57239631966E+01  0.51100000000E-03 0. -1.
        -11    1    3    3    0    0  0.28323150257E+02 -0.92270794914E+01  0.25637944640E+02  0.39301959774E+02  0.51100000000E-03 0.  1.
        -12    1    3    3    0    0 -0.16445428640E+01 -0.13809759912E+01  0.17359222112E+01  0.27613478309E+01  0.00000000000E+00 0.  1.
</event>
<event>
 7    1  0.2486105E-010  0.4778727E+02  0.7816164E-02  0.1312668E+00
        -11   -1    0    0    0    0  0.00000000000E+00  0.00000000000E+00  0.45593999997E+02  0.45594000000E+02  0.51100000000E-03 0. -1.
         11   -1    0    0    0    0 -0.00000000000E+00 -0.00000000000E+00 -0.45593999997E+02  0.45594000000E+02  0.51100000000E-03 0.  1.
    9900012    2    1    2    0    0 -0.42729154504E+02  0.46027394362E+01 -0.60545583292E+01  0.47787268076E+02  0.19999986468E+02 0.  0.
         12    1    1    2    0    0  0.42729154504E+02 -0.46027394362E+01  0.60545583292E+01  0.43400731924E+02  0.00000000000E+00 0. -1.
         11    1    3    3    0    0 -0.13072328322E+02 -0.32787698884E+01 -0.37924464247E+01  0.14000669623E+02  0.51100000000E-03 0. -1.
        -11    1    3    3    0    0 -0.21033203546E+02 -0.56992710632E+00 -0.44736034041E+01  0.21511243478E+02  0.51100000000E-03 0.  1.
         12    1    3    3    0    0 -0.86236226358E+01  0.84514364309E+01  0.22114914996E+01  0.12275354975E+02  0.00000000000E+00 0. -1.
</event>
<event>
 7    1  0.2486105E-010  0.4778727E+02  0.7816164E-02  0.1312668E+00
        -11   -1    0    0    0    0  0.00000000000E+00  0.00000000000E+00  0.45593999997E+02  0.45594000000E+02  0.51100000000E-03 0.  1.
         11   -1    0    0    0    0 -0.00000000000E+00 -0.00000000000E+00 -0.45593999997E+02  0.45594000000E+02  0.51100000000E-03 0. -1.
    9900012    2    1    2    0    0 -0.23511647738E+02 -0.53693760835E-01  0.36480443008E+02  0.47787272075E+02  0.20000004699E+02 0.  0.
         12    1    1    2    0    0  0.23511647738E+02  0.53693760835E-01 -0.36480443008E+02  0.43400727925E+02  0.00000000000E+00 0. -1.
         11    1    3    3    0    0 -0.57486438943E+01 -0.57076648163E+01  0.31895938738E+01  0.87061962774E+01  0.51100000000E-03 0. -1.
        -11    1    3    3    0    0 -0.34191494471E+01 -0.22223914697E+01  0.74962293129E+01  0.85336428892E+01  0.51100000000E-03 0.  1.
        -12    1    3    3    0    0 -0.14343854396E+02  0.78763625252E+01  0.25794619821E+02  0.30547432908E+02  0.00000000000E+00 0.  1.
</event>
<event>
 7    1  0.2486105E-010  0.4778727E+02  0.7816164E-02  0.1312668E+00
        -11   -1    0    0    0    0  0.00000000000E+00  0.00000000000E+00  0.45593999997E+02  0.45594000000E+02  0.51100000000E-03 0. -1.
         11   -1    0    0    0    0 -0.00000000000E+00 -0.00000000000E+00 -0.45593999997E+02  0.45594000000E+02  0.51100000000E-03 0.  1.
    9900012    2    1    2    0    0  0.48323412866E+01  0.31235823658E+02  0.29742142867E+02  0.47787271156E+02  0.20000000507E+02 0.  0.
         12    1    1    2    0    0 -0.48323412866E+01 -0.31235823658E+02 -0.29742142867E+02  0.43400728844E+02  0.00000000000E+00 0. -1.
         11    1    3    3    0    0  0.89927447331E+01  0.10722471209E+02  0.14079412856E+02  0.19851214404E+02  0.51100000000E-03 0. -1.
        -11    1    3    3    0    0  0.25537409520E+01  0.99791538258E+01  0.47265566246E+01  0.11333377331E+02  0.51100000000E-03 0.  1.
        -12    1    3    3    0    0 -0.67141443984E+01  0.10534198624E+02  0.10936173386E+02  0.16602679421E+02  0.00000000000E+00 0.  1.
</event>
<event>
 7    1  0.2486105E-010  0.4778728E+02  0.7816164E-02  0.1312668E+00
        -11   -1    0    0    0    0  0.00000000000E+00  0.00000000000E+00  0.45593999997E+02  0.45594000000E+02  0.51100000000E-03 0. -1.
         11   -1    0    0    0    0 -0.00000000000E+00 -0.00000000000E+00 -0.45593999997E+02  0.45594000000E+02  0.51100000000E-03 0.  1.
    9900012    2    1    2    0    0 -0.17219672670E+02  0.37743195892E+02 -0.12749775658E+02  0.47787277168E+02  0.20000027921E+02 0.  0.
         12    1    1    2    0    0  0.17219672670E+02 -0.37743195892E+02  0.12749775658E+02  0.43400722832E+02  0.00000000000E+00 0. -1.
         11    1    3    3    0    0 -0.10430188964E+02  0.17114067734E+02 -0.53379226511E+01  0.20740626190E+02  0.51100000000E-03 0.  1.
        -11    1    3    3    0    0 -0.67355220478E+01  0.15433276931E+01 -0.23821919684E+01  0.73091693414E+01  0.51100000000E-03 0. -1.
         12    1    3    3    0    0 -0.53961658236E-01  0.19085800464E+02 -0.50296610385E+01  0.19737481637E+02  0.00000000000E+00 0. -1.
</event>
<event>
 7    1  0.2486105E-010  0.4778727E+02  0.7816164E-02  0.1312668E+00
        -11   -1    0    0    0    0  0.00000000000E+00  0.00000000000E+00  0.45593999997E+02  0.45594000000E+02  0.51100000000E-03 0.  1.
         11   -1    0    0    0    0 -0.00000000000E+00 -0.00000000000E+00 -0.45593999997E+02  0.45594000000E+02  0.51100000000E-03 0. -1.
    9900012    2    1    2    0    0 -0.31202480162E+02  0.35907184936E+01  0.29952215746E+02  0.47787271254E+02  0.20000000956E+02 0.  0.
         12    1    1    2    0    0  0.31202480162E+02 -0.35907184936E+01 -0.29952215746E+02  0.43400728746E+02  0.00000000000E+00 0. -1.
         11    1    3    3    0    0 -0.64472459583E+01  0.30414671115E+01  0.12771397992E+02  0.14626213097E+02  0.51100000000E-03 0. -1.
        -11    1    3    3    0    0 -0.15743146695E+02  0.70151540665E+01  0.11266121822E+02  0.20590885255E+02  0.51100000000E-03 0.  1.
         12    1    3    3    0    0 -0.90120875089E+01 -0.64659026845E+01  0.59146959325E+01  0.12570172901E+02  0.00000000000E+00 0. -1.
</event>
<event>
 7    1  0.2486105E-010  0.4778727E+02  0.7816164E-02  0.1312668E+00
        -11   -1    0    0    0    0  0.00000000000E+00  0.00000000000E+00  0.45593999997E+02  0.45594000000E+02  0.51100000000E-03 0.  1.
         11   -1    0    0    0    0 -0.00000000000E+00 -0.00000000000E+00 -0.45593999997E+02  0.45594000000E+02  0.51100000000E-03 0. -1.
    9900012    2    1    2    0    0 -0.39166795285E+02 -0.13871473197E+02 -0.12536640586E+02  0.47787274445E+02  0.20000015505E+02 0.  0.
         12    1    1    2    0    0  0.39166795285E+02  0.13871473197E+02  0.12536640586E+02  0.43400725555E+02  0.00000000000E+00 0. -1.
         11    1    3    3    0    0 -0.19880968262E+02 -0.11789725242E+02 -0.66047002094E+01  0.24038980541E+02  0.51100000000E-03 0. -1.
        -11    1    3    3    0    0 -0.18112072773E+02 -0.33442652721E+01 -0.87918555420E+01  0.20409017970E+02  0.51100000000E-03 0.  1.
         12    1    3    3    0    0 -0.11737542490E+01  0.12625173174E+01  0.28599151655E+01  0.33392759347E+01  0.00000000000E+00 0. -1.
</event>
<event>
 7    1  0.2486105E-010  0.4778727E+02  0.7816164E-02  0.1312668E+00
        -11   -1    0    0    0    0  0.00000000000E+00  0.00000000000E+00  0.45593999997E+02  0.45594000000E+02  0.51100000000E-03 0.  1.
         11   -1    0    0    0    0 -0.00000000000E+00 -0.00000000000E+00 -0.45593999997E+02  0.45594000000E+02  0.51100000000E-03 0. -1.
    9900012    2    1    2    0    0  0.34650672204E+02 -0.23355516578E+02  0.11724935537E+02  0.47787270143E+02  0.19999995888E+02 0.  0.
         12    1    1    2    0    0 -0.34650672204E+02  0.23355516578E+02 -0.11724935537E+02  0.43400729857E+02  0.00000000000E+00 0. -1.
         11    1    3    3    0    0 -0.93131357485E+00  0.37040539478E+00 -0.90280422041E-01  0.10063279520E+01  0.51100000000E-03 0. -1.
        -11    1    3    3    0    0 -0.10176751100E+01 -0.31284444620E-01  0.17647847920E+01  0.20374265555E+01  0.51100000000E-03 0.  1.
        -12    1    3    3    0    0  0.36599660888E+02 -0.23694637528E+02  0.10050431167E+02  0.44743515635E+02  0.00000000000E+00 0.  1.
</event>
<event>
 7    1  0.2972414E-010  0.4778727E+02  0.7816164E-02  0.1312668E+00
        -11   -1    0    0    0    0  0.00000000000E+00  0.00000000000E+00  0.45593999997E+02  0.45594000000E+02  0.51100000000E-03 0. -1.
         11   -1    0    0    0    0 -0.00000000000E+00 -0.00000000000E+00 -0.45593999997E+02  0.45594000000E+02  0.51100000000E-03 0.  1.
    9900012    2    1    2    0    0 -0.36075897576E+02  0.24126196875E+02 -0.28181766743E+00  0.47787272094E+02  0.20000004785E+02 0.  0.
         12    1    1    2    0    0  0.36075897576E+02 -0.24126196875E+02  0.28181766743E+00  0.43400727906E+02  0.00000000000E+00 0. -1.
         11    1    3    3    0    0  0.59214362056E+00 -0.14960810717E+00  0.14438169659E+01  0.15676812001E+01  0.51100000000E-03 0. -1.
        -11    1    3    3    0    0 -0.42347108883E+01  0.89775328688E+01 -0.28967545825E+01  0.10340215669E+02  0.51100000000E-03 0.  1.
        -12    1    3    3    0    0 -0.32433330308E+02  0.15298272114E+02  0.11711199492E+01  0.35879375224E+02  0.00000000000E+00 0.  1.
</event>
<event>
 7    1  0.2486105E-010  0.4778726E+02  0.7816164E-02  0.1312668E+00
        -11   -1    0    0    0    0  0.00000000000E+00  0.00000000000E+00  0.45593999997E+02  0.45594000000E+02  0.51100000000E-03 0. -1.
         11   -1    0    0    0    0 -0.00000000000E+00 -0.00000000000E+00 -0.45593999997E+02  0.45594000000E+02  0.51100000000E-03 0.  1.
    9900012    2    1    2    0    0  0.32838916924E+02  0.24081110013E+02 -0.15010997764E+02  0.47787258324E+02  0.19999942001E+02 0.  0.
         12    1    1    2    0    0 -0.32838916924E+02 -0.24081110013E+02  0.15010997764E+02  0.43400741676E+02  0.00000000000E+00 0. -1.
         11    1    3    3    0    0  0.28459507084E+02  0.14693900823E+02 -0.13425635329E+02  0.34728978521E+02  0.51100000000E-03 0.  1.
        -11    1    3    3    0    0  0.31314014568E+01  0.18720638142E+01 -0.36548438297E+01  0.51641244843E+01  0.51100000000E-03 0. -1.
        -12    1    3    3    0    0  0.12480083826E+01  0.75151453764E+01  0.20694813945E+01  0.78941553185E+01  0.00000000000E+00 0.  1.
</event>
<event>
 7    1  0.2486105E-010  0.4778730E+02  0.7816164E-02  0.1312668E+00
        -11   -1    0    0    0    0  0.00000000000E+00  0.00000000000E+00  0.45593999997E+02  0.45594000000E+02  0.51100000000E-03 0. -1.
         11   -1    0    0    0    0 -0.00000000000E+00 -0.00000000000E+00 -0.45593999997E+02  0.45594000000E+02  0.51100000000E-03 0.  1.
    9900012    2    1    2    0    0  0.24683816669E+02  0.25195606595E+02 -0.25288554535E+02  0.47787304297E+02  0.20000151611E+02 0.  0.
         12    1    1    2    0    0 -0.24683816669E+02 -0.25195606595E+02  0.25288554535E+02  0.43400695703E+02  0.00000000000E+00 0. -1.
         11    1    3    3    0    0 -0.13891879838E+01  0.92466103860E+01 -0.27966710320E+01  0.97596626995E+01  0.51100000000E-03 0. -1.
        -11    1    3    3    0    0  0.51045510748E+01  0.42286757292E+01 -0.53195955383E+01  0.84991903761E+01  0.51100000000E-03 0.  1.
         12    1    3    3    0    0  0.20968453578E+02  0.11720320480E+02 -0.17172287965E+02  0.29528451221E+02  0.00000000000E+00 0. -1.
</event>
<event>
 7    1  0.2486105E-010  0.4778727E+02  0.7816164E-02  0.1312668E+00
        -11   -1    0    0    0    0  0.00000000000E+00  0.00000000000E+00  0.45593999997E+02  0.45594000000E+02  0.51100000000E-03 0.  1.
         11   -1    0    0    0    0 -0.00000000000E+00 -0.00000000000E+00 -0.45593999997E+02  0.45594000000E+02  0.51100000000E-03 0. -1.
    9900012    2    1    2    0    0 -0.43341129942E+02  0.16198312530E+01 -0.15955400607E+01  0.47787272518E+02  0.20000006716E+02 0.  0.
         12    1    1    2    0    0  0.43341129942E+02 -0.16198312530E+01  0.15955400607E+01  0.43400727482E+02  0.00000000000E+00 0. -1.
         11    1    3    3    0    0 -0.21108947037E+02 -0.15825798220E+01 -0.11230643041E+01  0.21197959279E+02  0.51100000000E-03 0. -1.
        -11    1    3    3    0    0 -0.19736410525E+02  0.60777765983E+01 -0.44049993707E+01  0.21115617171E+02  0.51100000000E-03 0.  1.
         12    1    3    3    0    0 -0.24957723798E+01 -0.28753655233E+01  0.39325236141E+01  0.54736960675E+01  0.00000000000E+00 0. -1.
</event>
<event>
 7    1  0.2486105E-010  0.4778727E+02  0.7816164E-02  0.1312668E+00
        -11   -1    0    0    0    0  0.00000000000E+00  0.00000000000E+00  0.45593999997E+02  0.45594000000E+02  0.51100000000E-03 0.  1.
         11   -1    0    0    0    0 -0.00000000000E+00 -0.00000000000E+00 -0.45593999997E+02  0.45594000000E+02  0.51100000000E-03 0. -1.
    9900012    2    1    2    0    0 -0.76085061631E+01 -0.18081975275E+02  0.38714026916E+02  0.47787273324E+02  0.20000010395E+02 0.  0.
         12    1    1    2    0    0  0.76085061631E+01  0.18081975275E+02 -0.38714026916E+02  0.43400726676E+02  0.00000000000E+00 0. -1.
         11    1    3    3    0    0  0.66116088942E-01  0.61603598284E+00  0.69198184116E+00  0.92882226447E+00  0.51100000000E-03 0. -1.
        -11    1    3    3    0    0 -0.38134782455E+01 -0.46619430013E+01  0.29247087585E+02  0.29860818163E+02  0.51100000000E-03 0.  1.
        -12    1    3    3    0    0 -0.38611440066E+01 -0.14036068257E+02  0.87749574899E+01  0.16997632897E+02  0.00000000000E+00 0.  1.
</event>
<event>
 7    1  0.2486105E-010  0.4778726E+02  0.7816164E-02  0.1312668E+00
        -11   -1    0    0    0    0  0.00000000000E+00  0.00000000000E+00  0.45593999997E+02  0.45594000000E+02  0.51100000000E-03 0. -1.
         11   -1    0    0    0    0 -0.00000000000E+00 -0.00000000000E+00 -0.45593999997E+02  0.45594000000E+02  0.51100000000E-03 0.  1.
    9900012    2    1    2    0    0 -0.28867684244E+02 -0.12452559879E+01 -0.32384103003E+02  0.47787262871E+02  0.19999962732E+02 0.  0.
         12    1    1    2    0    0  0.28867684244E+02  0.12452559879E+01  0.32384103003E+02  0.43400737129E+02  0.00000000000E+00 0. -1.
         11    1    3    3    0    0 -0.71826328348E+01  0.19254267966E+01 -0.25789020549E+01  0.78707190814E+01  0.51100000000E-03 0. -1.
        -11    1    3    3    0    0 -0.18849231984E+02  0.69351391122E+00 -0.14250314877E+02  0.23639923483E+02  0.51100000000E-03 0.  1.
        -12    1    3    3    0    0 -0.28358194254E+01 -0.38641966957E+01 -0.15554886071E+02  0.16276620306E+02  0.00000000000E+00 0.  1.
</event>
<event>
 7    1  0.2486105E-010  0.4778727E+02  0.7816164E-02  0.1312668E+00
        -11   -1    0    0    0    0  0.00000000000E+00  0.00000000000E+00  0.45593999997E+02  0.45594000000E+02  0.51100000000E-03 0. -1.
         11   -1    0    0    0    0 -0.00000000000E+00 -0.00000000000E+00 -0.45593999997E+02  0.45594000000E+02  0.51100000000E-03 0.  1.
    9900012    2    1    2    0    0  0.95819307283E+00 -0.22036048624E+02 -0.37378035494E+02  0.47787272928E+02  0.20000008589E+02 0.  0.
         12    1    1    2    0    0 -0.95819307283E+00  0.22036048624E+02  0.37378035494E+02  0.43400727072E+02  0.00000000000E+00 0. -1.
         11    1    3    3    0    0  0.13174809282E+01 -0.10215223222E+02 -0.20672717162E+02  0.23096488404E+02  0.51100000000E-03 0.  1.
        -11    1    3    3    0    0 -0.25902985781E+01 -0.70309964138E+01 -0.17783836884E+02  0.19297912112E+02  0.51100000000E-03 0. -1.
        -12    1    3    3    0    0  0.22310107227E+01 -0.47898289882E+01  0.10785185525E+01  0.53928724118E+01  0.00000000000E+00 0.  1.
</event>
<event>
 7    1  0.2486105E-010  0.4778727E+02  0.7816164E-02  0.1312668E+00
        -11   -1    0    0    0    0  0.00000000000E+00  0.00000000000E+00  0.45593999997E+02  0.45594000000E+02  0.51100000000E-03 0.  1.
         11   -1    0    0    0    0 -0.00000000000E+00 -0.00000000000E+00 -0.45593999997E+02  0.45594000000E+02  0.51100000000E-03 0. -1.
    9900012    2    1    2    0    0  0.12162523494E+02  0.36049938902E+02  0.20882976069E+02  0.47787265420E+02  0.19999974357E+02 0.  0.
         12    1    1    2    0    0 -0.12162523494E+02 -0.36049938902E+02 -0.20882976069E+02  0.43400734580E+02  0.00000000000E+00 0. -1.
         11    1    3    3    0    0  0.85570571857E+01  0.75703892858E+01  0.86943536977E+01  0.14357082158E+02  0.51100000000E-03 0. -1.
        -11    1    3    3    0    0  0.33513890790E+00  0.13677273336E+02  0.12109494514E+02  0.18270741135E+02  0.51100000000E-03 0.  1.
         12    1    3    3    0    0  0.32703274000E+01  0.14802276280E+02  0.79127857808E-01  0.15159442127E+02  0.00000000000E+00 0. -1.
</event>
<event>
 7    1  0.2486105E-010  0.4778727E+02  0.7816164E-02  0.1312668E+00
        -11   -1    0    0    0    0  0.00000000000E+00  0.00000000000E+00  0.45593999997E+02  0.45594000000E+02  0.51100000000E-03 0. -1.
         11   -1    0    0    0    0 -0.00000000000E+00 -0.00000000000E+00 -0.45593999997E+02  0.45594000000E+02  0.51100000000E-03 0.  1.
    9900012    2    1    2    0    0 -0.32118100213E+02 -0.28265573853E+02  0.72875419119E+01  0.47787270817E+02  0.19999998961E+02 0.  0.
         12    1    1    2    0    0  0.32118100213E+02  0.28265573853E+02 -0.72875419119E+01  0.43400729183E+02  0.00000000000E+00 0. -1.
         11    1    3    3    0    0 -0.11505198294E+02 -0.50665683239E+01  0.96072928352E+01  0.15822129384E+02  0.51100000000E-03 0. -1.
        -11    1    3    3    0    0 -0.20293128188E+01 -0.49933716303E+01  0.16765533984E+01  0.56447056888E+01  0.51100000000E-03 0.  1.
         12    1    3    3    0    0 -0.18583589100E+02 -0.18205633898E+02 -0.39963043216E+01  0.26320435743E+02  0.00000000000E+00 0. -1.
</event>
<event>
 7    1  0.2486105E-010  0.4778727E+02  0.7816164E-02  0.1312668E+00
        -11   -1    0    0    0    0  0.00000000000E+00  0.00000000000E+00  0.45593999997E+02  0.45594000000E+02  0.51100000000E-03 0.  1.
         11   -1    0    0    0    0 -0.00000000000E+00 -0.00000000000E+00 -0.45593999997E+02  0.45594000000E+02  0.51100000000E-03 0. -1.
    9900012    2    1    2    0    0  0.13715102671E+02 -0.15053424447E+02  0.38326406622E+02  0.47787273354E+02  0.20000010531E+02 0.  0.
         12    1    1    2    0    0 -0.13715102671E+02  0.15053424447E+02 -0.38326406622E+02  0.43400726646E+02  0.00000000000E+00 0. -1.
         11    1    3    3    0    0  0.80845801444E+01 -0.16790509286E+02  0.30197133360E+02  0.35484482547E+02  0.51100000000E-03 0. -1.
        -11    1    3    3    0    0 -0.13927049509E+01 -0.35182757543E+00  0.11084905977E+00  0.14407281140E+01  0.51100000000E-03 0.  1.
        -12    1    3    3    0    0  0.70232274774E+01  0.20889124142E+01  0.80184242017E+01  0.10862062693E+02  0.00000000000E+00 0.  1.
</event>
<event>
 7    1  0.2486105E-010  0.4778727E+02  0.7816164E-02  0.1312668E+00
        -11   -1    0    0    0    0  0.00000000000E+00  0.00000000000E+00  0.45593999997E+02  0.45594000000E+02  0.51100000000E-03 0.  1.
         11   -1    0    0    0    0 -0.00000000000E+00 -0.00000000000E+00 -0.45593999997E+02  0.45594000000E+02  0.51100000000E-03 0. -1.
    9900012    2    1    2    0    0  0.42084577506E+02  0.14668317593E+01  0.10505229189E+02  0.47787273052E+02  0.20000009154E+02 0.  0.
         12    1    1    2    0    0 -0.42084577506E+02 -0.14668317593E+01 -0.10505229189E+02  0.43400726948E+02  0.00000000000E+00 0. -1.
         11    1    3    3    0    0  0.21264041954E+02 -0.61500108872E+01 -0.17248498366E+01  0.22202639964E+02  0.51100000000E-03 0. -1.
        -11    1    3    3    0    0  0.83115817781E+01  0.17748745178E+01  0.61957275010E+01  0.10517585785E+02  0.51100000000E-03 0.  1.
         12    1    3    3    0    0  0.12508953774E+02  0.58419681286E+01  0.60343515241E+01  0.15067047304E+02  0.00000000000E+00 0. -1.
</event>
<event>
 7    1  0.2486105E-010  0.4778727E+02  0.7816164E-02  0.1312668E+00
        -11   -1    0    0    0    0  0.00000000000E+00  0.00000000000E+00  0.45593999997E+02  0.45594000000E+02  0.51100000000E-03 0.  1.
         11   -1    0    0    0    0 -0.00000000000E+00 -0.00000000000E+00 -0.45593999997E+02  0.45594000000E+02  0.51100000000E-03 0. -1.
    9900012    2    1    2    0    0  0.42172744290E+01 -0.19903365743E+02  0.38336584903E+02  0.47787272891E+02  0.20000008421E+02 0.  0.
         12    1    1    2    0    0 -0.42172744290E+01  0.19903365743E+02 -0.38336584903E+02  0.43400727109E+02  0.00000000000E+00 0. -1.
         11    1    3    3    0    0  0.16789734938E+01 -0.16942629239E+02  0.13533984455E+02  0.21749491328E+02  0.51100000000E-03 0. -1.
        -11    1    3    3    0    0  0.13289314362E+01 -0.50135388325E+01  0.12988034046E+02  0.13985373039E+02  0.51100000000E-03 0.  1.
        -12    1    3    3    0    0  0.12093694989E+01  0.20528023284E+01  0.11814566402E+02  0.12052408525E+02  0.00000000000E+00 0.  1.
</event>
<event>
 7    1  0.2486105E-010  0.4778727E+02  0.7816164E-02  0.1312668E+00
        -11   -1    0    0    0    0  0.00000000000E+00  0.00000000000E+00  0.45593999997E+02  0.45594000000E+02  0.51100000000E-03 0.  1.
         11   -1    0    0    0    0 -0.00000000000E+00 -0.00000000000E+00 -0.45593999997E+02  0.45594000000E+02  0.51100000000E-03 0. -1.
    9900012    2    1    2    0    0  0.28622243771E+02 -0.39390122978E+01  0.32386336537E+02  0.47787269008E+02  0.19999990715E+02 0.  0.
         12    1    1    2    0    0 -0.28622243771E+02  0.39390122978E+01 -0.32386336537E+02  0.43400730992E+02  0.00000000000E+00 0. -1.
         11    1    3    3    0    0  0.42916764800E+01  0.19158995732E+00  0.67497007764E-01  0.42964810983E+01  0.51100000000E-03 0. -1.
        -11    1    3    3    0    0  0.51818641370E+01  0.22403516821E+01  0.31334758526E+00  0.56541204943E+01  0.51100000000E-03 0.  1.
        -12    1    3    3    0    0  0.19148703154E+02 -0.63709539373E+01  0.32005491944E+02  0.37836667415E+02  0.00000000000E+00 0.  1.
</event>
<event>
 7    1  0.2486105E-010  0.4778727E+02  0.7816164E-02  0.1312668E+00
        -11   -1    0    0    0    0  0.00000000000E+00  0.00000000000E+00  0.45593999997E+02  0.45594000000E+02  0.51100000000E-03 0.  1.
         11   -1    0    0    0    0 -0.00000000000E+00 -0.00000000000E+00 -0.45593999997E+02  0.45594000000E+02  0.51100000000E-03 0. -1.
    9900012    2    1    2    0    0 -0.60731257203E+01 -0.14482392861E+02  0.40459863119E+02  0.47787273248E+02  0.20000010047E+02 0.  0.
         12    1    1    2    0    0  0.60731257203E+01  0.14482392861E+02 -0.40459863119E+02  0.43400726752E+02  0.00000000000E+00 0. -1.
         11    1    3    3    0    0 -0.31211825207E+01 -0.54504760223E+01  0.35616073999E+01  0.72204235838E+01  0.51100000000E-03 0. -1.
        -11    1    3    3    0    0 -0.77219068700E+01 -0.75792497395E+01  0.17819217705E+02  0.20846999597E+02  0.51100000000E-03 0.  1.
         12    1    3    3    0    0  0.47699636704E+01 -0.14526670990E+01  0.19079038015E+02  0.19719850067E+02  0.00000000000E+00 0. -1.
</event>
<event>
 7    1  0.2486105E-010  0.4778727E+02  0.7816164E-02  0.1312668E+00
        -11   -1    0    0    0    0  0.00000000000E+00  0.00000000000E+00  0.45593999997E+02  0.45594000000E+02  0.51100000000E-03 0.  1.
         11   -1    0    0    0    0 -0.00000000000E+00 -0.00000000000E+00 -0.45593999997E+02  0.45594000000E+02  0.51100000000E-03 0. -1.
    9900012    2    1    2    0    0 -0.40044790584E+02  0.16010354543E+02  0.48689417537E+01  0.47787270751E+02  0.19999998661E+02 0.  0.
         12    1    1    2    0    0  0.40044790584E+02 -0.16010354543E+02 -0.48689417537E+01  0.43400729249E+02  0.00000000000E+00 0. -1.
         11    1    3    3    0    0 -0.10109499332E+02  0.16079292298E+00  0.67654878954E+01  0.12165510997E+02  0.51100000000E-03 0. -1.
        -11    1    3    3    0    0 -0.84685192850E+01 -0.48878315259E+00 -0.16606066109E+01  0.86436301650E+01  0.51100000000E-03 0.  1.
        -12    1    3    3    0    0 -0.21466771968E+02  0.16338344773E+02 -0.23593953072E+00  0.26978129589E+02  0.00000000000E+00 0.  1.
</event>
<event>
 7    1  0.2486105E-010  0.4778723E+02  0.7816164E-02  0.1312668E+00
        -11   -1    0    0    0    0  0.00000000000E+00  0.00000000000E+00  0.45593999997E+02  0.45594000000E+02  0.51100000000E-03 0. -1.
         11   -1    0    0    0    0 -0.00000000000E+00 -0.00000000000E+00 -0.45593999997E+02  0.45594000000E+02  0.51100000000E-03 0.  1.
    9900012    2    1    2    0    0  0.39801260458E+02  0.12795503830E+02 -0.11651665026E+02  0.47787233299E+02  0.19999827904E+02 0.  0.
         12    1    1    2    0    0 -0.39801260458E+02 -0.12795503830E+02  0.11651665026E+02  0.43400766701E+02  0.00000000000E+00 0. -1.
         11    1    3    3    0    0  0.51010910286E+01  0.89604061844E+00 -0.69230949890E+01  0.86459969327E+01  0.51100000000E-03 0. -1.
        -11    1    3    3    0    0  0.15477537650E+02 -0.56226360924E+00 -0.48596114775E+01  0.16232256036E+02  0.51100000000E-03 0.  1.
        -12    1    3    3    0    0  0.19222631780E+02  0.12461726821E+02  0.13104144037E+00  0.22908980330E+02  0.00000000000E+00 0.  1.
</event>
<event>
 7    1  0.2486105E-010  0.4778727E+02  0.7816164E-02  0.1312668E+00
        -11   -1    0    0    0    0  0.00000000000E+00  0.00000000000E+00  0.45593999997E+02  0.45594000000E+02  0.51100000000E-03 0. -1.
         11   -1    0    0    0    0 -0.00000000000E+00 -0.00000000000E+00 -0.45593999997E+02  0.45594000000E+02  0.51100000000E-03 0.  1.
    9900012    2    1    2    0    0  0.86558708122E+01 -0.37962947693E+02 -0.19170641458E+02  0.47787274304E+02  0.20000014861E+02 0.  0.
         12    1    1    2    0    0 -0.86558708122E+01  0.37962947693E+02  0.19170641458E+02  0.43400725696E+02  0.00000000000E+00 0. -1.
         11    1    3    3    0    0 -0.33598599286E+01 -0.12972908570E+02 -0.42853455194E+01  0.14069442135E+02  0.51100000000E-03 0. -1.
        -11    1    3    3    0    0  0.19717379921E+01 -0.17460568360E+02 -0.71333629621E+01  0.18964283946E+02  0.51100000000E-03 0.  1.
         12    1    3    3    0    0  0.10043992749E+02 -0.75294707630E+01 -0.77519329763E+01  0.14753548223E+02  0.00000000000E+00 0. -1.
</event>
<event>
 7    1  0.2486105E-010  0.4778728E+02  0.7816164E-02  0.1312668E+00
        -11   -1    0    0    0    0  0.00000000000E+00  0.00000000000E+00  0.45593999997E+02  0.45594000000E+02  0.51100000000E-03 0.  1.
         11   -1    0    0    0    0 -0.00000000000E+00 -0.00000000000E+00 -0.45593999997E+02  0.45594000000E+02  0.51100000000E-03 0. -1.
    9900012    2    1    2    0    0 -0.30488313626E+02  0.23078081500E+02  0.20530166587E+02  0.47787275887E+02  0.20000022080E+02 0.  0.
         12    1    1    2    0    0  0.30488313626E+02 -0.23078081500E+02 -0.20530166587E+02  0.43400724113E+02  0.00000000000E+00 0. -1.
         11    1    3    3    0    0 -0.93125358259E+01  0.44051621757E+01  0.11423055274E+02  0.15382294022E+02  0.51100000000E-03 0. -1.
        -11    1    3    3    0    0 -0.19802370061E+02  0.15408420704E+02  0.12018011484E+02  0.27820601879E+02  0.51100000000E-03 0.  1.
         12    1    3    3    0    0 -0.13734077389E+01  0.32644986196E+01 -0.29109001713E+01  0.45843799866E+01  0.00000000000E+00 0. -1.
</event>
<event>
 7    1  0.2486105E-010  0.4778727E+02  0.7816164E-02  0.1312668E+00
        -11   -1    0    0    0    0  0.00000000000E+00  0.00000000000E+00  0.45593999997E+02  0.45594000000E+02  0.51100000000E-03 0. -1.
         11   -1    0    0    0    0 -0.00000000000E+00 -0.00000000000E+00 -0.45593999997E+02  0.45594000000E+02  0.51100000000E-03 0.  1.
    9900012    2    1    2    0    0 -0.17463131154E+02 -0.39658304073E+02  0.24251727938E+01  0.47787268500E+02  0.19999988399E+02 0.  0.
         12    1    1    2    0    0  0.17463131154E+02  0.39658304073E+02 -0.24251727938E+01  0.43400731500E+02  0.00000000000E+00 0. -1.
         11    1    3    3    0    0 -0.49115156440E+01 -0.70802987487E+01 -0.45055904138E+01  0.97238861331E+01  0.51100000000E-03 0. -1.
        -11    1    3    3    0    0 -0.30932793939E+01 -0.23349764805E+02  0.98881027130E+00  0.23574512505E+02  0.51100000000E-03 0.  1.
        -12    1    3    3    0    0 -0.94583361157E+01 -0.92282405197E+01  0.59419529363E+01  0.14488869861E+02  0.00000000000E+00 0.  1.
</event>
<event>
 7    1  0.2486105E-010  0.4778726E+02  0.7816164E-02  0.1312668E+00
        -11   -1    0    0    0    0  0.00000000000E+00  0.00000000000E+00  0.45593999997E+02  0.45594000000E+02  0.51100000000E-03 0. -1.
         11   -1    0    0    0    0 -0.00000000000E+00 -0.00000000000E+00 -0.45593999997E+02  0.45594000000E+02  0.51100000000E-03 0.  1.
    9900012    2    1    2    0    0 -0.10103209231E+02  0.41581566300E+02  0.72472552457E+01  0.47787260359E+02  0.19999951282E+02 0.  0.
         12    1    1    2    0    0  0.10103209231E+02 -0.41581566300E+02 -0.72472552457E+01  0.43400739641E+02  0.00000000000E+00 0. -1.
         11    1    3    3    0    0  0.18100430119E+01  0.17312467683E+02  0.40683466071E+01  0.17875940181E+02  0.51100000000E-03 0. -1.
        -11    1    3    3    0    0 -0.14080054974E+01  0.11782056259E+02  0.60867765176E+01  0.13335973073E+02  0.51100000000E-03 0.  1.
         12    1    3    3    0    0 -0.10505246746E+02  0.12487042358E+02 -0.29078678790E+01  0.16575347105E+02  0.00000000000E+00 0. -1.
</event>
<event>
 7    1  0.2486105E-010  0.4778728E+02  0.7816164E-02  0.1312668E+00
        -11   -1    0    0    0    0  0.00000000000E+00  0.00000000000E+00  0.45593999997E+02  0.45594000000E+02  0.51100000000E-03 0.  1.
         11   -1    0    0    0    0 -0.00000000000E+00 -0.00000000000E+00 -0.45593999997E+02  0.45594000000E+02  0.51100000000E-03 0. -1.
    9900012    2    1    2    0    0 -0.57895958657E+01  0.30073822908E+02  0.30751723391E+02  0.47787277240E+02  0.20000028249E+02 0.  0.
         12    1    1    2    0    0  0.57895958657E+01 -0.30073822908E+02 -0.30751723391E+02  0.43400722760E+02  0.00000000000E+00 0. -1.
         11    1    3    3    0    0  0.42222838676E+01  0.58856426457E+01  0.52497798472E+01  0.89458738599E+01  0.51100000000E-03 0.  1.
        -11    1    3    3    0    0 -0.21769323167E+01  0.10256443159E+02  0.24117501402E+01  0.10758726672E+02  0.51100000000E-03 0. -1.
        -12    1    3    3    0    0 -0.78349474165E+01  0.13931737103E+02  0.23090193403E+02  0.28082676709E+02  0.00000000000E+00 0.  1.
</event>
<event>
 7    1  0.2486105E-010  0.4778727E+02  0.7816164E-02  0.1312668E+00
        -11   -1    0    0    0    0  0.00000000000E+00  0.00000000000E+00  0.45593999997E+02  0.45594000000E+02  0.51100000000E-03 0.  1.
         11   -1    0    0    0    0 -0.00000000000E+00 -0.00000000000E+00 -0.45593999997E+02  0.45594000000E+02  0.51100000000E-03 0. -1.
    9900012    2    1    2    0    0 -0.34014053346E+02 -0.40289283179E+01  0.26653994232E+02  0.47787268475E+02  0.19999988286E+02 0.  0.
         12    1    1    2    0    0  0.34014053346E+02  0.40289283179E+01 -0.26653994232E+02  0.43400731525E+02  0.00000000000E+00 0. -1.
         11    1    3    3    0    0  0.76688743898E+00 -0.29208992279E+01  0.65774696651E+01  0.72376015433E+01  0.51100000000E-03 0. -1.
        -11    1    3    3    0    0 -0.75110431653E+01  0.20032185921E+01  0.48430563827E+01  0.91588126712E+01  0.51100000000E-03 0.  1.
         12    1    3    3    0    0 -0.27269897619E+02 -0.31112476821E+01  0.15233468184E+02  0.31390854261E+02  0.00000000000E+00 0. -1.
</event>
<event>
 7    1  0.2486105E-010  0.4778727E+02  0.7816164E-02  0.1312668E+00
        -11   -1    0    0    0    0  0.00000000000E+00  0.00000000000E+00  0.45593999997E+02  0.45594000000E+02  0.51100000000E-03 0. -1.
         11   -1    0    0    0    0 -0.00000000000E+00 -0.00000000000E+00 -0.45593999997E+02  0.45594000000E+02  0.51100000000E-03 0.  1.
    9900012    2    1    2    0    0  0.40384663224E+02 -0.40100653752E+01 -0.15382511312E+02  0.47787270717E+02  0.19999998509E+02 0.  0.
         12    1    1    2    0    0 -0.40384663224E+02  0.40100653752E+01  0.15382511312E+02  0.43400729283E+02  0.00000000000E+00 0. -1.
         11    1    3    3    0    0  0.13654823511E+02 -0.13948988070E+01  0.46404495418E+00  0.13733728037E+02  0.51100000000E-03 0. -1.
        -11    1    3    3    0    0  0.25522333134E+02  0.87619640172E+00 -0.10630163672E+02  0.27661482041E+02  0.51100000000E-03 0.  1.
        -12    1    3    3    0    0  0.12075065780E+01 -0.34913629699E+01 -0.52163925941E+01  0.63920606395E+01  0.00000000000E+00 0.  1.
</event>
<event>
 7    1  0.2486105E-010  0.4778727E+02  0.7816164E-02  0.1312668E+00
        -11   -1    0    0    0    0  0.00000000000E+00  0.00000000000E+00  0.45593999997E+02  0.45594000000E+02  0.51100000000E-03 0.  1.
         11   -1    0    0    0    0 -0.00000000000E+00 -0.00000000000E+00 -0.45593999997E+02  0.45594000000E+02  0.51100000000E-03 0. -1.
    9900012    2    1    2    0    0  0.74994250858E+01 -0.42565128084E+02  0.39486486688E+01  0.47787270377E+02  0.19999996959E+02 0.  0.
         12    1    1    2    0    0 -0.74994250858E+01  0.42565128084E+02 -0.39486486688E+01  0.43400729623E+02  0.00000000000E+00 0. -1.
         11    1    3    3    0    0 -0.10658711801E+01 -0.43869173924E+01  0.14626481309E+01  0.47455732422E+01  0.51100000000E-03 0. -1.
        -11    1    3    3    0    0  0.55757046336E+01 -0.38315340099E+02 -0.62627982400E+00  0.38723971848E+02  0.51100000000E-03 0.  1.
         12    1    3    3    0    0  0.29895916323E+01  0.13712940660E+00  0.31122803619E+01  0.43177252869E+01  0.00000000000E+00 0. -1.
</event>
<event>
 7    1  0.2486105E-010  0.4778727E+02  0.7816164E-02  0.1312668E+00
        -11   -1    0    0    0    0  0.00000000000E+00  0.00000000000E+00  0.45593999997E+02  0.45594000000E+02  0.51100000000E-03 0.  1.
         11   -1    0    0    0    0 -0.00000000000E+00 -0.00000000000E+00 -0.45593999997E+02  0.45594000000E+02  0.51100000000E-03 0. -1.
    9900012    2    1    2    0    0 -0.24284636996E+02  0.82317124039E+01  0.35015979061E+02  0.47787268753E+02  0.19999989554E+02 0.  0.
         12    1    1    2    0    0  0.24284636996E+02 -0.82317124039E+01 -0.35015979061E+02  0.43400731247E+02  0.00000000000E+00 0. -1.
         11    1    3    3    0    0 -0.29170111872E+01  0.19079436934E+01  0.31099813947E+01  0.46713154400E+01  0.51100000000E-03 0. -1.
        -11    1    3    3    0    0 -0.13040262915E+02  0.36450000235E+01  0.43761311997E+01  0.14229722647E+02  0.51100000000E-03 0.  1.
         12    1    3    3    0    0 -0.83273628941E+01  0.26787686870E+01  0.27529866467E+02  0.28886230666E+02  0.00000000000E+00 0. -1.
</event>
<event>
 7    1  0.2486105E-010  0.4778727E+02  0.7816164E-02  0.1312668E+00
        -11   -1    0    0    0    0  0.00000000000E+00  0.00000000000E+00  0.45593999997E+02  0.45594000000E+02  0.51100000000E-03 0.  1.
         11   -1    0    0    0    0 -0.00000000000E+00 -0.00000000000E+00 -0.45593999997E+02  0.45594000000E+02  0.51100000000E-03 0. -1.
    9900012    2    1    2    0    0  0.22468272806E+02  0.31585574492E+02  0.19523098310E+02  0.47787272281E+02  0.20000005640E+02 0.  0.
         12    1    1    2    0    0 -0.22468272806E+02 -0.31585574492E+02 -0.19523098310E+02  0.43400727719E+02  0.00000000000E+00 0. -1.
         11    1    3    3    0    0  0.51032193748E+01  0.49692514217E+01  0.10080895560E+02  0.12343450216E+02  0.51100000000E-03 0. -1.
        -11    1    3    3    0    0  0.15093359187E+02  0.18567334472E+02  0.11903935771E+02  0.26725626055E+02  0.51100000000E-03 0.  1.
        -12    1    3    3    0    0  0.22716942442E+01  0.80489885988E+01 -0.24617330218E+01  0.87181960103E+01  0.00000000000E+00 0.  1.
</event>
<event>
 7    1  0.2486105E-010  0.4778727E+02  0.7816164E-02  0.1312668E+00
        -11   -1    0    0    0    0  0.00000000000E+00  0.00000000000E+00  0.45593999997E+02  0.45594000000E+02  0.51100000000E-03 0. -1.
         11   -1    0    0    0    0 -0.00000000000E+00 -0.00000000000E+00 -0.45593999997E+02  0.45594000000E+02  0.51100000000E-03 0.  1.
    9900012    2    1    2    0    0  0.15624127665E+02  0.38180800379E+02  0.13480979436E+02  0.47787266257E+02  0.19999978171E+02 0.  0.
         12    1    1    2    0    0 -0.15624127665E+02 -0.38180800379E+02 -0.13480979436E+02  0.43400733743E+02  0.00000000000E+00 0. -1.
         11    1    3    3    0    0  0.49239911707E+01  0.12350509154E+02 -0.25550143627E+00  0.13298347516E+02  0.51100000000E-03 0. -1.
        -11    1    3    3    0    0  0.36846087826E+01 -0.83822232916E+00  0.23720770628E+00  0.37861888900E+01  0.51100000000E-03 0.  1.
         12    1    3    3    0    0  0.70155277119E+01  0.26668513554E+02  0.13499273166E+02  0.30702729851E+02  0.00000000000E+00 0. -1.
</event>
<event>
 7    1  0.2486105E-010  0.4778727E+02  0.7816164E-02  0.1312668E+00
        -11   -1    0    0    0    0  0.00000000000E+00  0.00000000000E+00  0.45593999997E+02  0.45594000000E+02  0.51100000000E-03 0. -1.
         11   -1    0    0    0    0 -0.00000000000E+00 -0.00000000000E+00 -0.45593999997E+02  0.45594000000E+02  0.51100000000E-03 0.  1.
    9900012    2    1    2    0    0  0.36934834459E+02  0.36991015701E+00 -0.22788252412E+02  0.47787270996E+02  0.19999999781E+02 0.  0.
         12    1    1    2    0    0 -0.36934834459E+02 -0.36991015701E+00  0.22788252412E+02  0.43400729004E+02  0.00000000000E+00 0. -1.
         11    1    3    3    0    0  0.59231229737E+01  0.32356314120E+01 -0.75502010755E+01  0.10127103877E+02  0.51100000000E-03 0. -1.
        -11    1    3    3    0    0  0.20331566115E+02  0.24575768325E+01 -0.15563807206E+02  0.25722448554E+02  0.51100000000E-03 0.  1.
         12    1    3    3    0    0  0.10680145370E+02 -0.53232980875E+01  0.32575586988E+00  0.11937718565E+02  0.00000000000E+00 0. -1.
</event>
<event>
 7    1  0.2486105E-010  0.4778727E+02  0.7816164E-02  0.1312668E+00
        -11   -1    0    0    0    0  0.00000000000E+00  0.00000000000E+00  0.45593999997E+02  0.45594000000E+02  0.51100000000E-03 0. -1.
         11   -1    0    0    0    0 -0.00000000000E+00 -0.00000000000E+00 -0.45593999997E+02  0.45594000000E+02  0.51100000000E-03 0.  1.
    9900012    2    1    2    0    0  0.90437848244E+01  0.13413942291E+02 -0.40272813592E+02  0.47787269519E+02  0.19999993043E+02 0.  0.
         12    1    1    2    0    0 -0.90437848244E+01 -0.13413942291E+02  0.40272813592E+02  0.43400730481E+02  0.00000000000E+00 0. -1.
         11    1    3    3    0    0  0.43949923616E+01  0.17212063722E+00 -0.11167672713E+02  0.12002603779E+02  0.51100000000E-03 0. -1.
        -11    1    3    3    0    0  0.87599298170E+01  0.13544701808E+02 -0.19332564391E+02  0.25178231941E+02  0.51100000000E-03 0.  1.
         12    1    3    3    0    0 -0.41111373541E+01 -0.30288015484E+00 -0.97725764872E+01  0.10606433799E+02  0.00000000000E+00 0. -1.
</event>
<event>
 7    1  0.2486105E-010  0.4778727E+02  0.7816164E-02  0.1312668E+00
        -11   -1    0    0    0    0  0.00000000000E+00  0.00000000000E+00  0.45593999997E+02  0.45594000000E+02  0.51100000000E-03 0.  1.
         11   -1    0    0    0    0 -0.00000000000E+00 -0.00000000000E+00 -0.45593999997E+02  0.45594000000E+02  0.51100000000E-03 0. -1.
    9900012    2    1    2    0    0  0.47736012477E+01 -0.46736553768E+01  0.42883477562E+02  0.47787274531E+02  0.20000015895E+02 0.  0.
         12    1    1    2    0    0 -0.47736012477E+01  0.46736553768E+01 -0.42883477562E+02  0.43400725469E+02  0.00000000000E+00 0. -1.
         11    1    3    3    0    0  0.17512595418E+01 -0.56598260524E+01  0.31852837775E+02  0.32399132944E+02  0.51100000000E-03 0.  1.
        -11    1    3    3    0    0  0.17831780828E+01  0.11810583146E+01  0.12933425050E+02  0.13109084888E+02  0.51100000000E-03 0. -1.
         12    1    3    3    0    0  0.12391636230E+01 -0.19488763900E+00 -0.19027852634E+01  0.22790566985E+01  0.00000000000E+00 0. -1.
</event>
<event>
 7    1  0.2486105E-010  0.4778728E+02  0.7816164E-02  0.1312668E+00
        -11   -1    0    0    0    0  0.00000000000E+00  0.00000000000E+00  0.45593999997E+02  0.45594000000E+02  0.51100000000E-03 0.  1.
         11   -1    0    0    0    0 -0.00000000000E+00 -0.00000000000E+00 -0.45593999997E+02  0.45594000000E+02  0.51100000000E-03 0. -1.
    9900012    2    1    2    0    0  0.63808855435E+01  0.30993960665E+02  0.29703218384E+02  0.47787280186E+02  0.20000041678E+02 0.  0.
         12    1    1    2    0    0 -0.63808855435E+01 -0.30993960665E+02 -0.29703218384E+02  0.43400719814E+02  0.00000000000E+00 0. -1.
         11    1    3    3    0    0  0.35509588151E+00  0.12598853855E+02  0.90311059408E+01  0.15505421191E+02  0.51100000000E-03 0. -1.
        -11    1    3    3    0    0  0.24666100889E+01 -0.25444944304E+01  0.26248709277E+01  0.44100527078E+01  0.51100000000E-03 0.  1.
        -12    1    3    3    0    0  0.35591795731E+01  0.20939601241E+02  0.18047241516E+02  0.27871806287E+02  0.00000000000E+00 0.  1.
</event>
<event>
 7    1  0.2486105E-010  0.4778727E+02  0.7816164E-02  0.1312668E+00
        -11   -1    0    0    0    0  0.00000000000E+00  0.00000000000E+00  0.45593999997E+02  0.45594000000E+02  0.51100000000E-03 0. -1.
         11   -1    0    0    0    0 -0.00000000000E+00 -0.00000000000E+00 -0.45593999997E+02  0.45594000000E+02  0.51100000000E-03 0.  1.
    9900012    2    1    2    0    0 -0.12984460009E+02 -0.15908721230E+02 -0.38235318896E+02  0.47787271620E+02  0.20000002623E+02 0.  0.
         12    1    1    2    0    0  0.12984460009E+02  0.15908721230E+02  0.38235318896E+02  0.43400728380E+02  0.00000000000E+00 0. -1.
         11    1    3    3    0    0 -0.16061095917E+02 -0.90533294227E+01 -0.31310180603E+02  0.36335230635E+02  0.51100000000E-03 0.  1.
        -11    1    3    3    0    0  0.66483740910E+00 -0.44149242081E+01 -0.66501984341E+01  0.80099128595E+01  0.51100000000E-03 0. -1.
        -12    1    3    3    0    0  0.24117984988E+01 -0.24404675993E+01 -0.27493985890E+00  0.34421281249E+01  0.00000000000E+00 0.  1.
</event>
<event>
 7    1  0.2486105E-010  0.4778727E+02  0.7816164E-02  0.1312668E+00
        -11   -1    0    0    0    0  0.00000000000E+00  0.00000000000E+00  0.45593999997E+02  0.45594000000E+02  0.51100000000E-03 0.  1.
         11   -1    0    0    0    0 -0.00000000000E+00 -0.00000000000E+00 -0.45593999997E+02  0.45594000000E+02  0.51100000000E-03 0. -1.
    9900012    2    1    2    0    0 -0.22095792944E+02  0.76722214326E+01  0.36558674587E+02  0.47787265731E+02  0.19999975772E+02 0.  0.
         12    1    1    2    0    0  0.22095792944E+02 -0.76722214326E+01 -0.36558674587E+02  0.43400734269E+02  0.00000000000E+00 0. -1.
         11    1    3    3    0    0 -0.33034147228E+01  0.19399142432E+01  0.27318348711E+01  0.47051820502E+01  0.51100000000E-03 0. -1.
        -11    1    3    3    0    0 -0.22390729367E+02  0.43093050196E+01  0.29297571144E+02  0.37124958540E+02  0.51100000000E-03 0.  1.
         12    1    3    3    0    0  0.35983511459E+01  0.14230021699E+01  0.45292685718E+01  0.59571251406E+01  0.00000000000E+00 0. -1.
</event>
<event>
 7    1  0.2486105E-010  0.4778727E+02  0.7816164E-02  0.1312668E+00
        -11   -1    0    0    0    0  0.00000000000E+00  0.00000000000E+00  0.45593999997E+02  0.45594000000E+02  0.51100000000E-03 0.  1.
         11   -1    0    0    0    0 -0.00000000000E+00 -0.00000000000E+00 -0.45593999997E+02  0.45594000000E+02  0.51100000000E-03 0. -1.
    9900012    2    1    2    0    0 -0.32183300416E+02  0.23508346754E+02  0.17181847451E+02  0.47787273340E+02  0.20000010466E+02 0.  0.
         12    1    1    2    0    0  0.32183300416E+02 -0.23508346754E+02 -0.17181847451E+02  0.43400726660E+02  0.00000000000E+00 0. -1.
         11    1    3    3    0    0 -0.47802128876E+01 -0.57346382393E-02  0.82629351324E+01  0.95460235387E+01  0.51100000000E-03 0. -1.
        -11    1    3    3    0    0 -0.34864009076E+01  0.46607397954E+01  0.47306407603E+01  0.75004299206E+01  0.51100000000E-03 0.  1.
        -12    1    3    3    0    0 -0.23916686621E+02  0.18853341597E+02  0.41882715582E+01  0.30740819881E+02  0.00000000000E+00 0.  1.
</event>
<event>
 7    1  0.2486105E-010  0.4778727E+02  0.7816164E-02  0.1312668E+00
        -11   -1    0    0    0    0  0.00000000000E+00  0.00000000000E+00  0.45593999997E+02  0.45594000000E+02  0.51100000000E-03 0.  1.
         11   -1    0    0    0    0 -0.00000000000E+00 -0.00000000000E+00 -0.45593999997E+02  0.45594000000E+02  0.51100000000E-03 0. -1.
    9900012    2    1    2    0    0  0.14858068192E+02  0.35978515709E+02  0.19193943344E+02  0.47787271387E+02  0.20000001563E+02 0.  0.
         12    1    1    2    0    0 -0.14858068192E+02 -0.35978515709E+02 -0.19193943344E+02  0.43400728613E+02  0.00000000000E+00 0. -1.
         11    1    3    3    0    0  0.37844236373E+01  0.14359478559E+02  0.15610405927E+00  0.14850618018E+02  0.51100000000E-03 0. -1.
        -11    1    3    3    0    0  0.33382400197E+01  0.17278678288E+02  0.15270346944E+02  0.23299786820E+02  0.51100000000E-03 0.  1.
         12    1    3    3    0    0  0.77354045346E+01  0.43403588619E+01  0.37674923414E+01  0.96368665502E+01  0.00000000000E+00 0. -1.
</event>
<event>
 7    1  0.2486105E-010  0.4778727E+02  0.7816164E-02  0.1312668E+00
        -11   -1    0    0    0    0  0.00000000000E+00  0.00000000000E+00  0.45593999997E+02  0.45594000000E+02  0.51100000000E-03 0. -1.
         11   -1    0    0    0    0 -0.00000000000E+00 -0.00000000000E+00 -0.45593999997E+02  0.45594000000E+02  0.51100000000E-03 0.  1.
    9900012    2    1    2    0    0  0.20321580308E+02  0.38000813439E+02 -0.51570194566E+01  0.47787270768E+02  0.19999998739E+02 0.  0.
         12    1    1    2    0    0 -0.20321580308E+02 -0.38000813439E+02  0.51570194566E+01  0.43400729232E+02  0.00000000000E+00 0. -1.
         11    1    3    3    0    0  0.85323536696E+01  0.68901989590E+01  0.36564465976E+01  0.11560514816E+02  0.51100000000E-03 0. -1.
        -11    1    3    3    0    0  0.40440181864E+00  0.53180724742E+01 -0.57893614959E+01  0.78716035509E+01  0.51100000000E-03 0.  1.
        -12    1    3    3    0    0  0.11384824820E+02  0.25792542006E+02 -0.30241045582E+01  0.28355152401E+02  0.00000000000E+00 0.  1.
</event>
<event>
 7    1  0.2486105E-010  0.4778727E+02  0.7816164E-02  0.1312668E+00
        -11   -1    0    0    0    0  0.00000000000E+00  0.00000000000E+00  0.45593999997E+02  0.45594000000E+02  0.51100000000E-03 0. -1.
         11   -1    0    0    0    0 -0.00000000000E+00 -0.00000000000E+00 -0.45593999997E+02  0.45594000000E+02  0.51100000000E-03 0.  1.
    9900012    2    1    2    0    0  0.69691299370E+00  0.37727897419E+02 -0.21441628481E+02  0.47787270014E+02  0.19999995303E+02 0.  0.
         12    1    1    2    0    0 -0.69691299370E+00 -0.37727897419E+02  0.21441628481E+02  0.43400729986E+02  0.00000000000E+00 0. -1.
         11    1    3    3    0    0  0.96116001944E+00  0.25951496857E+02 -0.16403753764E+02  0.30716236024E+02  0.51100000000E-03 0. -1.
        -11    1    3    3    0    0 -0.36851914570E+01  0.12300827343E+02 -0.41965826724E+01  0.13509341056E+02  0.51100000000E-03 0.  1.
         12    1    3    3    0    0  0.34209444312E+01 -0.52442678026E+00 -0.84129204368E+00  0.35616929334E+01  0.00000000000E+00 0. -1.
</event>
<event>
 7    1  0.2486105E-010  0.4778724E+02  0.7816164E-02  0.1312668E+00
        -11   -1    0    0    0    0  0.00000000000E+00  0.00000000000E+00  0.45593999997E+02  0.45594000000E+02  0.51100000000E-03 0.  1.
         11   -1    0    0    0    0 -0.00000000000E+00 -0.00000000000E+00 -0.45593999997E+02  0.45594000000E+02  0.51100000000E-03 0. -1.
    9900012    2    1    2    0    0  0.32648601603E+02  0.62895528634E+01  0.27895087584E+02  0.47787244555E+02  0.19999879223E+02 0.  0.
         12    1    1    2    0    0 -0.32648601603E+02 -0.62895528634E+01 -0.27895087584E+02  0.43400755445E+02  0.00000000000E+00 0. -1.
         11    1    3    3    0    0  0.29132238906E+02  0.25043881736E+01  0.17908342418E+02  0.34288015869E+02  0.51100000000E-03 0. -1.
        -11    1    3    3    0    0  0.57590840949E+01  0.29147930645E+01  0.84932948046E+01  0.10667667276E+02  0.51100000000E-03 0.  1.
        -12    1    3    3    0    0 -0.22427213976E+01  0.87037162528E+00  0.14934503619E+01  0.28315614097E+01  0.00000000000E+00 0.  1.
</event>
<event>
 7    1  0.2486105E-010  0.4778727E+02  0.7816164E-02  0.1312668E+00
        -11   -1    0    0    0    0  0.00000000000E+00  0.00000000000E+00  0.45593999997E+02  0.45594000000E+02  0.51100000000E-03 0.  1.
         11   -1    0    0    0    0 -0.00000000000E+00 -0.00000000000E+00 -0.45593999997E+02  0.45594000000E+02  0.51100000000E-03 0. -1.
    9900012    2    1    2    0    0  0.39299223879E+02 -0.14044671393E+02  0.11913920943E+02  0.47787270695E+02  0.19999998405E+02 0.  0.
         12    1    1    2    0    0 -0.39299223879E+02  0.14044671393E+02 -0.11913920943E+02  0.43400729305E+02  0.00000000000E+00 0. -1.
         11    1    3    3    0    0  0.26335773360E+01 -0.51829322259E+01  0.44352267822E+01  0.73123014786E+01  0.51100000000E-03 0. -1.
        -11    1    3    3    0    0  0.78405753807E+01 -0.75096048578E+01  0.30775515242E+01  0.11284507569E+02  0.51100000000E-03 0.  1.
        -12    1    3    3    0    0  0.28825071162E+02 -0.13521343098E+01  0.44011426365E+01  0.29190461647E+02  0.00000000000E+00 0.  1.
</event>
<event>
 7    1  0.2486105E-010  0.4778727E+02  0.7816164E-02  0.1312668E+00
        -11   -1    0    0    0    0  0.00000000000E+00  0.00000000000E+00  0.45593999997E+02  0.45594000000E+02  0.51100000000E-03 0. -1.
         11   -1    0    0    0    0 -0.00000000000E+00 -0.00000000000E+00 -0.45593999997E+02  0.45594000000E+02  0.51100000000E-03 0.  1.
    9900012    2    1    2    0    0  0.71900129302E+01  0.40230914818E+01 -0.42611519187E+02  0.47787272836E+02  0.20000008167E+02 0.  0.
         12    1    1    2    0    0 -0.71900129302E+01 -0.40230914818E+01  0.42611519187E+02  0.43400727164E+02  0.00000000000E+00 0. -1.
         11    1    3    3    0    0  0.69204684702E+01  0.50754239879E+01 -0.23796428552E+02  0.25296695923E+02  0.51100000000E-03 0. -1.
        -11    1    3    3    0    0  0.54614105005E+01  0.24844744548E+01 -0.10091383410E+02  0.11740342301E+02  0.51100000000E-03 0.  1.
         12    1    3    3    0    0 -0.51918660404E+01 -0.35368069609E+01 -0.87237072248E+01  0.10750234612E+02  0.00000000000E+00 0. -1.
</event>
<event>
 7    1  0.2486105E-010  0.4778727E+02  0.7816164E-02  0.1312668E+00
        -11   -1    0    0    0    0  0.00000000000E+00  0.00000000000E+00  0.45593999997E+02  0.45594000000E+02  0.51100000000E-03 0.  1.
         11   -1    0    0    0    0 -0.00000000000E+00 -0.00000000000E+00 -0.45593999997E+02  0.45594000000E+02  0.51100000000E-03 0. -1.
    9900012    2    1    2    0    0 -0.21848135579E+02  0.22409150283E+01  0.37433417046E+02  0.47787269129E+02  0.19999991265E+02 0.  0.
         12    1    1    2    0    0  0.21848135579E+02 -0.22409150283E+01 -0.37433417046E+02  0.43400730871E+02  0.00000000000E+00 0. -1.
         11    1    3    3    0    0 -0.50144123275E+01  0.34038495928E+01  0.44230540363E+01  0.75029281157E+01  0.51100000000E-03 0. -1.
        -11    1    3    3    0    0 -0.16281860391E+02  0.28304544126E+00  0.14789668611E+02  0.21998031512E+02  0.51100000000E-03 0.  1.
         12    1    3    3    0    0 -0.55186286030E+00 -0.14459800057E+01  0.18220694399E+02  0.18286309501E+02  0.00000000000E+00 0. -1.
</event>
<event>
 7    1  0.2486105E-010  0.4778727E+02  0.7816164E-02  0.1312668E+00
        -11   -1    0    0    0    0  0.00000000000E+00  0.00000000000E+00  0.45593999997E+02  0.45594000000E+02  0.51100000000E-03 0.  1.
         11   -1    0    0    0    0 -0.00000000000E+00 -0.00000000000E+00 -0.45593999997E+02  0.45594000000E+02  0.51100000000E-03 0. -1.
    9900012    2    1    2    0    0  0.42112667342E+02  0.67829219829E+01  0.80086726825E+01  0.47787267064E+02  0.19999981850E+02 0.  0.
         12    1    1    2    0    0 -0.42112667342E+02 -0.67829219829E+01 -0.80086726825E+01  0.43400732936E+02  0.00000000000E+00 0. -1.
         11    1    3    3    0    0  0.28427038743E+01  0.54114194507E+00 -0.14460381789E+01  0.32349384225E+01  0.51100000000E-03 0. -1.
        -11    1    3    3    0    0  0.26133048277E+02  0.12968949817E+01  0.14156096473E+02  0.29749171693E+02  0.51100000000E-03 0.  1.
        -12    1    3    3    0    0  0.13136915191E+02  0.49448850562E+01 -0.47013856119E+01  0.14803156948E+02  0.00000000000E+00 0.  1.
</event>
<event>
 7    1  0.2486105E-010  0.4778727E+02  0.7816164E-02  0.1312668E+00
        -11   -1    0    0    0    0  0.00000000000E+00  0.00000000000E+00  0.45593999997E+02  0.45594000000E+02  0.51100000000E-03 0. -1.
         11   -1    0    0    0    0 -0.00000000000E+00 -0.00000000000E+00 -0.45593999997E+02  0.45594000000E+02  0.51100000000E-03 0.  1.
    9900012    2    1    2    0    0  0.40690366477E+02 -0.93340692218E+01  0.11865604778E+02  0.47787270179E+02  0.19999996054E+02 0.  0.
         12    1    1    2    0    0 -0.40690366477E+02  0.93340692218E+01 -0.11865604778E+02  0.43400729821E+02  0.00000000000E+00 0. -1.
         11    1    3    3    0    0  0.14564938076E+02  0.34845286035E+01  0.21585866854E+01  0.15130725610E+02  0.51100000000E-03 0. -1.
        -11    1    3    3    0    0  0.14620779079E+02 -0.54548349757E+01 -0.48649693698E+00  0.15612785947E+02  0.51100000000E-03 0.  1.
        -12    1    3    3    0    0  0.11504649322E+02 -0.73637628496E+01  0.10193515029E+02  0.17043758622E+02  0.00000000000E+00 0.  1.
</event>
<event>
 7    1  0.2486105E-010  0.4778727E+02  0.7816164E-02  0.1312668E+00
        -11   -1    0    0    0    0  0.00000000000E+00  0.00000000000E+00  0.45593999997E+02  0.45594000000E+02  0.51100000000E-03 0. -1.
         11   -1    0    0    0    0 -0.00000000000E+00 -0.00000000000E+00 -0.45593999997E+02  0.45594000000E+02  0.51100000000E-03 0.  1.
    9900012    2    1    2    0    0  0.13216848425E+01 -0.27730225040E+02 -0.33360322503E+02  0.47787270178E+02  0.19999996050E+02 0.  0.
         12    1    1    2    0    0 -0.13216848425E+01  0.27730225040E+02  0.33360322503E+02  0.43400729822E+02  0.00000000000E+00 0. -1.
         11    1    3    3    0    0  0.38469736621E+01 -0.19080555274E+02 -0.23022613901E+02  0.30148093588E+02  0.51100000000E-03 0. -1.
        -11    1    3    3    0    0  0.40053050040E+01 -0.44705203296E+01 -0.21831488658E+01  0.63870305639E+01  0.51100000000E-03 0.  1.
         12    1    3    3    0    0 -0.65305938236E+01 -0.41791494361E+01 -0.81545597362E+01  0.11252146026E+02  0.00000000000E+00 0. -1.
</event>
<event>
 7    1  0.2486105E-010  0.4778727E+02  0.7816164E-02  0.1312668E+00
        -11   -1    0    0    0    0  0.00000000000E+00  0.00000000000E+00  0.45593999997E+02  0.45594000000E+02  0.51100000000E-03 0.  1.
         11   -1    0    0    0    0 -0.00000000000E+00 -0.00000000000E+00 -0.45593999997E+02  0.45594000000E+02  0.51100000000E-03 0. -1.
    9900012    2    1    2    0    0  0.27944591338E+01  0.34207960484E+02  0.26563694466E+02  0.47787269292E+02  0.19999992009E+02 0.  0.
         12    1    1    2    0    0 -0.27944591338E+01 -0.34207960484E+02 -0.26563694466E+02  0.43400730708E+02  0.00000000000E+00 0. -1.
         11    1    3    3    0    0 -0.57413156683E+01  0.17930512124E+02  0.55966134851E+01  0.19641488065E+02  0.51100000000E-03 0. -1.
        -11    1    3    3    0    0  0.55931715460E+00  0.34547750654E+01  0.55776702075E+01  0.65847332244E+01  0.51100000000E-03 0.  1.
        -12    1    3    3    0    0  0.79764576475E+01  0.12822673294E+02  0.15389410774E+02  0.21561048003E+02  0.00000000000E+00 0.  1.
</event>
<event>
 7    1  0.2486105E-010  0.4778727E+02  0.7816164E-02  0.1312668E+00
        -11   -1    0    0    0    0  0.00000000000E+00  0.00000000000E+00  0.45593999997E+02  0.45594000000E+02  0.51100000000E-03 0.  1.
         11   -1    0    0    0    0 -0.00000000000E+00 -0.00000000000E+00 -0.45593999997E+02  0.45594000000E+02  0.51100000000E-03 0. -1.
    9900012    2    1    2    0    0  0.36115897593E+02  0.26362588159E+01  0.23923110174E+02  0.47787272819E+02  0.20000008090E+02 0.  0.
         12    1    1    2    0    0 -0.36115897593E+02 -0.26362588159E+01 -0.23923110174E+02  0.43400727181E+02  0.00000000000E+00 0. -1.
         11    1    3    3    0    0  0.20633559543E+01  0.35048362246E+00 -0.19160014544E+01  0.28374880437E+01  0.51100000000E-03 0. -1.
        -11    1    3    3    0    0  0.14207439484E+02  0.70765510863E+01  0.77047449613E+01  0.17643469249E+02  0.51100000000E-03 0.  1.
        -12    1    3    3    0    0  0.19845102154E+02 -0.47907758929E+01  0.18134366667E+02  0.27306315526E+02  0.00000000000E+00 0.  1.
</event>
<event>
 7    1  0.2486105E-010  0.4778725E+02  0.7816164E-02  0.1312668E+00
        -11   -1    0    0    0    0  0.00000000000E+00  0.00000000000E+00  0.45593999997E+02  0.45594000000E+02  0.51100000000E-03 0.  1.
         11   -1    0    0    0    0 -0.00000000000E+00 -0.00000000000E+00 -0.45593999997E+02  0.45594000000E+02  0.51100000000E-03 0. -1.
    9900012    2    1    2    0    0  0.35265406585E+01 -0.42148886511E+02  0.97293239878E+01  0.47787252675E+02  0.19999916247E+02 0.  0.
         12    1    1    2    0    0 -0.35265406585E+01  0.42148886511E+02 -0.97293239878E+01  0.43400747325E+02  0.00000000000E+00 0. -1.
         11    1    3    3    0    0 -0.23871719808E+01 -0.19175052456E+02  0.36338784180E+01  0.19661797969E+02  0.51100000000E-03 0. -1.
        -11    1    3    3    0    0  0.66788430810E+00 -0.22131448104E+02  0.50636726144E+01  0.22713164580E+02  0.51100000000E-03 0.  1.
         12    1    3    3    0    0  0.52458283312E+01 -0.84238594978E+00  0.10317729554E+01  0.54122901253E+01  0.00000000000E+00 0. -1.
</event>
<event>
 7    1  0.2486105E-010  0.4778727E+02  0.7816164E-02  0.1312668E+00
        -11   -1    0    0    0    0  0.00000000000E+00  0.00000000000E+00  0.45593999997E+02  0.45594000000E+02  0.51100000000E-03 0.  1.
         11   -1    0    0    0    0 -0.00000000000E+00 -0.00000000000E+00 -0.45593999997E+02  0.45594000000E+02  0.51100000000E-03 0. -1.
    9900012    2    1    2    0    0 -0.34893381340E+02  0.13298594090E+02  0.22118376389E+02  0.47787271432E+02  0.20000001769E+02 0.  0.
         12    1    1    2    0    0  0.34893381340E+02 -0.13298594090E+02 -0.22118376389E+02  0.43400728568E+02  0.00000000000E+00 0. -1.
         11    1    3    3    0    0 -0.29907750758E+01 -0.14919826117E+01  0.25437658518E+01  0.42001776912E+01  0.51100000000E-03 0. -1.
        -11    1    3    3    0    0 -0.19164831170E+02  0.79010052687E+01  0.20166051921E+01  0.20827465875E+02  0.51100000000E-03 0.  1.
         12    1    3    3    0    0 -0.12737775094E+02  0.68895714333E+01  0.17558005345E+02  0.22759627866E+02  0.00000000000E+00 0. -1.
</event>
<event>
 7    1  0.2486105E-010  0.4778727E+02  0.7816164E-02  0.1312668E+00
        -11   -1    0    0    0    0  0.00000000000E+00  0.00000000000E+00  0.45593999997E+02  0.45594000000E+02  0.51100000000E-03 0.  1.
         11   -1    0    0    0    0 -0.00000000000E+00 -0.00000000000E+00 -0.45593999997E+02  0.45594000000E+02  0.51100000000E-03 0. -1.
    9900012    2    1    2    0    0  0.17437345100E+02  0.23255503958E+02  0.32229544150E+02  0.47787274377E+02  0.20000015194E+02 0.  0.
         12    1    1    2    0    0 -0.17437345100E+02 -0.23255503958E+02 -0.32229544150E+02  0.43400725623E+02  0.00000000000E+00 0. -1.
         11    1    3    3    0    0  0.64802338983E+01  0.16076298838E+01  0.92653721173E+01  0.11420377662E+02  0.51100000000E-03 0.  1.
        -11    1    3    3    0    0  0.27878976395E+01 -0.17659241747E+01  0.37555855202E+01  0.49995284077E+01  0.51100000000E-03 0. -1.
         12    1    3    3    0    0  0.81692135619E+01  0.23413798249E+02  0.19208586513E+02  0.31367368307E+02  0.00000000000E+00 0. -1.
</event>
<event>
 7    1  0.2486105E-010  0.4778727E+02  0.7816164E-02  0.1312668E+00
        -11   -1    0    0    0    0  0.00000000000E+00  0.00000000000E+00  0.45593999997E+02  0.45594000000E+02  0.51100000000E-03 0. -1.
         11   -1    0    0    0    0 -0.00000000000E+00 -0.00000000000E+00 -0.45593999997E+02  0.45594000000E+02  0.51100000000E-03 0.  1.
    9900012    2    1    2    0    0  0.40359641665E+02  0.15880378803E+02  0.15924345700E+01  0.47787274729E+02  0.20000016798E+02 0.  0.
         12    1    1    2    0    0 -0.40359641665E+02 -0.15880378803E+02 -0.15924345700E+01  0.43400725271E+02  0.00000000000E+00 0. -1.
         11    1    3    3    0    0  0.17537963789E+02  0.56345958999E+01  0.97975061703E+01  0.20864322952E+02  0.51100000000E-03 0. -1.
        -11    1    3    3    0    0  0.59568408529E+01  0.76746386092E+00 -0.37174187777E+01  0.70634379982E+01  0.51100000000E-03 0.  1.
         12    1    3    3    0    0  0.16864837022E+02  0.94783190418E+01 -0.44876528227E+01  0.19859513778E+02  0.00000000000E+00 0. -1.
</event>
<event>
 7    1  0.2486105E-010  0.4778728E+02  0.7816164E-02  0.1312668E+00
        -11   -1    0    0    0    0  0.00000000000E+00  0.00000000000E+00  0.45593999997E+02  0.45594000000E+02  0.51100000000E-03 0.  1.
         11   -1    0    0    0    0 -0.00000000000E+00 -0.00000000000E+00 -0.45593999997E+02  0.45594000000E+02  0.51100000000E-03 0. -1.
    9900012    2    1    2    0    0  0.15106111035E+02  0.80339337161E+01  0.39885887154E+02  0.47787277936E+02  0.20000031423E+02 0.  0.
         12    1    1    2    0    0 -0.15106111035E+02 -0.80339337161E+01 -0.39885887154E+02  0.43400722064E+02  0.00000000000E+00 0. -1.
         11    1    3    3    0    0  0.23387641559E+01  0.41893652923E+01  0.11574432826E+02  0.12529489009E+02  0.51100000000E-03 0. -1.
        -11    1    3    3    0    0  0.52599303144E+01  0.70404495979E+01  0.40795241679E+01  0.96890306611E+01  0.51100000000E-03 0.  1.
         12    1    3    3    0    0  0.75074165650E+01 -0.31958811742E+01  0.24231930160E+02  0.25568758266E+02  0.00000000000E+00 0. -1.
</event>
<event>
 7    1  0.2486105E-010  0.4778724E+02  0.7816164E-02  0.1312668E+00
        -11   -1    0    0    0    0  0.00000000000E+00  0.00000000000E+00  0.45593999997E+02  0.45594000000E+02  0.51100000000E-03 0.  1.
         11   -1    0    0    0    0 -0.00000000000E+00 -0.00000000000E+00 -0.45593999997E+02  0.45594000000E+02  0.51100000000E-03 0. -1.
    9900012    2    1    2    0    0  0.19885930271E+02  0.15208220737E+02  0.35452590216E+02  0.47787235562E+02  0.19999838223E+02 0.  0.
         12    1    1    2    0    0 -0.19885930271E+02 -0.15208220737E+02 -0.35452590216E+02  0.43400764438E+02  0.00000000000E+00 0. -1.
         11    1    3    3    0    0  0.76367190927E+01  0.13258870834E+02  0.14563204556E+02  0.21123542825E+02  0.51100000000E-03 0. -1.
        -11    1    3    3    0    0  0.73850982112E+01  0.34557120545E+01  0.41144147147E+01  0.91329091805E+01  0.51100000000E-03 0.  1.
        -12    1    3    3    0    0  0.48641129674E+01 -0.15063621517E+01  0.16774970946E+02  0.17530783557E+02  0.00000000000E+00 0.  1.
</event>
<event>
 7    1  0.2486105E-010  0.4778727E+02  0.7816164E-02  0.1312668E+00
        -11   -1    0    0    0    0  0.00000000000E+00  0.00000000000E+00  0.45593999997E+02  0.45594000000E+02  0.51100000000E-03 0.  1.
         11   -1    0    0    0    0 -0.00000000000E+00 -0.00000000000E+00 -0.45593999997E+02  0.45594000000E+02  0.51100000000E-03 0. -1.
    9900012    2    1    2    0    0  0.23757318974E+02  0.36190818290E+02 -0.30721274781E+01  0.47787268432E+02  0.19999988090E+02 0.  0.
         12    1    1    2    0    0 -0.23757318974E+02 -0.36190818290E+02  0.30721274781E+01  0.43400731568E+02  0.00000000000E+00 0. -1.
         11    1    3    3    0    0  0.54013230620E+01  0.97604604190E+01  0.42961759024E+01  0.11953995401E+02  0.51100000000E-03 0. -1.
        -11    1    3    3    0    0  0.55319500492E+01  0.15159686772E+02  0.21601141611E+01  0.16281420940E+02  0.51100000000E-03 0.  1.
        -12    1    3    3    0    0  0.12824045863E+02  0.11270671099E+02 -0.95284175416E+01  0.19551852091E+02  0.00000000000E+00 0.  1.
</event>
<event>
 7    1  0.2486105E-010  0.4778727E+02  0.7816164E-02  0.1312668E+00
        -11   -1    0    0    0    0  0.00000000000E+00  0.00000000000E+00  0.45593999997E+02  0.45594000000E+02  0.51100000000E-03 0.  1.
         11   -1    0    0    0    0 -0.00000000000E+00 -0.00000000000E+00 -0.45593999997E+02  0.45594000000E+02  0.51100000000E-03 0. -1.
    9900012    2    1    2    0    0  0.12967928222E+02  0.41418062168E+02 -0.73331922953E-02  0.47787273164E+02  0.20000009663E+02 0.  0.
         12    1    1    2    0    0 -0.12967928222E+02 -0.41418062168E+02  0.73331922953E-02  0.43400726836E+02  0.00000000000E+00 0. -1.
         11    1    3    3    0    0  0.71052636645E+01  0.59783264342E+01 -0.30850297926E+01  0.97848131192E+01  0.51100000000E-03 0. -1.
        -11    1    3    3    0    0  0.51373189176E+01  0.12268384690E+02  0.60833168351E+01  0.14625732547E+02  0.51100000000E-03 0.  1.
        -12    1    3    3    0    0  0.72534564033E+00  0.23171351044E+02 -0.30056202348E+01  0.23376727497E+02  0.00000000000E+00 0.  1.
</event>
<event>
 7    1  0.2486105E-010  0.4778726E+02  0.7816164E-02  0.1312668E+00
        -11   -1    0    0    0    0  0.00000000000E+00  0.00000000000E+00  0.45593999997E+02  0.45594000000E+02  0.51100000000E-03 0.  1.
         11   -1    0    0    0    0 -0.00000000000E+00 -0.00000000000E+00 -0.45593999997E+02  0.45594000000E+02  0.51100000000E-03 0. -1.
    9900012    2    1    2    0    0  0.81196133997E+01 -0.36381330721E+02 -0.22228236752E+02  0.47787264339E+02  0.19999969427E+02 0.  0.
         12    1    1    2    0    0 -0.81196133997E+01  0.36381330721E+02  0.22228236752E+02  0.43400735661E+02  0.00000000000E+00 0. -1.
         11    1    3    3    0    0 -0.45771762025E+01 -0.15800692818E+02 -0.74919581769E+01  0.18076002686E+02  0.51100000000E-03 0. -1.
        -11    1    3    3    0    0  0.33505275747E+01 -0.13104135749E+02 -0.10080241803E+02  0.16868778374E+02  0.51100000000E-03 0.  1.
        -12    1    3    3    0    0  0.93462620275E+01 -0.74765021537E+01 -0.46560367720E+01  0.12842483279E+02  0.00000000000E+00 0.  1.
</event>
<event>
 7    1  0.2486105E-010  0.4778727E+02  0.7816164E-02  0.1312668E+00
        -11   -1    0    0    0    0  0.00000000000E+00  0.00000000000E+00  0.45593999997E+02  0.45594000000E+02  0.51100000000E-03 0. -1.
         11   -1    0    0    0    0 -0.00000000000E+00 -0.00000000000E+00 -0.45593999997E+02  0.45594000000E+02  0.51100000000E-03 0.  1.
    9900012    2    1    2    0    0 -0.77956623075E+01 -0.28784493006E+02 -0.31532586648E+02  0.47787269486E+02  0.19999992894E+02 0.  0.
         12    1    1    2    0    0  0.77956623075E+01  0.28784493006E+02  0.31532586648E+02  0.43400730514E+02  0.00000000000E+00 0. -1.
         11    1    3    3    0    0  0.49047553847E+01 -0.38200745889E+01 -0.52848303980E+01  0.81595972845E+01  0.51100000000E-03 0.  1.
        -11    1    3    3    0    0 -0.26991569340E+01 -0.15676997496E+02 -0.12254662959E+02  0.20080599173E+02  0.51100000000E-03 0. -1.
        -12    1    3    3    0    0 -0.10001260758E+02 -0.92874209212E+01 -0.13993093291E+02  0.19547073028E+02  0.00000000000E+00 0.  1.
</event>
<event>
 7    1  0.2486105E-010  0.4778727E+02  0.7816164E-02  0.1312668E+00
        -11   -1    0    0    0    0  0.00000000000E+00  0.00000000000E+00  0.45593999997E+02  0.45594000000E+02  0.51100000000E-03 0.  1.
         11   -1    0    0    0    0 -0.00000000000E+00 -0.00000000000E+00 -0.45593999997E+02  0.45594000000E+02  0.51100000000E-03 0. -1.
    9900012    2    1    2    0    0 -0.17520734407E+01 -0.16763809358E+02  0.39994100321E+02  0.47787272748E+02  0.20000007765E+02 0.  0.
         12    1    1    2    0    0  0.17520734407E+01  0.16763809358E+02 -0.39994100321E+02  0.43400727252E+02  0.00000000000E+00 0. -1.
         11    1    3    3    0    0  0.44169853412E+01 -0.43268651831E+01  0.15851382569E+02  0.17014636388E+02  0.51100000000E-03 0. -1.
        -11    1    3    3    0    0  0.32146844251E+01 -0.56154005772E-01  0.22342981060E+01  0.39152825586E+01  0.51100000000E-03 0.  1.
        -12    1    3    3    0    0 -0.93837432070E+01 -0.12380790169E+02  0.21908419646E+02  0.26857353801E+02  0.00000000000E+00 0.  1.
</event>
<event>
 7    1  0.2486105E-010  0.4778727E+02  0.7816164E-02  0.1312668E+00
        -11   -1    0    0    0    0  0.00000000000E+00  0.00000000000E+00  0.45593999997E+02  0.45594000000E+02  0.51100000000E-03 0. -1.
         11   -1    0    0    0    0 -0.00000000000E+00 -0.00000000000E+00 -0.45593999997E+02  0.45594000000E+02  0.51100000000E-03 0.  1.
    9900012    2    1    2    0    0  0.40255837532E+02  0.98130448055E+01 -0.12914901405E+02  0.47787274406E+02  0.20000015326E+02 0.  0.
         12    1    1    2    0    0 -0.40255837532E+02 -0.98130448055E+01  0.12914901405E+02  0.43400725594E+02  0.00000000000E+00 0. -1.
         11    1    3    3    0    0  0.43190318189E+01 -0.24908423710E+01  0.13221280394E+00  0.49875657446E+01  0.51100000000E-03 0. -1.
        -11    1    3    3    0    0  0.20350403018E+02  0.15668966085E+01 -0.12358392286E+02  0.23860509805E+02  0.51100000000E-03 0.  1.
         12    1    3    3    0    0  0.15586402695E+02  0.10736990568E+02 -0.68872192311E+00  0.18939198856E+02  0.00000000000E+00 0. -1.
</event>
<event>
 7    1  0.2486105E-010  0.4778731E+02  0.7816164E-02  0.1312668E+00
        -11   -1    0    0    0    0  0.00000000000E+00  0.00000000000E+00  0.45593999997E+02  0.45594000000E+02  0.51100000000E-03 0.  1.
         11   -1    0    0    0    0 -0.00000000000E+00 -0.00000000000E+00 -0.45593999997E+02  0.45594000000E+02  0.51100000000E-03 0. -1.
    9900012    2    1    2    0    0  0.12898310662E+02  0.13218912908E+02  0.39274854921E+02  0.47787305242E+02  0.20000155922E+02 0.  0.
         12    1    1    2    0    0 -0.12898310662E+02 -0.13218912908E+02 -0.39274854921E+02  0.43400694758E+02  0.00000000000E+00 0. -1.
         11    1    3    3    0    0  0.31522426522E+01  0.16573527794E+01 -0.42307168364E+00  0.35864246659E+01  0.51100000000E-03 0. -1.
        -11    1    3    3    0    0  0.99550063660E+01  0.46368879838E+01  0.32061805313E+02  0.33890444702E+02  0.51100000000E-03 0.  1.
         12    1    3    3    0    0 -0.20893835590E+00  0.69246721444E+01  0.76361212914E+01  0.10310435874E+02  0.00000000000E+00 0. -1.
</event>
<event>
 7    1  0.2486105E-010  0.4778730E+02  0.7816164E-02  0.1312668E+00
        -11   -1    0    0    0    0  0.00000000000E+00  0.00000000000E+00  0.45593999997E+02  0.45594000000E+02  0.51100000000E-03 0. -1.
         11   -1    0    0    0    0 -0.00000000000E+00 -0.00000000000E+00 -0.45593999997E+02  0.45594000000E+02  0.51100000000E-03 0.  1.
    9900012    2    1    2    0    0 -0.15977158533E+02 -0.74230599238E+01 -0.39664211716E+02  0.47787296037E+02  0.20000113953E+02 0.  0.
         12    1    1    2    0    0  0.15977158533E+02  0.74230599238E+01  0.39664211716E+02  0.43400703963E+02  0.00000000000E+00 0. -1.
         11    1    3    3    0    0 -0.59133469824E+00 -0.50295877102E+01 -0.22911339824E+02  0.23464354286E+02  0.51100000000E-03 0.  1.
        -11    1    3    3    0    0 -0.74772795432E+00  0.58562993324E+00  0.82284106698E+00  0.12566332779E+01  0.51100000000E-03 0. -1.
        -12    1    3    3    0    0 -0.14638095880E+02 -0.29791021468E+01 -0.17575712959E+02  0.23066308474E+02  0.00000000000E+00 0.  1.
</event>
<event>
 7    1  0.2486105E-010  0.4778727E+02  0.7816164E-02  0.1312668E+00
        -11   -1    0    0    0    0  0.00000000000E+00  0.00000000000E+00  0.45593999997E+02  0.45594000000E+02  0.51100000000E-03 0.  1.
         11   -1    0    0    0    0 -0.00000000000E+00 -0.00000000000E+00 -0.45593999997E+02  0.45594000000E+02  0.51100000000E-03 0. -1.
    9900012    2    1    2    0    0  0.11017995838E+02  0.10854468511E+02  0.40551294084E+02  0.47787272231E+02  0.20000005411E+02 0.  0.
         12    1    1    2    0    0 -0.11017995838E+02 -0.10854468511E+02 -0.40551294084E+02  0.43400727769E+02  0.00000000000E+00 0. -1.
         11    1    3    3    0    0  0.86386261893E+01  0.31383984686E+01  0.18812544836E+02  0.20937699273E+02  0.51100000000E-03 0. -1.
        -11    1    3    3    0    0  0.73909347095E+01  0.56439187176E+01  0.87274801627E+01  0.12753377773E+02  0.51100000000E-03 0.  1.
         12    1    3    3    0    0 -0.50115650610E+01  0.20721513248E+01  0.13011269086E+02  0.14096195185E+02  0.00000000000E+00 0. -1.
</event>
<event>
 7    1  0.2486105E-010  0.4778727E+02  0.7816164E-02  0.1312668E+00
        -11   -1    0    0    0    0  0.00000000000E+00  0.00000000000E+00  0.45593999997E+02  0.45594000000E+02  0.51100000000E-03 0. -1.
         11   -1    0    0    0    0 -0.00000000000E+00 -0.00000000000E+00 -0.45593999997E+02  0.45594000000E+02  0.51100000000E-03 0.  1.
    9900012    2    1    2    0    0 -0.32725975510E+02 -0.99445150419E+01 -0.26715922132E+02  0.47787270193E+02  0.19999996116E+02 0.  0.
         12    1    1    2    0    0  0.32725975510E+02  0.99445150419E+01  0.26715922132E+02  0.43400729807E+02  0.00000000000E+00 0. -1.
         11    1    3    3    0    0 -0.18347186924E+02  0.46764715203E+00 -0.69780701239E+01  0.19634954159E+02  0.51100000000E-03 0. -1.
        -11    1    3    3    0    0 -0.84616925780E+01 -0.69193451638E+01 -0.52677308240E+01  0.12133695524E+02  0.51100000000E-03 0.  1.
        -12    1    3    3    0    0 -0.59170960074E+01 -0.34928170301E+01 -0.14470121184E+02  0.16018620510E+02  0.00000000000E+00 0.  1.
</event>
<event>
 7    1  0.2486105E-010  0.4778728E+02  0.7816164E-02  0.1312668E+00
        -11   -1    0    0    0    0  0.00000000000E+00  0.00000000000E+00  0.45593999997E+02  0.45594000000E+02  0.51100000000E-03 0. -1.
         11   -1    0    0    0    0 -0.00000000000E+00 -0.00000000000E+00 -0.45593999997E+02  0.45594000000E+02  0.51100000000E-03 0.  1.
    9900012    2    1    2    0    0  0.42797392775E+02 -0.63470197908E+01 -0.34236431510E+01  0.47787276262E+02  0.20000023788E+02 0.  0.
         12    1    1    2    0    0 -0.42797392775E+02  0.63470197908E+01  0.34236431510E+01  0.43400723738E+02  0.00000000000E+00 0. -1.
         11    1    3    3    0    0  0.19054855884E+02 -0.12491321707E+01 -0.10551112054E+02  0.21816824466E+02  0.51100000000E-03 0. -1.
        -11    1    3    3    0    0  0.10266557751E+02  0.45816600002E+00  0.17003003525E+01  0.10416484325E+02  0.51100000000E-03 0.  1.
         12    1    3    3    0    0  0.13475979140E+02 -0.55560536201E+01  0.54271685508E+01  0.15553967471E+02  0.00000000000E+00 0. -1.
</event>
<event>
 7    1  0.2486105E-010  0.4778728E+02  0.7816164E-02  0.1312668E+00
        -11   -1    0    0    0    0  0.00000000000E+00  0.00000000000E+00  0.45593999997E+02  0.45594000000E+02  0.51100000000E-03 0.  1.
         11   -1    0    0    0    0 -0.00000000000E+00 -0.00000000000E+00 -0.45593999997E+02  0.45594000000E+02  0.51100000000E-03 0. -1.
    9900012    2    1    2    0    0  0.11914718943E+02  0.22555403342E+02  0.35112904488E+02  0.47787276400E+02  0.20000024418E+02 0.  0.
         12    1    1    2    0    0 -0.11914718943E+02 -0.22555403342E+02 -0.35112904488E+02  0.43400723600E+02  0.00000000000E+00 0. -1.
         11    1    3    3    0    0  0.49279954617E+00  0.12332940821E+02  0.99355714898E+01  0.15844868626E+02  0.51100000000E-03 0. -1.
        -11    1    3    3    0    0  0.10554256989E+02  0.91924697546E+01  0.11268877062E+02  0.17968901783E+02  0.51100000000E-03 0.  1.
         12    1    3    3    0    0  0.86766240730E+00  0.10299927668E+01  0.13908455936E+02  0.13973505991E+02  0.00000000000E+00 0. -1.
</event>
<event>
 7    1  0.2486105E-010  0.4778727E+02  0.7816164E-02  0.1312668E+00
        -11   -1    0    0    0    0  0.00000000000E+00  0.00000000000E+00  0.45593999997E+02  0.45594000000E+02  0.51100000000E-03 0.  1.
         11   -1    0    0    0    0 -0.00000000000E+00 -0.00000000000E+00 -0.45593999997E+02  0.45594000000E+02  0.51100000000E-03 0. -1.
    9900012    2    1    2    0    0 -0.19709198960E+02 -0.24598695128E+02  0.29834127435E+02  0.47787268607E+02  0.19999988886E+02 0.  0.
         12    1    1    2    0    0  0.19709198960E+02  0.24598695128E+02 -0.29834127435E+02  0.43400731393E+02  0.00000000000E+00 0. -1.
         11    1    3    3    0    0 -0.11314560036E+01 -0.34221483752E+01  0.15402036326E+02  0.15818154615E+02  0.51100000000E-03 0. -1.
        -11    1    3    3    0    0 -0.68665504389E+00 -0.13164664724E+01  0.19952981918E+01  0.24871257020E+01  0.51100000000E-03 0.  1.
         12    1    3    3    0    0 -0.17891087913E+02 -0.19860080280E+02  0.12436792918E+02  0.29481988289E+02  0.00000000000E+00 0. -1.
</event>
<event>
 7    1  0.2486105E-010  0.4778727E+02  0.7816164E-02  0.1312668E+00
        -11   -1    0    0    0    0  0.00000000000E+00  0.00000000000E+00  0.45593999997E+02  0.45594000000E+02  0.51100000000E-03 0.  1.
         11   -1    0    0    0    0 -0.00000000000E+00 -0.00000000000E+00 -0.45593999997E+02  0.45594000000E+02  0.51100000000E-03 0. -1.
    9900012    2    1    2    0    0  0.99338659813E+01 -0.13829111872E+02  0.39921138780E+02  0.47787270167E+02  0.19999996001E+02 0.  0.
         12    1    1    2    0    0 -0.99338659813E+01  0.13829111872E+02 -0.39921138780E+02  0.43400729833E+02  0.00000000000E+00 0. -1.
         11    1    3    3    0    0  0.35378289272E+01 -0.39171248934E+01  0.15743057540E+01  0.55080431931E+01  0.51100000000E-03 0.  1.
        -11    1    3    3    0    0  0.20883290671E+01 -0.23136818124E+01  0.17591329617E+00  0.31217282986E+01  0.51100000000E-03 0. -1.
        -12    1    3    3    0    0  0.43077079869E+01 -0.75983051666E+01  0.38170919730E+02  0.39157498676E+02  0.00000000000E+00 0.  1.
</event>
<event>
 7    1  0.2486105E-010  0.4778727E+02  0.7816164E-02  0.1312668E+00
        -11   -1    0    0    0    0  0.00000000000E+00  0.00000000000E+00  0.45593999997E+02  0.45594000000E+02  0.51100000000E-03 0.  1.
         11   -1    0    0    0    0 -0.00000000000E+00 -0.00000000000E+00 -0.45593999997E+02  0.45594000000E+02  0.51100000000E-03 0. -1.
    9900012    2    1    2    0    0  0.12125460062E+02  0.43792450697E+01  0.41441750408E+02  0.47787271366E+02  0.20000001466E+02 0.  0.
         12    1    1    2    0    0 -0.12125460062E+02 -0.43792450697E+01 -0.41441750408E+02  0.43400728634E+02  0.00000000000E+00 0. -1.
         11    1    3    3    0    0 -0.11605315856E+01 -0.25355791900E+01  0.16465733311E+01  0.32383945692E+01  0.51100000000E-03 0.  1.
        -11    1    3    3    0    0 -0.85170038690E+00 -0.10369790973E+01 -0.23032955981E+00  0.13615326528E+01  0.51100000000E-03 0. -1.
        -12    1    3    3    0    0  0.14137692035E+02  0.79518033570E+01  0.40025506637E+02  0.43187344144E+02  0.00000000000E+00 0.  1.
</event>
<event>
 7    1  0.2486105E-010  0.4778727E+02  0.7816164E-02  0.1312668E+00
        -11   -1    0    0    0    0  0.00000000000E+00  0.00000000000E+00  0.45593999997E+02  0.45594000000E+02  0.51100000000E-03 0. -1.
         11   -1    0    0    0    0 -0.00000000000E+00 -0.00000000000E+00 -0.45593999997E+02  0.45594000000E+02  0.51100000000E-03 0.  1.
    9900012    2    1    2    0    0  0.36943022945E+02  0.10951828205E+02 -0.19972334148E+02  0.47787267096E+02  0.19999981996E+02 0.  0.
         12    1    1    2    0    0 -0.36943022945E+02 -0.10951828205E+02  0.19972334148E+02  0.43400732904E+02  0.00000000000E+00 0. -1.
         11    1    3    3    0    0  0.48109190333E+01  0.38895904202E+01 -0.79580789674E+01  0.10079924439E+02  0.51100000000E-03 0. -1.
        -11    1    3    3    0    0  0.25711311090E+02  0.63518609562E+01 -0.15166284485E+02  0.30519401057E+02  0.51100000000E-03 0.  1.
        -12    1    3    3    0    0  0.64207928217E+01  0.71037682877E+00  0.31520293048E+01  0.71879415994E+01  0.00000000000E+00 0.  1.
</event>
<event>
 7    1  0.2486105E-010  0.4778727E+02  0.7816164E-02  0.1312668E+00
        -11   -1    0    0    0    0  0.00000000000E+00  0.00000000000E+00  0.45593999997E+02  0.45594000000E+02  0.51100000000E-03 0. -1.
         11   -1    0    0    0    0 -0.00000000000E+00 -0.00000000000E+00 -0.45593999997E+02  0.45594000000E+02  0.51100000000E-03 0.  1.
    9900012    2    1    2    0    0 -0.35965702704E+02  0.20375625667E+02  0.13225933912E+02  0.47787271663E+02  0.20000002822E+02 0.  0.
         12    1    1    2    0    0  0.35965702704E+02 -0.20375625667E+02 -0.13225933912E+02  0.43400728337E+02  0.00000000000E+00 0. -1.
         11    1    3    3    0    0 -0.23918148471E+02  0.77699760952E+01  0.11757274834E+01  0.25176034044E+02  0.51100000000E-03 0. -1.
        -11    1    3    3    0    0  0.45427488673E+00 -0.67729847585E+00  0.97578825227E+00  0.12717161132E+01  0.51100000000E-03 0.  1.
        -12    1    3    3    0    0 -0.12501829119E+02  0.13282948048E+02  0.11074418176E+02  0.21339521506E+02  0.00000000000E+00 0.  1.
</event>
<event>
 7    1  0.2486105E-010  0.4778727E+02  0.7816164E-02  0.1312668E+00
        -11   -1    0    0    0    0  0.00000000000E+00  0.00000000000E+00  0.45593999997E+02  0.45594000000E+02  0.51100000000E-03 0.  1.
         11   -1    0    0    0    0 -0.00000000000E+00 -0.00000000000E+00 -0.45593999997E+02  0.45594000000E+02  0.51100000000E-03 0. -1.
    9900012    2    1    2    0    0 -0.80797157552E+00 -0.10728274483E+02  0.42046106904E+02  0.47787265015E+02  0.19999972511E+02 0.  0.
         12    1    1    2    0    0  0.80797157552E+00  0.10728274483E+02 -0.42046106904E+02  0.43400734985E+02  0.00000000000E+00 0. -1.
         11    1    3    3    0    0  0.54143710530E+01 -0.54105651965E+00  0.97130727032E+01  0.11133370454E+02  0.51100000000E-03 0.  1.
        -11    1    3    3    0    0  0.33402385039E+01 -0.57995846164E+01  0.11216648189E+02  0.13061606786E+02  0.51100000000E-03 0. -1.
         12    1    3    3    0    0 -0.95625811324E+01 -0.43876333474E+01  0.21116386011E+02  0.23592287775E+02  0.00000000000E+00 0. -1.
</event>
<event>
 7    1  0.2486105E-010  0.4778725E+02  0.7816164E-02  0.1312668E+00
        -11   -1    0    0    0    0  0.00000000000E+00  0.00000000000E+00  0.45593999997E+02  0.45594000000E+02  0.51100000000E-03 0.  1.
         11   -1    0    0    0    0 -0.00000000000E+00 -0.00000000000E+00 -0.45593999997E+02  0.45594000000E+02  0.51100000000E-03 0. -1.
    9900012    2    1    2    0    0  0.37402937063E+01 -0.30051983285E+02  0.31088797146E+02  0.47787253412E+02  0.19999919608E+02 0.  0.
         12    1    1    2    0    0 -0.37402937063E+01  0.30051983285E+02 -0.31088797146E+02  0.43400746588E+02  0.00000000000E+00 0. -1.
         11    1    3    3    0    0  0.37134094870E+00 -0.11481052365E+02  0.19060276178E+02  0.22254136374E+02  0.51100000000E-03 0.  1.
        -11    1    3    3    0    0  0.61943777193E+01 -0.17142715622E+02  0.12802054618E+02  0.22274101933E+02  0.51100000000E-03 0. -1.
         12    1    3    3    0    0 -0.28254249617E+01 -0.14282152984E+01 -0.77353364944E+00  0.32590151058E+01  0.00000000000E+00 0. -1.
</event>
<event>
 7    1  0.2486105E-010  0.4778727E+02  0.7816164E-02  0.1312668E+00
        -11   -1    0    0    0    0  0.00000000000E+00  0.00000000000E+00  0.45593999997E+02  0.45594000000E+02  0.51100000000E-03 0.  1.
         11   -1    0    0    0    0 -0.00000000000E+00 -0.00000000000E+00 -0.45593999997E+02  0.45594000000E+02  0.51100000000E-03 0. -1.
    9900012    2    1    2    0    0 -0.26938338414E+02  0.19646002013E+02  0.27784597688E+02  0.47787270279E+02  0.19999996512E+02 0.  0.
         12    1    1    2    0    0  0.26938338414E+02 -0.19646002013E+02 -0.27784597688E+02  0.43400729721E+02  0.00000000000E+00 0. -1.
         11    1    3    3    0    0 -0.14219634912E+01 -0.31275813834E+01  0.45246439974E+01  0.56812101743E+01  0.51100000000E-03 0. -1.
        -11    1    3    3    0    0 -0.97913582028E+01  0.10740995998E+02  0.14241592067E+02  0.20348529071E+02  0.51100000000E-03 0.  1.
        -12    1    3    3    0    0 -0.15725016720E+02  0.12032587399E+02  0.90183616237E+01  0.21757531035E+02  0.00000000000E+00 0.  1.
</event>
<event>
 7    1  0.2486105E-010  0.4778727E+02  0.7816164E-02  0.1312668E+00
        -11   -1    0    0    0    0  0.00000000000E+00  0.00000000000E+00  0.45593999997E+02  0.45594000000E+02  0.51100000000E-03 0.  1.
         11   -1    0    0    0    0 -0.00000000000E+00 -0.00000000000E+00 -0.45593999997E+02  0.45594000000E+02  0.51100000000E-03 0. -1.
    9900012    2    1    2    0    0  0.19862723400E+02  0.12812333305E+02  0.36399723353E+02  0.47787268143E+02  0.19999986770E+02 0.  0.
         12    1    1    2    0    0 -0.19862723400E+02 -0.12812333305E+02 -0.36399723353E+02  0.43400731857E+02  0.00000000000E+00 0. -1.
         11    1    3    3    0    0  0.11068400394E+02  0.61383332006E+01  0.11751537782E+02  0.17270994825E+02  0.51100000000E-03 0.  1.
        -11    1    3    3    0    0  0.55745737837E+01  0.87498419195E+01  0.71409290454E+01  0.12594779648E+02  0.51100000000E-03 0. -1.
         12    1    3    3    0    0  0.32197492224E+01 -0.20758418150E+01  0.17507256526E+02  0.17921493670E+02  0.00000000000E+00 0. -1.
</event>
<event>
 7    1  0.2486105E-010  0.4778725E+02  0.7816164E-02  0.1312668E+00
        -11   -1    0    0    0    0  0.00000000000E+00  0.00000000000E+00  0.45593999997E+02  0.45594000000E+02  0.51100000000E-03 0.  1.
         11   -1    0    0    0    0 -0.00000000000E+00 -0.00000000000E+00 -0.45593999997E+02  0.45594000000E+02  0.51100000000E-03 0. -1.
    9900012    2    1    2    0    0 -0.24399196450E+02  0.21421811830E+02  0.28799478619E+02  0.47787253713E+02  0.19999920980E+02 0.  0.
         12    1    1    2    0    0  0.24399196450E+02 -0.21421811830E+02 -0.28799478619E+02  0.43400746287E+02  0.00000000000E+00 0. -1.
         11    1    3    3    0    0  0.49391971708E-01 -0.50650924770E+00 -0.84911085208E+00  0.98993973813E+00  0.51100000000E-03 0. -1.
        -11    1    3    3    0    0 -0.95076317431E+01  0.62547348011E+00  0.12150430463E+02  0.15440830261E+02  0.51100000000E-03 0.  1.
        -12    1    3    3    0    0 -0.14940956679E+02  0.21302847598E+02  0.17498159008E+02  0.31356483714E+02  0.00000000000E+00 0.  1.
</event>
<event>
 7    1  0.2486105E-010  0.4778727E+02  0.7816164E-02  0.1312668E+00
        -11   -1    0    0    0    0  0.00000000000E+00  0.00000000000E+00  0.45593999997E+02  0.45594000000E+02  0.51100000000E-03 0. -1.
         11   -1    0    0    0    0 -0.00000000000E+00 -0.00000000000E+00 -0.45593999997E+02  0.45594000000E+02  0.51100000000E-03 0.  1.
    9900012    2    1    2    0    0  0.33456806590E+02 -0.24038535451E+02 -0.13653354907E+02  0.47787271964E+02  0.20000004194E+02 0.  0.
         12    1    1    2    0    0 -0.33456806590E+02  0.24038535451E+02  0.13653354907E+02  0.43400728036E+02  0.00000000000E+00 0. -1.
         11    1    3    3    0    0  0.11046072446E+02 -0.12494478550E+02 -0.77238719172E+00  0.16695037974E+02  0.51100000000E-03 0.  1.
        -11    1    3    3    0    0  0.83695590500E+01 -0.99197862378E+01 -0.17407961905E+01  0.13095115476E+02  0.51100000000E-03 0. -1.
         12    1    3    3    0    0  0.14041175094E+02 -0.16242706630E+01 -0.11140171525E+02  0.17997118514E+02  0.00000000000E+00 0. -1.
</event>
<event>
 7    1  0.2486105E-010  0.4778727E+02  0.7816164E-02  0.1312668E+00
        -11   -1    0    0    0    0  0.00000000000E+00  0.00000000000E+00  0.45593999997E+02  0.45594000000E+02  0.51100000000E-03 0. -1.
         11   -1    0    0    0    0 -0.00000000000E+00 -0.00000000000E+00 -0.45593999997E+02  0.45594000000E+02  0.51100000000E-03 0.  1.
    9900012    2    1    2    0    0  0.17531474497E+02 -0.28406539529E+02 -0.27736971800E+02  0.47787266243E+02  0.19999978108E+02 0.  0.
         12    1    1    2    0    0 -0.17531474497E+02  0.28406539529E+02  0.27736971800E+02  0.43400733757E+02  0.00000000000E+00 0. -1.
         11    1    3    3    0    0  0.23735724197E+01 -0.90555171503E+01 -0.51140346335E+01  0.10667220228E+02  0.51100000000E-03 0. -1.
        -11    1    3    3    0    0  0.62678554727E+01 -0.19503172459E+02 -0.16779676792E+02  0.26480507958E+02  0.51100000000E-03 0.  1.
        -12    1    3    3    0    0  0.88900466048E+01  0.15215008029E+00 -0.58432603740E+01  0.10639538058E+02  0.00000000000E+00 0.  1.
</event>
<event>
 7    1  0.2486105E-010  0.4778727E+02  0.7816164E-02  0.1312668E+00
        -11   -1    0    0    0    0  0.00000000000E+00  0.00000000000E+00  0.45593999997E+02  0.45594000000E+02  0.51100000000E-03 0. -1.
         11   -1    0    0    0    0 -0.00000000000E+00 -0.00000000000E+00 -0.45593999997E+02  0.45594000000E+02  0.51100000000E-03 0.  1.
    9900012    2    1    2    0    0 -0.39758977769E+01 -0.39907520655E+02 -0.16589314885E+02  0.47787270325E+02  0.19999996719E+02 0.  0.
         12    1    1    2    0    0  0.39758977769E+01  0.39907520655E+02  0.16589314885E+02  0.43400729675E+02  0.00000000000E+00 0. -1.
         11    1    3    3    0    0  0.48439001082E+01 -0.67201244950E+01  0.14532766385E-01  0.82839394583E+01  0.51100000000E-03 0. -1.
        -11    1    3    3    0    0  0.83388983421E+00 -0.14315453531E+02 -0.92590779040E+01  0.17069215153E+02  0.51100000000E-03 0.  1.
        -12    1    3    3    0    0 -0.96536877193E+01 -0.18871942629E+02 -0.73447697478E+01  0.22434115713E+02  0.00000000000E+00 0.  1.
</event>
<event>
 7    1  0.2486105E-010  0.4778727E+02  0.7816164E-02  0.1312668E+00
        -11   -1    0    0    0    0  0.00000000000E+00  0.00000000000E+00  0.45593999997E+02  0.45594000000E+02  0.51100000000E-03 0. -1.
         11   -1    0    0    0    0 -0.00000000000E+00 -0.00000000000E+00 -0.45593999997E+02  0.45594000000E+02  0.51100000000E-03 0.  1.
    9900012    2    1    2    0    0 -0.20490844305E+02 -0.35851568326E+02 -0.13357160782E+02  0.47787269638E+02  0.19999993589E+02 0.  0.
         12    1    1    2    0    0  0.20490844305E+02  0.35851568326E+02  0.13357160782E+02  0.43400730362E+02  0.00000000000E+00 0. -1.
         11    1    3    3    0    0 -0.73003801163E+01 -0.68567009983E+01  0.38353976030E+01  0.10724745846E+02  0.51100000000E-03 0. -1.
        -11    1    3    3    0    0 -0.96807618240E+01 -0.12297407325E+02 -0.98135608000E+01  0.18472935670E+02  0.51100000000E-03 0.  1.
        -12    1    3    3    0    0 -0.35097023645E+01 -0.16697460002E+02 -0.73789975854E+01  0.18589588123E+02  0.00000000000E+00 0.  1.
</event>
<event>
 7    1  0.2486105E-010  0.4778727E+02  0.7816164E-02  0.1312668E+00
        -11   -1    0    0    0    0  0.00000000000E+00  0.00000000000E+00  0.45593999997E+02  0.45594000000E+02  0.51100000000E-03 0.  1.
         11   -1    0    0    0    0 -0.00000000000E+00 -0.00000000000E+00 -0.45593999997E+02  0.45594000000E+02  0.51100000000E-03 0. -1.
    9900012    2    1    2    0    0 -0.24539158227E+00 -0.37730974098E+02  0.21446133651E+02  0.47787271066E+02  0.20000000099E+02 0.  0.
         12    1    1    2    0    0  0.24539158227E+00  0.37730974098E+02 -0.21446133651E+02  0.43400728934E+02  0.00000000000E+00 0. -1.
         11    1    3    3    0    0 -0.37793129209E+01 -0.72425894104E+01  0.41221319619E+01  0.91504251100E+01  0.51100000000E-03 0. -1.
        -11    1    3    3    0    0 -0.61301484640E+01 -0.10053121710E+02  0.76958475986E+01  0.14066628836E+02  0.51100000000E-03 0.  1.
         12    1    3    3    0    0  0.96640698026E+01 -0.20435262978E+02  0.96281540905E+01  0.24570217120E+02  0.00000000000E+00 0. -1.
</event>
<event>
 7    1  0.2486105E-010  0.4778727E+02  0.7816164E-02  0.1312668E+00
        -11   -1    0    0    0    0  0.00000000000E+00  0.00000000000E+00  0.45593999997E+02  0.45594000000E+02  0.51100000000E-03 0.  1.
         11   -1    0    0    0    0 -0.00000000000E+00 -0.00000000000E+00 -0.45593999997E+02  0.45594000000E+02  0.51100000000E-03 0. -1.
    9900012    2    1    2    0    0 -0.36913593973E+02 -0.19462439475E+02  0.11925744218E+02  0.47787270220E+02  0.19999996241E+02 0.  0.
         12    1    1    2    0    0  0.36913593973E+02  0.19462439475E+02 -0.11925744218E+02  0.43400729780E+02  0.00000000000E+00 0. -1.
         11    1    3    3    0    0 -0.11076886977E+02 -0.32900883546E+01 -0.31311543817E+01  0.11971893522E+02  0.51100000000E-03 0. -1.
        -11    1    3    3    0    0 -0.22460196328E+02 -0.10658175859E+02  0.77108816668E+01  0.26029115007E+02  0.51100000000E-03 0.  1.
        -12    1    3    3    0    0 -0.33765106679E+01 -0.55141752618E+01  0.73460169325E+01  0.97862616908E+01  0.00000000000E+00 0.  1.
</event>
<event>
 7    1  0.2486105E-010  0.4778727E+02  0.7816164E-02  0.1312668E+00
        -11   -1    0    0    0    0  0.00000000000E+00  0.00000000000E+00  0.45593999997E+02  0.45594000000E+02  0.51100000000E-03 0. -1.
         11   -1    0    0    0    0 -0.00000000000E+00 -0.00000000000E+00 -0.45593999997E+02  0.45594000000E+02  0.51100000000E-03 0.  1.
    9900012    2    1    2    0    0  0.39330171120E+02 -0.17805316107E+02  0.44420270010E+01  0.47787271367E+02  0.20000001471E+02 0.  0.
         12    1    1    2    0    0 -0.39330171120E+02  0.17805316107E+02 -0.44420270010E+01  0.43400728633E+02  0.00000000000E+00 0. -1.
         11    1    3    3    0    0  0.11743849598E+01 -0.29643483975E+01 -0.27703748575E+01  0.42239221782E+01  0.51100000000E-03 0. -1.
        -11    1    3    3    0    0  0.15328663883E+02 -0.63440356646E+01  0.94690850939E+01  0.19101787815E+02  0.51100000000E-03 0.  1.
         12    1    3    3    0    0  0.22827122277E+02 -0.84969320453E+01 -0.22566832354E+01  0.24461561374E+02  0.00000000000E+00 0. -1.
</event>
<event>
 7    1  0.2486105E-010  0.4778729E+02  0.7816164E-02  0.1312668E+00
        -11   -1    0    0    0    0  0.00000000000E+00  0.00000000000E+00  0.45593999997E+02  0.45594000000E+02  0.51100000000E-03 0.  1.
         11   -1    0    0    0    0 -0.00000000000E+00 -0.00000000000E+00 -0.45593999997E+02  0.45594000000E+02  0.51100000000E-03 0. -1.
    9900012    2    1    2    0    0  0.64876629778E+01  0.24004173418E+02  0.35571499392E+02  0.47787289391E+02  0.20000083648E+02 0.  0.
         12    1    1    2    0    0 -0.64876629778E+01 -0.24004173418E+02 -0.35571499392E+02  0.43400710609E+02  0.00000000000E+00 0. -1.
         11    1    3    3    0    0  0.40446126075E+01  0.26677944542E+01 -0.82515378873E+00  0.49149666765E+01  0.51100000000E-03 0. -1.
        -11    1    3    3    0    0  0.23945760895E+01  0.65990390089E+01  0.66243050964E+01  0.96520841667E+01  0.51100000000E-03 0.  1.
         12    1    3    3    0    0  0.48474280827E-01  0.14737339955E+02  0.29772348084E+02  0.33220238548E+02  0.00000000000E+00 0. -1.
</event>
<event>
 7    1  0.2486105E-010  0.4778727E+02  0.7816164E-02  0.1312668E+00
        -11   -1    0    0    0    0  0.00000000000E+00  0.00000000000E+00  0.45593999997E+02  0.45594000000E+02  0.51100000000E-03 0.  1.
         11   -1    0    0    0    0 -0.00000000000E+00 -0.00000000000E+00 -0.45593999997E+02  0.45594000000E+02  0.51100000000E-03 0. -1.
    9900012    2    1    2    0    0 -0.38697449805E+02 -0.10674365991E+02  0.16498137140E+02  0.47787271437E+02  0.20000001791E+02 0.  0.
         12    1    1    2    0    0  0.38697449805E+02  0.10674365991E+02 -0.16498137140E+02  0.43400728563E+02  0.00000000000E+00 0. -1.
         11    1    3    3    0    0 -0.80368378646E+00 -0.87862639895E+00  0.18146096610E+01  0.21704148130E+01  0.51100000000E-03 0. -1.
        -11    1    3    3    0    0 -0.28456507875E+02 -0.27131890888E+01  0.17458934489E+02  0.33495501626E+02  0.51100000000E-03 0.  1.
         12    1    3    3    0    0 -0.94372581436E+01 -0.70825505037E+01 -0.27754070106E+01  0.12121354998E+02  0.00000000000E+00 0. -1.
</event>
<event>
 7    1  0.2486105E-010  0.4778727E+02  0.7816164E-02  0.1312668E+00
        -11   -1    0    0    0    0  0.00000000000E+00  0.00000000000E+00  0.45593999997E+02  0.45594000000E+02  0.51100000000E-03 0.  1.
         11   -1    0    0    0    0 -0.00000000000E+00 -0.00000000000E+00 -0.45593999997E+02  0.45594000000E+02  0.51100000000E-03 0. -1.
    9900012    2    1    2    0    0 -0.16578610369E+02  0.30759156311E+01  0.39991394516E+02  0.47787271734E+02  0.20000003142E+02 0.  0.
         12    1    1    2    0    0  0.16578610369E+02 -0.30759156311E+01 -0.39991394516E+02  0.43400728266E+02  0.00000000000E+00 0. -1.
         11    1    3    3    0    0 -0.52451281820E-01 -0.58254903074E+00  0.17454603175E+02  0.17464400555E+02  0.51100000000E-03 0. -1.
        -11    1    3    3    0    0 -0.76090084299E+01  0.58549643682E+01  0.17207978294E+02  0.19705129643E+02  0.51100000000E-03 0.  1.
         12    1    3    3    0    0 -0.89171506574E+01 -0.21964997063E+01  0.53288130471E+01  0.10617741535E+02  0.00000000000E+00 0. -1.
</event>
<event>
 7    1  0.2486105E-010  0.4778727E+02  0.7816164E-02  0.1312668E+00
        -11   -1    0    0    0    0  0.00000000000E+00  0.00000000000E+00  0.45593999997E+02  0.45594000000E+02  0.51100000000E-03 0. -1.
         11   -1    0    0    0    0 -0.00000000000E+00 -0.00000000000E+00 -0.45593999997E+02  0.45594000000E+02  0.51100000000E-03 0.  1.
    9900012    2    1    2    0    0  0.32946618160E+02 -0.27812041843E+02  0.49632476615E+01  0.47787272506E+02  0.20000006665E+02 0.  0.
         12    1    1    2    0    0 -0.32946618160E+02  0.27812041843E+02 -0.49632476615E+01  0.43400727494E+02  0.00000000000E+00 0. -1.
         11    1    3    3    0    0 -0.83346540050E+00  0.19404718739E+01  0.28190441732E+00  0.21306257364E+01  0.51100000000E-03 0. -1.
        -11    1    3    3    0    0  0.73037926695E+01 -0.98824600607E+01  0.19335112681E+01  0.12439729511E+02  0.51100000000E-03 0.  1.
         12    1    3    3    0    0  0.26476290891E+02 -0.19870053657E+02  0.27478319760E+01  0.33216917259E+02  0.00000000000E+00 0. -1.
</event>
<event>
 7    1  0.2486105E-010  0.4778727E+02  0.7816164E-02  0.1312668E+00
        -11   -1    0    0    0    0  0.00000000000E+00  0.00000000000E+00  0.45593999997E+02  0.45594000000E+02  0.51100000000E-03 0. -1.
         11   -1    0    0    0    0 -0.00000000000E+00 -0.00000000000E+00 -0.45593999997E+02  0.45594000000E+02  0.51100000000E-03 0.  1.
    9900012    2    1    2    0    0  0.26235954560E+02 -0.34081780126E+02 -0.58077818742E+01  0.47787269839E+02  0.19999994505E+02 0.  0.
         12    1    1    2    0    0 -0.26235954560E+02  0.34081780126E+02  0.58077818742E+01  0.43400730161E+02  0.00000000000E+00 0. -1.
         11    1    3    3    0    0  0.73797257613E-02 -0.76167543158E+01 -0.41749455243E+01  0.86859179803E+01  0.51100000000E-03 0.  1.
        -11    1    3    3    0    0  0.17968850484E+00 -0.22518266328E+01  0.24156312093E+01  0.33073078997E+01  0.51100000000E-03 0. -1.
         12    1    3    3    0    0  0.26048886329E+02 -0.24213199177E+02 -0.40484675593E+01  0.35794043959E+02  0.00000000000E+00 0. -1.
</event>
<event>
 7    1  0.2486105E-010  0.4778728E+02  0.7816164E-02  0.1312668E+00
        -11   -1    0    0    0    0  0.00000000000E+00  0.00000000000E+00  0.45593999997E+02  0.45594000000E+02  0.51100000000E-03 0.  1.
         11   -1    0    0    0    0 -0.00000000000E+00 -0.00000000000E+00 -0.45593999997E+02  0.45594000000E+02  0.51100000000E-03 0. -1.
    9900012    2    1    2    0    0 -0.92989935638E+01  0.14218983359E+02  0.39937098919E+02  0.47787278357E+02  0.20000033342E+02 0.  0.
         12    1    1    2    0    0  0.92989935638E+01 -0.14218983359E+02 -0.39937098919E+02  0.43400721643E+02  0.00000000000E+00 0. -1.
         11    1    3    3    0    0  0.12572790635E+01  0.88867429022E+01  0.73122676266E+01  0.11576882489E+02  0.51100000000E-03 0. -1.
        -11    1    3    3    0    0  0.17613912967E+00  0.35670403460E+01  0.15631718939E+02  0.16034507759E+02  0.51100000000E-03 0.  1.
         12    1    3    3    0    0 -0.10732411757E+02  0.17652001106E+01  0.16993112353E+02  0.20175888109E+02  0.00000000000E+00 0. -1.
</event>
<event>
 7    1  0.2486105E-010  0.4778733E+02  0.7816164E-02  0.1312668E+00
        -11   -1    0    0    0    0  0.00000000000E+00  0.00000000000E+00  0.45593999997E+02  0.45594000000E+02  0.51100000000E-03 0.  1.
         11   -1    0    0    0    0 -0.00000000000E+00 -0.00000000000E+00 -0.45593999997E+02  0.45594000000E+02  0.51100000000E-03 0. -1.
    9900012    2    1    2    0    0  0.73341697798E-01 -0.40412880044E+02  0.15824416660E+02  0.47787327021E+02  0.20000255217E+02 0.  0.
         12    1    1    2    0    0 -0.73341697798E-01  0.40412880044E+02 -0.15824416660E+02  0.43400672979E+02  0.00000000000E+00 0. -1.
         11    1    3    3    0    0  0.36355246324E+01 -0.46933553408E+01  0.55104999787E+01  0.81000144435E+01  0.51100000000E-03 0. -1.
        -11    1    3    3    0    0  0.46779755912E+01 -0.89763997626E+01  0.89862549463E+00  0.10162024226E+02  0.51100000000E-03 0.  1.
         12    1    3    3    0    0 -0.82401585258E+01 -0.26743124940E+02  0.94152911862E+01  0.29525288351E+02  0.00000000000E+00 0. -1.
</event>
<event>
 7    1  0.2486105E-010  0.4778729E+02  0.7816164E-02  0.1312668E+00
        -11   -1    0    0    0    0  0.00000000000E+00  0.00000000000E+00  0.45593999997E+02  0.45594000000E+02  0.51100000000E-03 0. -1.
         11   -1    0    0    0    0 -0.00000000000E+00 -0.00000000000E+00 -0.45593999997E+02  0.45594000000E+02  0.51100000000E-03 0.  1.
    9900012    2    1    2    0    0  0.33177706176E+02  0.19644633427E+02 -0.19923603803E+02  0.47787288046E+02  0.20000077518E+02 0.  0.
         12    1    1    2    0    0 -0.33177706176E+02 -0.19644633427E+02  0.19923603803E+02  0.43400711954E+02  0.00000000000E+00 0. -1.
         11    1    3    3    0    0  0.90661036229E+01  0.86459252879E+00 -0.75765956603E+01  0.11846795229E+02  0.51100000000E-03 0. -1.
        -11    1    3    3    0    0  0.17410562729E+02  0.47480542729E+01 -0.49027814712E+01  0.18700507488E+02  0.51100000000E-03 0.  1.
         12    1    3    3    0    0  0.67010398243E+01  0.14031986626E+02 -0.74442266719E+01  0.17239985329E+02  0.00000000000E+00 0. -1.
</event>
<event>
 7    1  0.2486105E-010  0.4778727E+02  0.7816164E-02  0.1312668E+00
        -11   -1    0    0    0    0  0.00000000000E+00  0.00000000000E+00  0.45593999997E+02  0.45594000000E+02  0.51100000000E-03 0. -1.
         11   -1    0    0    0    0 -0.00000000000E+00 -0.00000000000E+00 -0.45593999997E+02  0.45594000000E+02  0.51100000000E-03 0.  1.
    9900012    2    1    2    0    0 -0.31241533574E+02 -0.12233513930E+02 -0.27530550585E+02  0.47787268455E+02  0.19999988195E+02 0.  0.
         12    1    1    2    0    0  0.31241533574E+02  0.12233513930E+02  0.27530550585E+02  0.43400731545E+02  0.00000000000E+00 0. -1.
         11    1    3    3    0    0 -0.11177086145E+02 -0.16978749400E+01 -0.23906838928E+01  0.11555319283E+02  0.51100000000E-03 0.  1.
        -11    1    3    3    0    0 -0.12690308029E+02 -0.50291500615E+00 -0.78681535202E+01  0.14940036193E+02  0.51100000000E-03 0. -1.
        -12    1    3    3    0    0 -0.73741394002E+01 -0.10032723984E+02 -0.17271713172E+02  0.21291912979E+02  0.00000000000E+00 0.  1.
</event>
<event>
 7    1  0.2486105E-010  0.4778727E+02  0.7816164E-02  0.1312668E+00
        -11   -1    0    0    0    0  0.00000000000E+00  0.00000000000E+00  0.45593999997E+02  0.45594000000E+02  0.51100000000E-03 0.  1.
         11   -1    0    0    0    0 -0.00000000000E+00 -0.00000000000E+00 -0.45593999997E+02  0.45594000000E+02  0.51100000000E-03 0. -1.
    9900012    2    1    2    0    0  0.38531115234E+02 -0.75042537442E+01  0.18511155614E+02  0.47787267891E+02  0.19999985621E+02 0.  0.
         12    1    1    2    0    0 -0.38531115234E+02  0.75042537442E+01 -0.18511155614E+02  0.43400732109E+02  0.00000000000E+00 0. -1.
         11    1    3    3    0    0  0.67208058290E+01 -0.30463861385E+01  0.15157583784E+01  0.75330752829E+01  0.51100000000E-03 0. -1.
        -11    1    3    3    0    0  0.22518881269E+02 -0.68964117201E+01  0.36824565890E+01  0.23837386497E+02  0.51100000000E-03 0.  1.
         12    1    3    3    0    0  0.92914281365E+01  0.24385441143E+01  0.13312940647E+02  0.16416806111E+02  0.00000000000E+00 0. -1.
</event>
<event>
 7    1  0.2486105E-010  0.4778722E+02  0.7816164E-02  0.1312668E+00
        -11   -1    0    0    0    0  0.00000000000E+00  0.00000000000E+00  0.45593999997E+02  0.45594000000E+02  0.51100000000E-03 0.  1.
         11   -1    0    0    0    0 -0.00000000000E+00 -0.00000000000E+00 -0.45593999997E+02  0.45594000000E+02  0.51100000000E-03 0. -1.
    9900012    2    1    2    0    0 -0.32168405016E+02 -0.25155527169E+02  0.14697660642E+02  0.47787215943E+02  0.19999748770E+02 0.  0.
         12    1    1    2    0    0  0.32168405016E+02  0.25155527169E+02 -0.14697660642E+02  0.43400784057E+02  0.00000000000E+00 0. -1.
         11    1    3    3    0    0  0.85408528184E+00 -0.39021596995E+01 -0.45515018414E+00  0.40203823127E+01  0.51100000000E-03 0. -1.
        -11    1    3    3    0    0 -0.75359079494E+01 -0.25742993212E+01  0.81636579790E+01  0.11404483218E+02  0.51100000000E-03 0.  1.
        -12    1    3    3    0    0 -0.25486582348E+02 -0.18679068148E+02  0.69891528468E+01  0.32362350412E+02  0.00000000000E+00 0.  1.
</event>
<event>
 7    1  0.2486105E-010  0.4778729E+02  0.7816164E-02  0.1312668E+00
        -11   -1    0    0    0    0  0.00000000000E+00  0.00000000000E+00  0.45593999997E+02  0.45594000000E+02  0.51100000000E-03 0. -1.
         11   -1    0    0    0    0 -0.00000000000E+00 -0.00000000000E+00 -0.45593999997E+02  0.45594000000E+02  0.51100000000E-03 0.  1.
    9900012    2    1    2    0    0 -0.28711348384E+00  0.20621831159E+02 -0.38187424894E+02  0.47787288318E+02  0.20000078756E+02 0.  0.
         12    1    1    2    0    0  0.28711348384E+00 -0.20621831159E+02  0.38187424894E+02  0.43400711682E+02  0.00000000000E+00 0. -1.
         11    1    3    3    0    0  0.34162919649E+01  0.63480450485E+01 -0.83254374871E+01  0.11012794211E+02  0.51100000000E-03 0. -1.
        -11    1    3    3    0    0  0.51316930523E+01  0.72290334136E+01 -0.70851376410E+01  0.11348672756E+02  0.51100000000E-03 0.  1.
         12    1    3    3    0    0 -0.88350985010E+01  0.70447526971E+01 -0.22776849766E+02  0.25425821350E+02  0.00000000000E+00 0. -1.
</event>
<event>
 7    1  0.2486105E-010  0.4778727E+02  0.7816164E-02  0.1312668E+00
        -11   -1    0    0    0    0  0.00000000000E+00  0.00000000000E+00  0.45593999997E+02  0.45594000000E+02  0.51100000000E-03 0.  1.
         11   -1    0    0    0    0 -0.00000000000E+00 -0.00000000000E+00 -0.45593999997E+02  0.45594000000E+02  0.51100000000E-03 0. -1.
    9900012    2    1    2    0    0  0.96782414811E+01 -0.34820638620E+02 -0.24030771795E+02  0.47787271606E+02  0.20000002561E+02 0.  0.
         12    1    1    2    0    0 -0.96782414811E+01  0.34820638620E+02  0.24030771795E+02  0.43400728394E+02  0.00000000000E+00 0. -1.
         11    1    3    3    0    0 -0.92512988208E+00  0.92601900648E+00 -0.39487027307E+01  0.41600036077E+01  0.51100000000E-03 0. -1.
        -11    1    3    3    0    0  0.37339479241E+01 -0.75988333880E+01 -0.16563923499E+00  0.84682980921E+01  0.51100000000E-03 0.  1.
         12    1    3    3    0    0  0.68694234391E+01 -0.28147824238E+02 -0.19916429830E+02  0.35158969906E+02  0.00000000000E+00 0. -1.
</event>
<event>
 7    1  0.2486105E-010  0.4778727E+02  0.7816164E-02  0.1312668E+00
        -11   -1    0    0    0    0  0.00000000000E+00  0.00000000000E+00  0.45593999997E+02  0.45594000000E+02  0.51100000000E-03 0. -1.
         11   -1    0    0    0    0 -0.00000000000E+00 -0.00000000000E+00 -0.45593999997E+02  0.45594000000E+02  0.51100000000E-03 0.  1.
    9900012    2    1    2    0    0  0.31228949525E+02  0.29791911718E+02  0.45626602107E+01  0.47787272351E+02  0.20000005957E+02 0.  0.
         12    1    1    2    0    0 -0.31228949525E+02 -0.29791911718E+02 -0.45626602107E+01  0.43400727649E+02  0.00000000000E+00 0. -1.
         11    1    3    3    0    0  0.75020860036E+01  0.42246377978E+01  0.59700462778E+01  0.10477132802E+02  0.51100000000E-03 0. -1.
        -11    1    3    3    0    0  0.37337161483E+01 -0.86819757637E+00 -0.16284138438E+01  0.41648691714E+01  0.51100000000E-03 0.  1.
        -12    1    3    3    0    0  0.19993147374E+02  0.26435471496E+02  0.22102777665E+00  0.33145270378E+02  0.00000000000E+00 0.  1.
</event>
<event>
 7    1  0.2486105E-010  0.4778727E+02  0.7816164E-02  0.1312668E+00
        -11   -1    0    0    0    0  0.00000000000E+00  0.00000000000E+00  0.45593999997E+02  0.45594000000E+02  0.51100000000E-03 0.  1.
         11   -1    0    0    0    0 -0.00000000000E+00 -0.00000000000E+00 -0.45593999997E+02  0.45594000000E+02  0.51100000000E-03 0. -1.
    9900012    2    1    2    0    0  0.33850731457E+02 -0.11259200009E+02  0.24718045260E+02  0.47787269977E+02  0.19999995134E+02 0.  0.
         12    1    1    2    0    0 -0.33850731457E+02  0.11259200009E+02 -0.24718045260E+02  0.43400730023E+02  0.00000000000E+00 0. -1.
         11    1    3    3    0    0  0.15515315353E+02 -0.27715808289E+01  0.54681376528E+01  0.16682541786E+02  0.51100000000E-03 0. -1.
        -11    1    3    3    0    0  0.13416682407E+02 -0.11061885297E+02  0.93219321903E+01  0.19729954211E+02  0.51100000000E-03 0.  1.
         12    1    3    3    0    0  0.49187336969E+01  0.25742661167E+01  0.99279754171E+01  0.11374773980E+02  0.00000000000E+00 0. -1.
</event>
<event>
 7    1  0.2486105E-010  0.4778727E+02  0.7816164E-02  0.1312668E+00
        -11   -1    0    0    0    0  0.00000000000E+00  0.00000000000E+00  0.45593999997E+02  0.45594000000E+02  0.51100000000E-03 0.  1.
         11   -1    0    0    0    0 -0.00000000000E+00 -0.00000000000E+00 -0.45593999997E+02  0.45594000000E+02  0.51100000000E-03 0. -1.
    9900012    2    1    2    0    0 -0.21231402708E+02  0.18792215539E+02  0.32858839567E+02  0.47787272316E+02  0.20000005797E+02 0.  0.
         12    1    1    2    0    0  0.21231402708E+02 -0.18792215539E+02 -0.32858839567E+02  0.43400727684E+02  0.00000000000E+00 0. -1.
         11    1    3    3    0    0 -0.13768079959E+01  0.73968324349E+01  0.43846480269E+01  0.87082644028E+01  0.51100000000E-03 0. -1.
        -11    1    3    3    0    0 -0.11676390721E+01  0.75758368079E+01  0.73835437575E+01  0.10642997840E+02  0.51100000000E-03 0.  1.
        -12    1    3    3    0    0 -0.18686955640E+02  0.38195462966E+01  0.21090647782E+02  0.28436010073E+02  0.00000000000E+00 0.  1.
</event>
<event>
 7    1  0.2486105E-010  0.4778727E+02  0.7816164E-02  0.1312668E+00
        -11   -1    0    0    0    0  0.00000000000E+00  0.00000000000E+00  0.45593999997E+02  0.45594000000E+02  0.51100000000E-03 0.  1.
         11   -1    0    0    0    0 -0.00000000000E+00 -0.00000000000E+00 -0.45593999997E+02  0.45594000000E+02  0.51100000000E-03 0. -1.
    9900012    2    1    2    0    0  0.10725427775E+02 -0.12876837256E+02  0.40034679305E+02  0.47787270908E+02  0.19999999378E+02 0.  0.
         12    1    1    2    0    0 -0.10725427775E+02  0.12876837256E+02 -0.40034679305E+02  0.43400729092E+02  0.00000000000E+00 0. -1.
         11    1    3    3    0    0  0.65744410864E+00 -0.13012800782E+02  0.11432705848E+02  0.17334127616E+02  0.51100000000E-03 0. -1.
        -11    1    3    3    0    0  0.18996531771E+01 -0.72876593253E+00  0.84487207944E+01  0.86902626715E+01  0.51100000000E-03 0.  1.
         12    1    3    3    0    0  0.81683304897E+01  0.86472945833E+00  0.20153252662E+02  0.21762880620E+02  0.00000000000E+00 0. -1.
</event>
<event>
 7    1  0.3207036E-010  0.4778727E+02  0.7816164E-02  0.1312668E+00
        -11   -1    0    0    0    0  0.00000000000E+00  0.00000000000E+00  0.45593999997E+02  0.45594000000E+02  0.51100000000E-03 0. -1.
         11   -1    0    0    0    0 -0.00000000000E+00 -0.00000000000E+00 -0.45593999997E+02  0.45594000000E+02  0.51100000000E-03 0.  1.
    9900012    2    1    2    0    0 -0.10007372150E+01  0.29334659601E+02 -0.31970292035E+02  0.47787270724E+02  0.19999998539E+02 0.  0.
         12    1    1    2    0    0  0.10007372150E+01 -0.29334659601E+02  0.31970292035E+02  0.43400729276E+02  0.00000000000E+00 0. -1.
         11    1    3    3    0    0  0.22363951431E+01  0.97334369275E+01 -0.45028386854E+01  0.10955218580E+02  0.51100000000E-03 0. -1.
        -11    1    3    3    0    0  0.26675196478E+01 -0.72911248251E+00 -0.63687360587E+01  0.69432028149E+01  0.51100000000E-03 0.  1.
        -12    1    3    3    0    0 -0.59046520059E+01  0.20330335156E+02 -0.21098717291E+02  0.29888849329E+02  0.00000000000E+00 0.  1.
</event>
<event>
 7    1  0.2486105E-010  0.4778727E+02  0.7816164E-02  0.1312668E+00
        -11   -1    0    0    0    0  0.00000000000E+00  0.00000000000E+00  0.45593999997E+02  0.45594000000E+02  0.51100000000E-03 0.  1.
         11   -1    0    0    0    0 -0.00000000000E+00 -0.00000000000E+00 -0.45593999997E+02  0.45594000000E+02  0.51100000000E-03 0. -1.
    9900012    2    1    2    0    0  0.38248072188E+02  0.13956599281E+02  0.15030684926E+02  0.47787272138E+02  0.20000004985E+02 0.  0.
         12    1    1    2    0    0 -0.38248072188E+02 -0.13956599281E+02 -0.15030684926E+02  0.43400727862E+02  0.00000000000E+00 0. -1.
         11    1    3    3    0    0  0.16876208457E+01  0.91228716818E+00  0.52681188942E+01  0.56065505385E+01  0.51100000000E-03 0. -1.
        -11    1    3    3    0    0  0.18976404322E+02  0.13280752012E+02  0.80098444952E+01  0.24507955934E+02  0.51100000000E-03 0.  1.
         12    1    3    3    0    0  0.17584047021E+02 -0.23643989867E+00  0.17527215366E+01  0.17672765665E+02  0.00000000000E+00 0. -1.
</event>
<event>
 7    1  0.2486105E-010  0.4778728E+02  0.7816164E-02  0.1312668E+00
        -11   -1    0    0    0    0  0.00000000000E+00  0.00000000000E+00  0.45593999997E+02  0.45594000000E+02  0.51100000000E-03 0. -1.
         11   -1    0    0    0    0 -0.00000000000E+00 -0.00000000000E+00 -0.45593999997E+02  0.45594000000E+02  0.51100000000E-03 0.  1.
    9900012    2    1    2    0    0  0.21301096220E+02 -0.19486462017E+02 -0.32406224320E+02  0.47787282532E+02  0.20000052375E+02 0.  0.
         12    1    1    2    0    0 -0.21301096220E+02  0.19486462017E+02  0.32406224320E+02  0.43400717468E+02  0.00000000000E+00 0. -1.
         11    1    3    3    0    0  0.18243233765E+02 -0.10157456401E+02 -0.15657042935E+02  0.26098515139E+02  0.51100000000E-03 0. -1.
        -11    1    3    3    0    0  0.50678722413E+01 -0.10959331425E+01 -0.77754310628E+01  0.93456795891E+01  0.51100000000E-03 0.  1.
        -12    1    3    3    0    0 -0.20100097859E+01 -0.82330724732E+01 -0.89737503214E+01  0.12343087803E+02  0.00000000000E+00 0.  1.
</event>
<event>
 7    1  0.2486105E-010  0.4778725E+02  0.7816164E-02  0.1312668E+00
        -11   -1    0    0    0    0  0.00000000000E+00  0.00000000000E+00  0.45593999997E+02  0.45594000000E+02  0.51100000000E-03 0. -1.
         11   -1    0    0    0    0 -0.00000000000E+00 -0.00000000000E+00 -0.45593999997E+02  0.45594000000E+02  0.51100000000E-03 0.  1.
    9900012    2    1    2    0    0  0.42143118090E+02 -0.61738130474E+01 -0.83346903944E+01  0.47787246161E+02  0.19999886545E+02 0.  0.
         12    1    1    2    0    0 -0.42143118090E+02  0.61738130474E+01  0.83346903944E+01  0.43400753839E+02  0.00000000000E+00 0. -1.
         11    1    3    3    0    0  0.20753337805E+02 -0.44703294650E+01 -0.67346233905E+01  0.22271956089E+02  0.51100000000E-03 0. -1.
        -11    1    3    3    0    0  0.23329725686E+02 -0.85278590070E+00 -0.15431721131E+01  0.23396254504E+02  0.51100000000E-03 0.  1.
         12    1    3    3    0    0 -0.19399454017E+01 -0.85069768173E+00 -0.56894890782E-01  0.21190355674E+01  0.00000000000E+00 0. -1.
</event>
<event>
 7    1  0.2486105E-010  0.4778727E+02  0.7816164E-02  0.1312668E+00
        -11   -1    0    0    0    0  0.00000000000E+00  0.00000000000E+00  0.45593999997E+02  0.45594000000E+02  0.51100000000E-03 0.  1.
         11   -1    0    0    0    0 -0.00000000000E+00 -0.00000000000E+00 -0.45593999997E+02  0.45594000000E+02  0.51100000000E-03 0. -1.
    9900012    2    1    2    0    0 -0.13867275495E+02 -0.14764849191E+02  0.38383867717E+02  0.47787269566E+02  0.19999993261E+02 0.  0.
         12    1    1    2    0    0  0.13867275495E+02  0.14764849191E+02 -0.38383867717E+02  0.43400730434E+02  0.00000000000E+00 0. -1.
         11    1    3    3    0    0 -0.11211711014E+02 -0.51029870077E+01  0.20889225508E+02  0.24250828498E+02  0.51100000000E-03 0.  1.
        -11    1    3    3    0    0  0.56106137080E+00  0.51697941814E+00  0.11030457993E+02  0.11056810633E+02  0.51100000000E-03 0. -1.
        -12    1    3    3    0    0 -0.32166258515E+01 -0.10178841601E+02  0.64641842154E+01  0.12479630435E+02  0.00000000000E+00 0.  1.
</event>
<event>
 7    1  0.2486105E-010  0.4778727E+02  0.7816164E-02  0.1312668E+00
        -11   -1    0    0    0    0  0.00000000000E+00  0.00000000000E+00  0.45593999997E+02  0.45594000000E+02  0.51100000000E-03 0. -1.
         11   -1    0    0    0    0 -0.00000000000E+00 -0.00000000000E+00 -0.45593999997E+02  0.45594000000E+02  0.51100000000E-03 0.  1.
    9900012    2    1    2    0    0 -0.11558805042E+01 -0.19842369493E+02 -0.38581959614E+02  0.47787270807E+02  0.19999998916E+02 0.  0.
         12    1    1    2    0    0  0.11558805042E+01  0.19842369493E+02  0.38581959614E+02  0.43400729193E+02  0.00000000000E+00 0. -1.
         11    1    3    3    0    0 -0.20767472361E+00  0.76101360951E+00 -0.33399765639E+01  0.34318674528E+01  0.51100000000E-03 0. -1.
        -11    1    3    3    0    0 -0.42493680325E+01 -0.12469195380E+02 -0.32641940911E+02  0.35199918591E+02  0.51100000000E-03 0.  1.
         12    1    3    3    0    0  0.33011622519E+01 -0.81341877228E+01 -0.26000421391E+01  0.91554847632E+01  0.00000000000E+00 0. -1.
</event>
<event>
 7    1  0.2486105E-010  0.4778727E+02  0.7816164E-02  0.1312668E+00
        -11   -1    0    0    0    0  0.00000000000E+00  0.00000000000E+00  0.45593999997E+02  0.45594000000E+02  0.51100000000E-03 0.  1.
         11   -1    0    0    0    0 -0.00000000000E+00 -0.00000000000E+00 -0.45593999997E+02  0.45594000000E+02  0.51100000000E-03 0. -1.
    9900012    2    1    2    0    0  0.33619826377E+01  0.43009057673E+02  0.47477796246E+01  0.47787269816E+02  0.19999994397E+02 0.  0.
         12    1    1    2    0    0 -0.33619826377E+01 -0.43009057673E+02 -0.47477796246E+01  0.43400730184E+02  0.00000000000E+00 0. -1.
         11    1    3    3    0    0 -0.36376680733E+01  0.70061072936E+01 -0.51755081063E+00  0.79111331378E+01  0.51100000000E-03 0. -1.
        -11    1    3    3    0    0 -0.45525652361E+01  0.77553399855E+01  0.16694173311E+01  0.91464803617E+01  0.51100000000E-03 0.  1.
         12    1    3    3    0    0  0.11552215947E+02  0.28247610394E+02  0.35959131042E+01  0.30729656316E+02  0.00000000000E+00 0. -1.
</event>
<event>
 7    1  0.2486105E-010  0.4778728E+02  0.7816164E-02  0.1312668E+00
        -11   -1    0    0    0    0  0.00000000000E+00  0.00000000000E+00  0.45593999997E+02  0.45594000000E+02  0.51100000000E-03 0.  1.
         11   -1    0    0    0    0 -0.00000000000E+00 -0.00000000000E+00 -0.45593999997E+02  0.45594000000E+02  0.51100000000E-03 0. -1.
    9900012    2    1    2    0    0 -0.69250473752E+00 -0.56045778446E+01  0.43031749205E+02  0.47787282318E+02  0.20000051401E+02 0.  0.
         12    1    1    2    0    0  0.69250473752E+00  0.56045778446E+01 -0.43031749205E+02  0.43400717682E+02  0.00000000000E+00 0. -1.
         11    1    3    3    0    0 -0.81944882037E+01 -0.36189698531E+01  0.11585541738E+02  0.14644840639E+02  0.51100000000E-03 0. -1.
        -11    1    3    3    0    0  0.54397516350E+01 -0.33288115179E+01  0.12458805893E+02  0.13996204075E+02  0.51100000000E-03 0.  1.
        -12    1    3    3    0    0  0.20622318312E+01  0.13432035265E+01  0.18987401575E+02  0.19146237604E+02  0.00000000000E+00 0.  1.
</event>
<event>
 7    1  0.2486105E-010  0.4778727E+02  0.7816164E-02  0.1312668E+00
        -11   -1    0    0    0    0  0.00000000000E+00  0.00000000000E+00  0.45593999997E+02  0.45594000000E+02  0.51100000000E-03 0. -1.
         11   -1    0    0    0    0 -0.00000000000E+00 -0.00000000000E+00 -0.45593999997E+02  0.45594000000E+02  0.51100000000E-03 0.  1.
    9900012    2    1    2    0    0  0.19985630980E+01  0.29723928334E+02 -0.31561320154E+02  0.47787273048E+02  0.20000009136E+02 0.  0.
         12    1    1    2    0    0 -0.19985630980E+01 -0.29723928334E+02  0.31561320154E+02  0.43400726952E+02  0.00000000000E+00 0. -1.
         11    1    3    3    0    0  0.26399737308E+01 -0.89910633920E+00 -0.14085556343E+00  0.27924351486E+01  0.51100000000E-03 0. -1.
        -11    1    3    3    0    0  0.27799362036E+01  0.87371654503E+01 -0.14349041174E+02  0.17028243840E+02  0.51100000000E-03 0.  1.
        -12    1    3    3    0    0 -0.34213468364E+01  0.21885869223E+02 -0.17071423416E+02  0.27966594059E+02  0.00000000000E+00 0.  1.
</event>
<event>
 7    1  0.2486105E-010  0.4778727E+02  0.7816164E-02  0.1312668E+00
        -11   -1    0    0    0    0  0.00000000000E+00  0.00000000000E+00  0.45593999997E+02  0.45594000000E+02  0.51100000000E-03 0.  1.
         11   -1    0    0    0    0 -0.00000000000E+00 -0.00000000000E+00 -0.45593999997E+02  0.45594000000E+02  0.51100000000E-03 0. -1.
    9900012    2    1    2    0    0 -0.92599103782E+01 -0.32428249021E+02  0.27318231147E+02  0.47787273880E+02  0.20000012927E+02 0.  0.
         12    1    1    2    0    0  0.92599103782E+01  0.32428249021E+02 -0.27318231147E+02  0.43400726120E+02  0.00000000000E+00 0. -1.
         11    1    3    3    0    0  0.33033867181E+01 -0.86140685423E+01  0.77537104985E+00  0.92582796019E+01  0.51100000000E-03 0. -1.
        -11    1    3    3    0    0  0.70241626129E+00 -0.25630358316E+01  0.12758747562E+01  0.29479480885E+01  0.51100000000E-03 0.  1.
        -12    1    3    3    0    0 -0.13265713358E+02 -0.21251144647E+02  0.25266985341E+02  0.35581046189E+02  0.00000000000E+00 0.  1.
</event>
<event>
 7    1  0.2486105E-010  0.4778727E+02  0.7816164E-02  0.1312668E+00
        -11   -1    0    0    0    0  0.00000000000E+00  0.00000000000E+00  0.45593999997E+02  0.45594000000E+02  0.51100000000E-03 0.  1.
         11   -1    0    0    0    0 -0.00000000000E+00 -0.00000000000E+00 -0.45593999997E+02  0.45594000000E+02  0.51100000000E-03 0. -1.
    9900012    2    1    2    0    0  0.54125998989E+01 -0.80459475894E+01  0.42303544172E+02  0.47787270055E+02  0.19999995487E+02 0.  0.
         12    1    1    2    0    0 -0.54125998989E+01  0.80459475894E+01 -0.42303544172E+02  0.43400729945E+02  0.00000000000E+00 0. -1.
         11    1    3    3    0    0  0.85264254300E+00  0.29775448642E+01  0.24823512882E+02  0.25015986185E+02  0.51100000000E-03 0. -1.
        -11    1    3    3    0    0  0.51012504794E+01 -0.22365179707E+01  0.87541178274E+01  0.10375902288E+02  0.51100000000E-03 0.  1.
        -12    1    3    3    0    0 -0.54129312350E+00 -0.87869744830E+01  0.87259134622E+01  0.12395381582E+02  0.00000000000E+00 0.  1.
</event>
<event>
 7    1  0.2486105E-010  0.4778726E+02  0.7816164E-02  0.1312668E+00
        -11   -1    0    0    0    0  0.00000000000E+00  0.00000000000E+00  0.45593999997E+02  0.45594000000E+02  0.51100000000E-03 0.  1.
         11   -1    0    0    0    0 -0.00000000000E+00 -0.00000000000E+00 -0.45593999997E+02  0.45594000000E+02  0.51100000000E-03 0. -1.
    9900012    2    1    2    0    0  0.87870605538E+01 -0.33018220921E+02  0.26762082209E+02  0.47787258185E+02  0.19999941369E+02 0.  0.
         12    1    1    2    0    0 -0.87870605538E+01  0.33018220921E+02 -0.26762082209E+02  0.43400741815E+02  0.00000000000E+00 0. -1.
         11    1    3    3    0    0  0.25124273322E+01 -0.94578739475E+00  0.38403824090E+01  0.46856528045E+01  0.51100000000E-03 0.  1.
        -11    1    3    3    0    0 -0.11831303928E+00  0.17279901653E+01 -0.57095586997E-01  0.17329766744E+01  0.51100000000E-03 0. -1.
         12    1    3    3    0    0  0.63929462609E+01 -0.33800423691E+02  0.22978795387E+02  0.41368628706E+02  0.00000000000E+00 0. -1.
</event>
<event>
 7    1  0.2486105E-010  0.4778727E+02  0.7816164E-02  0.1312668E+00
        -11   -1    0    0    0    0  0.00000000000E+00  0.00000000000E+00  0.45593999997E+02  0.45594000000E+02  0.51100000000E-03 0.  1.
         11   -1    0    0    0    0 -0.00000000000E+00 -0.00000000000E+00 -0.45593999997E+02  0.45594000000E+02  0.51100000000E-03 0. -1.
    9900012    2    1    2    0    0  0.17592542599E+02  0.21448857127E+02  0.33377725060E+02  0.47787267779E+02  0.19999985112E+02 0.  0.
         12    1    1    2    0    0 -0.17592542599E+02 -0.21448857127E+02 -0.33377725060E+02  0.43400732221E+02  0.00000000000E+00 0. -1.
         11    1    3    3    0    0  0.17962420845E+02  0.85629038865E+01  0.15301530863E+02  0.25101966708E+02  0.51100000000E-03 0. -1.
        -11    1    3    3    0    0  0.66158684465E+00 -0.19471737185E-01  0.15970660451E+01  0.17287846931E+01  0.51100000000E-03 0.  1.
        -12    1    3    3    0    0 -0.10314650908E+01  0.12905424977E+02  0.16479128151E+02  0.20956516378E+02  0.00000000000E+00 0.  1.
</event>
<event>
 7    1  0.2486105E-010  0.4778727E+02  0.7816164E-02  0.1312668E+00
        -11   -1    0    0    0    0  0.00000000000E+00  0.00000000000E+00  0.45593999997E+02  0.45594000000E+02  0.51100000000E-03 0.  1.
         11   -1    0    0    0    0 -0.00000000000E+00 -0.00000000000E+00 -0.45593999997E+02  0.45594000000E+02  0.51100000000E-03 0. -1.
    9900012    2    1    2    0    0 -0.27560575954E+02 -0.28878545395E+02  0.17031375419E+02  0.47787268673E+02  0.19999989187E+02 0.  0.
         12    1    1    2    0    0  0.27560575954E+02  0.28878545395E+02 -0.17031375419E+02  0.43400731327E+02  0.00000000000E+00 0. -1.
         11    1    3    3    0    0 -0.61200282211E+01 -0.25986882607E+01  0.90525212800E+01  0.11231921825E+02  0.51100000000E-03 0. -1.
        -11    1    3    3    0    0  0.31756077107E+00 -0.31984789597E+01  0.30938657602E+01  0.44612910802E+01  0.51100000000E-03 0.  1.
         12    1    3    3    0    0 -0.21758108504E+02 -0.23081378175E+02  0.48849883789E+01  0.32094055767E+02  0.00000000000E+00 0. -1.
</event>
<event>
 7    1  0.2486105E-010  0.4778728E+02  0.7816164E-02  0.1312668E+00
        -11   -1    0    0    0    0  0.00000000000E+00  0.00000000000E+00  0.45593999997E+02  0.45594000000E+02  0.51100000000E-03 0.  1.
         11   -1    0    0    0    0 -0.00000000000E+00 -0.00000000000E+00 -0.45593999997E+02  0.45594000000E+02  0.51100000000E-03 0. -1.
    9900012    2    1    2    0    0  0.15653292026E+01  0.24683125075E+02  0.35663922473E+02  0.47787282435E+02  0.20000051934E+02 0.  0.
         12    1    1    2    0    0 -0.15653292026E+01 -0.24683125075E+02 -0.35663922473E+02  0.43400717565E+02  0.00000000000E+00 0. -1.
         11    1    3    3    0    0  0.56722616811E+01  0.92338454696E+01  0.43106169053E+01  0.11662755811E+02  0.51100000000E-03 0.  1.
        -11    1    3    3    0    0  0.23406800048E+01  0.64610047073E+01  0.12586567466E+02  0.14340329339E+02  0.51100000000E-03 0. -1.
         12    1    3    3    0    0 -0.64476124832E+01  0.89882748982E+01  0.18766738102E+02  0.21784197286E+02  0.00000000000E+00 0. -1.
</event>
<event>
 7    1  0.2486105E-010  0.4778727E+02  0.7816164E-02  0.1312668E+00
        -11   -1    0    0    0    0  0.00000000000E+00  0.00000000000E+00  0.45593999997E+02  0.45594000000E+02  0.51100000000E-03 0.  1.
         11   -1    0    0    0    0 -0.00000000000E+00 -0.00000000000E+00 -0.45593999997E+02  0.45594000000E+02  0.51100000000E-03 0. -1.
    9900012    2    1    2    0    0  0.20044493305E+02 -0.18256868802E+01  0.38451377043E+02  0.47787271424E+02  0.20000001731E+02 0.  0.
         12    1    1    2    0    0 -0.20044493305E+02  0.18256868802E+01 -0.38451377043E+02  0.43400728576E+02  0.00000000000E+00 0. -1.
         11    1    3    3    0    0 -0.20288640452E+00 -0.43494990886E+01  0.84949571795E+01  0.95458683711E+01  0.51100000000E-03 0. -1.
        -11    1    3    3    0    0  0.20696703746E+01  0.49217387079E+01  0.53867590406E+01  0.75844723344E+01  0.51100000000E-03 0.  1.
        -12    1    3    3    0    0  0.18177709334E+02 -0.23979264994E+01  0.24569660823E+02  0.30656930719E+02  0.00000000000E+00 0.  1.
</event>
<event>
 7    1  0.2486105E-010  0.4778727E+02  0.7816164E-02  0.1312668E+00
        -11   -1    0    0    0    0  0.00000000000E+00  0.00000000000E+00  0.45593999997E+02  0.45594000000E+02  0.51100000000E-03 0. -1.
         11   -1    0    0    0    0 -0.00000000000E+00 -0.00000000000E+00 -0.45593999997E+02  0.45594000000E+02  0.51100000000E-03 0.  1.
    9900012    2    1    2    0    0  0.38808418837E+02 -0.18874520747E+02  0.46132895199E+01  0.47787270211E+02  0.19999996198E+02 0.  0.
         12    1    1    2    0    0 -0.38808418837E+02  0.18874520747E+02 -0.46132895199E+01  0.43400729789E+02  0.00000000000E+00 0. -1.
         11    1    3    3    0    0  0.14413249854E+00 -0.45439478771E+01 -0.45903247779E+00  0.45693487024E+01  0.51100000000E-03 0. -1.
        -11    1    3    3    0    0  0.15681092956E+02 -0.10781161630E+02  0.59722179481E+01  0.19944861741E+02  0.51100000000E-03 0.  1.
         12    1    3    3    0    0  0.22983193383E+02 -0.35494112402E+01 -0.89989595035E+00  0.23273059767E+02  0.00000000000E+00 0. -1.
</event>
<event>
 7    1  0.2486105E-010  0.4778727E+02  0.7816164E-02  0.1312668E+00
        -11   -1    0    0    0    0  0.00000000000E+00  0.00000000000E+00  0.45593999997E+02  0.45594000000E+02  0.51100000000E-03 0. -1.
         11   -1    0    0    0    0 -0.00000000000E+00 -0.00000000000E+00 -0.45593999997E+02  0.45594000000E+02  0.51100000000E-03 0.  1.
    9900012    2    1    2    0    0  0.19457824901E+01 -0.36576764616E+02 -0.23280416428E+02  0.47787267652E+02  0.19999984534E+02 0.  0.
         12    1    1    2    0    0 -0.19457824901E+01  0.36576764616E+02  0.23280416428E+02  0.43400732348E+02  0.00000000000E+00 0. -1.
         11    1    3    3    0    0  0.21765826948E+01 -0.21377641870E+02 -0.12213084417E+02  0.24716401748E+02  0.51100000000E-03 0. -1.
        -11    1    3    3    0    0 -0.62746623072E+01 -0.11079939596E+02 -0.54593154725E+01  0.13854261951E+02  0.51100000000E-03 0.  1.
         12    1    3    3    0    0  0.60438621025E+01 -0.41191831504E+01 -0.56080165382E+01  0.92166039534E+01  0.00000000000E+00 0. -1.
</event>
<event>
 7    1  0.2486105E-010  0.4778727E+02  0.7816164E-02  0.1312668E+00
        -11   -1    0    0    0    0  0.00000000000E+00  0.00000000000E+00  0.45593999997E+02  0.45594000000E+02  0.51100000000E-03 0.  1.
         11   -1    0    0    0    0 -0.00000000000E+00 -0.00000000000E+00 -0.45593999997E+02  0.45594000000E+02  0.51100000000E-03 0. -1.
    9900012    2    1    2    0    0  0.26091857289E+02 -0.30444720091E+02  0.16611958044E+02  0.47787272492E+02  0.20000006600E+02 0.  0.
         12    1    1    2    0    0 -0.26091857289E+02  0.30444720091E+02 -0.16611958044E+02  0.43400727508E+02  0.00000000000E+00 0. -1.
         11    1    3    3    0    0 -0.15363255456E+01 -0.79810995248E+01  0.59911490738E+01  0.10097133915E+02  0.51100000000E-03 0. -1.
        -11    1    3    3    0    0  0.57104551367E+01 -0.24394353647E+01  0.15451079770E+00  0.62116033851E+01  0.51100000000E-03 0.  1.
        -12    1    3    3    0    0  0.21917727698E+02 -0.20024185201E+02  0.10466298172E+02  0.31478535192E+02  0.00000000000E+00 0.  1.
</event>
<event>
 7    1  0.2486105E-010  0.4778727E+02  0.7816164E-02  0.1312668E+00
        -11   -1    0    0    0    0  0.00000000000E+00  0.00000000000E+00  0.45593999997E+02  0.45594000000E+02  0.51100000000E-03 0. -1.
         11   -1    0    0    0    0 -0.00000000000E+00 -0.00000000000E+00 -0.45593999997E+02  0.45594000000E+02  0.51100000000E-03 0.  1.
    9900012    2    1    2    0    0 -0.42105614481E+02 -0.10071044766E+02 -0.30519515661E+01  0.47787272796E+02  0.20000007985E+02 0.  0.
         12    1    1    2    0    0  0.42105614481E+02  0.10071044766E+02  0.30519515661E+01  0.43400727204E+02  0.00000000000E+00 0. -1.
         11    1    3    3    0    0 -0.73258178050E+01 -0.10232595594E+02 -0.34267657830E+00  0.12589322722E+02  0.51100000000E-03 0. -1.
        -11    1    3    3    0    0 -0.19328409087E+02 -0.21093211058E+01 -0.74379048140E+00  0.19457385691E+02  0.51100000000E-03 0.  1.
         12    1    3    3    0    0 -0.15451387589E+02  0.22708719339E+01 -0.19654845064E+01  0.15740564383E+02  0.00000000000E+00 0. -1.
</event>
<event>
 7    1  0.2486105E-010  0.4778727E+02  0.7816164E-02  0.1312668E+00
        -11   -1    0    0    0    0  0.00000000000E+00  0.00000000000E+00  0.45593999997E+02  0.45594000000E+02  0.51100000000E-03 0.  1.
         11   -1    0    0    0    0 -0.00000000000E+00 -0.00000000000E+00 -0.45593999997E+02  0.45594000000E+02  0.51100000000E-03 0. -1.
    9900012    2    1    2    0    0  0.11902802950E+02 -0.11674569173E+02  0.40070574241E+02  0.47787271856E+02  0.20000003702E+02 0.  0.
         12    1    1    2    0    0 -0.11902802950E+02  0.11674569173E+02 -0.40070574241E+02  0.43400728144E+02  0.00000000000E+00 0. -1.
         11    1    3    3    0    0  0.12355468512E+01 -0.19654608703E-01  0.15179635719E+01  0.19573390079E+01  0.51100000000E-03 0. -1.
        -11    1    3    3    0    0  0.93973242908E+01  0.30728868661E+01  0.17610869586E+02  0.20196412190E+02  0.51100000000E-03 0.  1.
        -12    1    3    3    0    0  0.12699318078E+01 -0.14727801430E+02  0.20941741083E+02  0.25633520658E+02  0.00000000000E+00 0.  1.
</event>
<event>
 7    1  0.2486105E-010  0.4778727E+02  0.7816164E-02  0.1312668E+00
        -11   -1    0    0    0    0  0.00000000000E+00  0.00000000000E+00  0.45593999997E+02  0.45594000000E+02  0.51100000000E-03 0. -1.
         11   -1    0    0    0    0 -0.00000000000E+00 -0.00000000000E+00 -0.45593999997E+02  0.45594000000E+02  0.51100000000E-03 0.  1.
    9900012    2    1    2    0    0  0.29477634930E+02  0.29544259310E+02  0.11909206437E+02  0.47787269393E+02  0.19999992470E+02 0.  0.
         12    1    1    2    0    0 -0.29477634930E+02 -0.29544259310E+02 -0.11909206437E+02  0.43400730607E+02  0.00000000000E+00 0. -1.
         11    1    3    3    0    0  0.10791071579E+02  0.28692722941E+01  0.20586325519E+01  0.11354202639E+02  0.51100000000E-03 0. -1.
        -11    1    3    3    0    0  0.15394924147E+02  0.12520079730E+02  0.92361296484E+01  0.21887489054E+02  0.51100000000E-03 0.  1.
        -12    1    3    3    0    0  0.32916392049E+01  0.14154907286E+02  0.61444423675E+00  0.14545577701E+02  0.00000000000E+00 0.  1.
</event>
<event>
 7    1  0.2486105E-010  0.4778726E+02  0.7816164E-02  0.1312668E+00
        -11   -1    0    0    0    0  0.00000000000E+00  0.00000000000E+00  0.45593999997E+02  0.45594000000E+02  0.51100000000E-03 0.  1.
         11   -1    0    0    0    0 -0.00000000000E+00 -0.00000000000E+00 -0.45593999997E+02  0.45594000000E+02  0.51100000000E-03 0. -1.
    9900012    2    1    2    0    0  0.56961882598E+01  0.41772416205E+02 -0.10307402593E+02  0.47787264240E+02  0.19999968977E+02 0.  0.
         12    1    1    2    0    0 -0.56961882598E+01 -0.41772416205E+02  0.10307402593E+02  0.43400735760E+02  0.00000000000E+00 0. -1.
         11    1    3    3    0    0 -0.15631018670E+01  0.80461090647E+01  0.34320616824E+01  0.88860680945E+01  0.51100000000E-03 0. -1.
        -11    1    3    3    0    0  0.58996327038E+01  0.14836663086E+02 -0.84342260551E+00  0.15988858606E+02  0.51100000000E-03 0.  1.
         12    1    3    3    0    0  0.13596574230E+01  0.18889644055E+02 -0.12896041670E+02  0.22912337540E+02  0.00000000000E+00 0. -1.
</event>
<event>
 7    1  0.2486105E-010  0.4778727E+02  0.7816164E-02  0.1312668E+00
        -11   -1    0    0    0    0  0.00000000000E+00  0.00000000000E+00  0.45593999997E+02  0.45594000000E+02  0.51100000000E-03 0.  1.
         11   -1    0    0    0    0 -0.00000000000E+00 -0.00000000000E+00 -0.45593999997E+02  0.45594000000E+02  0.51100000000E-03 0. -1.
    9900012    2    1    2    0    0 -0.15999156549E+01 -0.42699308536E+02  0.76047824581E+01  0.47787269640E+02  0.19999993598E+02 0.  0.
         12    1    1    2    0    0  0.15999156549E+01  0.42699308536E+02 -0.76047824581E+01  0.43400730360E+02  0.00000000000E+00 0. -1.
         11    1    3    3    0    0  0.14744810507E+01 -0.81139217115E+01 -0.46022829873E+01  0.94440896261E+01  0.51100000000E-03 0. -1.
        -11    1    3    3    0    0 -0.48888632930E+01 -0.85246356413E+01  0.87020092244E+00  0.98654775364E+01  0.51100000000E-03 0.  1.
        -12    1    3    3    0    0  0.18144665874E+01 -0.26060751183E+02  0.11336864523E+02  0.28477702478E+02  0.00000000000E+00 0.  1.
</event>
<event>
 7    1  0.2615340E-010  0.4778727E+02  0.7816164E-02  0.1312668E+00
        -11   -1    0    0    0    0  0.00000000000E+00  0.00000000000E+00  0.45593999997E+02  0.45594000000E+02  0.51100000000E-03 0. -1.
         11   -1    0    0    0    0 -0.00000000000E+00 -0.00000000000E+00 -0.45593999997E+02  0.45594000000E+02  0.51100000000E-03 0.  1.
    9900012    2    1    2    0    0  0.38120866746E+02  0.18206128218E+01 -0.20666592373E+02  0.47787272438E+02  0.20000006356E+02 0.  0.
         12    1    1    2    0    0 -0.38120866746E+02 -0.18206128218E+01  0.20666592373E+02  0.43400727562E+02  0.00000000000E+00 0. -1.
         11    1    3    3    0    0  0.67650905809E+01  0.11352245377E+01  0.22179293116E+01  0.72093270152E+01  0.51100000000E-03 0. -1.
        -11    1    3    3    0    0 -0.19448345104E+00  0.19248235623E+01 -0.13277440216E+01  0.23464172704E+01  0.51100000000E-03 0.  1.
        -12    1    3    3    0    0  0.31550259617E+02 -0.12394352782E+01 -0.21556777663E+02  0.38231528153E+02  0.00000000000E+00 0.  1.
</event>
<event>
 7    1  0.2486105E-010  0.4778727E+02  0.7816164E-02  0.1312668E+00
        -11   -1    0    0    0    0  0.00000000000E+00  0.00000000000E+00  0.45593999997E+02  0.45594000000E+02  0.51100000000E-03 0.  1.
         11   -1    0    0    0    0 -0.00000000000E+00 -0.00000000000E+00 -0.45593999997E+02  0.45594000000E+02  0.51100000000E-03 0. -1.
    9900012    2    1    2    0    0  0.20180383634E+02  0.37501703742E+02  0.83664740411E+01  0.47787267805E+02  0.19999985232E+02 0.  0.
         12    1    1    2    0    0 -0.20180383634E+02 -0.37501703742E+02 -0.83664740411E+01  0.43400732195E+02  0.00000000000E+00 0. -1.
         11    1    3    3    0    0  0.51268770833E+01  0.17921179657E+02  0.26837480877E+00  0.18642037824E+02  0.51100000000E-03 0. -1.
        -11    1    3    3    0    0  0.12048424933E+02  0.58781882659E+01  0.10520492199E+01  0.13447098144E+02  0.51100000000E-03 0.  1.
         12    1    3    3    0    0  0.30050816170E+01  0.13702335818E+02  0.70460500125E+01  0.15698131837E+02  0.00000000000E+00 0. -1.
</event>
<event>
 7    1  0.2486105E-010  0.4778727E+02  0.7816164E-02  0.1312668E+00
        -11   -1    0    0    0    0  0.00000000000E+00  0.00000000000E+00  0.45593999997E+02  0.45594000000E+02  0.51100000000E-03 0.  1.
         11   -1    0    0    0    0 -0.00000000000E+00 -0.00000000000E+00 -0.45593999997E+02  0.45594000000E+02  0.51100000000E-03 0. -1.
    9900012    2    1    2    0    0  0.28511115243E+01  0.26871172615E+02  0.33962255852E+02  0.47787267550E+02  0.19999984069E+02 0.  0.
         12    1    1    2    0    0 -0.28511115243E+01 -0.26871172615E+02 -0.33962255852E+02  0.43400732450E+02  0.00000000000E+00 0. -1.
         11    1    3    3    0    0 -0.24236622725E+01  0.85182774160E+01  0.38455569755E+01  0.96552316212E+01  0.51100000000E-03 0. -1.
        -11    1    3    3    0    0 -0.15157082629E+01  0.15112899998E+02  0.24150757915E+02  0.28529918087E+02  0.51100000000E-03 0.  1.
         12    1    3    3    0    0  0.67904820597E+01  0.32399952006E+01  0.59659409610E+01  0.96021178421E+01  0.00000000000E+00 0. -1.
</event>
<event>
 7    1  0.2486105E-010  0.4778727E+02  0.7816164E-02  0.1312668E+00
        -11   -1    0    0    0    0  0.00000000000E+00  0.00000000000E+00  0.45593999997E+02  0.45594000000E+02  0.51100000000E-03 0.  1.
         11   -1    0    0    0    0 -0.00000000000E+00 -0.00000000000E+00 -0.45593999997E+02  0.45594000000E+02  0.51100000000E-03 0. -1.
    9900012    2    1    2    0    0 -0.25964809119E+02  0.83414235681E+00  0.34767172866E+02  0.47787269417E+02  0.19999992579E+02 0.  0.
         12    1    1    2    0    0  0.25964809119E+02 -0.83414235681E+00 -0.34767172866E+02  0.43400730583E+02  0.00000000000E+00 0. -1.
         11    1    3    3    0    0 -0.12446194102E+02 -0.56136023154E+01  0.11511324187E+02  0.17858635541E+02  0.51100000000E-03 0. -1.
        -11    1    3    3    0    0 -0.93067511618E+01  0.45833482530E+00  0.57403434906E+01  0.10944278489E+02  0.51100000000E-03 0.  1.
        -12    1    3    3    0    0 -0.42118638556E+01  0.59894098469E+01  0.17515505188E+02  0.18984355387E+02  0.00000000000E+00 0.  1.
</event>
<event>
 7    1  0.2486105E-010  0.4778727E+02  0.7816164E-02  0.1312668E+00
        -11   -1    0    0    0    0  0.00000000000E+00  0.00000000000E+00  0.45593999997E+02  0.45594000000E+02  0.51100000000E-03 0. -1.
         11   -1    0    0    0    0 -0.00000000000E+00 -0.00000000000E+00 -0.45593999997E+02  0.45594000000E+02  0.51100000000E-03 0.  1.
    9900012    2    1    2    0    0 -0.38855045466E+02  0.16951026504E+02 -0.93043811219E+01  0.47787269985E+02  0.19999995171E+02 0.  0.
         12    1    1    2    0    0  0.38855045466E+02 -0.16951026504E+02  0.93043811219E+01  0.43400730015E+02  0.00000000000E+00 0. -1.
         11    1    3    3    0    0 -0.32304925514E+01  0.41023680411E+01 -0.17318762771E+01  0.55013545031E+01  0.51100000000E-03 0. -1.
        -11    1    3    3    0    0 -0.22108347629E+02  0.25054402946E+01  0.26895379426E+01  0.22411824570E+02  0.51100000000E-03 0.  1.
        -12    1    3    3    0    0 -0.13516205286E+02  0.10343218168E+02 -0.10262042788E+02  0.19874090912E+02  0.00000000000E+00 0.  1.
</event>
<event>
 7    1  0.2486105E-010  0.4778727E+02  0.7816164E-02  0.1312668E+00
        -11   -1    0    0    0    0  0.00000000000E+00  0.00000000000E+00  0.45593999997E+02  0.45594000000E+02  0.51100000000E-03 0. -1.
         11   -1    0    0    0    0 -0.00000000000E+00 -0.00000000000E+00 -0.45593999997E+02  0.45594000000E+02  0.51100000000E-03 0.  1.
    9900012    2    1    2    0    0 -0.31146051196E+02  0.18516620866E+02 -0.23888947059E+02  0.47787267921E+02  0.19999985758E+02 0.  0.
         12    1    1    2    0    0  0.31146051196E+02 -0.18516620866E+02  0.23888947059E+02  0.43400732079E+02  0.00000000000E+00 0. -1.
         11    1    3    3    0    0 -0.65438572557E+01 -0.65663696687E+00 -0.38306850802E+01  0.76110044234E+01  0.51100000000E-03 0. -1.
        -11    1    3    3    0    0 -0.16503360403E+02  0.65555672575E+01 -0.17564686967E+02  0.24977081398E+02  0.51100000000E-03 0.  1.
         12    1    3    3    0    0 -0.80988335378E+01  0.12617690576E+02 -0.24935750115E+01  0.15199182099E+02  0.00000000000E+00 0. -1.
</event>
<event>
 7    1  0.2486105E-010  0.4778727E+02  0.7816164E-02  0.1312668E+00
        -11   -1    0    0    0    0  0.00000000000E+00  0.00000000000E+00  0.45593999997E+02  0.45594000000E+02  0.51100000000E-03 0. -1.
         11   -1    0    0    0    0 -0.00000000000E+00 -0.00000000000E+00 -0.45593999997E+02  0.45594000000E+02  0.51100000000E-03 0.  1.
    9900012    2    1    2    0    0  0.17371891103E+02  0.15260723690E+02 -0.36728069445E+02  0.47787269900E+02  0.19999994783E+02 0.  0.
         12    1    1    2    0    0 -0.17371891103E+02 -0.15260723690E+02  0.36728069445E+02  0.43400730100E+02  0.00000000000E+00 0. -1.
         11    1    3    3    0    0 -0.33713761300E+00  0.13664853031E+01 -0.82875222074E+01  0.84061863204E+01  0.51100000000E-03 0. -1.
        -11    1    3    3    0    0  0.10786141574E+02  0.97707196401E+01 -0.27698344043E+02  0.31289072778E+02  0.51100000000E-03 0.  1.
         12    1    3    3    0    0  0.69228871416E+01  0.41235187466E+01 -0.74220319461E+00  0.80920108015E+01  0.00000000000E+00 0. -1.
</event>
<event>
 7    1  0.2486105E-010  0.4778727E+02  0.7816164E-02  0.1312668E+00
        -11   -1    0    0    0    0  0.00000000000E+00  0.00000000000E+00  0.45593999997E+02  0.45594000000E+02  0.51100000000E-03 0.  1.
         11   -1    0    0    0    0 -0.00000000000E+00 -0.00000000000E+00 -0.45593999997E+02  0.45594000000E+02  0.51100000000E-03 0. -1.
    9900012    2    1    2    0    0  0.18972589890E+02 -0.20708823057E+01  0.38979172334E+02  0.47787267328E+02  0.19999983055E+02 0.  0.
         12    1    1    2    0    0 -0.18972589890E+02  0.20708823057E+01 -0.38979172334E+02  0.43400732672E+02  0.00000000000E+00 0. -1.
         11    1    3    3    0    0  0.15912249602E+02 -0.28814343813E+01  0.16807858744E+02  0.23323946220E+02  0.51100000000E-03 0. -1.
        -11    1    3    3    0    0  0.31100154725E+01  0.11857165114E+01  0.12760130659E+01  0.35645938745E+01  0.51100000000E-03 0.  1.
        -12    1    3    3    0    0 -0.49675184287E-01 -0.37516443583E+00  0.20895300524E+02  0.20898727233E+02  0.00000000000E+00 0.  1.
</event>
<event>
 7    1  0.2486105E-010  0.4778726E+02  0.7816164E-02  0.1312668E+00
        -11   -1    0    0    0    0  0.00000000000E+00  0.00000000000E+00  0.45593999997E+02  0.45594000000E+02  0.51100000000E-03 0. -1.
         11   -1    0    0    0    0 -0.00000000000E+00 -0.00000000000E+00 -0.45593999997E+02  0.45594000000E+02  0.51100000000E-03 0.  1.
    9900012    2    1    2    0    0  0.31575464620E+02 -0.28183451256E+02 -0.96076556854E+01  0.47787263388E+02  0.19999965091E+02 0.  0.
         12    1    1    2    0    0 -0.31575464620E+02  0.28183451256E+02  0.96076556854E+01  0.43400736612E+02  0.00000000000E+00 0. -1.
         11    1    3    3    0    0  0.15755279424E+02 -0.88258445611E+01 -0.97851460945E+01  0.20539558084E+02  0.51100000000E-03 0. -1.
        -11    1    3    3    0    0  0.68383544547E+01 -0.75938851563E+01 -0.52431391197E+01  0.11485673315E+02  0.51100000000E-03 0.  1.
         12    1    3    3    0    0  0.89818307415E+01 -0.11763721539E+02  0.54206295288E+01  0.15762031988E+02  0.00000000000E+00 0. -1.
</event>
<event>
 7    1  0.2486105E-010  0.4778733E+02  0.7816164E-02  0.1312667E+00
        -11   -1    0    0    0    0  0.00000000000E+00  0.00000000000E+00  0.45593999997E+02  0.45594000000E+02  0.51100000000E-03 0.  1.
         11   -1    0    0    0    0 -0.00000000000E+00 -0.00000000000E+00 -0.45593999997E+02  0.45594000000E+02  0.51100000000E-03 0. -1.
    9900012    2    1    2    0    0  0.28765468152E+02 -0.22847766215E+02  0.23111590809E+02  0.47787329398E+02  0.20000266054E+02 0.  0.
         12    1    1    2    0    0 -0.28765468152E+02  0.22847766215E+02 -0.23111590809E+02  0.43400670602E+02  0.00000000000E+00 0. -1.
         11    1    3    3    0    0  0.80213017886E-01 -0.14332998284E+01  0.55584149096E+00  0.15393968139E+01  0.51100000000E-03 0. -1.
        -11    1    3    3    0    0  0.27105991343E+01 -0.12342100038E+02  0.48795243168E+01  0.13545646490E+02  0.51100000000E-03 0.  1.
         12    1    3    3    0    0  0.25974656000E+02 -0.90723663482E+01  0.17676225002E+02  0.32702286094E+02  0.00000000000E+00 0. -1.
</event>
<event>
 7    1  0.2486105E-010  0.4778727E+02  0.7816164E-02  0.1312668E+00
        -11   -1    0    0    0    0  0.00000000000E+00  0.00000000000E+00  0.45593999997E+02  0.45594000000E+02  0.51100000000E-03 0.  1.
         11   -1    0    0    0    0 -0.00000000000E+00 -0.00000000000E+00 -0.45593999997E+02  0.45594000000E+02  0.51100000000E-03 0. -1.
    9900012    2    1    2    0    0  0.17363772178E+01 -0.40421978245E+02  0.15705791908E+02  0.47787271544E+02  0.20000002276E+02 0.  0.
         12    1    1    2    0    0 -0.17363772178E+01  0.40421978245E+02 -0.15705791908E+02  0.43400728456E+02  0.00000000000E+00 0. -1.
         11    1    3    3    0    0 -0.52384558266E+01 -0.14195778498E+02  0.32588659467E+01  0.15478428672E+02  0.51100000000E-03 0. -1.
        -11    1    3    3    0    0  0.11889985585E+01 -0.23296275424E+02  0.95485168903E+01  0.25205244321E+02  0.51100000000E-03 0.  1.
        -12    1    3    3    0    0  0.57858344859E+01 -0.29299243229E+01  0.28984090712E+01  0.71035985515E+01  0.00000000000E+00 0.  1.
</event>
<event>
 7    1  0.2486105E-010  0.4778725E+02  0.7816164E-02  0.1312668E+00
        -11   -1    0    0    0    0  0.00000000000E+00  0.00000000000E+00  0.45593999997E+02  0.45594000000E+02  0.51100000000E-03 0.  1.
         11   -1    0    0    0    0 -0.00000000000E+00 -0.00000000000E+00 -0.45593999997E+02  0.45594000000E+02  0.51100000000E-03 0. -1.
    9900012    2    1    2    0    0  0.23111702892E+02 -0.34635226075E+02 -0.12242359061E+02  0.47787250569E+02  0.19999906644E+02 0.  0.
         12    1    1    2    0    0 -0.23111702892E+02  0.34635226075E+02  0.12242359061E+02  0.43400749431E+02  0.00000000000E+00 0. -1.
         11    1    3    3    0    0  0.10812436948E+02 -0.88730462048E+01  0.31523734540E+01  0.14337963606E+02  0.51100000000E-03 0. -1.
        -11    1    3    3    0    0  0.44600854734E+01 -0.30486377352E+01 -0.46500503472E+01  0.71280798932E+01  0.51100000000E-03 0.  1.
        -12    1    3    3    0    0  0.78391804711E+01 -0.22713542134E+02 -0.10744682167E+02  0.26321207070E+02  0.00000000000E+00 0.  1.
</event>
<event>
 7    1  0.2486105E-010  0.4778727E+02  0.7816164E-02  0.1312668E+00
        -11   -1    0    0    0    0  0.00000000000E+00  0.00000000000E+00  0.45593999997E+02  0.45594000000E+02  0.51100000000E-03 0.  1.
         11   -1    0    0    0    0 -0.00000000000E+00 -0.00000000000E+00 -0.45593999997E+02  0.45594000000E+02  0.51100000000E-03 0. -1.
    9900012    2    1    2    0    0 -0.27035825930E+02  0.32843116739E+02  0.86033247444E+01  0.47787269620E+02  0.19999993506E+02 0.  0.
         12    1    1    2    0    0  0.27035825930E+02 -0.32843116739E+02 -0.86033247444E+01  0.43400730380E+02  0.00000000000E+00 0. -1.
         11    1    3    3    0    0 -0.21706063611E+02  0.16149552017E+02 -0.10716867194E+01  0.27075999345E+02  0.51100000000E-03 0. -1.
        -11    1    3    3    0    0  0.88010724997E-01  0.46592455059E+01  0.46675018701E+01  0.65955961475E+01  0.51100000000E-03 0.  1.
        -12    1    3    3    0    0 -0.54177730435E+01  0.12034319216E+02  0.50075095937E+01  0.14115674128E+02  0.00000000000E+00 0.  1.
</event>
<event>
 7    1  0.2486105E-010  0.4778727E+02  0.7816164E-02  0.1312668E+00
        -11   -1    0    0    0    0  0.00000000000E+00  0.00000000000E+00  0.45593999997E+02  0.45594000000E+02  0.51100000000E-03 0. -1.
         11   -1    0    0    0    0 -0.00000000000E+00 -0.00000000000E+00 -0.45593999997E+02  0.45594000000E+02  0.51100000000E-03 0.  1.
    9900012    2    1    2    0    0 -0.27956249014E+02  0.12390253054E+01 -0.33174331084E+02  0.47787270910E+02  0.19999999386E+02 0.  0.
         12    1    1    2    0    0  0.27956249014E+02 -0.12390253054E+01  0.33174331084E+02  0.43400729090E+02  0.00000000000E+00 0. -1.
         11    1    3    3    0    0 -0.77835418204E+01 -0.13345651345E+01 -0.12685255092E+02  0.14942566192E+02  0.51100000000E-03 0. -1.
        -11    1    3    3    0    0 -0.21188931387E+02 -0.15786218726E+01 -0.15657736720E+02  0.26393703411E+02  0.51100000000E-03 0.  1.
         12    1    3    3    0    0  0.10162241928E+01  0.41522123125E+01 -0.48313392724E+01  0.64510013070E+01  0.00000000000E+00 0. -1.
</event>
<event>
 7    1  0.2486105E-010  0.4778727E+02  0.7816164E-02  0.1312668E+00
        -11   -1    0    0    0    0  0.00000000000E+00  0.00000000000E+00  0.45593999997E+02  0.45594000000E+02  0.51100000000E-03 0.  1.
         11   -1    0    0    0    0 -0.00000000000E+00 -0.00000000000E+00 -0.45593999997E+02  0.45594000000E+02  0.51100000000E-03 0. -1.
    9900012    2    1    2    0    0  0.13926977509E+02 -0.28780514823E+02  0.29348674175E+02  0.47787269455E+02  0.19999992752E+02 0.  0.
         12    1    1    2    0    0 -0.13926977509E+02  0.28780514823E+02 -0.29348674175E+02  0.43400730545E+02  0.00000000000E+00 0. -1.
         11    1    3    3    0    0  0.13744188123E+01 -0.38707626843E+00 -0.70130397066E+00  0.15908119404E+01  0.51100000000E-03 0. -1.
        -11    1    3    3    0    0  0.10743818503E+02 -0.14505251695E+02  0.25936157213E+02  0.31599307176E+02  0.51100000000E-03 0.  1.
         12    1    3    3    0    0  0.18087401944E+01 -0.13888186859E+02  0.41138209321E+01  0.14597150338E+02  0.00000000000E+00 0. -1.
</event>
<event>
 7    1  0.2486105E-010  0.4778727E+02  0.7816164E-02  0.1312668E+00
        -11   -1    0    0    0    0  0.00000000000E+00  0.00000000000E+00  0.45593999997E+02  0.45594000000E+02  0.51100000000E-03 0.  1.
         11   -1    0    0    0    0 -0.00000000000E+00 -0.00000000000E+00 -0.45593999997E+02  0.45594000000E+02  0.51100000000E-03 0. -1.
    9900012    2    1    2    0    0  0.56557547642E+01  0.17380626914E+02  0.39364316205E+02  0.47787272539E+02  0.20000006812E+02 0.  0.
         12    1    1    2    0    0 -0.56557547642E+01 -0.17380626914E+02 -0.39364316205E+02  0.43400727461E+02  0.00000000000E+00 0. -1.
         11    1    3    3    0    0 -0.49125489021E+00 -0.33597213754E+00 -0.21487711243E+00  0.63275672966E+00  0.51100000000E-03 0. -1.
        -11    1    3    3    0    0 -0.25389625363E+00 -0.31217961189E+01  0.20183444884E+01  0.37260956846E+01  0.51100000000E-03 0.  1.
         12    1    3    3    0    0  0.64009059080E+01  0.20838395170E+02  0.37560848829E+02  0.43428420124E+02  0.00000000000E+00 0. -1.
</event>
<event>
 7    1  0.2486105E-010  0.4778727E+02  0.7816164E-02  0.1312668E+00
        -11   -1    0    0    0    0  0.00000000000E+00  0.00000000000E+00  0.45593999997E+02  0.45594000000E+02  0.51100000000E-03 0. -1.
         11   -1    0    0    0    0 -0.00000000000E+00 -0.00000000000E+00 -0.45593999997E+02  0.45594000000E+02  0.51100000000E-03 0.  1.
    9900012    2    1    2    0    0 -0.43336676424E+02  0.62856093903E+00 -0.22716360993E+01  0.47787274857E+02  0.20000017385E+02 0.  0.
         12    1    1    2    0    0  0.43336676424E+02 -0.62856093903E+00  0.22716360993E+01  0.43400725143E+02  0.00000000000E+00 0. -1.
         11    1    3    3    0    0 -0.19000794143E+02  0.66487896595E+01 -0.64764951299E+00  0.20140904453E+02  0.51100000000E-03 0. -1.
        -11    1    3    3    0    0 -0.19468998062E+02 -0.26318555802E+00 -0.37175362062E+01  0.19822492978E+02  0.51100000000E-03 0.  1.
         12    1    3    3    0    0 -0.48668842185E+01 -0.57570431625E+01  0.20935496199E+01  0.78238774263E+01  0.00000000000E+00 0. -1.
</event>
<event>
 7    1  0.2486105E-010  0.4778727E+02  0.7816164E-02  0.1312668E+00
        -11   -1    0    0    0    0  0.00000000000E+00  0.00000000000E+00  0.45593999997E+02  0.45594000000E+02  0.51100000000E-03 0.  1.
         11   -1    0    0    0    0 -0.00000000000E+00 -0.00000000000E+00 -0.45593999997E+02  0.45594000000E+02  0.51100000000E-03 0. -1.
    9900012    2    1    2    0    0 -0.26523267019E+02 -0.29536988864E+02  0.17541555390E+02  0.47787267633E+02  0.19999984446E+02 0.  0.
         12    1    1    2    0    0  0.26523267019E+02  0.29536988864E+02 -0.17541555390E+02  0.43400732367E+02  0.00000000000E+00 0. -1.
         11    1    3    3    0    0 -0.17101219570E+01  0.95894796624E+00 -0.55183507285E+00  0.20368162702E+01  0.51100000000E-03 0. -1.
        -11    1    3    3    0    0 -0.17922864878E+02 -0.14213386896E+02  0.41832285872E+01  0.23254007271E+02  0.51100000000E-03 0.  1.
        -12    1    3    3    0    0 -0.68902801833E+01 -0.16282549934E+02  0.13910161876E+02  0.22496444092E+02  0.00000000000E+00 0.  1.
</event>
<event>
 7    1  0.2486105E-010  0.4778727E+02  0.7816164E-02  0.1312668E+00
        -11   -1    0    0    0    0  0.00000000000E+00  0.00000000000E+00  0.45593999997E+02  0.45594000000E+02  0.51100000000E-03 0.  1.
         11   -1    0    0    0    0 -0.00000000000E+00 -0.00000000000E+00 -0.45593999997E+02  0.45594000000E+02  0.51100000000E-03 0. -1.
    9900012    2    1    2    0    0 -0.23177712987E+02  0.18686530983E+02  0.31578951873E+02  0.47787273959E+02  0.20000013287E+02 0.  0.
         12    1    1    2    0    0  0.23177712987E+02 -0.18686530983E+02 -0.31578951873E+02  0.43400726041E+02  0.00000000000E+00 0. -1.
         11    1    3    3    0    0 -0.10368003504E+02  0.73356253216E+01  0.21911917168E+02  0.25326646240E+02  0.51100000000E-03 0. -1.
        -11    1    3    3    0    0 -0.19433942892E+01  0.73610507847E+00  0.66582676782E+01  0.69750384074E+01  0.51100000000E-03 0.  1.
        -12    1    3    3    0    0 -0.10866315194E+02  0.10614800583E+02  0.30087670275E+01  0.15485589311E+02  0.00000000000E+00 0.  1.
</event>
<event>
 7    1  0.2486105E-010  0.4778727E+02  0.7816164E-02  0.1312668E+00
        -11   -1    0    0    0    0  0.00000000000E+00  0.00000000000E+00  0.45593999997E+02  0.45594000000E+02  0.51100000000E-03 0.  1.
         11   -1    0    0    0    0 -0.00000000000E+00 -0.00000000000E+00 -0.45593999997E+02  0.45594000000E+02  0.51100000000E-03 0. -1.
    9900012    2    1    2    0    0  0.22919368891E+02  0.46565175290E+01  0.36560129074E+02  0.47787266552E+02  0.19999979519E+02 0.  0.
         12    1    1    2    0    0 -0.22919368891E+02 -0.46565175290E+01 -0.36560129074E+02  0.43400733448E+02  0.00000000000E+00 0. -1.
         11    1    3    3    0    0  0.82802031418E+01  0.22562795833E+01  0.18324169774E+02  0.20234321332E+02  0.51100000000E-03 0. -1.
        -11    1    3    3    0    0  0.16956200159E+02  0.13360344059E+01  0.18324457651E+02  0.25001669149E+02  0.51100000000E-03 0.  1.
         12    1    3    3    0    0 -0.23170344104E+01  0.10642035398E+01 -0.88498349905E-01  0.25512760711E+01  0.00000000000E+00 0. -1.
</event>
<event>
 7    1  0.2486105E-010  0.4778727E+02  0.7816164E-02  0.1312668E+00
        -11   -1    0    0    0    0  0.00000000000E+00  0.00000000000E+00  0.45593999997E+02  0.45594000000E+02  0.51100000000E-03 0. -1.
         11   -1    0    0    0    0 -0.00000000000E+00 -0.00000000000E+00 -0.45593999997E+02  0.45594000000E+02  0.51100000000E-03 0.  1.
    9900012    2    1    2    0    0 -0.33574541640E+02  0.27119826737E+02  0.45703653756E+01  0.47787273183E+02  0.20000009749E+02 0.  0.
         12    1    1    2    0    0  0.33574541640E+02 -0.27119826737E+02 -0.45703653756E+01  0.43400726817E+02  0.00000000000E+00 0. -1.
         11    1    3    3    0    0 -0.29242869364E+01  0.26997651250E+01  0.72857732293E+01  0.83019682983E+01  0.51100000000E-03 0. -1.
        -11    1    3    3    0    0 -0.61856004814E+01  0.34698507076E+01 -0.15231953071E+01  0.72540775743E+01  0.51100000000E-03 0.  1.
         12    1    3    3    0    0 -0.24464654223E+02  0.20950210904E+02 -0.11922125465E+01  0.32231227310E+02  0.00000000000E+00 0. -1.
</event>
<event>
 7    1  0.2486105E-010  0.4778727E+02  0.7816164E-02  0.1312668E+00
        -11   -1    0    0    0    0  0.00000000000E+00  0.00000000000E+00  0.45593999997E+02  0.45594000000E+02  0.51100000000E-03 0. -1.
         11   -1    0    0    0    0 -0.00000000000E+00 -0.00000000000E+00 -0.45593999997E+02  0.45594000000E+02  0.51100000000E-03 0.  1.
    9900012    2    1    2    0    0 -0.17760929859E+02 -0.13436045276E+02 -0.37251110702E+02  0.47787272003E+02  0.20000004373E+02 0.  0.
         12    1    1    2    0    0  0.17760929859E+02  0.13436045276E+02  0.37251110702E+02  0.43400727997E+02  0.00000000000E+00 0. -1.
         11    1    3    3    0    0 -0.16428472701E+01  0.17516164457E+01  0.10176407556E+00  0.24036354786E+01  0.51100000000E-03 0. -1.
        -11    1    3    3    0    0 -0.50276313328E+01  0.10754197830E+01 -0.34865978340E+01  0.62120825208E+01  0.51100000000E-03 0.  1.
         12    1    3    3    0    0 -0.11090451256E+02 -0.16263081504E+02 -0.33866276943E+02  0.39171554004E+02  0.00000000000E+00 0. -1.
</event>
<event>
 7    1  0.2486105E-010  0.4778727E+02  0.7816164E-02  0.1312668E+00
        -11   -1    0    0    0    0  0.00000000000E+00  0.00000000000E+00  0.45593999997E+02  0.45594000000E+02  0.51100000000E-03 0.  1.
         11   -1    0    0    0    0 -0.00000000000E+00 -0.00000000000E+00 -0.45593999997E+02  0.45594000000E+02  0.51100000000E-03 0. -1.
    9900012    2    1    2    0    0  0.68299759983E+01 -0.10332373023E+02  0.41595873475E+02  0.47787271958E+02  0.20000004167E+02 0.  0.
         12    1    1    2    0    0 -0.68299759983E+01  0.10332373023E+02 -0.41595873475E+02  0.43400728042E+02  0.00000000000E+00 0. -1.
         11    1    3    3    0    0 -0.40838029619E+01  0.57467273145E+00  0.82500645103E+01  0.92234082673E+01  0.51100000000E-03 0. -1.
        -11    1    3    3    0    0 -0.13461554712E+00  0.11065660991E+01  0.10094227163E+02  0.10155591177E+02  0.51100000000E-03 0.  1.
        -12    1    3    3    0    0  0.11048394507E+02 -0.12013611854E+02  0.23251581801E+02  0.28408272514E+02  0.00000000000E+00 0.  1.
</event>
<event>
 7    1  0.2486105E-010  0.4778725E+02  0.7816164E-02  0.1312668E+00
        -11   -1    0    0    0    0  0.00000000000E+00  0.00000000000E+00  0.45593999997E+02  0.45594000000E+02  0.51100000000E-03 0.  1.
         11   -1    0    0    0    0 -0.00000000000E+00 -0.00000000000E+00 -0.45593999997E+02  0.45594000000E+02  0.51100000000E-03 0. -1.
    9900012    2    1    2    0    0  0.34362859754E+02 -0.70797238692E+01  0.25547919251E+02  0.47787253479E+02  0.19999919914E+02 0.  0.
         12    1    1    2    0    0 -0.34362859754E+02  0.70797238692E+01 -0.25547919251E+02  0.43400746521E+02  0.00000000000E+00 0. -1.
         11    1    3    3    0    0  0.22188689881E+02 -0.10773823220E+01  0.82184247539E+01  0.23686308640E+02  0.51100000000E-03 0. -1.
        -11    1    3    3    0    0  0.35391955288E+01 -0.29217878335E+01  0.10747301795E+00  0.45906753147E+01  0.51100000000E-03 0.  1.
        -12    1    3    3    0    0  0.86349743440E+01 -0.30805537137E+01  0.17222021479E+02  0.19510269524E+02  0.00000000000E+00 0.  1.
</event>
<event>
 7    1  0.2486105E-010  0.4778727E+02  0.7816164E-02  0.1312668E+00
        -11   -1    0    0    0    0  0.00000000000E+00  0.00000000000E+00  0.45593999997E+02  0.45594000000E+02  0.51100000000E-03 0.  1.
         11   -1    0    0    0    0 -0.00000000000E+00 -0.00000000000E+00 -0.45593999997E+02  0.45594000000E+02  0.51100000000E-03 0. -1.
    9900012    2    1    2    0    0  0.22457002171E+02 -0.20487806476E+02  0.30976705375E+02  0.47787269170E+02  0.19999991454E+02 0.  0.
         12    1    1    2    0    0 -0.22457002171E+02  0.20487806476E+02 -0.30976705375E+02  0.43400730830E+02  0.00000000000E+00 0. -1.
         11    1    3    3    0    0  0.10065734245E+02 -0.11681079097E+02  0.87453099810E+01  0.17727015025E+02  0.51100000000E-03 0. -1.
        -11    1    3    3    0    0  0.11071730692E+02 -0.12050538458E+02  0.20253077497E+02  0.26038161341E+02  0.51100000000E-03 0.  1.
         12    1    3    3    0    0  0.13195372344E+01  0.32438110791E+01  0.19783178965E+01  0.40220928047E+01  0.00000000000E+00 0. -1.
</event>
<event>
 7    1  0.2486105E-010  0.4778727E+02  0.7816164E-02  0.1312668E+00
        -11   -1    0    0    0    0  0.00000000000E+00  0.00000000000E+00  0.45593999997E+02  0.45594000000E+02  0.51100000000E-03 0.  1.
         11   -1    0    0    0    0 -0.00000000000E+00 -0.00000000000E+00 -0.45593999997E+02  0.45594000000E+02  0.51100000000E-03 0. -1.
    9900012    2    1    2    0    0  0.39901979082E+02  0.77087695269E+01  0.15232533648E+02  0.47787272545E+02  0.20000006843E+02 0.  0.
         12    1    1    2    0    0 -0.39901979082E+02 -0.77087695269E+01 -0.15232533648E+02  0.43400727455E+02  0.00000000000E+00 0. -1.
         11    1    3    3    0    0  0.12029328817E+02 -0.20668472691E+01  0.36725785684E+01  0.12746154048E+02  0.51100000000E-03 0. -1.
        -11    1    3    3    0    0  0.20117741262E+02  0.35256661622E+00  0.35185202393E+01  0.20426154843E+02  0.51100000000E-03 0.  1.
        -12    1    3    3    0    0  0.77549090026E+01  0.94230501798E+01  0.80414348402E+01  0.14614963654E+02  0.00000000000E+00 0.  1.
</event>
<event>
 7    1  0.2486105E-010  0.4778727E+02  0.7816164E-02  0.1312668E+00
        -11   -1    0    0    0    0  0.00000000000E+00  0.00000000000E+00  0.45593999997E+02  0.45594000000E+02  0.51100000000E-03 0. -1.
         11   -1    0    0    0    0 -0.00000000000E+00 -0.00000000000E+00 -0.45593999997E+02  0.45594000000E+02  0.51100000000E-03 0.  1.
    9900012    2    1    2    0    0  0.69122404252E+01 -0.24298971726E+01 -0.42777794584E+02  0.47787272156E+02  0.20000005067E+02 0.  0.
         12    1    1    2    0    0 -0.69122404252E+01  0.24298971726E+01  0.42777794584E+02  0.43400727844E+02  0.00000000000E+00 0. -1.
         11    1    3    3    0    0  0.63576659581E+01 -0.13514031152E+01 -0.28210636917E+02  0.28949719210E+02  0.51100000000E-03 0. -1.
        -11    1    3    3    0    0 -0.46805110285E+00 -0.62981219901E+01 -0.99978701151E+01  0.11825515614E+02  0.51100000000E-03 0.  1.
         12    1    3    3    0    0  0.10226255699E+01  0.52196279326E+01 -0.45692875515E+01  0.70120373316E+01  0.00000000000E+00 0. -1.
</event>
<event>
 7    1  0.2486105E-010  0.4778727E+02  0.7816164E-02  0.1312668E+00
        -11   -1    0    0    0    0  0.00000000000E+00  0.00000000000E+00  0.45593999997E+02  0.45594000000E+02  0.51100000000E-03 0. -1.
         11   -1    0    0    0    0 -0.00000000000E+00 -0.00000000000E+00 -0.45593999997E+02  0.45594000000E+02  0.51100000000E-03 0.  1.
    9900012    2    1    2    0    0 -0.12883813812E+02 -0.98321213478E+00 -0.41432644605E+02  0.47787269552E+02  0.19999993195E+02 0.  0.
         12    1    1    2    0    0  0.12883813812E+02  0.98321213478E+00  0.41432644605E+02  0.43400730448E+02  0.00000000000E+00 0. -1.
         11    1    3    3    0    0 -0.74460713487E+01  0.39307799015E+01 -0.23325359255E+02  0.24798536122E+02  0.51100000000E-03 0. -1.
        -11    1    3    3    0    0 -0.53721913997E+01  0.27456708901E+01 -0.51297273448E+01  0.79191699038E+01  0.51100000000E-03 0.  1.
        -12    1    3    3    0    0 -0.65551063796E-01 -0.76596629263E+01 -0.12977558005E+02  0.15069563526E+02  0.00000000000E+00 0.  1.
</event>
<event>
 7    1  0.2486105E-010  0.4778727E+02  0.7816164E-02  0.1312668E+00
        -11   -1    0    0    0    0  0.00000000000E+00  0.00000000000E+00  0.45593999997E+02  0.45594000000E+02  0.51100000000E-03 0.  1.
         11   -1    0    0    0    0 -0.00000000000E+00 -0.00000000000E+00 -0.45593999997E+02  0.45594000000E+02  0.51100000000E-03 0. -1.
    9900012    2    1    2    0    0 -0.56674092895E+01  0.21231591284E+02  0.37426237552E+02  0.47787271276E+02  0.20000001054E+02 0.  0.
         12    1    1    2    0    0  0.56674092895E+01 -0.21231591284E+02 -0.37426237552E+02  0.43400728724E+02  0.00000000000E+00 0. -1.
         11    1    3    3    0    0  0.33197632907E+00 -0.36185214099E+01  0.58402906606E+01  0.68784373762E+01  0.51100000000E-03 0. -1.
        -11    1    3    3    0    0 -0.17325970146E+01  0.32482287079E+01  0.69642311873E+01  0.78773979489E+01  0.51100000000E-03 0.  1.
         12    1    3    3    0    0 -0.42667886040E+01  0.21601883986E+02  0.24621715704E+02  0.33031435951E+02  0.00000000000E+00 0. -1.
</event>
<event>
 7    1  0.2486105E-010  0.4778727E+02  0.7816164E-02  0.1312668E+00
        -11   -1    0    0    0    0  0.00000000000E+00  0.00000000000E+00  0.45593999997E+02  0.45594000000E+02  0.51100000000E-03 0.  1.
         11   -1    0    0    0    0 -0.00000000000E+00 -0.00000000000E+00 -0.45593999997E+02  0.45594000000E+02  0.51100000000E-03 0. -1.
    9900012    2    1    2    0    0  0.38963842789E+02 -0.88008158083E+01  0.16970201460E+02  0.47787272571E+02  0.20000006962E+02 0.  0.
         12    1    1    2    0    0 -0.38963842789E+02  0.88008158083E+01 -0.16970201460E+02  0.43400727429E+02  0.00000000000E+00 0. -1.
         11    1    3    3    0    0  0.15399499688E+02 -0.76302177356E+01  0.14347719406E+02  0.22387984852E+02  0.51100000000E-03 0. -1.
        -11    1    3    3    0    0  0.11631064922E+02 -0.50415132289E+01  0.59091759662E+00  0.12690457467E+02  0.51100000000E-03 0.  1.
        -12    1    3    3    0    0  0.11933278179E+02  0.38709151562E+01  0.20315644574E+01  0.12708830252E+02  0.00000000000E+00 0.  1.
</event>
<event>
 7    1  0.2486105E-010  0.4778727E+02  0.7816164E-02  0.1312668E+00
        -11   -1    0    0    0    0  0.00000000000E+00  0.00000000000E+00  0.45593999997E+02  0.45594000000E+02  0.51100000000E-03 0.  1.
         11   -1    0    0    0    0 -0.00000000000E+00 -0.00000000000E+00 -0.45593999997E+02  0.45594000000E+02  0.51100000000E-03 0. -1.
    9900012    2    1    2    0    0  0.19412277609E+02 -0.24668342276E+02  0.29970974845E+02  0.47787274594E+02  0.20000016185E+02 0.  0.
         12    1    1    2    0    0 -0.19412277609E+02  0.24668342276E+02 -0.29970974845E+02  0.43400725406E+02  0.00000000000E+00 0. -1.
         11    1    3    3    0    0  0.66829298262E+01 -0.30002591879E+01  0.54306927681E+01  0.91189654270E+01  0.51100000000E-03 0. -1.
        -11    1    3    3    0    0  0.11428750014E+01 -0.45081137133E+00  0.10783820634E+02  0.10853579220E+02  0.51100000000E-03 0.  1.
         12    1    3    3    0    0  0.11586472781E+02 -0.21217271716E+02  0.13756461443E+02  0.27814729947E+02  0.00000000000E+00 0. -1.
</event>
<event>
 7    1  0.2486105E-010  0.4778727E+02  0.7816164E-02  0.1312668E+00
        -11   -1    0    0    0    0  0.00000000000E+00  0.00000000000E+00  0.45593999997E+02  0.45594000000E+02  0.51100000000E-03 0.  1.
         11   -1    0    0    0    0 -0.00000000000E+00 -0.00000000000E+00 -0.45593999997E+02  0.45594000000E+02  0.51100000000E-03 0. -1.
    9900012    2    1    2    0    0 -0.23209079869E+02 -0.12727853502E+02  0.34394239532E+02  0.47787270097E+02  0.19999995678E+02 0.  0.
         12    1    1    2    0    0  0.23209079869E+02  0.12727853502E+02 -0.34394239532E+02  0.43400729903E+02  0.00000000000E+00 0. -1.
         11    1    3    3    0    0 -0.13083552107E+02 -0.94417460238E+01  0.80068121505E+01  0.18012077747E+02  0.51100000000E-03 0. -1.
        -11    1    3    3    0    0 -0.97285635881E+00 -0.10090219406E+01 -0.33162738226E+00  0.14403304320E+01  0.51100000000E-03 0.  1.
        -12    1    3    3    0    0 -0.91526714038E+01 -0.22770855373E+01  0.26719054764E+02  0.28334861917E+02  0.00000000000E+00 0.  1.
</event>
<event>
 7    1  0.2486105E-010  0.4778722E+02  0.7816164E-02  0.1312668E+00
        -11   -1    0    0    0    0  0.00000000000E+00  0.00000000000E+00  0.45593999997E+02  0.45594000000E+02  0.51100000000E-03 0. -1.
         11   -1    0    0    0    0 -0.00000000000E+00 -0.00000000000E+00 -0.45593999997E+02  0.45594000000E+02  0.51100000000E-03 0.  1.
    9900012    2    1    2    0    0 -0.31381312413E+02  0.20812129204E+02  0.21579995951E+02  0.47787219869E+02  0.19999766668E+02 0.  0.
         12    1    1    2    0    0  0.31381312413E+02 -0.20812129204E+02 -0.21579995951E+02  0.43400780131E+02  0.00000000000E+00 0. -1.
         11    1    3    3    0    0 -0.31844723360E+01  0.10292681477E+00 -0.22985633886E+01  0.39287214078E+01  0.51100000000E-03 0. -1.
        -11    1    3    3    0    0 -0.59248463889E+01 -0.56879926977E+00  0.31893492074E+01  0.67527243368E+01  0.51100000000E-03 0.  1.
        -12    1    3    3    0    0 -0.22271993688E+02  0.21278001659E+02  0.20689210133E+02  0.37105774124E+02  0.00000000000E+00 0.  1.
</event>
<event>
 7    1  0.2486105E-010  0.4778729E+02  0.7816164E-02  0.1312668E+00
        -11   -1    0    0    0    0  0.00000000000E+00  0.00000000000E+00  0.45593999997E+02  0.45594000000E+02  0.51100000000E-03 0.  1.
         11   -1    0    0    0    0 -0.00000000000E+00 -0.00000000000E+00 -0.45593999997E+02  0.45594000000E+02  0.51100000000E-03 0. -1.
    9900012    2    1    2    0    0 -0.25382181496E+02  0.19058450059E+02  0.29599691747E+02  0.47787292544E+02  0.20000098025E+02 0.  0.
         12    1    1    2    0    0  0.25382181496E+02 -0.19058450059E+02 -0.29599691747E+02  0.43400707456E+02  0.00000000000E+00 0. -1.
         11    1    3    3    0    0 -0.63222737267E+00  0.39406356202E+01  0.10378160220E+01  0.41237583463E+01  0.51100000000E-03 0. -1.
        -11    1    3    3    0    0 -0.39328242764E+01 -0.51741450089E-01 -0.13787724883E+01  0.41678289075E+01  0.51100000000E-03 0.  1.
        -12    1    3    3    0    0 -0.20817129847E+02  0.15169555888E+02  0.29940648214E+02  0.39495705290E+02  0.00000000000E+00 0.  1.
</event>
<event>
 7    1  0.2486105E-010  0.4778728E+02  0.7816164E-02  0.1312668E+00
        -11   -1    0    0    0    0  0.00000000000E+00  0.00000000000E+00  0.45593999997E+02  0.45594000000E+02  0.51100000000E-03 0. -1.
         11   -1    0    0    0    0 -0.00000000000E+00 -0.00000000000E+00 -0.45593999997E+02  0.45594000000E+02  0.51100000000E-03 0.  1.
    9900012    2    1    2    0    0 -0.39424368955E+02 -0.53469444417E+01 -0.17342198621E+02  0.47787279553E+02  0.20000038792E+02 0.  0.
         12    1    1    2    0    0  0.39424368955E+02  0.53469444417E+01  0.17342198621E+02  0.43400720447E+02  0.00000000000E+00 0. -1.
         11    1    3    3    0    0 -0.90525607550E+01  0.40722160146E+01 -0.72852375119E+01  0.12312858537E+02  0.51100000000E-03 0. -1.
        -11    1    3    3    0    0 -0.10823128653E+02 -0.42464200586E+01 -0.98718935921E+01  0.15252097577E+02  0.51100000000E-03 0.  1.
         12    1    3    3    0    0 -0.19548679547E+02 -0.51727403978E+01 -0.18506751679E+00  0.20222323438E+02  0.00000000000E+00 0. -1.
</event>
<event>
 7    1  0.2486105E-010  0.4778728E+02  0.7816164E-02  0.1312668E+00
        -11   -1    0    0    0    0  0.00000000000E+00  0.00000000000E+00  0.45593999997E+02  0.45594000000E+02  0.51100000000E-03 0.  1.
         11   -1    0    0    0    0 -0.00000000000E+00 -0.00000000000E+00 -0.45593999997E+02  0.45594000000E+02  0.51100000000E-03 0. -1.
    9900012    2    1    2    0    0  0.29754286823E+01 -0.51584245136E+01  0.42990231636E+02  0.47787279552E+02  0.20000038789E+02 0.  0.
         12    1    1    2    0    0 -0.29754286823E+01  0.51584245136E+01 -0.42990231636E+02  0.43400720448E+02  0.00000000000E+00 0. -1.
         11    1    3    3    0    0 -0.20418873735E+01 -0.18732177427E+01  0.21371306082E+01  0.34993679794E+01  0.51100000000E-03 0. -1.
        -11    1    3    3    0    0 -0.64807268189E+00 -0.21485433733E+01  0.37580086947E+02  0.37647034040E+02  0.51100000000E-03 0.  1.
        -12    1    3    3    0    0  0.56653887376E+01 -0.11366633976E+01  0.32730140812E+01  0.66408775327E+01  0.00000000000E+00 0.  1.
</event>
<event>
 7    1  0.2486105E-010  0.4778727E+02  0.7816164E-02  0.1312668E+00
        -11   -1    0    0    0    0  0.00000000000E+00  0.00000000000E+00  0.45593999997E+02  0.45594000000E+02  0.51100000000E-03 0.  1.
         11   -1    0    0    0    0 -0.00000000000E+00 -0.00000000000E+00 -0.45593999997E+02  0.45594000000E+02  0.51100000000E-03 0. -1.
    9900012    2    1    2    0    0  0.11496304018E+02 -0.33005904727E+02  0.25730686483E+02  0.47787274432E+02  0.20000015446E+02 0.  0.
         12    1    1    2    0    0 -0.11496304018E+02  0.33005904727E+02 -0.25730686483E+02  0.43400725568E+02  0.00000000000E+00 0. -1.
         11    1    3    3    0    0 -0.11820538742E+01 -0.82139210556E+01  0.43193414286E+01  0.93553439866E+01  0.51100000000E-03 0.  1.
        -11    1    3    3    0    0  0.11682334267E+02 -0.22313539628E+02  0.10653049828E+02  0.27347000851E+02  0.51100000000E-03 0. -1.
         12    1    3    3    0    0  0.99602362525E+00 -0.24784440442E+01  0.10758295226E+02  0.11084929595E+02  0.00000000000E+00 0. -1.
</event>
<event>
 7    1  0.2486105E-010  0.4778727E+02  0.7816164E-02  0.1312668E+00
        -11   -1    0    0    0    0  0.00000000000E+00  0.00000000000E+00  0.45593999997E+02  0.45594000000E+02  0.51100000000E-03 0.  1.
         11   -1    0    0    0    0 -0.00000000000E+00 -0.00000000000E+00 -0.45593999997E+02  0.45594000000E+02  0.51100000000E-03 0. -1.
    9900012    2    1    2    0    0  0.14045593514E+01 -0.29453474343E+02  0.31845616115E+02  0.47787271854E+02  0.20000003693E+02 0.  0.
         12    1    1    2    0    0 -0.14045593514E+01  0.29453474343E+02 -0.31845616115E+02  0.43400728146E+02  0.00000000000E+00 0. -1.
         11    1    3    3    0    0  0.58650201416E+00 -0.18635088272E+02  0.11849429021E+02  0.22091162665E+02  0.51100000000E-03 0.  1.
        -11    1    3    3    0    0 -0.27067012424E+01 -0.93446233973E+00 -0.26811229806E+00  0.28759930364E+01  0.51100000000E-03 0. -1.
        -12    1    3    3    0    0  0.35247585796E+01 -0.98839237307E+01  0.20264299392E+02  0.22820116152E+02  0.00000000000E+00 0.  1.
</event>
<event>
 7    1  0.2486105E-010  0.4778727E+02  0.7816164E-02  0.1312668E+00
        -11   -1    0    0    0    0  0.00000000000E+00  0.00000000000E+00  0.45593999997E+02  0.45594000000E+02  0.51100000000E-03 0.  1.
         11   -1    0    0    0    0 -0.00000000000E+00 -0.00000000000E+00 -0.45593999997E+02  0.45594000000E+02  0.51100000000E-03 0. -1.
    9900012    2    1    2    0    0 -0.37628509893E+02 -0.10393186734E+02  0.18965761952E+02  0.47787271738E+02  0.20000003163E+02 0.  0.
         12    1    1    2    0    0  0.37628509893E+02  0.10393186734E+02 -0.18965761952E+02  0.43400728262E+02  0.00000000000E+00 0. -1.
         11    1    3    3    0    0 -0.53083350261E+01 -0.18429147948E+01 -0.40880365776E+01  0.69488703406E+01  0.51100000000E-03 0. -1.
        -11    1    3    3    0    0 -0.12893444865E+02 -0.31121918069E+01  0.66504576988E+01  0.14837629400E+02  0.51100000000E-03 0.  1.
         12    1    3    3    0    0 -0.19426730002E+02 -0.54380801327E+01  0.16403340830E+02  0.26000771998E+02  0.00000000000E+00 0. -1.
</event>
<event>
 7    1  0.2486105E-010  0.4778727E+02  0.7816164E-02  0.1312668E+00
        -11   -1    0    0    0    0  0.00000000000E+00  0.00000000000E+00  0.45593999997E+02  0.45594000000E+02  0.51100000000E-03 0.  1.
         11   -1    0    0    0    0 -0.00000000000E+00 -0.00000000000E+00 -0.45593999997E+02  0.45594000000E+02  0.51100000000E-03 0. -1.
    9900012    2    1    2    0    0  0.26655967391E+02 -0.33548323881E+02  0.68987639362E+01  0.47787267556E+02  0.19999984095E+02 0.  0.
         12    1    1    2    0    0 -0.26655967391E+02  0.33548323881E+02 -0.68987639362E+01  0.43400732444E+02  0.00000000000E+00 0. -1.
         11    1    3    3    0    0  0.16515296502E+02 -0.76379433057E+01  0.38139729876E+01  0.18591384744E+02  0.51100000000E-03 0.  1.
        -11    1    3    3    0    0 -0.11665636148E+01 -0.93160410321E+00 -0.42773454807E+00  0.15529694064E+01  0.51100000000E-03 0. -1.
        -12    1    3    3    0    0  0.11307234504E+02 -0.24978776472E+02  0.35125254966E+01  0.27642913406E+02  0.00000000000E+00 0.  1.
</event>
<event>
 7    1  0.2486105E-010  0.4778727E+02  0.7816164E-02  0.1312668E+00
        -11   -1    0    0    0    0  0.00000000000E+00  0.00000000000E+00  0.45593999997E+02  0.45594000000E+02  0.51100000000E-03 0.  1.
         11   -1    0    0    0    0 -0.00000000000E+00 -0.00000000000E+00 -0.45593999997E+02  0.45594000000E+02  0.51100000000E-03 0. -1.
    9900012    2    1    2    0    0  0.27338682887E+02 -0.32516123656E+02  0.88837556060E+01  0.47787274277E+02  0.20000014737E+02 0.  0.
         12    1    1    2    0    0 -0.27338682887E+02  0.32516123656E+02 -0.88837556060E+01  0.43400725723E+02  0.00000000000E+00 0. -1.
         11    1    3    3    0    0  0.42570983528E+01 -0.55552124132E+01 -0.15417581081E+00  0.70005029664E+01  0.51100000000E-03 0. -1.
        -11    1    3    3    0    0  0.10368131095E+01  0.22514362397E+01  0.26642835533E+01  0.36390044901E+01  0.51100000000E-03 0.  1.
        -12    1    3    3    0    0  0.22044771425E+02 -0.29212347483E+02  0.63736478636E+01  0.37147766820E+02  0.00000000000E+00 0.  1.
</event>
<event>
 7    1  0.2486105E-010  0.4778727E+02  0.7816164E-02  0.1312668E+00
        -11   -1    0    0    0    0  0.00000000000E+00  0.00000000000E+00  0.45593999997E+02  0.45594000000E+02  0.51100000000E-03 0. -1.
         11   -1    0    0    0    0 -0.00000000000E+00 -0.00000000000E+00 -0.45593999997E+02  0.45594000000E+02  0.51100000000E-03 0.  1.
    9900012    2    1    2    0    0  0.32387198837E+02 -0.28223624086E+02 -0.61741201485E+01  0.47787269999E+02  0.19999995232E+02 0.  0.
         12    1    1    2    0    0 -0.32387198837E+02  0.28223624086E+02  0.61741201485E+01  0.43400730001E+02  0.00000000000E+00 0. -1.
         11    1    3    3    0    0  0.58279419732E+00 -0.10087793545E+01  0.27289235404E+01  0.29672055563E+01  0.51100000000E-03 0. -1.
        -11    1    3    3    0    0 -0.60517210614E-01  0.11430194718E+01  0.29829683570E+00  0.11828512624E+01  0.51100000000E-03 0.  1.
        -12    1    3    3    0    0  0.31864921850E+02 -0.28357864203E+02 -0.92013405246E+01  0.43637213180E+02  0.00000000000E+00 0.  1.
</event>
<event>
 7    1  0.2486105E-010  0.4778727E+02  0.7816164E-02  0.1312668E+00
        -11   -1    0    0    0    0  0.00000000000E+00  0.00000000000E+00  0.45593999997E+02  0.45594000000E+02  0.51100000000E-03 0.  1.
         11   -1    0    0    0    0 -0.00000000000E+00 -0.00000000000E+00 -0.45593999997E+02  0.45594000000E+02  0.51100000000E-03 0. -1.
    9900012    2    1    2    0    0  0.54048052703E+00 -0.24075494995E+01  0.43330528539E+02  0.47787272849E+02  0.20000008226E+02 0.  0.
         12    1    1    2    0    0 -0.54048052703E+00  0.24075494995E+01 -0.43330528539E+02  0.43400727151E+02  0.00000000000E+00 0. -1.
         11    1    3    3    0    0  0.14899776191E+01 -0.14126251325E+01 -0.15646337630E-01  0.20532384516E+01  0.51100000000E-03 0. -1.
        -11    1    3    3    0    0  0.17761169960E+01 -0.72622117710E+01  0.18201292737E+02  0.19676924784E+02  0.51100000000E-03 0.  1.
        -12    1    3    3    0    0 -0.27256140880E+01  0.62672874040E+01  0.25144882140E+02  0.26057109613E+02  0.00000000000E+00 0.  1.
</event>
<event>
 7    1  0.2486105E-010  0.4778727E+02  0.7816164E-02  0.1312668E+00
        -11   -1    0    0    0    0  0.00000000000E+00  0.00000000000E+00  0.45593999997E+02  0.45594000000E+02  0.51100000000E-03 0. -1.
         11   -1    0    0    0    0 -0.00000000000E+00 -0.00000000000E+00 -0.45593999997E+02  0.45594000000E+02  0.51100000000E-03 0.  1.
    9900012    2    1    2    0    0  0.18802413539E+02  0.36170415105E+02 -0.14892728634E+02  0.47787273625E+02  0.20000011765E+02 0.  0.
         12    1    1    2    0    0 -0.18802413539E+02 -0.36170415105E+02  0.14892728634E+02  0.43400726375E+02  0.00000000000E+00 0. -1.
         11    1    3    3    0    0  0.11111982737E+02  0.56464381019E+01 -0.13812482381E+01  0.12540584936E+02  0.51100000000E-03 0. -1.
        -11    1    3    3    0    0 -0.16148437015E+01  0.67074371644E+01 -0.39349624667E+01  0.79423776900E+01  0.51100000000E-03 0.  1.
        -12    1    3    3    0    0  0.93052745037E+01  0.23816539838E+02 -0.95765179292E+01  0.27304310999E+02  0.00000000000E+00 0.  1.
</event>
<event>
 7    1  0.2486105E-010  0.4778727E+02  0.7816164E-02  0.1312668E+00
        -11   -1    0    0    0    0  0.00000000000E+00  0.00000000000E+00  0.45593999997E+02  0.45594000000E+02  0.51100000000E-03 0.  1.
         11   -1    0    0    0    0 -0.00000000000E+00 -0.00000000000E+00 -0.45593999997E+02  0.45594000000E+02  0.51100000000E-03 0. -1.
    9900012    2    1    2    0    0 -0.22260702779E+02  0.24075630375E+02  0.28433232293E+02  0.47787267692E+02  0.19999984717E+02 0.  0.
         12    1    1    2    0    0  0.22260702779E+02 -0.24075630375E+02 -0.28433232293E+02  0.43400732308E+02  0.00000000000E+00 0. -1.
         11    1    3    3    0    0 -0.14688655707E+02  0.10936916795E+02  0.12378035377E+02  0.22104038444E+02  0.51100000000E-03 0.  1.
        -11    1    3    3    0    0 -0.22861628236E+00  0.19550880505E+00  0.93606179182E+01  0.93654501851E+01  0.51100000000E-03 0. -1.
         12    1    3    3    0    0 -0.73434307901E+01  0.12943204775E+02  0.66945789979E+01  0.16317779063E+02  0.00000000000E+00 0. -1.
</event>
<event>
 7    1  0.2486105E-010  0.4778727E+02  0.7816164E-02  0.1312668E+00
        -11   -1    0    0    0    0  0.00000000000E+00  0.00000000000E+00  0.45593999997E+02  0.45594000000E+02  0.51100000000E-03 0. -1.
         11   -1    0    0    0    0 -0.00000000000E+00 -0.00000000000E+00 -0.45593999997E+02  0.45594000000E+02  0.51100000000E-03 0.  1.
    9900012    2    1    2    0    0 -0.41508085144E+02  0.12649713865E+02 -0.82867790789E+00  0.47787273045E+02  0.20000009120E+02 0.  0.
         12    1    1    2    0    0  0.41508085144E+02 -0.12649713865E+02  0.82867790789E+00  0.43400726955E+02  0.00000000000E+00 0. -1.
         11    1    3    3    0    0 -0.85315108008E+01 -0.11758834380E+00 -0.29058370581E+01  0.90135671536E+01  0.51100000000E-03 0. -1.
        -11    1    3    3    0    0 -0.18125240234E+02  0.74425178825E+01 -0.67146769585E+01  0.20712370528E+02  0.51100000000E-03 0.  1.
         12    1    3    3    0    0 -0.14851334109E+02  0.53247843266E+01  0.87918361088E+01  0.18061335364E+02  0.00000000000E+00 0. -1.
</event>
<event>
 7    1  0.2486105E-010  0.4778728E+02  0.7816164E-02  0.1312668E+00
        -11   -1    0    0    0    0  0.00000000000E+00  0.00000000000E+00  0.45593999997E+02  0.45594000000E+02  0.51100000000E-03 0. -1.
         11   -1    0    0    0    0 -0.00000000000E+00 -0.00000000000E+00 -0.45593999997E+02  0.45594000000E+02  0.51100000000E-03 0.  1.
    9900012    2    1    2    0    0 -0.37258768836E+02  0.38248319791E+01 -0.21926635114E+02  0.47787279703E+02  0.20000039479E+02 0.  0.
         12    1    1    2    0    0  0.37258768836E+02 -0.38248319791E+01  0.21926635114E+02  0.43400720297E+02  0.00000000000E+00 0. -1.
         11    1    3    3    0    0 -0.68259395362E+01 -0.40341948455E+01 -0.52987512170E+01  0.95365058236E+01  0.51100000000E-03 0. -1.
        -11    1    3    3    0    0 -0.29464691119E+02  0.31493362267E+01 -0.14569155801E+02  0.33020397370E+02  0.51100000000E-03 0.  1.
         12    1    3    3    0    0 -0.96813818059E+00  0.47096905979E+01 -0.20587280959E+01  0.52303765101E+01  0.00000000000E+00 0. -1.
</event>
<event>
 7    1  0.2486105E-010  0.4778727E+02  0.7816164E-02  0.1312668E+00
        -11   -1    0    0    0    0  0.00000000000E+00  0.00000000000E+00  0.45593999997E+02  0.45594000000E+02  0.51100000000E-03 0. -1.
         11   -1    0    0    0    0 -0.00000000000E+00 -0.00000000000E+00 -0.45593999997E+02  0.45594000000E+02  0.51100000000E-03 0.  1.
    9900012    2    1    2    0    0 -0.23094717775E+02 -0.29997437282E+02 -0.21222888176E+02  0.47787271722E+02  0.20000003087E+02 0.  0.
         12    1    1    2    0    0  0.23094717775E+02  0.29997437282E+02  0.21222888176E+02  0.43400728278E+02  0.00000000000E+00 0. -1.
         11    1    3    3    0    0 -0.48200383248E+01 -0.13275717377E+02 -0.57118241639E+01  0.15234906526E+02  0.51100000000E-03 0. -1.
        -11    1    3    3    0    0 -0.67485616666E+01 -0.15544726180E+02 -0.10447955636E+02  0.19908324234E+02  0.51100000000E-03 0.  1.
         12    1    3    3    0    0 -0.11526117784E+02 -0.11769937243E+01 -0.50631083758E+01  0.12644040961E+02  0.00000000000E+00 0. -1.
</event>
<event>
 7    1  0.2486105E-010  0.4778727E+02  0.7816164E-02  0.1312668E+00
        -11   -1    0    0    0    0  0.00000000000E+00  0.00000000000E+00  0.45593999997E+02  0.45594000000E+02  0.51100000000E-03 0.  1.
         11   -1    0    0    0    0 -0.00000000000E+00 -0.00000000000E+00 -0.45593999997E+02  0.45594000000E+02  0.51100000000E-03 0. -1.
    9900012    2    1    2    0    0  0.17268059549E+02  0.15389297447E+02  0.36723382929E+02  0.47787271777E+02  0.20000003342E+02 0.  0.
         12    1    1    2    0    0 -0.17268059549E+02 -0.15389297447E+02 -0.36723382929E+02  0.43400728223E+02  0.00000000000E+00 0. -1.
         11    1    3    3    0    0  0.41569333936E+01 -0.11803856512E+01  0.95417572586E+01  0.10474661683E+02  0.51100000000E-03 0. -1.
        -11    1    3    3    0    0  0.15217430697E+02  0.99025949439E+01  0.22438194498E+02  0.28863543722E+02  0.51100000000E-03 0.  1.
         12    1    3    3    0    0 -0.21063045411E+01  0.66670881544E+01  0.47434311724E+01  0.84490663725E+01  0.00000000000E+00 0. -1.
</event>
<event>
 7    1  0.2486105E-010  0.4778727E+02  0.7816164E-02  0.1312668E+00
        -11   -1    0    0    0    0  0.00000000000E+00  0.00000000000E+00  0.45593999997E+02  0.45594000000E+02  0.51100000000E-03 0.  1.
         11   -1    0    0    0    0 -0.00000000000E+00 -0.00000000000E+00 -0.45593999997E+02  0.45594000000E+02  0.51100000000E-03 0. -1.
    9900012    2    1    2    0    0 -0.29884333360E+02  0.30407785562E+02 -0.81189104706E+01  0.47787268319E+02  0.19999987575E+02 0.  0.
         12    1    1    2    0    0  0.29884333360E+02 -0.30407785562E+02  0.81189104706E+01  0.43400731681E+02  0.00000000000E+00 0. -1.
         11    1    3    3    0    0 -0.37430227888E+01  0.16336096779E+02 -0.33049267087E+01  0.17082178386E+02  0.51100000000E-03 0. -1.
        -11    1    3    3    0    0 -0.28603947941E+01  0.93511713160E+00 -0.24292054418E+01  0.38674722711E+01  0.51100000000E-03 0.  1.
        -12    1    3    3    0    0 -0.23280915777E+02  0.13136571651E+02 -0.23847783201E+01  0.26837617663E+02  0.00000000000E+00 0.  1.
</event>
<event>
 7    1  0.2514156E-010  0.4778727E+02  0.7816164E-02  0.1312668E+00
        -11   -1    0    0    0    0  0.00000000000E+00  0.00000000000E+00  0.45593999997E+02  0.45594000000E+02  0.51100000000E-03 0. -1.
         11   -1    0    0    0    0 -0.00000000000E+00 -0.00000000000E+00 -0.45593999997E+02  0.45594000000E+02  0.51100000000E-03 0.  1.
    9900012    2    1    2    0    0 -0.19176390839E+02  0.37201881073E+02  0.11485192218E+02  0.47787267734E+02  0.19999984906E+02 0.  0.
         12    1    1    2    0    0  0.19176390839E+02 -0.37201881073E+02 -0.11485192218E+02  0.43400732266E+02  0.00000000000E+00 0. -1.
         11    1    3    3    0    0  0.48352101631E+00  0.10988295272E+02  0.72039496816E+01  0.13148129785E+02  0.51100000000E-03 0. -1.
        -11    1    3    3    0    0 -0.10582607277E+02  0.19218802105E+02  0.66737703274E+01  0.22932360144E+02  0.51100000000E-03 0.  1.
        -12    1    3    3    0    0 -0.90773045777E+01  0.69947836954E+01 -0.23925277909E+01  0.11706777805E+02  0.00000000000E+00 0.  1.
</event>
<event>
 7    1  0.2486105E-010  0.4778727E+02  0.7816164E-02  0.1312668E+00
        -11   -1    0    0    0    0  0.00000000000E+00  0.00000000000E+00  0.45593999997E+02  0.45594000000E+02  0.51100000000E-03 0.  1.
         11   -1    0    0    0    0 -0.00000000000E+00 -0.00000000000E+00 -0.45593999997E+02  0.45594000000E+02  0.51100000000E-03 0. -1.
    9900012    2    1    2    0    0 -0.18567462955E+02 -0.39982233790E+01  0.39024184437E+02  0.47787269111E+02  0.19999991185E+02 0.  0.
         12    1    1    2    0    0  0.18567462955E+02  0.39982233790E+01 -0.39024184437E+02  0.43400730889E+02  0.00000000000E+00 0. -1.
         11    1    3    3    0    0 -0.58820936072E+01 -0.34280228875E+01  0.47421172625E+01  0.82968694406E+01  0.51100000000E-03 0. -1.
        -11    1    3    3    0    0 -0.70945101407E+01 -0.54516467129E+01  0.74255355758E+01  0.11627170974E+02  0.51100000000E-03 0.  1.
        -12    1    3    3    0    0 -0.55908592067E+01  0.48814462214E+01  0.26856531598E+02  0.27863228696E+02  0.00000000000E+00 0.  1.
</event>
<event>
 7    1  0.2486105E-010  0.4778727E+02  0.7816164E-02  0.1312668E+00
        -11   -1    0    0    0    0  0.00000000000E+00  0.00000000000E+00  0.45593999997E+02  0.45594000000E+02  0.51100000000E-03 0. -1.
         11   -1    0    0    0    0 -0.00000000000E+00 -0.00000000000E+00 -0.45593999997E+02  0.45594000000E+02  0.51100000000E-03 0.  1.
    9900012    2    1    2    0    0  0.16257280573E+02  0.28456105613E+02 -0.28453017889E+02  0.47787270222E+02  0.19999996250E+02 0.  0.
         12    1    1    2    0    0 -0.16257280573E+02 -0.28456105613E+02  0.28453017889E+02  0.43400729778E+02  0.00000000000E+00 0. -1.
         11    1    3    3    0    0  0.10616573189E+02  0.18497720085E+02 -0.14801644163E+02  0.25960854084E+02  0.51100000000E-03 0. -1.
        -11    1    3    3    0    0  0.73430496460E+01  0.11919805780E+02 -0.13096162738E+02  0.19170592757E+02  0.51100000000E-03 0.  1.
         12    1    3    3    0    0 -0.17023422624E+01 -0.19614202523E+01 -0.55521098838E+00  0.26558233801E+01  0.00000000000E+00 0. -1.
</event>
<event>
 7    1  0.2486105E-010  0.4778727E+02  0.7816164E-02  0.1312668E+00
        -11   -1    0    0    0    0  0.00000000000E+00  0.00000000000E+00  0.45593999997E+02  0.45594000000E+02  0.51100000000E-03 0. -1.
         11   -1    0    0    0    0 -0.00000000000E+00 -0.00000000000E+00 -0.45593999997E+02  0.45594000000E+02  0.51100000000E-03 0.  1.
    9900012    2    1    2    0    0 -0.28331826775E+02 -0.30057720071E+02  0.13321578857E+02  0.47787269505E+02  0.19999992981E+02 0.  0.
         12    1    1    2    0    0  0.28331826775E+02  0.30057720071E+02 -0.13321578857E+02  0.43400730495E+02  0.00000000000E+00 0. -1.
         11    1    3    3    0    0  0.28335883154E+00 -0.37803740621E-02 -0.19154560405E+01  0.19363054053E+01  0.51100000000E-03 0. -1.
        -11    1    3    3    0    0 -0.10734408154E+02 -0.93874869061E+01 -0.58673427739E+00  0.14272234801E+02  0.51100000000E-03 0.  1.
        -12    1    3    3    0    0 -0.17880777452E+02 -0.20666452791E+02  0.15823769175E+02  0.31578729299E+02  0.00000000000E+00 0.  1.
</event>
<event>
 7    1  0.2486105E-010  0.4778728E+02  0.7816164E-02  0.1312668E+00
        -11   -1    0    0    0    0  0.00000000000E+00  0.00000000000E+00  0.45593999997E+02  0.45594000000E+02  0.51100000000E-03 0.  1.
         11   -1    0    0    0    0 -0.00000000000E+00 -0.00000000000E+00 -0.45593999997E+02  0.45594000000E+02  0.51100000000E-03 0. -1.
    9900012    2    1    2    0    0 -0.33081096224E+02  0.26911790469E+02  0.80634365460E+01  0.47787281082E+02  0.20000045767E+02 0.  0.
         12    1    1    2    0    0  0.33081096224E+02 -0.26911790469E+02 -0.80634365460E+01  0.43400718918E+02  0.00000000000E+00 0. -1.
         11    1    3    3    0    0 -0.23732498285E+02  0.19732999710E+02  0.79786636633E+01  0.31879175437E+02  0.51100000000E-03 0. -1.
        -11    1    3    3    0    0 -0.79076211007E+01  0.97356164212E+01  0.15321923101E+01  0.12635676163E+02  0.51100000000E-03 0.  1.
         12    1    3    3    0    0 -0.14409768387E+01 -0.25568256625E+01 -0.14474194273E+01  0.32724294824E+01  0.00000000000E+00 0. -1.
</event>
<event>
 7    1  0.2486105E-010  0.4778730E+02  0.7816164E-02  0.1312668E+00
        -11   -1    0    0    0    0  0.00000000000E+00  0.00000000000E+00  0.45593999997E+02  0.45594000000E+02  0.51100000000E-03 0.  1.
         11   -1    0    0    0    0 -0.00000000000E+00 -0.00000000000E+00 -0.45593999997E+02  0.45594000000E+02  0.51100000000E-03 0. -1.
    9900012    2    1    2    0    0 -0.24072720318E+02 -0.26447462357E+02  0.24589768858E+02  0.47787298841E+02  0.20000126737E+02 0.  0.
         12    1    1    2    0    0  0.24072720318E+02  0.26447462357E+02 -0.24589768858E+02  0.43400701159E+02  0.00000000000E+00 0. -1.
         11    1    3    3    0    0  0.66229176628E+00 -0.16171438395E+01  0.67706376015E+01  0.69925187431E+01  0.51100000000E-03 0. -1.
        -11    1    3    3    0    0 -0.55630105197E+01 -0.12861932779E+02  0.81608567479E+01  0.16216534277E+02  0.51100000000E-03 0.  1.
        -12    1    3    3    0    0 -0.19172001564E+02 -0.11968385739E+02  0.96582745081E+01  0.24578245821E+02  0.00000000000E+00 0.  1.
</event>
<event>
 7    1  0.2486105E-010  0.4778727E+02  0.7816164E-02  0.1312668E+00
        -11   -1    0    0    0    0  0.00000000000E+00  0.00000000000E+00  0.45593999997E+02  0.45594000000E+02  0.51100000000E-03 0.  1.
         11   -1    0    0    0    0 -0.00000000000E+00 -0.00000000000E+00 -0.45593999997E+02  0.45594000000E+02  0.51100000000E-03 0. -1.
    9900012    2    1    2    0    0 -0.33984791671E+02 -0.27020366385E+01  0.26858077524E+02  0.47787269647E+02  0.19999993626E+02 0.  0.
         12    1    1    2    0    0  0.33984791671E+02  0.27020366385E+01 -0.26858077524E+02  0.43400730353E+02  0.00000000000E+00 0. -1.
         11    1    3    3    0    0 -0.14408314118E+02  0.23446108901E+01  0.46486830921E+01  0.15320149174E+02  0.51100000000E-03 0. -1.
        -11    1    3    3    0    0 -0.14041162888E+02 -0.52792358146E+00  0.70774000658E+01  0.15732849408E+02  0.51100000000E-03 0.  1.
        -12    1    3    3    0    0 -0.55353146645E+01 -0.45187239471E+01  0.15131994366E+02  0.16734271064E+02  0.00000000000E+00 0.  1.
</event>
<event>
 7    1  0.2486105E-010  0.4778729E+02  0.7816164E-02  0.1312668E+00
        -11   -1    0    0    0    0  0.00000000000E+00  0.00000000000E+00  0.45593999997E+02  0.45594000000E+02  0.51100000000E-03 0.  1.
         11   -1    0    0    0    0 -0.00000000000E+00 -0.00000000000E+00 -0.45593999997E+02  0.45594000000E+02  0.51100000000E-03 0. -1.
    9900012    2    1    2    0    0 -0.51309840684E+00 -0.11751873885E+02  0.41776213815E+02  0.47787287443E+02  0.20000074766E+02 0.  0.
         12    1    1    2    0    0  0.51309840684E+00  0.11751873885E+02 -0.41776213815E+02  0.43400712557E+02  0.00000000000E+00 0. -1.
         11    1    3    3    0    0 -0.10384341805E+01 -0.71960893041E+01  0.19332978941E+02  0.20654929722E+02  0.51100000000E-03 0. -1.
        -11    1    3    3    0    0 -0.51912059814E+01 -0.20430319244E+01  0.19399322414E+02  0.20185547041E+02  0.51100000000E-03 0.  1.
         12    1    3    3    0    0  0.57165417551E+01 -0.25127526562E+01  0.30439124601E+01  0.69468106793E+01  0.00000000000E+00 0. -1.
</event>
<event>
 7    1  0.2486105E-010  0.4778727E+02  0.7816164E-02  0.1312668E+00
        -11   -1    0    0    0    0  0.00000000000E+00  0.00000000000E+00  0.45593999997E+02  0.45594000000E+02  0.51100000000E-03 0. -1.
         11   -1    0    0    0    0 -0.00000000000E+00 -0.00000000000E+00 -0.45593999997E+02  0.45594000000E+02  0.51100000000E-03 0.  1.
    9900012    2    1    2    0    0  0.68389389574E+00 -0.30468146291E+02 -0.30900609272E+02  0.47787270713E+02  0.19999998489E+02 0.  0.
         12    1    1    2    0    0 -0.68389389574E+00  0.30468146291E+02  0.30900609272E+02  0.43400729287E+02  0.00000000000E+00 0. -1.
         11    1    3    3    0    0 -0.14173631630E+01 -0.42280344035E+01 -0.33210673192E+01  0.55600972701E+01  0.51100000000E-03 0. -1.
        -11    1    3    3    0    0  0.15895669602E+01 -0.20354915970E+02 -0.29622089727E+02  0.35976624734E+02  0.51100000000E-03 0.  1.
         12    1    3    3    0    0  0.51169009858E+00 -0.58851959178E+01  0.20425477738E+01  0.62505487084E+01  0.00000000000E+00 0. -1.
</event>
<event>
 7    1  0.2486105E-010  0.4778727E+02  0.7816164E-02  0.1312668E+00
        -11   -1    0    0    0    0  0.00000000000E+00  0.00000000000E+00  0.45593999997E+02  0.45594000000E+02  0.51100000000E-03 0.  1.
         11   -1    0    0    0    0 -0.00000000000E+00 -0.00000000000E+00 -0.45593999997E+02  0.45594000000E+02  0.51100000000E-03 0. -1.
    9900012    2    1    2    0    0 -0.24644434936E+02  0.12424366929E+02  0.33494928083E+02  0.47787271041E+02  0.19999999984E+02 0.  0.
         12    1    1    2    0    0  0.24644434936E+02 -0.12424366929E+02 -0.33494928083E+02  0.43400728959E+02  0.00000000000E+00 0. -1.
         11    1    3    3    0    0 -0.45266780920E+01 -0.27231150951E+01  0.46261025478E+01  0.70218940047E+01  0.51100000000E-03 0. -1.
        -11    1    3    3    0    0 -0.95590793102E+01  0.24683171523E+00  0.52468637269E+01  0.10907176646E+02  0.51100000000E-03 0.  1.
        -12    1    3    3    0    0 -0.10558677534E+02  0.14900650309E+02  0.23621961808E+02  0.29858200390E+02  0.00000000000E+00 0.  1.
</event>
<event>
 7    1  0.2486105E-010  0.4778727E+02  0.7816164E-02  0.1312668E+00
        -11   -1    0    0    0    0  0.00000000000E+00  0.00000000000E+00  0.45593999997E+02  0.45594000000E+02  0.51100000000E-03 0.  1.
         11   -1    0    0    0    0 -0.00000000000E+00 -0.00000000000E+00 -0.45593999997E+02  0.45594000000E+02  0.51100000000E-03 0. -1.
    9900012    2    1    2    0    0  0.82295831645E+01 -0.28622033657E+02  0.31570179869E+02  0.47787272970E+02  0.20000008780E+02 0.  0.
         12    1    1    2    0    0 -0.82295831645E+01  0.28622033657E+02 -0.31570179869E+02  0.43400727030E+02  0.00000000000E+00 0. -1.
         11    1    3    3    0    0  0.19610957484E+01 -0.11747186780E+02  0.16966741878E+01  0.12030004045E+02  0.51100000000E-03 0. -1.
        -11    1    3    3    0    0 -0.15217576801E+01 -0.65008301450E+01  0.10314762009E+02  0.12287019760E+02  0.51100000000E-03 0.  1.
         12    1    3    3    0    0  0.77902450962E+01 -0.10374016732E+02  0.19558743673E+02  0.23470249165E+02  0.00000000000E+00 0. -1.
</event>
<event>
 7    1  0.2486105E-010  0.4778727E+02  0.7816164E-02  0.1312668E+00
        -11   -1    0    0    0    0  0.00000000000E+00  0.00000000000E+00  0.45593999997E+02  0.45594000000E+02  0.51100000000E-03 0.  1.
         11   -1    0    0    0    0 -0.00000000000E+00 -0.00000000000E+00 -0.45593999997E+02  0.45594000000E+02  0.51100000000E-03 0. -1.
    9900012    2    1    2    0    0  0.90601812313E+01  0.16220740948E+02  0.39222751054E+02  0.47787268196E+02  0.19999987015E+02 0.  0.
         12    1    1    2    0    0 -0.90601812313E+01 -0.16220740948E+02 -0.39222751054E+02  0.43400731804E+02  0.00000000000E+00 0. -1.
         11    1    3    3    0    0 -0.99681650964E+00  0.57181991141E+01  0.12570266920E+02  0.13845687233E+02  0.51100000000E-03 0.  1.
        -11    1    3    3    0    0  0.30502951199E+01  0.11425747023E+02  0.23278661460E+02  0.26110305915E+02  0.51100000000E-03 0. -1.
         12    1    3    3    0    0  0.70067026211E+01 -0.92320518884E+00  0.33738226739E+01  0.78312750479E+01  0.00000000000E+00 0. -1.
</event>
<event>
 7    1  0.2486105E-010  0.4778727E+02  0.7816164E-02  0.1312668E+00
        -11   -1    0    0    0    0  0.00000000000E+00  0.00000000000E+00  0.45593999997E+02  0.45594000000E+02  0.51100000000E-03 0.  1.
         11   -1    0    0    0    0 -0.00000000000E+00 -0.00000000000E+00 -0.45593999997E+02  0.45594000000E+02  0.51100000000E-03 0. -1.
    9900012    2    1    2    0    0  0.21414045540E+02 -0.81061058073E+01  0.36869402872E+02  0.47787272288E+02  0.20000005671E+02 0.  0.
         12    1    1    2    0    0 -0.21414045540E+02  0.81061058073E+01 -0.36869402872E+02  0.43400727712E+02  0.00000000000E+00 0. -1.
         11    1    3    3    0    0  0.45186176820E+01 -0.79644719970E+01  0.11619689024E+02  0.14794184439E+02  0.51100000000E-03 0. -1.
        -11    1    3    3    0    0  0.87109624127E+01 -0.15273776641E+01  0.22617053669E+02  0.24284663177E+02  0.51100000000E-03 0.  1.
        -12    1    3    3    0    0  0.81844654451E+01  0.13857438539E+01  0.26326601791E+01  0.87084246721E+01  0.00000000000E+00 0.  1.
</event>
<event>
 7    1  0.2486105E-010  0.4778728E+02  0.7816164E-02  0.1312668E+00
        -11   -1    0    0    0    0  0.00000000000E+00  0.00000000000E+00  0.45593999997E+02  0.45594000000E+02  0.51100000000E-03 0.  1.
         11   -1    0    0    0    0 -0.00000000000E+00 -0.00000000000E+00 -0.45593999997E+02  0.45594000000E+02  0.51100000000E-03 0. -1.
    9900012    2    1    2    0    0 -0.28275236571E+02  0.18986755197E+02  0.26900502789E+02  0.47787275048E+02  0.20000018252E+02 0.  0.
         12    1    1    2    0    0  0.28275236571E+02 -0.18986755197E+02 -0.26900502789E+02  0.43400724952E+02  0.00000000000E+00 0. -1.
         11    1    3    3    0    0  0.96178529888E-01  0.19460413808E+00  0.35999887865E+01  0.36065274995E+01  0.51100000000E-03 0. -1.
        -11    1    3    3    0    0 -0.17323719970E+01  0.12866986392E+01  0.89800943828E+01  0.92357350282E+01  0.51100000000E-03 0.  1.
         12    1    3    3    0    0 -0.26639043104E+02  0.17505452420E+02  0.14320419620E+02  0.34945012520E+02  0.00000000000E+00 0. -1.
</event>
<event>
 7    1  0.2486105E-010  0.4778727E+02  0.7816164E-02  0.1312668E+00
        -11   -1    0    0    0    0  0.00000000000E+00  0.00000000000E+00  0.45593999997E+02  0.45594000000E+02  0.51100000000E-03 0.  1.
         11   -1    0    0    0    0 -0.00000000000E+00 -0.00000000000E+00 -0.45593999997E+02  0.45594000000E+02  0.51100000000E-03 0. -1.
    9900012    2    1    2    0    0  0.36252947798E+02  0.23857881994E+02  0.38536011854E+00  0.47787271207E+02  0.20000000743E+02 0.  0.
         12    1    1    2    0    0 -0.36252947798E+02 -0.23857881994E+02 -0.38536011854E+00  0.43400728793E+02  0.00000000000E+00 0. -1.
         11    1    3    3    0    0  0.87830356485E+01  0.12148200000E+02 -0.47422104541E+01  0.15722882646E+02  0.51100000000E-03 0. -1.
        -11    1    3    3    0    0  0.91908374355E+01  0.63408462252E+01  0.65755385187E+01  0.12958222513E+02  0.51100000000E-03 0.  1.
        -12    1    3    3    0    0  0.18279074714E+02  0.53688357696E+01 -0.14479679460E+01  0.19106166049E+02  0.00000000000E+00 0.  1.
</event>
<event>
 7    1  0.2486105E-010  0.4778727E+02  0.7816164E-02  0.1312668E+00
        -11   -1    0    0    0    0  0.00000000000E+00  0.00000000000E+00  0.45593999997E+02  0.45594000000E+02  0.51100000000E-03 0.  1.
         11   -1    0    0    0    0 -0.00000000000E+00 -0.00000000000E+00 -0.45593999997E+02  0.45594000000E+02  0.51100000000E-03 0. -1.
    9900012    2    1    2    0    0 -0.87535050813E+01 -0.25702676987E+02  0.33858114295E+02  0.47787270062E+02  0.19999995520E+02 0.  0.
         12    1    1    2    0    0  0.87535050813E+01  0.25702676987E+02 -0.33858114295E+02  0.43400729938E+02  0.00000000000E+00 0. -1.
         11    1    3    3    0    0 -0.21844541454E+01 -0.10426634776E+02  0.17432931933E+02  0.20430214603E+02  0.51100000000E-03 0. -1.
        -11    1    3    3    0    0 -0.42418191441E-01 -0.12768114978E+02  0.15833362461E+02  0.20340155518E+02  0.51100000000E-03 0.  1.
         12    1    3    3    0    0 -0.65266327444E+01 -0.25079272338E+01  0.59181990050E+00  0.70168999412E+01  0.00000000000E+00 0. -1.
</event>
<event>
 7    1  0.2486105E-010  0.4778727E+02  0.7816164E-02  0.1312668E+00
        -11   -1    0    0    0    0  0.00000000000E+00  0.00000000000E+00  0.45593999997E+02  0.45594000000E+02  0.51100000000E-03 0. -1.
         11   -1    0    0    0    0 -0.00000000000E+00 -0.00000000000E+00 -0.45593999997E+02  0.45594000000E+02  0.51100000000E-03 0.  1.
    9900012    2    1    2    0    0  0.31206748605E+02  0.24336272591E+02 -0.17818744697E+02  0.47787274376E+02  0.20000015189E+02 0.  0.
         12    1    1    2    0    0 -0.31206748605E+02 -0.24336272591E+02  0.17818744697E+02  0.43400725624E+02  0.00000000000E+00 0. -1.
         11    1    3    3    0    0  0.90226372059E+01  0.21332162681E+01 -0.78213564002E+01  0.12129806676E+02  0.51100000000E-03 0. -1.
        -11    1    3    3    0    0  0.13821160420E+02  0.53876748631E+01 -0.77693110780E+01  0.16745557938E+02  0.51100000000E-03 0.  1.
         12    1    3    3    0    0  0.83629509789E+01  0.16815381460E+02 -0.22280772191E+01  0.18911909761E+02  0.00000000000E+00 0. -1.
</event>
<event>
 7    1  0.2486105E-010  0.4778727E+02  0.7816164E-02  0.1312668E+00
        -11   -1    0    0    0    0  0.00000000000E+00  0.00000000000E+00  0.45593999997E+02  0.45594000000E+02  0.51100000000E-03 0.  1.
         11   -1    0    0    0    0 -0.00000000000E+00 -0.00000000000E+00 -0.45593999997E+02  0.45594000000E+02  0.51100000000E-03 0. -1.
    9900012    2    1    2    0    0 -0.19352586475E+02 -0.27006875451E+02  0.27923630286E+02  0.47787273586E+02  0.20000011589E+02 0.  0.
         12    1    1    2    0    0  0.19352586475E+02  0.27006875451E+02 -0.27923630286E+02  0.43400726414E+02  0.00000000000E+00 0. -1.
         11    1    3    3    0    0 -0.17732683087E+01 -0.32497622689E+01 -0.89761670984E+00  0.38093505112E+01  0.51100000000E-03 0. -1.
        -11    1    3    3    0    0 -0.12985642751E+02 -0.89587108977E+01  0.71094731113E+01  0.17304046544E+02  0.51100000000E-03 0.  1.
        -12    1    3    3    0    0 -0.45936754153E+01 -0.14798402284E+02  0.21711773884E+02  0.26673876531E+02  0.00000000000E+00 0.  1.
</event>
<event>
 7    1  0.2486105E-010  0.4778727E+02  0.7816164E-02  0.1312668E+00
        -11   -1    0    0    0    0  0.00000000000E+00  0.00000000000E+00  0.45593999997E+02  0.45594000000E+02  0.51100000000E-03 0.  1.
         11   -1    0    0    0    0 -0.00000000000E+00 -0.00000000000E+00 -0.45593999997E+02  0.45594000000E+02  0.51100000000E-03 0. -1.
    9900012    2    1    2    0    0  0.21772720834E+02 -0.37509954728E+02 -0.16048940971E+01  0.47787265430E+02  0.19999974400E+02 0.  0.
         12    1    1    2    0    0 -0.21772720834E+02  0.37509954728E+02  0.16048940971E+01  0.43400734570E+02  0.00000000000E+00 0. -1.
         11    1    3    3    0    0  0.13111479499E+02 -0.32961855162E+02 -0.43895739924E+01  0.35744414256E+02  0.51100000000E-03 0. -1.
        -11    1    3    3    0    0  0.12292534650E+01 -0.92016965458E+00 -0.19743117384E+01  0.25011364169E+01  0.51100000000E-03 0.  1.
        -12    1    3    3    0    0  0.74319878697E+01 -0.36279299110E+01  0.47589916338E+01  0.95417147571E+01  0.00000000000E+00 0.  1.
</event>
<event>
 7    1  0.2486105E-010  0.4778727E+02  0.7816164E-02  0.1312668E+00
        -11   -1    0    0    0    0  0.00000000000E+00  0.00000000000E+00  0.45593999997E+02  0.45594000000E+02  0.51100000000E-03 0.  1.
         11   -1    0    0    0    0 -0.00000000000E+00 -0.00000000000E+00 -0.45593999997E+02  0.45594000000E+02  0.51100000000E-03 0. -1.
    9900012    2    1    2    0    0  0.16981585419E+02  0.14146947892E+01  0.39915506544E+02  0.47787271120E+02  0.20000000343E+02 0.  0.
         12    1    1    2    0    0 -0.16981585419E+02 -0.14146947892E+01 -0.39915506544E+02  0.43400728880E+02  0.00000000000E+00 0. -1.
         11    1    3    3    0    0  0.77515306823E+01  0.62907469508E+01  0.13110140032E+02  0.16478334171E+02  0.51100000000E-03 0. -1.
        -11    1    3    3    0    0 -0.24465728493E+01  0.13510708192E+01  0.64578724623E+01  0.70367057681E+01  0.51100000000E-03 0.  1.
        -12    1    3    3    0    0  0.11676627586E+02 -0.62271229809E+01  0.20347494049E+02  0.24272231181E+02  0.00000000000E+00 0.  1.
</event>
<event>
 7    1  0.2486105E-010  0.4778727E+02  0.7816164E-02  0.1312668E+00
        -11   -1    0    0    0    0  0.00000000000E+00  0.00000000000E+00  0.45593999997E+02  0.45594000000E+02  0.51100000000E-03 0.  1.
         11   -1    0    0    0    0 -0.00000000000E+00 -0.00000000000E+00 -0.45593999997E+02  0.45594000000E+02  0.51100000000E-03 0. -1.
    9900012    2    1    2    0    0 -0.27321476019E+02 -0.16776473809E+02  0.29252524010E+02  0.47787270902E+02  0.19999999350E+02 0.  0.
         12    1    1    2    0    0  0.27321476019E+02  0.16776473809E+02 -0.29252524010E+02  0.43400729098E+02  0.00000000000E+00 0. -1.
         11    1    3    3    0    0 -0.61960365234E+01 -0.10172964520E+02  0.19580774731E+02  0.22919136438E+02  0.51100000000E-03 0.  1.
        -11    1    3    3    0    0 -0.14252057543E+02 -0.54993659705E+01  0.93261070214E+01  0.17898056954E+02  0.51100000000E-03 0. -1.
        -12    1    3    3    0    0 -0.68733819523E+01 -0.11041433187E+01  0.34564225754E+00  0.69700775104E+01  0.00000000000E+00 0.  1.
</event>
<event>
 7    1  0.2486105E-010  0.4778727E+02  0.7816164E-02  0.1312668E+00
        -11   -1    0    0    0    0  0.00000000000E+00  0.00000000000E+00  0.45593999997E+02  0.45594000000E+02  0.51100000000E-03 0.  1.
         11   -1    0    0    0    0 -0.00000000000E+00 -0.00000000000E+00 -0.45593999997E+02  0.45594000000E+02  0.51100000000E-03 0. -1.
    9900012    2    1    2    0    0 -0.10575774971E+01 -0.22332066866E+02  0.37199240189E+02  0.47787272457E+02  0.20000006439E+02 0.  0.
         12    1    1    2    0    0  0.10575774971E+01  0.22332066866E+02 -0.37199240189E+02  0.43400727543E+02  0.00000000000E+00 0. -1.
         11    1    3    3    0    0  0.19424097052E+01 -0.80043605146E+01  0.28425770024E+02  0.29595052702E+02  0.51100000000E-03 0.  1.
        -11    1    3    3    0    0  0.12415971389E+01 -0.50547561045E+00  0.12912785592E+00  0.13467528773E+01  0.51100000000E-03 0. -1.
         12    1    3    3    0    0 -0.42415843412E+01 -0.13822230741E+02  0.86443423092E+01  0.16845466878E+02  0.00000000000E+00 0. -1.
</event>
<event>
 7    1  0.2486105E-010  0.4778728E+02  0.7816164E-02  0.1312668E+00
        -11   -1    0    0    0    0  0.00000000000E+00  0.00000000000E+00  0.45593999997E+02  0.45594000000E+02  0.51100000000E-03 0.  1.
         11   -1    0    0    0    0 -0.00000000000E+00 -0.00000000000E+00 -0.45593999997E+02  0.45594000000E+02  0.51100000000E-03 0. -1.
    9900012    2    1    2    0    0  0.60253563932E+00 -0.42602822122E+02  0.82619246865E+01  0.47787275335E+02  0.20000019560E+02 0.  0.
         12    1    1    2    0    0 -0.60253563932E+00  0.42602822122E+02 -0.82619246865E+01  0.43400724665E+02  0.00000000000E+00 0. -1.
         11    1    3    3    0    0  0.34864958634E+01 -0.13772389651E+02  0.26547330760E+01  0.14452749844E+02  0.51100000000E-03 0. -1.
        -11    1    3    3    0    0  0.21658671313E+01 -0.20811211618E+02 -0.22230613045E+01  0.21041376174E+02  0.51100000000E-03 0.  1.
         12    1    3    3    0    0 -0.50498273554E+01 -0.80192208530E+01  0.78302529150E+01  0.12293149317E+02  0.00000000000E+00 0. -1.
</event>
<event>
 7    1  0.2486105E-010  0.4778727E+02  0.7816164E-02  0.1312668E+00
        -11   -1    0    0    0    0  0.00000000000E+00  0.00000000000E+00  0.45593999997E+02  0.45594000000E+02  0.51100000000E-03 0.  1.
         11   -1    0    0    0    0 -0.00000000000E+00 -0.00000000000E+00 -0.45593999997E+02  0.45594000000E+02  0.51100000000E-03 0. -1.
    9900012    2    1    2    0    0  0.28984598150E+02  0.30133519661E+02  0.11639900204E+02  0.47787271736E+02  0.20000003152E+02 0.  0.
         12    1    1    2    0    0 -0.28984598150E+02 -0.30133519661E+02 -0.11639900204E+02  0.43400728264E+02  0.00000000000E+00 0. -1.
         11    1    3    3    0    0 -0.11219645702E+01  0.93355734522E+00  0.38658203259E+01  0.41321787071E+01  0.51100000000E-03 0. -1.
        -11    1    3    3    0    0  0.11997699773E+02  0.12603683216E+02  0.78539724503E+01  0.19091425143E+02  0.51100000000E-03 0.  1.
         12    1    3    3    0    0  0.18108862947E+02  0.16596279100E+02 -0.79892572323E-01  0.24563667886E+02  0.00000000000E+00 0. -1.
</event>
<event>
 7    1  0.2486105E-010  0.4778727E+02  0.7816164E-02  0.1312668E+00
        -11   -1    0    0    0    0  0.00000000000E+00  0.00000000000E+00  0.45593999997E+02  0.45594000000E+02  0.51100000000E-03 0.  1.
         11   -1    0    0    0    0 -0.00000000000E+00 -0.00000000000E+00 -0.45593999997E+02  0.45594000000E+02  0.51100000000E-03 0. -1.
    9900012    2    1    2    0    0 -0.24128111040E+02 -0.31063856879E+02  0.18343774806E+02  0.47787273961E+02  0.20000013299E+02 0.  0.
         12    1    1    2    0    0  0.24128111040E+02  0.31063856879E+02 -0.18343774806E+02  0.43400726039E+02  0.00000000000E+00 0. -1.
         11    1    3    3    0    0 -0.15521634301E+02 -0.13069297265E+02  0.58208268080E+01  0.21109469140E+02  0.51100000000E-03 0. -1.
        -11    1    3    3    0    0 -0.29980250998E+01  0.89504976630E+00  0.43198417154E+01  0.53338823844E+01  0.51100000000E-03 0.  1.
         12    1    3    3    0    0 -0.56084516395E+01 -0.18889609380E+02  0.82031062825E+01  0.21343922437E+02  0.00000000000E+00 0. -1.
</event>
<event>
 7    1  0.2486105E-010  0.4778727E+02  0.7816164E-02  0.1312668E+00
        -11   -1    0    0    0    0  0.00000000000E+00  0.00000000000E+00  0.45593999997E+02  0.45594000000E+02  0.51100000000E-03 0. -1.
         11   -1    0    0    0    0 -0.00000000000E+00 -0.00000000000E+00 -0.45593999997E+02  0.45594000000E+02  0.51100000000E-03 0.  1.
    9900012    2    1    2    0    0  0.38556865245E+02 -0.10904836254E+02 -0.16675603263E+02  0.47787273561E+02  0.20000011475E+02 0.  0.
         12    1    1    2    0    0 -0.38556865245E+02  0.10904836254E+02  0.16675603263E+02  0.43400726439E+02  0.00000000000E+00 0. -1.
         11    1    3    3    0    0  0.12185045754E+02 -0.31478984436E+01 -0.13138020337E+02  0.18193190575E+02  0.51100000000E-03 0. -1.
        -11    1    3    3    0    0  0.75103728524E+01  0.10526751737E+01  0.23860917057E+01  0.79502993209E+01  0.51100000000E-03 0.  1.
        -12    1    3    3    0    0  0.18861446638E+02 -0.88096129839E+01 -0.59236746308E+01  0.21643783665E+02  0.00000000000E+00 0.  1.
</event>
<event>
 7    1  0.2486105E-010  0.4778727E+02  0.7816164E-02  0.1312668E+00
        -11   -1    0    0    0    0  0.00000000000E+00  0.00000000000E+00  0.45593999997E+02  0.45594000000E+02  0.51100000000E-03 0. -1.
         11   -1    0    0    0    0 -0.00000000000E+00 -0.00000000000E+00 -0.45593999997E+02  0.45594000000E+02  0.51100000000E-03 0.  1.
    9900012    2    1    2    0    0 -0.20830107857E+02  0.36017532303E+02  0.12347757411E+02  0.47787272591E+02  0.20000007052E+02 0.  0.
         12    1    1    2    0    0  0.20830107857E+02 -0.36017532303E+02 -0.12347757411E+02  0.43400727409E+02  0.00000000000E+00 0. -1.
         11    1    3    3    0    0 -0.22691886945E+00  0.43620746414E+00  0.28002101811E+01  0.28430523113E+01  0.51100000000E-03 0. -1.
        -11    1    3    3    0    0 -0.10069539204E+02  0.27180588081E+02  0.11778252310E+02  0.31287492964E+02  0.51100000000E-03 0.  1.
         12    1    3    3    0    0 -0.10533649784E+02  0.84007367576E+01 -0.22307050795E+01  0.13656727316E+02  0.00000000000E+00 0. -1.
</event>
<event>
 7    1  0.2486105E-010  0.4778727E+02  0.7816164E-02  0.1312668E+00
        -11   -1    0    0    0    0  0.00000000000E+00  0.00000000000E+00  0.45593999997E+02  0.45594000000E+02  0.51100000000E-03 0.  1.
         11   -1    0    0    0    0 -0.00000000000E+00 -0.00000000000E+00 -0.45593999997E+02  0.45594000000E+02  0.51100000000E-03 0. -1.
    9900012    2    1    2    0    0  0.10241533834E+02 -0.33595610682E+02  0.25496458892E+02  0.47787268573E+02  0.19999988731E+02 0.  0.
         12    1    1    2    0    0 -0.10241533834E+02  0.33595610682E+02 -0.25496458892E+02  0.43400731427E+02  0.00000000000E+00 0. -1.
         11    1    3    3    0    0  0.84535234048E+01 -0.11902611377E+02  0.12443840095E+02  0.19182892694E+02  0.51100000000E-03 0. -1.
        -11    1    3    3    0    0 -0.86969052160E-01 -0.46464013048E+01  0.10214155382E+02  0.11221656701E+02  0.51100000000E-03 0.  1.
         12    1    3    3    0    0  0.18749794818E+01 -0.17046598001E+02  0.28384634155E+01  0.17382719178E+02  0.00000000000E+00 0. -1.
</event>
<event>
 7    1  0.2486105E-010  0.4778726E+02  0.7816164E-02  0.1312668E+00
        -11   -1    0    0    0    0  0.00000000000E+00  0.00000000000E+00  0.45593999997E+02  0.45594000000E+02  0.51100000000E-03 0.  1.
         11   -1    0    0    0    0 -0.00000000000E+00 -0.00000000000E+00 -0.45593999997E+02  0.45594000000E+02  0.51100000000E-03 0. -1.
    9900012    2    1    2    0    0  0.33749743170E+02  0.24948376179E+02  0.11052507954E+02  0.47787256111E+02  0.19999931912E+02 0.  0.
         12    1    1    2    0    0 -0.33749743170E+02 -0.24948376179E+02 -0.11052507954E+02  0.43400743889E+02  0.00000000000E+00 0. -1.
         11    1    3    3    0    0  0.24975123410E+02  0.13097548612E+02  0.10998984611E+02  0.30270121106E+02  0.51100000000E-03 0. -1.
        -11    1    3    3    0    0  0.10377742947E+02  0.87731937576E+01  0.16654702824E+01  0.13690882693E+02  0.51100000000E-03 0.  1.
        -12    1    3    3    0    0 -0.16031231872E+01  0.30776338097E+01 -0.16119469401E+01  0.38262523123E+01  0.00000000000E+00 0.  1.
</event>
<event>
 7    1  0.2486105E-010  0.4778728E+02  0.7816164E-02  0.1312668E+00
        -11   -1    0    0    0    0  0.00000000000E+00  0.00000000000E+00  0.45593999997E+02  0.45594000000E+02  0.51100000000E-03 0.  1.
         11   -1    0    0    0    0 -0.00000000000E+00 -0.00000000000E+00 -0.45593999997E+02  0.45594000000E+02  0.51100000000E-03 0. -1.
    9900012    2    1    2    0    0  0.51368220354E+01  0.41843649146E+02  0.10312363835E+02  0.47787276937E+02  0.20000026869E+02 0.  0.
         12    1    1    2    0    0 -0.51368220354E+01 -0.41843649146E+02 -0.10312363835E+02  0.43400723063E+02  0.00000000000E+00 0. -1.
         11    1    3    3    0    0  0.73376205070E+01  0.11293862110E+02 -0.47532710534E+00  0.13476569749E+02  0.51100000000E-03 0. -1.
        -11    1    3    3    0    0  0.49780131716E+00  0.12143434583E+02 -0.11481624992E+01  0.12207747008E+02  0.51100000000E-03 0.  1.
        -12    1    3    3    0    0 -0.26985997888E+01  0.18406352453E+02  0.11935853439E+02  0.22102960181E+02  0.00000000000E+00 0.  1.
</event>
<event>
 7    1  0.2486105E-010  0.4778729E+02  0.7816164E-02  0.1312668E+00
        -11   -1    0    0    0    0  0.00000000000E+00  0.00000000000E+00  0.45593999997E+02  0.45594000000E+02  0.51100000000E-03 0.  1.
         11   -1    0    0    0    0 -0.00000000000E+00 -0.00000000000E+00 -0.45593999997E+02  0.45594000000E+02  0.51100000000E-03 0. -1.
    9900012    2    1    2    0    0 -0.42412679819E+01  0.35526410385E+02  0.24566380104E+02  0.47787294702E+02  0.20000107864E+02 0.  0.
         12    1    1    2    0    0  0.42412679819E+01 -0.35526410385E+02 -0.24566380104E+02  0.43400705298E+02  0.00000000000E+00 0. -1.
         11    1    3    3    0    0  0.36593527843E+01  0.12360786177E+02  0.34191197577E+01  0.13336801636E+02  0.51100000000E-03 0. -1.
        -11    1    3    3    0    0  0.22692505106E+01  0.10809720985E+02  0.10420192693E+02  0.15184860278E+02  0.51100000000E-03 0.  1.
         12    1    3    3    0    0 -0.10169871277E+02  0.12355903223E+02  0.10727067653E+02  0.19265632787E+02  0.00000000000E+00 0. -1.
</event>
<event>
 7    1  0.2486105E-010  0.4778726E+02  0.7816164E-02  0.1312668E+00
        -11   -1    0    0    0    0  0.00000000000E+00  0.00000000000E+00  0.45593999997E+02  0.45594000000E+02  0.51100000000E-03 0.  1.
         11   -1    0    0    0    0 -0.00000000000E+00 -0.00000000000E+00 -0.45593999997E+02  0.45594000000E+02  0.51100000000E-03 0. -1.
    9900012    2    1    2    0    0 -0.10839333009E+02  0.14559663764E+02  0.39422695162E+02  0.47787264490E+02  0.19999970115E+02 0.  0.
         12    1    1    2    0    0  0.10839333009E+02 -0.14559663764E+02 -0.39422695162E+02  0.43400735510E+02  0.00000000000E+00 0. -1.
         11    1    3    3    0    0 -0.24516834335E+01  0.13198236245E+02  0.23196751288E+02  0.26800997411E+02  0.51100000000E-03 0. -1.
        -11    1    3    3    0    0 -0.97681283645E+00  0.45283956944E+01  0.91743921774E+01  0.10277645789E+02  0.51100000000E-03 0.  1.
         12    1    3    3    0    0 -0.74108367392E+01 -0.31669681757E+01  0.70515516963E+01  0.10708621290E+02  0.00000000000E+00 0. -1.
</event>
<event>
 7    1  0.2486105E-010  0.4778727E+02  0.7816164E-02  0.1312668E+00
        -11   -1    0    0    0    0  0.00000000000E+00  0.00000000000E+00  0.45593999997E+02  0.45594000000E+02  0.51100000000E-03 0.  1.
         11   -1    0    0    0    0 -0.00000000000E+00 -0.00000000000E+00 -0.45593999997E+02  0.45594000000E+02  0.51100000000E-03 0. -1.
    9900012    2    1    2    0    0  0.15736409065E+02  0.15671235280E+02  0.37288080503E+02  0.47787272667E+02  0.20000007399E+02 0.  0.
         12    1    1    2    0    0 -0.15736409065E+02 -0.15671235280E+02 -0.37288080503E+02  0.43400727333E+02  0.00000000000E+00 0. -1.
         11    1    3    3    0    0  0.11353157402E+01  0.31776694534E+01 -0.12844783327E+01  0.36105968804E+01  0.51100000000E-03 0. -1.
        -11    1    3    3    0    0 -0.84323152666E+00  0.36216389522E+01  0.63134150785E+01  0.73271084558E+01  0.51100000000E-03 0.  1.
        -12    1    3    3    0    0  0.15444324851E+02  0.88719268745E+01  0.32259143757E+02  0.36849567331E+02  0.00000000000E+00 0.  1.
</event>
<event>
 7    1  0.2486105E-010  0.4778727E+02  0.7816164E-02  0.1312668E+00
        -11   -1    0    0    0    0  0.00000000000E+00  0.00000000000E+00  0.45593999997E+02  0.45594000000E+02  0.51100000000E-03 0. -1.
         11   -1    0    0    0    0 -0.00000000000E+00 -0.00000000000E+00 -0.45593999997E+02  0.45594000000E+02  0.51100000000E-03 0.  1.
    9900012    2    1    2    0    0 -0.38084990446E+02  0.20726907555E+02  0.18847313278E+01  0.47787269520E+02  0.19999993050E+02 0.  0.
         12    1    1    2    0    0  0.38084990446E+02 -0.20726907555E+02 -0.18847313278E+01  0.43400730480E+02  0.00000000000E+00 0. -1.
         11    1    3    3    0    0 -0.12968083207E+02  0.48495229345E+01 -0.13383412211E+01  0.13909716469E+02  0.51100000000E-03 0. -1.
        -11    1    3    3    0    0 -0.14821487869E+02  0.33256020025E+01 -0.45801913641E+01  0.15865506122E+02  0.51100000000E-03 0.  1.
         12    1    3    3    0    0 -0.10295419370E+02  0.12551782618E+02  0.78032639130E+01  0.18012046929E+02  0.00000000000E+00 0. -1.
</event>
<event>
 7    1  0.2486105E-010  0.4778727E+02  0.7816164E-02  0.1312668E+00
        -11   -1    0    0    0    0  0.00000000000E+00  0.00000000000E+00  0.45593999997E+02  0.45594000000E+02  0.51100000000E-03 0. -1.
         11   -1    0    0    0    0 -0.00000000000E+00 -0.00000000000E+00 -0.45593999997E+02  0.45594000000E+02  0.51100000000E-03 0.  1.
    9900012    2    1    2    0    0 -0.22427284956E+02  0.24584001770E+02 -0.27861571134E+02  0.47787269596E+02  0.19999993398E+02 0.  0.
         12    1    1    2    0    0  0.22427284956E+02 -0.24584001770E+02  0.27861571134E+02  0.43400730404E+02  0.00000000000E+00 0. -1.
         11    1    3    3    0    0 -0.51347614959E+01  0.61538320006E+01 -0.46170927438E+00  0.80279885168E+01  0.51100000000E-03 0. -1.
        -11    1    3    3    0    0 -0.46193818739E+01  0.45653098026E+01 -0.17198228701E+02  0.18383683341E+02  0.51100000000E-03 0.  1.
        -12    1    3    3    0    0 -0.12673141586E+02  0.13864859967E+02 -0.10201633159E+02  0.21375597738E+02  0.00000000000E+00 0.  1.
</event>
<event>
 7    1  0.2486105E-010  0.4778727E+02  0.7816164E-02  0.1312668E+00
        -11   -1    0    0    0    0  0.00000000000E+00  0.00000000000E+00  0.45593999997E+02  0.45594000000E+02  0.51100000000E-03 0.  1.
         11   -1    0    0    0    0 -0.00000000000E+00 -0.00000000000E+00 -0.45593999997E+02  0.45594000000E+02  0.51100000000E-03 0. -1.
    9900012    2    1    2    0    0  0.92835862640E+01  0.12099139306E+02  0.40633107664E+02  0.47787267468E+02  0.19999983694E+02 0.  0.
         12    1    1    2    0    0 -0.92835862640E+01 -0.12099139306E+02 -0.40633107664E+02  0.43400732532E+02  0.00000000000E+00 0. -1.
         11    1    3    3    0    0  0.20524959773E+01  0.12595076197E+02  0.17900833028E+02  0.21983823769E+02  0.51100000000E-03 0. -1.
        -11    1    3    3    0    0  0.56540203868E+01  0.13233669623E+01  0.43278690268E+01  0.72422163199E+01  0.51100000000E-03 0.  1.
        -12    1    3    3    0    0  0.15770699000E+01 -0.18193038538E+01  0.18404405610E+02  0.18561227379E+02  0.00000000000E+00 0.  1.
</event>
<event>
 7    1  0.2486105E-010  0.4778727E+02  0.7816164E-02  0.1312668E+00
        -11   -1    0    0    0    0  0.00000000000E+00  0.00000000000E+00  0.45593999997E+02  0.45594000000E+02  0.51100000000E-03 0.  1.
         11   -1    0    0    0    0 -0.00000000000E+00 -0.00000000000E+00 -0.45593999997E+02  0.45594000000E+02  0.51100000000E-03 0. -1.
    9900012    2    1    2    0    0 -0.44763228733E+01  0.12721592151E+02  0.41252234209E+02  0.47787271889E+02  0.20000003852E+02 0.  0.
         12    1    1    2    0    0  0.44763228733E+01 -0.12721592151E+02 -0.41252234209E+02  0.43400728111E+02  0.00000000000E+00 0. -1.
         11    1    3    3    0    0  0.15252177816E+01 -0.21138129505E+01  0.13171917616E+01  0.29205288680E+01  0.51100000000E-03 0. -1.
        -11    1    3    3    0    0  0.21803744175E+01 -0.46599567326E+00  0.10186304552E+02  0.10427463030E+02  0.51100000000E-03 0.  1.
         12    1    3    3    0    0 -0.81819150724E+01  0.15301400774E+02  0.29748737896E+02  0.34439279991E+02  0.00000000000E+00 0. -1.
</event>
<event>
 7    1  0.2486105E-010  0.4778727E+02  0.7816164E-02  0.1312668E+00
        -11   -1    0    0    0    0  0.00000000000E+00  0.00000000000E+00  0.45593999997E+02  0.45594000000E+02  0.51100000000E-03 0. -1.
         11   -1    0    0    0    0 -0.00000000000E+00 -0.00000000000E+00 -0.45593999997E+02  0.45594000000E+02  0.51100000000E-03 0.  1.
    9900012    2    1    2    0    0 -0.12779737763E+02 -0.21041988019E+02 -0.35742636348E+02  0.47787274082E+02  0.20000013849E+02 0.  0.
         12    1    1    2    0    0  0.12779737763E+02  0.21041988019E+02  0.35742636348E+02  0.43400725918E+02  0.00000000000E+00 0. -1.
         11    1    3    3    0    0 -0.80065063905E+01 -0.25023270186E+00 -0.70063771055E+01  0.10642184052E+02  0.51100000000E-03 0. -1.
        -11    1    3    3    0    0 -0.49635579138E+01 -0.78351531516E+01 -0.62237841968E+01  0.11169692120E+02  0.51100000000E-03 0.  1.
         12    1    3    3    0    0  0.19032654135E+00 -0.12956602166E+02 -0.22512475046E+02  0.25975397910E+02  0.00000000000E+00 0. -1.
</event>
<event>
 7    1  0.2486105E-010  0.4778726E+02  0.7816164E-02  0.1312668E+00
        -11   -1    0    0    0    0  0.00000000000E+00  0.00000000000E+00  0.45593999997E+02  0.45594000000E+02  0.51100000000E-03 0.  1.
         11   -1    0    0    0    0 -0.00000000000E+00 -0.00000000000E+00 -0.45593999997E+02  0.45594000000E+02  0.51100000000E-03 0. -1.
    9900012    2    1    2    0    0  0.51923118900E+01 -0.16262707209E+02  0.39902239660E+02  0.47787257167E+02  0.19999936727E+02 0.  0.
         12    1    1    2    0    0 -0.51923118900E+01  0.16262707209E+02 -0.39902239660E+02  0.43400742833E+02  0.00000000000E+00 0. -1.
         11    1    3    3    0    0  0.11305187781E+00 -0.59533455960E+01  0.15838235484E+01  0.61614610123E+01  0.51100000000E-03 0. -1.
        -11    1    3    3    0    0  0.80738023107E+00  0.25392548038E+01  0.51072434900E+01  0.57605220356E+01  0.51100000000E-03 0.  1.
        -12    1    3    3    0    0  0.42718797812E+01 -0.12848616417E+02  0.33211172622E+02  0.35865274119E+02  0.00000000000E+00 0.  1.
</event>
<event>
 7    1  0.2486105E-010  0.4778727E+02  0.7816164E-02  0.1312668E+00
        -11   -1    0    0    0    0  0.00000000000E+00  0.00000000000E+00  0.45593999997E+02  0.45594000000E+02  0.51100000000E-03 0. -1.
         11   -1    0    0    0    0 -0.00000000000E+00 -0.00000000000E+00 -0.45593999997E+02  0.45594000000E+02  0.51100000000E-03 0.  1.
    9900012    2    1    2    0    0  0.18752127375E+02  0.67144745465E+01 -0.38560302399E+02  0.47787269929E+02  0.19999994916E+02 0.  0.
         12    1    1    2    0    0 -0.18752127375E+02 -0.67144745465E+01  0.38560302399E+02  0.43400730071E+02  0.00000000000E+00 0. -1.
         11    1    3    3    0    0  0.31446600158E+01  0.39527150112E+01 -0.81252887433E+01  0.95672963787E+01  0.51100000000E-03 0.  1.
        -11    1    3    3    0    0  0.30997029850E+01  0.55229195323E+01 -0.14015294560E+01  0.64865309552E+01  0.51100000000E-03 0. -1.
         12    1    3    3    0    0  0.12507764374E+02 -0.27611599970E+01 -0.29033484200E+02  0.31733442596E+02  0.00000000000E+00 0. -1.
</event>
<event>
 7    1  0.2486105E-010  0.4778727E+02  0.7816164E-02  0.1312668E+00
        -11   -1    0    0    0    0  0.00000000000E+00  0.00000000000E+00  0.45593999997E+02  0.45594000000E+02  0.51100000000E-03 0.  1.
         11   -1    0    0    0    0 -0.00000000000E+00 -0.00000000000E+00 -0.45593999997E+02  0.45594000000E+02  0.51100000000E-03 0. -1.
    9900012    2    1    2    0    0  0.22347130936E+02  0.32437175286E+02  0.18222476888E+02  0.47787271140E+02  0.20000000438E+02 0.  0.
         12    1    1    2    0    0 -0.22347130936E+02 -0.32437175286E+02 -0.18222476888E+02  0.43400728860E+02  0.00000000000E+00 0. -1.
         11    1    3    3    0    0  0.14533074367E+02  0.13660937727E+02  0.72789508617E+01  0.21232394967E+02  0.51100000000E-03 0. -1.
        -11    1    3    3    0    0  0.10877449121E+02  0.17907761955E+02  0.88544064203E+01  0.22746589875E+02  0.51100000000E-03 0.  1.
         12    1    3    3    0    0 -0.30633925520E+01  0.86847560421E+00  0.20891196060E+01  0.38082862985E+01  0.00000000000E+00 0. -1.
</event>
<event>
 7    1  0.2486105E-010  0.4778728E+02  0.7816164E-02  0.1312668E+00
        -11   -1    0    0    0    0  0.00000000000E+00  0.00000000000E+00  0.45593999997E+02  0.45594000000E+02  0.51100000000E-03 0.  1.
         11   -1    0    0    0    0 -0.00000000000E+00 -0.00000000000E+00 -0.45593999997E+02  0.45594000000E+02  0.51100000000E-03 0. -1.
    9900012    2    1    2    0    0 -0.10530736508E+02 -0.23201225388E+01  0.42039780269E+02  0.47787279901E+02  0.20000040383E+02 0.  0.
         12    1    1    2    0    0  0.10530736508E+02  0.23201225388E+01 -0.42039780269E+02  0.43400720099E+02  0.00000000000E+00 0. -1.
         11    1    3    3    0    0  0.27168450335E+00  0.17234553303E+01  0.18212562894E+01  0.25221192434E+01  0.51100000000E-03 0. -1.
        -11    1    3    3    0    0 -0.11377019551E+02 -0.47551884587E+01  0.12593900505E+02  0.17625399892E+02  0.51100000000E-03 0.  1.
        -12    1    3    3    0    0  0.57459853980E+00  0.71161058956E+00  0.27624623475E+02  0.27639760766E+02  0.00000000000E+00 0.  1.
</event>
<event>
 7    1  0.2486105E-010  0.4778727E+02  0.7816164E-02  0.1312668E+00
        -11   -1    0    0    0    0  0.00000000000E+00  0.00000000000E+00  0.45593999997E+02  0.45594000000E+02  0.51100000000E-03 0.  1.
         11   -1    0    0    0    0 -0.00000000000E+00 -0.00000000000E+00 -0.45593999997E+02  0.45594000000E+02  0.51100000000E-03 0. -1.
    9900012    2    1    2    0    0  0.96472215126E+01 -0.58731410158E+01  0.41905379038E+02  0.47787268893E+02  0.19999990193E+02 0.  0.
         12    1    1    2    0    0 -0.96472215126E+01  0.58731410158E+01 -0.41905379038E+02  0.43400731107E+02  0.00000000000E+00 0. -1.
         11    1    3    3    0    0 -0.70649637862E+00  0.28906847334E+01  0.18924514475E+02  0.19157046842E+02  0.51100000000E-03 0. -1.
        -11    1    3    3    0    0  0.71701504138E+01  0.29621667391E+00  0.12512791788E+02  0.14424588724E+02  0.51100000000E-03 0.  1.
        -12    1    3    3    0    0  0.31835674774E+01 -0.90600424232E+01  0.10468072775E+02  0.14205633327E+02  0.00000000000E+00 0.  1.
</event>
<event>
 7    1  0.2486105E-010  0.4778727E+02  0.7816164E-02  0.1312668E+00
        -11   -1    0    0    0    0  0.00000000000E+00  0.00000000000E+00  0.45593999997E+02  0.45594000000E+02  0.51100000000E-03 0. -1.
         11   -1    0    0    0    0 -0.00000000000E+00 -0.00000000000E+00 -0.45593999997E+02  0.45594000000E+02  0.51100000000E-03 0.  1.
    9900012    2    1    2    0    0 -0.14450673547E+02  0.48055894068E+01 -0.40641205029E+02  0.47787271876E+02  0.20000003792E+02 0.  0.
         12    1    1    2    0    0  0.14450673547E+02 -0.48055894068E+01  0.40641205029E+02  0.43400728124E+02  0.00000000000E+00 0. -1.
         11    1    3    3    0    0 -0.50616702270E+01  0.29052886431E+01 -0.43718552621E+01  0.72920728384E+01  0.51100000000E-03 0. -1.
        -11    1    3    3    0    0 -0.54600275959E+01  0.12168371256E+00 -0.17901158084E+01  0.57472796298E+01  0.51100000000E-03 0.  1.
        -12    1    3    3    0    0 -0.39289757238E+01  0.17786170511E+01 -0.34479233958E+02  0.34747919408E+02  0.00000000000E+00 0.  1.
</event>
<event>
 7    1  0.2486105E-010  0.4778727E+02  0.7816164E-02  0.1312668E+00
        -11   -1    0    0    0    0  0.00000000000E+00  0.00000000000E+00  0.45593999997E+02  0.45594000000E+02  0.51100000000E-03 0. -1.
         11   -1    0    0    0    0 -0.00000000000E+00 -0.00000000000E+00 -0.45593999997E+02  0.45594000000E+02  0.51100000000E-03 0.  1.
    9900012    2    1    2    0    0  0.17409052407E+02 -0.34688889294E+02 -0.19422389976E+02  0.47787269839E+02  0.19999994502E+02 0.  0.
         12    1    1    2    0    0 -0.17409052407E+02  0.34688889294E+02  0.19422389976E+02  0.43400730161E+02  0.00000000000E+00 0. -1.
         11    1    3    3    0    0  0.44006751231E+01  0.76007249909E+00 -0.52254717143E+01  0.68738058338E+01  0.51100000000E-03 0. -1.
        -11    1    3    3    0    0  0.57224443035E+01 -0.12792511917E+02 -0.86759647709E+01  0.16482326745E+02  0.51100000000E-03 0.  1.
         12    1    3    3    0    0  0.72859329803E+01 -0.22656449876E+02 -0.55209534912E+01  0.24431137260E+02  0.00000000000E+00 0. -1.
</event>
<event>
 7    1  0.2486105E-010  0.4778729E+02  0.7816164E-02  0.1312668E+00
        -11   -1    0    0    0    0  0.00000000000E+00  0.00000000000E+00  0.45593999997E+02  0.45594000000E+02  0.51100000000E-03 0. -1.
         11   -1    0    0    0    0 -0.00000000000E+00 -0.00000000000E+00 -0.45593999997E+02  0.45594000000E+02  0.51100000000E-03 0.  1.
    9900012    2    1    2    0    0 -0.18476319379E+01  0.13946832050E+02 -0.41057202615E+02  0.47787288548E+02  0.20000079805E+02 0.  0.
         12    1    1    2    0    0  0.18476319379E+01 -0.13946832050E+02  0.41057202615E+02  0.43400711452E+02  0.00000000000E+00 0. -1.
         11    1    3    3    0    0  0.18347404715E+01  0.63193919128E+01 -0.37070023444E+01  0.75526719370E+01  0.51100000000E-03 0. -1.
        -11    1    3    3    0    0  0.27506921030E+01  0.52354560186E+01 -0.28103803568E+02  0.28719332896E+02  0.51100000000E-03 0.  1.
         12    1    3    3    0    0 -0.64330645125E+01  0.23919841185E+01 -0.92463967023E+01  0.11515283714E+02  0.00000000000E+00 0. -1.
</event>
<event>
 7    1  0.2486105E-010  0.4778727E+02  0.7816164E-02  0.1312668E+00
        -11   -1    0    0    0    0  0.00000000000E+00  0.00000000000E+00  0.45593999997E+02  0.45594000000E+02  0.51100000000E-03 0.  1.
         11   -1    0    0    0    0 -0.00000000000E+00 -0.00000000000E+00 -0.45593999997E+02  0.45594000000E+02  0.51100000000E-03 0. -1.
    9900012    2    1    2    0    0  0.25740815013E+01  0.13760991403E+02  0.41080803885E+02  0.47787271575E+02  0.20000002420E+02 0.  0.
         12    1    1    2    0    0 -0.25740815013E+01 -0.13760991403E+02 -0.41080803885E+02  0.43400728425E+02  0.00000000000E+00 0. -1.
         11    1    3    3    0    0  0.26384637912E+01 -0.30180542625E+01  0.50655223889E+01  0.64598498468E+01  0.51100000000E-03 0. -1.
        -11    1    3    3    0    0  0.15062827126E+01  0.38980828973E+01  0.21307856456E+02  0.21713790201E+02  0.51100000000E-03 0.  1.
         12    1    3    3    0    0 -0.15706650025E+01  0.12880962768E+02  0.14707425040E+02  0.19613631527E+02  0.00000000000E+00 0. -1.
</event>
<event>
 7    1  0.2486105E-010  0.4778727E+02  0.7816164E-02  0.1312668E+00
        -11   -1    0    0    0    0  0.00000000000E+00  0.00000000000E+00  0.45593999997E+02  0.45594000000E+02  0.51100000000E-03 0.  1.
         11   -1    0    0    0    0 -0.00000000000E+00 -0.00000000000E+00 -0.45593999997E+02  0.45594000000E+02  0.51100000000E-03 0. -1.
    9900012    2    1    2    0    0  0.86949140113E+01  0.26432040989E+02  0.33307191430E+02  0.47787270497E+02  0.19999997502E+02 0.  0.
         12    1    1    2    0    0 -0.86949140113E+01 -0.26432040989E+02 -0.33307191430E+02  0.43400729503E+02  0.00000000000E+00 0. -1.
         11    1    3    3    0    0 -0.46854081339E+00 -0.92484430366E+00 -0.12882766084E+01  0.16536397312E+01  0.51100000000E-03 0. -1.
        -11    1    3    3    0    0  0.20733527840E+01  0.11899465084E+02  0.77376871923E+01  0.14344610988E+02  0.51100000000E-03 0.  1.
        -12    1    3    3    0    0  0.70901020407E+01  0.15457420209E+02  0.26857780846E+02  0.31789019777E+02  0.00000000000E+00 0.  1.
</event>
<event>
 7    1  0.2486105E-010  0.4778727E+02  0.7816164E-02  0.1312668E+00
        -11   -1    0    0    0    0  0.00000000000E+00  0.00000000000E+00  0.45593999997E+02  0.45594000000E+02  0.51100000000E-03 0. -1.
         11   -1    0    0    0    0 -0.00000000000E+00 -0.00000000000E+00 -0.45593999997E+02  0.45594000000E+02  0.51100000000E-03 0.  1.
    9900012    2    1    2    0    0  0.68829078431E+01  0.20141868444E+02 -0.37822667407E+02  0.47787268963E+02  0.19999990508E+02 0.  0.
         12    1    1    2    0    0 -0.68829078431E+01 -0.20141868444E+02  0.37822667407E+02  0.43400731037E+02  0.00000000000E+00 0. -1.
         11    1    3    3    0    0  0.25813177146E+01 -0.48837590940E+00 -0.78718006849E+00  0.27425106916E+01  0.51100000000E-03 0.  1.
        -11    1    3    3    0    0  0.89471304282E+01  0.84133280360E+01 -0.14589663701E+02  0.19070750345E+02  0.51100000000E-03 0. -1.
        -12    1    3    3    0    0 -0.46455402997E+01  0.12216916317E+02 -0.22445823638E+02  0.25974007926E+02  0.00000000000E+00 0.  1.
</event>
<event>
 7    1  0.2486105E-010  0.4778727E+02  0.7816164E-02  0.1312668E+00
        -11   -1    0    0    0    0  0.00000000000E+00  0.00000000000E+00  0.45593999997E+02  0.45594000000E+02  0.51100000000E-03 0. -1.
         11   -1    0    0    0    0 -0.00000000000E+00 -0.00000000000E+00 -0.45593999997E+02  0.45594000000E+02  0.51100000000E-03 0.  1.
    9900012    2    1    2    0    0  0.61386369407E+01  0.15661392987E+02 -0.40008266956E+02  0.47787268225E+02  0.19999987145E+02 0.  0.
         12    1    1    2    0    0 -0.61386369407E+01 -0.15661392987E+02  0.40008266956E+02  0.43400731775E+02  0.00000000000E+00 0. -1.
         11    1    3    3    0    0  0.83427931195E+01  0.91225456274E+01 -0.16435949915E+02  0.20566076088E+02  0.51100000000E-03 0. -1.
        -11    1    3    3    0    0  0.53649847836E+00  0.92292108595E+01 -0.12835773395E+02  0.15818446277E+02  0.51100000000E-03 0.  1.
         12    1    3    3    0    0 -0.27406546572E+01 -0.26903634995E+01 -0.10736543646E+02  0.11402745861E+02  0.00000000000E+00 0. -1.
</event>
<event>
 7    1  0.2486105E-010  0.4778727E+02  0.7816164E-02  0.1312668E+00
        -11   -1    0    0    0    0  0.00000000000E+00  0.00000000000E+00  0.45593999997E+02  0.45594000000E+02  0.51100000000E-03 0.  1.
         11   -1    0    0    0    0 -0.00000000000E+00 -0.00000000000E+00 -0.45593999997E+02  0.45594000000E+02  0.51100000000E-03 0. -1.
    9900012    2    1    2    0    0 -0.22608104037E+02  0.31721158630E+02  0.19138053997E+02  0.47787269779E+02  0.19999994229E+02 0.  0.
         12    1    1    2    0    0  0.22608104037E+02 -0.31721158630E+02 -0.19138053997E+02  0.43400730221E+02  0.00000000000E+00 0. -1.
         11    1    3    3    0    0 -0.23201905606E+01  0.23289650067E+01  0.24286431053E+01  0.40872570061E+01  0.51100000000E-03 0. -1.
        -11    1    3    3    0    0 -0.19607788650E+02  0.27334144840E+02  0.78017377363E+01  0.34532418998E+02  0.51100000000E-03 0.  1.
         12    1    3    3    0    0 -0.68012482608E+00  0.20580487831E+01  0.89076731554E+01  0.91675937746E+01  0.00000000000E+00 0. -1.
</event>
<event>
 7    1  0.2486105E-010  0.4778727E+02  0.7816164E-02  0.1312668E+00
        -11   -1    0    0    0    0  0.00000000000E+00  0.00000000000E+00  0.45593999997E+02  0.45594000000E+02  0.51100000000E-03 0.  1.
         11   -1    0    0    0    0 -0.00000000000E+00 -0.00000000000E+00 -0.45593999997E+02  0.45594000000E+02  0.51100000000E-03 0. -1.
    9900012    2    1    2    0    0  0.18928783984E+02  0.32575130502E+02  0.21544956266E+02  0.47787272692E+02  0.20000007514E+02 0.  0.
         12    1    1    2    0    0 -0.18928783984E+02 -0.32575130502E+02 -0.21544956266E+02  0.43400727308E+02  0.00000000000E+00 0. -1.
         11    1    3    3    0    0 -0.11238680579E+01 -0.12027549862E+01  0.16657642996E+01  0.23418945175E+01  0.51100000000E-03 0. -1.
        -11    1    3    3    0    0  0.22056839793E+01  0.12651517739E+02  0.92079305805E+01  0.15802276063E+02  0.51100000000E-03 0.  1.
        -12    1    3    3    0    0  0.17846968063E+02  0.21126367749E+02  0.10671261386E+02  0.29643102112E+02  0.00000000000E+00 0.  1.
</event>
<event>
 7    1  0.2486105E-010  0.4778725E+02  0.7816164E-02  0.1312668E+00
        -11   -1    0    0    0    0  0.00000000000E+00  0.00000000000E+00  0.45593999997E+02  0.45594000000E+02  0.51100000000E-03 0. -1.
         11   -1    0    0    0    0 -0.00000000000E+00 -0.00000000000E+00 -0.45593999997E+02  0.45594000000E+02  0.51100000000E-03 0.  1.
    9900012    2    1    2    0    0 -0.11581519607E+02 -0.28802388296E+02 -0.30330116508E+02  0.47787249599E+02  0.19999902221E+02 0.  0.
         12    1    1    2    0    0  0.11581519607E+02  0.28802388296E+02  0.30330116508E+02  0.43400750401E+02  0.00000000000E+00 0. -1.
         11    1    3    3    0    0 -0.64324887878E+01 -0.46061641361E+01 -0.62261981575E+01  0.10067730817E+02  0.51100000000E-03 0. -1.
        -11    1    3    3    0    0 -0.55434968445E+01 -0.25881293237E+02 -0.19721359110E+02  0.33007630971E+02  0.51100000000E-03 0.  1.
         12    1    3    3    0    0  0.39446602531E+00  0.16850690774E+01 -0.43825592404E+01  0.47118878103E+01  0.00000000000E+00 0. -1.
</event>
<event>
 7    1  0.2486105E-010  0.4778727E+02  0.7816164E-02  0.1312668E+00
        -11   -1    0    0    0    0  0.00000000000E+00  0.00000000000E+00  0.45593999997E+02  0.45594000000E+02  0.51100000000E-03 0.  1.
         11   -1    0    0    0    0 -0.00000000000E+00 -0.00000000000E+00 -0.45593999997E+02  0.45594000000E+02  0.51100000000E-03 0. -1.
    9900012    2    1    2    0    0 -0.23091539794E+02 -0.34672164016E+02  0.12175594343E+02  0.47787271144E+02  0.20000000454E+02 0.  0.
         12    1    1    2    0    0  0.23091539794E+02  0.34672164016E+02 -0.12175594343E+02  0.43400728856E+02  0.00000000000E+00 0. -1.
         11    1    3    3    0    0 -0.75092840611E+01 -0.87369608668E+01  0.68696638695E+01  0.13413281263E+02  0.51100000000E-03 0. -1.
        -11    1    3    3    0    0 -0.15860354527E+02 -0.27356846237E+02  0.67436714929E+01  0.32333032447E+02  0.51100000000E-03 0.  1.
         12    1    3    3    0    0  0.27809879456E+00  0.14216430878E+01 -0.14377410189E+01  0.20409574337E+01  0.00000000000E+00 0. -1.
</event>
<event>
 7    1  0.2486105E-010  0.4778726E+02  0.7816164E-02  0.1312668E+00
        -11   -1    0    0    0    0  0.00000000000E+00  0.00000000000E+00  0.45593999997E+02  0.45594000000E+02  0.51100000000E-03 0.  1.
         11   -1    0    0    0    0 -0.00000000000E+00 -0.00000000000E+00 -0.45593999997E+02  0.45594000000E+02  0.51100000000E-03 0. -1.
    9900012    2    1    2    0    0  0.24907145877E+01  0.43265676883E+02  0.23455630944E+01  0.47787261279E+02  0.19999955473E+02 0.  0.
         12    1    1    2    0    0 -0.24907145877E+01 -0.43265676883E+02 -0.23455630944E+01  0.43400738721E+02  0.00000000000E+00 0. -1.
         11    1    3    3    0    0  0.28782558236E+01  0.14349247363E+02  0.81709481642E+00  0.14657861395E+02  0.51100000000E-03 0. -1.
        -11    1    3    3    0    0  0.28146125825E+01  0.26065296835E+02  0.60420303000E+01  0.26904049388E+02  0.51100000000E-03 0.  1.
         12    1    3    3    0    0 -0.32021538184E+01  0.28511326861E+01 -0.45135620220E+01  0.62253504959E+01  0.00000000000E+00 0. -1.
</event>
<event>
 7    1  0.2486105E-010  0.4778727E+02  0.7816164E-02  0.1312668E+00
        -11   -1    0    0    0    0  0.00000000000E+00  0.00000000000E+00  0.45593999997E+02  0.45594000000E+02  0.51100000000E-03 0. -1.
         11   -1    0    0    0    0 -0.00000000000E+00 -0.00000000000E+00 -0.45593999997E+02  0.45594000000E+02  0.51100000000E-03 0.  1.
    9900012    2    1    2    0    0 -0.48821317147E+01 -0.42639734589E+02 -0.64529951434E+01  0.47787270487E+02  0.19999997458E+02 0.  0.
         12    1    1    2    0    0  0.48821317147E+01  0.42639734589E+02  0.64529951434E+01  0.43400729513E+02  0.00000000000E+00 0. -1.
         11    1    3    3    0    0  0.46737757378E+01 -0.12957661615E+02 -0.66294814640E+00  0.13790745980E+02  0.51100000000E-03 0. -1.
        -11    1    3    3    0    0 -0.89591440116E+01 -0.86737965626E+01 -0.16974404595E+01  0.12585003481E+02  0.51100000000E-03 0.  1.
         12    1    3    3    0    0 -0.59676344081E+00 -0.21008276412E+02 -0.40926065375E+01  0.21411521026E+02  0.00000000000E+00 0. -1.
</event>
<event>
 7    1  0.2486105E-010  0.4778727E+02  0.7816164E-02  0.1312668E+00
        -11   -1    0    0    0    0  0.00000000000E+00  0.00000000000E+00  0.45593999997E+02  0.45594000000E+02  0.51100000000E-03 0.  1.
         11   -1    0    0    0    0 -0.00000000000E+00 -0.00000000000E+00 -0.45593999997E+02  0.45594000000E+02  0.51100000000E-03 0. -1.
    9900012    2    1    2    0    0 -0.12475318750E+02 -0.31967789966E+02  0.26571601761E+02  0.47787271972E+02  0.20000004230E+02 0.  0.
         12    1    1    2    0    0  0.12475318750E+02  0.31967789966E+02 -0.26571601761E+02  0.43400728028E+02  0.00000000000E+00 0. -1.
         11    1    3    3    0    0 -0.20713715662E+00 -0.47136544605E+01 -0.79189431141E+00  0.47841970106E+01  0.51100000000E-03 0. -1.
        -11    1    3    3    0    0 -0.83606747344E+01 -0.36079460827E+01  0.90704968219E+01  0.12852706711E+02  0.51100000000E-03 0.  1.
         12    1    3    3    0    0 -0.39075068587E+01 -0.23646189423E+02  0.18292999250E+02  0.30150368250E+02  0.00000000000E+00 0. -1.
</event>
<event>
 7    1  0.2486105E-010  0.4778727E+02  0.7816164E-02  0.1312668E+00
        -11   -1    0    0    0    0  0.00000000000E+00  0.00000000000E+00  0.45593999997E+02  0.45594000000E+02  0.51100000000E-03 0.  1.
         11   -1    0    0    0    0 -0.00000000000E+00 -0.00000000000E+00 -0.45593999997E+02  0.45594000000E+02  0.51100000000E-03 0. -1.
    9900012    2    1    2    0    0  0.40537703601E+02 -0.87501296314E+01  0.12796623192E+02  0.47787265595E+02  0.19999975153E+02 0.  0.
         12    1    1    2    0    0 -0.40537703601E+02  0.87501296314E+01 -0.12796623192E+02  0.43400734405E+02  0.00000000000E+00 0. -1.
         11    1    3    3    0    0  0.14814554483E+01  0.38384792847E+00  0.26933577062E+01  0.30977775052E+01  0.51100000000E-03 0. -1.
        -11    1    3    3    0    0  0.16576041327E+02 -0.51396416444E+01  0.12986891733E+02  0.21675802625E+02  0.51100000000E-03 0.  1.
         12    1    3    3    0    0  0.22480206826E+02 -0.39943359154E+01 -0.28836262466E+01  0.23013685465E+02  0.00000000000E+00 0. -1.
</event>
<event>
 7    1  0.2486105E-010  0.4778727E+02  0.7816164E-02  0.1312668E+00
        -11   -1    0    0    0    0  0.00000000000E+00  0.00000000000E+00  0.45593999997E+02  0.45594000000E+02  0.51100000000E-03 0.  1.
         11   -1    0    0    0    0 -0.00000000000E+00 -0.00000000000E+00 -0.45593999997E+02  0.45594000000E+02  0.51100000000E-03 0. -1.
    9900012    2    1    2    0    0 -0.40427103127E+02 -0.42624397319E+01  0.15202124776E+02  0.47787266626E+02  0.19999979855E+02 0.  0.
         12    1    1    2    0    0  0.40427103127E+02  0.42624397319E+01 -0.15202124776E+02  0.43400733374E+02  0.00000000000E+00 0. -1.
         11    1    3    3    0    0 -0.70681769705E+00  0.11483074041E+01 -0.14182234926E+00  0.13558447519E+01  0.51100000000E-03 0. -1.
        -11    1    3    3    0    0 -0.81029632666E+01 -0.85714315570E+01  0.64100398425E+01  0.13424457668E+02  0.51100000000E-03 0.  1.
         12    1    3    3    0    0 -0.31617322163E+02  0.31606844209E+01  0.89339072831E+01  0.33006964206E+02  0.00000000000E+00 0. -1.
</event>
<event>
 7    1  0.2486105E-010  0.4778727E+02  0.7816164E-02  0.1312668E+00
        -11   -1    0    0    0    0  0.00000000000E+00  0.00000000000E+00  0.45593999997E+02  0.45594000000E+02  0.51100000000E-03 0.  1.
         11   -1    0    0    0    0 -0.00000000000E+00 -0.00000000000E+00 -0.45593999997E+02  0.45594000000E+02  0.51100000000E-03 0. -1.
    9900012    2    1    2    0    0 -0.21736856476E+02  0.36447394405E+02  0.90950309648E+01  0.47787273317E+02  0.20000010361E+02 0.  0.
         12    1    1    2    0    0  0.21736856476E+02 -0.36447394405E+02 -0.90950309648E+01  0.43400726683E+02  0.00000000000E+00 0. -1.
         11    1    3    3    0    0 -0.82714608769E+00 -0.15551838427E+01  0.20918305274E+00  0.17738447637E+01  0.51100000000E-03 0. -1.
        -11    1    3    3    0    0 -0.40689629719E+01  0.71964946380E+01 -0.32258631687E+01  0.88742429641E+01  0.51100000000E-03 0.  1.
         12    1    3    3    0    0 -0.16840747417E+02  0.30806083610E+02  0.12111711081E+02  0.37139185589E+02  0.00000000000E+00 0. -1.
</event>
<event>
 7    1  0.2486105E-010  0.4778727E+02  0.7816164E-02  0.1312668E+00
        -11   -1    0    0    0    0  0.00000000000E+00  0.00000000000E+00  0.45593999997E+02  0.45594000000E+02  0.51100000000E-03 0. -1.
         11   -1    0    0    0    0 -0.00000000000E+00 -0.00000000000E+00 -0.45593999997E+02  0.45594000000E+02  0.51100000000E-03 0.  1.
    9900012    2    1    2    0    0 -0.73346619509E+01  0.20401175267E+02 -0.37598110405E+02  0.47787272768E+02  0.20000007861E+02 0.  0.
         12    1    1    2    0    0  0.73346619509E+01 -0.20401175267E+02  0.37598110405E+02  0.43400727232E+02  0.00000000000E+00 0. -1.
         11    1    3    3    0    0 -0.23979319938E+01  0.21623981137E+01 -0.53199674675E+01  0.62231903044E+01  0.51100000000E-03 0.  1.
        -11    1    3    3    0    0 -0.60173219582E+01  0.18162011294E+01 -0.20184350817E+02  0.21140358754E+02  0.51100000000E-03 0. -1.
         12    1    3    3    0    0  0.10805920011E+01  0.16422576023E+02 -0.12093792121E+02  0.20423723710E+02  0.00000000000E+00 0. -1.
</event>
<event>
 7    1  0.2486105E-010  0.4778727E+02  0.7816164E-02  0.1312668E+00
        -11   -1    0    0    0    0  0.00000000000E+00  0.00000000000E+00  0.45593999997E+02  0.45594000000E+02  0.51100000000E-03 0.  1.
         11   -1    0    0    0    0 -0.00000000000E+00 -0.00000000000E+00 -0.45593999997E+02  0.45594000000E+02  0.51100000000E-03 0. -1.
    9900012    2    1    2    0    0  0.24518992590E+02  0.21246448151E+02  0.28827606001E+02  0.47787269310E+02  0.19999992093E+02 0.  0.
         12    1    1    2    0    0 -0.24518992590E+02 -0.21246448151E+02 -0.28827606001E+02  0.43400730690E+02  0.00000000000E+00 0. -1.
         11    1    3    3    0    0  0.97532597837E+01  0.48257417201E+01  0.11835561475E+02  0.16077760269E+02  0.51100000000E-03 0. -1.
        -11    1    3    3    0    0  0.14301513090E+02  0.86789624833E+01  0.17142344004E+02  0.23952403317E+02  0.51100000000E-03 0.  1.
         12    1    3    3    0    0  0.46421971620E+00  0.77417439472E+01 -0.15029947820E+00  0.77571057246E+01  0.00000000000E+00 0. -1.
</event>
<event>
 7    1  0.2486105E-010  0.4778727E+02  0.7816164E-02  0.1312668E+00
        -11   -1    0    0    0    0  0.00000000000E+00  0.00000000000E+00  0.45593999997E+02  0.45594000000E+02  0.51100000000E-03 0.  1.
         11   -1    0    0    0    0 -0.00000000000E+00 -0.00000000000E+00 -0.45593999997E+02  0.45594000000E+02  0.51100000000E-03 0. -1.
    9900012    2    1    2    0    0  0.12983786342E+02  0.29487119911E+02  0.29078412098E+02  0.47787274216E+02  0.20000014459E+02 0.  0.
         12    1    1    2    0    0 -0.12983786342E+02 -0.29487119911E+02 -0.29078412098E+02  0.43400725784E+02  0.00000000000E+00 0. -1.
         11    1    3    3    0    0  0.40521653631E+01  0.90484345914E+01  0.94094472548E+01  0.13668646992E+02  0.51100000000E-03 0. -1.
        -11    1    3    3    0    0  0.63827904512E+01  0.22278409344E+02  0.20419021533E+02  0.30886954811E+02  0.51100000000E-03 0.  1.
         12    1    3    3    0    0  0.25488305280E+01 -0.18397240246E+01 -0.75005668953E+00  0.32316724129E+01  0.00000000000E+00 0. -1.
</event>
<event>
 7    1  0.2486105E-010  0.4778727E+02  0.7816164E-02  0.1312668E+00
        -11   -1    0    0    0    0  0.00000000000E+00  0.00000000000E+00  0.45593999997E+02  0.45594000000E+02  0.51100000000E-03 0.  1.
         11   -1    0    0    0    0 -0.00000000000E+00 -0.00000000000E+00 -0.45593999997E+02  0.45594000000E+02  0.51100000000E-03 0. -1.
    9900012    2    1    2    0    0 -0.36232337751E+02  0.52892248615E+01  0.23299464306E+02  0.47787271486E+02  0.20000002015E+02 0.  0.
         12    1    1    2    0    0  0.36232337751E+02 -0.52892248615E+01 -0.23299464306E+02  0.43400728514E+02  0.00000000000E+00 0. -1.
         11    1    3    3    0    0 -0.30318976247E+01 -0.31789238172E+01 -0.75681522330E+00  0.44576596309E+01  0.51100000000E-03 0. -1.
        -11    1    3    3    0    0 -0.92118101273E+01 -0.26501250192E+01  0.58942848092E+01  0.11252697548E+02  0.51100000000E-03 0.  1.
         12    1    3    3    0    0 -0.23988629999E+02  0.11118273698E+02  0.18161994720E+02  0.32076914307E+02  0.00000000000E+00 0. -1.
</event>
<event>
 7    1  0.2486105E-010  0.4778726E+02  0.7816164E-02  0.1312668E+00
        -11   -1    0    0    0    0  0.00000000000E+00  0.00000000000E+00  0.45593999997E+02  0.45594000000E+02  0.51100000000E-03 0. -1.
         11   -1    0    0    0    0 -0.00000000000E+00 -0.00000000000E+00 -0.45593999997E+02  0.45594000000E+02  0.51100000000E-03 0.  1.
    9900012    2    1    2    0    0 -0.25413062672E+02  0.33929941006E+02  0.93037198876E+01  0.47787264352E+02  0.19999969486E+02 0.  0.
         12    1    1    2    0    0  0.25413062672E+02 -0.33929941006E+02 -0.93037198876E+01  0.43400735648E+02  0.00000000000E+00 0. -1.
         11    1    3    3    0    0 -0.18112774878E+02  0.19950432759E+02  0.18419924198E+01  0.27008985864E+02  0.51100000000E-03 0. -1.
        -11    1    3    3    0    0 -0.36633138069E+01  0.56557978154E+00 -0.17554922282E+01  0.41014024140E+01  0.51100000000E-03 0.  1.
         12    1    3    3    0    0 -0.36369739862E+01  0.13413928466E+02  0.92172196960E+01  0.16676876074E+02  0.00000000000E+00 0. -1.
</event>
<event>
 7    1  0.2486105E-010  0.4778728E+02  0.7816164E-02  0.1312668E+00
        -11   -1    0    0    0    0  0.00000000000E+00  0.00000000000E+00  0.45593999997E+02  0.45594000000E+02  0.51100000000E-03 0.  1.
         11   -1    0    0    0    0 -0.00000000000E+00 -0.00000000000E+00 -0.45593999997E+02  0.45594000000E+02  0.51100000000E-03 0. -1.
    9900012    2    1    2    0    0 -0.34499633462E+02  0.69167302866E+01  0.25407812643E+02  0.47787276387E+02  0.20000024357E+02 0.  0.
         12    1    1    2    0    0  0.34499633462E+02 -0.69167302866E+01 -0.25407812643E+02  0.43400723613E+02  0.00000000000E+00 0. -1.
         11    1    3    3    0    0 -0.11503315196E+01 -0.10024921333E+01 -0.46512970371E+00  0.15951799223E+01  0.51100000000E-03 0. -1.
        -11    1    3    3    0    0 -0.16576008411E+02  0.11622817400E+02  0.18759173062E+02  0.27600009301E+02  0.51100000000E-03 0.  1.
        -12    1    3    3    0    0 -0.16773293531E+02 -0.37035949804E+01  0.71137692849E+01  0.18592087164E+02  0.00000000000E+00 0.  1.
</event>
<event>
 7    1  0.3057096E-010  0.4778726E+02  0.7816164E-02  0.1312668E+00
        -11   -1    0    0    0    0  0.00000000000E+00  0.00000000000E+00  0.45593999997E+02  0.45594000000E+02  0.51100000000E-03 0. -1.
         11   -1    0    0    0    0 -0.00000000000E+00 -0.00000000000E+00 -0.45593999997E+02  0.45594000000E+02  0.51100000000E-03 0.  1.
    9900012    2    1    2    0    0  0.16851865478E+02 -0.13345978789E+02 -0.37703097016E+02  0.47787262166E+02  0.19999959519E+02 0.  0.
         12    1    1    2    0    0 -0.16851865478E+02  0.13345978789E+02  0.37703097016E+02  0.43400737834E+02  0.00000000000E+00 0. -1.
         11    1    3    3    0    0 -0.21067985587E+01 -0.19629415891E+01 -0.14167038029E+01  0.32091727557E+01  0.51100000000E-03 0. -1.
        -11    1    3    3    0    0  0.44895522623E+01 -0.36006434262E+01 -0.22209212073E+02  0.22942750789E+02  0.51100000000E-03 0.  1.
        -12    1    3    3    0    0  0.14469111775E+02 -0.77823937738E+01 -0.14077181140E+02  0.21635338621E+02  0.00000000000E+00 0.  1.
</event>
<event>
 7    1  0.2486105E-010  0.4778728E+02  0.7816164E-02  0.1312668E+00
        -11   -1    0    0    0    0  0.00000000000E+00  0.00000000000E+00  0.45593999997E+02  0.45594000000E+02  0.51100000000E-03 0.  1.
         11   -1    0    0    0    0 -0.00000000000E+00 -0.00000000000E+00 -0.45593999997E+02  0.45594000000E+02  0.51100000000E-03 0. -1.
    9900012    2    1    2    0    0 -0.61663127177E+01 -0.14550413444E+02  0.40421339130E+02  0.47787278796E+02  0.20000035344E+02 0.  0.
         12    1    1    2    0    0  0.61663127177E+01  0.14550413444E+02 -0.40421339130E+02  0.43400721204E+02  0.00000000000E+00 0. -1.
         11    1    3    3    0    0 -0.14992459218E+01 -0.31135674447E+01 -0.79504994691E+00  0.35460041238E+01  0.51100000000E-03 0. -1.
        -11    1    3    3    0    0 -0.20734817783E+01 -0.80708856872E+01  0.11384903448E+02  0.14108669294E+02  0.51100000000E-03 0.  1.
        -12    1    3    3    0    0 -0.25935850176E+01 -0.33659603116E+01  0.29831485629E+02  0.30132605378E+02  0.00000000000E+00 0.  1.
</event>
<event>
 7    1  0.2486105E-010  0.4778727E+02  0.7816164E-02  0.1312668E+00
        -11   -1    0    0    0    0  0.00000000000E+00  0.00000000000E+00  0.45593999997E+02  0.45594000000E+02  0.51100000000E-03 0.  1.
         11   -1    0    0    0    0 -0.00000000000E+00 -0.00000000000E+00 -0.45593999997E+02  0.45594000000E+02  0.51100000000E-03 0. -1.
    9900012    2    1    2    0    0  0.12900254999E+02 -0.41359713011E+02  0.25653809185E+01  0.47787267073E+02  0.19999981891E+02 0.  0.
         12    1    1    2    0    0 -0.12900254999E+02  0.41359713011E+02 -0.25653809185E+01  0.43400732927E+02  0.00000000000E+00 0. -1.
         11    1    3    3    0    0  0.39141375261E+01 -0.26077433807E+02 -0.35547206228E+01  0.26608063919E+02  0.51100000000E-03 0. -1.
        -11    1    3    3    0    0 -0.14761911784E+01 -0.35332549378E+00 -0.75571776757E+00  0.16956087123E+01  0.51100000000E-03 0.  1.
        -12    1    3    3    0    0  0.10462308651E+02 -0.14928953710E+02  0.68758193089E+01  0.19483594441E+02  0.00000000000E+00 0.  1.
</event>
<event>
 7    1  0.2486105E-010  0.4778727E+02  0.7816164E-02  0.1312668E+00
        -11   -1    0    0    0    0  0.00000000000E+00  0.00000000000E+00  0.45593999997E+02  0.45594000000E+02  0.51100000000E-03 0.  1.
         11   -1    0    0    0    0 -0.00000000000E+00 -0.00000000000E+00 -0.45593999997E+02  0.45594000000E+02  0.51100000000E-03 0. -1.
    9900012    2    1    2    0    0  0.25113081436E+02  0.51619718075E+01  0.35018722078E+02  0.47787266042E+02  0.19999977190E+02 0.  0.
         12    1    1    2    0    0 -0.25113081436E+02 -0.51619718075E+01 -0.35018722078E+02  0.43400733958E+02  0.00000000000E+00 0. -1.
         11    1    3    3    0    0  0.24761280143E+01 -0.23533848922E+01  0.42694604951E+01  0.54678993750E+01  0.51100000000E-03 0. -1.
        -11    1    3    3    0    0  0.12327969569E+02 -0.11171209878E+01  0.24589806473E+02  0.27529718045E+02  0.51100000000E-03 0.  1.
         12    1    3    3    0    0  0.10308983853E+02  0.86324776875E+01  0.61594551101E+01  0.14789648622E+02  0.00000000000E+00 0. -1.
</event>
<event>
 7    1  0.2486105E-010  0.4778727E+02  0.7816164E-02  0.1312668E+00
        -11   -1    0    0    0    0  0.00000000000E+00  0.00000000000E+00  0.45593999997E+02  0.45594000000E+02  0.51100000000E-03 0.  1.
         11   -1    0    0    0    0 -0.00000000000E+00 -0.00000000000E+00 -0.45593999997E+02  0.45594000000E+02  0.51100000000E-03 0. -1.
    9900012    2    1    2    0    0 -0.28986787887E+02 -0.12397339670E+02  0.29827761148E+02  0.47787271457E+02  0.20000001883E+02 0.  0.
         12    1    1    2    0    0  0.28986787887E+02  0.12397339670E+02 -0.29827761148E+02  0.43400728543E+02  0.00000000000E+00 0. -1.
         11    1    3    3    0    0  0.17034294639E+01 -0.11542629930E+01  0.41816693515E+00  0.20997282782E+01  0.51100000000E-03 0. -1.
        -11    1    3    3    0    0 -0.14503359561E+02 -0.11866218116E+02  0.16638344966E+02  0.25059710581E+02  0.51100000000E-03 0.  1.
         12    1    3    3    0    0 -0.16186857789E+02  0.62314143880E+00  0.12771249247E+02  0.20627832598E+02  0.00000000000E+00 0. -1.
</event>
<event>
 7    1  0.2486105E-010  0.4778727E+02  0.7816164E-02  0.1312668E+00
        -11   -1    0    0    0    0  0.00000000000E+00  0.00000000000E+00  0.45593999997E+02  0.45594000000E+02  0.51100000000E-03 0. -1.
         11   -1    0    0    0    0 -0.00000000000E+00 -0.00000000000E+00 -0.45593999997E+02  0.45594000000E+02  0.51100000000E-03 0.  1.
    9900012    2    1    2    0    0 -0.28222519379E+02  0.33919210427E+01 -0.32796459937E+02  0.47787268291E+02  0.19999987446E+02 0.  0.
         12    1    1    2    0    0  0.28222519379E+02 -0.33919210427E+01  0.32796459937E+02  0.43400731709E+02  0.00000000000E+00 0. -1.
         11    1    3    3    0    0 -0.34912162468E+01  0.42964387516E+01 -0.32748365637E+01  0.64321482887E+01  0.51100000000E-03 0. -1.
        -11    1    3    3    0    0 -0.21139275590E+02  0.52218976344E+01 -0.20859514139E+02  0.30153880642E+02  0.51100000000E-03 0.  1.
         12    1    3    3    0    0 -0.35920275425E+01 -0.61264153432E+01 -0.86621092345E+01  0.11201239361E+02  0.00000000000E+00 0. -1.
</event>
<event>
 7    1  0.2486105E-010  0.4778727E+02  0.7816164E-02  0.1312668E+00
        -11   -1    0    0    0    0  0.00000000000E+00  0.00000000000E+00  0.45593999997E+02  0.45594000000E+02  0.51100000000E-03 0.  1.
         11   -1    0    0    0    0 -0.00000000000E+00 -0.00000000000E+00 -0.45593999997E+02  0.45594000000E+02  0.51100000000E-03 0. -1.
    9900012    2    1    2    0    0  0.43012418500E+02  0.36527690106E+01  0.44958361026E+01  0.47787269489E+02  0.19999992908E+02 0.  0.
         12    1    1    2    0    0 -0.43012418500E+02 -0.36527690106E+01 -0.44958361026E+01  0.43400730511E+02  0.00000000000E+00 0. -1.
         11    1    3    3    0    0  0.10028991468E+02  0.60671505125E+01 -0.22547909638E+01  0.11936292044E+02  0.51100000000E-03 0. -1.
        -11    1    3    3    0    0  0.16103694475E+01  0.17606002475E+01  0.32161858583E+01  0.40046041908E+01  0.51100000000E-03 0.  1.
        -12    1    3    3    0    0  0.31373057584E+02 -0.41749817494E+01  0.35344412080E+01  0.31846373254E+02  0.00000000000E+00 0.  1.
</event>
<event>
 7    1  0.2486105E-010  0.4778728E+02  0.7816164E-02  0.1312668E+00
        -11   -1    0    0    0    0  0.00000000000E+00  0.00000000000E+00  0.45593999997E+02  0.45594000000E+02  0.51100000000E-03 0. -1.
         11   -1    0    0    0    0 -0.00000000000E+00 -0.00000000000E+00 -0.45593999997E+02  0.45594000000E+02  0.51100000000E-03 0.  1.
    9900012    2    1    2    0    0 -0.40182247064E+02  0.16292632187E+02 -0.18867107996E+01  0.47787279725E+02  0.20000039579E+02 0.  0.
         12    1    1    2    0    0  0.40182247064E+02 -0.16292632187E+02  0.18867107996E+01  0.43400720275E+02  0.00000000000E+00 0. -1.
         11    1    3    3    0    0 -0.21535619530E+02  0.14073994233E+02  0.46803770440E+01  0.26148922574E+02  0.51100000000E-03 0. -1.
        -11    1    3    3    0    0 -0.40988237768E+01  0.29745078430E+00  0.20799852068E+01  0.46059930573E+01  0.51100000000E-03 0.  1.
        -12    1    3    3    0    0 -0.14547803757E+02  0.19211871696E+01 -0.86470730503E+01  0.17032364094E+02  0.00000000000E+00 0.  1.
</event>
<event>
 7    1  0.2486105E-010  0.4778727E+02  0.7816164E-02  0.1312668E+00
        -11   -1    0    0    0    0  0.00000000000E+00  0.00000000000E+00  0.45593999997E+02  0.45594000000E+02  0.51100000000E-03 0. -1.
         11   -1    0    0    0    0 -0.00000000000E+00 -0.00000000000E+00 -0.45593999997E+02  0.45594000000E+02  0.51100000000E-03 0.  1.
    9900012    2    1    2    0    0 -0.10561240281E+02  0.41570385075E+02 -0.66322632885E+01  0.47787266966E+02  0.19999981406E+02 0.  0.
         12    1    1    2    0    0  0.10561240281E+02 -0.41570385075E+02  0.66322632885E+01  0.43400733034E+02  0.00000000000E+00 0. -1.
         11    1    3    3    0    0 -0.78371025358E+01  0.83993465227E+01  0.12310727986E+01  0.11553559567E+02  0.51100000000E-03 0. -1.
        -11    1    3    3    0    0 -0.24642950175E+01  0.24465479873E+02 -0.13482244942E+00  0.24589644827E+02  0.51100000000E-03 0.  1.
        -12    1    3    3    0    0 -0.25984272774E+00  0.87055586788E+01 -0.77285136376E+01  0.11644062573E+02  0.00000000000E+00 0.  1.
</event>
<event>
 7    1  0.2486105E-010  0.4778727E+02  0.7816164E-02  0.1312668E+00
        -11   -1    0    0    0    0  0.00000000000E+00  0.00000000000E+00  0.45593999997E+02  0.45594000000E+02  0.51100000000E-03 0.  1.
         11   -1    0    0    0    0 -0.00000000000E+00 -0.00000000000E+00 -0.45593999997E+02  0.45594000000E+02  0.51100000000E-03 0. -1.
    9900012    2    1    2    0    0  0.12664280013E+02  0.24707009300E+02  0.33358699780E+02  0.47787272497E+02  0.20000006622E+02 0.  0.
         12    1    1    2    0    0 -0.12664280013E+02 -0.24707009300E+02 -0.33358699780E+02  0.43400727503E+02  0.00000000000E+00 0. -1.
         11    1    3    3    0    0  0.84525596534E+01  0.10913937820E+02  0.15086358137E+02  0.20448912087E+02  0.51100000000E-03 0. -1.
        -11    1    3    3    0    0  0.57125487146E+01  0.10603347348E+02  0.20050672586E+02  0.23390033331E+02  0.51100000000E-03 0.  1.
         12    1    3    3    0    0 -0.15008283551E+01  0.31897241316E+01 -0.17783309426E+01  0.39483270797E+01  0.00000000000E+00 0. -1.
</event>
<event>
 7    1  0.2486105E-010  0.4778727E+02  0.7816164E-02  0.1312668E+00
        -11   -1    0    0    0    0  0.00000000000E+00  0.00000000000E+00  0.45593999997E+02  0.45594000000E+02  0.51100000000E-03 0.  1.
         11   -1    0    0    0    0 -0.00000000000E+00 -0.00000000000E+00 -0.45593999997E+02  0.45594000000E+02  0.51100000000E-03 0. -1.
    9900012    2    1    2    0    0 -0.21996551338E+02  0.12410516113E+02  0.35295247540E+02  0.47787266367E+02  0.19999978673E+02 0.  0.
         12    1    1    2    0    0  0.21996551338E+02 -0.12410516113E+02 -0.35295247540E+02  0.43400733633E+02  0.00000000000E+00 0. -1.
         11    1    3    3    0    0 -0.10093466564E+01  0.12973620910E+01 -0.15746249987E+01  0.22762629935E+01  0.51100000000E-03 0.  1.
        -11    1    3    3    0    0 -0.86921738399E+01 -0.17127501141E+01  0.10924642522E+02  0.14065390628E+02  0.51100000000E-03 0. -1.
        -12    1    3    3    0    0 -0.12295030842E+02  0.12825904137E+02  0.25945230017E+02  0.31445612746E+02  0.00000000000E+00 0.  1.
</event>
<event>
 7    1  0.2486105E-010  0.4778727E+02  0.7816164E-02  0.1312668E+00
        -11   -1    0    0    0    0  0.00000000000E+00  0.00000000000E+00  0.45593999997E+02  0.45594000000E+02  0.51100000000E-03 0.  1.
         11   -1    0    0    0    0 -0.00000000000E+00 -0.00000000000E+00 -0.45593999997E+02  0.45594000000E+02  0.51100000000E-03 0. -1.
    9900012    2    1    2    0    0  0.16572000916E+02  0.38291740024E+02  0.11947157654E+02  0.47787272536E+02  0.20000006799E+02 0.  0.
         12    1    1    2    0    0 -0.16572000916E+02 -0.38291740024E+02 -0.11947157654E+02  0.43400727464E+02  0.00000000000E+00 0. -1.
         11    1    3    3    0    0  0.44625617632E+01  0.71959989008E+00  0.16029593033E+00  0.45230494734E+01  0.51100000000E-03 0. -1.
        -11    1    3    3    0    0  0.17669774838E+01 -0.73279451099E-01  0.26219162461E+01  0.31625977248E+01  0.51100000000E-03 0.  1.
        -12    1    3    3    0    0  0.10342461669E+02  0.37645419585E+02  0.91649454780E+01  0.40101625338E+02  0.00000000000E+00 0.  1.
</event>
<event>
 7    1  0.2486105E-010  0.4778727E+02  0.7816164E-02  0.1312668E+00
        -11   -1    0    0    0    0  0.00000000000E+00  0.00000000000E+00  0.45593999997E+02  0.45594000000E+02  0.51100000000E-03 0.  1.
         11   -1    0    0    0    0 -0.00000000000E+00 -0.00000000000E+00 -0.45593999997E+02  0.45594000000E+02  0.51100000000E-03 0. -1.
    9900012    2    1    2    0    0 -0.32609483939E+02  0.20690854377E+01  0.28565077609E+02  0.47787271710E+02  0.20000003034E+02 0.  0.
         12    1    1    2    0    0  0.32609483939E+02 -0.20690854377E+01 -0.28565077609E+02  0.43400728290E+02  0.00000000000E+00 0. -1.
         11    1    3    3    0    0 -0.81586090427E+01 -0.54596055389E+01  0.51179556432E+01  0.11070847501E+02  0.51100000000E-03 0. -1.
        -11    1    3    3    0    0 -0.47936184150E+01  0.30932755866E+00 -0.58670847173E+00  0.48392859121E+01  0.51100000000E-03 0.  1.
        -12    1    3    3    0    0 -0.19657256481E+02  0.72193634180E+01  0.24033830438E+02  0.31877138297E+02  0.00000000000E+00 0.  1.
</event>
<event>
 7    1  0.2486105E-010  0.4778727E+02  0.7816164E-02  0.1312668E+00
        -11   -1    0    0    0    0  0.00000000000E+00  0.00000000000E+00  0.45593999997E+02  0.45594000000E+02  0.51100000000E-03 0.  1.
         11   -1    0    0    0    0 -0.00000000000E+00 -0.00000000000E+00 -0.45593999997E+02  0.45594000000E+02  0.51100000000E-03 0. -1.
    9900012    2    1    2    0    0 -0.31510958290E+02  0.26194843437E+02  0.14300804353E+02  0.47787270511E+02  0.19999997567E+02 0.  0.
         12    1    1    2    0    0  0.31510958290E+02 -0.26194843437E+02 -0.14300804353E+02  0.43400729489E+02  0.00000000000E+00 0. -1.
         11    1    3    3    0    0 -0.16123932769E+02  0.12120387815E+02 -0.23890769978E+00  0.20172805603E+02  0.51100000000E-03 0. -1.
        -11    1    3    3    0    0 -0.16120475451E+02  0.10993471459E+02  0.95982226440E+01  0.21745160879E+02  0.51100000000E-03 0.  1.
        -12    1    3    3    0    0  0.73344992933E+00  0.30809841628E+01  0.49414894084E+01  0.58693040289E+01  0.00000000000E+00 0.  1.
</event>
<event>
 7    1  0.2486105E-010  0.4778727E+02  0.7816164E-02  0.1312668E+00
        -11   -1    0    0    0    0  0.00000000000E+00  0.00000000000E+00  0.45593999997E+02  0.45594000000E+02  0.51100000000E-03 0.  1.
         11   -1    0    0    0    0 -0.00000000000E+00 -0.00000000000E+00 -0.45593999997E+02  0.45594000000E+02  0.51100000000E-03 0. -1.
    9900012    2    1    2    0    0 -0.57235668463E+01 -0.40120702783E+02  0.15530402933E+02  0.47787269309E+02  0.19999992088E+02 0.  0.
         12    1    1    2    0    0  0.57235668463E+01  0.40120702783E+02 -0.15530402933E+02  0.43400730691E+02  0.00000000000E+00 0. -1.
         11    1    3    3    0    0  0.29525859248E+01 -0.63223659830E+01 -0.17726756706E+01  0.71994759921E+01  0.51100000000E-03 0. -1.
        -11    1    3    3    0    0  0.27360670052E+01 -0.81125082391E+01  0.49142889578E+01  0.98716305041E+01  0.51100000000E-03 0.  1.
        -12    1    3    3    0    0 -0.11412219776E+02 -0.25685828561E+02  0.12388789646E+02  0.30716162813E+02  0.00000000000E+00 0.  1.
</event>
<event>
 7    1  0.2486105E-010  0.4778727E+02  0.7816164E-02  0.1312668E+00
        -11   -1    0    0    0    0  0.00000000000E+00  0.00000000000E+00  0.45593999997E+02  0.45594000000E+02  0.51100000000E-03 0.  1.
         11   -1    0    0    0    0 -0.00000000000E+00 -0.00000000000E+00 -0.45593999997E+02  0.45594000000E+02  0.51100000000E-03 0. -1.
    9900012    2    1    2    0    0  0.32857730091E+02 -0.20427273822E+02  0.19665183632E+02  0.47787269709E+02  0.19999993911E+02 0.  0.
         12    1    1    2    0    0 -0.32857730091E+02  0.20427273822E+02 -0.19665183632E+02  0.43400730291E+02  0.00000000000E+00 0. -1.
         11    1    3    3    0    0  0.21947468139E+00  0.30359809541E+00 -0.80627879293E+00  0.88905944253E+00  0.51100000000E-03 0. -1.
        -11    1    3    3    0    0  0.21248647350E+02 -0.44777181985E+01  0.66416281682E+01  0.22708284820E+02  0.51100000000E-03 0.  1.
         12    1    3    3    0    0  0.11389608060E+02 -0.16253153719E+02  0.13829834257E+02  0.24189925447E+02  0.00000000000E+00 0. -1.
</event>
<event>
 7    1  0.2486105E-010  0.4778727E+02  0.7816164E-02  0.1312668E+00
        -11   -1    0    0    0    0  0.00000000000E+00  0.00000000000E+00  0.45593999997E+02  0.45594000000E+02  0.51100000000E-03 0. -1.
         11   -1    0    0    0    0 -0.00000000000E+00 -0.00000000000E+00 -0.45593999997E+02  0.45594000000E+02  0.51100000000E-03 0.  1.
    9900012    2    1    2    0    0  0.85350977335E+01  0.27263979674E+02 -0.32671866939E+02  0.47787269934E+02  0.19999994936E+02 0.  0.
         12    1    1    2    0    0 -0.85350977335E+01 -0.27263979674E+02  0.32671866939E+02  0.43400730066E+02  0.00000000000E+00 0. -1.
         11    1    3    3    0    0 -0.27947298024E+01  0.91360086322E+01 -0.14025982432E+02  0.16970720428E+02  0.51100000000E-03 0. -1.
        -11    1    3    3    0    0  0.47175540788E+01  0.14018459503E+02 -0.17554729983E+02  0.22955196979E+02  0.51100000000E-03 0.  1.
        -12    1    3    3    0    0  0.66122734571E+01  0.41095115392E+01 -0.10911545247E+01  0.78613525273E+01  0.00000000000E+00 0.  1.
</event>
<event>
 7    1  0.2486105E-010  0.4778727E+02  0.7816164E-02  0.1312668E+00
        -11   -1    0    0    0    0  0.00000000000E+00  0.00000000000E+00  0.45593999997E+02  0.45594000000E+02  0.51100000000E-03 0.  1.
         11   -1    0    0    0    0 -0.00000000000E+00 -0.00000000000E+00 -0.45593999997E+02  0.45594000000E+02  0.51100000000E-03 0. -1.
    9900012    2    1    2    0    0  0.26640199448E+02  0.34224456701E+02 -0.16155714065E+01  0.47787265743E+02  0.19999975828E+02 0.  0.
         12    1    1    2    0    0 -0.26640199448E+02 -0.34224456701E+02  0.16155714065E+01  0.43400734257E+02  0.00000000000E+00 0. -1.
         11    1    3    3    0    0  0.35072244743E+00  0.27964317385E+01 -0.36509516941E+01  0.46122104502E+01  0.51100000000E-03 0. -1.
        -11    1    3    3    0    0  0.11250508447E+02  0.65613936258E+01 -0.37308550148E+01  0.13547881976E+02  0.51100000000E-03 0.  1.
        -12    1    3    3    0    0  0.15038968553E+02  0.24866631337E+02  0.57662353023E+01  0.29627173317E+02  0.00000000000E+00 0.  1.
</event>
<event>
 7    1  0.2486105E-010  0.4778727E+02  0.7816164E-02  0.1312668E+00
        -11   -1    0    0    0    0  0.00000000000E+00  0.00000000000E+00  0.45593999997E+02  0.45594000000E+02  0.51100000000E-03 0. -1.
         11   -1    0    0    0    0 -0.00000000000E+00 -0.00000000000E+00 -0.45593999997E+02  0.45594000000E+02  0.51100000000E-03 0.  1.
    9900012    2    1    2    0    0 -0.19053386705E+02 -0.11173685274E+02 -0.37359607849E+02  0.47787273207E+02  0.20000009860E+02 0.  0.
         12    1    1    2    0    0  0.19053386705E+02  0.11173685274E+02  0.37359607849E+02  0.43400726793E+02  0.00000000000E+00 0. -1.
         11    1    3    3    0    0 -0.47925790271E+01 -0.76572059871E+01 -0.92681203909E+01  0.12942166476E+02  0.51100000000E-03 0. -1.
        -11    1    3    3    0    0 -0.11073116708E+02 -0.88191386005E+01 -0.16792989507E+02  0.21963506463E+02  0.51100000000E-03 0.  1.
         12    1    3    3    0    0 -0.31876909696E+01  0.53026593140E+01 -0.11298497951E+02  0.12881600268E+02  0.00000000000E+00 0. -1.
</event>
<event>
 7    1  0.2486105E-010  0.4778726E+02  0.7816164E-02  0.1312668E+00
        -11   -1    0    0    0    0  0.00000000000E+00  0.00000000000E+00  0.45593999997E+02  0.45594000000E+02  0.51100000000E-03 0. -1.
         11   -1    0    0    0    0 -0.00000000000E+00 -0.00000000000E+00 -0.45593999997E+02  0.45594000000E+02  0.51100000000E-03 0.  1.
    9900012    2    1    2    0    0 -0.24926186462E+02 -0.20203789588E+01 -0.35471498667E+02  0.47787263596E+02  0.19999966041E+02 0.  0.
         12    1    1    2    0    0  0.24926186462E+02  0.20203789588E+01  0.35471498667E+02  0.43400736404E+02  0.00000000000E+00 0. -1.
         11    1    3    3    0    0  0.17679348043E+01 -0.13825227572E+01 -0.57530274196E+01  0.61752965434E+01  0.51100000000E-03 0. -1.
        -11    1    3    3    0    0 -0.11602519082E+02  0.47560028229E+01 -0.90807656874E+01  0.15482193566E+02  0.51100000000E-03 0.  1.
        -12    1    3    3    0    0 -0.15091602184E+02 -0.53938590245E+01 -0.20637705560E+02  0.26129773487E+02  0.00000000000E+00 0.  1.
</event>
<event>
 7    1  0.2486105E-010  0.4778727E+02  0.7816164E-02  0.1312668E+00
        -11   -1    0    0    0    0  0.00000000000E+00  0.00000000000E+00  0.45593999997E+02  0.45594000000E+02  0.51100000000E-03 0. -1.
         11   -1    0    0    0    0 -0.00000000000E+00 -0.00000000000E+00 -0.45593999997E+02  0.45594000000E+02  0.51100000000E-03 0.  1.
    9900012    2    1    2    0    0 -0.15081944092E+02  0.38457014771E+02 -0.13312257548E+02  0.47787271622E+02  0.20000002635E+02 0.  0.
         12    1    1    2    0    0  0.15081944092E+02 -0.38457014771E+02  0.13312257548E+02  0.43400728378E+02  0.00000000000E+00 0. -1.
         11    1    3    3    0    0 -0.12523125102E+00  0.11696350412E+01 -0.68230645337E+01  0.69237229066E+01  0.51100000000E-03 0. -1.
        -11    1    3    3    0    0 -0.14826011746E+01  0.72908413827E+01 -0.17129068781E+01  0.76346921709E+01  0.51100000000E-03 0.  1.
         12    1    3    3    0    0 -0.13474111666E+02  0.29996538347E+02 -0.47762861358E+01  0.33228856545E+02  0.00000000000E+00 0. -1.
</event>
<event>
 7    1  0.2486105E-010  0.4778727E+02  0.7816164E-02  0.1312668E+00
        -11   -1    0    0    0    0  0.00000000000E+00  0.00000000000E+00  0.45593999997E+02  0.45594000000E+02  0.51100000000E-03 0.  1.
         11   -1    0    0    0    0 -0.00000000000E+00 -0.00000000000E+00 -0.45593999997E+02  0.45594000000E+02  0.51100000000E-03 0. -1.
    9900012    2    1    2    0    0 -0.21114589296E+02  0.13184215456E+02  0.35552411630E+02  0.47787269695E+02  0.19999993848E+02 0.  0.
         12    1    1    2    0    0  0.21114589296E+02 -0.13184215456E+02 -0.35552411630E+02  0.43400730305E+02  0.00000000000E+00 0. -1.
         11    1    3    3    0    0  0.19215511900E+01  0.57979991730E+01  0.66496194309E+01  0.90292077295E+01  0.51100000000E-03 0. -1.
        -11    1    3    3    0    0 -0.84079740339E+01  0.47605736491E+01  0.17631768266E+02  0.20105629592E+02  0.51100000000E-03 0.  1.
        -12    1    3    3    0    0 -0.14628166452E+02  0.26256426340E+01  0.11271023932E+02  0.18652432374E+02  0.00000000000E+00 0.  1.
</event>
<event>
 7    1  0.2486105E-010  0.4778727E+02  0.7816164E-02  0.1312668E+00
        -11   -1    0    0    0    0  0.00000000000E+00  0.00000000000E+00  0.45593999997E+02  0.45594000000E+02  0.51100000000E-03 0.  1.
         11   -1    0    0    0    0 -0.00000000000E+00 -0.00000000000E+00 -0.45593999997E+02  0.45594000000E+02  0.51100000000E-03 0. -1.
    9900012    2    1    2    0    0 -0.13979199713E+02  0.39425026092E+02  0.11570339869E+02  0.47787268766E+02  0.19999989610E+02 0.  0.
         12    1    1    2    0    0  0.13979199713E+02 -0.39425026092E+02 -0.11570339869E+02  0.43400731234E+02  0.00000000000E+00 0. -1.
         11    1    3    3    0    0 -0.95123208824E+01  0.26204385181E+02  0.12805049494E+02  0.30677733686E+02  0.51100000000E-03 0.  1.
        -11    1    3    3    0    0 -0.56992328391E+01  0.14136185698E+02 -0.17273262259E+00  0.15242796261E+02  0.51100000000E-03 0. -1.
        -12    1    3    3    0    0  0.12323540084E+01 -0.91554478742E+00 -0.10619770029E+01  0.18667388180E+01  0.00000000000E+00 0.  1.
</event>
<event>
 7    1  0.2486105E-010  0.4778727E+02  0.7816164E-02  0.1312668E+00
        -11   -1    0    0    0    0  0.00000000000E+00  0.00000000000E+00  0.45593999997E+02  0.45594000000E+02  0.51100000000E-03 0.  1.
         11   -1    0    0    0    0 -0.00000000000E+00 -0.00000000000E+00 -0.45593999997E+02  0.45594000000E+02  0.51100000000E-03 0. -1.
    9900012    2    1    2    0    0 -0.18077907913E+02 -0.27121045693E+02  0.28657656161E+02  0.47787272695E+02  0.20000007525E+02 0.  0.
         12    1    1    2    0    0  0.18077907913E+02  0.27121045693E+02 -0.28657656161E+02  0.43400727305E+02  0.00000000000E+00 0. -1.
         11    1    3    3    0    0  0.22818076797E+01 -0.62410766906E+01  0.70354846232E+01  0.96775889916E+01  0.51100000000E-03 0. -1.
        -11    1    3    3    0    0 -0.14174661485E+01  0.13745393599E+01  0.24973729934E+01  0.31836207160E+01  0.51100000000E-03 0.  1.
        -12    1    3    3    0    0 -0.18942249444E+02 -0.22254508363E+02  0.19124798544E+02  0.34926062987E+02  0.00000000000E+00 0.  1.
</event>
<event>
 7    1  0.2486105E-010  0.4778726E+02  0.7816164E-02  0.1312668E+00
        -11   -1    0    0    0    0  0.00000000000E+00  0.00000000000E+00  0.45593999997E+02  0.45594000000E+02  0.51100000000E-03 0. -1.
         11   -1    0    0    0    0 -0.00000000000E+00 -0.00000000000E+00 -0.45593999997E+02  0.45594000000E+02  0.51100000000E-03 0.  1.
    9900012    2    1    2    0    0 -0.25691488240E+01 -0.40854155981E+02  0.14420862857E+02  0.47787264152E+02  0.19999968576E+02 0.  0.
         12    1    1    2    0    0  0.25691488240E+01  0.40854155981E+02 -0.14420862857E+02  0.43400735848E+02  0.00000000000E+00 0. -1.
         11    1    3    3    0    0 -0.50242358226E+01 -0.19330894287E+02  0.31845092639E+01  0.20225417648E+02  0.51100000000E-03 0. -1.
        -11    1    3    3    0    0 -0.40028419812E+01 -0.83273945369E+01  0.29562146983E+00  0.92442217636E+01  0.51100000000E-03 0.  1.
         12    1    3    3    0    0  0.64579289798E+01 -0.13195867157E+02  0.10940732123E+02  0.18317624740E+02  0.00000000000E+00 0. -1.
</event>
<event>
 7    1  0.2486105E-010  0.4778728E+02  0.7816164E-02  0.1312668E+00
        -11   -1    0    0    0    0  0.00000000000E+00  0.00000000000E+00  0.45593999997E+02  0.45594000000E+02  0.51100000000E-03 0.  1.
         11   -1    0    0    0    0 -0.00000000000E+00 -0.00000000000E+00 -0.45593999997E+02  0.45594000000E+02  0.51100000000E-03 0. -1.
    9900012    2    1    2    0    0  0.31584357284E+02  0.17389751728E+02  0.24158793194E+02  0.47787281356E+02  0.20000047014E+02 0.  0.
         12    1    1    2    0    0 -0.31584357284E+02 -0.17389751728E+02 -0.24158793194E+02  0.43400718644E+02  0.00000000000E+00 0. -1.
         11    1    3    3    0    0 -0.25744299570E+00 -0.12469487461E+00  0.46332410850E+01  0.46420630027E+01  0.51100000000E-03 0. -1.
        -11    1    3    3    0    0  0.33314922289E+01  0.44109106709E+01 -0.10456597138E+01  0.56256891059E+01  0.51100000000E-03 0.  1.
        -12    1    3    3    0    0  0.28510308051E+02  0.13103535932E+02  0.20571211823E+02  0.37519529247E+02  0.00000000000E+00 0.  1.
</event>
<event>
 7    1  0.2486105E-010  0.4778726E+02  0.7816164E-02  0.1312668E+00
        -11   -1    0    0    0    0  0.00000000000E+00  0.00000000000E+00  0.45593999997E+02  0.45594000000E+02  0.51100000000E-03 0.  1.
         11   -1    0    0    0    0 -0.00000000000E+00 -0.00000000000E+00 -0.45593999997E+02  0.45594000000E+02  0.51100000000E-03 0. -1.
    9900012    2    1    2    0    0 -0.38314477080E+02 -0.19756017919E+01  0.20290925726E+02  0.47787264716E+02  0.19999971146E+02 0.  0.
         12    1    1    2    0    0  0.38314477080E+02  0.19756017919E+01 -0.20290925726E+02  0.43400735284E+02  0.00000000000E+00 0. -1.
         11    1    3    3    0    0 -0.26209982309E+02  0.10094444924E+01  0.19631055673E+02  0.32762180909E+02  0.51100000000E-03 0. -1.
        -11    1    3    3    0    0 -0.10407364717E+02 -0.38022285830E+01  0.34976006897E+01  0.11619096066E+02  0.51100000000E-03 0.  1.
         12    1    3    3    0    0 -0.16971300540E+01  0.81718229866E+00 -0.28377306358E+01  0.34059877409E+01  0.00000000000E+00 0. -1.
</event>
<event>
 7    1  0.2670489E-010  0.4778727E+02  0.7816164E-02  0.1312668E+00
        -11   -1    0    0    0    0  0.00000000000E+00  0.00000000000E+00  0.45593999997E+02  0.45594000000E+02  0.51100000000E-03 0.  1.
         11   -1    0    0    0    0 -0.00000000000E+00 -0.00000000000E+00 -0.45593999997E+02  0.45594000000E+02  0.51100000000E-03 0. -1.
    9900012    2    1    2    0    0 -0.41872482427E+02  0.26021494329E+01  0.11115174759E+02  0.47787273322E+02  0.20000010385E+02 0.  0.
         12    1    1    2    0    0  0.41872482427E+02 -0.26021494329E+01 -0.11115174759E+02  0.43400726678E+02  0.00000000000E+00 0. -1.
         11    1    3    3    0    0 -0.57289060278E+01 -0.19709564917E+00 -0.43090921303E+01  0.71712959930E+01  0.51100000000E-03 0. -1.
        -11    1    3    3    0    0 -0.11631422600E+02 -0.37125974769E+01  0.51723856522E+01  0.13259975314E+02  0.51100000000E-03 0.  1.
        -12    1    3    3    0    0 -0.24512153798E+02  0.65118425589E+01  0.10251881237E+02  0.27356002015E+02  0.00000000000E+00 0.  1.
</event>
<event>
 7    1  0.2486105E-010  0.4778727E+02  0.7816164E-02  0.1312668E+00
        -11   -1    0    0    0    0  0.00000000000E+00  0.00000000000E+00  0.45593999997E+02  0.45594000000E+02  0.51100000000E-03 0.  1.
         11   -1    0    0    0    0 -0.00000000000E+00 -0.00000000000E+00 -0.45593999997E+02  0.45594000000E+02  0.51100000000E-03 0. -1.
    9900012    2    1    2    0    0  0.35312183076E+02  0.11240845070E+02  0.22590186296E+02  0.47787269725E+02  0.19999993986E+02 0.  0.
         12    1    1    2    0    0 -0.35312183076E+02 -0.11240845070E+02 -0.22590186296E+02  0.43400730275E+02  0.00000000000E+00 0. -1.
         11    1    3    3    0    0  0.73953404491E+01 -0.46413923930E+01  0.56220072233E+01  0.10384630431E+02  0.51100000000E-03 0. -1.
        -11    1    3    3    0    0  0.65641348925E+01 -0.15319830613E+00  0.24531457278E+01  0.70092268354E+01  0.51100000000E-03 0.  1.
        -12    1    3    3    0    0  0.21352707735E+02  0.16035435769E+02  0.14515033344E+02  0.30393412459E+02  0.00000000000E+00 0.  1.
</event>
<event>
 7    1  0.2486105E-010  0.4778727E+02  0.7816164E-02  0.1312668E+00
        -11   -1    0    0    0    0  0.00000000000E+00  0.00000000000E+00  0.45593999997E+02  0.45594000000E+02  0.51100000000E-03 0. -1.
         11   -1    0    0    0    0 -0.00000000000E+00 -0.00000000000E+00 -0.45593999997E+02  0.45594000000E+02  0.51100000000E-03 0.  1.
    9900012    2    1    2    0    0  0.97349383488E+01  0.24859208898E+02 -0.34218037949E+02  0.47787269444E+02  0.19999992703E+02 0.  0.
         12    1    1    2    0    0 -0.97349383488E+01 -0.24859208898E+02  0.34218037949E+02  0.43400730556E+02  0.00000000000E+00 0. -1.
         11    1    3    3    0    0  0.13288343257E+01 -0.93066662958E-01  0.36677281181E+00  0.13816600976E+01  0.51100000000E-03 0. -1.
        -11    1    3    3    0    0  0.18250744498E+01  0.14512197683E+02 -0.29750050139E+02  0.33151172858E+02  0.51100000000E-03 0.  1.
        -12    1    3    3    0    0  0.65810295734E+01  0.10440077878E+02 -0.48347606220E+01  0.13254436488E+02  0.00000000000E+00 0.  1.
</event>
<event>
 7    1  0.2486105E-010  0.4778728E+02  0.7816164E-02  0.1312668E+00
        -11   -1    0    0    0    0  0.00000000000E+00  0.00000000000E+00  0.45593999997E+02  0.45594000000E+02  0.51100000000E-03 0. -1.
         11   -1    0    0    0    0 -0.00000000000E+00 -0.00000000000E+00 -0.45593999997E+02  0.45594000000E+02  0.51100000000E-03 0.  1.
    9900012    2    1    2    0    0  0.79463898001E+01 -0.41969344380E+02 -0.76844706255E+01  0.47787284945E+02  0.20000063377E+02 0.  0.
         12    1    1    2    0    0 -0.79463898001E+01  0.41969344380E+02  0.76844706255E+01  0.43400715055E+02  0.00000000000E+00 0. -1.
         11    1    3    3    0    0  0.84521408377E+01 -0.69496725237E+01 -0.19681518232E+01  0.11118014876E+02  0.51100000000E-03 0. -1.
        -11    1    3    3    0    0 -0.18131360771E+01 -0.81746798981E+00 -0.45202098332E+00  0.20396175080E+01  0.51100000000E-03 0.  1.
        -12    1    3    3    0    0  0.13073850394E+01 -0.34202203866E+02 -0.52642978190E+01  0.34629652561E+02  0.00000000000E+00 0.  1.
</event>
<event>
 7    1  0.2486105E-010  0.4778727E+02  0.7816164E-02  0.1312668E+00
        -11   -1    0    0    0    0  0.00000000000E+00  0.00000000000E+00  0.45593999997E+02  0.45594000000E+02  0.51100000000E-03 0. -1.
         11   -1    0    0    0    0 -0.00000000000E+00 -0.00000000000E+00 -0.45593999997E+02  0.45594000000E+02  0.51100000000E-03 0.  1.
    9900012    2    1    2    0    0  0.98942791943E+01 -0.41036363405E+02 -0.10086797786E+02  0.47787269916E+02  0.19999994855E+02 0.  0.
         12    1    1    2    0    0 -0.98942791943E+01  0.41036363405E+02  0.10086797786E+02  0.43400730084E+02  0.00000000000E+00 0. -1.
         11    1    3    3    0    0  0.45748680289E+01 -0.17833161789E+02 -0.10024384072E+01  0.18437894671E+02  0.51100000000E-03 0. -1.
        -11    1    3    3    0    0  0.95919260799E+01 -0.12812149946E+02 -0.84445352193E+01  0.18096032921E+02  0.51100000000E-03 0.  1.
         12    1    3    3    0    0 -0.42725149146E+01 -0.10391051670E+02 -0.63982415920E+00  0.11253342323E+02  0.00000000000E+00 0. -1.
</event>
<event>
 7    1  0.2486105E-010  0.4778727E+02  0.7816164E-02  0.1312668E+00
        -11   -1    0    0    0    0  0.00000000000E+00  0.00000000000E+00  0.45593999997E+02  0.45594000000E+02  0.51100000000E-03 0.  1.
         11   -1    0    0    0    0 -0.00000000000E+00 -0.00000000000E+00 -0.45593999997E+02  0.45594000000E+02  0.51100000000E-03 0. -1.
    9900012    2    1    2    0    0 -0.32298763087E+02 -0.55196931923E+00  0.28984627483E+02  0.47787269622E+02  0.19999993513E+02 0.  0.
         12    1    1    2    0    0  0.32298763087E+02  0.55196931923E+00 -0.28984627483E+02  0.43400730378E+02  0.00000000000E+00 0. -1.
         11    1    3    3    0    0 -0.23234095117E+01 -0.12723080717E+01 -0.11852782332E+01  0.29020483007E+01  0.51100000000E-03 0. -1.
        -11    1    3    3    0    0 -0.18239915447E+02 -0.15029512017E+01  0.85833485330E+01  0.20214530668E+02  0.51100000000E-03 0.  1.
        -12    1    3    3    0    0 -0.11735438128E+02  0.22232899541E+01  0.21586557183E+02  0.24670690653E+02  0.00000000000E+00 0.  1.
</event>
<event>
 7    1  0.2486105E-010  0.4778727E+02  0.7816164E-02  0.1312668E+00
        -11   -1    0    0    0    0  0.00000000000E+00  0.00000000000E+00  0.45593999997E+02  0.45594000000E+02  0.51100000000E-03 0.  1.
         11   -1    0    0    0    0 -0.00000000000E+00 -0.00000000000E+00 -0.45593999997E+02  0.45594000000E+02  0.51100000000E-03 0. -1.
    9900012    2    1    2    0    0  0.14249833420E+02  0.35244059220E+02  0.20938528852E+02  0.47787268978E+02  0.19999990578E+02 0.  0.
         12    1    1    2    0    0 -0.14249833420E+02 -0.35244059220E+02 -0.20938528852E+02  0.43400731022E+02  0.00000000000E+00 0. -1.
         11    1    3    3    0    0  0.78419134595E+01  0.46479653822E+01  0.74444498076E+01  0.11769410440E+02  0.51100000000E-03 0. -1.
        -11    1    3    3    0    0  0.30288377843E+01  0.11953543504E+02  0.11680156183E+02  0.16984908282E+02  0.51100000000E-03 0.  1.
         12    1    3    3    0    0  0.33790821760E+01  0.18642550334E+02  0.18139228607E+01  0.19032950256E+02  0.00000000000E+00 0. -1.
</event>
<event>
 7    1  0.2486105E-010  0.4778727E+02  0.7816164E-02  0.1312668E+00
        -11   -1    0    0    0    0  0.00000000000E+00  0.00000000000E+00  0.45593999997E+02  0.45594000000E+02  0.51100000000E-03 0.  1.
         11   -1    0    0    0    0 -0.00000000000E+00 -0.00000000000E+00 -0.45593999997E+02  0.45594000000E+02  0.51100000000E-03 0. -1.
    9900012    2    1    2    0    0  0.13077192843E+02 -0.35964060883E+02  0.20474294893E+02  0.47787269600E+02  0.19999993415E+02 0.  0.
         12    1    1    2    0    0 -0.13077192843E+02  0.35964060883E+02 -0.20474294893E+02  0.43400730400E+02  0.00000000000E+00 0. -1.
         11    1    3    3    0    0  0.76094558715E+01 -0.13290350738E+02  0.14967148993E+02  0.21413845770E+02  0.51100000000E-03 0.  1.
        -11    1    3    3    0    0  0.94696473185E+00 -0.13353890373E+01  0.42166940855E+01  0.45233301180E+01  0.51100000000E-03 0. -1.
        -12    1    3    3    0    0  0.45207722398E+01 -0.21338321108E+02  0.12904518137E+01  0.21850093713E+02  0.00000000000E+00 0.  1.
</event>
<event>
 7    1  0.2486105E-010  0.4778727E+02  0.7816164E-02  0.1312668E+00
        -11   -1    0    0    0    0  0.00000000000E+00  0.00000000000E+00  0.45593999997E+02  0.45594000000E+02  0.51100000000E-03 0. -1.
         11   -1    0    0    0    0 -0.00000000000E+00 -0.00000000000E+00 -0.45593999997E+02  0.45594000000E+02  0.51100000000E-03 0.  1.
    9900012    2    1    2    0    0 -0.52544833450E+01  0.40058247743E+02 -0.15854031527E+02  0.47787272782E+02  0.20000007920E+02 0.  0.
         12    1    1    2    0    0  0.52544833450E+01 -0.40058247743E+02  0.15854031527E+02  0.43400727218E+02  0.00000000000E+00 0. -1.
         11    1    3    3    0    0 -0.10855442533E+02  0.18778394748E+02 -0.11129300969E+02  0.24378885992E+02  0.51100000000E-03 0. -1.
        -11    1    3    3    0    0 -0.89656389113E+00  0.39685490414E+01  0.72246382262E+00  0.41322103698E+01  0.51100000000E-03 0.  1.
        -12    1    3    3    0    0  0.64975230795E+01  0.17311303953E+02 -0.54471943804E+01  0.19276176419E+02  0.00000000000E+00 0.  1.
</event>
<event>
 7    1  0.2486105E-010  0.4778727E+02  0.7816164E-02  0.1312668E+00
        -11   -1    0    0    0    0  0.00000000000E+00  0.00000000000E+00  0.45593999997E+02  0.45594000000E+02  0.51100000000E-03 0.  1.
         11   -1    0    0    0    0 -0.00000000000E+00 -0.00000000000E+00 -0.45593999997E+02  0.45594000000E+02  0.51100000000E-03 0. -1.
    9900012    2    1    2    0    0 -0.68419453469E+01  0.30544547850E+02  0.30063955207E+02  0.47787273944E+02  0.20000013222E+02 0.  0.
         12    1    1    2    0    0  0.68419453469E+01 -0.30544547850E+02 -0.30063955207E+02  0.43400726056E+02  0.00000000000E+00 0. -1.
         11    1    3    3    0    0 -0.28433227525E+01  0.41908881184E+01  0.34825033579E+01  0.61462067485E+01  0.51100000000E-03 0. -1.
        -11    1    3    3    0    0  0.66389830951E+01  0.14947456486E+02  0.11954447687E+02  0.20258612285E+02  0.51100000000E-03 0.  1.
        -12    1    3    3    0    0 -0.10637605689E+02  0.11406203245E+02  0.14627004162E+02  0.21382454911E+02  0.00000000000E+00 0.  1.
</event>
<event>
 7    1  0.2486105E-010  0.4778727E+02  0.7816164E-02  0.1312668E+00
        -11   -1    0    0    0    0  0.00000000000E+00  0.00000000000E+00  0.45593999997E+02  0.45594000000E+02  0.51100000000E-03 0. -1.
         11   -1    0    0    0    0 -0.00000000000E+00 -0.00000000000E+00 -0.45593999997E+02  0.45594000000E+02  0.51100000000E-03 0.  1.
    9900012    2    1    2    0    0  0.40621626184E+02  0.14541665295E+02 -0.46953985996E+01  0.47787270612E+02  0.19999998029E+02 0.  0.
         12    1    1    2    0    0 -0.40621626184E+02 -0.14541665295E+02  0.46953985996E+01  0.43400729388E+02  0.00000000000E+00 0. -1.
         11    1    3    3    0    0  0.50908015661E+01  0.12454016415E+01 -0.30531274545E+01  0.60653831988E+01  0.51100000000E-03 0. -1.
        -11    1    3    3    0    0  0.11244882767E+02  0.54622907009E+01 -0.87178719506E+01  0.15240908757E+02  0.51100000000E-03 0.  1.
         12    1    3    3    0    0  0.24285941851E+02  0.78339729526E+01  0.70756008055E+01  0.26480978656E+02  0.00000000000E+00 0. -1.
</event>
<event>
 7    1  0.2486105E-010  0.4778727E+02  0.7816164E-02  0.1312668E+00
        -11   -1    0    0    0    0  0.00000000000E+00  0.00000000000E+00  0.45593999997E+02  0.45594000000E+02  0.51100000000E-03 0.  1.
         11   -1    0    0    0    0 -0.00000000000E+00 -0.00000000000E+00 -0.45593999997E+02  0.45594000000E+02  0.51100000000E-03 0. -1.
    9900012    2    1    2    0    0  0.14763567497E+02  0.12447581110E+02  0.38867958172E+02  0.47787269900E+02  0.19999994782E+02 0.  0.
         12    1    1    2    0    0 -0.14763567497E+02 -0.12447581110E+02 -0.38867958172E+02  0.43400730100E+02  0.00000000000E+00 0. -1.
         11    1    3    3    0    0 -0.14548317391E+01  0.37718949631E+01  0.39670197498E+01  0.56640067936E+01  0.51100000000E-03 0. -1.
        -11    1    3    3    0    0  0.87693744172E+01  0.11946569727E+02  0.17623930972E+02  0.23026623701E+02  0.51100000000E-03 0.  1.
         12    1    3    3    0    0  0.74490248189E+01 -0.32708835796E+01  0.17277007450E+02  0.19096639405E+02  0.00000000000E+00 0. -1.
</event>
<event>
 7    1  0.2486105E-010  0.4778727E+02  0.7816164E-02  0.1312668E+00
        -11   -1    0    0    0    0  0.00000000000E+00  0.00000000000E+00  0.45593999997E+02  0.45594000000E+02  0.51100000000E-03 0.  1.
         11   -1    0    0    0    0 -0.00000000000E+00 -0.00000000000E+00 -0.45593999997E+02  0.45594000000E+02  0.51100000000E-03 0. -1.
    9900012    2    1    2    0    0 -0.36402341005E+02  0.17724240630E+01  0.23565891968E+02  0.47787272103E+02  0.20000004828E+02 0.  0.
         12    1    1    2    0    0  0.36402341005E+02 -0.17724240630E+01 -0.23565891968E+02  0.43400727897E+02  0.00000000000E+00 0. -1.
         11    1    3    3    0    0 -0.14558631820E+02 -0.36430212512E+01  0.27317562693E+01  0.15254109508E+02  0.51100000000E-03 0. -1.
        -11    1    3    3    0    0 -0.77103074486E+00 -0.21304678190E+01  0.37257050994E+01  0.43605344037E+01  0.51100000000E-03 0.  1.
        -12    1    3    3    0    0 -0.21072678440E+02  0.75459131331E+01  0.17108430599E+02  0.28172628192E+02  0.00000000000E+00 0.  1.
</event>
<event>
 7    1  0.2486105E-010  0.4778727E+02  0.7816164E-02  0.1312668E+00
        -11   -1    0    0    0    0  0.00000000000E+00  0.00000000000E+00  0.45593999997E+02  0.45594000000E+02  0.51100000000E-03 0. -1.
         11   -1    0    0    0    0 -0.00000000000E+00 -0.00000000000E+00 -0.45593999997E+02  0.45594000000E+02  0.51100000000E-03 0.  1.
    9900012    2    1    2    0    0 -0.92354709656E+01  0.41484959453E+02 -0.87936095409E+01  0.47787270127E+02  0.19999995817E+02 0.  0.
         12    1    1    2    0    0  0.92354709656E+01 -0.41484959453E+02  0.87936095409E+01  0.43400729873E+02  0.00000000000E+00 0. -1.
         11    1    3    3    0    0  0.41973774077E+00 -0.13222103017E+01 -0.14508560885E+01  0.20073374165E+01  0.51100000000E-03 0. -1.
        -11    1    3    3    0    0  0.67986261811E+00 -0.32793155124E+00 -0.48441829622E+00  0.89689109073E+00  0.51100000000E-03 0.  1.
        -12    1    3    3    0    0 -0.10335071325E+02  0.43135101306E+02 -0.68583351562E+01  0.44883041620E+02  0.00000000000E+00 0.  1.
</event>
<event>
 7    1  0.2486105E-010  0.4778727E+02  0.7816164E-02  0.1312668E+00
        -11   -1    0    0    0    0  0.00000000000E+00  0.00000000000E+00  0.45593999997E+02  0.45594000000E+02  0.51100000000E-03 0.  1.
         11   -1    0    0    0    0 -0.00000000000E+00 -0.00000000000E+00 -0.45593999997E+02  0.45594000000E+02  0.51100000000E-03 0. -1.
    9900012    2    1    2    0    0 -0.26246161464E+02 -0.34545738369E+02 -0.11636565369E+01  0.47787272730E+02  0.20000007684E+02 0.  0.
         12    1    1    2    0    0  0.26246161464E+02  0.34545738369E+02  0.11636565369E+01  0.43400727270E+02  0.00000000000E+00 0. -1.
         11    1    3    3    0    0 -0.21760473065E+00 -0.69973686273E+01 -0.12117765130E+01  0.71048520114E+01  0.51100000000E-03 0. -1.
        -11    1    3    3    0    0 -0.77705990146E+01 -0.22681511184E+01 -0.43502644481E+01  0.91897507894E+01  0.51100000000E-03 0.  1.
        -12    1    3    3    0    0 -0.18257957719E+02 -0.25280218624E+02  0.43983844242E+01  0.31492669929E+02  0.00000000000E+00 0.  1.
</event>
<event>
 7    1  0.2486105E-010  0.4778727E+02  0.7816164E-02  0.1312668E+00
        -11   -1    0    0    0    0  0.00000000000E+00  0.00000000000E+00  0.45593999997E+02  0.45594000000E+02  0.51100000000E-03 0.  1.
         11   -1    0    0    0    0 -0.00000000000E+00 -0.00000000000E+00 -0.45593999997E+02  0.45594000000E+02  0.51100000000E-03 0. -1.
    9900012    2    1    2    0    0 -0.37308387589E+02 -0.53886135803E+01  0.21509775635E+02  0.47787269722E+02  0.19999993968E+02 0.  0.
         12    1    1    2    0    0  0.37308387589E+02  0.53886135803E+01 -0.21509775635E+02  0.43400730278E+02  0.00000000000E+00 0. -1.
         11    1    3    3    0    0 -0.16618568731E+02 -0.91979024267E+00  0.16763697997E+02  0.23622963649E+02  0.51100000000E-03 0. -1.
        -11    1    3    3    0    0 -0.11036288740E+02  0.21368400199E+01  0.53542732783E+01  0.12451264876E+02  0.51100000000E-03 0.  1.
         12    1    3    3    0    0 -0.96535301187E+01 -0.66056633575E+01 -0.60819563974E+00  0.11713041197E+02  0.00000000000E+00 0. -1.
</event>
<event>
 7    1  0.2486105E-010  0.4778727E+02  0.7816164E-02  0.1312668E+00
        -11   -1    0    0    0    0  0.00000000000E+00  0.00000000000E+00  0.45593999997E+02  0.45594000000E+02  0.51100000000E-03 0.  1.
         11   -1    0    0    0    0 -0.00000000000E+00 -0.00000000000E+00 -0.45593999997E+02  0.45594000000E+02  0.51100000000E-03 0. -1.
    9900012    2    1    2    0    0 -0.13596441888E+02  0.21686415496E+02  0.35049384975E+02  0.47787271478E+02  0.20000001976E+02 0.  0.
         12    1    1    2    0    0  0.13596441888E+02 -0.21686415496E+02 -0.35049384975E+02  0.43400728522E+02  0.00000000000E+00 0. -1.
         11    1    3    3    0    0 -0.12068975120E+02  0.43701871747E+01  0.75866927803E+01  0.14910285174E+02  0.51100000000E-03 0.  1.
        -11    1    3    3    0    0  0.34130998624E+00 -0.18346504877E+00  0.12142169711E+01  0.12745489574E+01  0.51100000000E-03 0. -1.
        -12    1    3    3    0    0 -0.18687767547E+01  0.17499693370E+02  0.26248475224E+02  0.31602437346E+02  0.00000000000E+00 0.  1.
</event>
<event>
 7    1  0.2486105E-010  0.4778726E+02  0.7816164E-02  0.1312668E+00
        -11   -1    0    0    0    0  0.00000000000E+00  0.00000000000E+00  0.45593999997E+02  0.45594000000E+02  0.51100000000E-03 0.  1.
         11   -1    0    0    0    0 -0.00000000000E+00 -0.00000000000E+00 -0.45593999997E+02  0.45594000000E+02  0.51100000000E-03 0. -1.
    9900012    2    1    2    0    0 -0.19387003530E+02 -0.35304448258E+02  0.16166760452E+02  0.47787261341E+02  0.19999955758E+02 0.  0.
         12    1    1    2    0    0  0.19387003530E+02  0.35304448258E+02 -0.16166760452E+02  0.43400738659E+02  0.00000000000E+00 0. -1.
         11    1    3    3    0    0 -0.60540048099E+01 -0.84748406226E+01 -0.68497738778E+00  0.10437580759E+02  0.51100000000E-03 0. -1.
        -11    1    3    3    0    0 -0.13157924194E+02 -0.15629750121E+02  0.49826397006E+01  0.21029663730E+02  0.51100000000E-03 0.  1.
        -12    1    3    3    0    0 -0.17507452604E+00 -0.11199857514E+02  0.11869098139E+02  0.16320016852E+02  0.00000000000E+00 0.  1.
</event>
<event>
 7    1  0.2486105E-010  0.4778727E+02  0.7816164E-02  0.1312668E+00
        -11   -1    0    0    0    0  0.00000000000E+00  0.00000000000E+00  0.45593999997E+02  0.45594000000E+02  0.51100000000E-03 0.  1.
         11   -1    0    0    0    0 -0.00000000000E+00 -0.00000000000E+00 -0.45593999997E+02  0.45594000000E+02  0.51100000000E-03 0. -1.
    9900012    2    1    2    0    0 -0.11869906087E+02  0.14246058487E+02  0.39240010375E+02  0.47787271122E+02  0.20000000354E+02 0.  0.
         12    1    1    2    0    0  0.11869906087E+02 -0.14246058487E+02 -0.39240010375E+02  0.43400728878E+02  0.00000000000E+00 0. -1.
         11    1    3    3    0    0 -0.31907296155E+01 -0.13669163476E+01  0.71520632842E+01  0.79499198274E+01  0.51100000000E-03 0.  1.
        -11    1    3    3    0    0 -0.26310717378E+01  0.15745249539E+01 -0.11326359099E+01  0.32687201908E+01  0.51100000000E-03 0. -1.
         12    1    3    3    0    0 -0.60481047335E+01  0.14038449881E+02  0.33220583000E+02  0.36568631104E+02  0.00000000000E+00 0. -1.
</event>
<event>
 7    1  0.2486105E-010  0.4778727E+02  0.7816164E-02  0.1312668E+00
        -11   -1    0    0    0    0  0.00000000000E+00  0.00000000000E+00  0.45593999997E+02  0.45594000000E+02  0.51100000000E-03 0.  1.
         11   -1    0    0    0    0 -0.00000000000E+00 -0.00000000000E+00 -0.45593999997E+02  0.45594000000E+02  0.51100000000E-03 0. -1.
    9900012    2    1    2    0    0 -0.36212767620E+02  0.21837282153E+02 -0.97668765345E+01  0.47787270654E+02  0.19999998221E+02 0.  0.
         12    1    1    2    0    0  0.36212767620E+02 -0.21837282153E+02  0.97668765345E+01  0.43400729346E+02  0.00000000000E+00 0. -1.
         11    1    3    3    0    0 -0.45244773422E+01  0.46552359453E+01  0.35333624251E+01  0.73909923025E+01  0.51100000000E-03 0. -1.
        -11    1    3    3    0    0 -0.16089906152E+02  0.13459056120E+02 -0.26459947357E+01  0.21143144516E+02  0.51100000000E-03 0.  1.
         12    1    3    3    0    0 -0.15598384125E+02  0.37229900877E+01 -0.10654244224E+02  0.19253133836E+02  0.00000000000E+00 0. -1.
</event>
<event>
 7    1  0.2486105E-010  0.4778727E+02  0.7816164E-02  0.1312668E+00
        -11   -1    0    0    0    0  0.00000000000E+00  0.00000000000E+00  0.45593999997E+02  0.45594000000E+02  0.51100000000E-03 0. -1.
         11   -1    0    0    0    0 -0.00000000000E+00 -0.00000000000E+00 -0.45593999997E+02  0.45594000000E+02  0.51100000000E-03 0.  1.
    9900012    2    1    2    0    0  0.29508512467E+02  0.21474034868E+02 -0.23489076838E+02  0.47787271755E+02  0.20000003238E+02 0.  0.
         12    1    1    2    0    0 -0.29508512467E+02 -0.21474034868E+02  0.23489076838E+02  0.43400728245E+02  0.00000000000E+00 0. -1.
         11    1    3    3    0    0  0.24957244178E+01 -0.10086991554E+01  0.49033034221E+00  0.27361539543E+01  0.51100000000E-03 0. -1.
        -11    1    3    3    0    0  0.14421425905E+02  0.99815511985E+01 -0.33761962318E+01  0.17860783598E+02  0.51100000000E-03 0.  1.
        -12    1    3    3    0    0  0.12591362143E+02  0.12501182825E+02 -0.20603210949E+02  0.27190334203E+02  0.00000000000E+00 0.  1.
</event>
<event>
 7    1  0.2486105E-010  0.4778727E+02  0.7816164E-02  0.1312668E+00
        -11   -1    0    0    0    0  0.00000000000E+00  0.00000000000E+00  0.45593999997E+02  0.45594000000E+02  0.51100000000E-03 0.  1.
         11   -1    0    0    0    0 -0.00000000000E+00 -0.00000000000E+00 -0.45593999997E+02  0.45594000000E+02  0.51100000000E-03 0. -1.
    9900012    2    1    2    0    0  0.29474207804E+02  0.26501392673E+02  0.17679664421E+02  0.47787271051E+02  0.20000000030E+02 0.  0.
         12    1    1    2    0    0 -0.29474207804E+02 -0.26501392673E+02 -0.17679664421E+02  0.43400728949E+02  0.00000000000E+00 0. -1.
         11    1    3    3    0    0  0.11563617963E+02  0.22275331837E+01  0.14448370143E+01  0.11864515108E+02  0.51100000000E-03 0. -1.
        -11    1    3    3    0    0  0.10099495833E+01  0.24943030864E+01  0.58941870133E+01  0.64794279729E+01  0.51100000000E-03 0.  1.
        -12    1    3    3    0    0  0.16900640257E+02  0.21779556403E+02  0.10340640393E+02  0.29443327970E+02  0.00000000000E+00 0.  1.
</event>
<event>
 7    1  0.2486105E-010  0.4778730E+02  0.7816164E-02  0.1312668E+00
        -11   -1    0    0    0    0  0.00000000000E+00  0.00000000000E+00  0.45593999997E+02  0.45594000000E+02  0.51100000000E-03 0.  1.
         11   -1    0    0    0    0 -0.00000000000E+00 -0.00000000000E+00 -0.45593999997E+02  0.45594000000E+02  0.51100000000E-03 0. -1.
    9900012    2    1    2    0    0  0.23165083933E+02  0.33796623275E+02 -0.14310414335E+02  0.47787299351E+02  0.20000129059E+02 0.  0.
         12    1    1    2    0    0 -0.23165083933E+02 -0.33796623275E+02  0.14310414335E+02  0.43400700649E+02  0.00000000000E+00 0. -1.
         11    1    3    3    0    0  0.90764627852E+01  0.13874286880E+02 -0.79279195135E+01  0.18377429668E+02  0.51100000000E-03 0. -1.
        -11    1    3    3    0    0  0.10883909428E+02  0.11516664166E+02 -0.11008212865E+02  0.19294397858E+02  0.51100000000E-03 0.  1.
         12    1    3    3    0    0  0.32047117191E+01  0.84056722285E+01  0.46257180434E+01  0.10115471825E+02  0.00000000000E+00 0. -1.
</event>
<event>
 7    1  0.2486105E-010  0.4778727E+02  0.7816164E-02  0.1312668E+00
        -11   -1    0    0    0    0  0.00000000000E+00  0.00000000000E+00  0.45593999997E+02  0.45594000000E+02  0.51100000000E-03 0.  1.
         11   -1    0    0    0    0 -0.00000000000E+00 -0.00000000000E+00 -0.45593999997E+02  0.45594000000E+02  0.51100000000E-03 0. -1.
    9900012    2    1    2    0    0 -0.12050180783E+02 -0.20539939081E+01  0.41643697532E+02  0.47787270836E+02  0.19999999048E+02 0.  0.
         12    1    1    2    0    0  0.12050180783E+02  0.20539939081E+01 -0.41643697532E+02  0.43400729164E+02  0.00000000000E+00 0. -1.
         11    1    3    3    0    0  0.34529131796E+00 -0.13177084642E+01 -0.10291871012E+00  0.13660798707E+01  0.51100000000E-03 0. -1.
        -11    1    3    3    0    0 -0.94875680109E+01  0.69533380031E+01  0.20431334461E+02  0.23575459365E+02  0.51100000000E-03 0.  1.
        -12    1    3    3    0    0 -0.29079040902E+01 -0.76896234469E+01  0.21315281780E+02  0.22845731600E+02  0.00000000000E+00 0.  1.
</event>
<event>
 7    1  0.2486105E-010  0.4778727E+02  0.7816164E-02  0.1312668E+00
        -11   -1    0    0    0    0  0.00000000000E+00  0.00000000000E+00  0.45593999997E+02  0.45594000000E+02  0.51100000000E-03 0.  1.
         11   -1    0    0    0    0 -0.00000000000E+00 -0.00000000000E+00 -0.45593999997E+02  0.45594000000E+02  0.51100000000E-03 0. -1.
    9900012    2    1    2    0    0 -0.21929418926E+02 -0.37303570215E+02  0.33417763737E+01  0.47787271498E+02  0.20000002067E+02 0.  0.
         12    1    1    2    0    0  0.21929418926E+02  0.37303570215E+02 -0.33417763737E+01  0.43400728502E+02  0.00000000000E+00 0. -1.
         11    1    3    3    0    0 -0.45841448754E+01 -0.75619308219E+01 -0.21699233394E-02  0.88429173333E+01  0.51100000000E-03 0. -1.
        -11    1    3    3    0    0 -0.12955179628E+02 -0.29998701399E+02  0.67689863836E+01  0.33370315278E+02  0.51100000000E-03 0.  1.
         12    1    3    3    0    0 -0.43900944223E+01  0.25706200655E+00 -0.34250400866E+01  0.55740388864E+01  0.00000000000E+00 0. -1.
</event>
<event>
 7    1  0.2486105E-010  0.4778727E+02  0.7816164E-02  0.1312668E+00
        -11   -1    0    0    0    0  0.00000000000E+00  0.00000000000E+00  0.45593999997E+02  0.45594000000E+02  0.51100000000E-03 0.  1.
         11   -1    0    0    0    0 -0.00000000000E+00 -0.00000000000E+00 -0.45593999997E+02  0.45594000000E+02  0.51100000000E-03 0. -1.
    9900012    2    1    2    0    0  0.33582545755E+01 -0.29925806252E+02  0.31253664093E+02  0.47787271056E+02  0.20000000052E+02 0.  0.
         12    1    1    2    0    0 -0.33582545755E+01  0.29925806252E+02 -0.31253664093E+02  0.43400728944E+02  0.00000000000E+00 0. -1.
         11    1    3    3    0    0  0.10978774869E+01 -0.87963334327E+01  0.20805557111E+01  0.91054669931E+01  0.51100000000E-03 0. -1.
        -11    1    3    3    0    0 -0.17254423302E+01 -0.10864987010E+02  0.49301283506E+01  0.12055341545E+02  0.51100000000E-03 0.  1.
         12    1    3    3    0    0  0.39858194189E+01 -0.10264485810E+02  0.24242980032E+02  0.26626462517E+02  0.00000000000E+00 0. -1.
</event>
<event>
 7    1  0.2486105E-010  0.4778727E+02  0.7816164E-02  0.1312668E+00
        -11   -1    0    0    0    0  0.00000000000E+00  0.00000000000E+00  0.45593999997E+02  0.45594000000E+02  0.51100000000E-03 0. -1.
         11   -1    0    0    0    0 -0.00000000000E+00 -0.00000000000E+00 -0.45593999997E+02  0.45594000000E+02  0.51100000000E-03 0.  1.
    9900012    2    1    2    0    0  0.25627883319E+02 -0.84023975680E+01 -0.34003449030E+02  0.47787271501E+02  0.20000002081E+02 0.  0.
         12    1    1    2    0    0 -0.25627883319E+02  0.84023975680E+01  0.34003449030E+02  0.43400728499E+02  0.00000000000E+00 0. -1.
         11    1    3    3    0    0  0.12730353122E+02 -0.20641191228E+01 -0.21100526821E+02  0.24729632240E+02  0.51100000000E-03 0.  1.
        -11    1    3    3    0    0  0.13145630859E+00 -0.18445148933E+01 -0.86879571304E+01  0.88825736875E+01  0.51100000000E-03 0. -1.
         12    1    3    3    0    0  0.12766073889E+02 -0.44937635519E+01 -0.42149650792E+01  0.14175065573E+02  0.00000000000E+00 0. -1.
</event>
<event>
 7    1  0.2486105E-010  0.4778727E+02  0.7816164E-02  0.1312668E+00
        -11   -1    0    0    0    0  0.00000000000E+00  0.00000000000E+00  0.45593999997E+02  0.45594000000E+02  0.51100000000E-03 0.  1.
         11   -1    0    0    0    0 -0.00000000000E+00 -0.00000000000E+00 -0.45593999997E+02  0.45594000000E+02  0.51100000000E-03 0. -1.
    9900012    2    1    2    0    0  0.20307354169E+02  0.37634517007E+02  0.74079553379E+01  0.47787270674E+02  0.19999998312E+02 0.  0.
         12    1    1    2    0    0 -0.20307354169E+02 -0.37634517007E+02 -0.74079553379E+01  0.43400729326E+02  0.00000000000E+00 0. -1.
         11    1    3    3    0    0  0.10271714022E+01  0.57050083334E+00  0.12769599399E+01  0.17352749752E+01  0.51100000000E-03 0. -1.
        -11    1    3    3    0    0  0.90062925762E+01  0.28923492158E+02  0.10764707456E+02  0.32149037800E+02  0.51100000000E-03 0.  1.
        -12    1    3    3    0    0  0.10273890191E+02  0.81405240156E+01 -0.46337120581E+01  0.13902957899E+02  0.00000000000E+00 0.  1.
</event>
<event>
 7    1  0.2486105E-010  0.4778727E+02  0.7816164E-02  0.1312668E+00
        -11   -1    0    0    0    0  0.00000000000E+00  0.00000000000E+00  0.45593999997E+02  0.45594000000E+02  0.51100000000E-03 0.  1.
         11   -1    0    0    0    0 -0.00000000000E+00 -0.00000000000E+00 -0.45593999997E+02  0.45594000000E+02  0.51100000000E-03 0. -1.
    9900012    2    1    2    0    0  0.41322991426E+02 -0.80835464032E+01  0.10520927274E+02  0.47787271278E+02  0.20000001066E+02 0.  0.
         12    1    1    2    0    0 -0.41322991426E+02  0.80835464032E+01 -0.10520927274E+02  0.43400728722E+02  0.00000000000E+00 0. -1.
         11    1    3    3    0    0  0.60944236098E+00 -0.20863946690E+01  0.15744043736E+01  0.26838800456E+01  0.51100000000E-03 0. -1.
        -11    1    3    3    0    0  0.31959297474E+02 -0.80929596588E+01  0.82324050775E+00  0.32978332527E+02  0.51100000000E-03 0.  1.
         12    1    3    3    0    0  0.87542515919E+01  0.20958079246E+01  0.81232823927E+01  0.12125058706E+02  0.00000000000E+00 0. -1.
</event>
<event>
 7    1  0.2486105E-010  0.4778728E+02  0.7816164E-02  0.1312668E+00
        -11   -1    0    0    0    0  0.00000000000E+00  0.00000000000E+00  0.45593999997E+02  0.45594000000E+02  0.51100000000E-03 0.  1.
         11   -1    0    0    0    0 -0.00000000000E+00 -0.00000000000E+00 -0.45593999997E+02  0.45594000000E+02  0.51100000000E-03 0. -1.
    9900012    2    1    2    0    0 -0.22900621069E+02 -0.29447826549E+00  0.36865938295E+02  0.47787279163E+02  0.20000037015E+02 0.  0.
         12    1    1    2    0    0  0.22900621069E+02  0.29447826549E+00 -0.36865938295E+02  0.43400720837E+02  0.00000000000E+00 0. -1.
         11    1    3    3    0    0 -0.32074481396E+01 -0.10216943797E+01  0.14329178695E+02  0.14719271222E+02  0.51100000000E-03 0. -1.
        -11    1    3    3    0    0 -0.14920331641E+01 -0.30783443709E+01 -0.50626568085E+00  0.34581313205E+01  0.51100000000E-03 0.  1.
        -12    1    3    3    0    0 -0.18201139765E+02  0.38055604851E+01  0.23043025281E+02  0.29609876620E+02  0.00000000000E+00 0.  1.
</event>
<event>
 7    1  0.2486105E-010  0.4778727E+02  0.7816164E-02  0.1312668E+00
        -11   -1    0    0    0    0  0.00000000000E+00  0.00000000000E+00  0.45593999997E+02  0.45594000000E+02  0.51100000000E-03 0.  1.
         11   -1    0    0    0    0 -0.00000000000E+00 -0.00000000000E+00 -0.45593999997E+02  0.45594000000E+02  0.51100000000E-03 0. -1.
    9900012    2    1    2    0    0 -0.38524624590E+02 -0.28930338683E+01  0.19776436247E+02  0.47787265267E+02  0.19999973657E+02 0.  0.
         12    1    1    2    0    0  0.38524624590E+02  0.28930338683E+01 -0.19776436247E+02  0.43400734733E+02  0.00000000000E+00 0. -1.
         11    1    3    3    0    0 -0.29437372123E+01  0.56357570106E+01  0.29146478200E+01  0.69944633843E+01  0.51100000000E-03 0. -1.
        -11    1    3    3    0    0 -0.34827708145E+01 -0.10655289212E+01 -0.26856751673E+00  0.36520094743E+01  0.51100000000E-03 0.  1.
         12    1    3    3    0    0 -0.32098116563E+02 -0.74632619577E+01  0.17130355943E+02  0.37140792408E+02  0.00000000000E+00 0. -1.
</event>
<event>
 7    1  0.2842135E-010  0.4778727E+02  0.7816164E-02  0.1312668E+00
        -11   -1    0    0    0    0  0.00000000000E+00  0.00000000000E+00  0.45593999997E+02  0.45594000000E+02  0.51100000000E-03 0. -1.
         11   -1    0    0    0    0 -0.00000000000E+00 -0.00000000000E+00 -0.45593999997E+02  0.45594000000E+02  0.51100000000E-03 0.  1.
    9900012    2    1    2    0    0 -0.37188808511E+02  0.52533907302E+01 -0.21748966741E+02  0.47787272507E+02  0.20000006668E+02 0.  0.
         12    1    1    2    0    0  0.37188808511E+02 -0.52533907302E+01  0.21748966741E+02  0.43400727493E+02  0.00000000000E+00 0. -1.
         11    1    3    3    0    0 -0.29588971348E+01 -0.13682165525E+01  0.52782939700E+00  0.33023768596E+01  0.51100000000E-03 0. -1.
        -11    1    3    3    0    0 -0.12897150849E+02 -0.22875250255E+00 -0.17220274918E+02  0.21515731367E+02  0.51100000000E-03 0.  1.
        -12    1    3    3    0    0 -0.21332760527E+02  0.68503597853E+01 -0.50565212195E+01  0.22969164280E+02  0.00000000000E+00 0.  1.
</event>
<event>
 7    1  0.2486105E-010  0.4778727E+02  0.7816164E-02  0.1312668E+00
        -11   -1    0    0    0    0  0.00000000000E+00  0.00000000000E+00  0.45593999997E+02  0.45594000000E+02  0.51100000000E-03 0. -1.
         11   -1    0    0    0    0 -0.00000000000E+00 -0.00000000000E+00 -0.45593999997E+02  0.45594000000E+02  0.51100000000E-03 0.  1.
    9900012    2    1    2    0    0 -0.29720620009E+02  0.10991287658E+02 -0.29656362532E+02  0.47787268476E+02  0.19999988292E+02 0.  0.
         12    1    1    2    0    0  0.29720620009E+02 -0.10991287658E+02  0.29656362532E+02  0.43400731524E+02  0.00000000000E+00 0. -1.
         11    1    3    3    0    0 -0.58812977549E+01  0.33584909188E+01 -0.18177211443E+01  0.70123630079E+01  0.51100000000E-03 0. -1.
        -11    1    3    3    0    0 -0.18440523648E+02  0.12135710948E+02 -0.24543576756E+02  0.33010839929E+02  0.51100000000E-03 0.  1.
        -12    1    3    3    0    0 -0.53987986066E+01 -0.45029142088E+01 -0.32950646326E+01  0.77640655394E+01  0.00000000000E+00 0.  1.
</event>
<event>
 7    1  0.2486105E-010  0.4778727E+02  0.7816164E-02  0.1312668E+00
        -11   -1    0    0    0    0  0.00000000000E+00  0.00000000000E+00  0.45593999997E+02  0.45594000000E+02  0.51100000000E-03 0. -1.
         11   -1    0    0    0    0 -0.00000000000E+00 -0.00000000000E+00 -0.45593999997E+02  0.45594000000E+02  0.51100000000E-03 0.  1.
    9900012    2    1    2    0    0  0.30251722379E+02 -0.24377232190E+02  0.19344431970E+02  0.47787271845E+02  0.20000003651E+02 0.  0.
         12    1    1    2    0    0 -0.30251722379E+02  0.24377232190E+02 -0.19344431970E+02  0.43400728155E+02  0.00000000000E+00 0. -1.
         11    1    3    3    0    0  0.21236489551E+01 -0.59478342865E+01 -0.15526191533E+01  0.65036331447E+01  0.51100000000E-03 0.  1.
        -11    1    3    3    0    0  0.15127585532E+01  0.15455341765E+01  0.23222639269E+01  0.31733301653E+01  0.51100000000E-03 0. -1.
        -12    1    3    3    0    0  0.26615314870E+02 -0.19974932080E+02  0.18574787196E+02  0.38110308535E+02  0.00000000000E+00 0.  1.
</event>
<event>
 7    1  0.2486105E-010  0.4778727E+02  0.7816164E-02  0.1312668E+00
        -11   -1    0    0    0    0  0.00000000000E+00  0.00000000000E+00  0.45593999997E+02  0.45594000000E+02  0.51100000000E-03 0. -1.
         11   -1    0    0    0    0 -0.00000000000E+00 -0.00000000000E+00 -0.45593999997E+02  0.45594000000E+02  0.51100000000E-03 0.  1.
    9900012    2    1    2    0    0  0.27409091285E+01  0.23025520548E+02 -0.36687003090E+02  0.47787269878E+02  0.19999994683E+02 0.  0.
         12    1    1    2    0    0 -0.27409091285E+01 -0.23025520548E+02  0.36687003090E+02  0.43400730122E+02  0.00000000000E+00 0. -1.
         11    1    3    3    0    0  0.22305359585E+01  0.72809716375E+01 -0.10866740410E+02  0.13269283554E+02  0.51100000000E-03 0.  1.
        -11    1    3    3    0    0 -0.16276960787E+01  0.16770138721E+02 -0.27033507462E+02  0.31854316398E+02  0.51100000000E-03 0. -1.
         12    1    3    3    0    0  0.21380692487E+01 -0.10255898104E+01  0.12132447817E+01  0.26636699254E+01  0.00000000000E+00 0. -1.
</event>
<event>
 7    1  0.2486105E-010  0.4778726E+02  0.7816164E-02  0.1312668E+00
        -11   -1    0    0    0    0  0.00000000000E+00  0.00000000000E+00  0.45593999997E+02  0.45594000000E+02  0.51100000000E-03 0. -1.
         11   -1    0    0    0    0 -0.00000000000E+00 -0.00000000000E+00 -0.45593999997E+02  0.45594000000E+02  0.51100000000E-03 0.  1.
    9900012    2    1    2    0    0  0.98763344109E+01 -0.12306749664E+02 -0.40430507207E+02  0.47787262890E+02  0.19999962821E+02 0.  0.
         12    1    1    2    0    0 -0.98763344109E+01  0.12306749664E+02  0.40430507207E+02  0.43400737110E+02  0.00000000000E+00 0. -1.
         11    1    3    3    0    0  0.20998016645E+01 -0.52555313074E+01 -0.19632947614E+02  0.20432386269E+02  0.51100000000E-03 0. -1.
        -11    1    3    3    0    0  0.52180356092E+01 -0.86524810456E+01 -0.21918382355E+02  0.24135219269E+02  0.51100000000E-03 0.  1.
         12    1    3    3    0    0  0.25584971372E+01  0.16012626894E+01  0.11208227620E+01  0.32196573522E+01  0.00000000000E+00 0. -1.
</event>
<event>
 7    1  0.2486105E-010  0.4778727E+02  0.7816164E-02  0.1312668E+00
        -11   -1    0    0    0    0  0.00000000000E+00  0.00000000000E+00  0.45593999997E+02  0.45594000000E+02  0.51100000000E-03 0. -1.
         11   -1    0    0    0    0 -0.00000000000E+00 -0.00000000000E+00 -0.45593999997E+02  0.45594000000E+02  0.51100000000E-03 0.  1.
    9900012    2    1    2    0    0  0.99466991803E+01 -0.42184382838E+02  0.22725586352E+01  0.47787268408E+02  0.19999987979E+02 0.  0.
         12    1    1    2    0    0 -0.99466991803E+01  0.42184382838E+02 -0.22725586352E+01  0.43400731592E+02  0.00000000000E+00 0. -1.
         11    1    3    3    0    0 -0.16513000047E+01 -0.45258890003E+01  0.42843070362E+01  0.64471505326E+01  0.51100000000E-03 0. -1.
        -11    1    3    3    0    0 -0.27467195642E-01 -0.20407458555E+02 -0.22904853834E+01  0.20535614007E+02  0.51100000000E-03 0.  1.
         12    1    3    3    0    0  0.11625466381E+02 -0.17251035283E+02  0.27873698250E+00  0.20804503868E+02  0.00000000000E+00 0. -1.
</event>
<event>
 7    1  0.2486105E-010  0.4778727E+02  0.7816164E-02  0.1312668E+00
        -11   -1    0    0    0    0  0.00000000000E+00  0.00000000000E+00  0.45593999997E+02  0.45594000000E+02  0.51100000000E-03 0.  1.
         11   -1    0    0    0    0 -0.00000000000E+00 -0.00000000000E+00 -0.45593999997E+02  0.45594000000E+02  0.51100000000E-03 0. -1.
    9900012    2    1    2    0    0  0.22949309447E+02  0.30566475013E+02  0.20558295413E+02  0.47787266030E+02  0.19999977139E+02 0.  0.
         12    1    1    2    0    0 -0.22949309447E+02 -0.30566475013E+02 -0.20558295413E+02  0.43400733970E+02  0.00000000000E+00 0. -1.
         11    1    3    3    0    0  0.69274952289E+01  0.14756323893E+02  0.13978901967E+01  0.16361338034E+02  0.51100000000E-03 0. -1.
        -11    1    3    3    0    0  0.16283954905E+02  0.16902186976E+02  0.16964083102E+02  0.28959130299E+02  0.51100000000E-03 0.  1.
         12    1    3    3    0    0 -0.26214068675E+00 -0.10920358566E+01  0.21963221144E+01  0.24667976978E+01  0.00000000000E+00 0. -1.
</event>
<event>
 7    1  0.2486105E-010  0.4778727E+02  0.7816164E-02  0.1312668E+00
        -11   -1    0    0    0    0  0.00000000000E+00  0.00000000000E+00  0.45593999997E+02  0.45594000000E+02  0.51100000000E-03 0.  1.
         11   -1    0    0    0    0 -0.00000000000E+00 -0.00000000000E+00 -0.45593999997E+02  0.45594000000E+02  0.51100000000E-03 0. -1.
    9900012    2    1    2    0    0  0.15034760369E+02  0.10513713779E+02  0.39332441095E+02  0.47787272826E+02  0.20000008121E+02 0.  0.
         12    1    1    2    0    0 -0.15034760369E+02 -0.10513713779E+02 -0.39332441095E+02  0.43400727174E+02  0.00000000000E+00 0. -1.
         11    1    3    3    0    0  0.41563527044E+01  0.70305227578E+01  0.29741952700E+01  0.86919132426E+01  0.51100000000E-03 0. -1.
        -11    1    3    3    0    0  0.14032214176E+01  0.25206986528E+01  0.21828195070E+01  0.36176861813E+01  0.51100000000E-03 0.  1.
        -12    1    3    3    0    0  0.94751862466E+01  0.96249236822E+00  0.34175426318E+02  0.35477673402E+02  0.00000000000E+00 0.  1.
</event>
<event>
 7    1  0.2486105E-010  0.4778727E+02  0.7816164E-02  0.1312668E+00
        -11   -1    0    0    0    0  0.00000000000E+00  0.00000000000E+00  0.45593999997E+02  0.45594000000E+02  0.51100000000E-03 0. -1.
         11   -1    0    0    0    0 -0.00000000000E+00 -0.00000000000E+00 -0.45593999997E+02  0.45594000000E+02  0.51100000000E-03 0.  1.
    9900012    2    1    2    0    0  0.18471249831E+02  0.23109127562E+01 -0.39205812524E+02  0.47787272774E+02  0.20000007886E+02 0.  0.
         12    1    1    2    0    0 -0.18471249831E+02 -0.23109127562E+01  0.39205812524E+02  0.43400727226E+02  0.00000000000E+00 0. -1.
         11    1    3    3    0    0  0.58936228258E+01  0.52432199601E+01 -0.38453580899E+01  0.87757008075E+01  0.51100000000E-03 0. -1.
        -11    1    3    3    0    0  0.10105771195E+02 -0.29672807108E+01 -0.14056361633E+02  0.17564528712E+02  0.51100000000E-03 0.  1.
        -12    1    3    3    0    0  0.24718558106E+01  0.34973506977E-01 -0.21304092800E+02  0.21447043254E+02  0.00000000000E+00 0.  1.
</event>
<event>
 7    1  0.2486105E-010  0.4778727E+02  0.7816164E-02  0.1312668E+00
        -11   -1    0    0    0    0  0.00000000000E+00  0.00000000000E+00  0.45593999997E+02  0.45594000000E+02  0.51100000000E-03 0.  1.
         11   -1    0    0    0    0 -0.00000000000E+00 -0.00000000000E+00 -0.45593999997E+02  0.45594000000E+02  0.51100000000E-03 0. -1.
    9900012    2    1    2    0    0  0.26310254451E+02  0.27227197973E+01  0.34409020719E+02  0.47787269600E+02  0.19999993416E+02 0.  0.
         12    1    1    2    0    0 -0.26310254451E+02 -0.27227197973E+01 -0.34409020719E+02  0.43400730400E+02  0.00000000000E+00 0. -1.
         11    1    3    3    0    0 -0.45739044050E+00 -0.12917490292E+01 -0.47814900951E-01  0.13711703379E+01  0.51100000000E-03 0. -1.
        -11    1    3    3    0    0  0.24210952447E+02 -0.11181804082E+01  0.22126806854E+02  0.32817923877E+02  0.51100000000E-03 0.  1.
        -12    1    3    3    0    0  0.25566924444E+01  0.51326492347E+01  0.12330028767E+02  0.13598175385E+02  0.00000000000E+00 0.  1.
</event>
<event>
 7    1  0.2486105E-010  0.4778727E+02  0.7816164E-02  0.1312668E+00
        -11   -1    0    0    0    0  0.00000000000E+00  0.00000000000E+00  0.45593999997E+02  0.45594000000E+02  0.51100000000E-03 0.  1.
         11   -1    0    0    0    0 -0.00000000000E+00 -0.00000000000E+00 -0.45593999997E+02  0.45594000000E+02  0.51100000000E-03 0. -1.
    9900012    2    1    2    0    0 -0.27975341104E+02  0.17843331957E+02  0.27975331814E+02  0.47787269646E+02  0.19999993623E+02 0.  0.
         12    1    1    2    0    0  0.27975341104E+02 -0.17843331957E+02 -0.27975331814E+02  0.43400730354E+02  0.00000000000E+00 0. -1.
         11    1    3    3    0    0 -0.77318783091E+01  0.93190823034E+00  0.12297139357E+01  0.78843257011E+01  0.51100000000E-03 0. -1.
        -11    1    3    3    0    0 -0.14758307164E+02  0.45711452276E+01  0.10057330418E+02  0.18435099523E+02  0.51100000000E-03 0.  1.
        -12    1    3    3    0    0 -0.54851556301E+01  0.12340278499E+02  0.16688287461E+02  0.21467844421E+02  0.00000000000E+00 0.  1.
</event>
<event>
 7    1  0.2486105E-010  0.4778727E+02  0.7816164E-02  0.1312668E+00
        -11   -1    0    0    0    0  0.00000000000E+00  0.00000000000E+00  0.45593999997E+02  0.45594000000E+02  0.51100000000E-03 0.  1.
         11   -1    0    0    0    0 -0.00000000000E+00 -0.00000000000E+00 -0.45593999997E+02  0.45594000000E+02  0.51100000000E-03 0. -1.
    9900012    2    1    2    0    0  0.81458821545E+01  0.69132825172E+01  0.42065120064E+02  0.47787271928E+02  0.20000004027E+02 0.  0.
         12    1    1    2    0    0 -0.81458821545E+01 -0.69132825172E+01 -0.42065120064E+02  0.43400728072E+02  0.00000000000E+00 0. -1.
         11    1    3    3    0    0  0.56403906734E+01 -0.20520177375E+01  0.34086807948E+01  0.69024552708E+01  0.51100000000E-03 0. -1.
        -11    1    3    3    0    0  0.28415271223E+01 -0.45004549195E-01  0.19576205735E+02  0.19781408772E+02  0.51100000000E-03 0.  1.
         12    1    3    3    0    0 -0.33603564119E+00  0.90103048039E+01  0.19080233534E+02  0.21103407884E+02  0.00000000000E+00 0. -1.
</event>
<event>
 7    1  0.2486105E-010  0.4778727E+02  0.7816164E-02  0.1312668E+00
        -11   -1    0    0    0    0  0.00000000000E+00  0.00000000000E+00  0.45593999997E+02  0.45594000000E+02  0.51100000000E-03 0. -1.
         11   -1    0    0    0    0 -0.00000000000E+00 -0.00000000000E+00 -0.45593999997E+02  0.45594000000E+02  0.51100000000E-03 0.  1.
    9900012    2    1    2    0    0 -0.14030446965E+02  0.25780263034E+02 -0.31971045775E+02  0.47787272218E+02  0.20000005349E+02 0.  0.
         12    1    1    2    0    0  0.14030446965E+02 -0.25780263034E+02  0.31971045775E+02  0.43400727782E+02  0.00000000000E+00 0. -1.
         11    1    3    3    0    0 -0.23746048876E+01  0.35558797139E+01 -0.69423492457E+00  0.43318577197E+01  0.51100000000E-03 0. -1.
        -11    1    3    3    0    0 -0.99498424274E+00  0.11549131563E+02 -0.39606844714E+01  0.12249875724E+02  0.51100000000E-03 0.  1.
         12    1    3    3    0    0 -0.10660857834E+02  0.10675251756E+02 -0.27316126379E+02  0.31205538774E+02  0.00000000000E+00 0. -1.
</event>
<event>
 7    1  0.2486105E-010  0.4778727E+02  0.7816164E-02  0.1312668E+00
        -11   -1    0    0    0    0  0.00000000000E+00  0.00000000000E+00  0.45593999997E+02  0.45594000000E+02  0.51100000000E-03 0.  1.
         11   -1    0    0    0    0 -0.00000000000E+00 -0.00000000000E+00 -0.45593999997E+02  0.45594000000E+02  0.51100000000E-03 0. -1.
    9900012    2    1    2    0    0  0.49911217424E+01  0.23041556321E+01  0.43051169153E+02  0.47787267347E+02  0.19999983141E+02 0.  0.
         12    1    1    2    0    0 -0.49911217424E+01 -0.23041556321E+01 -0.43051169153E+02  0.43400732653E+02  0.00000000000E+00 0. -1.
         11    1    3    3    0    0 -0.68960382559E-01  0.68961795006E+01  0.95121492063E+01  0.11749171461E+02  0.51100000000E-03 0. -1.
        -11    1    3    3    0    0 -0.30623104503E+01 -0.88728785152E+00  0.36601484194E+01  0.48540407639E+01  0.51100000000E-03 0.  1.
        -12    1    3    3    0    0  0.81223925752E+01 -0.37047360170E+01  0.29878871527E+02  0.31184055122E+02  0.00000000000E+00 0.  1.
</event>
<event>
 7    1  0.2486105E-010  0.4778727E+02  0.7816164E-02  0.1312668E+00
        -11   -1    0    0    0    0  0.00000000000E+00  0.00000000000E+00  0.45593999997E+02  0.45594000000E+02  0.51100000000E-03 0.  1.
         11   -1    0    0    0    0 -0.00000000000E+00 -0.00000000000E+00 -0.45593999997E+02  0.45594000000E+02  0.51100000000E-03 0. -1.
    9900012    2    1    2    0    0 -0.43291630720E+02  0.30731575725E+01  0.11565504589E+00  0.47787274615E+02  0.20000016278E+02 0.  0.
         12    1    1    2    0    0  0.43291630720E+02 -0.30731575725E+01 -0.11565504589E+00  0.43400725385E+02  0.00000000000E+00 0. -1.
         11    1    3    3    0    0 -0.17815058361E+02 -0.55786880380E+01 -0.14630522099E+01  0.18725346103E+02  0.51100000000E-03 0. -1.
        -11    1    3    3    0    0 -0.20829582092E+01 -0.13624774854E+01  0.25936568390E+01  0.35947344630E+01  0.51100000000E-03 0.  1.
        -12    1    3    3    0    0 -0.23393614150E+02  0.10014323096E+02 -0.10149495832E+01  0.25467194049E+02  0.00000000000E+00 0.  1.
</event>
<event>
 7    1  0.2486105E-010  0.4778727E+02  0.7816164E-02  0.1312668E+00
        -11   -1    0    0    0    0  0.00000000000E+00  0.00000000000E+00  0.45593999997E+02  0.45594000000E+02  0.51100000000E-03 0.  1.
         11   -1    0    0    0    0 -0.00000000000E+00 -0.00000000000E+00 -0.45593999997E+02  0.45594000000E+02  0.51100000000E-03 0. -1.
    9900012    2    1    2    0    0  0.18738450763E+02  0.37486161147E+02  0.11281917126E+02  0.47787268802E+02  0.19999989775E+02 0.  0.
         12    1    1    2    0    0 -0.18738450763E+02 -0.37486161147E+02 -0.11281917126E+02  0.43400731198E+02  0.00000000000E+00 0. -1.
         11    1    3    3    0    0  0.12371769755E+02  0.27621403930E+02  0.43564363726E+01  0.30577461963E+02  0.51100000000E-03 0.  1.
        -11    1    3    3    0    0 -0.15777926828E+01  0.45013417605E+01 -0.87749710585E+00  0.48498978161E+01  0.51100000000E-03 0. -1.
        -12    1    3    3    0    0  0.79444736912E+01  0.53634154556E+01  0.78029778595E+01  0.12359909023E+02  0.00000000000E+00 0.  1.
</event>
<event>
 7    1  0.2486105E-010  0.4778728E+02  0.7816164E-02  0.1312668E+00
        -11   -1    0    0    0    0  0.00000000000E+00  0.00000000000E+00  0.45593999997E+02  0.45594000000E+02  0.51100000000E-03 0. -1.
         11   -1    0    0    0    0 -0.00000000000E+00 -0.00000000000E+00 -0.45593999997E+02  0.45594000000E+02  0.51100000000E-03 0.  1.
    9900012    2    1    2    0    0 -0.40438499999E+02 -0.13331960399E+02  0.84029245803E+01  0.47787278903E+02  0.20000035832E+02 0.  0.
         12    1    1    2    0    0  0.40438499999E+02  0.13331960399E+02 -0.84029245803E+01  0.43400721097E+02  0.00000000000E+00 0. -1.
         11    1    3    3    0    0 -0.12561869899E+02 -0.15871549280E+01 -0.70302769016E+00  0.12681241434E+02  0.51100000000E-03 0. -1.
        -11    1    3    3    0    0 -0.28480296724E+02 -0.13641655875E+02  0.96890525451E+01  0.33031800072E+02  0.51100000000E-03 0.  1.
         12    1    3    3    0    0  0.60366662447E+00  0.18968504040E+01 -0.58310027468E+00  0.20742373970E+01  0.00000000000E+00 0. -1.
</event>
<event>
 7    1  0.2486105E-010  0.4778727E+02  0.7816164E-02  0.1312668E+00
        -11   -1    0    0    0    0  0.00000000000E+00  0.00000000000E+00  0.45593999997E+02  0.45594000000E+02  0.51100000000E-03 0.  1.
         11   -1    0    0    0    0 -0.00000000000E+00 -0.00000000000E+00 -0.45593999997E+02  0.45594000000E+02  0.51100000000E-03 0. -1.
    9900012    2    1    2    0    0  0.40731768199E+02  0.72634637848E+00  0.14967262482E+02  0.47787268833E+02  0.19999989917E+02 0.  0.
         12    1    1    2    0    0 -0.40731768199E+02 -0.72634637848E+00 -0.14967262482E+02  0.43400731167E+02  0.00000000000E+00 0. -1.
         11    1    3    3    0    0  0.23760400898E+02 -0.70811131720E+01  0.41688635677E+01  0.25141166208E+02  0.51100000000E-03 0.  1.
        -11    1    3    3    0    0  0.42949395818E+00 -0.91328645036E+00 -0.79700536174E-01  0.10123782085E+01  0.51100000000E-03 0. -1.
        -12    1    3    3    0    0  0.16541873343E+02  0.87207460009E+01  0.10878099450E+02  0.21633724417E+02  0.00000000000E+00 0.  1.
</event>
<event>
 7    1  0.2486105E-010  0.4778728E+02  0.7816164E-02  0.1312668E+00
        -11   -1    0    0    0    0  0.00000000000E+00  0.00000000000E+00  0.45593999997E+02  0.45594000000E+02  0.51100000000E-03 0. -1.
         11   -1    0    0    0    0 -0.00000000000E+00 -0.00000000000E+00 -0.45593999997E+02  0.45594000000E+02  0.51100000000E-03 0.  1.
    9900012    2    1    2    0    0  0.96903822002E+01 -0.67068609979E+01 -0.41770049075E+02  0.47787280059E+02  0.20000041102E+02 0.  0.
         12    1    1    2    0    0 -0.96903822002E+01  0.67068609979E+01  0.41770049075E+02  0.43400719941E+02  0.00000000000E+00 0. -1.
         11    1    3    3    0    0  0.65436108107E+00  0.25416423250E+01 -0.36037491588E+01  0.44581545951E+01  0.51100000000E-03 0. -1.
        -11    1    3    3    0    0  0.34487281150E+01  0.39347641707E+01 -0.16903163210E+02  0.17694434760E+02  0.51100000000E-03 0.  1.
        -12    1    3    3    0    0  0.55872930042E+01 -0.13183267494E+02 -0.21263136706E+02  0.25634690705E+02  0.00000000000E+00 0.  1.
</event>
<event>
 7    1  0.3159797E-010  0.4778728E+02  0.7816164E-02  0.1312668E+00
        -11   -1    0    0    0    0  0.00000000000E+00  0.00000000000E+00  0.45593999997E+02  0.45594000000E+02  0.51100000000E-03 0.  1.
         11   -1    0    0    0    0 -0.00000000000E+00 -0.00000000000E+00 -0.45593999997E+02  0.45594000000E+02  0.51100000000E-03 0. -1.
    9900012    2    1    2    0    0  0.34497818605E+02  0.23670295176E+02  0.11542984790E+02  0.47787275812E+02  0.20000021737E+02 0.  0.
         12    1    1    2    0    0 -0.34497818605E+02 -0.23670295176E+02 -0.11542984790E+02  0.43400724188E+02  0.00000000000E+00 0. -1.
         11    1    3    3    0    0 -0.26480558704E+00 -0.10004350275E+01 -0.87269088178E+00  0.13537288796E+01  0.51100000000E-03 0. -1.
        -11    1    3    3    0    0  0.18896435396E+02  0.12278234204E+02 -0.45322168290E+00  0.22539647646E+02  0.51100000000E-03 0.  1.
        -12    1    3    3    0    0  0.15866188796E+02  0.12392495999E+02  0.12868897355E+02  0.23893899287E+02  0.00000000000E+00 0.  1.
</event>
<event>
 7    1  0.2486105E-010  0.4778727E+02  0.7816164E-02  0.1312668E+00
        -11   -1    0    0    0    0  0.00000000000E+00  0.00000000000E+00  0.45593999997E+02  0.45594000000E+02  0.51100000000E-03 0.  1.
         11   -1    0    0    0    0 -0.00000000000E+00 -0.00000000000E+00 -0.45593999997E+02  0.45594000000E+02  0.51100000000E-03 0. -1.
    9900012    2    1    2    0    0 -0.29610672345E+02  0.29064499772E+02 -0.12731309531E+02  0.47787270674E+02  0.19999998309E+02 0.  0.
         12    1    1    2    0    0  0.29610672345E+02 -0.29064499772E+02  0.12731309531E+02  0.43400729326E+02  0.00000000000E+00 0. -1.
         11    1    3    3    0    0 -0.52604342667E+01  0.12695132787E+02 -0.12292167592E+02  0.18437352020E+02  0.51100000000E-03 0. -1.
        -11    1    3    3    0    0 -0.68992991696E+01  0.48563290154E+01  0.62747911592E-01  0.84373098853E+01  0.51100000000E-03 0.  1.
         12    1    3    3    0    0 -0.17450938909E+02  0.11513037969E+02 -0.50188985062E+00  0.20912608768E+02  0.00000000000E+00 0. -1.
</event>
<event>
 7    1  0.2486105E-010  0.4778726E+02  0.7816164E-02  0.1312668E+00
        -11   -1    0    0    0    0  0.00000000000E+00  0.00000000000E+00  0.45593999997E+02  0.45594000000E+02  0.51100000000E-03 0. -1.
         11   -1    0    0    0    0 -0.00000000000E+00 -0.00000000000E+00 -0.45593999997E+02  0.45594000000E+02  0.51100000000E-03 0.  1.
    9900012    2    1    2    0    0  0.33979816623E+02 -0.29179864690E+01 -0.26841785612E+02  0.47787262245E+02  0.19999959882E+02 0.  0.
         12    1    1    2    0    0 -0.33979816623E+02  0.29179864690E+01  0.26841785612E+02  0.43400737755E+02  0.00000000000E+00 0. -1.
         11    1    3    3    0    0  0.12801144797E+02  0.41254817788E+01 -0.96341921847E+01  0.16544079525E+02  0.51100000000E-03 0. -1.
        -11    1    3    3    0    0  0.16601644896E+02  0.70012305804E+00 -0.13884893864E+02  0.21653984932E+02  0.51100000000E-03 0.  1.
        -12    1    3    3    0    0  0.45770269298E+01 -0.77435913059E+01 -0.33226995635E+01  0.95891977880E+01  0.00000000000E+00 0.  1.
</event>
<event>
 7    1  0.2486105E-010  0.4778728E+02  0.7816164E-02  0.1312668E+00
        -11   -1    0    0    0    0  0.00000000000E+00  0.00000000000E+00  0.45593999997E+02  0.45594000000E+02  0.51100000000E-03 0. -1.
         11   -1    0    0    0    0 -0.00000000000E+00 -0.00000000000E+00 -0.45593999997E+02  0.45594000000E+02  0.51100000000E-03 0.  1.
    9900012    2    1    2    0    0 -0.38589418252E+02 -0.91958768092E+01 -0.17604409992E+02  0.47787278779E+02  0.20000035266E+02 0.  0.
         12    1    1    2    0    0  0.38589418252E+02  0.91958768092E+01  0.17604409992E+02  0.43400721221E+02  0.00000000000E+00 0. -1.
         11    1    3    3    0    0 -0.16391214175E+02  0.14785159875E+01 -0.30454456890E+01  0.16737163779E+02  0.51100000000E-03 0. -1.
        -11    1    3    3    0    0 -0.20241722191E+02 -0.89474449848E+01 -0.72485607970E+01  0.23287887902E+02  0.51100000000E-03 0.  1.
         12    1    3    3    0    0 -0.19564818856E+01 -0.17269478118E+01 -0.73104035057E+01  0.77622270985E+01  0.00000000000E+00 0. -1.
</event>
<event>
 7    1  0.2486105E-010  0.4778727E+02  0.7816164E-02  0.1312668E+00
        -11   -1    0    0    0    0  0.00000000000E+00  0.00000000000E+00  0.45593999997E+02  0.45594000000E+02  0.51100000000E-03 0. -1.
         11   -1    0    0    0    0 -0.00000000000E+00 -0.00000000000E+00 -0.45593999997E+02  0.45594000000E+02  0.51100000000E-03 0.  1.
    9900012    2    1    2    0    0 -0.27617072844E+01  0.42767494553E+02 -0.68511061968E+01  0.47787271048E+02  0.20000000015E+02 0.  0.
         12    1    1    2    0    0  0.27617072844E+01 -0.42767494553E+02  0.68511061968E+01  0.43400728952E+02  0.00000000000E+00 0. -1.
         11    1    3    3    0    0 -0.41206040866E+01  0.38777686059E+01  0.14462905769E+01  0.58402246612E+01  0.51100000000E-03 0. -1.
        -11    1    3    3    0    0 -0.48589414223E+01  0.14520620236E+02 -0.67960307241E+01  0.16752425426E+02  0.51100000000E-03 0.  1.
        -12    1    3    3    0    0  0.62178382244E+01  0.24369105711E+02 -0.15013660497E+01  0.25194620961E+02  0.00000000000E+00 0.  1.
</event>
<event>
 7    1  0.2486105E-010  0.4778727E+02  0.7816164E-02  0.1312668E+00
        -11   -1    0    0    0    0  0.00000000000E+00  0.00000000000E+00  0.45593999997E+02  0.45594000000E+02  0.51100000000E-03 0. -1.
         11   -1    0    0    0    0 -0.00000000000E+00 -0.00000000000E+00 -0.45593999997E+02  0.45594000000E+02  0.51100000000E-03 0.  1.
    9900012    2    1    2    0    0 -0.24117493369E+02  0.27331182946E+02 -0.23557937465E+02  0.47787268840E+02  0.19999989948E+02 0.  0.
         12    1    1    2    0    0  0.24117493369E+02 -0.27331182946E+02  0.23557937465E+02  0.43400731160E+02  0.00000000000E+00 0. -1.
         11    1    3    3    0    0 -0.20828501479E+02  0.19657084931E+02 -0.11699280362E+02  0.30937042895E+02  0.51100000000E-03 0.  1.
        -11    1    3    3    0    0 -0.48072164811E+01  0.78019455553E+00 -0.41582799556E+01  0.64038524570E+01  0.51100000000E-03 0. -1.
        -12    1    3    3    0    0  0.15182245914E+01  0.68939034595E+01 -0.77003771478E+01  0.10446373487E+02  0.00000000000E+00 0.  1.
</event>
<event>
 7    1  0.2486105E-010  0.4778727E+02  0.7816164E-02  0.1312668E+00
        -11   -1    0    0    0    0  0.00000000000E+00  0.00000000000E+00  0.45593999997E+02  0.45594000000E+02  0.51100000000E-03 0.  1.
         11   -1    0    0    0    0 -0.00000000000E+00 -0.00000000000E+00 -0.45593999997E+02  0.45594000000E+02  0.51100000000E-03 0. -1.
    9900012    2    1    2    0    0  0.21952975090E+02 -0.19187308733E+02  0.32148677898E+02  0.47787269334E+02  0.19999992201E+02 0.  0.
         12    1    1    2    0    0 -0.21952975090E+02  0.19187308733E+02 -0.32148677898E+02  0.43400730666E+02  0.00000000000E+00 0. -1.
         11    1    3    3    0    0  0.10566708449E+02 -0.25925548211E+01  0.61681382935E+01  0.12506902023E+02  0.51100000000E-03 0.  1.
        -11    1    3    3    0    0 -0.13376598740E+01  0.12543415528E+01  0.30450977178E+01  0.35546205201E+01  0.51100000000E-03 0. -1.
        -12    1    3    3    0    0  0.12723926515E+02 -0.17849095465E+02  0.22935441887E+02  0.31725746791E+02  0.00000000000E+00 0.  1.
</event>
<event>
 7    1  0.2486105E-010  0.4778727E+02  0.7816164E-02  0.1312668E+00
        -11   -1    0    0    0    0  0.00000000000E+00  0.00000000000E+00  0.45593999997E+02  0.45594000000E+02  0.51100000000E-03 0.  1.
         11   -1    0    0    0    0 -0.00000000000E+00 -0.00000000000E+00 -0.45593999997E+02  0.45594000000E+02  0.51100000000E-03 0. -1.
    9900012    2    1    2    0    0  0.36827517069E+02 -0.89516743384E+01  0.21147687870E+02  0.47787272021E+02  0.20000004451E+02 0.  0.
         12    1    1    2    0    0 -0.36827517069E+02  0.89516743384E+01 -0.21147687870E+02  0.43400727979E+02  0.00000000000E+00 0. -1.
         11    1    3    3    0    0  0.53341527101E+01 -0.42681648461E+01  0.65457574380E+01  0.94613612650E+01  0.51100000000E-03 0. -1.
        -11    1    3    3    0    0  0.19627543723E+02 -0.98833472801E+01  0.12249462208E+02  0.25158902017E+02  0.51100000000E-03 0.  1.
         12    1    3    3    0    0  0.11865820635E+02  0.51998377878E+01  0.23524682235E+01  0.13167008738E+02  0.00000000000E+00 0. -1.
</event>
<event>
 7    1  0.2486105E-010  0.4778728E+02  0.7816164E-02  0.1312668E+00
        -11   -1    0    0    0    0  0.00000000000E+00  0.00000000000E+00  0.45593999997E+02  0.45594000000E+02  0.51100000000E-03 0. -1.
         11   -1    0    0    0    0 -0.00000000000E+00 -0.00000000000E+00 -0.45593999997E+02  0.45594000000E+02  0.51100000000E-03 0.  1.
    9900012    2    1    2    0    0 -0.30383689313E+02  0.19135301852E+02 -0.24378152181E+02  0.47787278151E+02  0.20000032402E+02 0.  0.
         12    1    1    2    0    0  0.30383689313E+02 -0.19135301852E+02  0.24378152181E+02  0.43400721849E+02  0.00000000000E+00 0. -1.
         11    1    3    3    0    0 -0.14952236360E+02  0.96832924219E+01 -0.96339338659E+01  0.20252116094E+02  0.51100000000E-03 0. -1.
        -11    1    3    3    0    0 -0.15203014250E+02  0.18497200389E+01 -0.11974860213E+02  0.19440946065E+02  0.51100000000E-03 0.  1.
         12    1    3    3    0    0 -0.22843870313E+00  0.76022893917E+01 -0.27693581019E+01  0.80942159925E+01  0.00000000000E+00 0. -1.
</event>
<event>
 7    1  0.2486105E-010  0.4778727E+02  0.7816164E-02  0.1312668E+00
        -11   -1    0    0    0    0  0.00000000000E+00  0.00000000000E+00  0.45593999997E+02  0.45594000000E+02  0.51100000000E-03 0. -1.
         11   -1    0    0    0    0 -0.00000000000E+00 -0.00000000000E+00 -0.45593999997E+02  0.45594000000E+02  0.51100000000E-03 0.  1.
    9900012    2    1    2    0    0 -0.22898337672E+02  0.30135420925E+02 -0.21240194408E+02  0.47787270502E+02  0.19999997526E+02 0.  0.
         12    1    1    2    0    0  0.22898337672E+02 -0.30135420925E+02  0.21240194408E+02  0.43400729498E+02  0.00000000000E+00 0. -1.
         11    1    3    3    0    0 -0.47117796177E+01  0.74906877867E+01 -0.98079521220E+01  0.13210117175E+02  0.51100000000E-03 0. -1.
        -11    1    3    3    0    0 -0.20941527401E+01  0.39181460166E+01 -0.86572022203E+01  0.97305957911E+01  0.51100000000E-03 0.  1.
        -12    1    3    3    0    0 -0.16092405314E+02  0.18726587122E+02 -0.27750400660E+01  0.24846557536E+02  0.00000000000E+00 0.  1.
</event>
<event>
 7    1  0.2486105E-010  0.4778727E+02  0.7816164E-02  0.1312668E+00
        -11   -1    0    0    0    0  0.00000000000E+00  0.00000000000E+00  0.45593999997E+02  0.45594000000E+02  0.51100000000E-03 0. -1.
         11   -1    0    0    0    0 -0.00000000000E+00 -0.00000000000E+00 -0.45593999997E+02  0.45594000000E+02  0.51100000000E-03 0.  1.
    9900012    2    1    2    0    0  0.30360466811E+02  0.16155326643E+02 -0.26473965252E+02  0.47787270051E+02  0.19999995472E+02 0.  0.
         12    1    1    2    0    0 -0.30360466811E+02 -0.16155326643E+02  0.26473965252E+02  0.43400729949E+02  0.00000000000E+00 0. -1.
         11    1    3    3    0    0  0.16606543691E+02  0.80051937695E+01 -0.71896092107E+01  0.19787645173E+02  0.51100000000E-03 0. -1.
        -11    1    3    3    0    0  0.29660536545E+01  0.34981699302E+01  0.87287729825E+00  0.46686809894E+01  0.51100000000E-03 0.  1.
        -12    1    3    3    0    0  0.10787869466E+02  0.46519629434E+01 -0.20157233340E+02  0.23330943889E+02  0.00000000000E+00 0.  1.
</event>
<event>
 7    1  0.2486105E-010  0.4778727E+02  0.7816164E-02  0.1312668E+00
        -11   -1    0    0    0    0  0.00000000000E+00  0.00000000000E+00  0.45593999997E+02  0.45594000000E+02  0.51100000000E-03 0.  1.
         11   -1    0    0    0    0 -0.00000000000E+00 -0.00000000000E+00 -0.45593999997E+02  0.45594000000E+02  0.51100000000E-03 0. -1.
    9900012    2    1    2    0    0  0.11584316726E+02  0.20819681825E+02  0.36276276720E+02  0.47787265006E+02  0.19999972471E+02 0.  0.
         12    1    1    2    0    0 -0.11584316726E+02 -0.20819681825E+02 -0.36276276720E+02  0.43400734994E+02  0.00000000000E+00 0. -1.
         11    1    3    3    0    0 -0.32960138684E+01 -0.66142068440E+00  0.47240367488E+01  0.57980779753E+01  0.51100000000E-03 0. -1.
        -11    1    3    3    0    0  0.19669795675E+01  0.66762021366E+01  0.36335342789E+01  0.78513218763E+01  0.51100000000E-03 0.  1.
        -12    1    3    3    0    0  0.12913351027E+02  0.14804900373E+02  0.27918705692E+02  0.34137865155E+02  0.00000000000E+00 0.  1.
</event>
<event>
 7    1  0.2486105E-010  0.4778727E+02  0.7816164E-02  0.1312668E+00
        -11   -1    0    0    0    0  0.00000000000E+00  0.00000000000E+00  0.45593999997E+02  0.45594000000E+02  0.51100000000E-03 0. -1.
         11   -1    0    0    0    0 -0.00000000000E+00 -0.00000000000E+00 -0.45593999997E+02  0.45594000000E+02  0.51100000000E-03 0.  1.
    9900012    2    1    2    0    0  0.99874976086E+01 -0.38705993999E+02 -0.16903241600E+02  0.47787266636E+02  0.19999979900E+02 0.  0.
         12    1    1    2    0    0 -0.99874976086E+01  0.38705993999E+02  0.16903241600E+02  0.43400733364E+02  0.00000000000E+00 0. -1.
         11    1    3    3    0    0  0.12494370273E+01  0.41268136370E-01 -0.83177071782E+00  0.15015454480E+01  0.51100000000E-03 0. -1.
        -11    1    3    3    0    0 -0.43925862598E+01 -0.18365577804E+02 -0.96409385785E+01  0.21202286647E+02  0.51100000000E-03 0.  1.
         12    1    3    3    0    0  0.13130646841E+02 -0.20381684332E+02 -0.64305323037E+01  0.25083434541E+02  0.00000000000E+00 0. -1.
</event>
<event>
 7    1  0.2486105E-010  0.4778727E+02  0.7816164E-02  0.1312668E+00
        -11   -1    0    0    0    0  0.00000000000E+00  0.00000000000E+00  0.45593999997E+02  0.45594000000E+02  0.51100000000E-03 0. -1.
         11   -1    0    0    0    0 -0.00000000000E+00 -0.00000000000E+00 -0.45593999997E+02  0.45594000000E+02  0.51100000000E-03 0.  1.
    9900012    2    1    2    0    0 -0.16215949935E+01  0.42826290727E+02  0.68485460633E+01  0.47787270387E+02  0.19999997003E+02 0.  0.
         12    1    1    2    0    0  0.16215949935E+01 -0.42826290727E+02 -0.68485460633E+01  0.43400729613E+02  0.00000000000E+00 0. -1.
         11    1    3    3    0    0  0.27724477401E+01  0.49530174045E+01 -0.19990855962E+01  0.60179058952E+01  0.51100000000E-03 0. -1.
        -11    1    3    3    0    0  0.21115254663E+01  0.19004078493E+02  0.10370338159E+02  0.21752182718E+02  0.51100000000E-03 0.  1.
         12    1    3    3    0    0 -0.65055681999E+01  0.18869194829E+02 -0.15227064999E+01  0.20017181774E+02  0.00000000000E+00 0. -1.
</event>
<event>
 7    1  0.2486105E-010  0.4778727E+02  0.7816164E-02  0.1312668E+00
        -11   -1    0    0    0    0  0.00000000000E+00  0.00000000000E+00  0.45593999997E+02  0.45594000000E+02  0.51100000000E-03 0.  1.
         11   -1    0    0    0    0 -0.00000000000E+00 -0.00000000000E+00 -0.45593999997E+02  0.45594000000E+02  0.51100000000E-03 0. -1.
    9900012    2    1    2    0    0 -0.23716825621E+02  0.18656802956E+02  0.31193895937E+02  0.47787271229E+02  0.20000000843E+02 0.  0.
         12    1    1    2    0    0  0.23716825621E+02 -0.18656802956E+02 -0.31193895937E+02  0.43400728771E+02  0.00000000000E+00 0. -1.
         11    1    3    3    0    0 -0.62791085916E+01  0.65549560659E+01  0.21723622883E+02  0.23543798444E+02  0.51100000000E-03 0. -1.
        -11    1    3    3    0    0 -0.17513873562E+01 -0.70460991527E+00 -0.12257533249E-02  0.18878121114E+01  0.51100000000E-03 0.  1.
        -12    1    3    3    0    0 -0.15686329673E+02  0.12806456806E+02  0.94714988075E+01  0.22355660674E+02  0.00000000000E+00 0.  1.
</event>
<event>
 7    1  0.2486105E-010  0.4778727E+02  0.7816164E-02  0.1312668E+00
        -11   -1    0    0    0    0  0.00000000000E+00  0.00000000000E+00  0.45593999997E+02  0.45594000000E+02  0.51100000000E-03 0. -1.
         11   -1    0    0    0    0 -0.00000000000E+00 -0.00000000000E+00 -0.45593999997E+02  0.45594000000E+02  0.51100000000E-03 0.  1.
    9900012    2    1    2    0    0  0.13752529128E+02 -0.26575683149E+02 -0.31436034645E+02  0.47787271130E+02  0.20000000389E+02 0.  0.
         12    1    1    2    0    0 -0.13752529128E+02  0.26575683149E+02  0.31436034645E+02  0.43400728870E+02  0.00000000000E+00 0. -1.
         11    1    3    3    0    0  0.86797331516E+00  0.13007285521E+01 -0.19974586093E+01  0.25367525696E+01  0.51100000000E-03 0. -1.
        -11    1    3    3    0    0  0.27681463911E+01 -0.17959664095E+02 -0.87296932966E+01  0.20159854022E+02  0.51100000000E-03 0.  1.
        -12    1    3    3    0    0  0.10116409422E+02 -0.99167476059E+01 -0.20708882739E+02  0.25090664538E+02  0.00000000000E+00 0.  1.
</event>
<event>
 7    1  0.3669145E-010  0.4778727E+02  0.7816164E-02  0.1312668E+00
        -11   -1    0    0    0    0  0.00000000000E+00  0.00000000000E+00  0.45593999997E+02  0.45594000000E+02  0.51100000000E-03 0.  1.
         11   -1    0    0    0    0 -0.00000000000E+00 -0.00000000000E+00 -0.45593999997E+02  0.45594000000E+02  0.51100000000E-03 0. -1.
    9900012    2    1    2    0    0 -0.42527149727E+02  0.32313836144E+01  0.80388730034E+01  0.47787265178E+02  0.19999973251E+02 0.  0.
         12    1    1    2    0    0  0.42527149727E+02 -0.32313836144E+01 -0.80388730034E+01  0.43400734822E+02  0.00000000000E+00 0. -1.
         11    1    3    3    0    0  0.92665255598E+00  0.10801724409E+01  0.61227409590E+00  0.15493021950E+01  0.51100000000E-03 0. -1.
        -11    1    3    3    0    0 -0.89442835186E+01 -0.19488997401E+01 -0.35122157191E+01  0.98047986912E+01  0.51100000000E-03 0.  1.
        -12    1    3    3    0    0 -0.34509518764E+02  0.41001109136E+01  0.10938814627E+02  0.36433164291E+02  0.00000000000E+00 0.  1.
</event>
<event>
 7    1  0.2871195E-010  0.4778728E+02  0.7816164E-02  0.1312668E+00
        -11   -1    0    0    0    0  0.00000000000E+00  0.00000000000E+00  0.45593999997E+02  0.45594000000E+02  0.51100000000E-03 0. -1.
         11   -1    0    0    0    0 -0.00000000000E+00 -0.00000000000E+00 -0.45593999997E+02  0.45594000000E+02  0.51100000000E-03 0.  1.
    9900012    2    1    2    0    0  0.13794151317E+02 -0.36182048731E+02 -0.19601102122E+02  0.47787280360E+02  0.20000042472E+02 0.  0.
         12    1    1    2    0    0 -0.13794151317E+02  0.36182048731E+02  0.19601102122E+02  0.43400719640E+02  0.00000000000E+00 0. -1.
         11    1    3    3    0    0  0.12795607993E+01  0.55709910482E+00  0.15433221272E+01  0.20807399408E+01  0.51100000000E-03 0. -1.
        -11    1    3    3    0    0  0.27269450124E+01 -0.40691419850E+01 -0.75339451791E+01  0.89863494155E+01  0.51100000000E-03 0.  1.
        -12    1    3    3    0    0  0.97876455049E+01 -0.32670005851E+02 -0.13610479070E+02  0.36720191003E+02  0.00000000000E+00 0.  1.
</event>
<event>
 7    1  0.2486105E-010  0.4778727E+02  0.7816164E-02  0.1312668E+00
        -11   -1    0    0    0    0  0.00000000000E+00  0.00000000000E+00  0.45593999997E+02  0.45594000000E+02  0.51100000000E-03 0.  1.
         11   -1    0    0    0    0 -0.00000000000E+00 -0.00000000000E+00 -0.45593999997E+02  0.45594000000E+02  0.51100000000E-03 0. -1.
    9900012    2    1    2    0    0  0.10779364812E+02  0.29947985363E+01  0.41933993759E+02  0.47787270091E+02  0.19999995653E+02 0.  0.
         12    1    1    2    0    0 -0.10779364812E+02 -0.29947985363E+01 -0.41933993759E+02  0.43400729909E+02  0.00000000000E+00 0. -1.
         11    1    3    3    0    0  0.22917524666E+01 -0.61681416749E+00  0.16647574036E+02  0.16815894583E+02  0.51100000000E-03 0. -1.
        -11    1    3    3    0    0  0.49154176667E+00 -0.55508006637E+01  0.61626144883E+01  0.83084787361E+01  0.51100000000E-03 0.  1.
         12    1    3    3    0    0  0.79960705790E+01  0.91624133675E+01  0.19123805235E+02  0.22662896772E+02  0.00000000000E+00 0. -1.
</event>
<event>
 7    1  0.2486105E-010  0.4778728E+02  0.7816164E-02  0.1312668E+00
        -11   -1    0    0    0    0  0.00000000000E+00  0.00000000000E+00  0.45593999997E+02  0.45594000000E+02  0.51100000000E-03 0. -1.
         11   -1    0    0    0    0 -0.00000000000E+00 -0.00000000000E+00 -0.45593999997E+02  0.45594000000E+02  0.51100000000E-03 0.  1.
    9900012    2    1    2    0    0  0.17434887673E+02  0.32156546769E+02 -0.23358168031E+02  0.47787276250E+02  0.20000023734E+02 0.  0.
         12    1    1    2    0    0 -0.17434887673E+02 -0.32156546769E+02  0.23358168031E+02  0.43400723750E+02  0.00000000000E+00 0. -1.
         11    1    3    3    0    0  0.11024140278E+01  0.10227249990E+02 -0.86842497805E+01  0.13462100637E+02  0.51100000000E-03 0.  1.
        -11    1    3    3    0    0  0.25921121961E+01  0.21128330590E+01 -0.89311391655E+01  0.95366847608E+01  0.51100000000E-03 0. -1.
        -12    1    3    3    0    0  0.13740361449E+02  0.19816463720E+02 -0.57427790852E+01  0.24788490852E+02  0.00000000000E+00 0.  1.
</event>
<event>
 7    1  0.2486105E-010  0.4778727E+02  0.7816164E-02  0.1312668E+00
        -11   -1    0    0    0    0  0.00000000000E+00  0.00000000000E+00  0.45593999997E+02  0.45594000000E+02  0.51100000000E-03 0.  1.
         11   -1    0    0    0    0 -0.00000000000E+00 -0.00000000000E+00 -0.45593999997E+02  0.45594000000E+02  0.51100000000E-03 0. -1.
    9900012    2    1    2    0    0  0.38984320485E+02  0.18848264089E+02  0.29306670130E+01  0.47787272909E+02  0.20000008502E+02 0.  0.
         12    1    1    2    0    0 -0.38984320485E+02 -0.18848264089E+02 -0.29306670130E+01  0.43400727091E+02  0.00000000000E+00 0. -1.
         11    1    3    3    0    0  0.66666604242E+01 -0.38188153810E+01  0.27932542929E+01  0.81749606685E+01  0.51100000000E-03 0. -1.
        -11    1    3    3    0    0  0.73243737626E+01  0.38983669418E+01 -0.85165071370E+00  0.83408048188E+01  0.51100000000E-03 0.  1.
         12    1    3    3    0    0  0.24993286298E+02  0.18768712528E+02  0.98906343384E+00  0.31271507422E+02  0.00000000000E+00 0. -1.
</event>
<event>
 7    1  0.2486105E-010  0.4778723E+02  0.7816164E-02  0.1312668E+00
        -11   -1    0    0    0    0  0.00000000000E+00  0.00000000000E+00  0.45593999997E+02  0.45594000000E+02  0.51100000000E-03 0.  1.
         11   -1    0    0    0    0 -0.00000000000E+00 -0.00000000000E+00 -0.45593999997E+02  0.45594000000E+02  0.51100000000E-03 0. -1.
    9900012    2    1    2    0    0  0.16787156679E+02 -0.33537738606E+02  0.21841214379E+02  0.47787225978E+02  0.19999794524E+02 0.  0.
         12    1    1    2    0    0 -0.16787156679E+02  0.33537738606E+02 -0.21841214379E+02  0.43400774022E+02  0.00000000000E+00 0. -1.
         11    1    3    3    0    0  0.29943077463E+01 -0.33750524096E+01  0.96376141581E+01  0.10641450304E+02  0.51100000000E-03 0. -1.
        -11    1    3    3    0    0  0.16281936399E+01  0.68653622842E+00  0.14467011089E+01  0.22837011366E+01  0.51100000000E-03 0.  1.
        -12    1    3    3    0    0  0.12164655292E+02 -0.30849222424E+02  0.10756899112E+02  0.34862074538E+02  0.00000000000E+00 0.  1.
</event>
<event>
 7    1  0.2486105E-010  0.4778726E+02  0.7816164E-02  0.1312668E+00
        -11   -1    0    0    0    0  0.00000000000E+00  0.00000000000E+00  0.45593999997E+02  0.45594000000E+02  0.51100000000E-03 0.  1.
         11   -1    0    0    0    0 -0.00000000000E+00 -0.00000000000E+00 -0.45593999997E+02  0.45594000000E+02  0.51100000000E-03 0. -1.
    9900012    2    1    2    0    0  0.20545346093E+02  0.38215428856E+02 -0.10460190789E+01  0.47787258018E+02  0.19999940607E+02 0.  0.
         12    1    1    2    0    0 -0.20545346093E+02 -0.38215428856E+02  0.10460190789E+01  0.43400741982E+02  0.00000000000E+00 0. -1.
         11    1    3    3    0    0  0.88698145003E+01  0.86263373539E+01  0.37772015513E+01  0.12936558941E+02  0.51100000000E-03 0. -1.
        -11    1    3    3    0    0  0.11725961690E+02  0.12963001896E+02  0.20497592493E+00  0.17480835538E+02  0.51100000000E-03 0.  1.
         12    1    3    3    0    0 -0.50430097787E-01  0.16626089605E+02 -0.50281965552E+01  0.17369863539E+02  0.00000000000E+00 0. -1.
</event>
<event>
 7    1  0.2486105E-010  0.4778727E+02  0.7816164E-02  0.1312668E+00
        -11   -1    0    0    0    0  0.00000000000E+00  0.00000000000E+00  0.45593999997E+02  0.45594000000E+02  0.51100000000E-03 0.  1.
         11   -1    0    0    0    0 -0.00000000000E+00 -0.00000000000E+00 -0.45593999997E+02  0.45594000000E+02  0.51100000000E-03 0. -1.
    9900012    2    1    2    0    0  0.33534625849E+02  0.27294922899E+02 -0.37469072793E+01  0.47787271191E+02  0.20000000670E+02 0.  0.
         12    1    1    2    0    0 -0.33534625849E+02 -0.27294922899E+02  0.37469072793E+01  0.43400728809E+02  0.00000000000E+00 0. -1.
         11    1    3    3    0    0  0.20301088189E+00  0.23371455012E+01 -0.32293416429E+01  0.39915047563E+01  0.51100000000E-03 0. -1.
        -11    1    3    3    0    0  0.12169834715E+02  0.99251686788E+01 -0.67614750495E+01  0.17097701465E+02  0.51100000000E-03 0.  1.
         12    1    3    3    0    0  0.21161780253E+02  0.15032608720E+02  0.62439094131E+01  0.26698064970E+02  0.00000000000E+00 0. -1.
</event>
<event>
 7    1  0.2486105E-010  0.4778727E+02  0.7816164E-02  0.1312668E+00
        -11   -1    0    0    0    0  0.00000000000E+00  0.00000000000E+00  0.45593999997E+02  0.45594000000E+02  0.51100000000E-03 0. -1.
         11   -1    0    0    0    0 -0.00000000000E+00 -0.00000000000E+00 -0.45593999997E+02  0.45594000000E+02  0.51100000000E-03 0.  1.
    9900012    2    1    2    0    0  0.13399753649E+02  0.26268038565E+02 -0.31844308058E+02  0.47787271854E+02  0.20000003690E+02 0.  0.
         12    1    1    2    0    0 -0.13399753649E+02 -0.26268038565E+02  0.31844308058E+02  0.43400728146E+02  0.00000000000E+00 0. -1.
         11    1    3    3    0    0  0.33072705552E+01  0.10067296170E+02 -0.10504207570E+01  0.10648562096E+02  0.51100000000E-03 0. -1.
        -11    1    3    3    0    0  0.12274745320E+01  0.82413145229E+01 -0.16854948111E+02  0.18802000821E+02  0.51100000000E-03 0.  1.
        -12    1    3    3    0    0  0.88650085621E+01  0.79594278725E+01 -0.13938939190E+02  0.18336708936E+02  0.00000000000E+00 0.  1.
</event>
<event>
 7    1  0.2486105E-010  0.4778727E+02  0.7816164E-02  0.1312668E+00
        -11   -1    0    0    0    0  0.00000000000E+00  0.00000000000E+00  0.45593999997E+02  0.45594000000E+02  0.51100000000E-03 0.  1.
         11   -1    0    0    0    0 -0.00000000000E+00 -0.00000000000E+00 -0.45593999997E+02  0.45594000000E+02  0.51100000000E-03 0. -1.
    9900012    2    1    2    0    0 -0.16700091125E+01  0.35242972998E+02  0.25273847132E+02  0.47787269303E+02  0.19999992060E+02 0.  0.
         12    1    1    2    0    0  0.16700091125E+01 -0.35242972998E+02 -0.25273847132E+02  0.43400730697E+02  0.00000000000E+00 0. -1.
         11    1    3    3    0    0 -0.78751947354E+00 -0.13846262259E+01  0.40704512304E+01  0.43710353679E+01  0.51100000000E-03 0. -1.
        -11    1    3    3    0    0 -0.11664581652E+01  0.55070614115E+01  0.75839157082E+01  0.94447936860E+01  0.51100000000E-03 0.  1.
        -12    1    3    3    0    0  0.28396852629E+00  0.31120537813E+02  0.13619480193E+02  0.33971440249E+02  0.00000000000E+00 0.  1.
</event>
<event>
 7    1  0.2486105E-010  0.4778727E+02  0.7816164E-02  0.1312668E+00
        -11   -1    0    0    0    0  0.00000000000E+00  0.00000000000E+00  0.45593999997E+02  0.45594000000E+02  0.51100000000E-03 0.  1.
         11   -1    0    0    0    0 -0.00000000000E+00 -0.00000000000E+00 -0.45593999997E+02  0.45594000000E+02  0.51100000000E-03 0. -1.
    9900012    2    1    2    0    0 -0.36056930944E+02  0.56504687953E+01  0.23486015722E+02  0.47787274186E+02  0.20000014324E+02 0.  0.
         12    1    1    2    0    0  0.36056930944E+02 -0.56504687953E+01 -0.23486015722E+02  0.43400725814E+02  0.00000000000E+00 0. -1.
         11    1    3    3    0    0 -0.25919378428E+01 -0.43188331959E+01  0.25247442778E+01  0.56342520253E+01  0.51100000000E-03 0. -1.
        -11    1    3    3    0    0 -0.68921944118E+01 -0.18175023368E+01  0.66637708842E+01  0.97576380960E+01  0.51100000000E-03 0.  1.
         12    1    3    3    0    0 -0.26572798689E+02  0.11786804328E+02  0.14297500560E+02  0.32395384065E+02  0.00000000000E+00 0. -1.
</event>
<event>
 7    1  0.2486105E-010  0.4778726E+02  0.7816164E-02  0.1312668E+00
        -11   -1    0    0    0    0  0.00000000000E+00  0.00000000000E+00  0.45593999997E+02  0.45594000000E+02  0.51100000000E-03 0. -1.
         11   -1    0    0    0    0 -0.00000000000E+00 -0.00000000000E+00 -0.45593999997E+02  0.45594000000E+02  0.51100000000E-03 0.  1.
    9900012    2    1    2    0    0 -0.13212313556E+02 -0.28417379963E+02 -0.30025182809E+02  0.47787259037E+02  0.19999945251E+02 0.  0.
         12    1    1    2    0    0  0.13212313556E+02  0.28417379963E+02  0.30025182809E+02  0.43400740963E+02  0.00000000000E+00 0. -1.
         11    1    3    3    0    0 -0.53942868891E+01 -0.14183913530E+02 -0.18666455029E+02  0.24056564128E+02  0.51100000000E-03 0.  1.
        -11    1    3    3    0    0 -0.12464666316E+01  0.94329285183E+00  0.19522572241E+01  0.25009576163E+01  0.51100000000E-03 0. -1.
         12    1    3    3    0    0 -0.65715600350E+01 -0.15176759285E+02 -0.13310985004E+02  0.21229737292E+02  0.00000000000E+00 0. -1.
</event>
<event>
 7    1  0.2486105E-010  0.4778727E+02  0.7816164E-02  0.1312668E+00
        -11   -1    0    0    0    0  0.00000000000E+00  0.00000000000E+00  0.45593999997E+02  0.45594000000E+02  0.51100000000E-03 0. -1.
         11   -1    0    0    0    0 -0.00000000000E+00 -0.00000000000E+00 -0.45593999997E+02  0.45594000000E+02  0.51100000000E-03 0.  1.
    9900012    2    1    2    0    0  0.24141355017E+02  0.36056797567E+02  0.85178618211E+00  0.47787271751E+02  0.20000003223E+02 0.  0.
         12    1    1    2    0    0 -0.24141355017E+02 -0.36056797567E+02 -0.85178618211E+00  0.43400728249E+02  0.00000000000E+00 0. -1.
         11    1    3    3    0    0  0.12963857228E+02  0.27738622117E+02  0.44294297518E+01  0.30937236453E+02  0.51100000000E-03 0.  1.
        -11    1    3    3    0    0 -0.10766200195E+00  0.68522999746E+00  0.20087024061E+01  0.21250922036E+01  0.51100000000E-03 0. -1.
        -12    1    3    3    0    0  0.11285159791E+02  0.76329454523E+01 -0.55863459758E+01  0.14724943095E+02  0.00000000000E+00 0.  1.
</event>
<event>
 7    1  0.2486105E-010  0.4778727E+02  0.7816164E-02  0.1312668E+00
        -11   -1    0    0    0    0  0.00000000000E+00  0.00000000000E+00  0.45593999997E+02  0.45594000000E+02  0.51100000000E-03 0. -1.
         11   -1    0    0    0    0 -0.00000000000E+00 -0.00000000000E+00 -0.45593999997E+02  0.45594000000E+02  0.51100000000E-03 0.  1.
    9900012    2    1    2    0    0  0.23840325571E+02  0.81207990464E+01 -0.35345642578E+02  0.47787274778E+02  0.20000017025E+02 0.  0.
         12    1    1    2    0    0 -0.23840325571E+02 -0.81207990464E+01  0.35345642578E+02  0.43400725222E+02  0.00000000000E+00 0. -1.
         11    1    3    3    0    0  0.48729582845E+01  0.66395153333E+00  0.11184254791E+01  0.50435533004E+01  0.51100000000E-03 0. -1.
        -11    1    3    3    0    0 -0.93262667514E+00 -0.22330692639E+00 -0.12930904259E+01  0.16098886947E+01  0.51100000000E-03 0.  1.
        -12    1    3    3    0    0  0.19899993961E+02  0.76801544395E+01 -0.35170977632E+02  0.41133832783E+02  0.00000000000E+00 0.  1.
</event>
<event>
 7    1  0.2486105E-010  0.4778727E+02  0.7816164E-02  0.1312668E+00
        -11   -1    0    0    0    0  0.00000000000E+00  0.00000000000E+00  0.45593999997E+02  0.45594000000E+02  0.51100000000E-03 0.  1.
         11   -1    0    0    0    0 -0.00000000000E+00 -0.00000000000E+00 -0.45593999997E+02  0.45594000000E+02  0.51100000000E-03 0. -1.
    9900012    2    1    2    0    0 -0.32922520342E+02 -0.16973682408E+02  0.22619130862E+02  0.47787270500E+02  0.19999997519E+02 0.  0.
         12    1    1    2    0    0  0.32922520342E+02  0.16973682408E+02 -0.22619130862E+02  0.43400729500E+02  0.00000000000E+00 0. -1.
         11    1    3    3    0    0 -0.14183633639E+02 -0.67439286393E+01  0.12919512925E+02  0.20336416871E+02  0.51100000000E-03 0. -1.
        -11    1    3    3    0    0 -0.20710361343E+02 -0.10818257520E+02  0.99147504307E+01  0.25382199257E+02  0.51100000000E-03 0.  1.
         12    1    3    3    0    0  0.19714746402E+01  0.58850375142E+00 -0.21513249345E+00  0.20686543723E+01  0.00000000000E+00 0. -1.
</event>
<event>
 7    1  0.2486105E-010  0.4778727E+02  0.7816164E-02  0.1312668E+00
        -11   -1    0    0    0    0  0.00000000000E+00  0.00000000000E+00  0.45593999997E+02  0.45594000000E+02  0.51100000000E-03 0.  1.
         11   -1    0    0    0    0 -0.00000000000E+00 -0.00000000000E+00 -0.45593999997E+02  0.45594000000E+02  0.51100000000E-03 0. -1.
    9900012    2    1    2    0    0  0.60448153479E+01  0.19130012072E+02  0.38485398829E+02  0.47787273306E+02  0.20000010313E+02 0.  0.
         12    1    1    2    0    0 -0.60448153479E+01 -0.19130012072E+02 -0.38485398829E+02  0.43400726694E+02  0.00000000000E+00 0. -1.
         11    1    3    3    0    0  0.51184874394E+01  0.91982629409E+01  0.94260025517E+01  0.14129985108E+02  0.51100000000E-03 0.  1.
        -11    1    3    3    0    0 -0.38824444346E+00  0.11752873530E+01 -0.14398300670E+01  0.18987219367E+01  0.51100000000E-03 0. -1.
        -12    1    3    3    0    0  0.13145723520E+01  0.87564617786E+01  0.30499226345E+02  0.31758566261E+02  0.00000000000E+00 0.  1.
</event>
<event>
 7    1  0.2486105E-010  0.4778727E+02  0.7816164E-02  0.1312668E+00
        -11   -1    0    0    0    0  0.00000000000E+00  0.00000000000E+00  0.45593999997E+02  0.45594000000E+02  0.51100000000E-03 0. -1.
         11   -1    0    0    0    0 -0.00000000000E+00 -0.00000000000E+00 -0.45593999997E+02  0.45594000000E+02  0.51100000000E-03 0.  1.
    9900012    2    1    2    0    0 -0.10345354643E+01 -0.35910381689E+02 -0.24351536347E+02  0.47787273057E+02  0.20000009178E+02 0.  0.
         12    1    1    2    0    0  0.10345354643E+01  0.35910381689E+02  0.24351536347E+02  0.43400726943E+02  0.00000000000E+00 0. -1.
         11    1    3    3    0    0  0.35097925283E+01 -0.29161523010E+01 -0.84704945720E+01  0.96214274611E+01  0.51100000000E-03 0. -1.
        -11    1    3    3    0    0 -0.23668994175E+01 -0.51340185662E+01 -0.66661079416E+01  0.87405580394E+01  0.51100000000E-03 0.  1.
        -12    1    3    3    0    0 -0.21774285751E+01 -0.27860210822E+02 -0.92149338335E+01  0.29425287557E+02  0.00000000000E+00 0.  1.
</event>
<event>
 7    1  0.2486105E-010  0.4778727E+02  0.7816164E-02  0.1312668E+00
        -11   -1    0    0    0    0  0.00000000000E+00  0.00000000000E+00  0.45593999997E+02  0.45594000000E+02  0.51100000000E-03 0.  1.
         11   -1    0    0    0    0 -0.00000000000E+00 -0.00000000000E+00 -0.45593999997E+02  0.45594000000E+02  0.51100000000E-03 0. -1.
    9900012    2    1    2    0    0 -0.23974727958E+02  0.33445202821E+02  0.13793279529E+02  0.47787265760E+02  0.19999975906E+02 0.  0.
         12    1    1    2    0    0  0.23974727958E+02 -0.33445202821E+02 -0.13793279529E+02  0.43400734240E+02  0.00000000000E+00 0. -1.
         11    1    3    3    0    0 -0.11335125618E+02  0.15635986979E+02 -0.54213911734E+00  0.19320017512E+02  0.51100000000E-03 0. -1.
        -11    1    3    3    0    0 -0.42240808877E+01  0.12358242214E+02  0.31285600456E+01  0.13429702088E+02  0.51100000000E-03 0.  1.
        -12    1    3    3    0    0 -0.84155214514E+01  0.54509736286E+01  0.11206858601E+02  0.15037546159E+02  0.00000000000E+00 0.  1.
</event>
<event>
 7    1  0.2486105E-010  0.4778727E+02  0.7816164E-02  0.1312668E+00
        -11   -1    0    0    0    0  0.00000000000E+00  0.00000000000E+00  0.45593999997E+02  0.45594000000E+02  0.51100000000E-03 0.  1.
         11   -1    0    0    0    0 -0.00000000000E+00 -0.00000000000E+00 -0.45593999997E+02  0.45594000000E+02  0.51100000000E-03 0. -1.
    9900012    2    1    2    0    0  0.28093682536E+02 -0.25354162276E+02  0.21249342783E+02  0.47787272911E+02  0.20000008511E+02 0.  0.
         12    1    1    2    0    0 -0.28093682536E+02  0.25354162276E+02 -0.21249342783E+02  0.43400727089E+02  0.00000000000E+00 0. -1.
         11    1    3    3    0    0  0.77449545079E+01 -0.46605692528E+01  0.10874002806E+02  0.14140338164E+02  0.51100000000E-03 0. -1.
        -11    1    3    3    0    0  0.49712218977E+01 -0.11190822806E+02  0.95890493192E+01  0.15553052091E+02  0.51100000000E-03 0.  1.
         12    1    3    3    0    0  0.15377506131E+02 -0.95027702171E+01  0.78629065714E+00  0.18093882657E+02  0.00000000000E+00 0. -1.
</event>
<event>
 7    1  0.2486105E-010  0.4778727E+02  0.7816164E-02  0.1312668E+00
        -11   -1    0    0    0    0  0.00000000000E+00  0.00000000000E+00  0.45593999997E+02  0.45594000000E+02  0.51100000000E-03 0.  1.
         11   -1    0    0    0    0 -0.00000000000E+00 -0.00000000000E+00 -0.45593999997E+02  0.45594000000E+02  0.51100000000E-03 0. -1.
    9900012    2    1    2    0    0 -0.19287780083E+02 -0.37443398856E+01  0.38698639894E+02  0.47787271074E+02  0.20000000133E+02 0.  0.
         12    1    1    2    0    0  0.19287780083E+02  0.37443398856E+01 -0.38698639894E+02  0.43400728926E+02  0.00000000000E+00 0. -1.
         11    1    3    3    0    0  0.11893019941E+01  0.12568451446E+01  0.77453680413E-01  0.17320791796E+01  0.51100000000E-03 0.  1.
        -11    1    3    3    0    0  0.14790947141E+01 -0.86326003055E+00  0.78107837669E+01  0.79963293059E+01  0.51100000000E-03 0. -1.
        -12    1    3    3    0    0 -0.21956176791E+02 -0.41379249997E+01  0.30810402446E+02  0.38058862588E+02  0.00000000000E+00 0.  1.
</event>
<event>
 7    1  0.2486105E-010  0.4778727E+02  0.7816164E-02  0.1312668E+00
        -11   -1    0    0    0    0  0.00000000000E+00  0.00000000000E+00  0.45593999997E+02  0.45594000000E+02  0.51100000000E-03 0. -1.
         11   -1    0    0    0    0 -0.00000000000E+00 -0.00000000000E+00 -0.45593999997E+02  0.45594000000E+02  0.51100000000E-03 0.  1.
    9900012    2    1    2    0    0 -0.28568260644E+02 -0.27189741148E+02 -0.18116172934E+02  0.47787271184E+02  0.20000000638E+02 0.  0.
         12    1    1    2    0    0  0.28568260644E+02  0.27189741148E+02  0.18116172934E+02  0.43400728816E+02  0.00000000000E+00 0. -1.
         11    1    3    3    0    0 -0.52028878513E+01 -0.78263956845E+01 -0.26198009610E+01  0.97563245508E+01  0.51100000000E-03 0. -1.
        -11    1    3    3    0    0 -0.13892600599E+02 -0.11260424380E+01 -0.40846354487E+01  0.14524344046E+02  0.51100000000E-03 0.  1.
        -12    1    3    3    0    0 -0.94727721945E+01 -0.18237303026E+02 -0.11411736524E+02  0.23506602587E+02  0.00000000000E+00 0.  1.
</event>
<event>
 7    1  0.2878855E-010  0.4778727E+02  0.7816164E-02  0.1312668E+00
        -11   -1    0    0    0    0  0.00000000000E+00  0.00000000000E+00  0.45593999997E+02  0.45594000000E+02  0.51100000000E-03 0. -1.
         11   -1    0    0    0    0 -0.00000000000E+00 -0.00000000000E+00 -0.45593999997E+02  0.45594000000E+02  0.51100000000E-03 0.  1.
    9900012    2    1    2    0    0  0.73282463760E+01 -0.29051464974E+02 -0.31399562924E+02  0.47787270007E+02  0.19999995271E+02 0.  0.
         12    1    1    2    0    0 -0.73282463760E+01  0.29051464974E+02  0.31399562924E+02  0.43400729993E+02  0.00000000000E+00 0. -1.
         11    1    3    3    0    0  0.34459078368E+01 -0.37452194405E+00 -0.14879361316E+01  0.37720686234E+01  0.51100000000E-03 0. -1.
        -11    1    3    3    0    0 -0.19807639324E+00 -0.13845104667E+01 -0.97227835317E+01  0.98228622792E+01  0.51100000000E-03 0.  1.
        -12    1    3    3    0    0  0.40804149324E+01 -0.27292432563E+02 -0.20188843261E+02  0.34192339105E+02  0.00000000000E+00 0.  1.
</event>
<event>
 7    1  0.2486105E-010  0.4778728E+02  0.7816164E-02  0.1312668E+00
        -11   -1    0    0    0    0  0.00000000000E+00  0.00000000000E+00  0.45593999997E+02  0.45594000000E+02  0.51100000000E-03 0.  1.
         11   -1    0    0    0    0 -0.00000000000E+00 -0.00000000000E+00 -0.45593999997E+02  0.45594000000E+02  0.51100000000E-03 0. -1.
    9900012    2    1    2    0    0 -0.31764015429E+02 -0.29543901464E+02  0.13520745874E+01  0.47787275403E+02  0.20000019871E+02 0.  0.
         12    1    1    2    0    0  0.31764015429E+02  0.29543901464E+02 -0.13520745874E+01  0.43400724597E+02  0.00000000000E+00 0. -1.
         11    1    3    3    0    0 -0.16458191764E+02 -0.19374731576E+02 -0.31257987288E+01  0.25612944340E+02  0.51100000000E-03 0. -1.
        -11    1    3    3    0    0 -0.84142157988E+01 -0.11516965075E+02  0.50453370610E+01  0.15129274218E+02  0.51100000000E-03 0.  1.
         12    1    3    3    0    0 -0.68916078660E+01  0.13477951870E+01 -0.56746374486E+00  0.70450568448E+01  0.00000000000E+00 0. -1.
</event>
<event>
 7    1  0.2486105E-010  0.4778727E+02  0.7816164E-02  0.1312668E+00
        -11   -1    0    0    0    0  0.00000000000E+00  0.00000000000E+00  0.45593999997E+02  0.45594000000E+02  0.51100000000E-03 0.  1.
         11   -1    0    0    0    0 -0.00000000000E+00 -0.00000000000E+00 -0.45593999997E+02  0.45594000000E+02  0.51100000000E-03 0. -1.
    9900012    2    1    2    0    0 -0.61213667044E+01  0.35645402132E+02  0.23990777972E+02  0.47787271306E+02  0.20000001191E+02 0.  0.
         12    1    1    2    0    0  0.61213667044E+01 -0.35645402132E+02 -0.23990777972E+02  0.43400728694E+02  0.00000000000E+00 0. -1.
         11    1    3    3    0    0 -0.11895077283E+01  0.85678741521E+01 -0.17221819990E+01  0.88198246706E+01  0.51100000000E-03 0. -1.
        -11    1    3    3    0    0 -0.59676177928E+01  0.22469334200E+02  0.16167382854E+02  0.28317268762E+02  0.51100000000E-03 0.  1.
         12    1    3    3    0    0  0.10357588167E+01  0.46081937808E+01  0.95455771164E+01  0.10650177873E+02  0.00000000000E+00 0. -1.
</event>
<event>
 7    1  0.2486105E-010  0.4778728E+02  0.7816164E-02  0.1312668E+00
        -11   -1    0    0    0    0  0.00000000000E+00  0.00000000000E+00  0.45593999997E+02  0.45594000000E+02  0.51100000000E-03 0.  1.
         11   -1    0    0    0    0 -0.00000000000E+00 -0.00000000000E+00 -0.45593999997E+02  0.45594000000E+02  0.51100000000E-03 0. -1.
    9900012    2    1    2    0    0 -0.24076898519E+02 -0.35901754146E+02 -0.38716336140E+01  0.47787279500E+02  0.20000038552E+02 0.  0.
         12    1    1    2    0    0  0.24076898519E+02  0.35901754146E+02  0.38716336140E+01  0.43400720500E+02  0.00000000000E+00 0. -1.
         11    1    3    3    0    0 -0.11334211140E+02 -0.18269639617E+02  0.45529033609E+01  0.21976646768E+02  0.51100000000E-03 0. -1.
        -11    1    3    3    0    0 -0.20748861995E+01 -0.12284962688E+02 -0.40366911475E+01  0.13096577288E+02  0.51100000000E-03 0.  1.
         12    1    3    3    0    0 -0.10667801179E+02 -0.53471518414E+01 -0.43878458274E+01  0.12714055444E+02  0.00000000000E+00 0. -1.
</event>
<event>
 7    1  0.2486105E-010  0.4778727E+02  0.7816164E-02  0.1312668E+00
        -11   -1    0    0    0    0  0.00000000000E+00  0.00000000000E+00  0.45593999997E+02  0.45594000000E+02  0.51100000000E-03 0.  1.
         11   -1    0    0    0    0 -0.00000000000E+00 -0.00000000000E+00 -0.45593999997E+02  0.45594000000E+02  0.51100000000E-03 0. -1.
    9900012    2    1    2    0    0 -0.43888729259E+00  0.40725826244E+02 -0.14994595235E+02  0.47787269227E+02  0.19999991715E+02 0.  0.
         12    1    1    2    0    0  0.43888729259E+00 -0.40725826244E+02  0.14994595235E+02  0.43400730773E+02  0.00000000000E+00 0. -1.
         11    1    3    3    0    0  0.89579958030E+00  0.50616025033E+01 -0.41877204635E+01  0.66301794645E+01  0.51100000000E-03 0. -1.
        -11    1    3    3    0    0 -0.93459155562E+01  0.18785159378E+02 -0.47105027147E+01  0.21503887707E+02  0.51100000000E-03 0.  1.
        -12    1    3    3    0    0  0.80112286833E+01  0.16879064363E+02 -0.60963720567E+01  0.19653202056E+02  0.00000000000E+00 0.  1.
</event>
<event>
 7    1  0.2486105E-010  0.4778727E+02  0.7816164E-02  0.1312668E+00
        -11   -1    0    0    0    0  0.00000000000E+00  0.00000000000E+00  0.45593999997E+02  0.45594000000E+02  0.51100000000E-03 0.  1.
         11   -1    0    0    0    0 -0.00000000000E+00 -0.00000000000E+00 -0.45593999997E+02  0.45594000000E+02  0.51100000000E-03 0. -1.
    9900012    2    1    2    0    0 -0.40153035960E+02  0.56625465459E+01  0.15469076120E+02  0.47787273668E+02  0.20000011961E+02 0.  0.
         12    1    1    2    0    0  0.40153035960E+02 -0.56625465459E+01 -0.15469076120E+02  0.43400726332E+02  0.00000000000E+00 0. -1.
         11    1    3    3    0    0 -0.30967532038E+01 -0.29481810617E+01  0.25345985042E+01  0.49704971398E+01  0.51100000000E-03 0. -1.
        -11    1    3    3    0    0 -0.14150907796E+02  0.69290235891E+01  0.12044456289E+02  0.19832510857E+02  0.51100000000E-03 0.  1.
        -12    1    3    3    0    0 -0.22905374960E+02  0.16817040185E+01  0.89002132682E+00  0.22984265671E+02  0.00000000000E+00 0.  1.
</event>
<event>
 7    1  0.2825645E-010  0.4778727E+02  0.7816164E-02  0.1312668E+00
        -11   -1    0    0    0    0  0.00000000000E+00  0.00000000000E+00  0.45593999997E+02  0.45594000000E+02  0.51100000000E-03 0. -1.
         11   -1    0    0    0    0 -0.00000000000E+00 -0.00000000000E+00 -0.45593999997E+02  0.45594000000E+02  0.51100000000E-03 0.  1.
    9900012    2    1    2    0    0 -0.40802861027E+02  0.73732625800E+01 -0.12821253827E+02  0.47787273983E+02  0.20000013400E+02 0.  0.
         12    1    1    2    0    0  0.40802861027E+02 -0.73732625800E+01  0.12821253827E+02  0.43400726017E+02  0.00000000000E+00 0. -1.
         11    1    3    3    0    0 -0.31749332465E+01 -0.30486365053E+01 -0.56797006570E+00  0.44381275238E+01  0.51100000000E-03 0. -1.
        -11    1    3    3    0    0 -0.48832191765E+01  0.56178510298E+01 -0.62378005159E+01  0.97116546096E+01  0.51100000000E-03 0.  1.
        -12    1    3    3    0    0 -0.32744708604E+02  0.48040480555E+01 -0.60154832458E+01  0.33637491850E+02  0.00000000000E+00 0.  1.
</event>
<event>
 7    1  0.2486105E-010  0.4778726E+02  0.7816164E-02  0.1312668E+00
        -11   -1    0    0    0    0  0.00000000000E+00  0.00000000000E+00  0.45593999997E+02  0.45594000000E+02  0.51100000000E-03 0.  1.
         11   -1    0    0    0    0 -0.00000000000E+00 -0.00000000000E+00 -0.45593999997E+02  0.45594000000E+02  0.51100000000E-03 0. -1.
    9900012    2    1    2    0    0  0.44072541789E+01  0.60472614001E+01  0.42750797341E+02  0.47787263449E+02  0.19999965370E+02 0.  0.
         12    1    1    2    0    0 -0.44072541789E+01 -0.60472614001E+01 -0.42750797341E+02  0.43400736551E+02  0.00000000000E+00 0. -1.
         11    1    3    3    0    0  0.61671162302E+01  0.49886695742E+00  0.49683510987E+01  0.79351561887E+01  0.51100000000E-03 0. -1.
        -11    1    3    3    0    0 -0.10442720632E+01 -0.34607305934E+01  0.11920833371E+02  0.12456862723E+02  0.51100000000E-03 0.  1.
        -12    1    3    3    0    0 -0.71558998811E+00  0.90091250360E+01  0.25861612872E+02  0.27395244538E+02  0.00000000000E+00 0.  1.
</event>
<event>
 7    1  0.2486105E-010  0.4778727E+02  0.7816164E-02  0.1312668E+00
        -11   -1    0    0    0    0  0.00000000000E+00  0.00000000000E+00  0.45593999997E+02  0.45594000000E+02  0.51100000000E-03 0. -1.
         11   -1    0    0    0    0 -0.00000000000E+00 -0.00000000000E+00 -0.45593999997E+02  0.45594000000E+02  0.51100000000E-03 0.  1.
    9900012    2    1    2    0    0  0.38958222043E+02  0.13419093131E+02 -0.13631140822E+02  0.47787272756E+02  0.20000007802E+02 0.  0.
         12    1    1    2    0    0 -0.38958222043E+02 -0.13419093131E+02  0.13631140822E+02  0.43400727244E+02  0.00000000000E+00 0. -1.
         11    1    3    3    0    0  0.13294466739E+02  0.30209859459E+00 -0.82869128709E+00  0.13323694643E+02  0.51100000000E-03 0. -1.
        -11    1    3    3    0    0  0.22602908381E+02  0.12237482548E+02 -0.52038169916E+01  0.26224552578E+02  0.51100000000E-03 0.  1.
         12    1    3    3    0    0  0.30608469241E+01  0.87951198753E+00 -0.75986325433E+01  0.82390255345E+01  0.00000000000E+00 0. -1.
</event>
<event>
 7    1  0.2486105E-010  0.4778727E+02  0.7816164E-02  0.1312668E+00
        -11   -1    0    0    0    0  0.00000000000E+00  0.00000000000E+00  0.45593999997E+02  0.45594000000E+02  0.51100000000E-03 0.  1.
         11   -1    0    0    0    0 -0.00000000000E+00 -0.00000000000E+00 -0.45593999997E+02  0.45594000000E+02  0.51100000000E-03 0. -1.
    9900012    2    1    2    0    0 -0.21474861169E+02 -0.30913050842E+02  0.21606411008E+02  0.47787269923E+02  0.19999994886E+02 0.  0.
         12    1    1    2    0    0  0.21474861169E+02  0.30913050842E+02 -0.21606411008E+02  0.43400730077E+02  0.00000000000E+00 0. -1.
         11    1    3    3    0    0 -0.85418878665E+00 -0.12721168331E+01 -0.29182792835E+01  0.32960998100E+01  0.51100000000E-03 0. -1.
        -11    1    3    3    0    0 -0.73795145658E+01 -0.13158428461E+02  0.55259862545E+01  0.16066673555E+02  0.51100000000E-03 0.  1.
         12    1    3    3    0    0 -0.13241157817E+02 -0.16482505548E+02  0.18998704037E+02  0.28424496558E+02  0.00000000000E+00 0. -1.
</event>
<event>
 7    1  0.2486105E-010  0.4778727E+02  0.7816164E-02  0.1312668E+00
        -11   -1    0    0    0    0  0.00000000000E+00  0.00000000000E+00  0.45593999997E+02  0.45594000000E+02  0.51100000000E-03 0. -1.
         11   -1    0    0    0    0 -0.00000000000E+00 -0.00000000000E+00 -0.45593999997E+02  0.45594000000E+02  0.51100000000E-03 0.  1.
    9900012    2    1    2    0    0  0.32370556223E+02  0.28908922434E+02  0.21123523405E+00  0.47787270435E+02  0.19999997219E+02 0.  0.
         12    1    1    2    0    0 -0.32370556223E+02 -0.28908922434E+02 -0.21123523405E+00  0.43400729565E+02  0.00000000000E+00 0. -1.
         11    1    3    3    0    0  0.10333137430E+02  0.85792954584E+01  0.49302074482E+00  0.13439535313E+02  0.51100000000E-03 0. -1.
        -11    1    3    3    0    0  0.78365305736E+01  0.18248573154E+02  0.13323559141E+01  0.19904693068E+02  0.51100000000E-03 0.  1.
         12    1    3    3    0    0  0.14200888219E+02  0.20810538218E+01 -0.16141414249E+01  0.14443042053E+02  0.00000000000E+00 0. -1.
</event>
<event>
 7    1  0.2486105E-010  0.4778727E+02  0.7816164E-02  0.1312668E+00
        -11   -1    0    0    0    0  0.00000000000E+00  0.00000000000E+00  0.45593999997E+02  0.45594000000E+02  0.51100000000E-03 0.  1.
         11   -1    0    0    0    0 -0.00000000000E+00 -0.00000000000E+00 -0.45593999997E+02  0.45594000000E+02  0.51100000000E-03 0. -1.
    9900012    2    1    2    0    0  0.68670037123E+01 -0.32615090474E+02  0.27797906539E+02  0.47787268733E+02  0.19999989459E+02 0.  0.
         12    1    1    2    0    0 -0.68670037123E+01  0.32615090474E+02 -0.27797906539E+02  0.43400731267E+02  0.00000000000E+00 0. -1.
         11    1    3    3    0    0  0.10931650020E+01 -0.10779966099E+02  0.41996102220E+01  0.11620645640E+02  0.51100000000E-03 0. -1.
        -11    1    3    3    0    0  0.10597049258E+02 -0.12852721533E+02  0.11011066142E+02  0.19968311937E+02  0.51100000000E-03 0.  1.
        -12    1    3    3    0    0 -0.48232105474E+01 -0.89824028411E+01  0.12587230175E+02  0.16198311155E+02  0.00000000000E+00 0.  1.
</event>
<event>
 7    1  0.2486105E-010  0.4778727E+02  0.7816164E-02  0.1312668E+00
        -11   -1    0    0    0    0  0.00000000000E+00  0.00000000000E+00  0.45593999997E+02  0.45594000000E+02  0.51100000000E-03 0.  1.
         11   -1    0    0    0    0 -0.00000000000E+00 -0.00000000000E+00 -0.45593999997E+02  0.45594000000E+02  0.51100000000E-03 0. -1.
    9900012    2    1    2    0    0  0.11537261393E+02  0.41772590952E+02  0.23590926819E+01  0.47787273352E+02  0.20000010522E+02 0.  0.
         12    1    1    2    0    0 -0.11537261393E+02 -0.41772590952E+02 -0.23590926819E+01  0.43400726648E+02  0.00000000000E+00 0. -1.
         11    1    3    3    0    0 -0.16094768655E+01  0.18853033029E+02 -0.84327247998E+00  0.18940390147E+02  0.51100000000E-03 0. -1.
        -11    1    3    3    0    0  0.33806532124E+01  0.16572089589E+02  0.31212802837E+01  0.17198993004E+02  0.51100000000E-03 0.  1.
         12    1    3    3    0    0  0.97660850465E+01  0.63474683341E+01  0.81084878245E-01  0.11647890202E+02  0.00000000000E+00 0. -1.
</event>
<event>
 7    1  0.2486105E-010  0.4778727E+02  0.7816164E-02  0.1312668E+00
        -11   -1    0    0    0    0  0.00000000000E+00  0.00000000000E+00  0.45593999997E+02  0.45594000000E+02  0.51100000000E-03 0.  1.
         11   -1    0    0    0    0 -0.00000000000E+00 -0.00000000000E+00 -0.45593999997E+02  0.45594000000E+02  0.51100000000E-03 0. -1.
    9900012    2    1    2    0    0 -0.14101104772E+02  0.23611499241E+02  0.33574979425E+02  0.47787270794E+02  0.19999998859E+02 0.  0.
         12    1    1    2    0    0  0.14101104772E+02 -0.23611499241E+02 -0.33574979425E+02  0.43400729206E+02  0.00000000000E+00 0. -1.
         11    1    3    3    0    0  0.74165401446E+00 -0.25413607452E+01  0.31692072629E+01  0.41294600193E+01  0.51100000000E-03 0. -1.
        -11    1    3    3    0    0 -0.67007369919E+00  0.87217060483E+01  0.10254945413E+02  0.13478911708E+02  0.51100000000E-03 0.  1.
         12    1    3    3    0    0 -0.14172685087E+02  0.17431153937E+02  0.20150826750E+02  0.30178899067E+02  0.00000000000E+00 0. -1.
</event>
<event>
 7    1  0.2486105E-010  0.4778725E+02  0.7816164E-02  0.1312668E+00
        -11   -1    0    0    0    0  0.00000000000E+00  0.00000000000E+00  0.45593999997E+02  0.45594000000E+02  0.51100000000E-03 0.  1.
         11   -1    0    0    0    0 -0.00000000000E+00 -0.00000000000E+00 -0.45593999997E+02  0.45594000000E+02  0.51100000000E-03 0. -1.
    9900012    2    1    2    0    0  0.35792401729E+02 -0.31161390298E+00  0.24544497125E+02  0.47787245814E+02  0.19999884964E+02 0.  0.
         12    1    1    2    0    0 -0.35792401729E+02  0.31161390298E+00 -0.24544497125E+02  0.43400754186E+02  0.00000000000E+00 0. -1.
         11    1    3    3    0    0 -0.95148062062E+00  0.11706669574E+01 -0.16860734738E+00  0.15179608675E+01  0.51100000000E-03 0. -1.
        -11    1    3    3    0    0  0.20082450013E+02  0.43490301531E+01  0.82855989055E+01  0.22155586458E+02  0.51100000000E-03 0.  1.
        -12    1    3    3    0    0  0.16661432337E+02 -0.58313110135E+01  0.16427505567E+02  0.24113698489E+02  0.00000000000E+00 0.  1.
</event>
<event>
 7    1  0.2486105E-010  0.4778727E+02  0.7816164E-02  0.1312668E+00
        -11   -1    0    0    0    0  0.00000000000E+00  0.00000000000E+00  0.45593999997E+02  0.45594000000E+02  0.51100000000E-03 0.  1.
         11   -1    0    0    0    0 -0.00000000000E+00 -0.00000000000E+00 -0.45593999997E+02  0.45594000000E+02  0.51100000000E-03 0. -1.
    9900012    2    1    2    0    0 -0.16910491685E+02  0.58808528826E+01  0.39535729306E+02  0.47787273607E+02  0.20000011686E+02 0.  0.
         12    1    1    2    0    0  0.16910491685E+02 -0.58808528826E+01 -0.39535729306E+02  0.43400726393E+02  0.00000000000E+00 0. -1.
         11    1    3    3    0    0 -0.22078215515E+01 -0.24752593134E+01  0.19461681121E+01  0.38456410718E+01  0.51100000000E-03 0. -1.
        -11    1    3    3    0    0 -0.93197160840E+01  0.78956388118E+01  0.98799119725E+01  0.15710215816E+02  0.51100000000E-03 0.  1.
         12    1    3    3    0    0 -0.53829540494E+01  0.46047338407E+00  0.27709649221E+02  0.28231416720E+02  0.00000000000E+00 0. -1.
</event>
<event>
 7    1  0.2486105E-010  0.4778727E+02  0.7816164E-02  0.1312668E+00
        -11   -1    0    0    0    0  0.00000000000E+00  0.00000000000E+00  0.45593999997E+02  0.45594000000E+02  0.51100000000E-03 0. -1.
         11   -1    0    0    0    0 -0.00000000000E+00 -0.00000000000E+00 -0.45593999997E+02  0.45594000000E+02  0.51100000000E-03 0.  1.
    9900012    2    1    2    0    0  0.12233721984E+02 -0.41204215066E+02 -0.60143492509E+01  0.47787266254E+02  0.19999978157E+02 0.  0.
         12    1    1    2    0    0 -0.12233721984E+02  0.41204215066E+02  0.60143492509E+01  0.43400733746E+02  0.00000000000E+00 0. -1.
         11    1    3    3    0    0  0.67250424306E+01 -0.82334726519E+01 -0.32881713695E+00  0.10635994950E+02  0.51100000000E-03 0. -1.
        -11    1    3    3    0    0  0.50620051300E+01 -0.31228437619E+02 -0.47562058989E+00  0.31639618001E+02  0.51100000000E-03 0.  1.
         12    1    3    3    0    0  0.44667442349E+00 -0.17423047953E+01 -0.52099115241E+01  0.55116533027E+01  0.00000000000E+00 0. -1.
</event>
<event>
 7    1  0.2486105E-010  0.4778725E+02  0.7816164E-02  0.1312668E+00
        -11   -1    0    0    0    0  0.00000000000E+00  0.00000000000E+00  0.45593999997E+02  0.45594000000E+02  0.51100000000E-03 0.  1.
         11   -1    0    0    0    0 -0.00000000000E+00 -0.00000000000E+00 -0.45593999997E+02  0.45594000000E+02  0.51100000000E-03 0. -1.
    9900012    2    1    2    0    0  0.37641182749E+02  0.14405495057E+02  0.16101190712E+02  0.47787248060E+02  0.19999895205E+02 0.  0.
         12    1    1    2    0    0 -0.37641182749E+02 -0.14405495057E+02 -0.16101190712E+02  0.43400751940E+02  0.00000000000E+00 0. -1.
         11    1    3    3    0    0  0.86110572901E+01  0.78522793811E+01 -0.94228098085E+00  0.11691727539E+02  0.51100000000E-03 0. -1.
        -11    1    3    3    0    0  0.13794129784E+02  0.36886760840E+01  0.18664320564E+01  0.14400274880E+02  0.51100000000E-03 0.  1.
        -12    1    3    3    0    0  0.15235995675E+02  0.28645395916E+01  0.15177039637E+02  0.21695245641E+02  0.00000000000E+00 0.  1.
</event>
<event>
 7    1  0.2486105E-010  0.4778727E+02  0.7816164E-02  0.1312668E+00
        -11   -1    0    0    0    0  0.00000000000E+00  0.00000000000E+00  0.45593999997E+02  0.45594000000E+02  0.51100000000E-03 0.  1.
         11   -1    0    0    0    0 -0.00000000000E+00 -0.00000000000E+00 -0.45593999997E+02  0.45594000000E+02  0.51100000000E-03 0. -1.
    9900012    2    1    2    0    0  0.42740477713E+02  0.63257712358E+01  0.41060302494E+01  0.47787270728E+02  0.19999998559E+02 0.  0.
         12    1    1    2    0    0 -0.42740477713E+02 -0.63257712358E+01 -0.41060302494E+01  0.43400729272E+02  0.00000000000E+00 0. -1.
         11    1    3    3    0    0  0.27855674358E+02  0.50745514696E+01  0.10590411448E+02  0.30229893838E+02  0.51100000000E-03 0. -1.
        -11    1    3    3    0    0  0.95532148163E+01  0.32629892838E+01 -0.19656452881E+01  0.10284686386E+02  0.51100000000E-03 0.  1.
         12    1    3    3    0    0  0.53315885394E+01 -0.20117695176E+01 -0.45187359109E+01  0.72726905048E+01  0.00000000000E+00 0. -1.
</event>
<event>
 7    1  0.2486105E-010  0.4778730E+02  0.7816164E-02  0.1312668E+00
        -11   -1    0    0    0    0  0.00000000000E+00  0.00000000000E+00  0.45593999997E+02  0.45594000000E+02  0.51100000000E-03 0. -1.
         11   -1    0    0    0    0 -0.00000000000E+00 -0.00000000000E+00 -0.45593999997E+02  0.45594000000E+02  0.51100000000E-03 0.  1.
    9900012    2    1    2    0    0 -0.41531674591E+02 -0.45765590535E+01 -0.11738652218E+02  0.47787299050E+02  0.20000127687E+02 0.  0.
         12    1    1    2    0    0  0.41531674591E+02  0.45765590535E+01  0.11738652218E+02  0.43400700950E+02  0.00000000000E+00 0. -1.
         11    1    3    3    0    0 -0.53618971672E+01  0.46558247061E+01 -0.65080047311E+01  0.96322775483E+01  0.51100000000E-03 0. -1.
        -11    1    3    3    0    0 -0.19629770889E+01 -0.19431381025E+01 -0.94173938588E+00  0.29182080236E+01  0.51100000000E-03 0.  1.
        -12    1    3    3    0    0 -0.34206800335E+02 -0.72892456571E+01 -0.42889081011E+01  0.35236813478E+02  0.00000000000E+00 0.  1.
</event>
<event>
 7    1  0.2486105E-010  0.4778727E+02  0.7816164E-02  0.1312668E+00
        -11   -1    0    0    0    0  0.00000000000E+00  0.00000000000E+00  0.45593999997E+02  0.45594000000E+02  0.51100000000E-03 0.  1.
         11   -1    0    0    0    0 -0.00000000000E+00 -0.00000000000E+00 -0.45593999997E+02  0.45594000000E+02  0.51100000000E-03 0. -1.
    9900012    2    1    2    0    0  0.85411144843E+01 -0.87169682067E+01  0.41649573740E+02  0.47787272310E+02  0.20000005768E+02 0.  0.
         12    1    1    2    0    0 -0.85411144843E+01  0.87169682067E+01 -0.41649573740E+02  0.43400727690E+02  0.00000000000E+00 0. -1.
         11    1    3    3    0    0  0.50716610524E+01  0.45307295141E+01  0.75887120694E+01  0.10190083753E+02  0.51100000000E-03 0. -1.
        -11    1    3    3    0    0  0.41105194539E+01 -0.26241250655E+01  0.14915280286E+02  0.15692290744E+02  0.51100000000E-03 0.  1.
         12    1    3    3    0    0 -0.64106602199E+00 -0.10623572655E+02  0.19145581385E+02  0.21904897812E+02  0.00000000000E+00 0. -1.
</event>
<event>
 7    1  0.2486105E-010  0.4778728E+02  0.7816164E-02  0.1312668E+00
        -11   -1    0    0    0    0  0.00000000000E+00  0.00000000000E+00  0.45593999997E+02  0.45594000000E+02  0.51100000000E-03 0. -1.
         11   -1    0    0    0    0 -0.00000000000E+00 -0.00000000000E+00 -0.45593999997E+02  0.45594000000E+02  0.51100000000E-03 0.  1.
    9900012    2    1    2    0    0  0.63319514273E+01  0.34348405332E+02 -0.25762690304E+02  0.47787276856E+02  0.20000026498E+02 0.  0.
         12    1    1    2    0    0 -0.63319514273E+01 -0.34348405332E+02  0.25762690304E+02  0.43400723144E+02  0.00000000000E+00 0. -1.
         11    1    3    3    0    0  0.89625893722E-01 -0.43048780440E+00 -0.22436284025E+01  0.22863117067E+01  0.51100000000E-03 0. -1.
        -11    1    3    3    0    0 -0.16587483161E+01  0.29099200051E+02 -0.18825555157E+02  0.34697498711E+02  0.51100000000E-03 0.  1.
        -12    1    3    3    0    0  0.79010738496E+01  0.56796930849E+01 -0.46935067449E+01  0.10803466438E+02  0.00000000000E+00 0.  1.
</event>
<event>
 7    1  0.2486105E-010  0.4778726E+02  0.7816164E-02  0.1312668E+00
        -11   -1    0    0    0    0  0.00000000000E+00  0.00000000000E+00  0.45593999997E+02  0.45594000000E+02  0.51100000000E-03 0. -1.
         11   -1    0    0    0    0 -0.00000000000E+00 -0.00000000000E+00 -0.45593999997E+02  0.45594000000E+02  0.51100000000E-03 0.  1.
    9900012    2    1    2    0    0  0.23350295179E+02 -0.30340089417E+02  0.20441788181E+02  0.47787262508E+02  0.19999961081E+02 0.  0.
         12    1    1    2    0    0 -0.23350295179E+02  0.30340089417E+02 -0.20441788181E+02  0.43400737492E+02  0.00000000000E+00 0. -1.
         11    1    3    3    0    0  0.86599992108E+01 -0.90866983833E+01  0.13965351989E+02  0.18777505966E+02  0.51100000000E-03 0. -1.
        -11    1    3    3    0    0  0.61432781538E+01 -0.16614718571E+02  0.74898701718E+01  0.19232443816E+02  0.51100000000E-03 0.  1.
         12    1    3    3    0    0  0.85470178143E+01 -0.46386724627E+01 -0.10134339802E+01  0.97773127272E+01  0.00000000000E+00 0. -1.
</event>
<event>
 7    1  0.2486105E-010  0.4778727E+02  0.7816164E-02  0.1312668E+00
        -11   -1    0    0    0    0  0.00000000000E+00  0.00000000000E+00  0.45593999997E+02  0.45594000000E+02  0.51100000000E-03 0.  1.
         11   -1    0    0    0    0 -0.00000000000E+00 -0.00000000000E+00 -0.45593999997E+02  0.45594000000E+02  0.51100000000E-03 0. -1.
    9900012    2    1    2    0    0  0.30637774048E+02 -0.30648497284E+02  0.23705722076E+01  0.47787271931E+02  0.20000004041E+02 0.  0.
         12    1    1    2    0    0 -0.30637774048E+02  0.30648497284E+02 -0.23705722076E+01  0.43400728069E+02  0.00000000000E+00 0. -1.
         11    1    3    3    0    0  0.19442912838E+02 -0.11758546950E+02  0.33038127325E-01  0.22722046073E+02  0.51100000000E-03 0. -1.
        -11    1    3    3    0    0  0.10625900332E+02 -0.19017342068E+02  0.49905235652E+01  0.22348923529E+02  0.51100000000E-03 0.  1.
        -12    1    3    3    0    0  0.56896087862E+00  0.12739173359E+00 -0.26529894850E+01  0.27163023290E+01  0.00000000000E+00 0.  1.
</event>
<event>
 7    1  0.2486105E-010  0.4778727E+02  0.7816164E-02  0.1312668E+00
        -11   -1    0    0    0    0  0.00000000000E+00  0.00000000000E+00  0.45593999997E+02  0.45594000000E+02  0.51100000000E-03 0.  1.
         11   -1    0    0    0    0 -0.00000000000E+00 -0.00000000000E+00 -0.45593999997E+02  0.45594000000E+02  0.51100000000E-03 0. -1.
    9900012    2    1    2    0    0 -0.33615070484E+01  0.15589280998E+02  0.40364563104E+02  0.47787269981E+02  0.19999995150E+02 0.  0.
         12    1    1    2    0    0  0.33615070484E+01 -0.15589280998E+02 -0.40364563104E+02  0.43400730019E+02  0.00000000000E+00 0. -1.
         11    1    3    3    0    0 -0.59862783792E+00  0.30858128694E+01 -0.12309635325E+01  0.33757766266E+01  0.51100000000E-03 0. -1.
        -11    1    3    3    0    0  0.30127162668E+01  0.42383667937E+01  0.10411821911E+02  0.11638137658E+02  0.51100000000E-03 0.  1.
        -12    1    3    3    0    0 -0.57755954772E+01  0.82651013345E+01  0.31183704725E+02  0.32773355696E+02  0.00000000000E+00 0.  1.
</event>
<event>
 7    1  0.2486105E-010  0.4778727E+02  0.7816164E-02  0.1312668E+00
        -11   -1    0    0    0    0  0.00000000000E+00  0.00000000000E+00  0.45593999997E+02  0.45594000000E+02  0.51100000000E-03 0.  1.
         11   -1    0    0    0    0 -0.00000000000E+00 -0.00000000000E+00 -0.45593999997E+02  0.45594000000E+02  0.51100000000E-03 0. -1.
    9900012    2    1    2    0    0  0.28635151005E+02 -0.12589327019E+02  0.30085886154E+02  0.47787267591E+02  0.19999984256E+02 0.  0.
         12    1    1    2    0    0 -0.28635151005E+02  0.12589327019E+02 -0.30085886154E+02  0.43400732409E+02  0.00000000000E+00 0. -1.
         11    1    3    3    0    0 -0.14128205479E+01 -0.21567540356E+01  0.26487748746E+01  0.36964386196E+01  0.51100000000E-03 0. -1.
        -11    1    3    3    0    0  0.15428183596E+02 -0.11437670281E+02  0.19727601413E+02  0.27532297548E+02  0.51100000000E-03 0.  1.
        -12    1    3    3    0    0  0.14619787958E+02  0.10050972975E+01  0.77095098669E+01  0.16558531423E+02  0.00000000000E+00 0.  1.
</event>
<event>
 7    1  0.2486105E-010  0.4778727E+02  0.7816164E-02  0.1312668E+00
        -11   -1    0    0    0    0  0.00000000000E+00  0.00000000000E+00  0.45593999997E+02  0.45594000000E+02  0.51100000000E-03 0. -1.
         11   -1    0    0    0    0 -0.00000000000E+00 -0.00000000000E+00 -0.45593999997E+02  0.45594000000E+02  0.51100000000E-03 0.  1.
    9900012    2    1    2    0    0 -0.60082367014E+01 -0.35088062033E+02 -0.24826453236E+02  0.47787265147E+02  0.19999973111E+02 0.  0.
         12    1    1    2    0    0  0.60082367014E+01  0.35088062033E+02  0.24826453236E+02  0.43400734853E+02  0.00000000000E+00 0. -1.
         11    1    3    3    0    0 -0.75198132564E+01 -0.19514160696E+02 -0.14722751181E+02  0.25575563761E+02  0.51100000000E-03 0. -1.
        -11    1    3    3    0    0 -0.71135791045E-02 -0.16314040782E+02 -0.53534387795E+01  0.17169952949E+02  0.51100000000E-03 0.  1.
         12    1    3    3    0    0  0.15186901341E+01  0.74013944470E+00 -0.47502632751E+01  0.50417484372E+01  0.00000000000E+00 0. -1.
</event>
<event>
 7    1  0.2486105E-010  0.4778727E+02  0.7816164E-02  0.1312668E+00
        -11   -1    0    0    0    0  0.00000000000E+00  0.00000000000E+00  0.45593999997E+02  0.45594000000E+02  0.51100000000E-03 0. -1.
         11   -1    0    0    0    0 -0.00000000000E+00 -0.00000000000E+00 -0.45593999997E+02  0.45594000000E+02  0.51100000000E-03 0.  1.
    9900012    2    1    2    0    0  0.17766088164E+02 -0.73276460195E+01 -0.38913943421E+02  0.47787271003E+02  0.19999999813E+02 0.  0.
         12    1    1    2    0    0 -0.17766088164E+02  0.73276460195E+01  0.38913943421E+02  0.43400728997E+02  0.00000000000E+00 0. -1.
         11    1    3    3    0    0  0.28283140045E+01 -0.25600709035E+00 -0.61786097945E+01  0.68000087494E+01  0.51100000000E-03 0. -1.
        -11    1    3    3    0    0  0.10576353159E+02 -0.12386929026E+02 -0.28741421352E+02  0.33035807216E+02  0.51100000000E-03 0.  1.
         12    1    3    3    0    0  0.43614209999E+01  0.53152900972E+01 -0.39939122753E+01  0.79514550378E+01  0.00000000000E+00 0. -1.
</event>
<event>
 7    1  0.2486105E-010  0.4778726E+02  0.7816164E-02  0.1312668E+00
        -11   -1    0    0    0    0  0.00000000000E+00  0.00000000000E+00  0.45593999997E+02  0.45594000000E+02  0.51100000000E-03 0. -1.
         11   -1    0    0    0    0 -0.00000000000E+00 -0.00000000000E+00 -0.45593999997E+02  0.45594000000E+02  0.51100000000E-03 0.  1.
    9900012    2    1    2    0    0  0.15945275625E+02  0.36827210603E+02  0.16526601566E+02  0.47787264812E+02  0.19999971585E+02 0.  0.
         12    1    1    2    0    0 -0.15945275625E+02 -0.36827210603E+02 -0.16526601566E+02  0.43400735188E+02  0.00000000000E+00 0. -1.
         11    1    3    3    0    0 -0.17910118377E+01  0.33187535934E+01  0.95225137600E+00  0.38895541853E+01  0.51100000000E-03 0. -1.
        -11    1    3    3    0    0  0.46700925946E+01  0.23528309729E+02  0.54824296921E+01  0.24605856196E+02  0.51100000000E-03 0.  1.
        -12    1    3    3    0    0  0.13066194868E+02  0.99801472803E+01  0.10091920498E+02  0.19291854431E+02  0.00000000000E+00 0.  1.
</event>
<event>
 7    1  0.2486105E-010  0.4778728E+02  0.7816164E-02  0.1312668E+00
        -11   -1    0    0    0    0  0.00000000000E+00  0.00000000000E+00  0.45593999997E+02  0.45594000000E+02  0.51100000000E-03 0.  1.
         11   -1    0    0    0    0 -0.00000000000E+00 -0.00000000000E+00 -0.45593999997E+02  0.45594000000E+02  0.51100000000E-03 0. -1.
    9900012    2    1    2    0    0 -0.15232693581E+01 -0.34511570739E+02  0.26272678111E+02  0.47787280196E+02  0.20000041726E+02 0.  0.
         12    1    1    2    0    0  0.15232693581E+01  0.34511570739E+02 -0.26272678111E+02  0.43400719804E+02  0.00000000000E+00 0. -1.
         11    1    3    3    0    0  0.17577768224E+01  0.11601178093E+01 -0.49334908507E+00  0.21631103230E+01  0.51100000000E-03 0. -1.
        -11    1    3    3    0    0 -0.12885298125E+01 -0.14537331852E+02  0.55566573938E+01  0.15616362192E+02  0.51100000000E-03 0.  1.
        -12    1    3    3    0    0 -0.19925163680E+01 -0.21134356696E+02  0.21209369802E+02  0.30007807681E+02  0.00000000000E+00 0.  1.
</event>
<event>
 7    1  0.2486105E-010  0.4778727E+02  0.7816164E-02  0.1312668E+00
        -11   -1    0    0    0    0  0.00000000000E+00  0.00000000000E+00  0.45593999997E+02  0.45594000000E+02  0.51100000000E-03 0.  1.
         11   -1    0    0    0    0 -0.00000000000E+00 -0.00000000000E+00 -0.45593999997E+02  0.45594000000E+02  0.51100000000E-03 0. -1.
    9900012    2    1    2    0    0 -0.37373822395E+02 -0.47041044260E+01  0.21556719896E+02  0.47787269919E+02  0.19999994869E+02 0.  0.
         12    1    1    2    0    0  0.37373822395E+02  0.47041044260E+01 -0.21556719896E+02  0.43400730081E+02  0.00000000000E+00 0. -1.
         11    1    3    3    0    0  0.50059678980E+00 -0.23481023368E+01  0.62498557725E+00  0.24808847137E+01  0.51100000000E-03 0. -1.
        -11    1    3    3    0    0 -0.28154866773E+01  0.17250980151E+01  0.62706096587E+01  0.70868522028E+01  0.51100000000E-03 0.  1.
        -12    1    3    3    0    0 -0.35058932508E+02 -0.40811001044E+01  0.14661124660E+02  0.38219533003E+02  0.00000000000E+00 0.  1.
</event>
<event>
 7    1  0.2486105E-010  0.4778727E+02  0.7816164E-02  0.1312668E+00
        -11   -1    0    0    0    0  0.00000000000E+00  0.00000000000E+00  0.45593999997E+02  0.45594000000E+02  0.51100000000E-03 0.  1.
         11   -1    0    0    0    0 -0.00000000000E+00 -0.00000000000E+00 -0.45593999997E+02  0.45594000000E+02  0.51100000000E-03 0. -1.
    9900012    2    1    2    0    0 -0.43085279103E+02  0.31185645868E+01  0.41900514059E+01  0.47787271305E+02  0.20000001188E+02 0.  0.
         12    1    1    2    0    0  0.43085279103E+02 -0.31185645868E+01 -0.41900514059E+01  0.43400728695E+02  0.00000000000E+00 0. -1.
         11    1    3    3    0    0 -0.12473189590E+02  0.61461822935E+01  0.84020142072E+00  0.13930612119E+02  0.51100000000E-03 0. -1.
        -11    1    3    3    0    0 -0.29143028286E+02  0.63052263482E+00  0.50135834656E+01  0.29577857865E+02  0.51100000000E-03 0.  1.
         12    1    3    3    0    0 -0.14690612275E+01 -0.36581403416E+01 -0.16637334804E+01  0.42788013208E+01  0.00000000000E+00 0. -1.
</event>
<event>
 7    1  0.2486105E-010  0.4778727E+02  0.7816164E-02  0.1312668E+00
        -11   -1    0    0    0    0  0.00000000000E+00  0.00000000000E+00  0.45593999997E+02  0.45594000000E+02  0.51100000000E-03 0. -1.
         11   -1    0    0    0    0 -0.00000000000E+00 -0.00000000000E+00 -0.45593999997E+02  0.45594000000E+02  0.51100000000E-03 0.  1.
    9900012    2    1    2    0    0 -0.32574241296E+02 -0.28567685951E+02  0.25356563527E+01  0.47787269249E+02  0.19999991813E+02 0.  0.
         12    1    1    2    0    0  0.32574241296E+02  0.28567685951E+02 -0.25356563527E+01  0.43400730751E+02  0.00000000000E+00 0. -1.
         11    1    3    3    0    0 -0.62638449398E+01 -0.24659546243E+01  0.43388406889E+01  0.80088840936E+01  0.51100000000E-03 0. -1.
        -11    1    3    3    0    0 -0.26408323361E+02 -0.21323980971E+02 -0.45816656107E+01  0.34250596597E+02  0.51100000000E-03 0.  1.
         12    1    3    3    0    0  0.97927004516E-01 -0.47777503552E+01  0.27784812745E+01  0.55277885585E+01  0.00000000000E+00 0. -1.
</event>
<event>
 7    1  0.2486105E-010  0.4778727E+02  0.7816164E-02  0.1312668E+00
        -11   -1    0    0    0    0  0.00000000000E+00  0.00000000000E+00  0.45593999997E+02  0.45594000000E+02  0.51100000000E-03 0. -1.
         11   -1    0    0    0    0 -0.00000000000E+00 -0.00000000000E+00 -0.45593999997E+02  0.45594000000E+02  0.51100000000E-03 0.  1.
    9900012    2    1    2    0    0 -0.23979344016E+02  0.28166368178E+02  0.22699554592E+02  0.47787274033E+02  0.20000013628E+02 0.  0.
         12    1    1    2    0    0  0.23979344016E+02 -0.28166368178E+02 -0.22699554592E+02  0.43400725967E+02  0.00000000000E+00 0. -1.
         11    1    3    3    0    0  0.19857854181E+01  0.64882322946E+01  0.64310855246E+01  0.93487626626E+01  0.51100000000E-03 0. -1.
        -11    1    3    3    0    0 -0.93017806972E+01  0.12688520115E+02  0.92206518511E+01  0.18235736554E+02  0.51100000000E-03 0.  1.
        -12    1    3    3    0    0 -0.16663348737E+02  0.89896157686E+01  0.70478172161E+01  0.20202774817E+02  0.00000000000E+00 0.  1.
</event>
<event>
 7    1  0.2486105E-010  0.4778727E+02  0.7816164E-02  0.1312668E+00
        -11   -1    0    0    0    0  0.00000000000E+00  0.00000000000E+00  0.45593999997E+02  0.45594000000E+02  0.51100000000E-03 0. -1.
         11   -1    0    0    0    0 -0.00000000000E+00 -0.00000000000E+00 -0.45593999997E+02  0.45594000000E+02  0.51100000000E-03 0.  1.
    9900012    2    1    2    0    0  0.28597773440E+02 -0.25387274407E+02 -0.20525034141E+02  0.47787269890E+02  0.19999994737E+02 0.  0.
         12    1    1    2    0    0 -0.28597773440E+02  0.25387274407E+02  0.20525034141E+02  0.43400730110E+02  0.00000000000E+00 0. -1.
         11    1    3    3    0    0  0.11873924725E+02 -0.13387899272E+02 -0.14776222994E+02  0.23206953732E+02  0.51100000000E-03 0. -1.
        -11    1    3    3    0    0  0.11520671568E+02 -0.13924320672E+02 -0.59561231096E+01  0.19028609574E+02  0.51100000000E-03 0.  1.
         12    1    3    3    0    0  0.52031771475E+01  0.19249455369E+01  0.20731196262E+00  0.55517065843E+01  0.00000000000E+00 0. -1.
</event>
<event>
 7    1  0.2486105E-010  0.4778727E+02  0.7816164E-02  0.1312668E+00
        -11   -1    0    0    0    0  0.00000000000E+00  0.00000000000E+00  0.45593999997E+02  0.45594000000E+02  0.51100000000E-03 0.  1.
         11   -1    0    0    0    0 -0.00000000000E+00 -0.00000000000E+00 -0.45593999997E+02  0.45594000000E+02  0.51100000000E-03 0. -1.
    9900012    2    1    2    0    0  0.43070771929E+02 -0.36158764482E+01  0.39316043506E+01  0.47787268787E+02  0.19999989709E+02 0.  0.
         12    1    1    2    0    0 -0.43070771929E+02  0.36158764482E+01 -0.39316043506E+01  0.43400731213E+02  0.00000000000E+00 0. -1.
         11    1    3    3    0    0  0.66228662152E+01  0.17868767329E+01 -0.35092411881E+01  0.77051969047E+01  0.51100000000E-03 0. -1.
        -11    1    3    3    0    0  0.20035792604E+02  0.40083917954E+01  0.46900119391E+01  0.20964169487E+02  0.51100000000E-03 0.  1.
         12    1    3    3    0    0  0.16412113110E+02 -0.94111449765E+01  0.27508335997E+01  0.19117902395E+02  0.00000000000E+00 0. -1.
</event>
<event>
 7    1  0.2486105E-010  0.4778729E+02  0.7816164E-02  0.1312668E+00
        -11   -1    0    0    0    0  0.00000000000E+00  0.00000000000E+00  0.45593999997E+02  0.45594000000E+02  0.51100000000E-03 0.  1.
         11   -1    0    0    0    0 -0.00000000000E+00 -0.00000000000E+00 -0.45593999997E+02  0.45594000000E+02  0.51100000000E-03 0. -1.
    9900012    2    1    2    0    0 -0.15158102331E+02  0.25650390750E+02  0.31558063931E+02  0.47787285594E+02  0.20000066335E+02 0.  0.
         12    1    1    2    0    0  0.15158102331E+02 -0.25650390750E+02 -0.31558063931E+02  0.43400714406E+02  0.00000000000E+00 0. -1.
         11    1    3    3    0    0  0.78659321701E+00  0.58157116873E+00 -0.52496286651E+00  0.11101982641E+01  0.51100000000E-03 0. -1.
        -11    1    3    3    0    0  0.47124704708E+00  0.13426301160E+02  0.96601474709E+01  0.16547086935E+02  0.51100000000E-03 0.  1.
        -12    1    3    3    0    0 -0.16415942595E+02  0.11642518422E+02  0.22422879327E+02  0.30130000395E+02  0.00000000000E+00 0.  1.
</event>
<event>
 7    1  0.2486105E-010  0.4778727E+02  0.7816164E-02  0.1312668E+00
        -11   -1    0    0    0    0  0.00000000000E+00  0.00000000000E+00  0.45593999997E+02  0.45594000000E+02  0.51100000000E-03 0.  1.
         11   -1    0    0    0    0 -0.00000000000E+00 -0.00000000000E+00 -0.45593999997E+02  0.45594000000E+02  0.51100000000E-03 0. -1.
    9900012    2    1    2    0    0 -0.27857267635E+02 -0.15521026675E+02  0.29439662826E+02  0.47787269863E+02  0.19999994612E+02 0.  0.
         12    1    1    2    0    0  0.27857267635E+02  0.15521026675E+02 -0.29439662826E+02  0.43400730137E+02  0.00000000000E+00 0. -1.
         11    1    3    3    0    0 -0.44270953202E+01 -0.11881166213E+01  0.26697583997E+01  0.53045644736E+01  0.51100000000E-03 0. -1.
        -11    1    3    3    0    0 -0.23209141216E+02 -0.82156534763E+01  0.26758055185E+02  0.36361445455E+02  0.51100000000E-03 0.  1.
         12    1    3    3    0    0 -0.22103109856E+00 -0.61172565774E+01  0.11849241906E-01  0.61212599344E+01  0.00000000000E+00 0. -1.
</event>
<event>
 7    1  0.2486105E-010  0.4778727E+02  0.7816164E-02  0.1312668E+00
        -11   -1    0    0    0    0  0.00000000000E+00  0.00000000000E+00  0.45593999997E+02  0.45594000000E+02  0.51100000000E-03 0.  1.
         11   -1    0    0    0    0 -0.00000000000E+00 -0.00000000000E+00 -0.45593999997E+02  0.45594000000E+02  0.51100000000E-03 0. -1.
    9900012    2    1    2    0    0  0.34141211233E+02  0.23516756234E+02  0.12843812302E+02  0.47787266796E+02  0.19999980629E+02 0.  0.
         12    1    1    2    0    0 -0.34141211233E+02 -0.23516756234E+02 -0.12843812302E+02  0.43400733204E+02  0.00000000000E+00 0. -1.
         11    1    3    3    0    0  0.17318743887E+02  0.14883080981E+02  0.75307910898E+01  0.24044912227E+02  0.51100000000E-03 0. -1.
        -11    1    3    3    0    0  0.13734274866E+02  0.10587325689E+02  0.81066076827E+01  0.19142592816E+02  0.51100000000E-03 0.  1.
         12    1    3    3    0    0  0.30881924796E+01 -0.19536504360E+01 -0.27935864701E+01  0.45997617528E+01  0.00000000000E+00 0. -1.
</event>
<event>
 7    1  0.2486105E-010  0.4778727E+02  0.7816164E-02  0.1312668E+00
        -11   -1    0    0    0    0  0.00000000000E+00  0.00000000000E+00  0.45593999997E+02  0.45594000000E+02  0.51100000000E-03 0.  1.
         11   -1    0    0    0    0 -0.00000000000E+00 -0.00000000000E+00 -0.45593999997E+02  0.45594000000E+02  0.51100000000E-03 0. -1.
    9900012    2    1    2    0    0 -0.17889809249E+01 -0.30026037160E+02  0.31286737794E+02  0.47787270489E+02  0.19999997468E+02 0.  0.
         12    1    1    2    0    0  0.17889809249E+01  0.30026037160E+02 -0.31286737794E+02  0.43400729511E+02  0.00000000000E+00 0. -1.
         11    1    3    3    0    0  0.23795165843E+01 -0.10144135610E+02  0.15722088186E+01  0.10537429824E+02  0.51100000000E-03 0. -1.
        -11    1    3    3    0    0  0.14590703275E+01  0.11980011725E+00  0.87777105713E+00  0.17069623835E+01  0.51100000000E-03 0.  1.
        -12    1    3    3    0    0 -0.56275678367E+01 -0.20001701667E+02  0.28836757918E+02  0.35542878282E+02  0.00000000000E+00 0.  1.
</event>
<event>
 7    1  0.2486105E-010  0.4778727E+02  0.7816164E-02  0.1312668E+00
        -11   -1    0    0    0    0  0.00000000000E+00  0.00000000000E+00  0.45593999997E+02  0.45594000000E+02  0.51100000000E-03 0. -1.
         11   -1    0    0    0    0 -0.00000000000E+00 -0.00000000000E+00 -0.45593999997E+02  0.45594000000E+02  0.51100000000E-03 0.  1.
    9900012    2    1    2    0    0 -0.35964157257E+02 -0.14264945249E+02 -0.19665057851E+02  0.47787265324E+02  0.19999973917E+02 0.  0.
         12    1    1    2    0    0  0.35964157257E+02  0.14264945249E+02  0.19665057851E+02  0.43400734676E+02  0.00000000000E+00 0. -1.
         11    1    3    3    0    0 -0.16538052910E+02 -0.11334569407E+02 -0.12445648981E+02  0.23598174432E+02  0.51100000000E-03 0. -1.
        -11    1    3    3    0    0 -0.82686197000E+01 -0.29765177170E+00 -0.93967260909E+01  0.12520268759E+02  0.51100000000E-03 0.  1.
         12    1    3    3    0    0 -0.11157484647E+02 -0.26327240705E+01  0.21773172211E+01  0.11668822133E+02  0.00000000000E+00 0. -1.
</event>
<event>
 7    1  0.2486105E-010  0.4778727E+02  0.7816164E-02  0.1312668E+00
        -11   -1    0    0    0    0  0.00000000000E+00  0.00000000000E+00  0.45593999997E+02  0.45594000000E+02  0.51100000000E-03 0. -1.
         11   -1    0    0    0    0 -0.00000000000E+00 -0.00000000000E+00 -0.45593999997E+02  0.45594000000E+02  0.51100000000E-03 0.  1.
    9900012    2    1    2    0    0  0.23701077922E+02 -0.11152603663E+02 -0.34604938337E+02  0.47787269356E+02  0.19999992301E+02 0.  0.
         12    1    1    2    0    0 -0.23701077922E+02  0.11152603663E+02  0.34604938337E+02  0.43400730644E+02  0.00000000000E+00 0. -1.
         11    1    3    3    0    0  0.18540580290E+02 -0.90358966085E+01 -0.22447028422E+02  0.30483924128E+02  0.51100000000E-03 0.  1.
        -11    1    3    3    0    0  0.79592455860E+01  0.11116173189E+01 -0.77509060731E+01  0.11165206159E+02  0.51100000000E-03 0. -1.
         12    1    3    3    0    0 -0.27987479533E+01 -0.32283243738E+01 -0.44070038414E+01  0.61381390687E+01  0.00000000000E+00 0. -1.
</event>
<event>
 7    1  0.2486105E-010  0.4778727E+02  0.7816164E-02  0.1312668E+00
        -11   -1    0    0    0    0  0.00000000000E+00  0.00000000000E+00  0.45593999997E+02  0.45594000000E+02  0.51100000000E-03 0.  1.
         11   -1    0    0    0    0 -0.00000000000E+00 -0.00000000000E+00 -0.45593999997E+02  0.45594000000E+02  0.51100000000E-03 0. -1.
    9900012    2    1    2    0    0  0.32548788293E+02 -0.28479916459E+02  0.36185709335E+01  0.47787270554E+02  0.19999997764E+02 0.  0.
         12    1    1    2    0    0 -0.32548788293E+02  0.28479916459E+02 -0.36185709335E+01  0.43400729446E+02  0.00000000000E+00 0. -1.
         11    1    3    3    0    0  0.59322609062E+01 -0.68655256948E+01  0.13857954459E+01  0.91786486916E+01  0.51100000000E-03 0. -1.
        -11    1    3    3    0    0  0.19014589895E+02 -0.23040428796E+02  0.52036231543E+01  0.30323154226E+02  0.51100000000E-03 0.  1.
         12    1    3    3    0    0  0.76019374920E+01  0.14260380327E+01 -0.29708476667E+01  0.82854676369E+01  0.00000000000E+00 0. -1.
</event>
<event>
 7    1  0.2486105E-010  0.4778727E+02  0.7816164E-02  0.1312668E+00
        -11   -1    0    0    0    0  0.00000000000E+00  0.00000000000E+00  0.45593999997E+02  0.45594000000E+02  0.51100000000E-03 0.  1.
         11   -1    0    0    0    0 -0.00000000000E+00 -0.00000000000E+00 -0.45593999997E+02  0.45594000000E+02  0.51100000000E-03 0. -1.
    9900012    2    1    2    0    0  0.15685958804E+02 -0.30687338825E+02  0.26379178789E+02  0.47787272572E+02  0.20000006963E+02 0.  0.
         12    1    1    2    0    0 -0.15685958804E+02  0.30687338825E+02 -0.26379178789E+02  0.43400727428E+02  0.00000000000E+00 0. -1.
         11    1    3    3    0    0  0.29791636395E+01 -0.50084586271E+01  0.10240029275E+02  0.11782116687E+02  0.51100000000E-03 0. -1.
        -11    1    3    3    0    0  0.11141044110E+02 -0.26145797108E+02  0.17912078075E+02  0.33594167820E+02  0.51100000000E-03 0.  1.
         12    1    3    3    0    0  0.15657510544E+01  0.46691691076E+00 -0.17729285611E+01  0.24109880649E+01  0.00000000000E+00 0. -1.
</event>
<event>
 7    1  0.2486105E-010  0.4778727E+02  0.7816164E-02  0.1312668E+00
        -11   -1    0    0    0    0  0.00000000000E+00  0.00000000000E+00  0.45593999997E+02  0.45594000000E+02  0.51100000000E-03 0. -1.
         11   -1    0    0    0    0 -0.00000000000E+00 -0.00000000000E+00 -0.45593999997E+02  0.45594000000E+02  0.51100000000E-03 0.  1.
    9900012    2    1    2    0    0 -0.42380611352E+02  0.39149785821E+00 -0.93463119728E+01  0.47787273778E+02  0.20000012462E+02 0.  0.
         12    1    1    2    0    0  0.42380611352E+02 -0.39149785821E+00  0.93463119728E+01  0.43400726222E+02  0.00000000000E+00 0. -1.
         11    1    3    3    0    0 -0.30392731107E+00  0.17306609661E+01  0.18066695574E+01  0.25202409292E+01  0.51100000000E-03 0. -1.
        -11    1    3    3    0    0 -0.45374886512E+00 -0.21534125390E+01 -0.14556390463E+00  0.22055073582E+01  0.51100000000E-03 0.  1.
        -12    1    3    3    0    0 -0.41622935176E+02  0.81424943108E+00 -0.11007417626E+02  0.43061525490E+02  0.00000000000E+00 0.  1.
</event>
<event>
 7    1  0.2486105E-010  0.4778727E+02  0.7816164E-02  0.1312668E+00
        -11   -1    0    0    0    0  0.00000000000E+00  0.00000000000E+00  0.45593999997E+02  0.45594000000E+02  0.51100000000E-03 0. -1.
         11   -1    0    0    0    0 -0.00000000000E+00 -0.00000000000E+00 -0.45593999997E+02  0.45594000000E+02  0.51100000000E-03 0.  1.
    9900012    2    1    2    0    0  0.10919499123E+02 -0.27805767839E+02 -0.31483764327E+02  0.47787267259E+02  0.19999982743E+02 0.  0.
         12    1    1    2    0    0 -0.10919499123E+02  0.27805767839E+02  0.31483764327E+02  0.43400732741E+02  0.00000000000E+00 0. -1.
         11    1    3    3    0    0  0.49559255733E+01 -0.68237801229E+01  0.67189630531E+00  0.84602965882E+01  0.51100000000E-03 0. -1.
        -11    1    3    3    0    0  0.36556699254E+01 -0.38641181652E+01 -0.87073768753E+01  0.10203614267E+02  0.51100000000E-03 0.  1.
        -12    1    3    3    0    0  0.23079036239E+01 -0.17117869551E+02 -0.23448283757E+02  0.29123356404E+02  0.00000000000E+00 0.  1.
</event>
<event>
 7    1  0.2486105E-010  0.4778727E+02  0.7816164E-02  0.1312668E+00
        -11   -1    0    0    0    0  0.00000000000E+00  0.00000000000E+00  0.45593999997E+02  0.45594000000E+02  0.51100000000E-03 0.  1.
         11   -1    0    0    0    0 -0.00000000000E+00 -0.00000000000E+00 -0.45593999997E+02  0.45594000000E+02  0.51100000000E-03 0. -1.
    9900012    2    1    2    0    0 -0.95871387096E+01 -0.74237308215E+01  0.41672510282E+02  0.47787272804E+02  0.20000008022E+02 0.  0.
         12    1    1    2    0    0  0.95871387096E+01  0.74237308215E+01 -0.41672510282E+02  0.43400727196E+02  0.00000000000E+00 0. -1.
         11    1    3    3    0    0 -0.22738357277E+00 -0.22262803864E+01  0.34496232993E+01  0.41119251958E+01  0.51100000000E-03 0. -1.
        -11    1    3    3    0    0 -0.40438099158E+01 -0.98927422164E+01  0.10217083314E+02  0.14785382609E+02  0.51100000000E-03 0.  1.
         12    1    3    3    0    0 -0.53159452211E+01  0.46952917813E+01  0.28005803669E+02  0.28889964999E+02  0.00000000000E+00 0. -1.
</event>
<event>
 7    1  0.2486105E-010  0.4778727E+02  0.7816164E-02  0.1312668E+00
        -11   -1    0    0    0    0  0.00000000000E+00  0.00000000000E+00  0.45593999997E+02  0.45594000000E+02  0.51100000000E-03 0.  1.
         11   -1    0    0    0    0 -0.00000000000E+00 -0.00000000000E+00 -0.45593999997E+02  0.45594000000E+02  0.51100000000E-03 0. -1.
    9900012    2    1    2    0    0 -0.33808175597E+02  0.15226192812E+02  0.22556458222E+02  0.47787268528E+02  0.19999988529E+02 0.  0.
         12    1    1    2    0    0  0.33808175597E+02 -0.15226192812E+02 -0.22556458222E+02  0.43400731472E+02  0.00000000000E+00 0. -1.
         11    1    3    3    0    0 -0.77590606361E+01  0.63174404639E+01 -0.94225414712E+00  0.10049921348E+02  0.51100000000E-03 0. -1.
        -11    1    3    3    0    0 -0.20888624546E+02  0.88891976149E+01  0.13308144624E+02  0.26314619193E+02  0.51100000000E-03 0.  1.
        -12    1    3    3    0    0 -0.51604904153E+01  0.19554732839E-01  0.10190567745E+02  0.11422727988E+02  0.00000000000E+00 0.  1.
</event>
<event>
 7    1  0.2486105E-010  0.4778727E+02  0.7816164E-02  0.1312668E+00
        -11   -1    0    0    0    0  0.00000000000E+00  0.00000000000E+00  0.45593999997E+02  0.45594000000E+02  0.51100000000E-03 0. -1.
         11   -1    0    0    0    0 -0.00000000000E+00 -0.00000000000E+00 -0.45593999997E+02  0.45594000000E+02  0.51100000000E-03 0.  1.
    9900012    2    1    2    0    0  0.40681322160E+02  0.14357384401E+02  0.47453924631E+01  0.47787271790E+02  0.20000003400E+02 0.  0.
         12    1    1    2    0    0 -0.40681322160E+02 -0.14357384401E+02 -0.47453924631E+01  0.43400728210E+02  0.00000000000E+00 0. -1.
         11    1    3    3    0    0  0.25973442380E+01  0.47012499263E+01  0.42716811930E+01  0.68625948763E+01  0.51100000000E-03 0. -1.
        -11    1    3    3    0    0  0.18696039632E+02  0.12925488420E+01  0.48563706195E+01  0.19359672422E+02  0.51100000000E-03 0.  1.
        -12    1    3    3    0    0  0.19387938290E+02  0.83635856326E+01 -0.43826593495E+01  0.21565004492E+02  0.00000000000E+00 0.  1.
</event>
<event>
 7    1  0.2486105E-010  0.4778727E+02  0.7816164E-02  0.1312668E+00
        -11   -1    0    0    0    0  0.00000000000E+00  0.00000000000E+00  0.45593999997E+02  0.45594000000E+02  0.51100000000E-03 0.  1.
         11   -1    0    0    0    0 -0.00000000000E+00 -0.00000000000E+00 -0.45593999997E+02  0.45594000000E+02  0.51100000000E-03 0. -1.
    9900012    2    1    2    0    0 -0.27077290984E+02 -0.73802395247E+01  0.33105524361E+02  0.47787269987E+02  0.19999995177E+02 0.  0.
         12    1    1    2    0    0  0.27077290984E+02  0.73802395247E+01 -0.33105524361E+02  0.43400730013E+02  0.00000000000E+00 0. -1.
         11    1    3    3    0    0 -0.90661948153E+01 -0.66625065812E+01  0.23257485957E+01  0.11488863702E+02  0.51100000000E-03 0. -1.
        -11    1    3    3    0    0 -0.10107792788E+01 -0.15887996042E+01  0.14114342213E+01  0.23533180309E+01  0.51100000000E-03 0.  1.
        -12    1    3    3    0    0 -0.17000316890E+02  0.87106666067E+00  0.29368341544E+02  0.33945088254E+02  0.00000000000E+00 0.  1.
</event>
<event>
 7    1  0.2486105E-010  0.4778727E+02  0.7816164E-02  0.1312668E+00
        -11   -1    0    0    0    0  0.00000000000E+00  0.00000000000E+00  0.45593999997E+02  0.45594000000E+02  0.51100000000E-03 0. -1.
         11   -1    0    0    0    0 -0.00000000000E+00 -0.00000000000E+00 -0.45593999997E+02  0.45594000000E+02  0.51100000000E-03 0.  1.
    9900012    2    1    2    0    0  0.16129157130E+02 -0.58245967197E+01 -0.39869133777E+02  0.47787268845E+02  0.19999989970E+02 0.  0.
         12    1    1    2    0    0 -0.16129157130E+02  0.58245967197E+01  0.39869133777E+02  0.43400731155E+02  0.00000000000E+00 0. -1.
         11    1    3    3    0    0 -0.32812018776E+00  0.23334140514E+01 -0.14483273854E+01  0.27658880073E+01  0.51100000000E-03 0. -1.
        -11    1    3    3    0    0  0.39343217776E+00 -0.67500665145E+01 -0.16301625217E+02  0.17648262572E+02  0.51100000000E-03 0.  1.
        -12    1    3    3    0    0  0.16063845140E+02 -0.14079442565E+01 -0.22119181175E+02  0.27373118265E+02  0.00000000000E+00 0.  1.
</event>
<event>
 7    1  0.2486105E-010  0.4778726E+02  0.7816164E-02  0.1312668E+00
        -11   -1    0    0    0    0  0.00000000000E+00  0.00000000000E+00  0.45593999997E+02  0.45594000000E+02  0.51100000000E-03 0. -1.
         11   -1    0    0    0    0 -0.00000000000E+00 -0.00000000000E+00 -0.45593999997E+02  0.45594000000E+02  0.51100000000E-03 0.  1.
    9900012    2    1    2    0    0  0.43834772991E+01  0.42671108213E+02 -0.66019437054E+01  0.47787262563E+02  0.19999961332E+02 0.  0.
         12    1    1    2    0    0 -0.43834772991E+01 -0.42671108213E+02  0.66019437054E+01  0.43400737437E+02  0.00000000000E+00 0. -1.
         11    1    3    3    0    0  0.18517473841E+01  0.15064997589E+01 -0.47428427094E+01  0.53097144109E+01  0.51100000000E-03 0. -1.
        -11    1    3    3    0    0  0.57813064474E+00 -0.61297524012E-01  0.94578239811E+00  0.11101788300E+01  0.51100000000E-03 0.  1.
        -12    1    3    3    0    0  0.19535992703E+01  0.41225905978E+02 -0.28048833942E+01  0.41367369323E+02  0.00000000000E+00 0.  1.
</event>
<event>
 7    1  0.2486105E-010  0.4778727E+02  0.7816164E-02  0.1312668E+00
        -11   -1    0    0    0    0  0.00000000000E+00  0.00000000000E+00  0.45593999997E+02  0.45594000000E+02  0.51100000000E-03 0.  1.
         11   -1    0    0    0    0 -0.00000000000E+00 -0.00000000000E+00 -0.45593999997E+02  0.45594000000E+02  0.51100000000E-03 0. -1.
    9900012    2    1    2    0    0 -0.80903192296E+01  0.80792348805E+01  0.41867599639E+02  0.47787271884E+02  0.20000003826E+02 0.  0.
         12    1    1    2    0    0  0.80903192296E+01 -0.80792348805E+01 -0.41867599639E+02  0.43400728116E+02  0.00000000000E+00 0. -1.
         11    1    3    3    0    0 -0.19955873983E+00  0.84608468775E+00  0.26455426232E+01  0.27847044766E+01  0.51100000000E-03 0. -1.
        -11    1    3    3    0    0 -0.10875289179E+02  0.11467947587E+02  0.34684424412E+02  0.38115548450E+02  0.51100000000E-03 0.  1.
         12    1    3    3    0    0  0.29845286894E+01 -0.42347973942E+01  0.45376326035E+01  0.68870189569E+01  0.00000000000E+00 0. -1.
</event>
<event>
 7    1  0.2486105E-010  0.4778728E+02  0.7816164E-02  0.1312668E+00
        -11   -1    0    0    0    0  0.00000000000E+00  0.00000000000E+00  0.45593999997E+02  0.45594000000E+02  0.51100000000E-03 0. -1.
         11   -1    0    0    0    0 -0.00000000000E+00 -0.00000000000E+00 -0.45593999997E+02  0.45594000000E+02  0.51100000000E-03 0.  1.
    9900012    2    1    2    0    0  0.48496722852E+00 -0.37664935420E+02 -0.21557834055E+02  0.47787276935E+02  0.20000026858E+02 0.  0.
         12    1    1    2    0    0 -0.48496722852E+00  0.37664935420E+02  0.21557834055E+02  0.43400723065E+02  0.00000000000E+00 0. -1.
         11    1    3    3    0    0 -0.60917817860E+01 -0.88231602239E+01 -0.11242100477E+01  0.10780621974E+02  0.51100000000E-03 0. -1.
        -11    1    3    3    0    0  0.22627270309E+01 -0.21853875047E+02 -0.11238792519E+02  0.24678376075E+02  0.51100000000E-03 0.  1.
        -12    1    3    3    0    0  0.43140219836E+01 -0.69879001498E+01 -0.91948314880E+01  0.12328278885E+02  0.00000000000E+00 0.  1.
</event>
<event>
 7    1  0.2486105E-010  0.4778727E+02  0.7816164E-02  0.1312668E+00
        -11   -1    0    0    0    0  0.00000000000E+00  0.00000000000E+00  0.45593999997E+02  0.45594000000E+02  0.51100000000E-03 0.  1.
         11   -1    0    0    0    0 -0.00000000000E+00 -0.00000000000E+00 -0.45593999997E+02  0.45594000000E+02  0.51100000000E-03 0. -1.
    9900012    2    1    2    0    0 -0.27172211460E+02  0.21668503197E+02  0.25995573564E+02  0.47787274760E+02  0.20000016940E+02 0.  0.
         12    1    1    2    0    0  0.27172211460E+02 -0.21668503197E+02 -0.25995573564E+02  0.43400725240E+02  0.00000000000E+00 0. -1.
         11    1    3    3    0    0 -0.14290428298E+02  0.69076333829E+01  0.10130331316E+02  0.18829640271E+02  0.51100000000E-03 0.  1.
        -11    1    3    3    0    0 -0.75889873321E+01  0.28397619139E+00  0.12127326102E+01  0.76905196086E+01  0.51100000000E-03 0. -1.
        -12    1    3    3    0    0 -0.52927958304E+01  0.14476893623E+02  0.14652509637E+02  0.21267114881E+02  0.00000000000E+00 0.  1.
</event>
<event>
 7    1  0.3892494E-010  0.4778728E+02  0.7816164E-02  0.1312668E+00
        -11   -1    0    0    0    0  0.00000000000E+00  0.00000000000E+00  0.45593999997E+02  0.45594000000E+02  0.51100000000E-03 0. -1.
         11   -1    0    0    0    0 -0.00000000000E+00 -0.00000000000E+00 -0.45593999997E+02  0.45594000000E+02  0.51100000000E-03 0.  1.
    9900012    2    1    2    0    0  0.40811483805E+02 -0.93821992960E+01  0.11402621330E+02  0.47787278264E+02  0.20000032916E+02 0.  0.
         12    1    1    2    0    0 -0.40811483805E+02  0.93821992960E+01 -0.11402621330E+02  0.43400721736E+02  0.00000000000E+00 0. -1.
         11    1    3    3    0    0  0.43807691460E+01  0.28759129705E+01 -0.11942942295E+01  0.53747886184E+01  0.51100000000E-03 0.  1.
        -11    1    3    3    0    0  0.69428246339E+01 -0.80499928136E+00  0.77044983649E+01  0.10402409964E+02  0.51100000000E-03 0. -1.
        -12    1    3    3    0    0  0.29487890026E+02 -0.11453112985E+02  0.48924171946E+01  0.32010079681E+02  0.00000000000E+00 0.  1.
</event>
<event>
 7    1  0.2486105E-010  0.4778727E+02  0.7816164E-02  0.1312668E+00
        -11   -1    0    0    0    0  0.00000000000E+00  0.00000000000E+00  0.45593999997E+02  0.45594000000E+02  0.51100000000E-03 0. -1.
         11   -1    0    0    0    0 -0.00000000000E+00 -0.00000000000E+00 -0.45593999997E+02  0.45594000000E+02  0.51100000000E-03 0.  1.
    9900012    2    1    2    0    0  0.21076901455E+02 -0.18765120505E+01 -0.37892826019E+02  0.47787270327E+02  0.19999996729E+02 0.  0.
         12    1    1    2    0    0 -0.21076901455E+02  0.18765120505E+01  0.37892826019E+02  0.43400729673E+02  0.00000000000E+00 0. -1.
         11    1    3    3    0    0  0.31252754188E+01 -0.41417788062E+01 -0.17443745147E+02  0.18199063798E+02  0.51100000000E-03 0. -1.
        -11    1    3    3    0    0  0.63721278522E+01  0.21811434110E+01 -0.15679086249E+02  0.17064440976E+02  0.51100000000E-03 0.  1.
         12    1    3    3    0    0  0.11579498184E+02  0.84123344656E-01 -0.47699946234E+01  0.12523765553E+02  0.00000000000E+00 0. -1.
</event>
<event>
 7    1  0.2486105E-010  0.4778729E+02  0.7816164E-02  0.1312668E+00
        -11   -1    0    0    0    0  0.00000000000E+00  0.00000000000E+00  0.45593999997E+02  0.45594000000E+02  0.51100000000E-03 0.  1.
         11   -1    0    0    0    0 -0.00000000000E+00 -0.00000000000E+00 -0.45593999997E+02  0.45594000000E+02  0.51100000000E-03 0. -1.
    9900012    2    1    2    0    0 -0.40401447787E+02  0.59469348024E+01  0.14696215089E+02  0.47787288546E+02  0.20000079795E+02 0.  0.
         12    1    1    2    0    0  0.40401447787E+02 -0.59469348024E+01 -0.14696215089E+02  0.43400711454E+02  0.00000000000E+00 0. -1.
         11    1    3    3    0    0 -0.22410276518E+01  0.13864487980E+00 -0.13730267192E+01  0.26318491544E+01  0.51100000000E-03 0. -1.
        -11    1    3    3    0    0 -0.37906554050E+02  0.24134719433E+01  0.11965403286E+02  0.39823392156E+02  0.51100000000E-03 0.  1.
        -12    1    3    3    0    0 -0.25386608464E+00  0.33948179794E+01  0.41038385221E+01  0.53320472351E+01  0.00000000000E+00 0.  1.
</event>
<event>
 7    1  0.2486105E-010  0.4778728E+02  0.7816164E-02  0.1312668E+00
        -11   -1    0    0    0    0  0.00000000000E+00  0.00000000000E+00  0.45593999997E+02  0.45594000000E+02  0.51100000000E-03 0.  1.
         11   -1    0    0    0    0 -0.00000000000E+00 -0.00000000000E+00 -0.45593999997E+02  0.45594000000E+02  0.51100000000E-03 0. -1.
    9900012    2    1    2    0    0 -0.55531357721E+01 -0.19765294116E+02  0.38237659008E+02  0.47787277255E+02  0.20000028318E+02 0.  0.
         12    1    1    2    0    0  0.55531357721E+01  0.19765294116E+02 -0.38237659008E+02  0.43400722745E+02  0.00000000000E+00 0. -1.
         11    1    3    3    0    0  0.96420489931E+00 -0.23533229539E+01  0.19242179125E+02  0.19409515135E+02  0.51100000000E-03 0. -1.
        -11    1    3    3    0    0  0.22561173240E+01 -0.52070040797E+01  0.29655462697E+01  0.64029229110E+01  0.51100000000E-03 0.  1.
        -12    1    3    3    0    0 -0.87734579954E+01 -0.12204967082E+02  0.16029933612E+02  0.21974839210E+02  0.00000000000E+00 0.  1.
</event>
<event>
 7    1  0.2486105E-010  0.4778727E+02  0.7816164E-02  0.1312668E+00
        -11   -1    0    0    0    0  0.00000000000E+00  0.00000000000E+00  0.45593999997E+02  0.45594000000E+02  0.51100000000E-03 0.  1.
         11   -1    0    0    0    0 -0.00000000000E+00 -0.00000000000E+00 -0.45593999997E+02  0.45594000000E+02  0.51100000000E-03 0. -1.
    9900012    2    1    2    0    0  0.87598107836E+01  0.18155856361E+02  0.38435057943E+02  0.47787273229E+02  0.20000009961E+02 0.  0.
         12    1    1    2    0    0 -0.87598107836E+01 -0.18155856361E+02 -0.38435057943E+02  0.43400726771E+02  0.00000000000E+00 0. -1.
         11    1    3    3    0    0  0.24620886296E+01  0.47832036195E+01  0.38494438278E+01  0.66150688077E+01  0.51100000000E-03 0. -1.
        -11    1    3    3    0    0  0.45342483747E+01  0.17370158990E+02  0.27170644302E+02  0.32565714236E+02  0.51100000000E-03 0.  1.
         12    1    3    3    0    0  0.17634737793E+01 -0.39975062489E+01  0.74149698133E+01  0.86064901854E+01  0.00000000000E+00 0. -1.
</event>
<event>
 7    1  0.2486105E-010  0.4778728E+02  0.7816164E-02  0.1312668E+00
        -11   -1    0    0    0    0  0.00000000000E+00  0.00000000000E+00  0.45593999997E+02  0.45594000000E+02  0.51100000000E-03 0. -1.
         11   -1    0    0    0    0 -0.00000000000E+00 -0.00000000000E+00 -0.45593999997E+02  0.45594000000E+02  0.51100000000E-03 0.  1.
    9900012    2    1    2    0    0  0.42927879212E+02 -0.12930726298E+01  0.62568075500E+01  0.47787280061E+02  0.20000041111E+02 0.  0.
         12    1    1    2    0    0 -0.42927879212E+02  0.12930726298E+01 -0.62568075500E+01  0.43400719939E+02  0.00000000000E+00 0. -1.
         11    1    3    3    0    0  0.61393478065E+01  0.48265657302E+01  0.10794179591E+01  0.78836838869E+01  0.51100000000E-03 0. -1.
        -11    1    3    3    0    0  0.16704404631E+02  0.31579171713E+01 -0.69363350367E+00  0.17014426309E+02  0.51100000000E-03 0.  1.
         12    1    3    3    0    0  0.20084126775E+02 -0.92775555312E+01  0.58710230946E+01  0.22889169865E+02  0.00000000000E+00 0. -1.
</event>
<event>
 7    1  0.2486105E-010  0.4778727E+02  0.7816164E-02  0.1312668E+00
        -11   -1    0    0    0    0  0.00000000000E+00  0.00000000000E+00  0.45593999997E+02  0.45594000000E+02  0.51100000000E-03 0.  1.
         11   -1    0    0    0    0 -0.00000000000E+00 -0.00000000000E+00 -0.45593999997E+02  0.45594000000E+02  0.51100000000E-03 0. -1.
    9900012    2    1    2    0    0 -0.27080739916E+01  0.25634820947E+02  0.34916263449E+02  0.47787272322E+02  0.20000005824E+02 0.  0.
         12    1    1    2    0    0  0.27080739916E+01 -0.25634820947E+02 -0.34916263449E+02  0.43400727678E+02  0.00000000000E+00 0. -1.
         11    1    3    3    0    0 -0.18099301556E+01  0.16805750317E+02  0.14728275315E+02  0.22419437658E+02  0.51100000000E-03 0. -1.
        -11    1    3    3    0    0 -0.52676180674E+00  0.10934738974E+02  0.95823065428E+01  0.14548766043E+02  0.51100000000E-03 0.  1.
         12    1    3    3    0    0 -0.37138202925E+00 -0.21056683447E+01  0.10605681592E+02  0.10819068621E+02  0.00000000000E+00 0. -1.
</event>
<event>
 7    1  0.2486105E-010  0.4778729E+02  0.7816164E-02  0.1312668E+00
        -11   -1    0    0    0    0  0.00000000000E+00  0.00000000000E+00  0.45593999997E+02  0.45594000000E+02  0.51100000000E-03 0.  1.
         11   -1    0    0    0    0 -0.00000000000E+00 -0.00000000000E+00 -0.45593999997E+02  0.45594000000E+02  0.51100000000E-03 0. -1.
    9900012    2    1    2    0    0  0.35687047208E+02 -0.22516161647E+02  0.10152774563E+02  0.47787289118E+02  0.20000082404E+02 0.  0.
         12    1    1    2    0    0 -0.35687047208E+02  0.22516161647E+02 -0.10152774563E+02  0.43400710882E+02  0.00000000000E+00 0. -1.
         11    1    3    3    0    0 -0.84156387406E+00 -0.20560815593E+01 -0.22880188416E+00  0.22333946574E+01  0.51100000000E-03 0. -1.
        -11    1    3    3    0    0  0.10055975219E+02 -0.99246605008E+01  0.95427865686E+01  0.17049524903E+02  0.51100000000E-03 0.  1.
         12    1    3    3    0    0  0.26472635863E+02 -0.10535419586E+02  0.83878987846E+00  0.28504369557E+02  0.00000000000E+00 0. -1.
</event>
<event>
 7    1  0.2486105E-010  0.4778727E+02  0.7816164E-02  0.1312668E+00
        -11   -1    0    0    0    0  0.00000000000E+00  0.00000000000E+00  0.45593999997E+02  0.45594000000E+02  0.51100000000E-03 0.  1.
         11   -1    0    0    0    0 -0.00000000000E+00 -0.00000000000E+00 -0.45593999997E+02  0.45594000000E+02  0.51100000000E-03 0. -1.
    9900012    2    1    2    0    0  0.40276110575E+01  0.30134251882E+02  0.30973026245E+02  0.47787272562E+02  0.20000006920E+02 0.  0.
         12    1    1    2    0    0 -0.40276110575E+01 -0.30134251882E+02 -0.30973026245E+02  0.43400727438E+02  0.00000000000E+00 0. -1.
         11    1    3    3    0    0  0.11652697998E+01  0.14052986599E+02  0.34179184841E+01  0.14509529733E+02  0.51100000000E-03 0. -1.
        -11    1    3    3    0    0 -0.21071032363E+00  0.26611556535E+01  0.22887408344E+00  0.26792782348E+01  0.51100000000E-03 0.  1.
        -12    1    3    3    0    0  0.30730515814E+01  0.13420109630E+02  0.27326233678E+02  0.30598464594E+02  0.00000000000E+00 0.  1.
</event>
<event>
 7    1  0.2486105E-010  0.4778727E+02  0.7816164E-02  0.1312668E+00
        -11   -1    0    0    0    0  0.00000000000E+00  0.00000000000E+00  0.45593999997E+02  0.45594000000E+02  0.51100000000E-03 0.  1.
         11   -1    0    0    0    0 -0.00000000000E+00 -0.00000000000E+00 -0.45593999997E+02  0.45594000000E+02  0.51100000000E-03 0. -1.
    9900012    2    1    2    0    0 -0.36126678669E+01  0.40017177122E+01  0.43064580619E+02  0.47787271692E+02  0.20000002954E+02 0.  0.
         12    1    1    2    0    0  0.36126678669E+01 -0.40017177122E+01 -0.43064580619E+02  0.43400728308E+02  0.00000000000E+00 0. -1.
         11    1    3    3    0    0  0.28645593587E+01  0.16914402717E+01  0.32642777755E+02  0.32811851675E+02  0.51100000000E-03 0. -1.
        -11    1    3    3    0    0 -0.41546824599E+01 -0.20547020309E+01  0.84787023587E+01  0.96628971187E+01  0.51100000000E-03 0.  1.
         12    1    3    3    0    0 -0.23225447656E+01  0.43649794714E+01  0.19431005047E+01  0.53125228983E+01  0.00000000000E+00 0. -1.
</event>
<event>
 7    1  0.2486105E-010  0.4778727E+02  0.7816164E-02  0.1312668E+00
        -11   -1    0    0    0    0  0.00000000000E+00  0.00000000000E+00  0.45593999997E+02  0.45594000000E+02  0.51100000000E-03 0.  1.
         11   -1    0    0    0    0 -0.00000000000E+00 -0.00000000000E+00 -0.45593999997E+02  0.45594000000E+02  0.51100000000E-03 0. -1.
    9900012    2    1    2    0    0  0.13746802432E+02  0.40373260725E+02 -0.80404155736E+01  0.47787273724E+02  0.20000012219E+02 0.  0.
         12    1    1    2    0    0 -0.13746802432E+02 -0.40373260725E+02  0.80404155736E+01  0.43400726276E+02  0.00000000000E+00 0. -1.
         11    1    3    3    0    0  0.95699031885E+01  0.12605687682E+02 -0.48631679033E+01  0.16557077377E+02  0.51100000000E-03 0. -1.
        -11    1    3    3    0    0 -0.12120349009E+01  0.55803635088E+01 -0.59300671192E+01  0.82325683593E+01  0.51100000000E-03 0.  1.
        -12    1    3    3    0    0  0.53889341439E+01  0.22187209535E+02  0.27528194489E+01  0.22997627988E+02  0.00000000000E+00 0.  1.
</event>
<event>
 7    1  0.2486105E-010  0.4778727E+02  0.7816164E-02  0.1312668E+00
        -11   -1    0    0    0    0  0.00000000000E+00  0.00000000000E+00  0.45593999997E+02  0.45594000000E+02  0.51100000000E-03 0. -1.
         11   -1    0    0    0    0 -0.00000000000E+00 -0.00000000000E+00 -0.45593999997E+02  0.45594000000E+02  0.51100000000E-03 0.  1.
    9900012    2    1    2    0    0 -0.28577353281E+02 -0.28155135299E+02 -0.16560380377E+02  0.47787274632E+02  0.20000016357E+02 0.  0.
         12    1    1    2    0    0  0.28577353281E+02  0.28155135299E+02  0.16560380377E+02  0.43400725368E+02  0.00000000000E+00 0. -1.
         11    1    3    3    0    0 -0.12829536270E+01  0.63358599429E+00  0.20749536766E+01  0.25204829383E+01  0.51100000000E-03 0. -1.
        -11    1    3    3    0    0 -0.16539482560E+02 -0.92605434376E+01 -0.82685980254E+01  0.20680470539E+02  0.51100000000E-03 0.  1.
         12    1    3    3    0    0 -0.10754917093E+02 -0.19528177856E+02 -0.10366736028E+02  0.24586321155E+02  0.00000000000E+00 0. -1.
</event>
<event>
 7    1  0.2486105E-010  0.4778727E+02  0.7816164E-02  0.1312668E+00
        -11   -1    0    0    0    0  0.00000000000E+00  0.00000000000E+00  0.45593999997E+02  0.45594000000E+02  0.51100000000E-03 0.  1.
         11   -1    0    0    0    0 -0.00000000000E+00 -0.00000000000E+00 -0.45593999997E+02  0.45594000000E+02  0.51100000000E-03 0. -1.
    9900012    2    1    2    0    0  0.42751692972E+02 -0.74392553996E+01 -0.75739581271E+00  0.47787269346E+02  0.19999992255E+02 0.  0.
         12    1    1    2    0    0 -0.42751692972E+02  0.74392553996E+01  0.75739581271E+00  0.43400730654E+02  0.00000000000E+00 0. -1.
         11    1    3    3    0    0  0.58973485953E+01  0.41838519031E+01 -0.93439396070E+00  0.72908455982E+01  0.51100000000E-03 0. -1.
        -11    1    3    3    0    0  0.24215943663E+01  0.12636026178E+01 -0.24067802163E+01  0.36405222319E+01  0.51100000000E-03 0.  1.
        -12    1    3    3    0    0  0.34432750011E+02 -0.12886709921E+02  0.25837783643E+01  0.36855901516E+02  0.00000000000E+00 0.  1.
</event>
<event>
 7    1  0.2486105E-010  0.4778727E+02  0.7816164E-02  0.1312668E+00
        -11   -1    0    0    0    0  0.00000000000E+00  0.00000000000E+00  0.45593999997E+02  0.45594000000E+02  0.51100000000E-03 0.  1.
         11   -1    0    0    0    0 -0.00000000000E+00 -0.00000000000E+00 -0.45593999997E+02  0.45594000000E+02  0.51100000000E-03 0. -1.
    9900012    2    1    2    0    0  0.17715160799E+02 -0.22207391970E+02  0.32812007355E+02  0.47787274120E+02  0.20000014024E+02 0.  0.
         12    1    1    2    0    0 -0.17715160799E+02  0.22207391970E+02 -0.32812007355E+02  0.43400725880E+02  0.00000000000E+00 0. -1.
         11    1    3    3    0    0 -0.10418092690E-01 -0.20147354324E+01 -0.18203736787E+01  0.27153320221E+01  0.51100000000E-03 0. -1.
        -11    1    3    3    0    0 -0.26174717902E+00  0.36192910891E+00 -0.43431524727E+00  0.62300422208E+00  0.51100000000E-03 0.  1.
        -12    1    3    3    0    0  0.17987326071E+02 -0.20554585646E+02  0.35066696281E+02  0.44448937876E+02  0.00000000000E+00 0.  1.
</event>
<event>
 7    1  0.2486105E-010  0.4778729E+02  0.7816164E-02  0.1312668E+00
        -11   -1    0    0    0    0  0.00000000000E+00  0.00000000000E+00  0.45593999997E+02  0.45594000000E+02  0.51100000000E-03 0. -1.
         11   -1    0    0    0    0 -0.00000000000E+00 -0.00000000000E+00 -0.45593999997E+02  0.45594000000E+02  0.51100000000E-03 0.  1.
    9900012    2    1    2    0    0 -0.36674643533E+02 -0.21461022478E+02 -0.88327262728E+01  0.47787285519E+02  0.20000065996E+02 0.  0.
         12    1    1    2    0    0  0.36674643533E+02  0.21461022478E+02  0.88327262728E+01  0.43400714481E+02  0.00000000000E+00 0. -1.
         11    1    3    3    0    0 -0.11077733740E+02 -0.11444790008E+02 -0.83891407020E+01  0.18002141126E+02  0.51100000000E-03 0. -1.
        -11    1    3    3    0    0 -0.16272257462E+02 -0.11785119345E+02 -0.19072550695E+01  0.20181997500E+02  0.51100000000E-03 0.  1.
         12    1    3    3    0    0 -0.93246523304E+01  0.17688868756E+01  0.14636694987E+01  0.96031468938E+01  0.00000000000E+00 0. -1.
</event>
<event>
 7    1  0.2486105E-010  0.4778727E+02  0.7816164E-02  0.1312668E+00
        -11   -1    0    0    0    0  0.00000000000E+00  0.00000000000E+00  0.45593999997E+02  0.45594000000E+02  0.51100000000E-03 0.  1.
         11   -1    0    0    0    0 -0.00000000000E+00 -0.00000000000E+00 -0.45593999997E+02  0.45594000000E+02  0.51100000000E-03 0. -1.
    9900012    2    1    2    0    0  0.23160471157E+02 -0.23840589274E+02  0.27907750058E+02  0.47787266890E+02  0.19999981059E+02 0.  0.
         12    1    1    2    0    0 -0.23160471157E+02  0.23840589274E+02 -0.27907750058E+02  0.43400733110E+02  0.00000000000E+00 0. -1.
         11    1    3    3    0    0  0.66224726356E+01 -0.39847266323E+01  0.12281611871E+02  0.14511139878E+02  0.51100000000E-03 0. -1.
        -11    1    3    3    0    0 -0.46648626646E+00  0.12768334496E+00 -0.17430790594E+01  0.18089326527E+01  0.51100000000E-03 0.  1.
        -12    1    3    3    0    0  0.17004484788E+02 -0.19983545987E+02  0.17369217246E+02  0.31467194360E+02  0.00000000000E+00 0.  1.
</event>
<event>
 7    1  0.2486105E-010  0.4778727E+02  0.7816164E-02  0.1312668E+00
        -11   -1    0    0    0    0  0.00000000000E+00  0.00000000000E+00  0.45593999997E+02  0.45594000000E+02  0.51100000000E-03 0.  1.
         11   -1    0    0    0    0 -0.00000000000E+00 -0.00000000000E+00 -0.45593999997E+02  0.45594000000E+02  0.51100000000E-03 0. -1.
    9900012    2    1    2    0    0  0.26221539264E+02 -0.33100251681E+02 -0.10021363041E+02  0.47787268440E+02  0.19999988127E+02 0.  0.
         12    1    1    2    0    0 -0.26221539264E+02  0.33100251681E+02  0.10021363041E+02  0.43400731560E+02  0.00000000000E+00 0. -1.
         11    1    3    3    0    0  0.88401073172E+01 -0.17341486313E+02  0.26759846168E+00  0.19466541915E+02  0.51100000000E-03 0. -1.
        -11    1    3    3    0    0  0.41310744370E+01 -0.98400628424E+01 -0.25058446317E+00  0.10674989723E+02  0.51100000000E-03 0.  1.
        -12    1    3    3    0    0  0.13250357510E+02 -0.59187025256E+01 -0.10038377040E+02  0.17645736803E+02  0.00000000000E+00 0.  1.
</event>
<event>
 7    1  0.2486105E-010  0.4778727E+02  0.7816164E-02  0.1312668E+00
        -11   -1    0    0    0    0  0.00000000000E+00  0.00000000000E+00  0.45593999997E+02  0.45594000000E+02  0.51100000000E-03 0.  1.
         11   -1    0    0    0    0 -0.00000000000E+00 -0.00000000000E+00 -0.45593999997E+02  0.45594000000E+02  0.51100000000E-03 0. -1.
    9900012    2    1    2    0    0  0.12035740665E+02 -0.11178380059E+02  0.40172228239E+02  0.47787272405E+02  0.20000006202E+02 0.  0.
         12    1    1    2    0    0 -0.12035740665E+02  0.11178380059E+02 -0.40172228239E+02  0.43400727595E+02  0.00000000000E+00 0. -1.
         11    1    3    3    0    0  0.46275443199E+01 -0.40335114891E+01  0.92387372934E+01  0.11092233698E+02  0.51100000000E-03 0. -1.
        -11    1    3    3    0    0  0.77455230691E+01 -0.76317083880E+01  0.32895244015E+02  0.34645824851E+02  0.51100000000E-03 0.  1.
         12    1    3    3    0    0 -0.33732672387E+00  0.48683981779E+00 -0.19617530688E+01  0.20492138565E+01  0.00000000000E+00 0. -1.
</event>
<event>
 7    1  0.2486105E-010  0.4778729E+02  0.7816164E-02  0.1312668E+00
        -11   -1    0    0    0    0  0.00000000000E+00  0.00000000000E+00  0.45593999997E+02  0.45594000000E+02  0.51100000000E-03 0. -1.
         11   -1    0    0    0    0 -0.00000000000E+00 -0.00000000000E+00 -0.45593999997E+02  0.45594000000E+02  0.51100000000E-03 0.  1.
    9900012    2    1    2    0    0  0.82686643074E+00  0.17344287983E+02 -0.39775795919E+02  0.47787286011E+02  0.20000068241E+02 0.  0.
         12    1    1    2    0    0 -0.82686643074E+00 -0.17344287983E+02  0.39775795919E+02  0.43400713989E+02  0.00000000000E+00 0. -1.
         11    1    3    3    0    0 -0.28458571452E+01 -0.22992950534E+01 -0.11708726092E+02  0.12267026029E+02  0.51100000000E-03 0. -1.
        -11    1    3    3    0    0 -0.24013872305E+01  0.69917262032E+01 -0.12809469232E+02  0.14789638204E+02  0.51100000000E-03 0.  1.
        -12    1    3    3    0    0  0.60741108064E+01  0.12651856834E+02 -0.15257600594E+02  0.20730621778E+02  0.00000000000E+00 0.  1.
</event>
<event>
 7    1  0.2486105E-010  0.4778727E+02  0.7816164E-02  0.1312668E+00
        -11   -1    0    0    0    0  0.00000000000E+00  0.00000000000E+00  0.45593999997E+02  0.45594000000E+02  0.51100000000E-03 0.  1.
         11   -1    0    0    0    0 -0.00000000000E+00 -0.00000000000E+00 -0.45593999997E+02  0.45594000000E+02  0.51100000000E-03 0. -1.
    9900012    2    1    2    0    0  0.39976318476E+02  0.19760465992E+01  0.16781321226E+02  0.47787267965E+02  0.19999985961E+02 0.  0.
         12    1    1    2    0    0 -0.39976318476E+02 -0.19760465992E+01 -0.16781321226E+02  0.43400732035E+02  0.00000000000E+00 0. -1.
         11    1    3    3    0    0  0.16904732790E+02  0.43514718078E+01  0.69083732197E+01  0.18773143540E+02  0.51100000000E-03 0. -1.
        -11    1    3    3    0    0  0.21357180774E+02  0.29305798294E+01  0.90405055500E+01  0.23376231724E+02  0.51100000000E-03 0.  1.
        -12    1    3    3    0    0  0.17144049128E+01 -0.53060050381E+01  0.83244245647E+00  0.56378927014E+01  0.00000000000E+00 0.  1.
</event>
<event>
 7    1  0.2486105E-010  0.4778727E+02  0.7816164E-02  0.1312668E+00
        -11   -1    0    0    0    0  0.00000000000E+00  0.00000000000E+00  0.45593999997E+02  0.45594000000E+02  0.51100000000E-03 0.  1.
         11   -1    0    0    0    0 -0.00000000000E+00 -0.00000000000E+00 -0.45593999997E+02  0.45594000000E+02  0.51100000000E-03 0. -1.
    9900012    2    1    2    0    0  0.39906678722E+02  0.36584544497E+00  0.17057154385E+02  0.47787269992E+02  0.19999995202E+02 0.  0.
         12    1    1    2    0    0 -0.39906678722E+02 -0.36584544497E+00 -0.17057154385E+02  0.43400730008E+02  0.00000000000E+00 0. -1.
         11    1    3    3    0    0  0.10223851684E+02 -0.74094579337E+01  0.81651843804E+01  0.15036537047E+02  0.51100000000E-03 0. -1.
        -11    1    3    3    0    0  0.65829177631E+00  0.45000668120E+00 -0.94939853194E+00  0.12398435020E+01  0.51100000000E-03 0.  1.
        -12    1    3    3    0    0  0.29024535262E+02  0.73252966975E+01  0.98413685367E+01  0.31510889444E+02  0.00000000000E+00 0.  1.
</event>
<event>
 7    1  0.2486105E-010  0.4778727E+02  0.7816164E-02  0.1312668E+00
        -11   -1    0    0    0    0  0.00000000000E+00  0.00000000000E+00  0.45593999997E+02  0.45594000000E+02  0.51100000000E-03 0.  1.
         11   -1    0    0    0    0 -0.00000000000E+00 -0.00000000000E+00 -0.45593999997E+02  0.45594000000E+02  0.51100000000E-03 0. -1.
    9900012    2    1    2    0    0  0.34485503423E+02  0.15274515562E+02 -0.21472365342E+02  0.47787271372E+02  0.20000001495E+02 0.  0.
         12    1    1    2    0    0 -0.34485503423E+02 -0.15274515562E+02  0.21472365342E+02  0.43400728628E+02  0.00000000000E+00 0. -1.
         11    1    3    3    0    0  0.17072996277E+02  0.11513714441E+02 -0.65363394398E+01  0.21605012281E+02  0.51100000000E-03 0. -1.
        -11    1    3    3    0    0  0.17806216863E+02  0.52223350100E+01 -0.10125165831E+02  0.21138900759E+02  0.51100000000E-03 0.  1.
         12    1    3    3    0    0 -0.39370971651E+00 -0.14615338888E+01 -0.48108600713E+01  0.50433583329E+01  0.00000000000E+00 0. -1.
</event>
<event>
 7    1  0.2486105E-010  0.4778727E+02  0.7816164E-02  0.1312668E+00
        -11   -1    0    0    0    0  0.00000000000E+00  0.00000000000E+00  0.45593999997E+02  0.45594000000E+02  0.51100000000E-03 0. -1.
         11   -1    0    0    0    0 -0.00000000000E+00 -0.00000000000E+00 -0.45593999997E+02  0.45594000000E+02  0.51100000000E-03 0.  1.
    9900012    2    1    2    0    0 -0.41208506986E+02  0.44505534911E+01  0.12871471571E+02  0.47787271264E+02  0.20000001003E+02 0.  0.
         12    1    1    2    0    0  0.41208506986E+02 -0.44505534911E+01 -0.12871471571E+02  0.43400728736E+02  0.00000000000E+00 0. -1.
         11    1    3    3    0    0 -0.58168453785E+01 -0.15197265972E+01  0.58905706497E+01  0.84168926527E+01  0.51100000000E-03 0. -1.
        -11    1    3    3    0    0  0.64495546644E+00  0.41170123702E+00 -0.17211478746E+01  0.18835646338E+01  0.51100000000E-03 0.  1.
        -12    1    3    3    0    0 -0.36036617074E+02  0.55585788513E+01  0.87020487962E+01  0.37486813978E+02  0.00000000000E+00 0.  1.
</event>
<event>
 7    1  0.2486105E-010  0.4778728E+02  0.7816164E-02  0.1312668E+00
        -11   -1    0    0    0    0  0.00000000000E+00  0.00000000000E+00  0.45593999997E+02  0.45594000000E+02  0.51100000000E-03 0.  1.
         11   -1    0    0    0    0 -0.00000000000E+00 -0.00000000000E+00 -0.45593999997E+02  0.45594000000E+02  0.51100000000E-03 0. -1.
    9900012    2    1    2    0    0  0.42802313005E+02  0.33088749316E+01 -0.63746460343E+01  0.47787276919E+02  0.20000026785E+02 0.  0.
         12    1    1    2    0    0 -0.42802313005E+02 -0.33088749316E+01  0.63746460343E+01  0.43400723081E+02  0.00000000000E+00 0. -1.
         11    1    3    3    0    0  0.20031501877E+01 -0.22306412188E+01  0.12809560820E+01  0.32602484057E+01  0.51100000000E-03 0. -1.
        -11    1    3    3    0    0  0.97451022475E+01  0.80103662071E+01 -0.87271954164E+00  0.12644944612E+02  0.51100000000E-03 0.  1.
        -12    1    3    3    0    0  0.31054060570E+02 -0.24708500567E+01 -0.67828825746E+01  0.31882083901E+02  0.00000000000E+00 0.  1.
</event>
<event>
 7    1  0.2486105E-010  0.4778726E+02  0.7816164E-02  0.1312668E+00
        -11   -1    0    0    0    0  0.00000000000E+00  0.00000000000E+00  0.45593999997E+02  0.45594000000E+02  0.51100000000E-03 0.  1.
         11   -1    0    0    0    0 -0.00000000000E+00 -0.00000000000E+00 -0.45593999997E+02  0.45594000000E+02  0.51100000000E-03 0. -1.
    9900012    2    1    2    0    0  0.30011190094E+00  0.41503866952E+02  0.12687110928E+02  0.47787264721E+02  0.19999971168E+02 0.  0.
         12    1    1    2    0    0 -0.30011190094E+00 -0.41503866952E+02 -0.12687110928E+02  0.43400735279E+02  0.00000000000E+00 0. -1.
         11    1    3    3    0    0  0.49039482935E+01  0.91834835900E+01 -0.16642579673E+01  0.10542999315E+02  0.51100000000E-03 0. -1.
        -11    1    3    3    0    0  0.10219356624E+01  0.21680027191E+02  0.57566594585E+01  0.22454555437E+02  0.51100000000E-03 0.  1.
        -12    1    3    3    0    0 -0.56257720549E+01  0.10640356171E+02  0.85947094368E+01  0.14789709969E+02  0.00000000000E+00 0.  1.
</event>
<event>
 7    1  0.2486105E-010  0.4778727E+02  0.7816164E-02  0.1312668E+00
        -11   -1    0    0    0    0  0.00000000000E+00  0.00000000000E+00  0.45593999997E+02  0.45594000000E+02  0.51100000000E-03 0.  1.
         11   -1    0    0    0    0 -0.00000000000E+00 -0.00000000000E+00 -0.45593999997E+02  0.45594000000E+02  0.51100000000E-03 0. -1.
    9900012    2    1    2    0    0  0.29849834633E+02  0.28037656409E+01 -0.31380714752E+02  0.47787274341E+02  0.20000015030E+02 0.  0.
         12    1    1    2    0    0 -0.29849834633E+02 -0.28037656409E+01  0.31380714752E+02  0.43400725659E+02  0.00000000000E+00 0. -1.
         11    1    3    3    0    0  0.27725006154E+01  0.49411332618E+01 -0.46746551838E+01  0.73453358617E+01  0.51100000000E-03 0. -1.
        -11    1    3    3    0    0  0.93395302627E+01  0.61718241430E+00 -0.18440500699E+02  0.20679937281E+02  0.51100000000E-03 0.  1.
         12    1    3    3    0    0  0.17737803755E+02 -0.27545500352E+01 -0.82655588695E+01  0.19762001198E+02  0.00000000000E+00 0. -1.
</event>
<event>
 7    1  0.2486105E-010  0.4778727E+02  0.7816164E-02  0.1312668E+00
        -11   -1    0    0    0    0  0.00000000000E+00  0.00000000000E+00  0.45593999997E+02  0.45594000000E+02  0.51100000000E-03 0. -1.
         11   -1    0    0    0    0 -0.00000000000E+00 -0.00000000000E+00 -0.45593999997E+02  0.45594000000E+02  0.51100000000E-03 0.  1.
    9900012    2    1    2    0    0 -0.27872655166E+02 -0.81110798082E+01 -0.32263738729E+02  0.47787270070E+02  0.19999995559E+02 0.  0.
         12    1    1    2    0    0  0.27872655166E+02  0.81110798082E+01  0.32263738729E+02  0.43400729930E+02  0.00000000000E+00 0. -1.
         11    1    3    3    0    0 -0.16590256562E+02  0.18111462635E+01 -0.15975230002E+02  0.23102485526E+02  0.51100000000E-03 0.  1.
        -11    1    3    3    0    0 -0.45469261352E+01 -0.27282021343E+01 -0.13406458511E+02  0.14417030008E+02  0.51100000000E-03 0. -1.
        -12    1    3    3    0    0 -0.67354724680E+01 -0.71940239375E+01 -0.28820502155E+01  0.10267754537E+02  0.00000000000E+00 0.  1.
</event>
<event>
 7    1  0.2486105E-010  0.4778728E+02  0.7816164E-02  0.1312668E+00
        -11   -1    0    0    0    0  0.00000000000E+00  0.00000000000E+00  0.45593999997E+02  0.45594000000E+02  0.51100000000E-03 0.  1.
         11   -1    0    0    0    0 -0.00000000000E+00 -0.00000000000E+00 -0.45593999997E+02  0.45594000000E+02  0.51100000000E-03 0. -1.
    9900012    2    1    2    0    0 -0.17506664576E+02  0.36759755474E+02  0.15028630644E+02  0.47787278046E+02  0.20000031925E+02 0.  0.
         12    1    1    2    0    0  0.17506664576E+02 -0.36759755474E+02 -0.15028630644E+02  0.43400721954E+02  0.00000000000E+00 0. -1.
         11    1    3    3    0    0 -0.39001615144E+01  0.16949918651E+02 -0.18436189355E+00  0.17393820503E+02  0.51100000000E-03 0. -1.
        -11    1    3    3    0    0 -0.35739813274E+01  0.14460112674E+02  0.95247788078E+01  0.17680203977E+02  0.51100000000E-03 0.  1.
         12    1    3    3    0    0 -0.10032521734E+02  0.53497241490E+01  0.56882137298E+01  0.12713253567E+02  0.00000000000E+00 0. -1.
</event>
<event>
 7    1  0.2486105E-010  0.4778729E+02  0.7816164E-02  0.1312668E+00
        -11   -1    0    0    0    0  0.00000000000E+00  0.00000000000E+00  0.45593999997E+02  0.45594000000E+02  0.51100000000E-03 0.  1.
         11   -1    0    0    0    0 -0.00000000000E+00 -0.00000000000E+00 -0.45593999997E+02  0.45594000000E+02  0.51100000000E-03 0. -1.
    9900012    2    1    2    0    0  0.93582395042E+01  0.13333350750E+01  0.42358793220E+02  0.47787288116E+02  0.20000077835E+02 0.  0.
         12    1    1    2    0    0 -0.93582395042E+01 -0.13333350750E+01 -0.42358793220E+02  0.43400711884E+02  0.00000000000E+00 0. -1.
         11    1    3    3    0    0 -0.20959476632E+01 -0.14701476780E+01  0.17654201670E+02  0.17838866771E+02  0.51100000000E-03 0. -1.
        -11    1    3    3    0    0  0.14894451769E+01 -0.39224545883E+01  0.30737885197E+01  0.52011799678E+01  0.51100000000E-03 0.  1.
         12    1    3    3    0    0  0.99647419905E+01  0.67259373413E+01  0.21630803030E+02  0.24747241377E+02  0.00000000000E+00 0. -1.
</event>
<event>
 7    1  0.2486105E-010  0.4778728E+02  0.7816164E-02  0.1312668E+00
        -11   -1    0    0    0    0  0.00000000000E+00  0.00000000000E+00  0.45593999997E+02  0.45594000000E+02  0.51100000000E-03 0.  1.
         11   -1    0    0    0    0 -0.00000000000E+00 -0.00000000000E+00 -0.45593999997E+02  0.45594000000E+02  0.51100000000E-03 0. -1.
    9900012    2    1    2    0    0 -0.21472988532E+02 -0.36111351930E+02  0.10885948007E+02  0.47787276057E+02  0.20000022856E+02 0.  0.
         12    1    1    2    0    0  0.21472988532E+02  0.36111351930E+02 -0.10885948007E+02  0.43400723943E+02  0.00000000000E+00 0. -1.
         11    1    3    3    0    0 -0.33361024122E+00 -0.45445454867E+00 -0.12733635492E+01  0.13925802381E+01  0.51100000000E-03 0. -1.
        -11    1    3    3    0    0 -0.21669401855E+02 -0.26316219404E+02  0.14012451035E+02  0.36857226764E+02  0.51100000000E-03 0.  1.
         12    1    3    3    0    0  0.53002356381E+00 -0.93406779772E+01 -0.18531394786E+01  0.95374690552E+01  0.00000000000E+00 0. -1.
</event>
<event>
 7    1  0.2486105E-010  0.4778728E+02  0.7816164E-02  0.1312668E+00
        -11   -1    0    0    0    0  0.00000000000E+00  0.00000000000E+00  0.45593999997E+02  0.45594000000E+02  0.51100000000E-03 0. -1.
         11   -1    0    0    0    0 -0.00000000000E+00 -0.00000000000E+00 -0.45593999997E+02  0.45594000000E+02  0.51100000000E-03 0.  1.
    9900012    2    1    2    0    0  0.12157274494E+02 -0.34035860327E+02 -0.24028811830E+02  0.47787275245E+02  0.20000019152E+02 0.  0.
         12    1    1    2    0    0 -0.12157274494E+02  0.34035860327E+02  0.24028811830E+02  0.43400724755E+02  0.00000000000E+00 0. -1.
         11    1    3    3    0    0  0.16100198277E+00 -0.98386199914E+01 -0.11702440570E+02  0.15289587324E+02  0.51100000000E-03 0.  1.
        -11    1    3    3    0    0  0.99490843386E+01 -0.23369500258E+02 -0.14626142120E+02  0.29309415809E+02  0.51100000000E-03 0. -1.
         12    1    3    3    0    0  0.20471881730E+01 -0.82774007729E+00  0.22997708603E+01  0.31882721121E+01  0.00000000000E+00 0. -1.
</event>
<event>
 7    1  0.2486105E-010  0.4778726E+02  0.7816164E-02  0.1312668E+00
        -11   -1    0    0    0    0  0.00000000000E+00  0.00000000000E+00  0.45593999997E+02  0.45594000000E+02  0.51100000000E-03 0.  1.
         11   -1    0    0    0    0 -0.00000000000E+00 -0.00000000000E+00 -0.45593999997E+02  0.45594000000E+02  0.51100000000E-03 0. -1.
    9900012    2    1    2    0    0  0.55446271091E+01 -0.42892447133E+02  0.36220322091E+01  0.47787262354E+02  0.19999960378E+02 0.  0.
         12    1    1    2    0    0 -0.55446271091E+01  0.42892447133E+02 -0.36220322091E+01  0.43400737646E+02  0.00000000000E+00 0. -1.
         11    1    3    3    0    0  0.52964422856E+01 -0.75227428778E+01 -0.82759743709E+00  0.92373632098E+01  0.51100000000E-03 0. -1.
        -11    1    3    3    0    0  0.30478000653E+01 -0.34818117612E+02  0.23940511503E+01  0.35033154019E+02  0.51100000000E-03 0.  1.
         12    1    3    3    0    0 -0.27996152419E+01 -0.55158664310E+00  0.20555784960E+01  0.35167451259E+01  0.00000000000E+00 0. -1.
</event>
<event>
 7    1  0.2486105E-010  0.4778727E+02  0.7816164E-02  0.1312668E+00
        -11   -1    0    0    0    0  0.00000000000E+00  0.00000000000E+00  0.45593999997E+02  0.45594000000E+02  0.51100000000E-03 0. -1.
         11   -1    0    0    0    0 -0.00000000000E+00 -0.00000000000E+00 -0.45593999997E+02  0.45594000000E+02  0.51100000000E-03 0.  1.
    9900012    2    1    2    0    0  0.20671994161E+02 -0.31992510201E+02 -0.20803148379E+02  0.47787273808E+02  0.20000012599E+02 0.  0.
         12    1    1    2    0    0 -0.20671994161E+02  0.31992510201E+02  0.20803148379E+02  0.43400726192E+02  0.00000000000E+00 0. -1.
         11    1    3    3    0    0  0.97555905306E+01 -0.27846047662E+01 -0.74072928804E+01  0.12561590599E+02  0.51100000000E-03 0. -1.
        -11    1    3    3    0    0  0.23503707480E+01 -0.84175976652E+01 -0.85444349098E+01  0.12222420435E+02  0.51100000000E-03 0.  1.
         12    1    3    3    0    0  0.85660328827E+01 -0.20790307769E+02 -0.48514205886E+01  0.23003262773E+02  0.00000000000E+00 0. -1.
</event>
<event>
 7    1  0.2486105E-010  0.4778727E+02  0.7816164E-02  0.1312668E+00
        -11   -1    0    0    0    0  0.00000000000E+00  0.00000000000E+00  0.45593999997E+02  0.45594000000E+02  0.51100000000E-03 0.  1.
         11   -1    0    0    0    0 -0.00000000000E+00 -0.00000000000E+00 -0.45593999997E+02  0.45594000000E+02  0.51100000000E-03 0. -1.
    9900012    2    1    2    0    0  0.16370121873E+02 -0.24439862610E+02  0.31911371070E+02  0.47787269843E+02  0.19999994523E+02 0.  0.
         12    1    1    2    0    0 -0.16370121873E+02  0.24439862610E+02 -0.31911371070E+02  0.43400730157E+02  0.00000000000E+00 0. -1.
         11    1    3    3    0    0  0.14467640047E+02 -0.19222423097E+02  0.20308562407E+02  0.31484152610E+02  0.51100000000E-03 0. -1.
        -11    1    3    3    0    0  0.56430379234E+01 -0.89012365558E+00  0.62801646303E+01  0.84897977110E+01  0.51100000000E-03 0.  1.
        -12    1    3    3    0    0 -0.37405560979E+01 -0.43273158574E+01  0.53226440333E+01  0.78133195223E+01  0.00000000000E+00 0.  1.
</event>
<event>
 7    1  0.2486105E-010  0.4778727E+02  0.7816164E-02  0.1312668E+00
        -11   -1    0    0    0    0  0.00000000000E+00  0.00000000000E+00  0.45593999997E+02  0.45594000000E+02  0.51100000000E-03 0.  1.
         11   -1    0    0    0    0 -0.00000000000E+00 -0.00000000000E+00 -0.45593999997E+02  0.45594000000E+02  0.51100000000E-03 0. -1.
    9900012    2    1    2    0    0 -0.87721368629E+01  0.28889773002E+02  0.31177780718E+02  0.47787269825E+02  0.19999994439E+02 0.  0.
         12    1    1    2    0    0  0.87721368629E+01 -0.28889773002E+02 -0.31177780718E+02  0.43400730175E+02  0.00000000000E+00 0. -1.
         11    1    3    3    0    0 -0.18966144399E+01  0.10616831548E+02  0.14361852332E+02  0.17960430427E+02  0.51100000000E-03 0. -1.
        -11    1    3    3    0    0 -0.16628063264E+01  0.16309586386E+02  0.17768060881E+02  0.24175845811E+02  0.51100000000E-03 0.  1.
         12    1    3    3    0    0 -0.52127160966E+01  0.19633550671E+01 -0.95213249458E+00  0.56509935862E+01  0.00000000000E+00 0. -1.
</event>
<event>
 7    1  0.2486105E-010  0.4778727E+02  0.7816164E-02  0.1312668E+00
        -11   -1    0    0    0    0  0.00000000000E+00  0.00000000000E+00  0.45593999997E+02  0.45594000000E+02  0.51100000000E-03 0. -1.
         11   -1    0    0    0    0 -0.00000000000E+00 -0.00000000000E+00 -0.45593999997E+02  0.45594000000E+02  0.51100000000E-03 0.  1.
    9900012    2    1    2    0    0  0.38273032005E+02  0.57083796078E+00 -0.20456591475E+02  0.47787274550E+02  0.20000015983E+02 0.  0.
         12    1    1    2    0    0 -0.38273032005E+02 -0.57083796078E+00  0.20456591475E+02  0.43400725450E+02  0.00000000000E+00 0. -1.
         11    1    3    3    0    0  0.26079489884E+02  0.18257843174E+01 -0.30114704066E+01  0.26316197204E+02  0.51100000000E-03 0. -1.
        -11    1    3    3    0    0  0.48079046037E+01 -0.18778134979E+00 -0.48535418425E+01  0.68343307786E+01  0.51100000000E-03 0.  1.
         12    1    3    3    0    0  0.73856375167E+01 -0.10671650068E+01 -0.12591579226E+02  0.14636746568E+02  0.00000000000E+00 0. -1.
</event>
<event>
 7    1  0.2486105E-010  0.4778727E+02  0.7816164E-02  0.1312668E+00
        -11   -1    0    0    0    0  0.00000000000E+00  0.00000000000E+00  0.45593999997E+02  0.45594000000E+02  0.51100000000E-03 0.  1.
         11   -1    0    0    0    0 -0.00000000000E+00 -0.00000000000E+00 -0.45593999997E+02  0.45594000000E+02  0.51100000000E-03 0. -1.
    9900012    2    1    2    0    0  0.39482066008E+02 -0.10313259298E+02  0.14779253676E+02  0.47787271978E+02  0.20000004258E+02 0.  0.
         12    1    1    2    0    0 -0.39482066008E+02  0.10313259298E+02 -0.14779253676E+02  0.43400728022E+02  0.00000000000E+00 0. -1.
         11    1    3    3    0    0  0.14147663191E+02 -0.27297230908E+01  0.58124967583E+01  0.15536823380E+02  0.51100000000E-03 0. -1.
        -11    1    3    3    0    0  0.94884889234E+01  0.19991530511E+01  0.97029462431E+01  0.13717696637E+02  0.51100000000E-03 0.  1.
         12    1    3    3    0    0  0.15845913894E+02 -0.95826892580E+01 -0.73618932519E+00  0.18532751962E+02  0.00000000000E+00 0. -1.
</event>
<event>
 7    1  0.2486105E-010  0.4778727E+02  0.7816164E-02  0.1312668E+00
        -11   -1    0    0    0    0  0.00000000000E+00  0.00000000000E+00  0.45593999997E+02  0.45594000000E+02  0.51100000000E-03 0.  1.
         11   -1    0    0    0    0 -0.00000000000E+00 -0.00000000000E+00 -0.45593999997E+02  0.45594000000E+02  0.51100000000E-03 0. -1.
    9900012    2    1    2    0    0  0.16494317519E+02 -0.40049839850E+02  0.27515690966E+01  0.47787270571E+02  0.19999997842E+02 0.  0.
         12    1    1    2    0    0 -0.16494317519E+02  0.40049839850E+02 -0.27515690966E+01  0.43400729429E+02  0.00000000000E+00 0. -1.
         11    1    3    3    0    0  0.31907518932E+01 -0.20949351273E+02  0.44107139510E+01  0.21645106011E+02  0.51100000000E-03 0. -1.
        -11    1    3    3    0    0  0.10358473324E+02 -0.20392631909E+02 -0.15194028510E+01  0.22923044978E+02  0.51100000000E-03 0.  1.
        -12    1    3    3    0    0  0.29450923023E+01  0.12921433315E+01 -0.13974200345E+00  0.32191195824E+01  0.00000000000E+00 0.  1.
</event>
<event>
 7    1  0.2486105E-010  0.4778728E+02  0.7816164E-02  0.1312668E+00
        -11   -1    0    0    0    0  0.00000000000E+00  0.00000000000E+00  0.45593999997E+02  0.45594000000E+02  0.51100000000E-03 0.  1.
         11   -1    0    0    0    0 -0.00000000000E+00 -0.00000000000E+00 -0.45593999997E+02  0.45594000000E+02  0.51100000000E-03 0. -1.
    9900012    2    1    2    0    0 -0.36673103204E+02  0.18981756817E+02 -0.13356618961E+02  0.47787275806E+02  0.20000021712E+02 0.  0.
         12    1    1    2    0    0  0.36673103204E+02 -0.18981756817E+02  0.13356618961E+02  0.43400724194E+02  0.00000000000E+00 0. -1.
         11    1    3    3    0    0 -0.41020460647E+01 -0.23793938022E+01 -0.95290469108E+00  0.48369747151E+01  0.51100000000E-03 0. -1.
        -11    1    3    3    0    0 -0.15171415627E+02  0.93656351404E+01  0.11122194889E+01  0.17864042269E+02  0.51100000000E-03 0.  1.
         12    1    3    3    0    0 -0.17399641512E+02  0.11995515479E+02 -0.13515933759E+02  0.25086258823E+02  0.00000000000E+00 0. -1.
</event>
<event>
 7    1  0.2486105E-010  0.4778728E+02  0.7816164E-02  0.1312668E+00
        -11   -1    0    0    0    0  0.00000000000E+00  0.00000000000E+00  0.45593999997E+02  0.45594000000E+02  0.51100000000E-03 0. -1.
         11   -1    0    0    0    0 -0.00000000000E+00 -0.00000000000E+00 -0.45593999997E+02  0.45594000000E+02  0.51100000000E-03 0.  1.
    9900012    2    1    2    0    0 -0.14360446272E+01  0.57340577927E+01 -0.42996293434E+02  0.47787275444E+02  0.20000020059E+02 0.  0.
         12    1    1    2    0    0  0.14360446272E+01 -0.57340577927E+01  0.42996293434E+02  0.43400724556E+02  0.00000000000E+00 0. -1.
         11    1    3    3    0    0 -0.14139235689E+01 -0.23104597484E+01 -0.37268349570E+01  0.46072446392E+01  0.51100000000E-03 0. -1.
        -11    1    3    3    0    0 -0.34621059582E+01 -0.12958917480E+01 -0.27580909485E+02  0.27827541777E+02  0.51100000000E-03 0.  1.
        -12    1    3    3    0    0  0.34399848999E+01  0.93404092891E+01 -0.11688548992E+02  0.15352489028E+02  0.00000000000E+00 0.  1.
</event>
<event>
 7    1  0.2486105E-010  0.4778727E+02  0.7816164E-02  0.1312668E+00
        -11   -1    0    0    0    0  0.00000000000E+00  0.00000000000E+00  0.45593999997E+02  0.45594000000E+02  0.51100000000E-03 0.  1.
         11   -1    0    0    0    0 -0.00000000000E+00 -0.00000000000E+00 -0.45593999997E+02  0.45594000000E+02  0.51100000000E-03 0. -1.
    9900012    2    1    2    0    0 -0.26626119442E+02 -0.83432758399E+00  0.34263346269E+02  0.47787271474E+02  0.20000001959E+02 0.  0.
         12    1    1    2    0    0  0.26626119442E+02  0.83432758399E+00 -0.34263346269E+02  0.43400728526E+02  0.00000000000E+00 0. -1.
         11    1    3    3    0    0  0.14090923800E+01  0.10964623964E+00  0.31374022543E+01  0.34410546057E+01  0.51100000000E-03 0.  1.
        -11    1    3    3    0    0 -0.44683742607E+01  0.45371357730E+01  0.11685603049E+02  0.13308091089E+02  0.51100000000E-03 0. -1.
        -12    1    3    3    0    0 -0.23566837561E+02 -0.54811095967E+01  0.19440340965E+02  0.31038125779E+02  0.00000000000E+00 0.  1.
</event>
<event>
 7    1  0.2486105E-010  0.4778727E+02  0.7816164E-02  0.1312668E+00
        -11   -1    0    0    0    0  0.00000000000E+00  0.00000000000E+00  0.45593999997E+02  0.45594000000E+02  0.51100000000E-03 0.  1.
         11   -1    0    0    0    0 -0.00000000000E+00 -0.00000000000E+00 -0.45593999997E+02  0.45594000000E+02  0.51100000000E-03 0. -1.
    9900012    2    1    2    0    0 -0.20515334896E+02 -0.37485823682E+02  0.75866557451E+01  0.47787270877E+02  0.19999999238E+02 0.  0.
         12    1    1    2    0    0  0.20515334896E+02  0.37485823682E+02 -0.75866557451E+01  0.43400729123E+02  0.00000000000E+00 0. -1.
         11    1    3    3    0    0  0.21494352971E+01 -0.90204160035E+01  0.12232593578E+01  0.93533064041E+01  0.51100000000E-03 0. -1.
        -11    1    3    3    0    0 -0.74142065893E+01 -0.16737921950E+02  0.46761185616E+00  0.18312486223E+02  0.51100000000E-03 0.  1.
         12    1    3    3    0    0 -0.15250563604E+02 -0.11727485728E+02  0.58957845311E+01  0.20121478250E+02  0.00000000000E+00 0. -1.
</event>
<event>
 7    1  0.2486105E-010  0.4778727E+02  0.7816164E-02  0.1312668E+00
        -11   -1    0    0    0    0  0.00000000000E+00  0.00000000000E+00  0.45593999997E+02  0.45594000000E+02  0.51100000000E-03 0.  1.
         11   -1    0    0    0    0 -0.00000000000E+00 -0.00000000000E+00 -0.45593999997E+02  0.45594000000E+02  0.51100000000E-03 0. -1.
    9900012    2    1    2    0    0 -0.34548038089E+02  0.21438937902E+02  0.15179875699E+02  0.47787267053E+02  0.19999981800E+02 0.  0.
         12    1    1    2    0    0  0.34548038089E+02 -0.21438937902E+02 -0.15179875699E+02  0.43400732947E+02  0.00000000000E+00 0. -1.
         11    1    3    3    0    0 -0.62540858878E+01  0.82515390883E+01  0.56800824546E+00  0.10369383841E+02  0.51100000000E-03 0. -1.
        -11    1    3    3    0    0 -0.16493358123E+02  0.15032373878E+02  0.76373731611E+01  0.23586703789E+02  0.51100000000E-03 0.  1.
        -12    1    3    3    0    0 -0.11800594078E+02 -0.18449750641E+01  0.69744942921E+01  0.13831179422E+02  0.00000000000E+00 0.  1.
</event>
<event>
 7    1  0.2486105E-010  0.4778727E+02  0.7816164E-02  0.1312668E+00
        -11   -1    0    0    0    0  0.00000000000E+00  0.00000000000E+00  0.45593999997E+02  0.45594000000E+02  0.51100000000E-03 0.  1.
         11   -1    0    0    0    0 -0.00000000000E+00 -0.00000000000E+00 -0.45593999997E+02  0.45594000000E+02  0.51100000000E-03 0. -1.
    9900012    2    1    2    0    0 -0.31042308576E+02 -0.42503794139E+00  0.30328498886E+02  0.47787269319E+02  0.19999992132E+02 0.  0.
         12    1    1    2    0    0  0.31042308576E+02  0.42503794139E+00 -0.30328498886E+02  0.43400730681E+02  0.00000000000E+00 0. -1.
         11    1    3    3    0    0 -0.21434630773E+02  0.74227871978E+01  0.17844959225E+02  0.28861457624E+02  0.51100000000E-03 0. -1.
        -11    1    3    3    0    0 -0.42167539081E+01 -0.20510515864E+01  0.71603855329E+00  0.47434731582E+01  0.51100000000E-03 0.  1.
         12    1    3    3    0    0 -0.53909238955E+01 -0.57967735528E+01  0.11767501107E+02  0.14182338537E+02  0.00000000000E+00 0. -1.
</event>
<event>
 7    1  0.2486105E-010  0.4778727E+02  0.7816164E-02  0.1312668E+00
        -11   -1    0    0    0    0  0.00000000000E+00  0.00000000000E+00  0.45593999997E+02  0.45594000000E+02  0.51100000000E-03 0.  1.
         11   -1    0    0    0    0 -0.00000000000E+00 -0.00000000000E+00 -0.45593999997E+02  0.45594000000E+02  0.51100000000E-03 0. -1.
    9900012    2    1    2    0    0 -0.19241610882E+02 -0.35100223295E+02  0.16773737452E+02  0.47787268062E+02  0.19999986400E+02 0.  0.
         12    1    1    2    0    0  0.19241610882E+02  0.35100223295E+02 -0.16773737452E+02  0.43400731938E+02  0.00000000000E+00 0. -1.
         11    1    3    3    0    0 -0.33910388119E+00 -0.50670232936E+01  0.38185315926E+01  0.63538099031E+01  0.51100000000E-03 0. -1.
        -11    1    3    3    0    0 -0.60444265875E+01 -0.20365678767E+02  0.13786246708E+02  0.25325018519E+02  0.51100000000E-03 0.  1.
         12    1    3    3    0    0 -0.12858080413E+02 -0.96675212343E+01 -0.83104084943E+00  0.16108439640E+02  0.00000000000E+00 0. -1.
</event>
<event>
 7    1  0.2486105E-010  0.4778726E+02  0.7816164E-02  0.1312668E+00
        -11   -1    0    0    0    0  0.00000000000E+00  0.00000000000E+00  0.45593999997E+02  0.45594000000E+02  0.51100000000E-03 0.  1.
         11   -1    0    0    0    0 -0.00000000000E+00 -0.00000000000E+00 -0.45593999997E+02  0.45594000000E+02  0.51100000000E-03 0. -1.
    9900012    2    1    2    0    0  0.30767912054E+02 -0.72319315577E+01  0.29743217414E+02  0.47787260049E+02  0.19999949866E+02 0.  0.
         12    1    1    2    0    0 -0.30767912054E+02  0.72319315577E+01 -0.29743217414E+02  0.43400739951E+02  0.00000000000E+00 0. -1.
         11    1    3    3    0    0  0.53122799615E+01  0.28935819605E+01  0.54678674218E+01  0.81541835493E+01  0.51100000000E-03 0. -1.
        -11    1    3    3    0    0  0.17366121700E+02  0.10677054569E+01  0.11805895983E+02  0.21026206460E+02  0.51100000000E-03 0.  1.
        -12    1    3    3    0    0  0.80895103921E+01 -0.11193218975E+02  0.12469454008E+02  0.18606870040E+02  0.00000000000E+00 0.  1.
</event>
<event>
 7    1  0.2486105E-010  0.4778725E+02  0.7816164E-02  0.1312668E+00
        -11   -1    0    0    0    0  0.00000000000E+00  0.00000000000E+00  0.45593999997E+02  0.45594000000E+02  0.51100000000E-03 0. -1.
         11   -1    0    0    0    0 -0.00000000000E+00 -0.00000000000E+00 -0.45593999997E+02  0.45594000000E+02  0.51100000000E-03 0.  1.
    9900012    2    1    2    0    0 -0.33862051573E+02  0.20464878503E+02 -0.17837461442E+02  0.47787253237E+02  0.19999918809E+02 0.  0.
         12    1    1    2    0    0  0.33862051573E+02 -0.20464878503E+02  0.17837461442E+02  0.43400746763E+02  0.00000000000E+00 0. -1.
         11    1    3    3    0    0 -0.24490119599E+02  0.12266812207E+02 -0.14191732415E+02  0.30848758628E+02  0.51100000000E-03 0. -1.
        -11    1    3    3    0    0 -0.70916524747E+01  0.92124002136E+01 -0.63595663067E+01  0.13251563545E+02  0.51100000000E-03 0.  1.
         12    1    3    3    0    0 -0.22802794990E+01 -0.10143339179E+01  0.27138372793E+01  0.36869310637E+01  0.00000000000E+00 0. -1.
</event>
<event>
 7    1  0.2486105E-010  0.4778727E+02  0.7816164E-02  0.1312668E+00
        -11   -1    0    0    0    0  0.00000000000E+00  0.00000000000E+00  0.45593999997E+02  0.45594000000E+02  0.51100000000E-03 0. -1.
         11   -1    0    0    0    0 -0.00000000000E+00 -0.00000000000E+00 -0.45593999997E+02  0.45594000000E+02  0.51100000000E-03 0.  1.
    9900012    2    1    2    0    0 -0.38737505155E+02  0.17740323254E+02  0.82649717742E+01  0.47787272665E+02  0.20000007387E+02 0.  0.
         12    1    1    2    0    0  0.38737505155E+02 -0.17740323254E+02 -0.82649717742E+01  0.43400727335E+02  0.00000000000E+00 0. -1.
         11    1    3    3    0    0 -0.15901696997E+02 -0.19882833628E+01  0.12622331170E+01  0.16075150725E+02  0.51100000000E-03 0. -1.
        -11    1    3    3    0    0 -0.11926539877E+02  0.62822283478E+01  0.16054847447E+01  0.13575210053E+02  0.51100000000E-03 0.  1.
         12    1    3    3    0    0 -0.10909268281E+02  0.13446378269E+02  0.53972539126E+01  0.18136911886E+02  0.00000000000E+00 0. -1.
</event>
<event>
 7    1  0.2486105E-010  0.4778727E+02  0.7816164E-02  0.1312668E+00
        -11   -1    0    0    0    0  0.00000000000E+00  0.00000000000E+00  0.45593999997E+02  0.45594000000E+02  0.51100000000E-03 0.  1.
         11   -1    0    0    0    0 -0.00000000000E+00 -0.00000000000E+00 -0.45593999997E+02  0.45594000000E+02  0.51100000000E-03 0. -1.
    9900012    2    1    2    0    0  0.40916986437E+02 -0.20102404562E+01  0.14331168439E+02  0.47787271497E+02  0.20000002062E+02 0.  0.
         12    1    1    2    0    0 -0.40916986437E+02  0.20102404562E+01 -0.14331168439E+02  0.43400728503E+02  0.00000000000E+00 0. -1.
         11    1    3    3    0    0  0.16905758058E+02  0.22148939341E+01  0.52527597899E+01  0.17841017245E+02  0.51100000000E-03 0. -1.
        -11    1    3    3    0    0  0.22132934364E+02 -0.24742049108E+01  0.12599873587E+02  0.25587991093E+02  0.51100000000E-03 0.  1.
         12    1    3    3    0    0  0.18782940150E+01 -0.17509294795E+01 -0.35214649383E+01  0.43582631587E+01  0.00000000000E+00 0. -1.
</event>
<event>
 7    1  0.2486105E-010  0.4778727E+02  0.7816164E-02  0.1312668E+00
        -11   -1    0    0    0    0  0.00000000000E+00  0.00000000000E+00  0.45593999997E+02  0.45594000000E+02  0.51100000000E-03 0.  1.
         11   -1    0    0    0    0 -0.00000000000E+00 -0.00000000000E+00 -0.45593999997E+02  0.45594000000E+02  0.51100000000E-03 0. -1.
    9900012    2    1    2    0    0 -0.33175709628E+02 -0.22274860355E+02 -0.16935947160E+02  0.47787269368E+02  0.19999992357E+02 0.  0.
         12    1    1    2    0    0  0.33175709628E+02  0.22274860355E+02  0.16935947160E+02  0.43400730632E+02  0.00000000000E+00 0. -1.
         11    1    3    3    0    0 -0.13666097345E+02 -0.85036606535E+01 -0.96336085248E+01  0.18758488069E+02  0.51100000000E-03 0. -1.
        -11    1    3    3    0    0 -0.20296217938E+02 -0.12980804113E+02 -0.10018749830E+02  0.26092395183E+02  0.51100000000E-03 0.  1.
         12    1    3    3    0    0  0.78660565500E+00 -0.79039558870E+00  0.27164111945E+01  0.29363861158E+01  0.00000000000E+00 0. -1.
</event>
<event>
 7    1  0.2486105E-010  0.4778727E+02  0.7816164E-02  0.1312668E+00
        -11   -1    0    0    0    0  0.00000000000E+00  0.00000000000E+00  0.45593999997E+02  0.45594000000E+02  0.51100000000E-03 0.  1.
         11   -1    0    0    0    0 -0.00000000000E+00 -0.00000000000E+00 -0.45593999997E+02  0.45594000000E+02  0.51100000000E-03 0. -1.
    9900012    2    1    2    0    0 -0.24584000437E+01 -0.29832818694E+02  0.31425826634E+02  0.47787269803E+02  0.19999994341E+02 0.  0.
         12    1    1    2    0    0  0.24584000437E+01  0.29832818694E+02 -0.31425826634E+02  0.43400730197E+02  0.00000000000E+00 0. -1.
         11    1    3    3    0    0 -0.22859467095E+01 -0.17804620640E+02  0.15337304463E+02  0.23610653886E+02  0.51100000000E-03 0. -1.
        -11    1    3    3    0    0 -0.37883593782E+01 -0.13514856833E+02  0.13589494326E+02  0.19536565162E+02  0.51100000000E-03 0.  1.
         12    1    3    3    0    0  0.36159060440E+01  0.14866587796E+01  0.24990278449E+01  0.46400507557E+01  0.00000000000E+00 0. -1.
</event>
<event>
 7    1  0.2486105E-010  0.4778727E+02  0.7816164E-02  0.1312668E+00
        -11   -1    0    0    0    0  0.00000000000E+00  0.00000000000E+00  0.45593999997E+02  0.45594000000E+02  0.51100000000E-03 0.  1.
         11   -1    0    0    0    0 -0.00000000000E+00 -0.00000000000E+00 -0.45593999997E+02  0.45594000000E+02  0.51100000000E-03 0. -1.
    9900012    2    1    2    0    0 -0.10652684246E+02  0.24878566921E+02  0.33929347401E+02  0.47787269721E+02  0.19999993965E+02 0.  0.
         12    1    1    2    0    0  0.10652684246E+02 -0.24878566921E+02 -0.33929347401E+02  0.43400730279E+02  0.00000000000E+00 0. -1.
         11    1    3    3    0    0  0.21866614222E+01 -0.79899198178E+00  0.77025542891E+01  0.80466899530E+01  0.51100000000E-03 0. -1.
        -11    1    3    3    0    0  0.40857063675E+00  0.65654603383E+01  0.64647154085E+01  0.92230550792E+01  0.51100000000E-03 0.  1.
        -12    1    3    3    0    0 -0.13247916305E+02  0.19112098564E+02  0.19762077704E+02  0.30517524689E+02  0.00000000000E+00 0.  1.
</event>
<event>
 7    1  0.2486105E-010  0.4778726E+02  0.7816164E-02  0.1312668E+00
        -11   -1    0    0    0    0  0.00000000000E+00  0.00000000000E+00  0.45593999997E+02  0.45594000000E+02  0.51100000000E-03 0. -1.
         11   -1    0    0    0    0 -0.00000000000E+00 -0.00000000000E+00 -0.45593999997E+02  0.45594000000E+02  0.51100000000E-03 0.  1.
    9900012    2    1    2    0    0 -0.19344476890E+01 -0.19703491161E+02 -0.38621946432E+02  0.47787258094E+02  0.19999940955E+02 0.  0.
         12    1    1    2    0    0  0.19344476890E+01  0.19703491161E+02  0.38621946432E+02  0.43400741906E+02  0.00000000000E+00 0. -1.
         11    1    3    3    0    0 -0.34964472823E+01  0.12572022086E+01 -0.15656274622E+01  0.40319834577E+01  0.51100000000E-03 0. -1.
        -11    1    3    3    0    0 -0.69757394784E+00 -0.34194189686E+01 -0.10576502381E+01  0.36465956429E+01  0.51100000000E-03 0.  1.
         12    1    3    3    0    0  0.22595735412E+01 -0.17541274401E+02 -0.35998668732E+02  0.40108678994E+02  0.00000000000E+00 0. -1.
</event>
<event>
 7    1  0.2486105E-010  0.4778727E+02  0.7816164E-02  0.1312668E+00
        -11   -1    0    0    0    0  0.00000000000E+00  0.00000000000E+00  0.45593999997E+02  0.45594000000E+02  0.51100000000E-03 0. -1.
         11   -1    0    0    0    0 -0.00000000000E+00 -0.00000000000E+00 -0.45593999997E+02  0.45594000000E+02  0.51100000000E-03 0.  1.
    9900012    2    1    2    0    0 -0.25684120173E+02 -0.17671944145E+02 -0.30193574068E+02  0.47787267818E+02  0.19999985288E+02 0.  0.
         12    1    1    2    0    0  0.25684120173E+02  0.17671944145E+02  0.30193574068E+02  0.43400732182E+02  0.00000000000E+00 0. -1.
         11    1    3    3    0    0  0.21492395365E-01 -0.17594112630E+01 -0.10564219123E+02  0.10709748637E+02  0.51100000000E-03 0.  1.
        -11    1    3    3    0    0 -0.84327722100E+01 -0.63408226440E+01 -0.22867503723E+01  0.10795689254E+02  0.51100000000E-03 0. -1.
        -12    1    3    3    0    0 -0.17272840359E+02 -0.95717102380E+01 -0.17342604573E+02  0.26281829927E+02  0.00000000000E+00 0.  1.
</event>
<event>
 7    1  0.2486105E-010  0.4778728E+02  0.7816164E-02  0.1312668E+00
        -11   -1    0    0    0    0  0.00000000000E+00  0.00000000000E+00  0.45593999997E+02  0.45594000000E+02  0.51100000000E-03 0.  1.
         11   -1    0    0    0    0 -0.00000000000E+00 -0.00000000000E+00 -0.45593999997E+02  0.45594000000E+02  0.51100000000E-03 0. -1.
    9900012    2    1    2    0    0 -0.29699925082E+02  0.57999753946E+01  0.31111051546E+02  0.47787276587E+02  0.20000025272E+02 0.  0.
         12    1    1    2    0    0  0.29699925082E+02 -0.57999753946E+01 -0.31111051546E+02  0.43400723413E+02  0.00000000000E+00 0. -1.
         11    1    3    3    0    0 -0.80425459884E+00  0.52471117445E+01  0.27803160671E+01  0.59924256202E+01  0.51100000000E-03 0. -1.
        -11    1    3    3    0    0 -0.94795213394E+01  0.54863273009E+00  0.16560722220E+02  0.19089783744E+02  0.51100000000E-03 0.  1.
         12    1    3    3    0    0 -0.19416149144E+02  0.42309199881E-02  0.11770013259E+02  0.22705067223E+02  0.00000000000E+00 0. -1.
</event>
<event>
 7    1  0.2800366E-010  0.4778727E+02  0.7816164E-02  0.1312668E+00
        -11   -1    0    0    0    0  0.00000000000E+00  0.00000000000E+00  0.45593999997E+02  0.45594000000E+02  0.51100000000E-03 0. -1.
         11   -1    0    0    0    0 -0.00000000000E+00 -0.00000000000E+00 -0.45593999997E+02  0.45594000000E+02  0.51100000000E-03 0.  1.
    9900012    2    1    2    0    0 -0.39767245048E+02 -0.91143570174E+01 -0.14802635003E+02  0.47787270909E+02  0.19999999385E+02 0.  0.
         12    1    1    2    0    0  0.39767245048E+02  0.91143570174E+01  0.14802635003E+02  0.43400729091E+02  0.00000000000E+00 0. -1.
         11    1    3    3    0    0 -0.69109743829E+01 -0.77130319344E+00  0.31285971705E+01  0.76252603925E+01  0.51100000000E-03 0. -1.
        -11    1    3    3    0    0 -0.18546206046E+02 -0.81550474843E+00 -0.44011058351E+01  0.19078693339E+02  0.51100000000E-03 0.  1.
        -12    1    3    3    0    0 -0.14310064620E+02 -0.75275490755E+01 -0.13530126338E+02  0.21083317178E+02  0.00000000000E+00 0.  1.
</event>
<event>
 7    1  0.2486105E-010  0.4778727E+02  0.7816164E-02  0.1312668E+00
        -11   -1    0    0    0    0  0.00000000000E+00  0.00000000000E+00  0.45593999997E+02  0.45594000000E+02  0.51100000000E-03 0.  1.
         11   -1    0    0    0    0 -0.00000000000E+00 -0.00000000000E+00 -0.45593999997E+02  0.45594000000E+02  0.51100000000E-03 0. -1.
    9900012    2    1    2    0    0  0.23921553548E+02  0.13095936550E+01  0.36189333845E+02  0.47787266782E+02  0.19999980564E+02 0.  0.
         12    1    1    2    0    0 -0.23921553548E+02 -0.13095936550E+01 -0.36189333845E+02  0.43400733218E+02  0.00000000000E+00 0. -1.
         11    1    3    3    0    0  0.94583876203E+01 -0.41204340303E-01  0.19731613927E+02  0.21881484927E+02  0.51100000000E-03 0. -1.
        -11    1    3    3    0    0  0.12239525188E+02  0.16201672025E+01  0.18910580072E+02  0.22584086378E+02  0.51100000000E-03 0.  1.
         12    1    3    3    0    0  0.22236407399E+01 -0.26936920728E+00 -0.24528601536E+01  0.33216954771E+01  0.00000000000E+00 0. -1.
</event>
<event>
 7    1  0.2486105E-010  0.4778727E+02  0.7816164E-02  0.1312668E+00
        -11   -1    0    0    0    0  0.00000000000E+00  0.00000000000E+00  0.45593999997E+02  0.45594000000E+02  0.51100000000E-03 0. -1.
         11   -1    0    0    0    0 -0.00000000000E+00 -0.00000000000E+00 -0.45593999997E+02  0.45594000000E+02  0.51100000000E-03 0.  1.
    9900012    2    1    2    0    0  0.14931177111E+01 -0.38633061337E+02 -0.19720057670E+02  0.47787268401E+02  0.19999987948E+02 0.  0.
         12    1    1    2    0    0 -0.14931177111E+01  0.38633061337E+02  0.19720057670E+02  0.43400731599E+02  0.00000000000E+00 0. -1.
         11    1    3    3    0    0  0.43748212722E+01 -0.20098020840E+01 -0.39502262778E+01  0.62275720380E+01  0.51100000000E-03 0. -1.
        -11    1    3    3    0    0  0.42272965413E+01 -0.16214380404E+02 -0.55330325744E+01  0.17646263561E+02  0.51100000000E-03 0.  1.
         12    1    3    3    0    0 -0.71090001024E+01 -0.20408878849E+02 -0.10236798818E+02  0.23913432802E+02  0.00000000000E+00 0. -1.
</event>
<event>
 7    1  0.2486105E-010  0.4778729E+02  0.7816164E-02  0.1312668E+00
        -11   -1    0    0    0    0  0.00000000000E+00  0.00000000000E+00  0.45593999997E+02  0.45594000000E+02  0.51100000000E-03 0.  1.
         11   -1    0    0    0    0 -0.00000000000E+00 -0.00000000000E+00 -0.45593999997E+02  0.45594000000E+02  0.51100000000E-03 0. -1.
    9900012    2    1    2    0    0  0.28132767422E+02 -0.28392145967E+01  0.32925796219E+02  0.47787288036E+02  0.20000077472E+02 0.  0.
         12    1    1    2    0    0 -0.28132767422E+02  0.28392145967E+01 -0.32925796219E+02  0.43400711964E+02  0.00000000000E+00 0. -1.
         11    1    3    3    0    0 -0.96360574942E+00  0.26586399093E-01  0.48540470865E+01  0.49488398899E+01  0.51100000000E-03 0. -1.
        -11    1    3    3    0    0  0.15146600738E+02  0.23411131470E+01  0.21876707968E+02  0.26711246254E+02  0.51100000000E-03 0.  1.
         12    1    3    3    0    0  0.13949772434E+02 -0.52069141428E+01  0.61950411636E+01  0.16127201892E+02  0.00000000000E+00 0. -1.
</event>
<event>
 7    1  0.2486105E-010  0.4778727E+02  0.7816164E-02  0.1312668E+00
        -11   -1    0    0    0    0  0.00000000000E+00  0.00000000000E+00  0.45593999997E+02  0.45594000000E+02  0.51100000000E-03 0.  1.
         11   -1    0    0    0    0 -0.00000000000E+00 -0.00000000000E+00 -0.45593999997E+02  0.45594000000E+02  0.51100000000E-03 0. -1.
    9900012    2    1    2    0    0 -0.34657866656E+02 -0.25097551628E+02 -0.72504113972E+01  0.47787270924E+02  0.19999999452E+02 0.  0.
         12    1    1    2    0    0  0.34657866656E+02  0.25097551628E+02  0.72504113972E+01  0.43400729076E+02  0.00000000000E+00 0. -1.
         11    1    3    3    0    0 -0.50301601532E+01 -0.99968108728E+01  0.16651840375E+01  0.11314220120E+02  0.51100000000E-03 0. -1.
        -11    1    3    3    0    0 -0.12579686129E+02 -0.47212734555E+01  0.22184627682E+01  0.13618388431E+02  0.51100000000E-03 0.  1.
        -12    1    3    3    0    0 -0.17048020374E+02 -0.10379467300E+02 -0.11134058203E+02  0.22854662373E+02  0.00000000000E+00 0.  1.
</event>
<event>
 7    1  0.2486105E-010  0.4778725E+02  0.7816164E-02  0.1312668E+00
        -11   -1    0    0    0    0  0.00000000000E+00  0.00000000000E+00  0.45593999997E+02  0.45594000000E+02  0.51100000000E-03 0.  1.
         11   -1    0    0    0    0 -0.00000000000E+00 -0.00000000000E+00 -0.45593999997E+02  0.45594000000E+02  0.51100000000E-03 0. -1.
    9900012    2    1    2    0    0  0.31243519118E+02 -0.27822781957E+02  0.11548171730E+02  0.47787251700E+02  0.19999911800E+02 0.  0.
         12    1    1    2    0    0 -0.31243519118E+02  0.27822781957E+02 -0.11548171730E+02  0.43400748300E+02  0.00000000000E+00 0. -1.
         11    1    3    3    0    0 -0.15290628708E+00  0.10146479997E+01 -0.21953817114E+01  0.24233431486E+01  0.51100000000E-03 0. -1.
        -11    1    3    3    0    0  0.11904670556E+01 -0.37370008155E+01  0.17905476552E+01  0.43114322530E+01  0.51100000000E-03 0.  1.
        -12    1    3    3    0    0  0.30205958349E+02 -0.25100429141E+02  0.11953005786E+02  0.41052476298E+02  0.00000000000E+00 0.  1.
</event>
<event>
 7    1  0.2486105E-010  0.4778727E+02  0.7816164E-02  0.1312668E+00
        -11   -1    0    0    0    0  0.00000000000E+00  0.00000000000E+00  0.45593999997E+02  0.45594000000E+02  0.51100000000E-03 0. -1.
         11   -1    0    0    0    0 -0.00000000000E+00 -0.00000000000E+00 -0.45593999997E+02  0.45594000000E+02  0.51100000000E-03 0.  1.
    9900012    2    1    2    0    0  0.20991703261E+02  0.18962385270E+01 -0.37939110152E+02  0.47787269529E+02  0.19999993089E+02 0.  0.
         12    1    1    2    0    0 -0.20991703261E+02 -0.18962385270E+01  0.37939110152E+02  0.43400730471E+02  0.00000000000E+00 0. -1.
         11    1    3    3    0    0  0.13396477567E+02  0.11084467068E+01 -0.23247599713E+02  0.26854146011E+02  0.51100000000E-03 0. -1.
        -11    1    3    3    0    0  0.35862539755E+00  0.47855029763E+01 -0.10753518687E+02  0.11775729927E+02  0.51100000000E-03 0.  1.
         12    1    3    3    0    0  0.72366002961E+01 -0.39977111561E+01 -0.39379917525E+01  0.91573935908E+01  0.00000000000E+00 0. -1.
</event>
<event>
 7    1  0.2486105E-010  0.4778730E+02  0.7816164E-02  0.1312668E+00
        -11   -1    0    0    0    0  0.00000000000E+00  0.00000000000E+00  0.45593999997E+02  0.45594000000E+02  0.51100000000E-03 0.  1.
         11   -1    0    0    0    0 -0.00000000000E+00 -0.00000000000E+00 -0.45593999997E+02  0.45594000000E+02  0.51100000000E-03 0. -1.
    9900012    2    1    2    0    0 -0.26635008495E+02 -0.11694377013E+02  0.32209299273E+02  0.47787296194E+02  0.20000114665E+02 0.  0.
         12    1    1    2    0    0  0.26635008495E+02  0.11694377013E+02 -0.32209299273E+02  0.43400703806E+02  0.00000000000E+00 0. -1.
         11    1    3    3    0    0 -0.38871563108E+01 -0.89538051252E+00 -0.57306235968E+00  0.40298996484E+01  0.51100000000E-03 0. -1.
        -11    1    3    3    0    0 -0.12970993978E+02  0.94388556688E+00  0.19892884699E+02  0.23766877511E+02  0.51100000000E-03 0.  1.
         12    1    3    3    0    0 -0.97768582067E+01 -0.11742882067E+02  0.12889476933E+02  0.19990519034E+02  0.00000000000E+00 0. -1.
</event>
<event>
 7    1  0.2486105E-010  0.4778725E+02  0.7816164E-02  0.1312668E+00
        -11   -1    0    0    0    0  0.00000000000E+00  0.00000000000E+00  0.45593999997E+02  0.45594000000E+02  0.51100000000E-03 0. -1.
         11   -1    0    0    0    0 -0.00000000000E+00 -0.00000000000E+00 -0.45593999997E+02  0.45594000000E+02  0.51100000000E-03 0.  1.
    9900012    2    1    2    0    0 -0.27074022298E+02 -0.31120905201E+02  0.13494874375E+02  0.47787250487E+02  0.19999906269E+02 0.  0.
         12    1    1    2    0    0  0.27074022298E+02  0.31120905201E+02 -0.13494874375E+02  0.43400749513E+02  0.00000000000E+00 0. -1.
         11    1    3    3    0    0 -0.36019351406E+01 -0.49322926485E+01 -0.94139727845E+00  0.61796178381E+01  0.51100000000E-03 0. -1.
        -11    1    3    3    0    0 -0.19274364741E+02 -0.12925970627E+02  0.26188016177E+01  0.23354656388E+02  0.51100000000E-03 0.  1.
         12    1    3    3    0    0 -0.41977224164E+01 -0.13262641926E+02  0.11817470036E+02  0.18252976261E+02  0.00000000000E+00 0. -1.
</event>
<event>
 7    1  0.2486105E-010  0.4778727E+02  0.7816164E-02  0.1312668E+00
        -11   -1    0    0    0    0  0.00000000000E+00  0.00000000000E+00  0.45593999997E+02  0.45594000000E+02  0.51100000000E-03 0.  1.
         11   -1    0    0    0    0 -0.00000000000E+00 -0.00000000000E+00 -0.45593999997E+02  0.45594000000E+02  0.51100000000E-03 0. -1.
    9900012    2    1    2    0    0  0.11105083661E+02  0.20025860997E+02  0.36868214686E+02  0.47787271366E+02  0.20000001468E+02 0.  0.
         12    1    1    2    0    0 -0.11105083661E+02 -0.20025860997E+02 -0.36868214686E+02  0.43400728634E+02  0.00000000000E+00 0. -1.
         11    1    3    3    0    0  0.18431205479E+01  0.62978537712E+01  0.81111497948E+01  0.10433159001E+02  0.51100000000E-03 0. -1.
        -11    1    3    3    0    0  0.65743438860E+00  0.11167260746E+02  0.25426844248E+02  0.27778847010E+02  0.51100000000E-03 0.  1.
         12    1    3    3    0    0  0.86045287241E+01  0.25607464789E+01  0.33302206439E+01  0.95752653556E+01  0.00000000000E+00 0. -1.
</event>
<event>
 7    1  0.2486105E-010  0.4778727E+02  0.7816164E-02  0.1312668E+00
        -11   -1    0    0    0    0  0.00000000000E+00  0.00000000000E+00  0.45593999997E+02  0.45594000000E+02  0.51100000000E-03 0.  1.
         11   -1    0    0    0    0 -0.00000000000E+00 -0.00000000000E+00 -0.45593999997E+02  0.45594000000E+02  0.51100000000E-03 0. -1.
    9900012    2    1    2    0    0  0.23846146922E+02 -0.79372529897E+01  0.35383397706E+02  0.47787267964E+02  0.19999985955E+02 0.  0.
         12    1    1    2    0    0 -0.23846146922E+02  0.79372529897E+01 -0.35383397706E+02  0.43400732036E+02  0.00000000000E+00 0. -1.
         11    1    3    3    0    0  0.18849017765E+02 -0.69978194585E-01  0.11466143694E+02  0.22062701991E+02  0.51100000000E-03 0. -1.
        -11    1    3    3    0    0  0.23560786774E+01 -0.23865406171E+01  0.74741195105E+01  0.81920171856E+01  0.51100000000E-03 0.  1.
         12    1    3    3    0    0  0.26410504795E+01 -0.54807341781E+01  0.16443134501E+02  0.17532548787E+02  0.00000000000E+00 0. -1.
</event>
<event>
 7    1  0.2486105E-010  0.4778727E+02  0.7816164E-02  0.1312668E+00
        -11   -1    0    0    0    0  0.00000000000E+00  0.00000000000E+00  0.45593999997E+02  0.45594000000E+02  0.51100000000E-03 0.  1.
         11   -1    0    0    0    0 -0.00000000000E+00 -0.00000000000E+00 -0.45593999997E+02  0.45594000000E+02  0.51100000000E-03 0. -1.
    9900012    2    1    2    0    0  0.23383906849E+02 -0.29384724321E+02  0.21756707258E+02  0.47787269204E+02  0.19999991607E+02 0.  0.
         12    1    1    2    0    0 -0.23383906849E+02  0.29384724321E+02 -0.21756707258E+02  0.43400730796E+02  0.00000000000E+00 0. -1.
         11    1    3    3    0    0 -0.38044408937E+00 -0.41555472090E+01  0.60801796902E+01  0.73744081551E+01  0.51100000000E-03 0. -1.
        -11    1    3    3    0    0  0.71303934807E-01 -0.57113653779E+01 -0.46493242904E+00  0.57307016286E+01  0.51100000000E-03 0.  1.
        -12    1    3    3    0    0  0.23693047003E+02 -0.19517811734E+02  0.16141459997E+02  0.34682159420E+02  0.00000000000E+00 0.  1.
</event>
<event>
 7    1  0.2486105E-010  0.4778729E+02  0.7816164E-02  0.1312668E+00
        -11   -1    0    0    0    0  0.00000000000E+00  0.00000000000E+00  0.45593999997E+02  0.45594000000E+02  0.51100000000E-03 0.  1.
         11   -1    0    0    0    0 -0.00000000000E+00 -0.00000000000E+00 -0.45593999997E+02  0.45594000000E+02  0.51100000000E-03 0. -1.
    9900012    2    1    2    0    0  0.13751551473E+02  0.70393431515E+01  0.40558162420E+02  0.47787285043E+02  0.20000063824E+02 0.  0.
         12    1    1    2    0    0 -0.13751551473E+02 -0.70393431515E+01 -0.40558162420E+02  0.43400714957E+02  0.00000000000E+00 0. -1.
         11    1    3    3    0    0  0.19903004816E+01  0.60344845104E+01  0.49891601362E+01  0.80788624471E+01  0.51100000000E-03 0. -1.
        -11    1    3    3    0    0  0.90826388664E+01  0.51468278293E+01  0.13343061858E+02  0.16941707868E+02  0.51100000000E-03 0.  1.
        -12    1    3    3    0    0  0.26786121252E+01 -0.41419691882E+01  0.22225940426E+02  0.22766714727E+02  0.00000000000E+00 0.  1.
</event>
<event>
 7    1  0.3015797E-010  0.4778727E+02  0.7816164E-02  0.1312668E+00
        -11   -1    0    0    0    0  0.00000000000E+00  0.00000000000E+00  0.45593999997E+02  0.45594000000E+02  0.51100000000E-03 0.  1.
         11   -1    0    0    0    0 -0.00000000000E+00 -0.00000000000E+00 -0.45593999997E+02  0.45594000000E+02  0.51100000000E-03 0. -1.
    9900012    2    1    2    0    0  0.39280378361E+02 -0.15152058332E+02 -0.10539940646E+02  0.47787270228E+02  0.19999996280E+02 0.  0.
         12    1    1    2    0    0 -0.39280378361E+02  0.15152058332E+02  0.10539940646E+02  0.43400729772E+02  0.00000000000E+00 0. -1.
         11    1    3    3    0    0  0.26494833666E+01 -0.63357128018E+01 -0.31749080666E+01  0.75657822008E+01  0.51100000000E-03 0. -1.
        -11    1    3    3    0    0  0.80449834445E+01 -0.35147385995E+01 -0.68635845776E+01  0.11143784795E+02  0.51100000000E-03 0.  1.
        -12    1    3    3    0    0  0.28585911550E+02 -0.53016069312E+01 -0.50144800199E+00  0.29077703233E+02  0.00000000000E+00 0.  1.
</event>
<event>
 7    1  0.2486105E-010  0.4778727E+02  0.7816164E-02  0.1312668E+00
        -11   -1    0    0    0    0  0.00000000000E+00  0.00000000000E+00  0.45593999997E+02  0.45594000000E+02  0.51100000000E-03 0.  1.
         11   -1    0    0    0    0 -0.00000000000E+00 -0.00000000000E+00 -0.45593999997E+02  0.45594000000E+02  0.51100000000E-03 0. -1.
    9900012    2    1    2    0    0 -0.40173041286E+02 -0.13495465790E+02  0.93606689473E+01  0.47787274589E+02  0.20000016159E+02 0.  0.
         12    1    1    2    0    0  0.40173041286E+02  0.13495465790E+02 -0.93606689473E+01  0.43400725411E+02  0.00000000000E+00 0. -1.
         11    1    3    3    0    0 -0.26402322954E+02 -0.11903954142E+01  0.46590691555E-01  0.26429185942E+02  0.51100000000E-03 0. -1.
        -11    1    3    3    0    0 -0.21772991478E+00 -0.20766800315E+01  0.22832568563E+00  0.21005092594E+01  0.51100000000E-03 0.  1.
         12    1    3    3    0    0 -0.13552988418E+02 -0.10228390344E+02  0.90857525702E+01  0.19257579387E+02  0.00000000000E+00 0. -1.
</event>
<event>
 7    1  0.2486105E-010  0.4778727E+02  0.7816164E-02  0.1312668E+00
        -11   -1    0    0    0    0  0.00000000000E+00  0.00000000000E+00  0.45593999997E+02  0.45594000000E+02  0.51100000000E-03 0. -1.
         11   -1    0    0    0    0 -0.00000000000E+00 -0.00000000000E+00 -0.45593999997E+02  0.45594000000E+02  0.51100000000E-03 0.  1.
    9900012    2    1    2    0    0 -0.26500841249E+01 -0.34983031269E+02  0.25549710368E+02  0.47787272787E+02  0.20000007947E+02 0.  0.
         12    1    1    2    0    0  0.26500841249E+01  0.34983031269E+02 -0.25549710368E+02  0.43400727213E+02  0.00000000000E+00 0. -1.
         11    1    3    3    0    0 -0.48161451864E+01 -0.13637614892E+02  0.18588835889E+02  0.23552592519E+02  0.51100000000E-03 0. -1.
        -11    1    3    3    0    0  0.21838721674E+01 -0.38660958245E+00  0.10777302290E+01  0.24658198070E+01  0.51100000000E-03 0.  1.
        -12    1    3    3    0    0 -0.17811105988E-01 -0.20958806795E+02  0.58831442503E+01  0.21768860461E+02  0.00000000000E+00 0.  1.
</event>
<event>
 7    1  0.2486105E-010  0.4778728E+02  0.7816164E-02  0.1312668E+00
        -11   -1    0    0    0    0  0.00000000000E+00  0.00000000000E+00  0.45593999997E+02  0.45594000000E+02  0.51100000000E-03 0.  1.
         11   -1    0    0    0    0 -0.00000000000E+00 -0.00000000000E+00 -0.45593999997E+02  0.45594000000E+02  0.51100000000E-03 0. -1.
    9900012    2    1    2    0    0  0.43532563013E+01 -0.40589693866E+02  0.14735966498E+02  0.47787276536E+02  0.20000025037E+02 0.  0.
         12    1    1    2    0    0 -0.43532563013E+01  0.40589693866E+02 -0.14735966498E+02  0.43400723464E+02  0.00000000000E+00 0. -1.
         11    1    3    3    0    0  0.37025094758E+01 -0.10581559897E+02  0.14027953942E+00  0.11211496995E+02  0.51100000000E-03 0. -1.
        -11    1    3    3    0    0  0.77207802688E+01 -0.18266403073E+02  0.87055614632E+01  0.21657763731E+02  0.51100000000E-03 0.  1.
         12    1    3    3    0    0 -0.70700334433E+01 -0.11741730897E+02  0.58901254952E+01  0.14918015809E+02  0.00000000000E+00 0. -1.
</event>
<event>
 7    1  0.2486105E-010  0.4778730E+02  0.7816164E-02  0.1312668E+00
        -11   -1    0    0    0    0  0.00000000000E+00  0.00000000000E+00  0.45593999997E+02  0.45594000000E+02  0.51100000000E-03 0.  1.
         11   -1    0    0    0    0 -0.00000000000E+00 -0.00000000000E+00 -0.45593999997E+02  0.45594000000E+02  0.51100000000E-03 0. -1.
    9900012    2    1    2    0    0  0.51105799233E+01 -0.21131587236E+02  0.37562725776E+02  0.47787304453E+02  0.20000152324E+02 0.  0.
         12    1    1    2    0    0 -0.51105799233E+01  0.21131587236E+02 -0.37562725776E+02  0.43400695547E+02  0.00000000000E+00 0. -1.
         11    1    3    3    0    0  0.68329428541E+00 -0.28875175250E+01 -0.18253136010E+01  0.34837362904E+01  0.51100000000E-03 0. -1.
        -11    1    3    3    0    0 -0.21934716606E+01 -0.48402672670E+01  0.11186509201E+02  0.12384566747E+02  0.51100000000E-03 0.  1.
         12    1    3    3    0    0  0.66207572985E+01 -0.13403802444E+02  0.28201530176E+02  0.31919001416E+02  0.00000000000E+00 0. -1.
</event>
<event>
 7    1  0.2486105E-010  0.4778727E+02  0.7816164E-02  0.1312668E+00
        -11   -1    0    0    0    0  0.00000000000E+00  0.00000000000E+00  0.45593999997E+02  0.45594000000E+02  0.51100000000E-03 0.  1.
         11   -1    0    0    0    0 -0.00000000000E+00 -0.00000000000E+00 -0.45593999997E+02  0.45594000000E+02  0.51100000000E-03 0. -1.
    9900012    2    1    2    0    0  0.18044343420E+01  0.72616309625E+01  0.42750860446E+02  0.47787270324E+02  0.19999996716E+02 0.  0.
         12    1    1    2    0    0 -0.18044343420E+01 -0.72616309625E+01 -0.42750860446E+02  0.43400729676E+02  0.00000000000E+00 0. -1.
         11    1    3    3    0    0  0.41352585546E+01 -0.21357690739E+01  0.35841165097E+01  0.58743309633E+01  0.51100000000E-03 0. -1.
        -11    1    3    3    0    0 -0.17416871405E+01 -0.24782372665E+01  0.76455589422E+01  0.82237282205E+01  0.51100000000E-03 0.  1.
         12    1    3    3    0    0 -0.58913707213E+00  0.11875637303E+02  0.31521184994E+02  0.33689211140E+02  0.00000000000E+00 0. -1.
</event>
<event>
 7    1  0.2486105E-010  0.4778727E+02  0.7816164E-02  0.1312668E+00
        -11   -1    0    0    0    0  0.00000000000E+00  0.00000000000E+00  0.45593999997E+02  0.45594000000E+02  0.51100000000E-03 0.  1.
         11   -1    0    0    0    0 -0.00000000000E+00 -0.00000000000E+00 -0.45593999997E+02  0.45594000000E+02  0.51100000000E-03 0. -1.
    9900012    2    1    2    0    0 -0.21060558264E+02 -0.29592918741E+02  0.23755739116E+02  0.47787273106E+02  0.20000009398E+02 0.  0.
         12    1    1    2    0    0  0.21060558264E+02  0.29592918741E+02 -0.23755739116E+02  0.43400726894E+02  0.00000000000E+00 0. -1.
         11    1    3    3    0    0 -0.17300168398E+01  0.12523903583E+01 -0.46492008458E+00  0.21857700752E+01  0.51100000000E-03 0.  1.
        -11    1    3    3    0    0 -0.75344255813E+01 -0.25044883782E+01  0.49827246765E+01  0.93737706575E+01  0.51100000000E-03 0. -1.
        -12    1    3    3    0    0 -0.11796115843E+02 -0.28340820722E+02  0.19237934524E+02  0.36227732373E+02  0.00000000000E+00 0.  1.
</event>
<event>
 7    1  0.2486105E-010  0.4778727E+02  0.7816164E-02  0.1312668E+00
        -11   -1    0    0    0    0  0.00000000000E+00  0.00000000000E+00  0.45593999997E+02  0.45594000000E+02  0.51100000000E-03 0.  1.
         11   -1    0    0    0    0 -0.00000000000E+00 -0.00000000000E+00 -0.45593999997E+02  0.45594000000E+02  0.51100000000E-03 0. -1.
    9900012    2    1    2    0    0  0.35431422555E+02  0.18927449289E+02  0.16431360280E+02  0.47787266809E+02  0.19999980690E+02 0.  0.
         12    1    1    2    0    0 -0.35431422555E+02 -0.18927449289E+02 -0.16431360280E+02  0.43400733191E+02  0.00000000000E+00 0. -1.
         11    1    3    3    0    0  0.12087867393E+02  0.12847352061E+02  0.14509668335E+02  0.22840785200E+02  0.51100000000E-03 0. -1.
        -11    1    3    3    0    0  0.11733769786E+02  0.46296075684E+01  0.36214234081E+01  0.13123617161E+02  0.51100000000E-03 0.  1.
         12    1    3    3    0    0  0.11609785376E+02  0.14504896594E+01 -0.16997314624E+01  0.11822864448E+02  0.00000000000E+00 0. -1.
</event>
<event>
 7    1  0.2486105E-010  0.4778727E+02  0.7816164E-02  0.1312668E+00
        -11   -1    0    0    0    0  0.00000000000E+00  0.00000000000E+00  0.45593999997E+02  0.45594000000E+02  0.51100000000E-03 0. -1.
         11   -1    0    0    0    0 -0.00000000000E+00 -0.00000000000E+00 -0.45593999997E+02  0.45594000000E+02  0.51100000000E-03 0.  1.
    9900012    2    1    2    0    0  0.27364138230E+02 -0.27277396812E+02 -0.19767923562E+02  0.47787271436E+02  0.20000001786E+02 0.  0.
         12    1    1    2    0    0 -0.27364138230E+02  0.27277396812E+02  0.19767923562E+02  0.43400728564E+02  0.00000000000E+00 0. -1.
         11    1    3    3    0    0  0.17152608960E+02 -0.80920193321E+01 -0.69808744767E+01  0.20209536851E+02  0.51100000000E-03 0. -1.
        -11    1    3    3    0    0  0.12134795440E+02 -0.16336391735E+02 -0.84279163580E+01  0.22026364423E+02  0.51100000000E-03 0.  1.
         12    1    3    3    0    0 -0.19232661711E+01 -0.28489857454E+01 -0.43591327272E+01  0.55513701620E+01  0.00000000000E+00 0. -1.
</event>
<event>
 7    1  0.2486105E-010  0.4778727E+02  0.7816164E-02  0.1312668E+00
        -11   -1    0    0    0    0  0.00000000000E+00  0.00000000000E+00  0.45593999997E+02  0.45594000000E+02  0.51100000000E-03 0.  1.
         11   -1    0    0    0    0 -0.00000000000E+00 -0.00000000000E+00 -0.45593999997E+02  0.45594000000E+02  0.51100000000E-03 0. -1.
    9900012    2    1    2    0    0  0.39078877349E+02 -0.14159429883E+02  0.12489000056E+02  0.47787271528E+02  0.20000002206E+02 0.  0.
         12    1    1    2    0    0 -0.39078877349E+02  0.14159429883E+02 -0.12489000056E+02  0.43400728472E+02  0.00000000000E+00 0. -1.
         11    1    3    3    0    0 -0.19305862590E+00 -0.14908247986E+00  0.10393503018E+01  0.10675891203E+01  0.51100000000E-03 0. -1.
        -11    1    3    3    0    0  0.13790488418E+02 -0.27799234458E+01  0.12548864408E+02  0.18851513026E+02  0.51100000000E-03 0.  1.
         12    1    3    3    0    0  0.25481447556E+02 -0.11230423958E+02 -0.10992146536E+01  0.27868169382E+02  0.00000000000E+00 0. -1.
</event>
<event>
 7    1  0.2486105E-010  0.4778727E+02  0.7816164E-02  0.1312668E+00
        -11   -1    0    0    0    0  0.00000000000E+00  0.00000000000E+00  0.45593999997E+02  0.45594000000E+02  0.51100000000E-03 0. -1.
         11   -1    0    0    0    0 -0.00000000000E+00 -0.00000000000E+00 -0.45593999997E+02  0.45594000000E+02  0.51100000000E-03 0.  1.
    9900012    2    1    2    0    0 -0.39447675398E+01  0.24451139214E+02 -0.35639915454E+02  0.47787274506E+02  0.20000015784E+02 0.  0.
         12    1    1    2    0    0  0.39447675398E+01 -0.24451139214E+02  0.35639915454E+02  0.43400725494E+02  0.00000000000E+00 0. -1.
         11    1    3    3    0    0  0.33813529045E+01  0.66519508874E+01 -0.63854514360E+01  0.98212009640E+01  0.51100000000E-03 0. -1.
        -11    1    3    3    0    0 -0.23974409810E+01  0.99972471421E+01 -0.26360956988E+02  0.28294747344E+02  0.51100000000E-03 0.  1.
         12    1    3    3    0    0 -0.49286794633E+01  0.78019411844E+01 -0.28935070299E+01  0.96713261980E+01  0.00000000000E+00 0. -1.
</event>
<event>
 7    1  0.2486105E-010  0.4778727E+02  0.7816164E-02  0.1312668E+00
        -11   -1    0    0    0    0  0.00000000000E+00  0.00000000000E+00  0.45593999997E+02  0.45594000000E+02  0.51100000000E-03 0.  1.
         11   -1    0    0    0    0 -0.00000000000E+00 -0.00000000000E+00 -0.45593999997E+02  0.45594000000E+02  0.51100000000E-03 0. -1.
    9900012    2    1    2    0    0 -0.10825020963E+02  0.96259585483E+01  0.40911895156E+02  0.47787270489E+02  0.19999997469E+02 0.  0.
         12    1    1    2    0    0  0.10825020963E+02 -0.96259585483E+01 -0.40911895156E+02  0.43400729511E+02  0.00000000000E+00 0. -1.
         11    1    3    3    0    0 -0.34468587050E+01 -0.25580018276E+01  0.13461090817E+02  0.14128877327E+02  0.51100000000E-03 0. -1.
        -11    1    3    3    0    0 -0.99166443735E+01  0.52463016154E+01  0.21182052893E+02  0.23969624137E+02  0.51100000000E-03 0.  1.
         12    1    3    3    0    0  0.25384821156E+01  0.69376587605E+01  0.62687514459E+01  0.96887690249E+01  0.00000000000E+00 0. -1.
</event>
<event>
 7    1  0.2486105E-010  0.4778727E+02  0.7816164E-02  0.1312668E+00
        -11   -1    0    0    0    0  0.00000000000E+00  0.00000000000E+00  0.45593999997E+02  0.45594000000E+02  0.51100000000E-03 0.  1.
         11   -1    0    0    0    0 -0.00000000000E+00 -0.00000000000E+00 -0.45593999997E+02  0.45594000000E+02  0.51100000000E-03 0. -1.
    9900012    2    1    2    0    0 -0.60444195374E+01 -0.28951898946E+01  0.42880137779E+02  0.47787270191E+02  0.19999996107E+02 0.  0.
         12    1    1    2    0    0  0.60444195374E+01  0.28951898946E+01 -0.42880137779E+02  0.43400729809E+02  0.00000000000E+00 0. -1.
         11    1    3    3    0    0 -0.78662477215E+00  0.54797750183E+01  0.23119297256E+02  0.23772854659E+02  0.51100000000E-03 0. -1.
        -11    1    3    3    0    0 -0.30174307835E+01 -0.26411823155E+01  0.81300216203E+00  0.40916629056E+01  0.51100000000E-03 0.  1.
        -12    1    3    3    0    0 -0.22403639818E+01 -0.57337825974E+01  0.18947838361E+02  0.19922752626E+02  0.00000000000E+00 0.  1.
</event>
<event>
 7    1  0.2486105E-010  0.4778727E+02  0.7816164E-02  0.1312668E+00
        -11   -1    0    0    0    0  0.00000000000E+00  0.00000000000E+00  0.45593999997E+02  0.45594000000E+02  0.51100000000E-03 0. -1.
         11   -1    0    0    0    0 -0.00000000000E+00 -0.00000000000E+00 -0.45593999997E+02  0.45594000000E+02  0.51100000000E-03 0.  1.
    9900012    2    1    2    0    0 -0.20129499687E+02 -0.38384468268E+02 -0.22491959294E+01  0.47787273691E+02  0.20000012065E+02 0.  0.
         12    1    1    2    0    0  0.20129499687E+02  0.38384468268E+02  0.22491959294E+01  0.43400726309E+02  0.00000000000E+00 0. -1.
         11    1    3    3    0    0 -0.39368148643E+01 -0.13283159547E+02  0.52517507370E+01  0.14816265551E+02  0.51100000000E-03 0. -1.
        -11    1    3    3    0    0 -0.14121160120E+00 -0.70329030285E+01  0.14790233135E+01  0.71881274298E+01  0.51100000000E-03 0.  1.
        -12    1    3    3    0    0 -0.16051473221E+02 -0.18068405693E+02 -0.89799699798E+01  0.25782880710E+02  0.00000000000E+00 0.  1.
</event>
<event>
 7    1  0.2486105E-010  0.4778726E+02  0.7816164E-02  0.1312668E+00
        -11   -1    0    0    0    0  0.00000000000E+00  0.00000000000E+00  0.45593999997E+02  0.45594000000E+02  0.51100000000E-03 0.  1.
         11   -1    0    0    0    0 -0.00000000000E+00 -0.00000000000E+00 -0.45593999997E+02  0.45594000000E+02  0.51100000000E-03 0. -1.
    9900012    2    1    2    0    0  0.32162517716E+02 -0.28672135363E+02  0.52062928809E+01  0.47787258328E+02  0.19999942022E+02 0.  0.
         12    1    1    2    0    0 -0.32162517716E+02  0.28672135363E+02 -0.52062928809E+01  0.43400741672E+02  0.00000000000E+00 0. -1.
         11    1    3    3    0    0  0.35642788596E+01 -0.74393587008E+01 -0.41155814292E+01  0.92187934368E+01  0.51100000000E-03 0. -1.
        -11    1    3    3    0    0  0.15311588197E+02 -0.13305148545E+02 -0.41249554719E+00  0.20288959159E+02  0.51100000000E-03 0.  1.
        -12    1    3    3    0    0  0.13286650660E+02 -0.79276281167E+01  0.97343698573E+01  0.18279505733E+02  0.00000000000E+00 0.  1.
</event>
<event>
 7    1  0.2486105E-010  0.4778727E+02  0.7816164E-02  0.1312668E+00
        -11   -1    0    0    0    0  0.00000000000E+00  0.00000000000E+00  0.45593999997E+02  0.45594000000E+02  0.51100000000E-03 0. -1.
         11   -1    0    0    0    0 -0.00000000000E+00 -0.00000000000E+00 -0.45593999997E+02  0.45594000000E+02  0.51100000000E-03 0.  1.
    9900012    2    1    2    0    0  0.17541205180E+02 -0.35872045286E+02  0.17003695324E+02  0.47787272278E+02  0.20000005623E+02 0.  0.
         12    1    1    2    0    0 -0.17541205180E+02  0.35872045286E+02 -0.17003695324E+02  0.43400727722E+02  0.00000000000E+00 0. -1.
         11    1    3    3    0    0 -0.14907624707E+01 -0.76203892793E+01  0.20821326678E+01  0.80391530785E+01  0.51100000000E-03 0. -1.
        -11    1    3    3    0    0  0.16819911516E+02 -0.23241566029E+02  0.60470417769E+01  0.29319729355E+02  0.51100000000E-03 0.  1.
         12    1    3    3    0    0  0.22120561341E+01 -0.50100899773E+01  0.88745208789E+01  0.10428389845E+02  0.00000000000E+00 0. -1.
</event>
<event>
 7    1  0.2486105E-010  0.4778727E+02  0.7816164E-02  0.1312668E+00
        -11   -1    0    0    0    0  0.00000000000E+00  0.00000000000E+00  0.45593999997E+02  0.45594000000E+02  0.51100000000E-03 0.  1.
         11   -1    0    0    0    0 -0.00000000000E+00 -0.00000000000E+00 -0.45593999997E+02  0.45594000000E+02  0.51100000000E-03 0. -1.
    9900012    2    1    2    0    0 -0.76403271358E+01  0.12249139646E+02  0.40929298211E+02  0.47787268752E+02  0.19999989549E+02 0.  0.
         12    1    1    2    0    0  0.76403271358E+01 -0.12249139646E+02 -0.40929298211E+02  0.43400731248E+02  0.00000000000E+00 0. -1.
         11    1    3    3    0    0  0.33718264968E+01  0.29220811401E+01  0.64213818145E+01  0.78193296888E+01  0.51100000000E-03 0. -1.
        -11    1    3    3    0    0 -0.31972441376E+01  0.10814115586E+02  0.25891807447E+02  0.28240983679E+02  0.51100000000E-03 0.  1.
         12    1    3    3    0    0 -0.78149094949E+01 -0.14870570809E+01  0.86161089491E+01  0.11726955385E+02  0.00000000000E+00 0. -1.
</event>
<event>
 7    1  0.2486105E-010  0.4778727E+02  0.7816164E-02  0.1312668E+00
        -11   -1    0    0    0    0  0.00000000000E+00  0.00000000000E+00  0.45593999997E+02  0.45594000000E+02  0.51100000000E-03 0.  1.
         11   -1    0    0    0    0 -0.00000000000E+00 -0.00000000000E+00 -0.45593999997E+02  0.45594000000E+02  0.51100000000E-03 0. -1.
    9900012    2    1    2    0    0  0.47364377662E+01  0.71035368075E+01  0.42552666034E+02  0.47787268848E+02  0.19999989988E+02 0.  0.
         12    1    1    2    0    0 -0.47364377662E+01 -0.71035368075E+01 -0.42552666034E+02  0.43400731152E+02  0.00000000000E+00 0. -1.
         11    1    3    3    0    0 -0.38658102712E+00  0.20774165083E+01 -0.90966918381E+00  0.23005656967E+01  0.51100000000E-03 0. -1.
        -11    1    3    3    0    0  0.17268593371E+01  0.78987806076E+01  0.19412619842E+02  0.21029089082E+02  0.51100000000E-03 0.  1.
         12    1    3    3    0    0  0.33961594563E+01 -0.28726603084E+01  0.24049715376E+02  0.24457614070E+02  0.00000000000E+00 0. -1.
</event>
<event>
 7    1  0.2486105E-010  0.4778729E+02  0.7816164E-02  0.1312668E+00
        -11   -1    0    0    0    0  0.00000000000E+00  0.00000000000E+00  0.45593999997E+02  0.45594000000E+02  0.51100000000E-03 0.  1.
         11   -1    0    0    0    0 -0.00000000000E+00 -0.00000000000E+00 -0.45593999997E+02  0.45594000000E+02  0.51100000000E-03 0. -1.
    9900012    2    1    2    0    0 -0.33893291131E+02 -0.25801299615E+02 -0.83162075218E+01  0.47787290869E+02  0.20000090390E+02 0.  0.
         12    1    1    2    0    0  0.33893291131E+02  0.25801299615E+02  0.83162075218E+01  0.43400709131E+02  0.00000000000E+00 0. -1.
         11    1    3    3    0    0  0.97367732715E+00 -0.19361733019E+01 -0.15342638702E+01  0.26553305777E+01  0.51100000000E-03 0. -1.
        -11    1    3    3    0    0  0.10597068191E+01 -0.17154502967E+01  0.94133979245E+00  0.22252795619E+01  0.51100000000E-03 0.  1.
        -12    1    3    3    0    0 -0.35926675277E+02 -0.22149676016E+02 -0.77232834441E+01  0.42906680730E+02  0.00000000000E+00 0.  1.
</event>
<event>
 7    1  0.2486105E-010  0.4778727E+02  0.7816164E-02  0.1312668E+00
        -11   -1    0    0    0    0  0.00000000000E+00  0.00000000000E+00  0.45593999997E+02  0.45594000000E+02  0.51100000000E-03 0.  1.
         11   -1    0    0    0    0 -0.00000000000E+00 -0.00000000000E+00 -0.45593999997E+02  0.45594000000E+02  0.51100000000E-03 0. -1.
    9900012    2    1    2    0    0 -0.11031913812E+02 -0.84269084035E+01  0.41120644646E+02  0.47787270471E+02  0.19999997383E+02 0.  0.
         12    1    1    2    0    0  0.11031913812E+02  0.84269084035E+01 -0.41120644646E+02  0.43400729529E+02  0.00000000000E+00 0. -1.
         11    1    3    3    0    0 -0.95471248942E+01 -0.40013161471E+01  0.30541314873E+02  0.32247946277E+02  0.51100000000E-03 0. -1.
        -11    1    3    3    0    0 -0.30523307629E+01 -0.24000488232E+01  0.11998521386E+02  0.12611164623E+02  0.51100000000E-03 0.  1.
         12    1    3    3    0    0  0.15675418448E+01 -0.20255434333E+01 -0.14191916131E+01  0.29281595705E+01  0.00000000000E+00 0. -1.
</event>
<event>
 7    1  0.2486105E-010  0.4778727E+02  0.7816164E-02  0.1312668E+00
        -11   -1    0    0    0    0  0.00000000000E+00  0.00000000000E+00  0.45593999997E+02  0.45594000000E+02  0.51100000000E-03 0.  1.
         11   -1    0    0    0    0 -0.00000000000E+00 -0.00000000000E+00 -0.45593999997E+02  0.45594000000E+02  0.51100000000E-03 0. -1.
    9900012    2    1    2    0    0 -0.15732571277E+02 -0.31566978541E+01  0.40325483230E+02  0.47787272609E+02  0.20000007131E+02 0.  0.
         12    1    1    2    0    0  0.15732571277E+02  0.31566978541E+01 -0.40325483230E+02  0.43400727391E+02  0.00000000000E+00 0. -1.
         11    1    3    3    0    0 -0.27499190155E+01 -0.18967943236E+01  0.14606132108E+01  0.36459943102E+01  0.51100000000E-03 0. -1.
        -11    1    3    3    0    0 -0.58979085652E+01  0.70706013760E+01  0.23853809142E+02  0.25569179496E+02  0.51100000000E-03 0.  1.
         12    1    3    3    0    0 -0.70847436967E+01 -0.83305049065E+01  0.15011060877E+02  0.18572098802E+02  0.00000000000E+00 0. -1.
</event>
<event>
 7    1  0.2486105E-010  0.4778727E+02  0.7816164E-02  0.1312668E+00
        -11   -1    0    0    0    0  0.00000000000E+00  0.00000000000E+00  0.45593999997E+02  0.45594000000E+02  0.51100000000E-03 0. -1.
         11   -1    0    0    0    0 -0.00000000000E+00 -0.00000000000E+00 -0.45593999997E+02  0.45594000000E+02  0.51100000000E-03 0.  1.
    9900012    2    1    2    0    0  0.39428545719E+02  0.22210048519E+01 -0.18002229533E+02  0.47787270188E+02  0.19999996094E+02 0.  0.
         12    1    1    2    0    0 -0.39428545719E+02 -0.22210048519E+01  0.18002229533E+02  0.43400729812E+02  0.00000000000E+00 0. -1.
         11    1    3    3    0    0  0.30499228765E+02  0.72392988611E+01 -0.11566249084E+02  0.33412400713E+02  0.51100000000E-03 0.  1.
        -11    1    3    3    0    0  0.23083098470E+01  0.14888920795E+01  0.49302444586E+00  0.27907288187E+01  0.51100000000E-03 0. -1.
        -12    1    3    3    0    0  0.66210071069E+01 -0.65071860888E+01 -0.69290048949E+01  0.11584140656E+02  0.00000000000E+00 0.  1.
</event>
<event>
 7    1  0.2486105E-010  0.4778726E+02  0.7816164E-02  0.1312668E+00
        -11   -1    0    0    0    0  0.00000000000E+00  0.00000000000E+00  0.45593999997E+02  0.45594000000E+02  0.51100000000E-03 0.  1.
         11   -1    0    0    0    0 -0.00000000000E+00 -0.00000000000E+00 -0.45593999997E+02  0.45594000000E+02  0.51100000000E-03 0. -1.
    9900012    2    1    2    0    0 -0.18522384661E+02 -0.23636014771E+02  0.31335031437E+02  0.47787261263E+02  0.19999955401E+02 0.  0.
         12    1    1    2    0    0  0.18522384661E+02  0.23636014771E+02 -0.31335031437E+02  0.43400738737E+02  0.00000000000E+00 0. -1.
         11    1    3    3    0    0 -0.67226596258E+01 -0.62241262592E+01  0.11492843939E+01  0.92333501511E+01  0.51100000000E-03 0. -1.
        -11    1    3    3    0    0 -0.99186811496E+01 -0.73747690011E+01  0.98744421435E+01  0.15819989301E+02  0.51100000000E-03 0.  1.
         12    1    3    3    0    0 -0.18810438852E+01 -0.10037119511E+02  0.20311304900E+02  0.22733921811E+02  0.00000000000E+00 0. -1.
</event>
<event>
 7    1  0.2486105E-010  0.4778727E+02  0.7816164E-02  0.1312668E+00
        -11   -1    0    0    0    0  0.00000000000E+00  0.00000000000E+00  0.45593999997E+02  0.45594000000E+02  0.51100000000E-03 0.  1.
         11   -1    0    0    0    0 -0.00000000000E+00 -0.00000000000E+00 -0.45593999997E+02  0.45594000000E+02  0.51100000000E-03 0. -1.
    9900012    2    1    2    0    0  0.32802469531E+02  0.28391935853E+02  0.12326066954E+01  0.47787270190E+02  0.19999996104E+02 0.  0.
         12    1    1    2    0    0 -0.32802469531E+02 -0.28391935853E+02 -0.12326066954E+01  0.43400729810E+02  0.00000000000E+00 0. -1.
         11    1    3    3    0    0  0.10204547753E+01  0.30699264815E+01 -0.35886672184E+01  0.48315948936E+01  0.51100000000E-03 0. -1.
        -11    1    3    3    0    0  0.11948263045E+02  0.72649070121E+01  0.77269890134E+01  0.15976427108E+02  0.51100000000E-03 0.  1.
         12    1    3    3    0    0  0.19833751711E+02  0.18057102359E+02 -0.29057150996E+01  0.26979248188E+02  0.00000000000E+00 0. -1.
</event>
<event>
 7    1  0.2486105E-010  0.4778727E+02  0.7816164E-02  0.1312668E+00
        -11   -1    0    0    0    0  0.00000000000E+00  0.00000000000E+00  0.45593999997E+02  0.45594000000E+02  0.51100000000E-03 0.  1.
         11   -1    0    0    0    0 -0.00000000000E+00 -0.00000000000E+00 -0.45593999997E+02  0.45594000000E+02  0.51100000000E-03 0. -1.
    9900012    2    1    2    0    0  0.39177551250E+02  0.17754142463E+02  0.57908133022E+01  0.47787267112E+02  0.19999982069E+02 0.  0.
         12    1    1    2    0    0 -0.39177551250E+02 -0.17754142463E+02 -0.57908133022E+01  0.43400732888E+02  0.00000000000E+00 0. -1.
         11    1    3    3    0    0  0.27526904975E+01  0.44805900897E+01 -0.29723567553E+01  0.60405212912E+01  0.51100000000E-03 0. -1.
        -11    1    3    3    0    0  0.37681838701E+01  0.11029127413E+01  0.54802848333E+01  0.67415983497E+01  0.51100000000E-03 0.  1.
        -12    1    3    3    0    0  0.32656676882E+02  0.12170639632E+02  0.32828852242E+01  0.35005147471E+02  0.00000000000E+00 0.  1.
</event>
<event>
 7    1  0.2486105E-010  0.4778728E+02  0.7816164E-02  0.1312668E+00
        -11   -1    0    0    0    0  0.00000000000E+00  0.00000000000E+00  0.45593999997E+02  0.45594000000E+02  0.51100000000E-03 0.  1.
         11   -1    0    0    0    0 -0.00000000000E+00 -0.00000000000E+00 -0.45593999997E+02  0.45594000000E+02  0.51100000000E-03 0. -1.
    9900012    2    1    2    0    0  0.87236549449E+01 -0.38793310645E+02  0.17395377196E+02  0.47787282792E+02  0.20000053560E+02 0.  0.
         12    1    1    2    0    0 -0.87236549449E+01  0.38793310645E+02 -0.17395377196E+02  0.43400717208E+02  0.00000000000E+00 0. -1.
         11    1    3    3    0    0 -0.26673679008E+01 -0.12637831362E+02  0.43332285436E+01  0.13623747757E+02  0.51100000000E-03 0. -1.
        -11    1    3    3    0    0  0.24987055265E+01 -0.12046880348E+02  0.12407894827E+02  0.17473600365E+02  0.51100000000E-03 0.  1.
        -12    1    3    3    0    0  0.88923173193E+01 -0.14108598935E+02  0.65425382518E+00  0.16689934670E+02  0.00000000000E+00 0.  1.
</event>
<event>
 7    1  0.2486105E-010  0.4778727E+02  0.7816164E-02  0.1312668E+00
        -11   -1    0    0    0    0  0.00000000000E+00  0.00000000000E+00  0.45593999997E+02  0.45594000000E+02  0.51100000000E-03 0. -1.
         11   -1    0    0    0    0 -0.00000000000E+00 -0.00000000000E+00 -0.45593999997E+02  0.45594000000E+02  0.51100000000E-03 0.  1.
    9900012    2    1    2    0    0  0.75897743734E+01 -0.10189717939E+02 -0.41499260682E+02  0.47787266551E+02  0.19999979514E+02 0.  0.
         12    1    1    2    0    0 -0.75897743734E+01  0.10189717939E+02  0.41499260682E+02  0.43400733449E+02  0.00000000000E+00 0. -1.
         11    1    3    3    0    0  0.56802453290E+01 -0.82828018343E+01 -0.83349781283E+01  0.13051507725E+02  0.51100000000E-03 0. -1.
        -11    1    3    3    0    0 -0.33202708347E+01  0.14191880449E+01 -0.73661617820E+01  0.82035743905E+01  0.51100000000E-03 0.  1.
        -12    1    3    3    0    0  0.52297998791E+01 -0.33261041500E+01 -0.25798120772E+02  0.26532184436E+02  0.00000000000E+00 0.  1.
</event>
<event>
 7    1  0.2486105E-010  0.4778725E+02  0.7816164E-02  0.1312668E+00
        -11   -1    0    0    0    0  0.00000000000E+00  0.00000000000E+00  0.45593999997E+02  0.45594000000E+02  0.51100000000E-03 0.  1.
         11   -1    0    0    0    0 -0.00000000000E+00 -0.00000000000E+00 -0.45593999997E+02  0.45594000000E+02  0.51100000000E-03 0. -1.
    9900012    2    1    2    0    0  0.29665738927E+02 -0.31511947111E+02  0.32505945754E+01  0.47787248372E+02  0.19999896625E+02 0.  0.
         12    1    1    2    0    0 -0.29665738927E+02  0.31511947111E+02 -0.32505945754E+01  0.43400751628E+02  0.00000000000E+00 0. -1.
         11    1    3    3    0    0  0.46186429783E+01 -0.11479442343E+02  0.13403669452E+01  0.12446125633E+02  0.51100000000E-03 0. -1.
        -11    1    3    3    0    0  0.14742360186E+02 -0.16116662884E+02  0.73534023988E+01  0.23046833480E+02  0.51100000000E-03 0.  1.
        -12    1    3    3    0    0  0.10304735763E+02 -0.39158418841E+01 -0.54431747685E+01  0.12294289258E+02  0.00000000000E+00 0.  1.
</event>
<event>
 7    1  0.2486105E-010  0.4778727E+02  0.7816164E-02  0.1312668E+00
        -11   -1    0    0    0    0  0.00000000000E+00  0.00000000000E+00  0.45593999997E+02  0.45594000000E+02  0.51100000000E-03 0. -1.
         11   -1    0    0    0    0 -0.00000000000E+00 -0.00000000000E+00 -0.45593999997E+02  0.45594000000E+02  0.51100000000E-03 0.  1.
    9900012    2    1    2    0    0  0.40210226492E+02 -0.12390660877E+01 -0.16285764154E+02  0.47787265981E+02  0.19999976914E+02 0.  0.
         12    1    1    2    0    0 -0.40210226492E+02  0.12390660877E+01  0.16285764154E+02  0.43400734019E+02  0.00000000000E+00 0. -1.
         11    1    3    3    0    0  0.40155456652E+01 -0.36124420454E+01  0.27709100280E+01  0.60706084675E+01  0.51100000000E-03 0. -1.
        -11    1    3    3    0    0  0.81943079942E+01  0.32137673359E+01 -0.23905180558E+01  0.91208311480E+01  0.51100000000E-03 0.  1.
        -12    1    3    3    0    0  0.28000372833E+02 -0.84039137815E+00 -0.16666156126E+02  0.32595826366E+02  0.00000000000E+00 0.  1.
</event>
<event>
 7    1  0.2486105E-010  0.4778727E+02  0.7816164E-02  0.1312668E+00
        -11   -1    0    0    0    0  0.00000000000E+00  0.00000000000E+00  0.45593999997E+02  0.45594000000E+02  0.51100000000E-03 0. -1.
         11   -1    0    0    0    0 -0.00000000000E+00 -0.00000000000E+00 -0.45593999997E+02  0.45594000000E+02  0.51100000000E-03 0.  1.
    9900012    2    1    2    0    0  0.16602465165E+02  0.39029044620E+02 -0.92040788538E+01  0.47787271423E+02  0.20000001724E+02 0.  0.
         12    1    1    2    0    0 -0.16602465165E+02 -0.39029044620E+02  0.92040788538E+01  0.43400728577E+02  0.00000000000E+00 0. -1.
         11    1    3    3    0    0  0.56083428463E+01  0.71525829295E+00 -0.21079190293E+01  0.60339395757E+01  0.51100000000E-03 0. -1.
        -11    1    3    3    0    0 -0.15755099764E+01  0.26117027451E+01  0.65013848265E+00  0.31186380396E+01  0.51100000000E-03 0.  1.
        -12    1    3    3    0    0  0.12569632295E+02  0.35702083582E+02 -0.77462983072E+01  0.38634693807E+02  0.00000000000E+00 0.  1.
</event>
<event>
 7    1  0.2486105E-010  0.4778726E+02  0.7816164E-02  0.1312668E+00
        -11   -1    0    0    0    0  0.00000000000E+00  0.00000000000E+00  0.45593999997E+02  0.45594000000E+02  0.51100000000E-03 0.  1.
         11   -1    0    0    0    0 -0.00000000000E+00 -0.00000000000E+00 -0.45593999997E+02  0.45594000000E+02  0.51100000000E-03 0. -1.
    9900012    2    1    2    0    0 -0.48228282569E+01  0.17384028489E+02  0.39473540428E+02  0.47787256771E+02  0.19999934922E+02 0.  0.
         12    1    1    2    0    0  0.48228282569E+01 -0.17384028489E+02 -0.39473540428E+02  0.43400743229E+02  0.00000000000E+00 0. -1.
         11    1    3    3    0    0  0.37491162394E+00  0.86952123652E+01  0.16132244884E+02  0.18330210093E+02  0.51100000000E-03 0.  1.
        -11    1    3    3    0    0 -0.96125911808E+01  0.84164470130E+01  0.13087651330E+02  0.18290027532E+02  0.51100000000E-03 0. -1.
         12    1    3    3    0    0  0.44148512999E+01  0.27236911075E+00  0.10253644215E+02  0.11167019146E+02  0.00000000000E+00 0. -1.
</event>
<event>
 7    1  0.2486105E-010  0.4778727E+02  0.7816164E-02  0.1312668E+00
        -11   -1    0    0    0    0  0.00000000000E+00  0.00000000000E+00  0.45593999997E+02  0.45594000000E+02  0.51100000000E-03 0. -1.
         11   -1    0    0    0    0 -0.00000000000E+00 -0.00000000000E+00 -0.45593999997E+02  0.45594000000E+02  0.51100000000E-03 0.  1.
    9900012    2    1    2    0    0 -0.16303862218E+02 -0.14058345231E+02 -0.37685145095E+02  0.47787272418E+02  0.20000006261E+02 0.  0.
         12    1    1    2    0    0  0.16303862218E+02  0.14058345231E+02  0.37685145095E+02  0.43400727582E+02  0.00000000000E+00 0. -1.
         11    1    3    3    0    0 -0.57549719676E+01 -0.59118289373E+01 -0.24144927102E+02  0.25515621269E+02  0.51100000000E-03 0. -1.
        -11    1    3    3    0    0 -0.68550100397E+01 -0.34691862828E+01 -0.14329882445E+02  0.16259518666E+02  0.51100000000E-03 0.  1.
         12    1    3    3    0    0 -0.36938802106E+01 -0.46773300106E+01  0.78966445168E+00  0.60121324823E+01  0.00000000000E+00 0. -1.
</event>
<event>
 7    1  0.2486105E-010  0.4778727E+02  0.7816164E-02  0.1312668E+00
        -11   -1    0    0    0    0  0.00000000000E+00  0.00000000000E+00  0.45593999997E+02  0.45594000000E+02  0.51100000000E-03 0.  1.
         11   -1    0    0    0    0 -0.00000000000E+00 -0.00000000000E+00 -0.45593999997E+02  0.45594000000E+02  0.51100000000E-03 0. -1.
    9900012    2    1    2    0    0  0.13831914392E+02 -0.15883731831E+02  0.37947444114E+02  0.47787270658E+02  0.19999998239E+02 0.  0.
         12    1    1    2    0    0 -0.13831914392E+02  0.15883731831E+02 -0.37947444114E+02  0.43400729342E+02  0.00000000000E+00 0. -1.
         11    1    3    3    0    0 -0.55146835723E+00 -0.13407469447E+00  0.59152809448E+01  0.59424441344E+01  0.51100000000E-03 0.  1.
        -11    1    3    3    0    0 -0.10184336429E+01 -0.10634180773E+02  0.13344116731E+02  0.17093520977E+02  0.51100000000E-03 0. -1.
         12    1    3    3    0    0  0.15401816392E+02 -0.51154763634E+01  0.18688046438E+02  0.24751305547E+02  0.00000000000E+00 0. -1.
</event>
<event>
 7    1  0.2486105E-010  0.4778727E+02  0.7816164E-02  0.1312668E+00
        -11   -1    0    0    0    0  0.00000000000E+00  0.00000000000E+00  0.45593999997E+02  0.45594000000E+02  0.51100000000E-03 0. -1.
         11   -1    0    0    0    0 -0.00000000000E+00 -0.00000000000E+00 -0.45593999997E+02  0.45594000000E+02  0.51100000000E-03 0.  1.
    9900012    2    1    2    0    0 -0.29969822471E+02 -0.75052413760E+01 -0.30481213370E+02  0.47787271025E+02  0.19999999910E+02 0.  0.
         12    1    1    2    0    0  0.29969822471E+02  0.75052413760E+01  0.30481213370E+02  0.43400728975E+02  0.00000000000E+00 0. -1.
         11    1    3    3    0    0 -0.17905976304E+01 -0.16013743287E+01 -0.76857198924E+00  0.25221702517E+01  0.51100000000E-03 0. -1.
        -11    1    3    3    0    0  0.72959052988E+00 -0.16728286198E+01 -0.96550586385E+01  0.98260274530E+01  0.51100000000E-03 0.  1.
        -12    1    3    3    0    0 -0.28908815371E+02 -0.42310384275E+01 -0.20057582742E+02  0.35439073320E+02  0.00000000000E+00 0.  1.
</event>
<event>
 7    1  0.2486105E-010  0.4778727E+02  0.7816164E-02  0.1312668E+00
        -11   -1    0    0    0    0  0.00000000000E+00  0.00000000000E+00  0.45593999997E+02  0.45594000000E+02  0.51100000000E-03 0.  1.
         11   -1    0    0    0    0 -0.00000000000E+00 -0.00000000000E+00 -0.45593999997E+02  0.45594000000E+02  0.51100000000E-03 0. -1.
    9900012    2    1    2    0    0  0.13157894291E+02 -0.32453331786E+02  0.25637363801E+02  0.47787270181E+02  0.19999996062E+02 0.  0.
         12    1    1    2    0    0 -0.13157894291E+02  0.32453331786E+02 -0.25637363801E+02  0.43400729819E+02  0.00000000000E+00 0. -1.
         11    1    3    3    0    0 -0.15084692959E+01 -0.82504054554E+00  0.34639923800E+01  0.38672231624E+01  0.51100000000E-03 0. -1.
        -11    1    3    3    0    0  0.36766648748E+01 -0.20134933596E+02  0.18522002171E+02  0.27604310899E+02  0.51100000000E-03 0.  1.
        -12    1    3    3    0    0  0.10989698712E+02 -0.11493357645E+02  0.36513692499E+01  0.16315736120E+02  0.00000000000E+00 0.  1.
</event>
<event>
 7    1  0.2486105E-010  0.4778727E+02  0.7816164E-02  0.1312668E+00
        -11   -1    0    0    0    0  0.00000000000E+00  0.00000000000E+00  0.45593999997E+02  0.45594000000E+02  0.51100000000E-03 0. -1.
         11   -1    0    0    0    0 -0.00000000000E+00 -0.00000000000E+00 -0.45593999997E+02  0.45594000000E+02  0.51100000000E-03 0.  1.
    9900012    2    1    2    0    0  0.74415808882E+01 -0.42018197301E+02 -0.79194264208E+01  0.47787270221E+02  0.19999996246E+02 0.  0.
         12    1    1    2    0    0 -0.74415808882E+01  0.42018197301E+02  0.79194264208E+01  0.43400729779E+02  0.00000000000E+00 0. -1.
         11    1    3    3    0    0  0.49640506318E+01 -0.26693011925E+02  0.90138108372E-01  0.27150815999E+02  0.51100000000E-03 0. -1.
        -11    1    3    3    0    0 -0.47993759646E+00 -0.15980519427E+02 -0.68356464742E+01  0.17387737180E+02  0.51100000000E-03 0.  1.
         12    1    3    3    0    0  0.29574678529E+01  0.65533405091E+00 -0.11739180550E+01  0.32487170420E+01  0.00000000000E+00 0. -1.
</event>
<event>
 7    1  0.2486105E-010  0.4778727E+02  0.7816164E-02  0.1312668E+00
        -11   -1    0    0    0    0  0.00000000000E+00  0.00000000000E+00  0.45593999997E+02  0.45594000000E+02  0.51100000000E-03 0.  1.
         11   -1    0    0    0    0 -0.00000000000E+00 -0.00000000000E+00 -0.45593999997E+02  0.45594000000E+02  0.51100000000E-03 0. -1.
    9900012    2    1    2    0    0  0.95854633954E+01  0.30200461248E+02  0.29659298600E+02  0.47787274643E+02  0.20000016406E+02 0.  0.
         12    1    1    2    0    0 -0.95854633954E+01 -0.30200461248E+02 -0.29659298600E+02  0.43400725357E+02  0.00000000000E+00 0. -1.
         11    1    3    3    0    0  0.19666486586E+01  0.18111800323E+02  0.56109505258E+01  0.19062732856E+02  0.51100000000E-03 0. -1.
        -11    1    3    3    0    0  0.12997110145E+01  0.76678291373E+01  0.96786044820E+01  0.12416128116E+02  0.51100000000E-03 0.  1.
         12    1    3    3    0    0  0.63191037223E+01  0.44208317873E+01  0.14369743592E+02  0.16308413671E+02  0.00000000000E+00 0. -1.
</event>
<event>
 7    1  0.2486105E-010  0.4778727E+02  0.7816164E-02  0.1312668E+00
        -11   -1    0    0    0    0  0.00000000000E+00  0.00000000000E+00  0.45593999997E+02  0.45594000000E+02  0.51100000000E-03 0.  1.
         11   -1    0    0    0    0 -0.00000000000E+00 -0.00000000000E+00 -0.45593999997E+02  0.45594000000E+02  0.51100000000E-03 0. -1.
    9900012    2    1    2    0    0 -0.25719954299E+02 -0.10424513191E+02  0.33368198122E+02  0.47787272238E+02  0.20000005441E+02 0.  0.
         12    1    1    2    0    0  0.25719954299E+02  0.10424513191E+02 -0.33368198122E+02  0.43400727762E+02  0.00000000000E+00 0. -1.
         11    1    3    3    0    0 -0.82307462962E+01  0.17767599494E+01  0.93794517325E+01  0.12604609299E+02  0.51100000000E-03 0. -1.
        -11    1    3    3    0    0 -0.28562795221E+01 -0.52044873271E+01  0.16073251241E+02  0.17134597362E+02  0.51100000000E-03 0.  1.
         12    1    3    3    0    0 -0.14632928480E+02 -0.69967858130E+01  0.79154951488E+01  0.18048065577E+02  0.00000000000E+00 0. -1.
</event>
<event>
 7    1  0.2486105E-010  0.4778727E+02  0.7816164E-02  0.1312668E+00
        -11   -1    0    0    0    0  0.00000000000E+00  0.00000000000E+00  0.45593999997E+02  0.45594000000E+02  0.51100000000E-03 0.  1.
         11   -1    0    0    0    0 -0.00000000000E+00 -0.00000000000E+00 -0.45593999997E+02  0.45594000000E+02  0.51100000000E-03 0. -1.
    9900012    2    1    2    0    0 -0.70629418390E+01 -0.24946632238E+02  0.34805225863E+02  0.47787270112E+02  0.19999995748E+02 0.  0.
         12    1    1    2    0    0  0.70629418390E+01  0.24946632238E+02 -0.34805225863E+02  0.43400729888E+02  0.00000000000E+00 0. -1.
         11    1    3    3    0    0 -0.34665656242E+00 -0.15933461958E+01  0.68970856307E+01  0.70872218344E+01  0.51100000000E-03 0. -1.
        -11    1    3    3    0    0 -0.36985002283E+01 -0.24785454617E+02  0.19823826681E+02  0.31952805339E+02  0.51100000000E-03 0.  1.
         12    1    3    3    0    0 -0.30177850483E+01  0.14321685743E+01  0.80843135512E+01  0.87472429381E+01  0.00000000000E+00 0. -1.
</event>
<event>
 7    1  0.2486105E-010  0.4778727E+02  0.7816164E-02  0.1312668E+00
        -11   -1    0    0    0    0  0.00000000000E+00  0.00000000000E+00  0.45593999997E+02  0.45594000000E+02  0.51100000000E-03 0.  1.
         11   -1    0    0    0    0 -0.00000000000E+00 -0.00000000000E+00 -0.45593999997E+02  0.45594000000E+02  0.51100000000E-03 0. -1.
    9900012    2    1    2    0    0 -0.11718502505E+02  0.11287906651E+02  0.40235348342E+02  0.47787269663E+02  0.19999993703E+02 0.  0.
         12    1    1    2    0    0  0.11718502505E+02 -0.11287906651E+02 -0.40235348342E+02  0.43400730337E+02  0.00000000000E+00 0. -1.
         11    1    3    3    0    0 -0.93131060828E+01  0.86419997011E+01  0.12934253436E+02  0.18130444450E+02  0.51100000000E-03 0. -1.
        -11    1    3    3    0    0 -0.50551225783E+01 -0.22860659110E+01  0.95594590431E+01  0.11052765224E+02  0.51100000000E-03 0.  1.
        -12    1    3    3    0    0  0.26497261559E+01  0.49319728613E+01  0.17741635863E+02  0.18604059990E+02  0.00000000000E+00 0.  1.
</event>
<event>
 7    1  0.2486105E-010  0.4778727E+02  0.7816164E-02  0.1312668E+00
        -11   -1    0    0    0    0  0.00000000000E+00  0.00000000000E+00  0.45593999997E+02  0.45594000000E+02  0.51100000000E-03 0.  1.
         11   -1    0    0    0    0 -0.00000000000E+00 -0.00000000000E+00 -0.45593999997E+02  0.45594000000E+02  0.51100000000E-03 0. -1.
    9900012    2    1    2    0    0 -0.28678292861E+02 -0.24827102674E+02  0.21090145049E+02  0.47787265827E+02  0.19999976210E+02 0.  0.
         12    1    1    2    0    0  0.28678292861E+02  0.24827102674E+02 -0.21090145049E+02  0.43400734173E+02  0.00000000000E+00 0. -1.
         11    1    3    3    0    0 -0.27950521063E+01 -0.10691523583E+02  0.25961186390E+01  0.11351688203E+02  0.51100000000E-03 0. -1.
        -11    1    3    3    0    0 -0.17030644272E+02 -0.13342884947E+02  0.90055223661E+01  0.23434480075E+02  0.51100000000E-03 0.  1.
        -12    1    3    3    0    0 -0.88525964827E+01 -0.79269414401E+00  0.94885040440E+01  0.13001097549E+02  0.00000000000E+00 0.  1.
</event>
<event>
 7    1  0.2486105E-010  0.4778727E+02  0.7816164E-02  0.1312668E+00
        -11   -1    0    0    0    0  0.00000000000E+00  0.00000000000E+00  0.45593999997E+02  0.45594000000E+02  0.51100000000E-03 0.  1.
         11   -1    0    0    0    0 -0.00000000000E+00 -0.00000000000E+00 -0.45593999997E+02  0.45594000000E+02  0.51100000000E-03 0. -1.
    9900012    2    1    2    0    0  0.24022795141E+02  0.35419017244E+02  0.72126147870E+01  0.47787270963E+02  0.19999999628E+02 0.  0.
         12    1    1    2    0    0 -0.24022795141E+02 -0.35419017244E+02 -0.72126147870E+01  0.43400729037E+02  0.00000000000E+00 0. -1.
         11    1    3    3    0    0  0.86901000493E+01  0.10596035869E+02  0.20807469716E+01  0.13860855790E+02  0.51100000000E-03 0. -1.
        -11    1    3    3    0    0  0.85175634617E+01  0.71629025255E+01  0.93468088285E+01  0.14533371785E+02  0.51100000000E-03 0.  1.
         12    1    3    3    0    0  0.68151316301E+01  0.17660078849E+02 -0.42149410131E+01  0.19393043387E+02  0.00000000000E+00 0. -1.
</event>
<event>
 7    1  0.2486105E-010  0.4778727E+02  0.7816164E-02  0.1312668E+00
        -11   -1    0    0    0    0  0.00000000000E+00  0.00000000000E+00  0.45593999997E+02  0.45594000000E+02  0.51100000000E-03 0.  1.
         11   -1    0    0    0    0 -0.00000000000E+00 -0.00000000000E+00 -0.45593999997E+02  0.45594000000E+02  0.51100000000E-03 0. -1.
    9900012    2    1    2    0    0  0.32286589316E+02  0.14029563218E+02  0.25384468305E+02  0.47787265848E+02  0.19999976308E+02 0.  0.
         12    1    1    2    0    0 -0.32286589316E+02 -0.14029563218E+02 -0.25384468305E+02  0.43400734152E+02  0.00000000000E+00 0. -1.
         11    1    3    3    0    0 -0.11720799515E+01 -0.47632127778E+00  0.35680660484E+01  0.37857296469E+01  0.51100000000E-03 0. -1.
        -11    1    3    3    0    0  0.18057008773E+02  0.13827762470E+02  0.11867446049E+02  0.25653437523E+02  0.51100000000E-03 0.  1.
         12    1    3    3    0    0  0.15401660495E+02  0.67812202576E+00  0.99489562084E+01  0.18348098679E+02  0.00000000000E+00 0. -1.
</event>
<event>
 7    1  0.2486105E-010  0.4778727E+02  0.7816164E-02  0.1312668E+00
        -11   -1    0    0    0    0  0.00000000000E+00  0.00000000000E+00  0.45593999997E+02  0.45594000000E+02  0.51100000000E-03 0.  1.
         11   -1    0    0    0    0 -0.00000000000E+00 -0.00000000000E+00 -0.45593999997E+02  0.45594000000E+02  0.51100000000E-03 0. -1.
    9900012    2    1    2    0    0  0.15053569780E+01  0.22818857473E+02  0.36887081369E+02  0.47787272726E+02  0.20000007668E+02 0.  0.
         12    1    1    2    0    0 -0.15053569780E+01 -0.22818857473E+02 -0.36887081369E+02  0.43400727274E+02  0.00000000000E+00 0. -1.
         11    1    3    3    0    0 -0.63982755549E+01  0.12065243242E+02  0.96747529848E+01  0.16736453332E+02  0.51100000000E-03 0. -1.
        -11    1    3    3    0    0  0.85773217896E+00  0.64245189551E+01  0.14536271492E+02  0.15915820351E+02  0.51100000000E-03 0.  1.
         12    1    3    3    0    0  0.70459003539E+01  0.43290952757E+01  0.12676056893E+02  0.15134999043E+02  0.00000000000E+00 0. -1.
</event>
<event>
 7    1  0.2486105E-010  0.4778727E+02  0.7816164E-02  0.1312668E+00
        -11   -1    0    0    0    0  0.00000000000E+00  0.00000000000E+00  0.45593999997E+02  0.45594000000E+02  0.51100000000E-03 0.  1.
         11   -1    0    0    0    0 -0.00000000000E+00 -0.00000000000E+00 -0.45593999997E+02  0.45594000000E+02  0.51100000000E-03 0. -1.
    9900012    2    1    2    0    0 -0.27646172288E+02 -0.24363399117E+02  0.22928958823E+02  0.47787271764E+02  0.20000003280E+02 0.  0.
         12    1    1    2    0    0  0.27646172288E+02  0.24363399117E+02 -0.22928958823E+02  0.43400728236E+02  0.00000000000E+00 0. -1.
         11    1    3    3    0    0 -0.18277762065E+01  0.18337811189E+01 -0.19838242112E+01  0.32617599261E+01  0.51100000000E-03 0. -1.
        -11    1    3    3    0    0 -0.61599063872E+01 -0.46567570745E+01  0.46396788962E+01  0.90086876776E+01  0.51100000000E-03 0.  1.
         12    1    3    3    0    0 -0.19658489695E+02 -0.21540423161E+02  0.20273104138E+02  0.35516824160E+02  0.00000000000E+00 0. -1.
</event>
<event>
 7    1  0.2486105E-010  0.4778728E+02  0.7816164E-02  0.1312668E+00
        -11   -1    0    0    0    0  0.00000000000E+00  0.00000000000E+00  0.45593999997E+02  0.45594000000E+02  0.51100000000E-03 0. -1.
         11   -1    0    0    0    0 -0.00000000000E+00 -0.00000000000E+00 -0.45593999997E+02  0.45594000000E+02  0.51100000000E-03 0.  1.
    9900012    2    1    2    0    0 -0.12758868492E+02 -0.41480232579E+02  0.47358641777E+00  0.47787277609E+02  0.20000029931E+02 0.  0.
         12    1    1    2    0    0  0.12758868492E+02  0.41480232579E+02 -0.47358641777E+00  0.43400722391E+02  0.00000000000E+00 0. -1.
         11    1    3    3    0    0 -0.66949696113E+01 -0.10155284901E+02 -0.82362313877E+00  0.12191422593E+02  0.51100000000E-03 0. -1.
        -11    1    3    3    0    0 -0.57388661672E+01 -0.33169308505E+02  0.15933764894E+01  0.33699799116E+02  0.51100000000E-03 0.  1.
         12    1    3    3    0    0 -0.32503271327E+00  0.18443608267E+01 -0.29616693289E+00  0.18960559000E+01  0.00000000000E+00 0. -1.
</event>
<event>
 7    1  0.2486105E-010  0.4778727E+02  0.7816164E-02  0.1312668E+00
        -11   -1    0    0    0    0  0.00000000000E+00  0.00000000000E+00  0.45593999997E+02  0.45594000000E+02  0.51100000000E-03 0.  1.
         11   -1    0    0    0    0 -0.00000000000E+00 -0.00000000000E+00 -0.45593999997E+02  0.45594000000E+02  0.51100000000E-03 0. -1.
    9900012    2    1    2    0    0 -0.14357380352E+02  0.26060795916E+02  0.31596261052E+02  0.47787272278E+02  0.20000005623E+02 0.  0.
         12    1    1    2    0    0  0.14357380352E+02 -0.26060795916E+02 -0.31596261052E+02  0.43400727722E+02  0.00000000000E+00 0. -1.
         11    1    3    3    0    0 -0.19660189341E+01  0.43354411475E+01  0.48316704310E+01  0.67827958696E+01  0.51100000000E-03 0. -1.
        -11    1    3    3    0    0 -0.26942723290E+01  0.18964983747E+02  0.23686487526E+02  0.30462754365E+02  0.51100000000E-03 0.  1.
         12    1    3    3    0    0 -0.96970890891E+01  0.27603710214E+01  0.30781030952E+01  0.10541722043E+02  0.00000000000E+00 0. -1.
</event>
<event>
 7    1  0.2486105E-010  0.4778727E+02  0.7816164E-02  0.1312668E+00
        -11   -1    0    0    0    0  0.00000000000E+00  0.00000000000E+00  0.45593999997E+02  0.45594000000E+02  0.51100000000E-03 0.  1.
         11   -1    0    0    0    0 -0.00000000000E+00 -0.00000000000E+00 -0.45593999997E+02  0.45594000000E+02  0.51100000000E-03 0. -1.
    9900012    2    1    2    0    0 -0.22454347431E+01 -0.10430341289E+02  0.42068865946E+02  0.47787268686E+02  0.19999989249E+02 0.  0.
         12    1    1    2    0    0  0.22454347431E+01  0.10430341289E+02 -0.42068865946E+02  0.43400731314E+02  0.00000000000E+00 0. -1.
         11    1    3    3    0    0 -0.44296027798E+01 -0.40121676469E+00  0.20693958183E+02  0.21166536354E+02  0.51100000000E-03 0. -1.
        -11    1    3    3    0    0 -0.17840386165E+01  0.73364859216E+00  0.10955481012E+02  0.11124010001E+02  0.51100000000E-03 0.  1.
        -12    1    3    3    0    0  0.39682066532E+01 -0.10762773117E+02  0.10419426750E+02  0.15496722331E+02  0.00000000000E+00 0.  1.
</event>
<event>
 7    1  0.2486105E-010  0.4778727E+02  0.7816164E-02  0.1312668E+00
        -11   -1    0    0    0    0  0.00000000000E+00  0.00000000000E+00  0.45593999997E+02  0.45594000000E+02  0.51100000000E-03 0.  1.
         11   -1    0    0    0    0 -0.00000000000E+00 -0.00000000000E+00 -0.45593999997E+02  0.45594000000E+02  0.51100000000E-03 0. -1.
    9900012    2    1    2    0    0 -0.16525554632E+02 -0.12922428620E+02  0.37993949103E+02  0.47787270908E+02  0.19999999376E+02 0.  0.
         12    1    1    2    0    0  0.16525554632E+02  0.12922428620E+02 -0.37993949103E+02  0.43400729092E+02  0.00000000000E+00 0. -1.
         11    1    3    3    0    0 -0.67996998271E-01  0.92526894009E+00 -0.13004277238E+01  0.15974538270E+01  0.51100000000E-03 0. -1.
        -11    1    3    3    0    0 -0.10048595930E+02 -0.27144761146E+01  0.11155910536E+02  0.15257686617E+02  0.51100000000E-03 0.  1.
        -12    1    3    3    0    0 -0.64089617041E+01 -0.11133221445E+02  0.28138466290E+02  0.30932130464E+02  0.00000000000E+00 0.  1.
</event>
<event>
 7    1  0.2486105E-010  0.4778725E+02  0.7816164E-02  0.1312668E+00
        -11   -1    0    0    0    0  0.00000000000E+00  0.00000000000E+00  0.45593999997E+02  0.45594000000E+02  0.51100000000E-03 0. -1.
         11   -1    0    0    0    0 -0.00000000000E+00 -0.00000000000E+00 -0.45593999997E+02  0.45594000000E+02  0.51100000000E-03 0.  1.
    9900012    2    1    2    0    0 -0.33832806474E+02 -0.11666122655E+02 -0.24553364391E+02  0.47787252143E+02  0.19999913819E+02 0.  0.
         12    1    1    2    0    0  0.33832806474E+02  0.11666122655E+02  0.24553364391E+02  0.43400747857E+02  0.00000000000E+00 0. -1.
         11    1    3    3    0    0 -0.23121285350E+01 -0.22074905149E+01 -0.77098936519E+01  0.83463413014E+01  0.51100000000E-03 0. -1.
        -11    1    3    3    0    0 -0.15044224432E+02 -0.82024376586E+01 -0.15074682555E+02  0.22822241930E+02  0.51100000000E-03 0.  1.
         12    1    3    3    0    0 -0.16476453507E+02 -0.12561944811E+01 -0.17687881835E+01  0.16618668911E+02  0.00000000000E+00 0. -1.
</event>
<event>
 7    1  0.2486105E-010  0.4778727E+02  0.7816164E-02  0.1312668E+00
        -11   -1    0    0    0    0  0.00000000000E+00  0.00000000000E+00  0.45593999997E+02  0.45594000000E+02  0.51100000000E-03 0. -1.
         11   -1    0    0    0    0 -0.00000000000E+00 -0.00000000000E+00 -0.45593999997E+02  0.45594000000E+02  0.51100000000E-03 0.  1.
    9900012    2    1    2    0    0 -0.30270618922E+02  0.29864135720E+02 -0.86859801187E+01  0.47787271633E+02  0.20000002682E+02 0.  0.
         12    1    1    2    0    0  0.30270618922E+02 -0.29864135720E+02  0.86859801187E+01  0.43400728367E+02  0.00000000000E+00 0. -1.
         11    1    3    3    0    0 -0.61311801209E+01  0.14451743557E+02 -0.34990508328E+01  0.16083768791E+02  0.51100000000E-03 0. -1.
        -11    1    3    3    0    0 -0.17566466300E+02  0.16848728428E+02 -0.55514562340E+01  0.24965557364E+02  0.51100000000E-03 0.  1.
        -12    1    3    3    0    0 -0.65729725008E+01 -0.14363362660E+01  0.36452694810E+00  0.67379454777E+01  0.00000000000E+00 0.  1.
</event>
<event>
 7    1  0.2486105E-010  0.4778727E+02  0.7816164E-02  0.1312668E+00
        -11   -1    0    0    0    0  0.00000000000E+00  0.00000000000E+00  0.45593999997E+02  0.45594000000E+02  0.51100000000E-03 0. -1.
         11   -1    0    0    0    0 -0.00000000000E+00 -0.00000000000E+00 -0.45593999997E+02  0.45594000000E+02  0.51100000000E-03 0.  1.
    9900012    2    1    2    0    0  0.32950978259E+02 -0.12903947132E+02 -0.25126571837E+02  0.47787269221E+02  0.19999991687E+02 0.  0.
         12    1    1    2    0    0 -0.32950978259E+02  0.12903947132E+02  0.25126571837E+02  0.43400730779E+02  0.00000000000E+00 0. -1.
         11    1    3    3    0    0  0.18938009800E+01 -0.56975059193E+01 -0.38521408359E+01  0.71335156222E+01  0.51100000000E-03 0. -1.
        -11    1    3    3    0    0  0.30161296893E+01 -0.21648144338E+01 -0.88014042099E+01  0.95523911228E+01  0.51100000000E-03 0.  1.
        -12    1    3    3    0    0  0.28041047590E+02 -0.50416267787E+01 -0.12473026792E+02  0.31101362476E+02  0.00000000000E+00 0.  1.
</event>
<event>
 7    1  0.2486105E-010  0.4778727E+02  0.7816164E-02  0.1312668E+00
        -11   -1    0    0    0    0  0.00000000000E+00  0.00000000000E+00  0.45593999997E+02  0.45594000000E+02  0.51100000000E-03 0. -1.
         11   -1    0    0    0    0 -0.00000000000E+00 -0.00000000000E+00 -0.45593999997E+02  0.45594000000E+02  0.51100000000E-03 0.  1.
    9900012    2    1    2    0    0  0.13136494070E+02  0.50058921986E+01 -0.41060894342E+02  0.47787268701E+02  0.19999989315E+02 0.  0.
         12    1    1    2    0    0 -0.13136494070E+02 -0.50058921986E+01  0.41060894342E+02  0.43400731299E+02  0.00000000000E+00 0. -1.
         11    1    3    3    0    0  0.10797291648E+02 -0.20668944431E+01 -0.85246234527E+01  0.13911245984E+02  0.51100000000E-03 0. -1.
        -11    1    3    3    0    0  0.15399395919E+01 -0.47442257148E+00 -0.33240200322E+01  0.36939951487E+01  0.51100000000E-03 0.  1.
         12    1    3    3    0    0  0.79926283027E+00  0.75472092131E+01 -0.29212250857E+02  0.30182027568E+02  0.00000000000E+00 0. -1.
</event>
<event>
 7    1  0.2486105E-010  0.4778727E+02  0.7816164E-02  0.1312668E+00
        -11   -1    0    0    0    0  0.00000000000E+00  0.00000000000E+00  0.45593999997E+02  0.45594000000E+02  0.51100000000E-03 0.  1.
         11   -1    0    0    0    0 -0.00000000000E+00 -0.00000000000E+00 -0.45593999997E+02  0.45594000000E+02  0.51100000000E-03 0. -1.
    9900012    2    1    2    0    0  0.11302683465E+02 -0.30296803026E+02  0.28947815303E+02  0.47787274915E+02  0.20000017648E+02 0.  0.
         12    1    1    2    0    0 -0.11302683465E+02  0.30296803026E+02 -0.28947815303E+02  0.43400725085E+02  0.00000000000E+00 0. -1.
         11    1    3    3    0    0 -0.10568937960E+00 -0.66735315393E+01 -0.96281039144E+00  0.67434559064E+01  0.51100000000E-03 0. -1.
        -11    1    3    3    0    0  0.41804015677E+01 -0.15882282220E+02  0.12396830143E+02  0.20576784094E+02  0.51100000000E-03 0.  1.
        -12    1    3    3    0    0  0.72279712771E+01 -0.77409892668E+01  0.17513795551E+02  0.20467034915E+02  0.00000000000E+00 0.  1.
</event>
<event>
 7    1  0.2486105E-010  0.4778727E+02  0.7816164E-02  0.1312668E+00
        -11   -1    0    0    0    0  0.00000000000E+00  0.00000000000E+00  0.45593999997E+02  0.45594000000E+02  0.51100000000E-03 0.  1.
         11   -1    0    0    0    0 -0.00000000000E+00 -0.00000000000E+00 -0.45593999997E+02  0.45594000000E+02  0.51100000000E-03 0. -1.
    9900012    2    1    2    0    0  0.14807053645E+02 -0.21229844662E+02  0.34837741164E+02  0.47787270150E+02  0.19999995924E+02 0.  0.
         12    1    1    2    0    0 -0.14807053645E+02  0.21229844662E+02 -0.34837741164E+02  0.43400729850E+02  0.00000000000E+00 0. -1.
         11    1    3    3    0    0  0.21208655912E+01 -0.51619696428E+01  0.14668737708E+01  0.57702443943E+01  0.51100000000E-03 0. -1.
        -11    1    3    3    0    0  0.64254863739E+01 -0.88794373858E+00  0.23148479638E+01  0.68872229948E+01  0.51100000000E-03 0.  1.
        -12    1    3    3    0    0  0.62607016801E+01 -0.15179931281E+02  0.31056019430E+02  0.35129802761E+02  0.00000000000E+00 0.  1.
</event>
<event>
 7    1  0.2486105E-010  0.4778727E+02  0.7816164E-02  0.1312668E+00
        -11   -1    0    0    0    0  0.00000000000E+00  0.00000000000E+00  0.45593999997E+02  0.45594000000E+02  0.51100000000E-03 0. -1.
         11   -1    0    0    0    0 -0.00000000000E+00 -0.00000000000E+00 -0.45593999997E+02  0.45594000000E+02  0.51100000000E-03 0.  1.
    9900012    2    1    2    0    0  0.34009587624E+02 -0.35180998588E+01 -0.26731897804E+02  0.47787269163E+02  0.19999991422E+02 0.  0.
         12    1    1    2    0    0 -0.34009587624E+02  0.35180998588E+01  0.26731897804E+02  0.43400730837E+02  0.00000000000E+00 0. -1.
         11    1    3    3    0    0  0.89971055606E+01 -0.18489588128E+01 -0.11078633761E+02  0.14391062623E+02  0.51100000000E-03 0. -1.
        -11    1    3    3    0    0  0.92785628790E+01  0.25168474169E+01 -0.14066295672E+02  0.17037808668E+02  0.51100000000E-03 0.  1.
         12    1    3    3    0    0  0.15733919184E+02 -0.41859884629E+01 -0.15869683711E+01  0.16358397871E+02  0.00000000000E+00 0. -1.
</event>
<event>
 7    1  0.2486105E-010  0.4778727E+02  0.7816164E-02  0.1312668E+00
        -11   -1    0    0    0    0  0.00000000000E+00  0.00000000000E+00  0.45593999997E+02  0.45594000000E+02  0.51100000000E-03 0.  1.
         11   -1    0    0    0    0 -0.00000000000E+00 -0.00000000000E+00 -0.45593999997E+02  0.45594000000E+02  0.51100000000E-03 0. -1.
    9900012    2    1    2    0    0 -0.25759879677E+02 -0.75577076943E+01  0.34101802221E+02  0.47787271190E+02  0.20000000662E+02 0.  0.
         12    1    1    2    0    0  0.25759879677E+02  0.75577076943E+01 -0.34101802221E+02  0.43400728810E+02  0.00000000000E+00 0. -1.
         11    1    3    3    0    0 -0.19026914519E+01 -0.31780043664E+01  0.11060059188E+02  0.11663826817E+02  0.51100000000E-03 0. -1.
        -11    1    3    3    0    0 -0.30968386793E+01  0.33874501076E+01  0.83578764830E+01  0.95351626941E+01  0.51100000000E-03 0.  1.
         12    1    3    3    0    0 -0.20760349545E+02 -0.77671534355E+01  0.14683866550E+02  0.26588281678E+02  0.00000000000E+00 0. -1.
</event>
<event>
 7    1  0.2486105E-010  0.4778727E+02  0.7816164E-02  0.1312668E+00
        -11   -1    0    0    0    0  0.00000000000E+00  0.00000000000E+00  0.45593999997E+02  0.45594000000E+02  0.51100000000E-03 0.  1.
         11   -1    0    0    0    0 -0.00000000000E+00 -0.00000000000E+00 -0.45593999997E+02  0.45594000000E+02  0.51100000000E-03 0. -1.
    9900012    2    1    2    0    0  0.28642957144E+02 -0.11241501751E+02  0.30607727880E+02  0.47787270034E+02  0.19999995395E+02 0.  0.
         12    1    1    2    0    0 -0.28642957144E+02  0.11241501751E+02 -0.30607727880E+02  0.43400729966E+02  0.00000000000E+00 0. -1.
         11    1    3    3    0    0  0.97854094832E+01 -0.74644321698E+01  0.52437186785E+01  0.13377913597E+02  0.51100000000E-03 0. -1.
        -11    1    3    3    0    0  0.29311934814E+01 -0.63516251994E+01  0.93555471501E+01  0.11681665148E+02  0.51100000000E-03 0.  1.
         12    1    3    3    0    0  0.15926354180E+02  0.25745556181E+01  0.16008462051E+02  0.22727691289E+02  0.00000000000E+00 0. -1.
</event>
<event>
 7    1  0.2486105E-010  0.4778727E+02  0.7816164E-02  0.1312668E+00
        -11   -1    0    0    0    0  0.00000000000E+00  0.00000000000E+00  0.45593999997E+02  0.45594000000E+02  0.51100000000E-03 0.  1.
         11   -1    0    0    0    0 -0.00000000000E+00 -0.00000000000E+00 -0.45593999997E+02  0.45594000000E+02  0.51100000000E-03 0. -1.
    9900012    2    1    2    0    0 -0.40287887520E+02 -0.87918192011E+01  0.13535648718E+02  0.47787265538E+02  0.19999974893E+02 0.  0.
         12    1    1    2    0    0  0.40287887520E+02  0.87918192011E+01 -0.13535648718E+02  0.43400734462E+02  0.00000000000E+00 0. -1.
         11    1    3    3    0    0 -0.10852455586E+02 -0.65200283935E+01 -0.29048810887E+00  0.12663765084E+02  0.51100000000E-03 0. -1.
        -11    1    3    3    0    0 -0.22203284489E+02 -0.73816483341E+01  0.93003091845E+01  0.25178767353E+02  0.51100000000E-03 0.  1.
         12    1    3    3    0    0 -0.72321474439E+01  0.51098575264E+01  0.45258276419E+01  0.99447331002E+01  0.00000000000E+00 0. -1.
</event>
<event>
 7    1  0.2486105E-010  0.4778730E+02  0.7816164E-02  0.1312668E+00
        -11   -1    0    0    0    0  0.00000000000E+00  0.00000000000E+00  0.45593999997E+02  0.45594000000E+02  0.51100000000E-03 0. -1.
         11   -1    0    0    0    0 -0.00000000000E+00 -0.00000000000E+00 -0.45593999997E+02  0.45594000000E+02  0.51100000000E-03 0.  1.
    9900012    2    1    2    0    0  0.20198371584E+02 -0.37308014432E+02  0.91519541821E+01  0.47787303913E+02  0.20000149860E+02 0.  0.
         12    1    1    2    0    0 -0.20198371584E+02  0.37308014432E+02 -0.91519541821E+01  0.43400696087E+02  0.00000000000E+00 0. -1.
         11    1    3    3    0    0  0.54166134987E+01 -0.46343585886E+01 -0.36209534816E+01  0.79955165999E+01  0.51100000000E-03 0. -1.
        -11    1    3    3    0    0  0.86110245090E+01 -0.15320561330E+02  0.35381618905E+00  0.17578240205E+02  0.51100000000E-03 0.  1.
        -12    1    3    3    0    0  0.61707335763E+01 -0.17353094514E+02  0.12419091475E+02  0.22213547108E+02  0.00000000000E+00 0.  1.
</event>
<event>
 7    1  0.2486105E-010  0.4778726E+02  0.7816164E-02  0.1312668E+00
        -11   -1    0    0    0    0  0.00000000000E+00  0.00000000000E+00  0.45593999997E+02  0.45594000000E+02  0.51100000000E-03 0.  1.
         11   -1    0    0    0    0 -0.00000000000E+00 -0.00000000000E+00 -0.45593999997E+02  0.45594000000E+02  0.51100000000E-03 0. -1.
    9900012    2    1    2    0    0 -0.23559411957E+02  0.96889809727E+01  0.35138326950E+02  0.47787259627E+02  0.19999947944E+02 0.  0.
         12    1    1    2    0    0  0.23559411957E+02 -0.96889809727E+01 -0.35138326950E+02  0.43400740373E+02  0.00000000000E+00 0. -1.
         11    1    3    3    0    0  0.12187494601E+01  0.18697166997E+01  0.22331922485E+01  0.31572675945E+01  0.51100000000E-03 0. -1.
        -11    1    3    3    0    0 -0.20725959909E+01 -0.33101901952E+01  0.12199030450E+01  0.40915983393E+01  0.51100000000E-03 0.  1.
        -12    1    3    3    0    0 -0.22705565426E+02  0.11129454468E+02  0.31685231657E+02  0.40538393693E+02  0.00000000000E+00 0.  1.
</event>
<event>
 7    1  0.2486105E-010  0.4778727E+02  0.7816164E-02  0.1312668E+00
        -11   -1    0    0    0    0  0.00000000000E+00  0.00000000000E+00  0.45593999997E+02  0.45594000000E+02  0.51100000000E-03 0.  1.
         11   -1    0    0    0    0 -0.00000000000E+00 -0.00000000000E+00 -0.45593999997E+02  0.45594000000E+02  0.51100000000E-03 0. -1.
    9900012    2    1    2    0    0 -0.36348705087E+02 -0.23057333730E+02  0.55456637144E+01  0.47787269750E+02  0.19999994097E+02 0.  0.
         12    1    1    2    0    0  0.36348705087E+02  0.23057333730E+02 -0.55456637144E+01  0.43400730250E+02  0.00000000000E+00 0. -1.
         11    1    3    3    0    0 -0.60564466552E+01 -0.14379756879E+01 -0.12759014522E+01  0.63542304761E+01  0.51100000000E-03 0. -1.
        -11    1    3    3    0    0 -0.16975990747E+02 -0.20398231301E+02  0.26372337100E+00  0.26539435795E+02  0.51100000000E-03 0.  1.
        -12    1    3    3    0    0 -0.13316267684E+02 -0.12211267411E+01  0.65578417956E+01  0.14893603479E+02  0.00000000000E+00 0.  1.
</event>
<event>
 7    1  0.2486105E-010  0.4778727E+02  0.7816164E-02  0.1312668E+00
        -11   -1    0    0    0    0  0.00000000000E+00  0.00000000000E+00  0.45593999997E+02  0.45594000000E+02  0.51100000000E-03 0.  1.
         11   -1    0    0    0    0 -0.00000000000E+00 -0.00000000000E+00 -0.45593999997E+02  0.45594000000E+02  0.51100000000E-03 0. -1.
    9900012    2    1    2    0    0  0.39434288307E+02  0.74623937774E+01  0.16518857918E+02  0.47787273254E+02  0.20000010074E+02 0.  0.
         12    1    1    2    0    0 -0.39434288307E+02 -0.74623937774E+01 -0.16518857918E+02  0.43400726746E+02  0.00000000000E+00 0. -1.
         11    1    3    3    0    0  0.20153162237E+01  0.47508878933E+01  0.40042114787E+01  0.65319327219E+01  0.51100000000E-03 0. -1.
        -11    1    3    3    0    0  0.10262505682E+02  0.52933091339E+01  0.82303694473E+00  0.11576507873E+02  0.51100000000E-03 0.  1.
        -12    1    3    3    0    0  0.27156466401E+02 -0.25818032499E+01  0.11691609495E+02  0.29678832659E+02  0.00000000000E+00 0.  1.
</event>
<event>
 7    1  0.2486105E-010  0.4778727E+02  0.7816164E-02  0.1312668E+00
        -11   -1    0    0    0    0  0.00000000000E+00  0.00000000000E+00  0.45593999997E+02  0.45594000000E+02  0.51100000000E-03 0.  1.
         11   -1    0    0    0    0 -0.00000000000E+00 -0.00000000000E+00 -0.45593999997E+02  0.45594000000E+02  0.51100000000E-03 0. -1.
    9900012    2    1    2    0    0 -0.52657357808E+01  0.34028860220E+01  0.42945495386E+02  0.47787272120E+02  0.20000004903E+02 0.  0.
         12    1    1    2    0    0  0.52657357808E+01 -0.34028860220E+01 -0.42945495386E+02  0.43400727880E+02  0.00000000000E+00 0. -1.
         11    1    3    3    0    0 -0.19514074317E+01  0.69707827203E+01  0.16379639589E+02  0.17907886419E+02  0.51100000000E-03 0. -1.
        -11    1    3    3    0    0 -0.14227599207E+01  0.47570123118E+00  0.25151977145E+02  0.25196676209E+02  0.51100000000E-03 0.  1.
         12    1    3    3    0    0 -0.18915684283E+01 -0.40435979295E+01  0.14138786527E+01  0.46827094912E+01  0.00000000000E+00 0. -1.
</event>
<event>
 7    1  0.2486105E-010  0.4778725E+02  0.7816164E-02  0.1312668E+00
        -11   -1    0    0    0    0  0.00000000000E+00  0.00000000000E+00  0.45593999997E+02  0.45594000000E+02  0.51100000000E-03 0.  1.
         11   -1    0    0    0    0 -0.00000000000E+00 -0.00000000000E+00 -0.45593999997E+02  0.45594000000E+02  0.51100000000E-03 0. -1.
    9900012    2    1    2    0    0 -0.61635667297E+01 -0.42509987274E+02 -0.62077517108E+01  0.47787253991E+02  0.19999922245E+02 0.  0.
         12    1    1    2    0    0  0.61635667297E+01  0.42509987274E+02  0.62077517108E+01  0.43400746009E+02  0.00000000000E+00 0. -1.
         11    1    3    3    0    0 -0.60624300158E+01 -0.57146328180E+01 -0.24655891920E+01  0.86884530422E+01  0.51100000000E-03 0. -1.
        -11    1    3    3    0    0 -0.50940322083E+01 -0.80010709360E+01  0.82186831369E+00  0.95205970427E+01  0.51100000000E-03 0.  1.
        -12    1    3    3    0    0  0.49928954945E+01 -0.28794283520E+02 -0.45640308325E+01  0.29578203906E+02  0.00000000000E+00 0.  1.
</event>
<event>
 7    1  0.2486105E-010  0.4778727E+02  0.7816164E-02  0.1312668E+00
        -11   -1    0    0    0    0  0.00000000000E+00  0.00000000000E+00  0.45593999997E+02  0.45594000000E+02  0.51100000000E-03 0.  1.
         11   -1    0    0    0    0 -0.00000000000E+00 -0.00000000000E+00 -0.45593999997E+02  0.45594000000E+02  0.51100000000E-03 0. -1.
    9900012    2    1    2    0    0 -0.41603478481E+02 -0.12107302680E+02  0.24873459623E+01  0.47787273165E+02  0.20000009667E+02 0.  0.
         12    1    1    2    0    0  0.41603478481E+02  0.12107302680E+02 -0.24873459623E+01  0.43400726835E+02  0.00000000000E+00 0. -1.
         11    1    3    3    0    0 -0.33195463037E+00 -0.36248771409E+00 -0.53335498151E+00  0.72529926025E+00  0.51100000000E-03 0. -1.
        -11    1    3    3    0    0 -0.10328014423E+02  0.12699193912E+01 -0.63743107328E+01  0.12202967457E+02  0.51100000000E-03 0.  1.
         12    1    3    3    0    0 -0.30943509428E+02 -0.13014734357E+02  0.93950116767E+01  0.34859006447E+02  0.00000000000E+00 0. -1.
</event>
<event>
 7    1  0.2486105E-010  0.4778726E+02  0.7816164E-02  0.1312668E+00
        -11   -1    0    0    0    0  0.00000000000E+00  0.00000000000E+00  0.45593999997E+02  0.45594000000E+02  0.51100000000E-03 0. -1.
         11   -1    0    0    0    0 -0.00000000000E+00 -0.00000000000E+00 -0.45593999997E+02  0.45594000000E+02  0.51100000000E-03 0.  1.
    9900012    2    1    2    0    0 -0.26203494839E+02  0.32806960046E+02  0.10986539897E+02  0.47787264659E+02  0.19999970886E+02 0.  0.
         12    1    1    2    0    0  0.26203494839E+02 -0.32806960046E+02 -0.10986539897E+02  0.43400735341E+02  0.00000000000E+00 0. -1.
         11    1    3    3    0    0 -0.10515864443E+02  0.90284534703E+01  0.44069706763E+01  0.14543650430E+02  0.51100000000E-03 0. -1.
        -11    1    3    3    0    0 -0.16168309487E+02  0.22153916330E+02  0.10187740329E+02  0.29257482696E+02  0.51100000000E-03 0.  1.
         12    1    3    3    0    0  0.48067909011E+00  0.16245902452E+01 -0.36081711081E+01  0.39861315329E+01  0.00000000000E+00 0. -1.
</event>
<event>
 7    1  0.2486105E-010  0.4778727E+02  0.7816164E-02  0.1312668E+00
        -11   -1    0    0    0    0  0.00000000000E+00  0.00000000000E+00  0.45593999997E+02  0.45594000000E+02  0.51100000000E-03 0.  1.
         11   -1    0    0    0    0 -0.00000000000E+00 -0.00000000000E+00 -0.45593999997E+02  0.45594000000E+02  0.51100000000E-03 0. -1.
    9900012    2    1    2    0    0 -0.13384225503E+01 -0.98125576325E+01  0.42255717016E+02  0.47787270943E+02  0.19999999536E+02 0.  0.
         12    1    1    2    0    0  0.13384225503E+01  0.98125576325E+01 -0.42255717016E+02  0.43400729057E+02  0.00000000000E+00 0. -1.
         11    1    3    3    0    0 -0.85609684035E+01 -0.52798936940E+01  0.13589778046E+02  0.16907085054E+02  0.51100000000E-03 0. -1.
        -11    1    3    3    0    0 -0.35579143024E-01 -0.28110654283E+00 -0.47302535486E+00  0.55139823295E+00  0.51100000000E-03 0.  1.
        -12    1    3    3    0    0  0.72581249962E+01 -0.42515573957E+01  0.29138964325E+02  0.30328787656E+02  0.00000000000E+00 0.  1.
</event>
<event>
 7    1  0.2486105E-010  0.4778727E+02  0.7816164E-02  0.1312668E+00
        -11   -1    0    0    0    0  0.00000000000E+00  0.00000000000E+00  0.45593999997E+02  0.45594000000E+02  0.51100000000E-03 0.  1.
         11   -1    0    0    0    0 -0.00000000000E+00 -0.00000000000E+00 -0.45593999997E+02  0.45594000000E+02  0.51100000000E-03 0. -1.
    9900012    2    1    2    0    0  0.43064591428E+02 -0.41092142225E+01  0.34897998744E+01  0.47787269827E+02  0.19999994447E+02 0.  0.
         12    1    1    2    0    0 -0.43064591428E+02  0.41092142225E+01 -0.34897998744E+01  0.43400730173E+02  0.00000000000E+00 0. -1.
         11    1    3    3    0    0  0.14186681495E+02 -0.70875682941E+00  0.37002074714E+00  0.14209193633E+02  0.51100000000E-03 0. -1.
        -11    1    3    3    0    0  0.29960829949E+02 -0.39087023317E+01 -0.23638781083E-01  0.30214728928E+02  0.51100000000E-03 0.  1.
         12    1    3    3    0    0 -0.10829200160E+01  0.50824493858E+00  0.31434179083E+01  0.33633472650E+01  0.00000000000E+00 0. -1.
</event>
<event>
 7    1  0.2486105E-010  0.4778725E+02  0.7816164E-02  0.1312668E+00
        -11   -1    0    0    0    0  0.00000000000E+00  0.00000000000E+00  0.45593999997E+02  0.45594000000E+02  0.51100000000E-03 0.  1.
         11   -1    0    0    0    0 -0.00000000000E+00 -0.00000000000E+00 -0.45593999997E+02  0.45594000000E+02  0.51100000000E-03 0. -1.
    9900012    2    1    2    0    0 -0.36620223778E+02 -0.15763750079E+02  0.17149016816E+02  0.47787246737E+02  0.19999889171E+02 0.  0.
         12    1    1    2    0    0  0.36620223778E+02  0.15763750079E+02 -0.17149016816E+02  0.43400753263E+02  0.00000000000E+00 0. -1.
         11    1    3    3    0    0 -0.47933493288E+01 -0.46697072646E+01  0.54602262065E+01  0.86369227282E+01  0.51100000000E-03 0. -1.
        -11    1    3    3    0    0 -0.94275509309E+01 -0.11159233133E+02  0.72768729259E+01  0.16320541673E+02  0.51100000000E-03 0.  1.
         12    1    3    3    0    0 -0.22399323518E+02  0.65190318665E-01  0.44119176837E+01  0.22829782335E+02  0.00000000000E+00 0. -1.
</event>
<event>
 7    1  0.2486105E-010  0.4778727E+02  0.7816164E-02  0.1312668E+00
        -11   -1    0    0    0    0  0.00000000000E+00  0.00000000000E+00  0.45593999997E+02  0.45594000000E+02  0.51100000000E-03 0.  1.
         11   -1    0    0    0    0 -0.00000000000E+00 -0.00000000000E+00 -0.45593999997E+02  0.45594000000E+02  0.51100000000E-03 0. -1.
    9900012    2    1    2    0    0 -0.30369919721E+00  0.24130621252E+02  0.36072767327E+02  0.47787266621E+02  0.19999979832E+02 0.  0.
         12    1    1    2    0    0  0.30369919721E+00 -0.24130621252E+02 -0.36072767327E+02  0.43400733379E+02  0.00000000000E+00 0. -1.
         11    1    3    3    0    0 -0.51657399374E-01  0.33710877150E+01  0.16742909712E+02  0.17078990800E+02  0.51100000000E-03 0. -1.
        -11    1    3    3    0    0 -0.49713497050E+01  0.52336731371E+01  0.34378361290E+01  0.79952717219E+01  0.51100000000E-03 0.  1.
         12    1    3    3    0    0  0.47193079072E+01  0.15525860400E+02  0.15892021486E+02  0.22713004099E+02  0.00000000000E+00 0. -1.
</event>
<event>
 7    1  0.2486105E-010  0.4778728E+02  0.7816164E-02  0.1312668E+00
        -11   -1    0    0    0    0  0.00000000000E+00  0.00000000000E+00  0.45593999997E+02  0.45594000000E+02  0.51100000000E-03 0.  1.
         11   -1    0    0    0    0 -0.00000000000E+00 -0.00000000000E+00 -0.45593999997E+02  0.45594000000E+02  0.51100000000E-03 0. -1.
    9900012    2    1    2    0    0  0.43146872302E+02 -0.45185258836E+01 -0.12462933193E+01  0.47787275206E+02  0.20000018975E+02 0.  0.
         12    1    1    2    0    0 -0.43146872302E+02  0.45185258836E+01  0.12462933193E+01  0.43400724794E+02  0.00000000000E+00 0. -1.
         11    1    3    3    0    0  0.73831049656E+01  0.15492870381E+01  0.97811469985E+00  0.76070518525E+01  0.51100000000E-03 0. -1.
        -11    1    3    3    0    0  0.33481187798E+02 -0.43841012853E+01  0.33428570103E+01  0.33932064094E+02  0.51100000000E-03 0.  1.
         12    1    3    3    0    0  0.22825795382E+01 -0.16837116364E+01 -0.55672650295E+01  0.62481592594E+01  0.00000000000E+00 0. -1.
</event>
<event>
 7    1  0.2486105E-010  0.4778727E+02  0.7816164E-02  0.1312668E+00
        -11   -1    0    0    0    0  0.00000000000E+00  0.00000000000E+00  0.45593999997E+02  0.45594000000E+02  0.51100000000E-03 0.  1.
         11   -1    0    0    0    0 -0.00000000000E+00 -0.00000000000E+00 -0.45593999997E+02  0.45594000000E+02  0.51100000000E-03 0. -1.
    9900012    2    1    2    0    0  0.84089108881E+01 -0.30450410316E+02  0.29760477039E+02  0.47787271154E+02  0.20000000502E+02 0.  0.
         12    1    1    2    0    0 -0.84089108881E+01  0.30450410316E+02 -0.29760477039E+02  0.43400728846E+02  0.00000000000E+00 0. -1.
         11    1    3    3    0    0  0.29926349193E+01 -0.13371914186E+02  0.73727869726E+01  0.15560268017E+02  0.51100000000E-03 0. -1.
        -11    1    3    3    0    0  0.45981088623E+01 -0.18019002968E+02  0.12840547520E+02  0.22598821517E+02  0.51100000000E-03 0.  1.
         12    1    3    3    0    0  0.81816710652E+00  0.94050683784E+00  0.95471425459E+01  0.96281816205E+01  0.00000000000E+00 0. -1.
</event>
<event>
 7    1  0.2486105E-010  0.4778727E+02  0.7816164E-02  0.1312668E+00
        -11   -1    0    0    0    0  0.00000000000E+00  0.00000000000E+00  0.45593999997E+02  0.45594000000E+02  0.51100000000E-03 0.  1.
         11   -1    0    0    0    0 -0.00000000000E+00 -0.00000000000E+00 -0.45593999997E+02  0.45594000000E+02  0.51100000000E-03 0. -1.
    9900012    2    1    2    0    0  0.32578917273E+02 -0.66777213497E+01  0.27886293388E+02  0.47787272218E+02  0.20000005349E+02 0.  0.
         12    1    1    2    0    0 -0.32578917273E+02  0.66777213497E+01 -0.27886293388E+02  0.43400727782E+02  0.00000000000E+00 0. -1.
         11    1    3    3    0    0 -0.11231318509E+01 -0.27182469492E+01  0.20037314224E+01  0.35588244556E+01  0.51100000000E-03 0. -1.
        -11    1    3    3    0    0  0.13465233542E+02 -0.73572884763E+01  0.11124674430E+02  0.18952587936E+02  0.51100000000E-03 0.  1.
         12    1    3    3    0    0  0.20236815582E+02  0.33978140758E+01  0.14757887536E+02  0.25275859826E+02  0.00000000000E+00 0. -1.
</event>
<event>
 7    1  0.2486105E-010  0.4778727E+02  0.7816164E-02  0.1312668E+00
        -11   -1    0    0    0    0  0.00000000000E+00  0.00000000000E+00  0.45593999997E+02  0.45594000000E+02  0.51100000000E-03 0.  1.
         11   -1    0    0    0    0 -0.00000000000E+00 -0.00000000000E+00 -0.45593999997E+02  0.45594000000E+02  0.51100000000E-03 0. -1.
    9900012    2    1    2    0    0  0.42215329549E+02  0.95979669734E+01 -0.30607785205E+01  0.47787269774E+02  0.19999994210E+02 0.  0.
         12    1    1    2    0    0 -0.42215329549E+02 -0.95979669734E+01  0.30607785205E+01  0.43400730226E+02  0.00000000000E+00 0. -1.
         11    1    3    3    0    0  0.13777874786E+02  0.88148213345E+01 -0.95561159520E+00  0.16384263870E+02  0.51100000000E-03 0. -1.
        -11    1    3    3    0    0  0.25840055459E+02  0.24881887318E+01 -0.57753732524E+01  0.26594256631E+02  0.51100000000E-03 0.  1.
         12    1    3    3    0    0  0.25973993045E+01 -0.17050430929E+01  0.36702063271E+01  0.48087492739E+01  0.00000000000E+00 0. -1.
</event>
<event>
 7    1  0.2486105E-010  0.4778730E+02  0.7816164E-02  0.1312668E+00
        -11   -1    0    0    0    0  0.00000000000E+00  0.00000000000E+00  0.45593999997E+02  0.45594000000E+02  0.51100000000E-03 0.  1.
         11   -1    0    0    0    0 -0.00000000000E+00 -0.00000000000E+00 -0.45593999997E+02  0.45594000000E+02  0.51100000000E-03 0. -1.
    9900012    2    1    2    0    0  0.33865507013E+02  0.22339684536E+02  0.15417087854E+02  0.47787301062E+02  0.20000136861E+02 0.  0.
         12    1    1    2    0    0 -0.33865507013E+02 -0.22339684536E+02 -0.15417087854E+02  0.43400698938E+02  0.00000000000E+00 0. -1.
         11    1    3    3    0    0 -0.28966865994E+00 -0.52285219076E-01  0.31246739127E+00  0.42927591176E+00  0.51100000000E-03 0. -1.
        -11    1    3    3    0    0  0.32384736332E+02  0.22396546732E+02  0.81863647802E+01  0.40216825104E+02  0.51100000000E-03 0.  1.
        -12    1    3    3    0    0  0.17704393405E+01 -0.45769774681E-02  0.69182556830E+01  0.71412000464E+01  0.00000000000E+00 0.  1.
</event>
<event>
 7    1  0.2486105E-010  0.4778726E+02  0.7816164E-02  0.1312668E+00
        -11   -1    0    0    0    0  0.00000000000E+00  0.00000000000E+00  0.45593999997E+02  0.45594000000E+02  0.51100000000E-03 0.  1.
         11   -1    0    0    0    0 -0.00000000000E+00 -0.00000000000E+00 -0.45593999997E+02  0.45594000000E+02  0.51100000000E-03 0. -1.
    9900012    2    1    2    0    0  0.10283130198E+02  0.57485378785E+01  0.41771232801E+02  0.47787258715E+02  0.19999943783E+02 0.  0.
         12    1    1    2    0    0 -0.10283130198E+02 -0.57485378785E+01 -0.41771232801E+02  0.43400741285E+02  0.00000000000E+00 0. -1.
         11    1    3    3    0    0  0.70947468869E+01  0.43574775467E+01  0.95515157316E+01  0.12671010101E+02  0.51100000000E-03 0. -1.
        -11    1    3    3    0    0 -0.28616804453E+01  0.43709120749E+01  0.56129749134E+01  0.76680880913E+01  0.51100000000E-03 0.  1.
         12    1    3    3    0    0  0.60500637560E+01 -0.29798517430E+01  0.26606742156E+02  0.27448160522E+02  0.00000000000E+00 0. -1.
</event>
<event>
 7    1  0.2486105E-010  0.4778727E+02  0.7816164E-02  0.1312668E+00
        -11   -1    0    0    0    0  0.00000000000E+00  0.00000000000E+00  0.45593999997E+02  0.45594000000E+02  0.51100000000E-03 0.  1.
         11   -1    0    0    0    0 -0.00000000000E+00 -0.00000000000E+00 -0.45593999997E+02  0.45594000000E+02  0.51100000000E-03 0. -1.
    9900012    2    1    2    0    0  0.39034479779E+02  0.28575855096E+01 -0.18755443676E+02  0.47787273347E+02  0.20000010496E+02 0.  0.
         12    1    1    2    0    0 -0.39034479779E+02 -0.28575855096E+01  0.18755443676E+02  0.43400726653E+02  0.00000000000E+00 0. -1.
         11    1    3    3    0    0  0.20960507176E+02 -0.17180241490E+01 -0.48489881894E+01  0.21582565992E+02  0.51100000000E-03 0. -1.
        -11    1    3    3    0    0  0.19622092915E+02  0.28013959036E+01 -0.12864109714E+02  0.23629635384E+02  0.51100000000E-03 0.  1.
        -12    1    3    3    0    0 -0.15481203119E+01  0.17742137551E+01 -0.10423457723E+01  0.25750719714E+01  0.00000000000E+00 0.  1.
</event>
<event>
 7    1  0.2486105E-010  0.4778726E+02  0.7816164E-02  0.1312668E+00
        -11   -1    0    0    0    0  0.00000000000E+00  0.00000000000E+00  0.45593999997E+02  0.45594000000E+02  0.51100000000E-03 0.  1.
         11   -1    0    0    0    0 -0.00000000000E+00 -0.00000000000E+00 -0.45593999997E+02  0.45594000000E+02  0.51100000000E-03 0. -1.
    9900012    2    1    2    0    0  0.28299768271E+02  0.31799911193E+02 -0.84565337374E+01  0.47787260387E+02  0.19999951408E+02 0.  0.
         12    1    1    2    0    0 -0.28299768271E+02 -0.31799911193E+02  0.84565337374E+01  0.43400739613E+02  0.00000000000E+00 0. -1.
         11    1    3    3    0    0 -0.58254129272E+00 -0.86827781132E+00  0.45243423751E+00  0.11392794722E+01  0.51100000000E-03 0. -1.
        -11    1    3    3    0    0  0.26367866692E+01  0.70749752557E+01  0.29691643913E+01  0.81131902634E+01  0.51100000000E-03 0.  1.
        -12    1    3    3    0    0  0.26245522895E+02  0.25593213749E+02 -0.11878132366E+02  0.38534790651E+02  0.00000000000E+00 0.  1.
</event>
<event>
 7    1  0.2486105E-010  0.4778727E+02  0.7816164E-02  0.1312668E+00
        -11   -1    0    0    0    0  0.00000000000E+00  0.00000000000E+00  0.45593999997E+02  0.45594000000E+02  0.51100000000E-03 0. -1.
         11   -1    0    0    0    0 -0.00000000000E+00 -0.00000000000E+00 -0.45593999997E+02  0.45594000000E+02  0.51100000000E-03 0.  1.
    9900012    2    1    2    0    0  0.37423358345E+02 -0.18064106623E+02 -0.12522124017E+02  0.47787270885E+02  0.19999999271E+02 0.  0.
         12    1    1    2    0    0 -0.37423358345E+02  0.18064106623E+02  0.12522124017E+02  0.43400729115E+02  0.00000000000E+00 0. -1.
         11    1    3    3    0    0  0.15582821895E+02 -0.11801577492E+02 -0.10332840342E+02  0.22110385779E+02  0.51100000000E-03 0. -1.
        -11    1    3    3    0    0  0.16509056946E+02 -0.96585813901E+01 -0.27811735921E+01  0.19328012896E+02  0.51100000000E-03 0.  1.
         12    1    3    3    0    0  0.53314795040E+01  0.33960522596E+01  0.59188991788E+00  0.63488722090E+01  0.00000000000E+00 0. -1.
</event>
<event>
 7    1  0.2486105E-010  0.4778727E+02  0.7816164E-02  0.1312668E+00
        -11   -1    0    0    0    0  0.00000000000E+00  0.00000000000E+00  0.45593999997E+02  0.45594000000E+02  0.51100000000E-03 0. -1.
         11   -1    0    0    0    0 -0.00000000000E+00 -0.00000000000E+00 -0.45593999997E+02  0.45594000000E+02  0.51100000000E-03 0.  1.
    9900012    2    1    2    0    0  0.10523512778E+02  0.39854187796E+02 -0.13583918921E+02  0.47787268908E+02  0.19999990260E+02 0.  0.
         12    1    1    2    0    0 -0.10523512778E+02 -0.39854187796E+02  0.13583918921E+02  0.43400731092E+02  0.00000000000E+00 0. -1.
         11    1    3    3    0    0 -0.30052861085E+01  0.92016777695E+00 -0.63654078238E+00  0.32068111514E+01  0.51100000000E-03 0. -1.
        -11    1    3    3    0    0  0.15810756888E+01  0.21224260682E+02 -0.59176152368E+01  0.22090432594E+02  0.51100000000E-03 0.  1.
         12    1    3    3    0    0  0.11947723198E+02  0.17709759336E+02 -0.70297629020E+01  0.22490025163E+02  0.00000000000E+00 0. -1.
</event>
<event>
 7    1  0.2486105E-010  0.4778726E+02  0.7816164E-02  0.1312668E+00
        -11   -1    0    0    0    0  0.00000000000E+00  0.00000000000E+00  0.45593999997E+02  0.45594000000E+02  0.51100000000E-03 0.  1.
         11   -1    0    0    0    0 -0.00000000000E+00 -0.00000000000E+00 -0.45593999997E+02  0.45594000000E+02  0.51100000000E-03 0. -1.
    9900012    2    1    2    0    0  0.13644914652E+02 -0.70164028262E+01  0.40598155063E+02  0.47787264994E+02  0.19999972415E+02 0.  0.
         12    1    1    2    0    0 -0.13644914652E+02  0.70164028262E+01 -0.40598155063E+02  0.43400735006E+02  0.00000000000E+00 0. -1.
         11    1    3    3    0    0 -0.64255031773E+00  0.25918740240E+01  0.23841392369E+01  0.35797768128E+01  0.51100000000E-03 0. -1.
        -11    1    3    3    0    0  0.77156607245E+01  0.17937951132E+01  0.21638125869E+02  0.23042517499E+02  0.51100000000E-03 0.  1.
        -12    1    3    3    0    0  0.65718042453E+01 -0.11402071963E+02  0.16575889957E+02  0.21164970682E+02  0.00000000000E+00 0.  1.
</event>
<event>
 7    1  0.2486105E-010  0.4778727E+02  0.7816164E-02  0.1312668E+00
        -11   -1    0    0    0    0  0.00000000000E+00  0.00000000000E+00  0.45593999997E+02  0.45594000000E+02  0.51100000000E-03 0. -1.
         11   -1    0    0    0    0 -0.00000000000E+00 -0.00000000000E+00 -0.45593999997E+02  0.45594000000E+02  0.51100000000E-03 0.  1.
    9900012    2    1    2    0    0  0.26295067893E+02  0.31343200747E+02  0.14484356840E+02  0.47787269342E+02  0.19999992239E+02 0.  0.
         12    1    1    2    0    0 -0.26295067893E+02 -0.31343200747E+02 -0.14484356840E+02  0.43400730658E+02  0.00000000000E+00 0. -1.
         11    1    3    3    0    0 -0.14564315969E+01  0.26877952113E+01  0.24457899526E+01  0.39150127519E+01  0.51100000000E-03 0. -1.
        -11    1    3    3    0    0  0.10794653951E+02  0.20128399084E+02  0.36867646256E+01  0.23135886352E+02  0.51100000000E-03 0.  1.
        -12    1    3    3    0    0  0.16956845539E+02  0.85270064516E+01  0.83518022618E+01  0.20736370238E+02  0.00000000000E+00 0.  1.
</event>
<event>
 7    1  0.2486105E-010  0.4778727E+02  0.7816164E-02  0.1312668E+00
        -11   -1    0    0    0    0  0.00000000000E+00  0.00000000000E+00  0.45593999997E+02  0.45594000000E+02  0.51100000000E-03 0.  1.
         11   -1    0    0    0    0 -0.00000000000E+00 -0.00000000000E+00 -0.45593999997E+02  0.45594000000E+02  0.51100000000E-03 0. -1.
    9900012    2    1    2    0    0 -0.41454637779E+01 -0.43154967401E+02  0.20216924819E+01  0.47787270492E+02  0.19999997481E+02 0.  0.
         12    1    1    2    0    0  0.41454637779E+01  0.43154967401E+02 -0.20216924819E+01  0.43400729508E+02  0.00000000000E+00 0. -1.
         11    1    3    3    0    0  0.23471186103E+01 -0.59124288890E+01  0.20741530775E+01  0.66908812863E+01  0.51100000000E-03 0. -1.
        -11    1    3    3    0    0 -0.68391807528E+01 -0.24532074108E+02  0.71902348135E+01  0.26463116414E+02  0.51100000000E-03 0.  1.
        -12    1    3    3    0    0  0.34659836462E+00 -0.12710464404E+02 -0.72426954091E+01  0.14633272792E+02  0.00000000000E+00 0.  1.
</event>
<event>
 7    1  0.4387687E-010  0.4778727E+02  0.7816164E-02  0.1312668E+00
        -11   -1    0    0    0    0  0.00000000000E+00  0.00000000000E+00  0.45593999997E+02  0.45594000000E+02  0.51100000000E-03 0. -1.
         11   -1    0    0    0    0 -0.00000000000E+00 -0.00000000000E+00 -0.45593999997E+02  0.45594000000E+02  0.51100000000E-03 0.  1.
    9900012    2    1    2    0    0 -0.36464819233E+02  0.15715203030E+02 -0.17520632108E+02  0.47787271925E+02  0.20000004016E+02 0.  0.
         12    1    1    2    0    0  0.36464819233E+02 -0.15715203030E+02  0.17520632108E+02  0.43400728075E+02  0.00000000000E+00 0. -1.
         11    1    3    3    0    0  0.29325730429E+00  0.97778754113E+00  0.73715785629E+00  0.12591545927E+01  0.51100000000E-03 0. -1.
        -11    1    3    3    0    0 -0.26728568814E+02  0.17830083250E+02 -0.15517248521E+02  0.35680712738E+02  0.51100000000E-03 0.  1.
        -12    1    3    3    0    0 -0.10029507723E+02 -0.30926677608E+01 -0.27405414432E+01  0.10847404595E+02  0.00000000000E+00 0.  1.
</event>
<event>
 7    1  0.2486105E-010  0.4778726E+02  0.7816164E-02  0.1312668E+00
        -11   -1    0    0    0    0  0.00000000000E+00  0.00000000000E+00  0.45593999997E+02  0.45594000000E+02  0.51100000000E-03 0.  1.
         11   -1    0    0    0    0 -0.00000000000E+00 -0.00000000000E+00 -0.45593999997E+02  0.45594000000E+02  0.51100000000E-03 0. -1.
    9900012    2    1    2    0    0  0.56565706234E+01  0.27427263154E+02  0.33156791458E+02  0.47787258358E+02  0.19999942156E+02 0.  0.
         12    1    1    2    0    0 -0.56565706234E+01 -0.27427263154E+02 -0.33156791458E+02  0.43400741642E+02  0.00000000000E+00 0. -1.
         11    1    3    3    0    0 -0.49604296012E+01  0.33551999128E+01  0.77356222557E+01  0.97827951132E+01  0.51100000000E-03 0. -1.
        -11    1    3    3    0    0 -0.11323040297E+01  0.77779588248E+00 -0.25744962742E+00  0.13976263528E+01  0.51100000000E-03 0.  1.
        -12    1    3    3    0    0  0.11749304254E+02  0.23294267358E+02  0.25678618830E+02  0.36606836892E+02  0.00000000000E+00 0.  1.
</event>
<event>
 7    1  0.2486105E-010  0.4778727E+02  0.7816164E-02  0.1312668E+00
        -11   -1    0    0    0    0  0.00000000000E+00  0.00000000000E+00  0.45593999997E+02  0.45594000000E+02  0.51100000000E-03 0. -1.
         11   -1    0    0    0    0 -0.00000000000E+00 -0.00000000000E+00 -0.45593999997E+02  0.45594000000E+02  0.51100000000E-03 0.  1.
    9900012    2    1    2    0    0 -0.38169738326E+02  0.20169708821E+02  0.44583908501E+01  0.47787270435E+02  0.19999997220E+02 0.  0.
         12    1    1    2    0    0  0.38169738326E+02 -0.20169708821E+02 -0.44583908501E+01  0.43400729565E+02  0.00000000000E+00 0. -1.
         11    1    3    3    0    0 -0.56290174259E+00 -0.41602753746E+00  0.29397298273E+01  0.30219114815E+01  0.51100000000E-03 0. -1.
        -11    1    3    3    0    0 -0.11200250503E+02  0.13200999234E+02  0.99125940111E+00  0.17340547499E+02  0.51100000000E-03 0.  1.
         12    1    3    3    0    0 -0.26406586081E+02  0.73847371250E+01  0.52740162172E+00  0.27424811454E+02  0.00000000000E+00 0. -1.
</event>
<event>
 7    1  0.2486105E-010  0.4778727E+02  0.7816164E-02  0.1312668E+00
        -11   -1    0    0    0    0  0.00000000000E+00  0.00000000000E+00  0.45593999997E+02  0.45594000000E+02  0.51100000000E-03 0.  1.
         11   -1    0    0    0    0 -0.00000000000E+00 -0.00000000000E+00 -0.45593999997E+02  0.45594000000E+02  0.51100000000E-03 0. -1.
    9900012    2    1    2    0    0 -0.92919993872E+01  0.29288980885E+02  0.30650242077E+02  0.47787274277E+02  0.20000014738E+02 0.  0.
         12    1    1    2    0    0  0.92919993872E+01 -0.29288980885E+02 -0.30650242077E+02  0.43400725723E+02  0.00000000000E+00 0. -1.
         11    1    3    3    0    0 -0.38867303180E+01  0.43696944482E+01  0.73006568301E+01  0.93541697947E+01  0.51100000000E-03 0. -1.
        -11    1    3    3    0    0 -0.85380601615E+01  0.25732570410E+02  0.19459862733E+02  0.33372891830E+02  0.51100000000E-03 0.  1.
         12    1    3    3    0    0  0.31327910923E+01 -0.81328397367E+00  0.38897225144E+01  0.50602126525E+01  0.00000000000E+00 0. -1.
</event>
<event>
 7    1  0.2486105E-010  0.4778728E+02  0.7816164E-02  0.1312668E+00
        -11   -1    0    0    0    0  0.00000000000E+00  0.00000000000E+00  0.45593999997E+02  0.45594000000E+02  0.51100000000E-03 0. -1.
         11   -1    0    0    0    0 -0.00000000000E+00 -0.00000000000E+00 -0.45593999997E+02  0.45594000000E+02  0.51100000000E-03 0.  1.
    9900012    2    1    2    0    0 -0.25798358212E+02  0.20854008256E+01 -0.34838464134E+02  0.47787276892E+02  0.20000026663E+02 0.  0.
         12    1    1    2    0    0  0.25798358212E+02 -0.20854008256E+01  0.34838464134E+02  0.43400723108E+02  0.00000000000E+00 0. -1.
         11    1    3    3    0    0 -0.19576245160E+02 -0.51716082016E+01 -0.14580583661E+02  0.24951319126E+02  0.51100000000E-03 0. -1.
        -11    1    3    3    0    0 -0.27880722062E+01  0.17013832546E+01 -0.11215959234E+02  0.11681857447E+02  0.51100000000E-03 0.  1.
        -12    1    3    3    0    0 -0.34340408464E+01  0.55556257726E+01 -0.90419212382E+01  0.11154100320E+02  0.00000000000E+00 0.  1.
</event>
<event>
 7    1  0.2486105E-010  0.4778727E+02  0.7816164E-02  0.1312668E+00
        -11   -1    0    0    0    0  0.00000000000E+00  0.00000000000E+00  0.45593999997E+02  0.45594000000E+02  0.51100000000E-03 0.  1.
         11   -1    0    0    0    0 -0.00000000000E+00 -0.00000000000E+00 -0.45593999997E+02  0.45594000000E+02  0.51100000000E-03 0. -1.
    9900012    2    1    2    0    0 -0.30710614423E+02 -0.21001622786E+02  0.22347551553E+02  0.47787273528E+02  0.20000011324E+02 0.  0.
         12    1    1    2    0    0  0.30710614423E+02  0.21001622786E+02 -0.22347551553E+02  0.43400726472E+02  0.00000000000E+00 0. -1.
         11    1    3    3    0    0 -0.17089324990E+01 -0.44860051462E+01  0.12984969571E+01  0.49730058382E+01  0.51100000000E-03 0. -1.
        -11    1    3    3    0    0 -0.24037631272E+02 -0.18173786002E+02  0.22232648891E+02  0.37448429765E+02  0.51100000000E-03 0.  1.
        -12    1    3    3    0    0 -0.49640506512E+01  0.16581683622E+01 -0.11835942953E+01  0.53658379253E+01  0.00000000000E+00 0.  1.
</event>
<event>
 7    1  0.2486105E-010  0.4778726E+02  0.7816164E-02  0.1312668E+00
        -11   -1    0    0    0    0  0.00000000000E+00  0.00000000000E+00  0.45593999997E+02  0.45594000000E+02  0.51100000000E-03 0.  1.
         11   -1    0    0    0    0 -0.00000000000E+00 -0.00000000000E+00 -0.45593999997E+02  0.45594000000E+02  0.51100000000E-03 0. -1.
    9900012    2    1    2    0    0  0.37320130451E+02 -0.19075312138E+02  0.11267838150E+02  0.47787264446E+02  0.19999969915E+02 0.  0.
         12    1    1    2    0    0 -0.37320130451E+02  0.19075312138E+02 -0.11267838150E+02  0.43400735554E+02  0.00000000000E+00 0. -1.
         11    1    3    3    0    0  0.30387918938E+02 -0.19587440839E+02  0.12956553644E+02  0.38405282691E+02  0.51100000000E-03 0.  1.
        -11    1    3    3    0    0  0.24352416021E+01 -0.26597660798E+01 -0.14093885291E+01  0.38718385228E+01  0.51100000000E-03 0. -1.
        -12    1    3    3    0    0  0.44969699109E+01  0.31718947809E+01 -0.27932696480E+00  0.55101432317E+01  0.00000000000E+00 0.  1.
</event>
<event>
 7    1  0.2486105E-010  0.4778725E+02  0.7816164E-02  0.1312668E+00
        -11   -1    0    0    0    0  0.00000000000E+00  0.00000000000E+00  0.45593999997E+02  0.45594000000E+02  0.51100000000E-03 0.  1.
         11   -1    0    0    0    0 -0.00000000000E+00 -0.00000000000E+00 -0.45593999997E+02  0.45594000000E+02  0.51100000000E-03 0. -1.
    9900012    2    1    2    0    0  0.17560235787E+02 -0.14039623811E+02 -0.37123466813E+02  0.47787254547E+02  0.19999924781E+02 0.  0.
         12    1    1    2    0    0 -0.17560235787E+02  0.14039623811E+02  0.37123466813E+02  0.43400745453E+02  0.00000000000E+00 0. -1.
         11    1    3    3    0    0 -0.10851315130E+01 -0.15583589895E+01 -0.55354648447E+00  0.19779805641E+01  0.51100000000E-03 0. -1.
        -11    1    3    3    0    0 -0.25265861470E+01 -0.48348614308E+00 -0.73258951020E+01  0.77644147052E+01  0.51100000000E-03 0.  1.
        -12    1    3    3    0    0  0.21171953447E+02 -0.11997778678E+02 -0.29244025227E+02  0.38044859278E+02  0.00000000000E+00 0.  1.
</event>
<event>
 7    1  0.2486105E-010  0.4778727E+02  0.7816164E-02  0.1312668E+00
        -11   -1    0    0    0    0  0.00000000000E+00  0.00000000000E+00  0.45593999997E+02  0.45594000000E+02  0.51100000000E-03 0. -1.
         11   -1    0    0    0    0 -0.00000000000E+00 -0.00000000000E+00 -0.45593999997E+02  0.45594000000E+02  0.51100000000E-03 0.  1.
    9900012    2    1    2    0    0 -0.24500633717E+02 -0.35812478444E+02  0.89943024836E+00  0.47787266831E+02  0.19999980789E+02 0.  0.
         12    1    1    2    0    0  0.24500633717E+02  0.35812478444E+02 -0.89943024836E+00  0.43400733169E+02  0.00000000000E+00 0. -1.
         11    1    3    3    0    0  0.20576911685E+00 -0.68055345457E+01  0.41024110795E+01  0.79490514093E+01  0.51100000000E-03 0. -1.
        -11    1    3    3    0    0 -0.20021450524E+01  0.87074232733E+00 -0.13050400554E+00  0.21871919367E+01  0.51100000000E-03 0.  1.
        -12    1    3    3    0    0 -0.22704257781E+02 -0.29877686226E+02 -0.30724768255E+01  0.37651023485E+02  0.00000000000E+00 0.  1.
</event>
<event>
 7    1  0.2486105E-010  0.4778728E+02  0.7816164E-02  0.1312668E+00
        -11   -1    0    0    0    0  0.00000000000E+00  0.00000000000E+00  0.45593999997E+02  0.45594000000E+02  0.51100000000E-03 0.  1.
         11   -1    0    0    0    0 -0.00000000000E+00 -0.00000000000E+00 -0.45593999997E+02  0.45594000000E+02  0.51100000000E-03 0. -1.
    9900012    2    1    2    0    0  0.20508751348E+02  0.30228000724E+02  0.23436764239E+02  0.47787276186E+02  0.20000023440E+02 0.  0.
         12    1    1    2    0    0 -0.20508751348E+02 -0.30228000724E+02 -0.23436764239E+02  0.43400723814E+02  0.00000000000E+00 0. -1.
         11    1    3    3    0    0  0.12998082411E+02  0.19148027556E+02  0.93158445559E+01  0.24947586370E+02  0.51100000000E-03 0. -1.
        -11    1    3    3    0    0  0.90603113633E+01  0.72633345651E+01  0.46444321947E+01  0.12506639104E+02  0.51100000000E-03 0.  1.
         12    1    3    3    0    0 -0.15496424272E+01  0.38166386033E+01  0.94764874887E+01  0.10333050711E+02  0.00000000000E+00 0. -1.
</event>
<event>
 7    1  0.2486105E-010  0.4778727E+02  0.7816164E-02  0.1312668E+00
        -11   -1    0    0    0    0  0.00000000000E+00  0.00000000000E+00  0.45593999997E+02  0.45594000000E+02  0.51100000000E-03 0. -1.
         11   -1    0    0    0    0 -0.00000000000E+00 -0.00000000000E+00 -0.45593999997E+02  0.45594000000E+02  0.51100000000E-03 0.  1.
    9900012    2    1    2    0    0 -0.17084695373E+02  0.15627193091E+02 -0.36708680513E+02  0.47787271839E+02  0.20000003623E+02 0.  0.
         12    1    1    2    0    0  0.17084695373E+02 -0.15627193091E+02  0.36708680513E+02  0.43400728161E+02  0.00000000000E+00 0. -1.
         11    1    3    3    0    0  0.27135857234E+01 -0.15147328105E+01 -0.54292754142E+01  0.62557968917E+01  0.51100000000E-03 0. -1.
        -11    1    3    3    0    0 -0.25634739553E+01  0.56799102496E+01 -0.45052313025E+01  0.76895961216E+01  0.51100000000E-03 0.  1.
        -12    1    3    3    0    0 -0.17234807141E+02  0.11462015652E+02 -0.26774173796E+02  0.33841878826E+02  0.00000000000E+00 0.  1.
</event>
<event>
 7    1  0.2486105E-010  0.4778727E+02  0.7816164E-02  0.1312668E+00
        -11   -1    0    0    0    0  0.00000000000E+00  0.00000000000E+00  0.45593999997E+02  0.45594000000E+02  0.51100000000E-03 0.  1.
         11   -1    0    0    0    0 -0.00000000000E+00 -0.00000000000E+00 -0.45593999997E+02  0.45594000000E+02  0.51100000000E-03 0. -1.
    9900012    2    1    2    0    0 -0.49505541183E+01  0.31810001694E+01  0.42999956699E+02  0.47787273920E+02  0.20000013110E+02 0.  0.
         12    1    1    2    0    0  0.49505541183E+01 -0.31810001694E+01 -0.42999956699E+02  0.43400726080E+02  0.00000000000E+00 0. -1.
         11    1    3    3    0    0  0.49189627096E+01 -0.20365411396E+01  0.11275414718E+02  0.12469108680E+02  0.51100000000E-03 0. -1.
        -11    1    3    3    0    0 -0.22244789133E+01 -0.28038846296E+01  0.35422331263E+01  0.50356222291E+01  0.51100000000E-03 0.  1.
        -12    1    3    3    0    0 -0.76450379145E+01  0.80214259386E+01  0.28182308855E+02  0.30282543011E+02  0.00000000000E+00 0.  1.
</event>
<event>
 7    1  0.2486105E-010  0.4778727E+02  0.7816164E-02  0.1312668E+00
        -11   -1    0    0    0    0  0.00000000000E+00  0.00000000000E+00  0.45593999997E+02  0.45594000000E+02  0.51100000000E-03 0.  1.
         11   -1    0    0    0    0 -0.00000000000E+00 -0.00000000000E+00 -0.45593999997E+02  0.45594000000E+02  0.51100000000E-03 0. -1.
    9900012    2    1    2    0    0  0.99369476198E+01  0.39282025476E+02 -0.15550026889E+02  0.47787265101E+02  0.19999972901E+02 0.  0.
         12    1    1    2    0    0 -0.99369476198E+01 -0.39282025476E+02  0.15550026889E+02  0.43400734899E+02  0.00000000000E+00 0. -1.
         11    1    3    3    0    0 -0.97577275798E-01  0.27255655411E+02 -0.80340718249E+01  0.28415252657E+02  0.51100000000E-03 0. -1.
        -11    1    3    3    0    0 -0.10082826574E+01 -0.48548979506E+00 -0.14430442682E+00  0.11283431601E+01  0.51100000000E-03 0.  1.
        -12    1    3    3    0    0  0.11042807553E+02  0.12511859861E+02 -0.73716506374E+01  0.18243669284E+02  0.00000000000E+00 0.  1.
</event>
<event>
 7    1  0.2486105E-010  0.4778727E+02  0.7816164E-02  0.1312668E+00
        -11   -1    0    0    0    0  0.00000000000E+00  0.00000000000E+00  0.45593999997E+02  0.45594000000E+02  0.51100000000E-03 0. -1.
         11   -1    0    0    0    0 -0.00000000000E+00 -0.00000000000E+00 -0.45593999997E+02  0.45594000000E+02  0.51100000000E-03 0.  1.
    9900012    2    1    2    0    0  0.27291405627E+02 -0.11442514043E+02 -0.31746993775E+02  0.47787267719E+02  0.19999984839E+02 0.  0.
         12    1    1    2    0    0 -0.27291405627E+02  0.11442514043E+02  0.31746993775E+02  0.43400732281E+02  0.00000000000E+00 0. -1.
         11    1    3    3    0    0  0.76154299389E+01 -0.60438385032E+01 -0.59348393560E+01  0.11390569584E+02  0.51100000000E-03 0.  1.
        -11    1    3    3    0    0  0.20004823566E+02 -0.14330382502E+01 -0.15512750082E+02  0.25355314628E+02  0.51100000000E-03 0. -1.
         12    1    3    3    0    0 -0.32884787770E+00 -0.39656372893E+01 -0.10299404338E+02  0.11041383507E+02  0.00000000000E+00 0. -1.
</event>
<event>
 7    1  0.2486105E-010  0.4778727E+02  0.7816164E-02  0.1312668E+00
        -11   -1    0    0    0    0  0.00000000000E+00  0.00000000000E+00  0.45593999997E+02  0.45594000000E+02  0.51100000000E-03 0.  1.
         11   -1    0    0    0    0 -0.00000000000E+00 -0.00000000000E+00 -0.45593999997E+02  0.45594000000E+02  0.51100000000E-03 0. -1.
    9900012    2    1    2    0    0 -0.63362468425E+01 -0.38145105651E+02  0.19708529787E+02  0.47787271255E+02  0.20000000962E+02 0.  0.
         12    1    1    2    0    0  0.63362468425E+01  0.38145105651E+02 -0.19708529787E+02  0.43400728745E+02  0.00000000000E+00 0. -1.
         11    1    3    3    0    0 -0.47435999907E+01 -0.72702618507E+01  0.88051014372E+01  0.12364799223E+02  0.51100000000E-03 0. -1.
        -11    1    3    3    0    0 -0.31648828847E+01 -0.22684364614E+02  0.13624201920E+02  0.26649873542E+02  0.51100000000E-03 0.  1.
         12    1    3    3    0    0  0.15722360329E+01 -0.81904791868E+01 -0.27207735695E+01  0.87725984901E+01  0.00000000000E+00 0. -1.
</event>
<event>
 7    1  0.2486105E-010  0.4778726E+02  0.7816164E-02  0.1312668E+00
        -11   -1    0    0    0    0  0.00000000000E+00  0.00000000000E+00  0.45593999997E+02  0.45594000000E+02  0.51100000000E-03 0.  1.
         11   -1    0    0    0    0 -0.00000000000E+00 -0.00000000000E+00 -0.45593999997E+02  0.45594000000E+02  0.51100000000E-03 0. -1.
    9900012    2    1    2    0    0 -0.24663463070E+02 -0.28799622928E+02  0.21116804649E+02  0.47787261182E+02  0.19999955032E+02 0.  0.
         12    1    1    2    0    0  0.24663463070E+02  0.28799622928E+02 -0.21116804649E+02  0.43400738818E+02  0.00000000000E+00 0. -1.
         11    1    3    3    0    0  0.13620413591E+01 -0.16740067788E+01  0.31714348472E+01  0.38360728109E+01  0.51100000000E-03 0.  1.
        -11    1    3    3    0    0 -0.98482698935E-01  0.14515769221E+01  0.15991940502E+00  0.14636764943E+01  0.51100000000E-03 0. -1.
         12    1    3    3    0    0 -0.25927021730E+02 -0.28577193072E+02  0.17785450396E+02  0.42487511876E+02  0.00000000000E+00 0. -1.
</event>
<event>
 7    1  0.2486105E-010  0.4778727E+02  0.7816164E-02  0.1312668E+00
        -11   -1    0    0    0    0  0.00000000000E+00  0.00000000000E+00  0.45593999997E+02  0.45594000000E+02  0.51100000000E-03 0.  1.
         11   -1    0    0    0    0 -0.00000000000E+00 -0.00000000000E+00 -0.45593999997E+02  0.45594000000E+02  0.51100000000E-03 0. -1.
    9900012    2    1    2    0    0 -0.37165804750E+02  0.33610774587E+01  0.22159182199E+02  0.47787271433E+02  0.20000001773E+02 0.  0.
         12    1    1    2    0    0  0.37165804750E+02 -0.33610774587E+01 -0.22159182199E+02  0.43400728567E+02  0.00000000000E+00 0. -1.
         11    1    3    3    0    0 -0.17209152997E+02  0.70214762898E+00  0.18439737559E+00  0.17224458215E+02  0.51100000000E-03 0. -1.
        -11    1    3    3    0    0 -0.10202443661E+01  0.19961547826E+01  0.17096203067E+01  0.28192790456E+01  0.51100000000E-03 0.  1.
        -12    1    3    3    0    0 -0.18936407388E+02  0.66277504709E+00  0.20265164516E+02  0.27743534173E+02  0.00000000000E+00 0.  1.
</event>
<event>
 7    1  0.2486105E-010  0.4778727E+02  0.7816164E-02  0.1312668E+00
        -11   -1    0    0    0    0  0.00000000000E+00  0.00000000000E+00  0.45593999997E+02  0.45594000000E+02  0.51100000000E-03 0.  1.
         11   -1    0    0    0    0 -0.00000000000E+00 -0.00000000000E+00 -0.45593999997E+02  0.45594000000E+02  0.51100000000E-03 0. -1.
    9900012    2    1    2    0    0 -0.35949333035E+01 -0.41872665035E+02 -0.10834187593E+02  0.47787271395E+02  0.20000001601E+02 0.  0.
         12    1    1    2    0    0  0.35949333035E+01  0.41872665035E+02  0.10834187593E+02  0.43400728605E+02  0.00000000000E+00 0. -1.
         11    1    3    3    0    0 -0.39539730900E+00  0.73863855753E+00 -0.96679554997E+00  0.12793044388E+01  0.51100000000E-03 0. -1.
        -11    1    3    3    0    0  0.47310437470E+01 -0.28072907150E+02 -0.92568985515E+01  0.29935949323E+02  0.51100000000E-03 0.  1.
        -12    1    3    3    0    0 -0.79305797415E+01 -0.14538396443E+02 -0.61049349133E+00  0.16572017634E+02  0.00000000000E+00 0.  1.
</event>
<event>
 7    1  0.2486105E-010  0.4778728E+02  0.7816164E-02  0.1312668E+00
        -11   -1    0    0    0    0  0.00000000000E+00  0.00000000000E+00  0.45593999997E+02  0.45594000000E+02  0.51100000000E-03 0.  1.
         11   -1    0    0    0    0 -0.00000000000E+00 -0.00000000000E+00 -0.45593999997E+02  0.45594000000E+02  0.51100000000E-03 0. -1.
    9900012    2    1    2    0    0 -0.28854142608E+02  0.22220528602E+02  0.23607386555E+02  0.47787284142E+02  0.20000059719E+02 0.  0.
         12    1    1    2    0    0  0.28854142608E+02 -0.22220528602E+02 -0.23607386555E+02  0.43400715858E+02  0.00000000000E+00 0. -1.
         11    1    3    3    0    0 -0.79392946389E+01  0.56794054478E+01  0.20447258978E+01  0.99734121474E+01  0.51100000000E-03 0. -1.
        -11    1    3    3    0    0 -0.10358619459E+02  0.10523207679E+01  0.17826373360E+01  0.10563435626E+02  0.51100000000E-03 0.  1.
        -12    1    3    3    0    0 -0.10556228510E+02  0.15488802386E+02  0.19780023321E+02  0.27250436369E+02  0.00000000000E+00 0.  1.
</event>
<event>
 7    1  0.2486105E-010  0.4778727E+02  0.7816164E-02  0.1312668E+00
        -11   -1    0    0    0    0  0.00000000000E+00  0.00000000000E+00  0.45593999997E+02  0.45594000000E+02  0.51100000000E-03 0.  1.
         11   -1    0    0    0    0 -0.00000000000E+00 -0.00000000000E+00 -0.45593999997E+02  0.45594000000E+02  0.51100000000E-03 0. -1.
    9900012    2    1    2    0    0  0.76906305469E+01 -0.42627531255E+02  0.27149282944E+01  0.47787273569E+02  0.20000011509E+02 0.  0.
         12    1    1    2    0    0 -0.76906305469E+01  0.42627531255E+02 -0.27149282944E+01  0.43400726431E+02  0.00000000000E+00 0. -1.
         11    1    3    3    0    0  0.82772046412E+00 -0.31820901852E+02 -0.45226268355E+01  0.32151346311E+02  0.51100000000E-03 0. -1.
        -11    1    3    3    0    0  0.14545843806E+01 -0.78210659607E+00  0.31089542293E+01  0.35203839434E+01  0.51100000000E-03 0.  1.
        -12    1    3    3    0    0  0.54083257022E+01 -0.10024522807E+02  0.41286009006E+01  0.12115543315E+02  0.00000000000E+00 0.  1.
</event>
<event>
 7    1  0.2486105E-010  0.4778727E+02  0.7816164E-02  0.1312668E+00
        -11   -1    0    0    0    0  0.00000000000E+00  0.00000000000E+00  0.45593999997E+02  0.45594000000E+02  0.51100000000E-03 0.  1.
         11   -1    0    0    0    0 -0.00000000000E+00 -0.00000000000E+00 -0.45593999997E+02  0.45594000000E+02  0.51100000000E-03 0. -1.
    9900012    2    1    2    0    0 -0.22718593905E+02 -0.22499079486E+02  0.29347574487E+02  0.47787271723E+02  0.20000003095E+02 0.  0.
         12    1    1    2    0    0  0.22718593905E+02  0.22499079486E+02 -0.29347574487E+02  0.43400728277E+02  0.00000000000E+00 0. -1.
         11    1    3    3    0    0 -0.16432170759E+01  0.40546537772E+00  0.79129977183E+01  0.80919773654E+01  0.51100000000E-03 0. -1.
        -11    1    3    3    0    0 -0.68373101358E+00 -0.74957194984E+01  0.26641873891E+01  0.79844344573E+01  0.51100000000E-03 0.  1.
        -12    1    3    3    0    0 -0.20391645815E+02 -0.15408825365E+02  0.18770389379E+02  0.31710859900E+02  0.00000000000E+00 0.  1.
</event>
<event>
 7    1  0.2486105E-010  0.4778727E+02  0.7816164E-02  0.1312668E+00
        -11   -1    0    0    0    0  0.00000000000E+00  0.00000000000E+00  0.45593999997E+02  0.45594000000E+02  0.51100000000E-03 0. -1.
         11   -1    0    0    0    0 -0.00000000000E+00 -0.00000000000E+00 -0.45593999997E+02  0.45594000000E+02  0.51100000000E-03 0.  1.
    9900012    2    1    2    0    0 -0.41453753749E+02 -0.12082953370E+02  0.43831402683E+01  0.47787269814E+02  0.19999994390E+02 0.  0.
         12    1    1    2    0    0  0.41453753749E+02  0.12082953370E+02 -0.43831402683E+01  0.43400730186E+02  0.00000000000E+00 0. -1.
         11    1    3    3    0    0 -0.13509146781E+01 -0.21191625867E+01  0.17606092555E+01  0.30684793869E+01  0.51100000000E-03 0. -1.
        -11    1    3    3    0    0 -0.23109039604E+02 -0.91569982970E+01 -0.61078425630E+01  0.25596563642E+02  0.51100000000E-03 0.  1.
        -12    1    3    3    0    0 -0.16993799468E+02 -0.80679248669E+00  0.87303735758E+01  0.19122226785E+02  0.00000000000E+00 0.  1.
</event>
<event>
 7    1  0.2486105E-010  0.4778727E+02  0.7816164E-02  0.1312668E+00
        -11   -1    0    0    0    0  0.00000000000E+00  0.00000000000E+00  0.45593999997E+02  0.45594000000E+02  0.51100000000E-03 0.  1.
         11   -1    0    0    0    0 -0.00000000000E+00 -0.00000000000E+00 -0.45593999997E+02  0.45594000000E+02  0.51100000000E-03 0. -1.
    9900012    2    1    2    0    0  0.27236666921E+02  0.21690723210E+02  0.25909452569E+02  0.47787271542E+02  0.20000002267E+02 0.  0.
         12    1    1    2    0    0 -0.27236666921E+02 -0.21690723210E+02 -0.25909452569E+02  0.43400728458E+02  0.00000000000E+00 0. -1.
         11    1    3    3    0    0 -0.21394193634E+01  0.55592709922E+00  0.51172695714E+01  0.55742818622E+01  0.51100000000E-03 0. -1.
        -11    1    3    3    0    0  0.19735779975E+02  0.17661262863E+02  0.14652659766E+02  0.30267501642E+02  0.51100000000E-03 0.  1.
         12    1    3    3    0    0  0.96403063090E+01  0.34735332473E+01  0.61395232311E+01  0.11945488038E+02  0.00000000000E+00 0. -1.
</event>
<event>
 7    1  0.2486105E-010  0.4778727E+02  0.7816164E-02  0.1312668E+00
        -11   -1    0    0    0    0  0.00000000000E+00  0.00000000000E+00  0.45593999997E+02  0.45594000000E+02  0.51100000000E-03 0.  1.
         11   -1    0    0    0    0 -0.00000000000E+00 -0.00000000000E+00 -0.45593999997E+02  0.45594000000E+02  0.51100000000E-03 0. -1.
    9900012    2    1    2    0    0 -0.25190972359E+02  0.11087194153E+02  0.33557598578E+02  0.47787269765E+02  0.19999994168E+02 0.  0.
         12    1    1    2    0    0  0.25190972359E+02 -0.11087194153E+02 -0.33557598578E+02  0.43400730235E+02  0.00000000000E+00 0. -1.
         11    1    3    3    0    0 -0.86382601753E+01  0.15431384257E+01  0.15070769195E+02  0.17439291828E+02  0.51100000000E-03 0. -1.
        -11    1    3    3    0    0 -0.18421394055E+02  0.11038538337E+02  0.15325038372E+02  0.26382833224E+02  0.51100000000E-03 0.  1.
         12    1    3    3    0    0  0.18686818713E+01 -0.14944826096E+01  0.31617910110E+01  0.39651447141E+01  0.00000000000E+00 0. -1.
</event>
<event>
 7    1  0.2486105E-010  0.4778727E+02  0.7816164E-02  0.1312668E+00
        -11   -1    0    0    0    0  0.00000000000E+00  0.00000000000E+00  0.45593999997E+02  0.45594000000E+02  0.51100000000E-03 0. -1.
         11   -1    0    0    0    0 -0.00000000000E+00 -0.00000000000E+00 -0.45593999997E+02  0.45594000000E+02  0.51100000000E-03 0.  1.
    9900012    2    1    2    0    0 -0.24567641850E+02  0.18809593033E+02 -0.30434412718E+02  0.47787270817E+02  0.19999998964E+02 0.  0.
         12    1    1    2    0    0  0.24567641850E+02 -0.18809593033E+02  0.30434412718E+02  0.43400729183E+02  0.00000000000E+00 0. -1.
         11    1    3    3    0    0 -0.10443833014E+02  0.73968883520E+00 -0.12774512433E+02  0.16516929369E+02  0.51100000000E-03 0. -1.
        -11    1    3    3    0    0 -0.72545429417E+01  0.82027714300E+01 -0.15619420099E+02  0.19075642504E+02  0.51100000000E-03 0.  1.
        -12    1    3    3    0    0 -0.68692658936E+01  0.98671327674E+01 -0.20404801852E+01  0.12194698945E+02  0.00000000000E+00 0.  1.
</event>
<event>
 7    1  0.2486105E-010  0.4778727E+02  0.7816164E-02  0.1312668E+00
        -11   -1    0    0    0    0  0.00000000000E+00  0.00000000000E+00  0.45593999997E+02  0.45594000000E+02  0.51100000000E-03 0.  1.
         11   -1    0    0    0    0 -0.00000000000E+00 -0.00000000000E+00 -0.45593999997E+02  0.45594000000E+02  0.51100000000E-03 0. -1.
    9900012    2    1    2    0    0  0.34046116537E+02 -0.58739709653E+01  0.26267505150E+02  0.47787269442E+02  0.19999992694E+02 0.  0.
         12    1    1    2    0    0 -0.34046116537E+02  0.58739709653E+01 -0.26267505150E+02  0.43400730558E+02  0.00000000000E+00 0. -1.
         11    1    3    3    0    0  0.83963855426E+01 -0.66474263592E+01  0.91253627283E+01  0.14069819209E+02  0.51100000000E-03 0. -1.
        -11    1    3    3    0    0  0.17925746539E+02 -0.32661838416E+01  0.52297127882E+01  0.18956535601E+02  0.51100000000E-03 0.  1.
        -12    1    3    3    0    0  0.77239844554E+01  0.40396392355E+01  0.11912429634E+02  0.14760914633E+02  0.00000000000E+00 0.  1.
</event>
<event>
 7    1  0.2486105E-010  0.4778727E+02  0.7816164E-02  0.1312668E+00
        -11   -1    0    0    0    0  0.00000000000E+00  0.00000000000E+00  0.45593999997E+02  0.45594000000E+02  0.51100000000E-03 0. -1.
         11   -1    0    0    0    0 -0.00000000000E+00 -0.00000000000E+00 -0.45593999997E+02  0.45594000000E+02  0.51100000000E-03 0.  1.
    9900012    2    1    2    0    0  0.41866532473E+02  0.46193107057E+00 -0.11428193688E+02  0.47787268063E+02  0.19999986409E+02 0.  0.
         12    1    1    2    0    0 -0.41866532473E+02 -0.46193107057E+00  0.11428193688E+02  0.43400731937E+02  0.00000000000E+00 0. -1.
         11    1    3    3    0    0  0.14545866309E+02 -0.17195639460E+00 -0.12854277782E+02  0.19412476741E+02  0.51100000000E-03 0. -1.
        -11    1    3    3    0    0  0.24698381156E+01  0.12233777932E+01 -0.18244357383E+01  0.33053471174E+01  0.51100000000E-03 0.  1.
        -12    1    3    3    0    0  0.24850828049E+02 -0.58949032808E+00  0.32505198323E+01  0.25069444205E+02  0.00000000000E+00 0.  1.
</event>
<event>
 7    1  0.2486105E-010  0.4778727E+02  0.7816164E-02  0.1312668E+00
        -11   -1    0    0    0    0  0.00000000000E+00  0.00000000000E+00  0.45593999997E+02  0.45594000000E+02  0.51100000000E-03 0. -1.
         11   -1    0    0    0    0 -0.00000000000E+00 -0.00000000000E+00 -0.45593999997E+02  0.45594000000E+02  0.51100000000E-03 0.  1.
    9900012    2    1    2    0    0 -0.27378141341E+02 -0.23316821993E+02 -0.24297867127E+02  0.47787272378E+02  0.20000006082E+02 0.  0.
         12    1    1    2    0    0  0.27378141341E+02  0.23316821993E+02  0.24297867127E+02  0.43400727622E+02  0.00000000000E+00 0. -1.
         11    1    3    3    0    0 -0.37817625362E+01 -0.72286980643E+00  0.14291554471E+01  0.41069154106E+01  0.51100000000E-03 0. -1.
        -11    1    3    3    0    0 -0.90356470859E+01 -0.23408475374E+01 -0.26601645003E+01  0.97056149153E+01  0.51100000000E-03 0.  1.
        -12    1    3    3    0    0 -0.14560731719E+02 -0.20253104650E+02 -0.23066858074E+02  0.33974742053E+02  0.00000000000E+00 0.  1.
</event>
<event>
 7    1  0.2486105E-010  0.4778727E+02  0.7816164E-02  0.1312668E+00
        -11   -1    0    0    0    0  0.00000000000E+00  0.00000000000E+00  0.45593999997E+02  0.45594000000E+02  0.51100000000E-03 0.  1.
         11   -1    0    0    0    0 -0.00000000000E+00 -0.00000000000E+00 -0.45593999997E+02  0.45594000000E+02  0.51100000000E-03 0. -1.
    9900012    2    1    2    0    0  0.33439424926E+02 -0.75973261822E+01 -0.26602799523E+02  0.47787269050E+02  0.19999990909E+02 0.  0.
         12    1    1    2    0    0 -0.33439424926E+02  0.75973261822E+01  0.26602799523E+02  0.43400730950E+02  0.00000000000E+00 0. -1.
         11    1    3    3    0    0  0.75475271793E+01  0.10916525568E+01 -0.38605940724E+01  0.85475761875E+01  0.51100000000E-03 0.  1.
        -11    1    3    3    0    0  0.80262744080E+01  0.22642134825E+01 -0.14487907623E+02  0.16716674643E+02  0.51100000000E-03 0. -1.
         12    1    3    3    0    0  0.17865623339E+02 -0.10953192222E+02 -0.82542978280E+01  0.22523018220E+02  0.00000000000E+00 0. -1.
</event>
<event>
 7    1  0.2486105E-010  0.4778727E+02  0.7816164E-02  0.1312668E+00
        -11   -1    0    0    0    0  0.00000000000E+00  0.00000000000E+00  0.45593999997E+02  0.45594000000E+02  0.51100000000E-03 0. -1.
         11   -1    0    0    0    0 -0.00000000000E+00 -0.00000000000E+00 -0.45593999997E+02  0.45594000000E+02  0.51100000000E-03 0.  1.
    9900012    2    1    2    0    0  0.25928651433E+02  0.16911807911E+02 -0.30419061162E+02  0.47787268509E+02  0.19999988439E+02 0.  0.
         12    1    1    2    0    0 -0.25928651433E+02 -0.16911807911E+02  0.30419061162E+02  0.43400731491E+02  0.00000000000E+00 0. -1.
         11    1    3    3    0    0  0.12095749726E+01  0.40065571525E+01 -0.14063482655E+02  0.14673006388E+02  0.51100000000E-03 0. -1.
        -11    1    3    3    0    0  0.46350167227E+01  0.52249209689E+01 -0.61780997831E+01  0.93248107938E+01  0.51100000000E-03 0.  1.
         12    1    3    3    0    0  0.20084059738E+02  0.76803297897E+01 -0.10177478724E+02  0.23789451327E+02  0.00000000000E+00 0. -1.
</event>
<event>
 7    1  0.2486105E-010  0.4778727E+02  0.7816164E-02  0.1312668E+00
        -11   -1    0    0    0    0  0.00000000000E+00  0.00000000000E+00  0.45593999997E+02  0.45594000000E+02  0.51100000000E-03 0.  1.
         11   -1    0    0    0    0 -0.00000000000E+00 -0.00000000000E+00 -0.45593999997E+02  0.45594000000E+02  0.51100000000E-03 0. -1.
    9900012    2    1    2    0    0 -0.21914615049E+02 -0.18456568242E+02  0.32599512033E+02  0.47787269029E+02  0.19999990811E+02 0.  0.
         12    1    1    2    0    0  0.21914615049E+02  0.18456568242E+02 -0.32599512033E+02  0.43400730971E+02  0.00000000000E+00 0. -1.
         11    1    3    3    0    0 -0.11592159493E+02 -0.54463964331E+01  0.29073191286E+01  0.13133693334E+02  0.51100000000E-03 0. -1.
        -11    1    3    3    0    0 -0.27582247157E+01  0.59141730526E-01  0.42197294084E+01  0.50415689887E+01  0.51100000000E-03 0.  1.
         12    1    3    3    0    0 -0.75642308403E+01 -0.13069313540E+02  0.25472463496E+02  0.29612006706E+02  0.00000000000E+00 0. -1.
</event>
<event>
 7    1  0.2486105E-010  0.4778728E+02  0.7816164E-02  0.1312668E+00
        -11   -1    0    0    0    0  0.00000000000E+00  0.00000000000E+00  0.45593999997E+02  0.45594000000E+02  0.51100000000E-03 0. -1.
         11   -1    0    0    0    0 -0.00000000000E+00 -0.00000000000E+00 -0.45593999997E+02  0.45594000000E+02  0.51100000000E-03 0.  1.
    9900012    2    1    2    0    0 -0.29377171166E+02  0.24796979522E+02 -0.20142345976E+02  0.47787280184E+02  0.20000041672E+02 0.  0.
         12    1    1    2    0    0  0.29377171166E+02 -0.24796979522E+02  0.20142345976E+02  0.43400719816E+02  0.00000000000E+00 0. -1.
         11    1    3    3    0    0 -0.30576295259E+01  0.12238982471E+02 -0.34299304587E+01  0.13073110321E+02  0.51100000000E-03 0. -1.
        -11    1    3    3    0    0 -0.19524271996E+02  0.11584765104E+02 -0.16080343532E+02  0.27820521704E+02  0.51100000000E-03 0.  1.
        -12    1    3    3    0    0 -0.67952696437E+01  0.97323194604E+00 -0.63207198470E+00  0.68936481593E+01  0.00000000000E+00 0.  1.
</event>
<event>
 7    1  0.2486105E-010  0.4778727E+02  0.7816164E-02  0.1312668E+00
        -11   -1    0    0    0    0  0.00000000000E+00  0.00000000000E+00  0.45593999997E+02  0.45594000000E+02  0.51100000000E-03 0.  1.
         11   -1    0    0    0    0 -0.00000000000E+00 -0.00000000000E+00 -0.45593999997E+02  0.45594000000E+02  0.51100000000E-03 0. -1.
    9900012    2    1    2    0    0 -0.30266076127E+02  0.16748096177E+02  0.26212388183E+02  0.47787269777E+02  0.19999994220E+02 0.  0.
         12    1    1    2    0    0  0.30266076127E+02 -0.16748096177E+02 -0.26212388183E+02  0.43400730223E+02  0.00000000000E+00 0. -1.
         11    1    3    3    0    0 -0.17553868710E+02  0.49808756261E+01  0.13468954330E+02  0.22679509689E+02  0.51100000000E-03 0. -1.
        -11    1    3    3    0    0 -0.66023583244E+01 -0.16772826056E+01  0.48558955520E+01  0.83656520521E+01  0.51100000000E-03 0.  1.
         12    1    3    3    0    0 -0.61098490919E+01  0.13444503156E+02  0.78875383005E+01  0.16742108036E+02  0.00000000000E+00 0. -1.
</event>
<event>
 7    1  0.2486105E-010  0.4778727E+02  0.7816164E-02  0.1312668E+00
        -11   -1    0    0    0    0  0.00000000000E+00  0.00000000000E+00  0.45593999997E+02  0.45594000000E+02  0.51100000000E-03 0. -1.
         11   -1    0    0    0    0 -0.00000000000E+00 -0.00000000000E+00 -0.45593999997E+02  0.45594000000E+02  0.51100000000E-03 0.  1.
    9900012    2    1    2    0    0  0.15354326905E+02  0.27365333840E+02 -0.29983439031E+02  0.47787268819E+02  0.19999989854E+02 0.  0.
         12    1    1    2    0    0 -0.15354326905E+02 -0.27365333840E+02  0.29983439031E+02  0.43400731181E+02  0.00000000000E+00 0. -1.
         11    1    3    3    0    0  0.49261135906E+01  0.11918189136E+01  0.10975253600E+01  0.51857101354E+01  0.51100000000E-03 0. -1.
        -11    1    3    3    0    0  0.39598448066E+01  0.27757267595E+01 -0.45352182109E+01  0.66297235551E+01  0.51100000000E-03 0.  1.
        -12    1    3    3    0    0  0.64683685079E+01  0.23397788167E+02 -0.26545746180E+02  0.35971835129E+02  0.00000000000E+00 0.  1.
</event>
<event>
 7    1  0.2486105E-010  0.4778727E+02  0.7816164E-02  0.1312668E+00
        -11   -1    0    0    0    0  0.00000000000E+00  0.00000000000E+00  0.45593999997E+02  0.45594000000E+02  0.51100000000E-03 0.  1.
         11   -1    0    0    0    0 -0.00000000000E+00 -0.00000000000E+00 -0.45593999997E+02  0.45594000000E+02  0.51100000000E-03 0. -1.
    9900012    2    1    2    0    0  0.25523468299E+02  0.35497813534E+01  0.34922410276E+02  0.47787272804E+02  0.20000008023E+02 0.  0.
         12    1    1    2    0    0 -0.25523468299E+02 -0.35497813534E+01 -0.34922410276E+02  0.43400727196E+02  0.00000000000E+00 0. -1.
         11    1    3    3    0    0  0.23635923816E+01 -0.24010237455E+01  0.98584192422E+01  0.10418249094E+02  0.51100000000E-03 0. -1.
        -11    1    3    3    0    0  0.11402444016E+02  0.78375372217E+00  0.20982359512E+02  0.23893292163E+02  0.51100000000E-03 0.  1.
         12    1    3    3    0    0  0.11757431901E+02  0.51670513768E+01  0.40816315216E+01  0.13475731547E+02  0.00000000000E+00 0. -1.
</event>
<event>
 7    1  0.2486105E-010  0.4778727E+02  0.7816164E-02  0.1312668E+00
        -11   -1    0    0    0    0  0.00000000000E+00  0.00000000000E+00  0.45593999997E+02  0.45594000000E+02  0.51100000000E-03 0.  1.
         11   -1    0    0    0    0 -0.00000000000E+00 -0.00000000000E+00 -0.45593999997E+02  0.45594000000E+02  0.51100000000E-03 0. -1.
    9900012    2    1    2    0    0  0.18703487358E+02 -0.26627071412E+02  0.28719366240E+02  0.47787269953E+02  0.19999995025E+02 0.  0.
         12    1    1    2    0    0 -0.18703487358E+02  0.26627071412E+02 -0.28719366240E+02  0.43400730047E+02  0.00000000000E+00 0. -1.
         11    1    3    3    0    0  0.85793443940E+01 -0.76855021258E+01  0.14853782940E+02  0.18796461397E+02  0.51100000000E-03 0. -1.
        -11    1    3    3    0    0 -0.25039325602E+00  0.20370552400E+01  0.12582768832E+01  0.24073952333E+01  0.51100000000E-03 0.  1.
        -12    1    3    3    0    0  0.10374536220E+02 -0.20978624527E+02  0.12607306417E+02  0.26583413323E+02  0.00000000000E+00 0.  1.
</event>
<event>
 7    1  0.2486105E-010  0.4778727E+02  0.7816164E-02  0.1312668E+00
        -11   -1    0    0    0    0  0.00000000000E+00  0.00000000000E+00  0.45593999997E+02  0.45594000000E+02  0.51100000000E-03 0. -1.
         11   -1    0    0    0    0 -0.00000000000E+00 -0.00000000000E+00 -0.45593999997E+02  0.45594000000E+02  0.51100000000E-03 0.  1.
    9900012    2    1    2    0    0  0.38766040883E+02 -0.15500010232E+02  0.11856111393E+02  0.47787267053E+02  0.19999981803E+02 0.  0.
         12    1    1    2    0    0 -0.38766040883E+02  0.15500010232E+02 -0.11856111393E+02  0.43400732947E+02  0.00000000000E+00 0. -1.
         11    1    3    3    0    0  0.16987789665E+02 -0.47138665853E+01  0.89092778089E+00  0.17652175176E+02  0.51100000000E-03 0. -1.
        -11    1    3    3    0    0  0.69693868297E+01  0.19045707017E+01 -0.93995292729E+00  0.72858255611E+01  0.51100000000E-03 0.  1.
         12    1    3    3    0    0  0.14808864388E+02 -0.12690714349E+02  0.11905136540E+02  0.22849266316E+02  0.00000000000E+00 0. -1.
</event>
<event>
 7    1  0.2486105E-010  0.4778729E+02  0.7816164E-02  0.1312668E+00
        -11   -1    0    0    0    0  0.00000000000E+00  0.00000000000E+00  0.45593999997E+02  0.45594000000E+02  0.51100000000E-03 0.  1.
         11   -1    0    0    0    0 -0.00000000000E+00 -0.00000000000E+00 -0.45593999997E+02  0.45594000000E+02  0.51100000000E-03 0. -1.
    9900012    2    1    2    0    0 -0.14702510638E+02  0.29520839507E+02  0.28213080668E+02  0.47787289119E+02  0.20000082408E+02 0.  0.
         12    1    1    2    0    0  0.14702510638E+02 -0.29520839507E+02 -0.28213080668E+02  0.43400710881E+02  0.00000000000E+00 0. -1.
         11    1    3    3    0    0 -0.10847495689E+02  0.89929145381E+01  0.11227569558E+02  0.18016631013E+02  0.51100000000E-03 0. -1.
        -11    1    3    3    0    0 -0.38248704618E+01  0.21831875892E+02  0.13270741051E+02  0.25833563582E+02  0.51100000000E-03 0.  1.
         12    1    3    3    0    0 -0.30144486415E-01 -0.13039509235E+01  0.37147700588E+01  0.39370945239E+01  0.00000000000E+00 0. -1.
</event>
<event>
 7    1  0.2486105E-010  0.4778727E+02  0.7816164E-02  0.1312668E+00
        -11   -1    0    0    0    0  0.00000000000E+00  0.00000000000E+00  0.45593999997E+02  0.45594000000E+02  0.51100000000E-03 0. -1.
         11   -1    0    0    0    0 -0.00000000000E+00 -0.00000000000E+00 -0.45593999997E+02  0.45594000000E+02  0.51100000000E-03 0.  1.
    9900012    2    1    2    0    0 -0.11223048080E+02  0.41844271040E+02 -0.25929057942E+01  0.47787274343E+02  0.20000015039E+02 0.  0.
         12    1    1    2    0    0  0.11223048080E+02 -0.41844271040E+02  0.25929057942E+01  0.43400725657E+02  0.00000000000E+00 0. -1.
         11    1    3    3    0    0  0.21056485374E+01  0.35255715294E+01  0.27242060887E+01  0.49279518511E+01  0.51100000000E-03 0. -1.
        -11    1    3    3    0    0  0.74291765271E+00  0.16567054879E+02 -0.29607281157E+01  0.16845923698E+02  0.51100000000E-03 0.  1.
         12    1    3    3    0    0 -0.14071614270E+02  0.21751644632E+02 -0.23563837672E+01  0.26013398794E+02  0.00000000000E+00 0. -1.
</event>
<event>
 7    1  0.2486105E-010  0.4778727E+02  0.7816164E-02  0.1312668E+00
        -11   -1    0    0    0    0  0.00000000000E+00  0.00000000000E+00  0.45593999997E+02  0.45594000000E+02  0.51100000000E-03 0. -1.
         11   -1    0    0    0    0 -0.00000000000E+00 -0.00000000000E+00 -0.45593999997E+02  0.45594000000E+02  0.51100000000E-03 0.  1.
    9900012    2    1    2    0    0 -0.14253593533E+02 -0.38659592660E+02  0.13634291630E+02  0.47787274873E+02  0.20000017458E+02 0.  0.
         12    1    1    2    0    0  0.14253593533E+02  0.38659592660E+02 -0.13634291630E+02  0.43400725127E+02  0.00000000000E+00 0. -1.
         11    1    3    3    0    0 -0.39527696677E+00 -0.35886313959E+01  0.77788846928E+01  0.85758711803E+01  0.51100000000E-03 0. -1.
        -11    1    3    3    0    0  0.66971243422E+00 -0.79610213067E+01  0.63648636212E+00  0.80144550745E+01  0.51100000000E-03 0.  1.
        -12    1    3    3    0    0 -0.14528029001E+02 -0.27109939958E+02  0.52189205749E+01  0.31196948619E+02  0.00000000000E+00 0.  1.
</event>
<event>
 7    1  0.2486105E-010  0.4778727E+02  0.7816164E-02  0.1312668E+00
        -11   -1    0    0    0    0  0.00000000000E+00  0.00000000000E+00  0.45593999997E+02  0.45594000000E+02  0.51100000000E-03 0. -1.
         11   -1    0    0    0    0 -0.00000000000E+00 -0.00000000000E+00 -0.45593999997E+02  0.45594000000E+02  0.51100000000E-03 0.  1.
    9900012    2    1    2    0    0  0.20722183694E+02 -0.31443754724E+02 -0.21575550956E+02  0.47787274116E+02  0.20000014007E+02 0.  0.
         12    1    1    2    0    0 -0.20722183694E+02  0.31443754724E+02  0.21575550956E+02  0.43400725884E+02  0.00000000000E+00 0. -1.
         11    1    3    3    0    0  0.80087351452E+01 -0.25878759938E+01 -0.12590917014E+01  0.85101264949E+01  0.51100000000E-03 0. -1.
        -11    1    3    3    0    0 -0.86573588501E+00 -0.53891654921E+01 -0.10334201077E+00  0.54592383312E+01  0.51100000000E-03 0.  1.
        -12    1    3    3    0    0  0.13579184434E+02 -0.23466713238E+02 -0.20213117244E+02  0.33817909290E+02  0.00000000000E+00 0.  1.
</event>
<event>
 7    1  0.2486105E-010  0.4778727E+02  0.7816164E-02  0.1312668E+00
        -11   -1    0    0    0    0  0.00000000000E+00  0.00000000000E+00  0.45593999997E+02  0.45594000000E+02  0.51100000000E-03 0. -1.
         11   -1    0    0    0    0 -0.00000000000E+00 -0.00000000000E+00 -0.45593999997E+02  0.45594000000E+02  0.51100000000E-03 0.  1.
    9900012    2    1    2    0    0 -0.11272395324E+02  0.28772273227E+02 -0.30474784871E+02  0.47787272864E+02  0.20000008298E+02 0.  0.
         12    1    1    2    0    0  0.11272395324E+02 -0.28772273227E+02  0.30474784871E+02  0.43400727136E+02  0.00000000000E+00 0. -1.
         11    1    3    3    0    0 -0.39539867821E+01  0.21724532535E+02 -0.11146462009E+02  0.24735257042E+02  0.51100000000E-03 0.  1.
        -11    1    3    3    0    0  0.11321900169E+01  0.27932867519E+01 -0.59020294260E+01  0.66270850846E+01  0.51100000000E-03 0. -1.
        -12    1    3    3    0    0 -0.84505985588E+01  0.42544539399E+01 -0.13426293436E+02  0.16424930738E+02  0.00000000000E+00 0.  1.
</event>
<event>
 7    1  0.2486105E-010  0.4778726E+02  0.7816164E-02  0.1312668E+00
        -11   -1    0    0    0    0  0.00000000000E+00  0.00000000000E+00  0.45593999997E+02  0.45594000000E+02  0.51100000000E-03 0.  1.
         11   -1    0    0    0    0 -0.00000000000E+00 -0.00000000000E+00 -0.45593999997E+02  0.45594000000E+02  0.51100000000E-03 0. -1.
    9900012    2    1    2    0    0  0.97533480347E+01 -0.26631424704E+02  0.32852146635E+02  0.47787261317E+02  0.19999955650E+02 0.  0.
         12    1    1    2    0    0 -0.97533480347E+01  0.26631424704E+02 -0.32852146635E+02  0.43400738683E+02  0.00000000000E+00 0. -1.
         11    1    3    3    0    0  0.65904994221E+00  0.26412272509E+01  0.24585784842E+01  0.36681107727E+01  0.51100000000E-03 0. -1.
        -11    1    3    3    0    0 -0.14967784669E+01 -0.87842047459E+01  0.81102668452E+01  0.12049025992E+02  0.51100000000E-03 0.  1.
        -12    1    3    3    0    0  0.10591076559E+02 -0.20488447209E+02  0.22283301306E+02  0.32070124553E+02  0.00000000000E+00 0.  1.
</event>
<event>
 7    1  0.2486105E-010  0.4778727E+02  0.7816164E-02  0.1312668E+00
        -11   -1    0    0    0    0  0.00000000000E+00  0.00000000000E+00  0.45593999997E+02  0.45594000000E+02  0.51100000000E-03 0.  1.
         11   -1    0    0    0    0 -0.00000000000E+00 -0.00000000000E+00 -0.45593999997E+02  0.45594000000E+02  0.51100000000E-03 0. -1.
    9900012    2    1    2    0    0  0.16536384308E+02 -0.17130295737E+02  0.36286694437E+02  0.47787271537E+02  0.20000002245E+02 0.  0.
         12    1    1    2    0    0 -0.16536384308E+02  0.17130295737E+02 -0.36286694437E+02  0.43400728463E+02  0.00000000000E+00 0. -1.
         11    1    3    3    0    0  0.15252907172E+01 -0.95131779808E+00 -0.22461748739E+00  0.18116209873E+01  0.51100000000E-03 0. -1.
        -11    1    3    3    0    0  0.16039610618E+02 -0.54062849368E+01  0.24847588573E+02  0.30064924476E+02  0.51100000000E-03 0.  1.
         12    1    3    3    0    0 -0.10285170267E+01 -0.10772693002E+02  0.11663723351E+02  0.15910726073E+02  0.00000000000E+00 0. -1.
</event>
<event>
 7    1  0.2486105E-010  0.4778727E+02  0.7816164E-02  0.1312668E+00
        -11   -1    0    0    0    0  0.00000000000E+00  0.00000000000E+00  0.45593999997E+02  0.45594000000E+02  0.51100000000E-03 0.  1.
         11   -1    0    0    0    0 -0.00000000000E+00 -0.00000000000E+00 -0.45593999997E+02  0.45594000000E+02  0.51100000000E-03 0. -1.
    9900012    2    1    2    0    0 -0.33588532536E+02  0.10774860414E+02  0.25285095520E+02  0.47787272007E+02  0.20000004388E+02 0.  0.
         12    1    1    2    0    0  0.33588532536E+02 -0.10774860414E+02 -0.25285095520E+02  0.43400727993E+02  0.00000000000E+00 0. -1.
         11    1    3    3    0    0 -0.30846882276E+02  0.12984510860E+02  0.16369822708E+02  0.37257197481E+02  0.51100000000E-03 0. -1.
        -11    1    3    3    0    0 -0.29536892910E+01 -0.25415050048E+01  0.39475688789E+01  0.55467854143E+01  0.51100000000E-03 0.  1.
         12    1    3    3    0    0  0.21203903041E+00  0.33185455884E+00  0.49677039335E+01  0.49832891116E+01  0.00000000000E+00 0. -1.
</event>
<event>
 7    1  0.2486105E-010  0.4778727E+02  0.7816164E-02  0.1312668E+00
        -11   -1    0    0    0    0  0.00000000000E+00  0.00000000000E+00  0.45593999997E+02  0.45594000000E+02  0.51100000000E-03 0.  1.
         11   -1    0    0    0    0 -0.00000000000E+00 -0.00000000000E+00 -0.45593999997E+02  0.45594000000E+02  0.51100000000E-03 0. -1.
    9900012    2    1    2    0    0 -0.33442059226E+02  0.11314604593E+02  0.25243448140E+02  0.47787271015E+02  0.19999999868E+02 0.  0.
         12    1    1    2    0    0  0.33442059226E+02 -0.11314604593E+02 -0.25243448140E+02  0.43400728985E+02  0.00000000000E+00 0. -1.
         11    1    3    3    0    0 -0.81537725380E+01  0.10175362128E+02  0.36856884824E+01  0.13550140253E+02  0.51100000000E-03 0. -1.
        -11    1    3    3    0    0 -0.13887000801E+02  0.31895193405E+01  0.77717761630E+01  0.16230290505E+02  0.51100000000E-03 0.  1.
         12    1    3    3    0    0 -0.11401285887E+02 -0.20502768752E+01  0.13785983495E+02  0.18006840258E+02  0.00000000000E+00 0. -1.
</event>
<event>
 7    1  0.2486105E-010  0.4778727E+02  0.7816164E-02  0.1312668E+00
        -11   -1    0    0    0    0  0.00000000000E+00  0.00000000000E+00  0.45593999997E+02  0.45594000000E+02  0.51100000000E-03 0. -1.
         11   -1    0    0    0    0 -0.00000000000E+00 -0.00000000000E+00 -0.45593999997E+02  0.45594000000E+02  0.51100000000E-03 0.  1.
    9900012    2    1    2    0    0  0.25974605814E+02  0.30748454075E+02 -0.16231937837E+02  0.47787269809E+02  0.19999994367E+02 0.  0.
         12    1    1    2    0    0 -0.25974605814E+02 -0.30748454075E+02  0.16231937837E+02  0.43400730191E+02  0.00000000000E+00 0. -1.
         11    1    3    3    0    0  0.59677278999E+01  0.31737360840E+01 -0.56101356509E+01  0.87840764626E+01  0.51100000000E-03 0. -1.
        -11    1    3    3    0    0  0.13830375774E+01  0.13568092565E+02 -0.72859607356E+01  0.15462572648E+02  0.51100000000E-03 0.  1.
        -12    1    3    3    0    0  0.18623840336E+02  0.14006625426E+02 -0.33358414506E+01  0.23540620699E+02  0.00000000000E+00 0.  1.
</event>
<event>
 7    1  0.2486105E-010  0.4778728E+02  0.7816164E-02  0.1312668E+00
        -11   -1    0    0    0    0  0.00000000000E+00  0.00000000000E+00  0.45593999997E+02  0.45594000000E+02  0.51100000000E-03 0.  1.
         11   -1    0    0    0    0 -0.00000000000E+00 -0.00000000000E+00 -0.45593999997E+02  0.45594000000E+02  0.51100000000E-03 0. -1.
    9900012    2    1    2    0    0 -0.34948438215E+01  0.20874802805E+02  0.37889988815E+02  0.47787279063E+02  0.20000036559E+02 0.  0.
         12    1    1    2    0    0  0.34948438215E+01 -0.20874802805E+02 -0.37889988815E+02  0.43400720937E+02  0.00000000000E+00 0. -1.
         11    1    3    3    0    0  0.28432031975E+01  0.11057210796E+02  0.62161349129E+01  0.12999463394E+02  0.51100000000E-03 0. -1.
        -11    1    3    3    0    0  0.63470900311E+00  0.44489359652E+01  0.51137859022E+01  0.68078405721E+01  0.51100000000E-03 0.  1.
        -12    1    3    3    0    0 -0.69727560222E+01  0.53686560432E+01  0.26560068000E+02  0.27979975097E+02  0.00000000000E+00 0.  1.
</event>
<event>
 7    1  0.2486105E-010  0.4778727E+02  0.7816164E-02  0.1312668E+00
        -11   -1    0    0    0    0  0.00000000000E+00  0.00000000000E+00  0.45593999997E+02  0.45594000000E+02  0.51100000000E-03 0.  1.
         11   -1    0    0    0    0 -0.00000000000E+00 -0.00000000000E+00 -0.45593999997E+02  0.45594000000E+02  0.51100000000E-03 0. -1.
    9900012    2    1    2    0    0  0.24988929757E+02  0.23430339571E+02  0.26649504594E+02  0.47787268232E+02  0.19999987179E+02 0.  0.
         12    1    1    2    0    0 -0.24988929757E+02 -0.23430339571E+02 -0.26649504594E+02  0.43400731768E+02  0.00000000000E+00 0. -1.
         11    1    3    3    0    0  0.73591747232E+01  0.19598967004E+01  0.58842047013E+01  0.96240590662E+01  0.51100000000E-03 0. -1.
        -11    1    3    3    0    0  0.18791507808E+02  0.21295455872E+02  0.22385048855E+02  0.36162240237E+02  0.51100000000E-03 0.  1.
         12    1    3    3    0    0 -0.11617527738E+01  0.17498699926E+00 -0.16197489615E+01  0.20009689292E+01  0.00000000000E+00 0. -1.
</event>
<event>
 7    1  0.3019437E-010  0.4778727E+02  0.7816164E-02  0.1312668E+00
        -11   -1    0    0    0    0  0.00000000000E+00  0.00000000000E+00  0.45593999997E+02  0.45594000000E+02  0.51100000000E-03 0. -1.
         11   -1    0    0    0    0 -0.00000000000E+00 -0.00000000000E+00 -0.45593999997E+02  0.45594000000E+02  0.51100000000E-03 0.  1.
    9900012    2    1    2    0    0  0.43185441597E+01 -0.28641374388E+02 -0.32320972214E+02  0.47787269645E+02  0.19999993618E+02 0.  0.
         12    1    1    2    0    0 -0.43185441597E+01  0.28641374388E+02  0.32320972214E+02  0.43400730355E+02  0.00000000000E+00 0. -1.
         11    1    3    3    0    0  0.21413928264E+01 -0.42553320063E+01  0.58135684421E+00  0.47991030164E+01  0.51100000000E-03 0. -1.
        -11    1    3    3    0    0  0.44178487639E+01 -0.91849534878E+01 -0.55241600496E+01  0.11592976442E+02  0.51100000000E-03 0.  1.
        -12    1    3    3    0    0 -0.22406974306E+01 -0.15201088894E+02 -0.27378169009E+02  0.31395190186E+02  0.00000000000E+00 0.  1.
</event>
<event>
 7    1  0.2486105E-010  0.4778727E+02  0.7816164E-02  0.1312668E+00
        -11   -1    0    0    0    0  0.00000000000E+00  0.00000000000E+00  0.45593999997E+02  0.45594000000E+02  0.51100000000E-03 0.  1.
         11   -1    0    0    0    0 -0.00000000000E+00 -0.00000000000E+00 -0.45593999997E+02  0.45594000000E+02  0.51100000000E-03 0. -1.
    9900012    2    1    2    0    0 -0.30053783085E+02  0.16120483577E+02  0.26842561849E+02  0.47787274256E+02  0.20000014644E+02 0.  0.
         12    1    1    2    0    0  0.30053783085E+02 -0.16120483577E+02 -0.26842561849E+02  0.43400725744E+02  0.00000000000E+00 0. -1.
         11    1    3    3    0    0 -0.62790617016E+00 -0.28601246466E+01  0.20240507767E+01  0.35596855142E+01  0.51100000000E-03 0. -1.
        -11    1    3    3    0    0 -0.14720598880E+02  0.38859394288E+01  0.76119202166E+01  0.17021688703E+02  0.51100000000E-03 0.  1.
        -12    1    3    3    0    0 -0.14705278035E+02  0.15094668795E+02  0.17206590855E+02  0.27205900039E+02  0.00000000000E+00 0.  1.
</event>
<event>
 7    1  0.2488623E-010  0.4778727E+02  0.7816164E-02  0.1312668E+00
        -11   -1    0    0    0    0  0.00000000000E+00  0.00000000000E+00  0.45593999997E+02  0.45594000000E+02  0.51100000000E-03 0.  1.
         11   -1    0    0    0    0 -0.00000000000E+00 -0.00000000000E+00 -0.45593999997E+02  0.45594000000E+02  0.51100000000E-03 0. -1.
    9900012    2    1    2    0    0 -0.22774665706E+02  0.15241157983E+02  0.33654789241E+02  0.47787272661E+02  0.20000007372E+02 0.  0.
         12    1    1    2    0    0  0.22774665706E+02 -0.15241157983E+02 -0.33654789241E+02  0.43400727339E+02  0.00000000000E+00 0. -1.
         11    1    3    3    0    0 -0.36743105059E+01 -0.89820641540E+00  0.10222127113E+01  0.39181949347E+01  0.51100000000E-03 0. -1.
        -11    1    3    3    0    0 -0.11645831343E+02  0.45227525543E+01  0.25353724953E+02  0.28264678445E+02  0.51100000000E-03 0.  1.
        -12    1    3    3    0    0 -0.74545238574E+01  0.11616611844E+02  0.72788515765E+01  0.15604399282E+02  0.00000000000E+00 0.  1.
</event>
<event>
 7    1  0.2486105E-010  0.4778726E+02  0.7816164E-02  0.1312668E+00
        -11   -1    0    0    0    0  0.00000000000E+00  0.00000000000E+00  0.45593999997E+02  0.45594000000E+02  0.51100000000E-03 0. -1.
         11   -1    0    0    0    0 -0.00000000000E+00 -0.00000000000E+00 -0.45593999997E+02  0.45594000000E+02  0.51100000000E-03 0.  1.
    9900012    2    1    2    0    0 -0.29357783504E+02 -0.31787525174E+02  0.33613069377E+01  0.47787255844E+02  0.19999930695E+02 0.  0.
         12    1    1    2    0    0  0.29357783504E+02  0.31787525174E+02 -0.33613069377E+01  0.43400744156E+02  0.00000000000E+00 0. -1.
         11    1    3    3    0    0 -0.11520892615E+02 -0.51207388986E+01  0.14188347547E+01  0.12687238700E+02  0.51100000000E-03 0. -1.
        -11    1    3    3    0    0 -0.17828833783E+02 -0.16620606443E+02  0.43740135446E+01  0.24763761171E+02  0.51100000000E-03 0.  1.
         12    1    3    3    0    0 -0.80571062189E-02 -0.10046179832E+02 -0.24315413616E+01  0.10336255972E+02  0.00000000000E+00 0. -1.
</event>
<event>
 7    1  0.2486105E-010  0.4778728E+02  0.7816164E-02  0.1312668E+00
        -11   -1    0    0    0    0  0.00000000000E+00  0.00000000000E+00  0.45593999997E+02  0.45594000000E+02  0.51100000000E-03 0.  1.
         11   -1    0    0    0    0 -0.00000000000E+00 -0.00000000000E+00 -0.45593999997E+02  0.45594000000E+02  0.51100000000E-03 0. -1.
    9900012    2    1    2    0    0  0.27645814252E+01 -0.14058456903E+02  0.40967545458E+02  0.47787275331E+02  0.20000019543E+02 0.  0.
         12    1    1    2    0    0 -0.27645814252E+01  0.14058456903E+02 -0.40967545458E+02  0.43400724669E+02  0.00000000000E+00 0. -1.
         11    1    3    3    0    0  0.98329057677E+01 -0.46408801515E+01  0.10957201306E+02  0.15436452479E+02  0.51100000000E-03 0. -1.
        -11    1    3    3    0    0 -0.33074581836E+00 -0.51257257372E+00  0.39788918227E+01  0.40253824461E+01  0.51100000000E-03 0.  1.
         12    1    3    3    0    0 -0.67375785241E+01 -0.89050041782E+01  0.26031452330E+02  0.28325440406E+02  0.00000000000E+00 0. -1.
</event>
<event>
 7    1  0.3009308E-010  0.4778727E+02  0.7816164E-02  0.1312668E+00
        -11   -1    0    0    0    0  0.00000000000E+00  0.00000000000E+00  0.45593999997E+02  0.45594000000E+02  0.51100000000E-03 0.  1.
         11   -1    0    0    0    0 -0.00000000000E+00 -0.00000000000E+00 -0.45593999997E+02  0.45594000000E+02  0.51100000000E-03 0. -1.
    9900012    2    1    2    0    0 -0.34704302664E+02 -0.15408607734E+02  0.21019261610E+02  0.47787272191E+02  0.20000005230E+02 0.  0.
         12    1    1    2    0    0  0.34704302664E+02  0.15408607734E+02 -0.21019261610E+02  0.43400727809E+02  0.00000000000E+00 0. -1.
         11    1    3    3    0    0 -0.31762209868E+01  0.30735465816E+01  0.58272421578E+00  0.44580978140E+01  0.51100000000E-03 0. -1.
        -11    1    3    3    0    0 -0.15204278237E+02 -0.43015683667E+01  0.13005088687E+02  0.20464747718E+02  0.51100000000E-03 0.  1.
        -12    1    3    3    0    0 -0.16323803440E+02 -0.14180585949E+02  0.74314487069E+01  0.22864426660E+02  0.00000000000E+00 0.  1.
</event>
<event>
 7    1  0.2486105E-010  0.4778728E+02  0.7816164E-02  0.1312668E+00
        -11   -1    0    0    0    0  0.00000000000E+00  0.00000000000E+00  0.45593999997E+02  0.45594000000E+02  0.51100000000E-03 0.  1.
         11   -1    0    0    0    0 -0.00000000000E+00 -0.00000000000E+00 -0.45593999997E+02  0.45594000000E+02  0.51100000000E-03 0. -1.
    9900012    2    1    2    0    0  0.30157772620E+02 -0.30710135775E+02  0.55694913754E+01  0.47787275088E+02  0.20000018435E+02 0.  0.
         12    1    1    2    0    0 -0.30157772620E+02  0.30710135775E+02 -0.55694913754E+01  0.43400724912E+02  0.00000000000E+00 0. -1.
         11    1    3    3    0    0  0.14217129137E+01 -0.99732291825E-01  0.32080860845E+01  0.35104174575E+01  0.51100000000E-03 0. -1.
        -11    1    3    3    0    0  0.40298405975E+01 -0.73761904519E+01  0.57638214201E+01  0.10191635710E+02  0.51100000000E-03 0.  1.
        -12    1    3    3    0    0  0.24706219109E+02 -0.23234213032E+02 -0.34024161292E+01  0.34085221920E+02  0.00000000000E+00 0.  1.
</event>
<event>
 7    1  0.2486105E-010  0.4778727E+02  0.7816164E-02  0.1312668E+00
        -11   -1    0    0    0    0  0.00000000000E+00  0.00000000000E+00  0.45593999997E+02  0.45594000000E+02  0.51100000000E-03 0.  1.
         11   -1    0    0    0    0 -0.00000000000E+00 -0.00000000000E+00 -0.45593999997E+02  0.45594000000E+02  0.51100000000E-03 0. -1.
    9900012    2    1    2    0    0 -0.65327583280E+01 -0.29049207505E+02  0.31576733497E+02  0.47787268597E+02  0.19999988840E+02 0.  0.
         12    1    1    2    0    0  0.65327583280E+01  0.29049207505E+02 -0.31576733497E+02  0.43400731403E+02  0.00000000000E+00 0. -1.
         11    1    3    3    0    0 -0.65593811106E+00 -0.81020822393E+01  0.30029593394E+01  0.86655499810E+01  0.51100000000E-03 0. -1.
        -11    1    3    3    0    0  0.35398768945E+01 -0.46357086790E+01  0.12986347557E+01  0.59755314303E+01  0.51100000000E-03 0.  1.
        -12    1    3    3    0    0 -0.94166971115E+01 -0.16311416586E+02  0.27275139402E+02  0.33146187185E+02  0.00000000000E+00 0.  1.
</event>
<event>
 7    1  0.2486105E-010  0.4778726E+02  0.7816164E-02  0.1312668E+00
        -11   -1    0    0    0    0  0.00000000000E+00  0.00000000000E+00  0.45593999997E+02  0.45594000000E+02  0.51100000000E-03 0.  1.
         11   -1    0    0    0    0 -0.00000000000E+00 -0.00000000000E+00 -0.45593999997E+02  0.45594000000E+02  0.51100000000E-03 0. -1.
    9900012    2    1    2    0    0  0.14643993101E+02 -0.38902803100E+02  0.12479969862E+02  0.47787259560E+02  0.19999947639E+02 0.  0.
         12    1    1    2    0    0 -0.14643993101E+02  0.38902803100E+02 -0.12479969862E+02  0.43400740440E+02  0.00000000000E+00 0. -1.
         11    1    3    3    0    0 -0.19382120256E+01 -0.31231787979E+01 -0.68118149126E+00  0.37383044479E+01  0.51100000000E-03 0. -1.
        -11    1    3    3    0    0  0.47745735551E+01 -0.21342945641E+02  0.12223917667E+01  0.21904614198E+02  0.51100000000E-03 0.  1.
        -12    1    3    3    0    0  0.11807631571E+02 -0.14436678661E+02  0.11938759586E+02  0.22144340914E+02  0.00000000000E+00 0.  1.
</event>
<event>
 7    1  0.2486105E-010  0.4778727E+02  0.7816164E-02  0.1312668E+00
        -11   -1    0    0    0    0  0.00000000000E+00  0.00000000000E+00  0.45593999997E+02  0.45594000000E+02  0.51100000000E-03 0. -1.
         11   -1    0    0    0    0 -0.00000000000E+00 -0.00000000000E+00 -0.45593999997E+02  0.45594000000E+02  0.51100000000E-03 0.  1.
    9900012    2    1    2    0    0  0.58176107032E+01  0.15463552441E+02 -0.40132995450E+02  0.47787269912E+02  0.19999994836E+02 0.  0.
         12    1    1    2    0    0 -0.58176107032E+01 -0.15463552441E+02  0.40132995450E+02  0.43400730088E+02  0.00000000000E+00 0. -1.
         11    1    3    3    0    0 -0.70838160660E+00  0.11191112479E+02 -0.86401148190E+01  0.14156072456E+02  0.51100000000E-03 0. -1.
        -11    1    3    3    0    0 -0.33330725393E+00  0.42580355487E+01 -0.70383123162E+01  0.82328488983E+01  0.51100000000E-03 0.  1.
        -12    1    3    3    0    0  0.68592995637E+01  0.14404412741E-01 -0.24454568315E+02  0.25398348558E+02  0.00000000000E+00 0.  1.
</event>
<event>
 7    1  0.2486105E-010  0.4778727E+02  0.7816164E-02  0.1312668E+00
        -11   -1    0    0    0    0  0.00000000000E+00  0.00000000000E+00  0.45593999997E+02  0.45594000000E+02  0.51100000000E-03 0.  1.
         11   -1    0    0    0    0 -0.00000000000E+00 -0.00000000000E+00 -0.45593999997E+02  0.45594000000E+02  0.51100000000E-03 0. -1.
    9900012    2    1    2    0    0  0.84241331875E+01 -0.28330135664E+02  0.31781456657E+02  0.47787267357E+02  0.19999983185E+02 0.  0.
         12    1    1    2    0    0 -0.84241331875E+01  0.28330135664E+02 -0.31781456657E+02  0.43400732643E+02  0.00000000000E+00 0. -1.
         11    1    3    3    0    0  0.17151992698E+01 -0.39388218265E+00 -0.11135781409E+01  0.20825725067E+01  0.51100000000E-03 0. -1.
        -11    1    3    3    0    0  0.21303680836E+01 -0.32281054379E+01  0.13265373117E+02  0.13817715335E+02  0.51100000000E-03 0.  1.
         12    1    3    3    0    0  0.45785658342E+01 -0.24708148044E+02  0.19629661682E+02  0.31886979515E+02  0.00000000000E+00 0. -1.
</event>
<event>
 7    1  0.2486105E-010  0.4778727E+02  0.7816164E-02  0.1312668E+00
        -11   -1    0    0    0    0  0.00000000000E+00  0.00000000000E+00  0.45593999997E+02  0.45594000000E+02  0.51100000000E-03 0. -1.
         11   -1    0    0    0    0 -0.00000000000E+00 -0.00000000000E+00 -0.45593999997E+02  0.45594000000E+02  0.51100000000E-03 0.  1.
    9900012    2    1    2    0    0  0.31886954267E+02  0.18820037875E+02 -0.22641814955E+02  0.47787268871E+02  0.19999990092E+02 0.  0.
         12    1    1    2    0    0 -0.31886954267E+02 -0.18820037875E+02  0.22641814955E+02  0.43400731129E+02  0.00000000000E+00 0. -1.
         11    1    3    3    0    0  0.83211201320E+01  0.11624209610E+01 -0.15031118635E+01  0.85353153589E+01  0.51100000000E-03 0. -1.
        -11    1    3    3    0    0  0.10568211301E+02  0.99532574950E+01 -0.16776224678E+01  0.14613994741E+02  0.51100000000E-03 0.  1.
         12    1    3    3    0    0  0.12997622833E+02  0.77043594194E+01 -0.19461080624E+02  0.24637958772E+02  0.00000000000E+00 0. -1.
</event>
<event>
 7    1  0.2486105E-010  0.4778727E+02  0.7816164E-02  0.1312668E+00
        -11   -1    0    0    0    0  0.00000000000E+00  0.00000000000E+00  0.45593999997E+02  0.45594000000E+02  0.51100000000E-03 0.  1.
         11   -1    0    0    0    0 -0.00000000000E+00 -0.00000000000E+00 -0.45593999997E+02  0.45594000000E+02  0.51100000000E-03 0. -1.
    9900012    2    1    2    0    0  0.39093049871E+02 -0.39217481594E+01  0.18438447967E+02  0.47787273966E+02  0.20000013321E+02 0.  0.
         12    1    1    2    0    0 -0.39093049871E+02  0.39217481594E+01 -0.18438447967E+02  0.43400726034E+02  0.00000000000E+00 0. -1.
         11    1    3    3    0    0  0.14349161282E+02  0.32333182872E+01  0.24760192534E+01  0.14915879064E+02  0.51100000000E-03 0. -1.
        -11    1    3    3    0    0  0.16902573647E+02  0.83466065746E+00  0.12859309018E+02  0.21254540291E+02  0.51100000000E-03 0.  1.
        -12    1    3    3    0    0  0.78413149425E+01 -0.79897271040E+01  0.31031196963E+01  0.11616854612E+02  0.00000000000E+00 0.  1.
</event>
<event>
 7    1  0.2486105E-010  0.4778727E+02  0.7816164E-02  0.1312668E+00
        -11   -1    0    0    0    0  0.00000000000E+00  0.00000000000E+00  0.45593999997E+02  0.45594000000E+02  0.51100000000E-03 0. -1.
         11   -1    0    0    0    0 -0.00000000000E+00 -0.00000000000E+00 -0.45593999997E+02  0.45594000000E+02  0.51100000000E-03 0.  1.
    9900012    2    1    2    0    0  0.25671801626E+01 -0.12217064903E+02 -0.41566527886E+02  0.47787270405E+02  0.19999997087E+02 0.  0.
         12    1    1    2    0    0 -0.25671801626E+01  0.12217064903E+02  0.41566527886E+02  0.43400729595E+02  0.00000000000E+00 0. -1.
         11    1    3    3    0    0 -0.57804917758E+01 -0.29691121606E+01 -0.12345989477E+02  0.13951815961E+02  0.51100000000E-03 0. -1.
        -11    1    3    3    0    0  0.40497007301E+00 -0.64037608733E+01 -0.21365426471E+02  0.22308151036E+02  0.51100000000E-03 0.  1.
         12    1    3    3    0    0  0.79427018654E+01 -0.28441918694E+01 -0.78551119383E+01  0.11527303409E+02  0.00000000000E+00 0. -1.
</event>
<event>
 7    1  0.2486105E-010  0.4778727E+02  0.7816164E-02  0.1312668E+00
        -11   -1    0    0    0    0  0.00000000000E+00  0.00000000000E+00  0.45593999997E+02  0.45594000000E+02  0.51100000000E-03 0.  1.
         11   -1    0    0    0    0 -0.00000000000E+00 -0.00000000000E+00 -0.45593999997E+02  0.45594000000E+02  0.51100000000E-03 0. -1.
    9900012    2    1    2    0    0  0.36279743014E+02  0.18835505859E+02  0.14581732032E+02  0.47787274854E+02  0.20000017370E+02 0.  0.
         12    1    1    2    0    0 -0.36279743014E+02 -0.18835505859E+02 -0.14581732032E+02  0.43400725146E+02  0.00000000000E+00 0. -1.
         11    1    3    3    0    0  0.78013748038E+01  0.10384512652E+02  0.18391245855E+00  0.12989741179E+02  0.51100000000E-03 0. -1.
        -11    1    3    3    0    0  0.89035249080E+01  0.36883626773E+01 -0.63935636700E+00  0.96584445876E+01  0.51100000000E-03 0.  1.
        -12    1    3    3    0    0  0.19574843302E+02  0.47626305297E+01  0.15037175941E+02  0.25139089087E+02  0.00000000000E+00 0.  1.
</event>
<event>
 7    1  0.2486105E-010  0.4778728E+02  0.7816164E-02  0.1312668E+00
        -11   -1    0    0    0    0  0.00000000000E+00  0.00000000000E+00  0.45593999997E+02  0.45594000000E+02  0.51100000000E-03 0.  1.
         11   -1    0    0    0    0 -0.00000000000E+00 -0.00000000000E+00 -0.45593999997E+02  0.45594000000E+02  0.51100000000E-03 0. -1.
    9900012    2    1    2    0    0  0.12808425658E+02  0.21460487718E+02  0.35482595555E+02  0.47787275487E+02  0.20000020255E+02 0.  0.
         12    1    1    2    0    0 -0.12808425658E+02 -0.21460487718E+02 -0.35482595555E+02  0.43400724513E+02  0.00000000000E+00 0. -1.
         11    1    3    3    0    0  0.61436546472E+01  0.70478303539E+01  0.21281789095E+02  0.23245019950E+02  0.51100000000E-03 0.  1.
        -11    1    3    3    0    0 -0.28139261918E+01  0.61973764391E+01  0.81422206215E+01  0.10612323603E+02  0.51100000000E-03 0. -1.
         12    1    3    3    0    0  0.94786972024E+01  0.82152809249E+01  0.60585858390E+01  0.13929931934E+02  0.00000000000E+00 0. -1.
</event>
<event>
 7    1  0.2486105E-010  0.4778727E+02  0.7816164E-02  0.1312668E+00
        -11   -1    0    0    0    0  0.00000000000E+00  0.00000000000E+00  0.45593999997E+02  0.45594000000E+02  0.51100000000E-03 0. -1.
         11   -1    0    0    0    0 -0.00000000000E+00 -0.00000000000E+00 -0.45593999997E+02  0.45594000000E+02  0.51100000000E-03 0.  1.
    9900012    2    1    2    0    0  0.39909315756E+02  0.15502437481E+02 -0.71094628786E+01  0.47787268273E+02  0.19999987364E+02 0.  0.
         12    1    1    2    0    0 -0.39909315756E+02 -0.15502437481E+02  0.71094628786E+01  0.43400731727E+02  0.00000000000E+00 0. -1.
         11    1    3    3    0    0  0.46159181529E+01  0.37533634214E+01 -0.60237920486E+01  0.84664342124E+01  0.51100000000E-03 0. -1.
        -11    1    3    3    0    0  0.20434897153E+02  0.18605980873E+01  0.36813182912E+01  0.20847036996E+02  0.51100000000E-03 0.  1.
         12    1    3    3    0    0  0.14858500450E+02  0.98884759727E+01 -0.47669891212E+01  0.18473797064E+02  0.00000000000E+00 0. -1.
</event>
<event>
 7    1  0.2486105E-010  0.4778727E+02  0.7816164E-02  0.1312668E+00
        -11   -1    0    0    0    0  0.00000000000E+00  0.00000000000E+00  0.45593999997E+02  0.45594000000E+02  0.51100000000E-03 0.  1.
         11   -1    0    0    0    0 -0.00000000000E+00 -0.00000000000E+00 -0.45593999997E+02  0.45594000000E+02  0.51100000000E-03 0. -1.
    9900012    2    1    2    0    0 -0.17419871741E+02 -0.21560543661E+02  0.33396321267E+02  0.47787271336E+02  0.20000001327E+02 0.  0.
         12    1    1    2    0    0  0.17419871741E+02  0.21560543661E+02 -0.33396321267E+02  0.43400728664E+02  0.00000000000E+00 0. -1.
         11    1    3    3    0    0 -0.13487731231E+02 -0.88845675682E+01  0.11239964875E+02  0.19677175745E+02  0.51100000000E-03 0. -1.
        -11    1    3    3    0    0 -0.69874153865E+01 -0.40847580600E+01  0.11834146076E+02  0.14337232501E+02  0.51100000000E-03 0.  1.
        -12    1    3    3    0    0  0.30552748771E+01 -0.85912180330E+01  0.10322210316E+02  0.13772863089E+02  0.00000000000E+00 0.  1.
</event>
<event>
 7    1  0.2486105E-010  0.4778727E+02  0.7816164E-02  0.1312668E+00
        -11   -1    0    0    0    0  0.00000000000E+00  0.00000000000E+00  0.45593999997E+02  0.45594000000E+02  0.51100000000E-03 0.  1.
         11   -1    0    0    0    0 -0.00000000000E+00 -0.00000000000E+00 -0.45593999997E+02  0.45594000000E+02  0.51100000000E-03 0. -1.
    9900012    2    1    2    0    0  0.10637204647E+02  0.13357996368E+02  0.39900342788E+02  0.47787267929E+02  0.19999985798E+02 0.  0.
         12    1    1    2    0    0 -0.10637204647E+02 -0.13357996368E+02 -0.39900342788E+02  0.43400732071E+02  0.00000000000E+00 0. -1.
         11    1    3    3    0    0 -0.69040514014E+00  0.64616677297E+01  0.37548589853E+01  0.75052498538E+01  0.51100000000E-03 0. -1.
        -11    1    3    3    0    0  0.21555019073E+01  0.75234040677E+01  0.22553837892E+02  0.23873068533E+02  0.51100000000E-03 0.  1.
         12    1    3    3    0    0  0.91721078799E+01 -0.62707542939E+00  0.13591645910E+02  0.16408949543E+02  0.00000000000E+00 0. -1.
</event>
<event>
 7    1  0.2486105E-010  0.4778727E+02  0.7816164E-02  0.1312668E+00
        -11   -1    0    0    0    0  0.00000000000E+00  0.00000000000E+00  0.45593999997E+02  0.45594000000E+02  0.51100000000E-03 0.  1.
         11   -1    0    0    0    0 -0.00000000000E+00 -0.00000000000E+00 -0.45593999997E+02  0.45594000000E+02  0.51100000000E-03 0. -1.
    9900012    2    1    2    0    0 -0.15397801892E+02 -0.31608216839E+02  0.25445071871E+02  0.47787270082E+02  0.19999995614E+02 0.  0.
         12    1    1    2    0    0  0.15397801892E+02  0.31608216839E+02 -0.25445071871E+02  0.43400729918E+02  0.00000000000E+00 0. -1.
         11    1    3    3    0    0  0.66525355324E+00  0.87295378287E+00  0.11183512737E+01  0.15669462115E+01  0.51100000000E-03 0. -1.
        -11    1    3    3    0    0 -0.53751408214E+01 -0.10965478267E+02  0.25974810005E+00  0.12214799294E+02  0.51100000000E-03 0.  1.
        -12    1    3    3    0    0 -0.10687914624E+02 -0.21515692355E+02  0.24066972497E+02  0.34005524577E+02  0.00000000000E+00 0.  1.
</event>
<event>
 7    1  0.2486105E-010  0.4778727E+02  0.7816164E-02  0.1312668E+00
        -11   -1    0    0    0    0  0.00000000000E+00  0.00000000000E+00  0.45593999997E+02  0.45594000000E+02  0.51100000000E-03 0.  1.
         11   -1    0    0    0    0 -0.00000000000E+00 -0.00000000000E+00 -0.45593999997E+02  0.45594000000E+02  0.51100000000E-03 0. -1.
    9900012    2    1    2    0    0  0.31650572020E+02 -0.15497795039E+02  0.25331460354E+02  0.47787271390E+02  0.20000001574E+02 0.  0.
         12    1    1    2    0    0 -0.31650572020E+02  0.15497795039E+02 -0.25331460354E+02  0.43400728610E+02  0.00000000000E+00 0. -1.
         11    1    3    3    0    0  0.46149118394E+01  0.74631803575E+00  0.24379685277E+01  0.52723896574E+01  0.51100000000E-03 0.  1.
        -11    1    3    3    0    0  0.21911040980E+02 -0.90612370993E+01  0.23860936709E+02  0.33638430931E+02  0.51100000000E-03 0. -1.
         12    1    3    3    0    0  0.51246192007E+01 -0.71828759755E+01 -0.96744488325E+00  0.88764508016E+01  0.00000000000E+00 0. -1.
</event>
<event>
 7    1  0.2486105E-010  0.4778727E+02  0.7816164E-02  0.1312668E+00
        -11   -1    0    0    0    0  0.00000000000E+00  0.00000000000E+00  0.45593999997E+02  0.45594000000E+02  0.51100000000E-03 0.  1.
         11   -1    0    0    0    0 -0.00000000000E+00 -0.00000000000E+00 -0.45593999997E+02  0.45594000000E+02  0.51100000000E-03 0. -1.
    9900012    2    1    2    0    0  0.96180643322E+01 -0.38316865078E+02  0.17970364358E+02  0.47787270673E+02  0.19999998308E+02 0.  0.
         12    1    1    2    0    0 -0.96180643322E+01  0.38316865078E+02 -0.17970364358E+02  0.43400729327E+02  0.00000000000E+00 0. -1.
         11    1    3    3    0    0  0.13766434292E+01 -0.79829650473E+00  0.19049703914E+01  0.24822040395E+01  0.51100000000E-03 0. -1.
        -11    1    3    3    0    0 -0.56102028932E+01 -0.96747961820E+01  0.54783731446E+01  0.12453458565E+02  0.51100000000E-03 0.  1.
        -12    1    3    3    0    0  0.13851623796E+02 -0.27843772392E+02  0.10587020822E+02  0.32851608068E+02  0.00000000000E+00 0.  1.
</event>
<event>
 7    1  0.2486105E-010  0.4778726E+02  0.7816164E-02  0.1312668E+00
        -11   -1    0    0    0    0  0.00000000000E+00  0.00000000000E+00  0.45593999997E+02  0.45594000000E+02  0.51100000000E-03 0.  1.
         11   -1    0    0    0    0 -0.00000000000E+00 -0.00000000000E+00 -0.45593999997E+02  0.45594000000E+02  0.51100000000E-03 0. -1.
    9900012    2    1    2    0    0 -0.12595663544E+02 -0.33117944049E+02  0.25063419006E+02  0.47787263481E+02  0.19999965514E+02 0.  0.
         12    1    1    2    0    0  0.12595663544E+02  0.33117944049E+02 -0.25063419006E+02  0.43400736519E+02  0.00000000000E+00 0. -1.
         11    1    3    3    0    0 -0.96390328707E+01 -0.85587171265E+01  0.50004659137E+01  0.13826324644E+02  0.51100000000E-03 0. -1.
        -11    1    3    3    0    0 -0.46207524592E+01 -0.49072249920E+01  0.93216852661E+01  0.11503305041E+02  0.51100000000E-03 0.  1.
        -12    1    3    3    0    0  0.16641217861E+01 -0.19652001930E+02  0.10741267827E+02  0.22457633796E+02  0.00000000000E+00 0.  1.
</event>
<event>
 7    1  0.2486105E-010  0.4778726E+02  0.7816164E-02  0.1312668E+00
        -11   -1    0    0    0    0  0.00000000000E+00  0.00000000000E+00  0.45593999997E+02  0.45594000000E+02  0.51100000000E-03 0.  1.
         11   -1    0    0    0    0 -0.00000000000E+00 -0.00000000000E+00 -0.45593999997E+02  0.45594000000E+02  0.51100000000E-03 0. -1.
    9900012    2    1    2    0    0 -0.13022425399E+02  0.34042762252E+02  0.23561209494E+02  0.47787264778E+02  0.19999971427E+02 0.  0.
         12    1    1    2    0    0  0.13022425399E+02 -0.34042762252E+02 -0.23561209494E+02  0.43400735222E+02  0.00000000000E+00 0. -1.
         11    1    3    3    0    0  0.95614841049E+00  0.71466285155E+01  0.11751778525E+01  0.73054474310E+01  0.51100000000E-03 0. -1.
        -11    1    3    3    0    0  0.80358397733E-01  0.15073996913E+02  0.74918845382E+01  0.16833305516E+02  0.51100000000E-03 0.  1.
         12    1    3    3    0    0 -0.14058932207E+02  0.11822136824E+02  0.14894147103E+02  0.23648511831E+02  0.00000000000E+00 0. -1.
</event>
<event>
 7    1  0.2486105E-010  0.4778727E+02  0.7816164E-02  0.1312668E+00
        -11   -1    0    0    0    0  0.00000000000E+00  0.00000000000E+00  0.45593999997E+02  0.45594000000E+02  0.51100000000E-03 0. -1.
         11   -1    0    0    0    0 -0.00000000000E+00 -0.00000000000E+00 -0.45593999997E+02  0.45594000000E+02  0.51100000000E-03 0.  1.
    9900012    2    1    2    0    0  0.26712308817E+01 -0.28945866401E+02 -0.32227698679E+02  0.47787271684E+02  0.20000002918E+02 0.  0.
         12    1    1    2    0    0 -0.26712308817E+01  0.28945866401E+02  0.32227698679E+02  0.43400728316E+02  0.00000000000E+00 0. -1.
         11    1    3    3    0    0  0.37735682324E+01 -0.81399946903E+00 -0.21968501202E+01  0.44416847087E+01  0.51100000000E-03 0. -1.
        -11    1    3    3    0    0  0.33427777651E+01 -0.16397963329E+01 -0.71413359610E+01  0.80536808212E+01  0.51100000000E-03 0.  1.
         12    1    3    3    0    0 -0.44451151158E+01 -0.26492070600E+02 -0.22889512598E+02  0.35291906155E+02  0.00000000000E+00 0. -1.
</event>
<event>
 7    1  0.2486105E-010  0.4778728E+02  0.7816164E-02  0.1312668E+00
        -11   -1    0    0    0    0  0.00000000000E+00  0.00000000000E+00  0.45593999997E+02  0.45594000000E+02  0.51100000000E-03 0.  1.
         11   -1    0    0    0    0 -0.00000000000E+00 -0.00000000000E+00 -0.45593999997E+02  0.45594000000E+02  0.51100000000E-03 0. -1.
    9900012    2    1    2    0    0  0.10546607708E+02  0.25116414976E+02  0.33786945629E+02  0.47787275003E+02  0.20000018048E+02 0.  0.
         12    1    1    2    0    0 -0.10546607708E+02 -0.25116414976E+02 -0.33786945629E+02  0.43400724997E+02  0.00000000000E+00 0. -1.
         11    1    3    3    0    0  0.48540070360E+01  0.28267258706E+01  0.69167464805E+01  0.89102831375E+01  0.51100000000E-03 0. -1.
        -11    1    3    3    0    0  0.78660578960E+01  0.18875829567E+02  0.12543852521E+02  0.23989998854E+02  0.51100000000E-03 0.  1.
        -12    1    3    3    0    0 -0.21734572241E+01  0.34138595377E+01  0.14326346627E+02  0.14886993012E+02  0.00000000000E+00 0.  1.
</event>
<event>
 7    1  0.2486105E-010  0.4778727E+02  0.7816164E-02  0.1312668E+00
        -11   -1    0    0    0    0  0.00000000000E+00  0.00000000000E+00  0.45593999997E+02  0.45594000000E+02  0.51100000000E-03 0.  1.
         11   -1    0    0    0    0 -0.00000000000E+00 -0.00000000000E+00 -0.45593999997E+02  0.45594000000E+02  0.51100000000E-03 0. -1.
    9900012    2    1    2    0    0  0.24151610917E+02  0.36016575119E+02  0.17690842408E+01  0.47787266685E+02  0.19999980125E+02 0.  0.
         12    1    1    2    0    0 -0.24151610917E+02 -0.36016575119E+02 -0.17690842408E+01  0.43400733315E+02  0.00000000000E+00 0. -1.
         11    1    3    3    0    0  0.15558304656E+01  0.60023352560E+01  0.56965505837E+01  0.84201737379E+01  0.51100000000E-03 0. -1.
        -11    1    3    3    0    0  0.44402024502E+01  0.14715283189E+02 -0.25915228256E+01  0.15587525395E+02  0.51100000000E-03 0.  1.
         12    1    3    3    0    0  0.18155578001E+02  0.15298956674E+02 -0.13359435173E+01  0.23779567552E+02  0.00000000000E+00 0. -1.
</event>
<event>
 7    1  0.2486105E-010  0.4778728E+02  0.7816164E-02  0.1312668E+00
        -11   -1    0    0    0    0  0.00000000000E+00  0.00000000000E+00  0.45593999997E+02  0.45594000000E+02  0.51100000000E-03 0.  1.
         11   -1    0    0    0    0 -0.00000000000E+00 -0.00000000000E+00 -0.45593999997E+02  0.45594000000E+02  0.51100000000E-03 0. -1.
    9900012    2    1    2    0    0 -0.13273245426E+02 -0.78083083557E+01  0.40576766751E+02  0.47787277385E+02  0.20000028911E+02 0.  0.
         12    1    1    2    0    0  0.13273245426E+02  0.78083083557E+01 -0.40576766751E+02  0.43400722615E+02  0.00000000000E+00 0. -1.
         11    1    3    3    0    0 -0.89029300245E+01  0.37504813205E+00  0.22625225476E+02  0.24316736052E+02  0.51100000000E-03 0.  1.
        -11    1    3    3    0    0 -0.67693067332E+00  0.23927662120E+01  0.21962275605E+00  0.24963572857E+01  0.51100000000E-03 0. -1.
         12    1    3    3    0    0 -0.36933847280E+01 -0.10576122700E+02  0.17731918519E+02  0.20974184048E+02  0.00000000000E+00 0. -1.
</event>
<event>
 7    1  0.2486105E-010  0.4778727E+02  0.7816164E-02  0.1312668E+00
        -11   -1    0    0    0    0  0.00000000000E+00  0.00000000000E+00  0.45593999997E+02  0.45594000000E+02  0.51100000000E-03 0.  1.
         11   -1    0    0    0    0 -0.00000000000E+00 -0.00000000000E+00 -0.45593999997E+02  0.45594000000E+02  0.51100000000E-03 0. -1.
    9900012    2    1    2    0    0 -0.33949284067E+02 -0.12917388212E+02  0.23753115511E+02  0.47787270705E+02  0.19999998451E+02 0.  0.
         12    1    1    2    0    0  0.33949284067E+02  0.12917388212E+02 -0.23753115511E+02  0.43400729295E+02  0.00000000000E+00 0. -1.
         11    1    3    3    0    0 -0.20225841461E+02 -0.58519539805E+01  0.47269169036E+01  0.21579475709E+02  0.51100000000E-03 0. -1.
        -11    1    3    3    0    0  0.35795903353E+00  0.13256637993E+01  0.47702989281E+00  0.14536426515E+01  0.51100000000E-03 0.  1.
        -12    1    3    3    0    0 -0.14081401640E+02 -0.83910980306E+01  0.18549168714E+02  0.24754152344E+02  0.00000000000E+00 0.  1.
</event>
<event>
 7    1  0.2486105E-010  0.4778727E+02  0.7816164E-02  0.1312668E+00
        -11   -1    0    0    0    0  0.00000000000E+00  0.00000000000E+00  0.45593999997E+02  0.45594000000E+02  0.51100000000E-03 0. -1.
         11   -1    0    0    0    0 -0.00000000000E+00 -0.00000000000E+00 -0.45593999997E+02  0.45594000000E+02  0.51100000000E-03 0.  1.
    9900012    2    1    2    0    0 -0.35698550352E+02  0.23385001264E+02 -0.78980027077E+01  0.47787271571E+02  0.20000002401E+02 0.  0.
         12    1    1    2    0    0  0.35698550352E+02 -0.23385001264E+02  0.78980027077E+01  0.43400728429E+02  0.00000000000E+00 0. -1.
         11    1    3    3    0    0 -0.29179932043E+01 -0.17031964137E+01 -0.49656803869E+01  0.60061255673E+01  0.51100000000E-03 0. -1.
        -11    1    3    3    0    0 -0.89472690494E+00  0.30933268232E-01 -0.75209960091E+00  0.11692506884E+01  0.51100000000E-03 0.  1.
         12    1    3    3    0    0 -0.31885830243E+02  0.25057264410E+02 -0.21802227199E+01  0.40611895315E+02  0.00000000000E+00 0. -1.
</event>
<event>
 7    1  0.2486105E-010  0.4778727E+02  0.7816164E-02  0.1312668E+00
        -11   -1    0    0    0    0  0.00000000000E+00  0.00000000000E+00  0.45593999997E+02  0.45594000000E+02  0.51100000000E-03 0. -1.
         11   -1    0    0    0    0 -0.00000000000E+00 -0.00000000000E+00 -0.45593999997E+02  0.45594000000E+02  0.51100000000E-03 0.  1.
    9900012    2    1    2    0    0  0.72676250420E+01 -0.31860800687E+02 -0.28560367667E+02  0.47787267340E+02  0.19999983110E+02 0.  0.
         12    1    1    2    0    0 -0.72676250420E+01  0.31860800687E+02  0.28560367667E+02  0.43400732660E+02  0.00000000000E+00 0. -1.
         11    1    3    3    0    0 -0.98517302240E+00 -0.94281634526E+01  0.65512673447E-01  0.94797217335E+01  0.51100000000E-03 0. -1.
        -11    1    3    3    0    0  0.65523929684E+00  0.78747370477E+00 -0.11988373052E+01  0.15769161415E+01  0.51100000000E-03 0.  1.
        -12    1    3    3    0    0  0.75975587676E+01 -0.23220110939E+02 -0.27427043035E+02  0.36730629465E+02  0.00000000000E+00 0.  1.
</event>
<event>
 7    1  0.2486105E-010  0.4778728E+02  0.7816164E-02  0.1312668E+00
        -11   -1    0    0    0    0  0.00000000000E+00  0.00000000000E+00  0.45593999997E+02  0.45594000000E+02  0.51100000000E-03 0.  1.
         11   -1    0    0    0    0 -0.00000000000E+00 -0.00000000000E+00 -0.45593999997E+02  0.45594000000E+02  0.51100000000E-03 0. -1.
    9900012    2    1    2    0    0 -0.40492326493E+02 -0.10279698927E+02 -0.11761010733E+02  0.47787284703E+02  0.20000062276E+02 0.  0.
         12    1    1    2    0    0  0.40492326493E+02  0.10279698927E+02  0.11761010733E+02  0.43400715297E+02  0.00000000000E+00 0. -1.
         11    1    3    3    0    0 -0.16652689284E+02 -0.24081854003E+01 -0.11777749856E+02  0.20538422754E+02  0.51100000000E-03 0.  1.
        -11    1    3    3    0    0 -0.11238183019E+00  0.15685290957E+01  0.65789568145E+00  0.17046231809E+01  0.51100000000E-03 0. -1.
        -12    1    3    3    0    0 -0.23727255379E+02 -0.94400426223E+01 -0.64115655811E+00  0.25544238768E+02  0.00000000000E+00 0.  1.
</event>
<event>
 7    1  0.2486105E-010  0.4778728E+02  0.7816164E-02  0.1312668E+00
        -11   -1    0    0    0    0  0.00000000000E+00  0.00000000000E+00  0.45593999997E+02  0.45594000000E+02  0.51100000000E-03 0. -1.
         11   -1    0    0    0    0 -0.00000000000E+00 -0.00000000000E+00 -0.45593999997E+02  0.45594000000E+02  0.51100000000E-03 0.  1.
    9900012    2    1    2    0    0 -0.39918022708E+02  0.59743615881E+01 -0.15952453937E+02  0.47787282035E+02  0.20000050109E+02 0.  0.
         12    1    1    2    0    0  0.39918022708E+02 -0.59743615881E+01  0.15952453937E+02  0.43400717965E+02  0.00000000000E+00 0. -1.
         11    1    3    3    0    0 -0.76386350445E+01  0.39571582613E+01 -0.56262983493E+01  0.10279254848E+02  0.51100000000E-03 0. -1.
        -11    1    3    3    0    0 -0.13090983065E+02 -0.66198461279E+00 -0.12373748468E+02  0.18025584946E+02  0.51100000000E-03 0.  1.
         12    1    3    3    0    0 -0.19188404599E+02  0.26791879396E+01  0.20475928809E+01  0.19482442241E+02  0.00000000000E+00 0. -1.
</event>
<event>
 7    1  0.2486105E-010  0.4778727E+02  0.7816164E-02  0.1312668E+00
        -11   -1    0    0    0    0  0.00000000000E+00  0.00000000000E+00  0.45593999997E+02  0.45594000000E+02  0.51100000000E-03 0.  1.
         11   -1    0    0    0    0 -0.00000000000E+00 -0.00000000000E+00 -0.45593999997E+02  0.45594000000E+02  0.51100000000E-03 0. -1.
    9900012    2    1    2    0    0 -0.24456071034E+02  0.23974388736E+02  0.26659947702E+02  0.47787268011E+02  0.19999986169E+02 0.  0.
         12    1    1    2    0    0  0.24456071034E+02 -0.23974388736E+02 -0.26659947702E+02  0.43400731989E+02  0.00000000000E+00 0. -1.
         11    1    3    3    0    0 -0.58775624135E+01  0.79980640994E+01  0.12901776568E+02  0.16277917807E+02  0.51100000000E-03 0. -1.
        -11    1    3    3    0    0 -0.14910174027E+02  0.81531806388E+01  0.22853042941E+01  0.17146727385E+02  0.51100000000E-03 0.  1.
        -12    1    3    3    0    0 -0.36683345937E+01  0.78231439979E+01  0.11472866840E+02  0.14362622819E+02  0.00000000000E+00 0.  1.
</event>
<event>
 7    1  0.2486105E-010  0.4778727E+02  0.7816164E-02  0.1312668E+00
        -11   -1    0    0    0    0  0.00000000000E+00  0.00000000000E+00  0.45593999997E+02  0.45594000000E+02  0.51100000000E-03 0. -1.
         11   -1    0    0    0    0 -0.00000000000E+00 -0.00000000000E+00 -0.45593999997E+02  0.45594000000E+02  0.51100000000E-03 0.  1.
    9900012    2    1    2    0    0 -0.33563628847E+02  0.27386183343E+02 -0.26651711967E+01  0.47787270087E+02  0.19999995633E+02 0.  0.
         12    1    1    2    0    0  0.33563628847E+02 -0.27386183343E+02  0.26651711967E+01  0.43400729913E+02  0.00000000000E+00 0. -1.
         11    1    3    3    0    0 -0.27112720185E+02  0.16103449336E+02 -0.62143162346E+01  0.32140914780E+02  0.51100000000E-03 0. -1.
        -11    1    3    3    0    0 -0.79123736013E+01  0.66470685582E+01  0.18554610869E+01  0.10499138657E+02  0.51100000000E-03 0.  1.
        -12    1    3    3    0    0  0.14614649390E+01  0.46356654488E+01  0.16936839511E+01  0.51472166505E+01  0.00000000000E+00 0.  1.
</event>
<event>
 7    1  0.2486105E-010  0.4778727E+02  0.7816164E-02  0.1312668E+00
        -11   -1    0    0    0    0  0.00000000000E+00  0.00000000000E+00  0.45593999997E+02  0.45594000000E+02  0.51100000000E-03 0.  1.
         11   -1    0    0    0    0 -0.00000000000E+00 -0.00000000000E+00 -0.45593999997E+02  0.45594000000E+02  0.51100000000E-03 0. -1.
    9900012    2    1    2    0    0  0.36659826321E+02  0.10810207247E+02  0.20562577233E+02  0.47787273864E+02  0.20000012858E+02 0.  0.
         12    1    1    2    0    0 -0.36659826321E+02 -0.10810207247E+02 -0.20562577233E+02  0.43400726136E+02  0.00000000000E+00 0. -1.
         11    1    3    3    0    0  0.10587216615E+02  0.54298150576E+01  0.10010035161E+01  0.11940437827E+02  0.51100000000E-03 0. -1.
        -11    1    3    3    0    0  0.34543034675E+01  0.42902475207E+01 -0.58293348773E+00  0.55387948099E+01  0.51100000000E-03 0.  1.
        -12    1    3    3    0    0  0.22618306239E+02  0.10901446690E+01  0.20144507204E+02  0.30308041227E+02  0.00000000000E+00 0.  1.
</event>
<event>
 7    1  0.2486105E-010  0.4778726E+02  0.7816164E-02  0.1312668E+00
        -11   -1    0    0    0    0  0.00000000000E+00  0.00000000000E+00  0.45593999997E+02  0.45594000000E+02  0.51100000000E-03 0. -1.
         11   -1    0    0    0    0 -0.00000000000E+00 -0.00000000000E+00 -0.45593999997E+02  0.45594000000E+02  0.51100000000E-03 0.  1.
    9900012    2    1    2    0    0  0.26021833953E+02 -0.29925850454E+02 -0.17633270174E+02  0.47787255943E+02  0.19999931145E+02 0.  0.
         12    1    1    2    0    0 -0.26021833953E+02  0.29925850454E+02  0.17633270174E+02  0.43400744057E+02  0.00000000000E+00 0. -1.
         11    1    3    3    0    0  0.13171583971E+01 -0.25041339946E+01  0.36121262314E+01  0.45883602167E+01  0.51100000000E-03 0. -1.
        -11    1    3    3    0    0  0.13373465595E+02 -0.16564322266E+02 -0.82802143096E+01  0.22842685994E+02  0.51100000000E-03 0.  1.
        -12    1    3    3    0    0  0.11331209961E+02 -0.10857394193E+02 -0.12965182096E+02  0.20356209731E+02  0.00000000000E+00 0.  1.
</event>
<event>
 7    1  0.2486105E-010  0.4778725E+02  0.7816164E-02  0.1312668E+00
        -11   -1    0    0    0    0  0.00000000000E+00  0.00000000000E+00  0.45593999997E+02  0.45594000000E+02  0.51100000000E-03 0.  1.
         11   -1    0    0    0    0 -0.00000000000E+00 -0.00000000000E+00 -0.45593999997E+02  0.45594000000E+02  0.51100000000E-03 0. -1.
    9900012    2    1    2    0    0  0.17036122452E+02  0.35953247714E+02  0.17342419853E+02  0.47787250977E+02  0.19999908507E+02 0.  0.
         12    1    1    2    0    0 -0.17036122452E+02 -0.35953247714E+02 -0.17342419853E+02  0.43400749023E+02  0.00000000000E+00 0. -1.
         11    1    3    3    0    0  0.95416771871E+01  0.25467145529E+02  0.14271824519E+02  0.30713255775E+02  0.51100000000E-03 0. -1.
        -11    1    3    3    0    0  0.12037975577E+01  0.24383400653E+01  0.58814564840E+01  0.64796729445E+01  0.51100000000E-03 0.  1.
         12    1    3    3    0    0  0.62906477069E+01  0.80477621193E+01 -0.28108611497E+01  0.10594322258E+02  0.00000000000E+00 0. -1.
</event>
<event>
 7    1  0.2486105E-010  0.4778728E+02  0.7816164E-02  0.1312668E+00
        -11   -1    0    0    0    0  0.00000000000E+00  0.00000000000E+00  0.45593999997E+02  0.45594000000E+02  0.51100000000E-03 0.  1.
         11   -1    0    0    0    0 -0.00000000000E+00 -0.00000000000E+00 -0.45593999997E+02  0.45594000000E+02  0.51100000000E-03 0. -1.
    9900012    2    1    2    0    0 -0.17214307129E+02 -0.25080473296E+02  0.30955778699E+02  0.47787277132E+02  0.20000027753E+02 0.  0.
         12    1    1    2    0    0  0.17214307129E+02  0.25080473296E+02 -0.30955778699E+02  0.43400722868E+02  0.00000000000E+00 0. -1.
         11    1    3    3    0    0 -0.14742136858E+02 -0.10675785996E+02  0.17565167352E+02  0.25295021450E+02  0.51100000000E-03 0. -1.
        -11    1    3    3    0    0 -0.28676393493E+01 -0.27837699915E+01 -0.87189701752E+00  0.40905910910E+01  0.51100000000E-03 0.  1.
        -12    1    3    3    0    0  0.39546907871E+00 -0.11620917308E+02  0.14262508364E+02  0.18401664591E+02  0.00000000000E+00 0.  1.
</event>
<event>
 7    1  0.2486105E-010  0.4778727E+02  0.7816164E-02  0.1312668E+00
        -11   -1    0    0    0    0  0.00000000000E+00  0.00000000000E+00  0.45593999997E+02  0.45594000000E+02  0.51100000000E-03 0.  1.
         11   -1    0    0    0    0 -0.00000000000E+00 -0.00000000000E+00 -0.45593999997E+02  0.45594000000E+02  0.51100000000E-03 0. -1.
    9900012    2    1    2    0    0 -0.21712313370E+02  0.35664787600E+01  0.37409609755E+02  0.47787271611E+02  0.20000002585E+02 0.  0.
         12    1    1    2    0    0  0.21712313370E+02 -0.35664787600E+01 -0.37409609755E+02  0.43400728389E+02  0.00000000000E+00 0. -1.
         11    1    3    3    0    0 -0.29543262220E+00  0.29413291780E+01  0.22351757156E+01  0.37060367657E+01  0.51100000000E-03 0. -1.
        -11    1    3    3    0    0 -0.19374719002E+02  0.49125061908E+01  0.20390031163E+02  0.28552860182E+02  0.51100000000E-03 0.  1.
         12    1    3    3    0    0 -0.20421617463E+01 -0.42873566088E+01  0.14784402877E+02  0.15528374664E+02  0.00000000000E+00 0. -1.
</event>
<event>
 7    1  0.2486105E-010  0.4778727E+02  0.7816164E-02  0.1312668E+00
        -11   -1    0    0    0    0  0.00000000000E+00  0.00000000000E+00  0.45593999997E+02  0.45594000000E+02  0.51100000000E-03 0.  1.
         11   -1    0    0    0    0 -0.00000000000E+00 -0.00000000000E+00 -0.45593999997E+02  0.45594000000E+02  0.51100000000E-03 0. -1.
    9900012    2    1    2    0    0 -0.18772804508E+02  0.11187320761E+02  0.37497322400E+02  0.47787268185E+02  0.19999986963E+02 0.  0.
         12    1    1    2    0    0  0.18772804508E+02 -0.11187320761E+02 -0.37497322400E+02  0.43400731815E+02  0.00000000000E+00 0. -1.
         11    1    3    3    0    0 -0.49072847373E+01  0.85318100071E+01  0.21943724529E+02  0.24049953679E+02  0.51100000000E-03 0. -1.
        -11    1    3    3    0    0 -0.45595685440E+01  0.23926513726E+01  0.13150232041E+02  0.14122430701E+02  0.51100000000E-03 0.  1.
        -12    1    3    3    0    0 -0.93059512264E+01  0.26285938102E+00  0.24033658299E+01  0.96148838056E+01  0.00000000000E+00 0.  1.
</event>
<event>
 7    1  0.2486105E-010  0.4778727E+02  0.7816164E-02  0.1312668E+00
        -11   -1    0    0    0    0  0.00000000000E+00  0.00000000000E+00  0.45593999997E+02  0.45594000000E+02  0.51100000000E-03 0.  1.
         11   -1    0    0    0    0 -0.00000000000E+00 -0.00000000000E+00 -0.45593999997E+02  0.45594000000E+02  0.51100000000E-03 0. -1.
    9900012    2    1    2    0    0 -0.12457094806E+02  0.81566850199E+01  0.40766562192E+02  0.47787270577E+02  0.19999997869E+02 0.  0.
         12    1    1    2    0    0  0.12457094806E+02 -0.81566850199E+01 -0.40766562192E+02  0.43400729423E+02  0.00000000000E+00 0. -1.
         11    1    3    3    0    0 -0.13035691691E+02  0.28589572186E+01  0.19846541459E+02  0.23916272753E+02  0.51100000000E-03 0. -1.
        -11    1    3    3    0    0 -0.31032122837E+01  0.45688104990E+01  0.18725993839E+02  0.19523493575E+02  0.51100000000E-03 0.  1.
         12    1    3    3    0    0  0.36818091686E+01  0.72891730223E+00  0.21940268931E+01  0.43475042489E+01  0.00000000000E+00 0. -1.
</event>
<event>
 7    1  0.2486105E-010  0.4778724E+02  0.7816164E-02  0.1312668E+00
        -11   -1    0    0    0    0  0.00000000000E+00  0.00000000000E+00  0.45593999997E+02  0.45594000000E+02  0.51100000000E-03 0. -1.
         11   -1    0    0    0    0 -0.00000000000E+00 -0.00000000000E+00 -0.45593999997E+02  0.45594000000E+02  0.51100000000E-03 0.  1.
    9900012    2    1    2    0    0  0.42888420058E+02 -0.16701424593E+01 -0.64358242469E+01  0.47787242119E+02  0.19999868117E+02 0.  0.
         12    1    1    2    0    0 -0.42888420058E+02  0.16701424593E+01  0.64358242469E+01  0.43400757881E+02  0.00000000000E+00 0. -1.
         11    1    3    3    0    0  0.47043659761E+00 -0.86624633132E+00 -0.61222026837E+00  0.11603909759E+01  0.51100000000E-03 0. -1.
        -11    1    3    3    0    0  0.25656089664E+02 -0.21988345810E+01 -0.12383482307E+02  0.28573072020E+02  0.51100000000E-03 0.  1.
         12    1    3    3    0    0  0.16761893796E+02  0.13949384530E+01  0.65598783286E+01  0.18053779123E+02  0.00000000000E+00 0. -1.
</event>
<event>
 7    1  0.2486105E-010  0.4778727E+02  0.7816164E-02  0.1312668E+00
        -11   -1    0    0    0    0  0.00000000000E+00  0.00000000000E+00  0.45593999997E+02  0.45594000000E+02  0.51100000000E-03 0. -1.
         11   -1    0    0    0    0 -0.00000000000E+00 -0.00000000000E+00 -0.45593999997E+02  0.45594000000E+02  0.51100000000E-03 0.  1.
    9900012    2    1    2    0    0 -0.30950956004E+02 -0.30417735112E+02  0.65038853295E+00  0.47787270834E+02  0.19999999042E+02 0.  0.
         12    1    1    2    0    0  0.30950956004E+02  0.30417735112E+02 -0.65038853295E+00  0.43400729166E+02  0.00000000000E+00 0. -1.
         11    1    3    3    0    0 -0.17830592700E+02 -0.14664190365E+02 -0.47651859919E+01  0.23572770582E+02  0.51100000000E-03 0. -1.
        -11    1    3    3    0    0 -0.12909845576E+02 -0.68466369882E+01  0.24012790012E+01  0.14809007122E+02  0.51100000000E-03 0.  1.
        -12    1    3    3    0    0 -0.21051772793E+00 -0.89069077581E+01  0.30142955236E+01  0.94054931305E+01  0.00000000000E+00 0.  1.
</event>
<event>
 7    1  0.2486105E-010  0.4778727E+02  0.7816164E-02  0.1312668E+00
        -11   -1    0    0    0    0  0.00000000000E+00  0.00000000000E+00  0.45593999997E+02  0.45594000000E+02  0.51100000000E-03 0.  1.
         11   -1    0    0    0    0 -0.00000000000E+00 -0.00000000000E+00 -0.45593999997E+02  0.45594000000E+02  0.51100000000E-03 0. -1.
    9900012    2    1    2    0    0  0.58611260331E+01 -0.33866222520E+02  0.26501877379E+02  0.47787270389E+02  0.19999997014E+02 0.  0.
         12    1    1    2    0    0 -0.58611260331E+01  0.33866222520E+02 -0.26501877379E+02  0.43400729611E+02  0.00000000000E+00 0. -1.
         11    1    3    3    0    0 -0.18734128270E+01 -0.49688921248E+00  0.29125292148E+01  0.34984855578E+01  0.51100000000E-03 0. -1.
        -11    1    3    3    0    0  0.55576149214E+01 -0.36315049787E+01  0.87481990855E+01  0.10982071732E+02  0.51100000000E-03 0.  1.
        -12    1    3    3    0    0  0.21769239388E+01 -0.29737828329E+02  0.14841149078E+02  0.33306713100E+02  0.00000000000E+00 0.  1.
</event>
<event>
 7    1  0.2486105E-010  0.4778721E+02  0.7816164E-02  0.1312668E+00
        -11   -1    0    0    0    0  0.00000000000E+00  0.00000000000E+00  0.45593999997E+02  0.45594000000E+02  0.51100000000E-03 0. -1.
         11   -1    0    0    0    0 -0.00000000000E+00 -0.00000000000E+00 -0.45593999997E+02  0.45594000000E+02  0.51100000000E-03 0.  1.
    9900012    2    1    2    0    0  0.28777979547E+02  0.28505471781E+02 -0.15585060927E+02  0.47787214842E+02  0.19999743748E+02 0.  0.
         12    1    1    2    0    0 -0.28777979547E+02 -0.28505471781E+02  0.15585060927E+02  0.43400785158E+02  0.00000000000E+00 0. -1.
         11    1    3    3    0    0  0.22321399423E+01  0.69832404970E+01 -0.61063474940E+01  0.95412565493E+01  0.51100000000E-03 0. -1.
        -11    1    3    3    0    0  0.88702936306E+01  0.63278967028E+01 -0.10201213216E+02  0.14926122642E+02  0.51100000000E-03 0.  1.
        -12    1    3    3    0    0  0.17675545974E+02  0.15194334581E+02  0.72249978283E+00  0.23319835651E+02  0.00000000000E+00 0.  1.
</event>
<event>
 7    1  0.2486105E-010  0.4778728E+02  0.7816164E-02  0.1312668E+00
        -11   -1    0    0    0    0  0.00000000000E+00  0.00000000000E+00  0.45593999997E+02  0.45594000000E+02  0.51100000000E-03 0.  1.
         11   -1    0    0    0    0 -0.00000000000E+00 -0.00000000000E+00 -0.45593999997E+02  0.45594000000E+02  0.51100000000E-03 0. -1.
    9900012    2    1    2    0    0 -0.35913269899E+02  0.92997371773E+01  0.22524980066E+02  0.47787276579E+02  0.20000025236E+02 0.  0.
         12    1    1    2    0    0  0.35913269899E+02 -0.92997371773E+01 -0.22524980066E+02  0.43400723421E+02  0.00000000000E+00 0. -1.
         11    1    3    3    0    0 -0.18638414135E+02 -0.19591929012E+01  0.11927999609E+02  0.22214997034E+02  0.51100000000E-03 0. -1.
        -11    1    3    3    0    0 -0.15617470252E+02  0.64486282777E+01  0.11453911684E+02  0.20412796890E+02  0.51100000000E-03 0.  1.
        -12    1    3    3    0    0 -0.16573855125E+01  0.48103018008E+01 -0.85693122593E+00  0.51594826560E+01  0.00000000000E+00 0.  1.
</event>
<event>
 7    1  0.2486105E-010  0.4778727E+02  0.7816164E-02  0.1312668E+00
        -11   -1    0    0    0    0  0.00000000000E+00  0.00000000000E+00  0.45593999997E+02  0.45594000000E+02  0.51100000000E-03 0.  1.
         11   -1    0    0    0    0 -0.00000000000E+00 -0.00000000000E+00 -0.45593999997E+02  0.45594000000E+02  0.51100000000E-03 0. -1.
    9900012    2    1    2    0    0 -0.14615655358E+02 -0.16375520445E+02  0.37441266738E+02  0.47787268366E+02  0.19999987790E+02 0.  0.
         12    1    1    2    0    0  0.14615655358E+02  0.16375520445E+02 -0.37441266738E+02  0.43400731634E+02  0.00000000000E+00 0. -1.
         11    1    3    3    0    0 -0.54970570680E+01  0.46097486398E+00  0.15632207976E+02  0.16576973810E+02  0.51100000000E-03 0. -1.
        -11    1    3    3    0    0 -0.12178383118E+01  0.17465372731E+01  0.22543461816E+01  0.31009030245E+01  0.51100000000E-03 0.  1.
        -12    1    3    3    0    0 -0.79007599777E+01 -0.18583032583E+02  0.19554712580E+02  0.28109391532E+02  0.00000000000E+00 0.  1.
</event>
<event>
 7    1  0.2486105E-010  0.4778730E+02  0.7816164E-02  0.1312668E+00
        -11   -1    0    0    0    0  0.00000000000E+00  0.00000000000E+00  0.45593999997E+02  0.45594000000E+02  0.51100000000E-03 0.  1.
         11   -1    0    0    0    0 -0.00000000000E+00 -0.00000000000E+00 -0.45593999997E+02  0.45594000000E+02  0.51100000000E-03 0. -1.
    9900012    2    1    2    0    0  0.40574435800E+01  0.41902236098E+02 -0.10552752811E+02  0.47787299195E+02  0.20000128351E+02 0.  0.
         12    1    1    2    0    0 -0.40574435800E+01 -0.41902236098E+02  0.10552752811E+02  0.43400700805E+02  0.00000000000E+00 0. -1.
         11    1    3    3    0    0  0.31058989037E+01  0.10721432162E+02  0.90141721782E+00  0.11198583342E+02  0.51100000000E-03 0. -1.
        -11    1    3    3    0    0  0.31315532640E+01  0.31967775129E+02 -0.93389066021E+01  0.33450866197E+02  0.51100000000E-03 0.  1.
         12    1    3    3    0    0 -0.21800085877E+01 -0.78697119293E+00 -0.21152634265E+01  0.31378496562E+01  0.00000000000E+00 0. -1.
</event>
<event>
 7    1  0.2486105E-010  0.4778728E+02  0.7816164E-02  0.1312668E+00
        -11   -1    0    0    0    0  0.00000000000E+00  0.00000000000E+00  0.45593999997E+02  0.45594000000E+02  0.51100000000E-03 0.  1.
         11   -1    0    0    0    0 -0.00000000000E+00 -0.00000000000E+00 -0.45593999997E+02  0.45594000000E+02  0.51100000000E-03 0. -1.
    9900012    2    1    2    0    0  0.20532048561E+02 -0.18942059428E+02  0.33215302066E+02  0.47787275066E+02  0.20000018336E+02 0.  0.
         12    1    1    2    0    0 -0.20532048561E+02  0.18942059428E+02 -0.33215302066E+02  0.43400724934E+02  0.00000000000E+00 0. -1.
         11    1    3    3    0    0  0.40021050603E+01  0.18170190895E+01  0.83397153989E+01  0.94270491927E+01  0.51100000000E-03 0. -1.
        -11    1    3    3    0    0  0.15779377519E+02 -0.11611590892E+02  0.19877436090E+02  0.27909322165E+02  0.51100000000E-03 0.  1.
        -12    1    3    3    0    0  0.75056598212E+00 -0.91474876247E+01  0.49981505769E+01  0.10450903709E+02  0.00000000000E+00 0.  1.
</event>
<event>
 7    1  0.2486105E-010  0.4778728E+02  0.7816164E-02  0.1312668E+00
        -11   -1    0    0    0    0  0.00000000000E+00  0.00000000000E+00  0.45593999997E+02  0.45594000000E+02  0.51100000000E-03 0. -1.
         11   -1    0    0    0    0 -0.00000000000E+00 -0.00000000000E+00 -0.45593999997E+02  0.45594000000E+02  0.51100000000E-03 0.  1.
    9900012    2    1    2    0    0 -0.19199396374E+02  0.22441618209E+02 -0.31802199244E+02  0.47787275055E+02  0.20000018288E+02 0.  0.
         12    1    1    2    0    0  0.19199396374E+02 -0.22441618209E+02  0.31802199244E+02  0.43400724945E+02  0.00000000000E+00 0. -1.
         11    1    3    3    0    0 -0.12311379132E+02  0.13180624992E+02 -0.12289068127E+02  0.21824759495E+02  0.51100000000E-03 0. -1.
        -11    1    3    3    0    0 -0.31607102491E+01  0.12058007344E+02 -0.14269051761E+02  0.18947070190E+02  0.51100000000E-03 0.  1.
        -12    1    3    3    0    0 -0.37273069933E+01 -0.27970141272E+01 -0.52440793563E+01  0.70154453704E+01  0.00000000000E+00 0.  1.
</event>
<event>
 7    1  0.2486105E-010  0.4778727E+02  0.7816164E-02  0.1312668E+00
        -11   -1    0    0    0    0  0.00000000000E+00  0.00000000000E+00  0.45593999997E+02  0.45594000000E+02  0.51100000000E-03 0.  1.
         11   -1    0    0    0    0 -0.00000000000E+00 -0.00000000000E+00 -0.45593999997E+02  0.45594000000E+02  0.51100000000E-03 0. -1.
    9900012    2    1    2    0    0 -0.16823998720E+02  0.35326502357E+02  0.18778046455E+02  0.47787265785E+02  0.19999976020E+02 0.  0.
         12    1    1    2    0    0  0.16823998720E+02 -0.35326502357E+02 -0.18778046455E+02  0.43400734215E+02  0.00000000000E+00 0. -1.
         11    1    3    3    0    0 -0.20423150584E+02  0.28797866334E+02  0.14130938283E+02  0.38027695200E+02  0.51100000000E-03 0. -1.
        -11    1    3    3    0    0  0.10166049384E+01  0.54375120256E+01  0.19392464761E+01  0.58618000466E+01  0.51100000000E-03 0.  1.
         12    1    3    3    0    0  0.25825469259E+01  0.10911239971E+01  0.27078616967E+01  0.38977705384E+01  0.00000000000E+00 0. -1.
</event>
<event>
 7    1  0.2486105E-010  0.4778729E+02  0.7816164E-02  0.1312668E+00
        -11   -1    0    0    0    0  0.00000000000E+00  0.00000000000E+00  0.45593999997E+02  0.45594000000E+02  0.51100000000E-03 0.  1.
         11   -1    0    0    0    0 -0.00000000000E+00 -0.00000000000E+00 -0.45593999997E+02  0.45594000000E+02  0.51100000000E-03 0. -1.
    9900012    2    1    2    0    0  0.11319210872E+02 -0.18067576940E+02  0.37802906016E+02  0.47787290622E+02  0.20000089264E+02 0.  0.
         12    1    1    2    0    0 -0.11319210872E+02  0.18067576940E+02 -0.37802906016E+02  0.43400709378E+02  0.00000000000E+00 0. -1.
         11    1    3    3    0    0 -0.15836603531E+01  0.15246862804E+01 -0.76605798521E+00  0.23279805552E+01  0.51100000000E-03 0. -1.
        -11    1    3    3    0    0  0.18555725303E+01 -0.68742748741E+00  0.50341342810E+01  0.54090862616E+01  0.51100000000E-03 0.  1.
         12    1    3    3    0    0  0.11047298695E+02 -0.18904835733E+02  0.33534829720E+02  0.40050223806E+02  0.00000000000E+00 0. -1.
</event>
<event>
 7    1  0.2486105E-010  0.4778727E+02  0.7816164E-02  0.1312668E+00
        -11   -1    0    0    0    0  0.00000000000E+00  0.00000000000E+00  0.45593999997E+02  0.45594000000E+02  0.51100000000E-03 0. -1.
         11   -1    0    0    0    0 -0.00000000000E+00 -0.00000000000E+00 -0.45593999997E+02  0.45594000000E+02  0.51100000000E-03 0.  1.
    9900012    2    1    2    0    0  0.29515007852E+02  0.25607254673E+02 -0.18887998765E+02  0.47787266392E+02  0.19999978788E+02 0.  0.
         12    1    1    2    0    0 -0.29515007852E+02 -0.25607254673E+02  0.18887998765E+02  0.43400733608E+02  0.00000000000E+00 0. -1.
         11    1    3    3    0    0  0.33406467669E+01 -0.27802277960E+01 -0.18664325739E+01  0.47300272973E+01  0.51100000000E-03 0. -1.
        -11    1    3    3    0    0  0.47112999788E+01  0.51651131673E+01  0.30868158235E+00  0.69978586798E+01  0.51100000000E-03 0.  1.
        -12    1    3    3    0    0  0.21463061106E+02  0.23222369302E+02 -0.17330247773E+02  0.36059380415E+02  0.00000000000E+00 0.  1.
</event>
<event>
 7    1  0.2486105E-010  0.4778727E+02  0.7816164E-02  0.1312668E+00
        -11   -1    0    0    0    0  0.00000000000E+00  0.00000000000E+00  0.45593999997E+02  0.45594000000E+02  0.51100000000E-03 0.  1.
         11   -1    0    0    0    0 -0.00000000000E+00 -0.00000000000E+00 -0.45593999997E+02  0.45594000000E+02  0.51100000000E-03 0. -1.
    9900012    2    1    2    0    0  0.33269785103E+01  0.13861516372E+02  0.40992843621E+02  0.47787266708E+02  0.19999980228E+02 0.  0.
         12    1    1    2    0    0 -0.33269785103E+01 -0.13861516372E+02 -0.40992843621E+02  0.43400733292E+02  0.00000000000E+00 0. -1.
         11    1    3    3    0    0 -0.14613853249E+01 -0.21306640041E+01  0.12938394931E+02  0.13193840981E+02  0.51100000000E-03 0. -1.
        -11    1    3    3    0    0  0.40724257678E+01  0.13684566665E+02  0.28732127328E+02  0.32084063918E+02  0.51100000000E-03 0.  1.
         12    1    3    3    0    0  0.71593806736E+00  0.23076137109E+01 -0.67767863769E+00  0.25093618095E+01  0.00000000000E+00 0. -1.
</event>
<event>
 7    1  0.2486105E-010  0.4778727E+02  0.7816164E-02  0.1312668E+00
        -11   -1    0    0    0    0  0.00000000000E+00  0.00000000000E+00  0.45593999997E+02  0.45594000000E+02  0.51100000000E-03 0. -1.
         11   -1    0    0    0    0 -0.00000000000E+00 -0.00000000000E+00 -0.45593999997E+02  0.45594000000E+02  0.51100000000E-03 0.  1.
    9900012    2    1    2    0    0 -0.83957221053E+01  0.33834604449E+02 -0.25852554128E+02  0.47787272323E+02  0.20000005832E+02 0.  0.
         12    1    1    2    0    0  0.83957221053E+01 -0.33834604449E+02  0.25852554128E+02  0.43400727677E+02  0.00000000000E+00 0. -1.
         11    1    3    3    0    0 -0.76480537348E+01  0.55734977780E+01 -0.78114554590E+01  0.12270918468E+02  0.51100000000E-03 0. -1.
        -11    1    3    3    0    0  0.77019556205E+00 -0.10047955009E+01 -0.10264325767E+01  0.16298402677E+01  0.51100000000E-03 0.  1.
        -12    1    3    3    0    0 -0.15178639326E+01  0.29265902172E+02 -0.17014666093E+02  0.33886513587E+02  0.00000000000E+00 0.  1.
</event>
<event>
 7    1  0.2752357E-010  0.4778727E+02  0.7816164E-02  0.1312668E+00
        -11   -1    0    0    0    0  0.00000000000E+00  0.00000000000E+00  0.45593999997E+02  0.45594000000E+02  0.51100000000E-03 0.  1.
         11   -1    0    0    0    0 -0.00000000000E+00 -0.00000000000E+00 -0.45593999997E+02  0.45594000000E+02  0.51100000000E-03 0. -1.
    9900012    2    1    2    0    0 -0.21690884505E+02 -0.35409689861E+02  0.12620724395E+02  0.47787270848E+02  0.19999999106E+02 0.  0.
         12    1    1    2    0    0  0.21690884505E+02  0.35409689861E+02 -0.12620724395E+02  0.43400729152E+02  0.00000000000E+00 0. -1.
         11    1    3    3    0    0  0.10705059294E+01 -0.73085828205E+01  0.12015349273E+01  0.74836523323E+01  0.51100000000E-03 0. -1.
        -11    1    3    3    0    0 -0.22198841552E+01 -0.56556143254E+00 -0.23607206372E+01  0.32894904749E+01  0.51100000000E-03 0.  1.
        -12    1    3    3    0    0 -0.20541506279E+02 -0.27535545608E+02  0.13779910105E+02  0.37014128041E+02  0.00000000000E+00 0.  1.
</event>
<event>
 7    1  0.2486105E-010  0.4778727E+02  0.7816164E-02  0.1312668E+00
        -11   -1    0    0    0    0  0.00000000000E+00  0.00000000000E+00  0.45593999997E+02  0.45594000000E+02  0.51100000000E-03 0.  1.
         11   -1    0    0    0    0 -0.00000000000E+00 -0.00000000000E+00 -0.45593999997E+02  0.45594000000E+02  0.51100000000E-03 0. -1.
    9900012    2    1    2    0    0  0.18946600950E+02 -0.32401212355E+02  0.21790155148E+02  0.47787272921E+02  0.20000008555E+02 0.  0.
         12    1    1    2    0    0 -0.18946600950E+02  0.32401212355E+02 -0.21790155148E+02  0.43400727079E+02  0.00000000000E+00 0. -1.
         11    1    3    3    0    0  0.48249590966E+01 -0.16726633950E+02  0.62869182634E+01  0.18509074939E+02  0.51100000000E-03 0. -1.
        -11    1    3    3    0    0  0.11060187597E+02 -0.17411981368E+02  0.10460791852E+02  0.23128618879E+02  0.51100000000E-03 0.  1.
        -12    1    3    3    0    0  0.30614542571E+01  0.17374029637E+01  0.50424450325E+01  0.61495791021E+01  0.00000000000E+00 0.  1.
</event>
<event>
 7    1  0.2486105E-010  0.4778727E+02  0.7816164E-02  0.1312668E+00
        -11   -1    0    0    0    0  0.00000000000E+00  0.00000000000E+00  0.45593999997E+02  0.45594000000E+02  0.51100000000E-03 0.  1.
         11   -1    0    0    0    0 -0.00000000000E+00 -0.00000000000E+00 -0.45593999997E+02  0.45594000000E+02  0.51100000000E-03 0. -1.
    9900012    2    1    2    0    0 -0.32524209437E+02  0.43738912039E+01  0.28401906887E+02  0.47787269147E+02  0.19999991348E+02 0.  0.
         12    1    1    2    0    0  0.32524209437E+02 -0.43738912039E+01 -0.28401906887E+02  0.43400730853E+02  0.00000000000E+00 0. -1.
         11    1    3    3    0    0 -0.47618279713E+01  0.12980660589E+01  0.73997119030E+01  0.88947016606E+01  0.51100000000E-03 0.  1.
        -11    1    3    3    0    0 -0.40114255425E+01  0.16210534800E+00 -0.29910255867E+01  0.50064006380E+01  0.51100000000E-03 0. -1.
         12    1    3    3    0    0 -0.23750955923E+02  0.29137197970E+01  0.23993220571E+02  0.33886166848E+02  0.00000000000E+00 0. -1.
</event>
<event>
 7    1  0.2486105E-010  0.4778728E+02  0.7816164E-02  0.1312668E+00
        -11   -1    0    0    0    0  0.00000000000E+00  0.00000000000E+00  0.45593999997E+02  0.45594000000E+02  0.51100000000E-03 0. -1.
         11   -1    0    0    0    0 -0.00000000000E+00 -0.00000000000E+00 -0.45593999997E+02  0.45594000000E+02  0.51100000000E-03 0.  1.
    9900012    2    1    2    0    0  0.39999277357E+02 -0.14852771787E+02 -0.79420306487E+01  0.47787275701E+02  0.20000021232E+02 0.  0.
         12    1    1    2    0    0 -0.39999277357E+02  0.14852771787E+02  0.79420306487E+01  0.43400724299E+02  0.00000000000E+00 0. -1.
         11    1    3    3    0    0  0.33618193242E+02 -0.74227469240E+01 -0.37930588378E+01  0.34636214925E+02  0.51100000000E-03 0. -1.
        -11    1    3    3    0    0  0.20296537224E+01  0.10378240553E+01 -0.26792600499E+01  0.35178129112E+01  0.51100000000E-03 0.  1.
         12    1    3    3    0    0  0.43514303930E+01 -0.84678489178E+01 -0.14697117611E+01  0.96332478646E+01  0.00000000000E+00 0. -1.
</event>
<event>
 7    1  0.2486105E-010  0.4778728E+02  0.7816164E-02  0.1312668E+00
        -11   -1    0    0    0    0  0.00000000000E+00  0.00000000000E+00  0.45593999997E+02  0.45594000000E+02  0.51100000000E-03 0.  1.
         11   -1    0    0    0    0 -0.00000000000E+00 -0.00000000000E+00 -0.45593999997E+02  0.45594000000E+02  0.51100000000E-03 0. -1.
    9900012    2    1    2    0    0 -0.13694307874E+02  0.65081242582E+01  0.40666117338E+02  0.47787275941E+02  0.20000022324E+02 0.  0.
         12    1    1    2    0    0  0.13694307874E+02 -0.65081242582E+01 -0.40666117338E+02  0.43400724059E+02  0.00000000000E+00 0. -1.
         11    1    3    3    0    0 -0.46774685969E+01  0.62384897410E+01  0.11048950429E+02  0.13523193875E+02  0.51100000000E-03 0. -1.
        -11    1    3    3    0    0  0.39989824564E+01  0.11275841911E+01  0.80529298581E+01  0.90616216183E+01  0.51100000000E-03 0.  1.
        -12    1    3    3    0    0 -0.13015821733E+02 -0.85794967386E+00  0.21564237051E+02  0.25202460448E+02  0.00000000000E+00 0.  1.
</event>
<event>
 7    1  0.2486105E-010  0.4778728E+02  0.7816164E-02  0.1312668E+00
        -11   -1    0    0    0    0  0.00000000000E+00  0.00000000000E+00  0.45593999997E+02  0.45594000000E+02  0.51100000000E-03 0.  1.
         11   -1    0    0    0    0 -0.00000000000E+00 -0.00000000000E+00 -0.45593999997E+02  0.45594000000E+02  0.51100000000E-03 0. -1.
    9900012    2    1    2    0    0 -0.21369857989E+02 -0.35192700727E+02  0.13726830011E+02  0.47787275616E+02  0.20000020842E+02 0.  0.
         12    1    1    2    0    0  0.21369857989E+02  0.35192700727E+02 -0.13726830011E+02  0.43400724384E+02  0.00000000000E+00 0. -1.
         11    1    3    3    0    0 -0.71201566538E+01 -0.14866989783E+01  0.38804780025E+00  0.72840569728E+01  0.51100000000E-03 0. -1.
        -11    1    3    3    0    0 -0.36843459002E+01 -0.16377129658E+01 -0.39870382523E+00  0.40516013466E+01  0.51100000000E-03 0.  1.
        -12    1    3    3    0    0 -0.10565355435E+02 -0.32068288783E+02  0.13737486036E+02  0.36451617296E+02  0.00000000000E+00 0.  1.
</event>
<event>
 7    1  0.2486105E-010  0.4778727E+02  0.7816164E-02  0.1312668E+00
        -11   -1    0    0    0    0  0.00000000000E+00  0.00000000000E+00  0.45593999997E+02  0.45594000000E+02  0.51100000000E-03 0.  1.
         11   -1    0    0    0    0 -0.00000000000E+00 -0.00000000000E+00 -0.45593999997E+02  0.45594000000E+02  0.51100000000E-03 0. -1.
    9900012    2    1    2    0    0  0.10568661582E+02  0.13969450188E+02  0.39708706731E+02  0.47787268020E+02  0.19999986210E+02 0.  0.
         12    1    1    2    0    0 -0.10568661582E+02 -0.13969450188E+02 -0.39708706731E+02  0.43400731980E+02  0.00000000000E+00 0. -1.
         11    1    3    3    0    0 -0.14170524928E+01  0.29987156071E+01  0.16788460602E+02  0.17112940797E+02  0.51100000000E-03 0. -1.
        -11    1    3    3    0    0  0.99208341515E+00  0.91340982176E+01  0.92735728423E+01  0.13054314738E+02  0.51100000000E-03 0.  1.
         12    1    3    3    0    0  0.10993630659E+02  0.18366363632E+01  0.13646673286E+02  0.17620012486E+02  0.00000000000E+00 0. -1.
</event>
<event>
 7    1  0.2486105E-010  0.4778727E+02  0.7816164E-02  0.1312668E+00
        -11   -1    0    0    0    0  0.00000000000E+00  0.00000000000E+00  0.45593999997E+02  0.45594000000E+02  0.51100000000E-03 0.  1.
         11   -1    0    0    0    0 -0.00000000000E+00 -0.00000000000E+00 -0.45593999997E+02  0.45594000000E+02  0.51100000000E-03 0. -1.
    9900012    2    1    2    0    0 -0.10186610182E+02 -0.31657314009E+02  0.27886746931E+02  0.47787271762E+02  0.20000003271E+02 0.  0.
         12    1    1    2    0    0  0.10186610182E+02  0.31657314009E+02 -0.27886746931E+02  0.43400728238E+02  0.00000000000E+00 0. -1.
         11    1    3    3    0    0 -0.85020148434E+01 -0.10370897956E+02  0.61233148674E+01  0.14742278184E+02  0.51100000000E-03 0. -1.
        -11    1    3    3    0    0  0.14038075881E+01  0.13073476344E+01  0.83131643131E+00  0.20906747360E+01  0.51100000000E-03 0.  1.
         12    1    3    3    0    0 -0.30884029267E+01 -0.22593763687E+02  0.20932115632E+02  0.30954318842E+02  0.00000000000E+00 0. -1.
</event>
<event>
 7    1  0.2486105E-010  0.4778728E+02  0.7816164E-02  0.1312668E+00
        -11   -1    0    0    0    0  0.00000000000E+00  0.00000000000E+00  0.45593999997E+02  0.45594000000E+02  0.51100000000E-03 0. -1.
         11   -1    0    0    0    0 -0.00000000000E+00 -0.00000000000E+00 -0.45593999997E+02  0.45594000000E+02  0.51100000000E-03 0.  1.
    9900012    2    1    2    0    0  0.28355526676E+02 -0.20664344662E+02 -0.25545483904E+02  0.47787276719E+02  0.20000025874E+02 0.  0.
         12    1    1    2    0    0 -0.28355526676E+02  0.20664344662E+02  0.25545483904E+02  0.43400723281E+02  0.00000000000E+00 0. -1.
         11    1    3    3    0    0  0.27785689626E+01  0.19584808483E+01 -0.62719709678E+01  0.71339829545E+01  0.51100000000E-03 0. -1.
        -11    1    3    3    0    0  0.20168657518E+01 -0.61752122248E+01 -0.65623993327E+01  0.92339633281E+01  0.51100000000E-03 0.  1.
        -12    1    3    3    0    0  0.23560091962E+02 -0.16447613285E+02 -0.12711113604E+02  0.31419330437E+02  0.00000000000E+00 0.  1.
</event>
<event>
 7    1  0.2486105E-010  0.4778728E+02  0.7816164E-02  0.1312668E+00
        -11   -1    0    0    0    0  0.00000000000E+00  0.00000000000E+00  0.45593999997E+02  0.45594000000E+02  0.51100000000E-03 0.  1.
         11   -1    0    0    0    0 -0.00000000000E+00 -0.00000000000E+00 -0.45593999997E+02  0.45594000000E+02  0.51100000000E-03 0. -1.
    9900012    2    1    2    0    0 -0.43291493018E+02 -0.13666952417E+01 -0.27571030538E+01  0.47787276033E+02  0.20000022743E+02 0.  0.
         12    1    1    2    0    0  0.43291493018E+02  0.13666952417E+01  0.27571030538E+01  0.43400723967E+02  0.00000000000E+00 0. -1.
         11    1    3    3    0    0 -0.60371298390E+01 -0.23761647144E+01 -0.54953706489E+01  0.85024816538E+01  0.51100000000E-03 0. -1.
        -11    1    3    3    0    0 -0.60183375574E+01  0.15673232778E+01 -0.39074853067E+01  0.73447485250E+01  0.51100000000E-03 0.  1.
        -12    1    3    3    0    0 -0.31236025622E+02 -0.55785380507E+00  0.66457529018E+01  0.31940045854E+02  0.00000000000E+00 0.  1.
</event>
<event>
 7    1  0.2486105E-010  0.4778727E+02  0.7816164E-02  0.1312668E+00
        -11   -1    0    0    0    0  0.00000000000E+00  0.00000000000E+00  0.45593999997E+02  0.45594000000E+02  0.51100000000E-03 0. -1.
         11   -1    0    0    0    0 -0.00000000000E+00 -0.00000000000E+00 -0.45593999997E+02  0.45594000000E+02  0.51100000000E-03 0.  1.
    9900012    2    1    2    0    0 -0.28632742060E+02  0.21246542571E+02 -0.24746184629E+02  0.47787272555E+02  0.20000006885E+02 0.  0.
         12    1    1    2    0    0  0.28632742060E+02 -0.21246542571E+02  0.24746184629E+02  0.43400727445E+02  0.00000000000E+00 0. -1.
         11    1    3    3    0    0 -0.69069637215E+01  0.68521679263E+01 -0.14768067518E+01  0.98406967022E+01  0.51100000000E-03 0. -1.
        -11    1    3    3    0    0 -0.10827094127E+02 -0.32618988037E+00 -0.45249797611E+01  0.11739157090E+02  0.51100000000E-03 0.  1.
        -12    1    3    3    0    0 -0.10898684211E+02  0.14720564525E+02 -0.18744398116E+02  0.26207418763E+02  0.00000000000E+00 0.  1.
</event>
<event>
 7    1  0.2486105E-010  0.4778727E+02  0.7816164E-02  0.1312668E+00
        -11   -1    0    0    0    0  0.00000000000E+00  0.00000000000E+00  0.45593999997E+02  0.45594000000E+02  0.51100000000E-03 0.  1.
         11   -1    0    0    0    0 -0.00000000000E+00 -0.00000000000E+00 -0.45593999997E+02  0.45594000000E+02  0.51100000000E-03 0. -1.
    9900012    2    1    2    0    0  0.18435499681E+02 -0.37135016720E+02  0.12835346243E+02  0.47787271568E+02  0.20000002386E+02 0.  0.
         12    1    1    2    0    0 -0.18435499681E+02  0.37135016720E+02 -0.12835346243E+02  0.43400728432E+02  0.00000000000E+00 0. -1.
         11    1    3    3    0    0  0.10377587598E+02 -0.25761973723E+02  0.14676433424E+02  0.31412916337E+02  0.51100000000E-03 0. -1.
        -11    1    3    3    0    0  0.11665101119E+01 -0.87633830856E+01 -0.29886736634E+00  0.88457306600E+01  0.51100000000E-03 0.  1.
         12    1    3    3    0    0  0.68914019711E+01 -0.26096599110E+01 -0.15422198143E+01  0.75286245712E+01  0.00000000000E+00 0. -1.
</event>
<event>
 7    1  0.2486105E-010  0.4778727E+02  0.7816164E-02  0.1312668E+00
        -11   -1    0    0    0    0  0.00000000000E+00  0.00000000000E+00  0.45593999997E+02  0.45594000000E+02  0.51100000000E-03 0.  1.
         11   -1    0    0    0    0 -0.00000000000E+00 -0.00000000000E+00 -0.45593999997E+02  0.45594000000E+02  0.51100000000E-03 0. -1.
    9900012    2    1    2    0    0 -0.39107545340E+02  0.17157789516E+02  0.77351930444E+01  0.47787273565E+02  0.20000011493E+02 0.  0.
         12    1    1    2    0    0  0.39107545340E+02 -0.17157789516E+02 -0.77351930444E+01  0.43400726435E+02  0.00000000000E+00 0. -1.
         11    1    3    3    0    0 -0.37052620346E+01 -0.32466582085E+01  0.10657060052E+01  0.50403854831E+01  0.51100000000E-03 0. -1.
        -11    1    3    3    0    0 -0.12931523938E+02  0.27892561004E+01 -0.73776823845E+00  0.13249474072E+02  0.51100000000E-03 0.  1.
        -12    1    3    3    0    0 -0.22470759368E+02  0.17615191624E+02  0.74072552777E+01  0.29497414010E+02  0.00000000000E+00 0.  1.
</event>
<event>
 7    1  0.2486105E-010  0.4778728E+02  0.7816164E-02  0.1312668E+00
        -11   -1    0    0    0    0  0.00000000000E+00  0.00000000000E+00  0.45593999997E+02  0.45594000000E+02  0.51100000000E-03 0. -1.
         11   -1    0    0    0    0 -0.00000000000E+00 -0.00000000000E+00 -0.45593999997E+02  0.45594000000E+02  0.51100000000E-03 0.  1.
    9900012    2    1    2    0    0  0.30004356946E+02  0.29936022831E+02 -0.93378447974E+01  0.47787282908E+02  0.20000054088E+02 0.  0.
         12    1    1    2    0    0 -0.30004356946E+02 -0.29936022831E+02  0.93378447974E+01  0.43400717092E+02  0.00000000000E+00 0. -1.
         11    1    3    3    0    0  0.19600676774E+02  0.13202681435E+02 -0.12398069756E+02  0.26687252781E+02  0.51100000000E-03 0.  1.
        -11    1    3    3    0    0  0.61593179131E+01  0.10671903361E+02 -0.14926205080E+01  0.12411874748E+02  0.51100000000E-03 0. -1.
         12    1    3    3    0    0  0.42443622589E+01  0.60614380350E+01  0.45528454671E+01  0.86881553787E+01  0.00000000000E+00 0. -1.
</event>
<event>
 7    1  0.2852293E-010  0.4778728E+02  0.7816164E-02  0.1312668E+00
        -11   -1    0    0    0    0  0.00000000000E+00  0.00000000000E+00  0.45593999997E+02  0.45594000000E+02  0.51100000000E-03 0. -1.
         11   -1    0    0    0    0 -0.00000000000E+00 -0.00000000000E+00 -0.45593999997E+02  0.45594000000E+02  0.51100000000E-03 0.  1.
    9900012    2    1    2    0    0  0.22106478933E+02  0.23514583772E+02 -0.29017073768E+02  0.47787278453E+02  0.20000033779E+02 0.  0.
         12    1    1    2    0    0 -0.22106478933E+02 -0.23514583772E+02  0.29017073768E+02  0.43400721547E+02  0.00000000000E+00 0. -1.
         11    1    3    3    0    0 -0.14649849094E+01  0.35049610700E+01 -0.84385401852E+01  0.92541824925E+01  0.51100000000E-03 0. -1.
        -11    1    3    3    0    0  0.57379767868E+01  0.10685237118E+02 -0.51556319323E+01  0.13178740864E+02  0.51100000000E-03 0.  1.
        -12    1    3    3    0    0  0.17833487055E+02  0.93243855839E+01 -0.15422901650E+02  0.25354355097E+02  0.00000000000E+00 0.  1.
</event>
<event>
 7    1  0.2564711E-010  0.4778727E+02  0.7816164E-02  0.1312668E+00
        -11   -1    0    0    0    0  0.00000000000E+00  0.00000000000E+00  0.45593999997E+02  0.45594000000E+02  0.51100000000E-03 0.  1.
         11   -1    0    0    0    0 -0.00000000000E+00 -0.00000000000E+00 -0.45593999997E+02  0.45594000000E+02  0.51100000000E-03 0. -1.
    9900012    2    1    2    0    0 -0.29220440036E+02  0.89437285428E+01  0.30818805752E+02  0.47787272079E+02  0.20000004715E+02 0.  0.
         12    1    1    2    0    0  0.29220440036E+02 -0.89437285428E+01 -0.30818805752E+02  0.43400727921E+02  0.00000000000E+00 0. -1.
         11    1    3    3    0    0  0.56937239713E+00  0.24249983005E+01 -0.10611206403E-01  0.24909665880E+01  0.51100000000E-03 0. -1.
        -11    1    3    3    0    0 -0.43545101003E+01  0.60675566164E+01  0.46771821802E+01  0.88120959433E+01  0.51100000000E-03 0.  1.
        -12    1    3    3    0    0 -0.25435302333E+02  0.45117362595E+00  0.26152234778E+02  0.36484209547E+02  0.00000000000E+00 0.  1.
</event>
<event>
 7    1  0.2486105E-010  0.4778727E+02  0.7816164E-02  0.1312668E+00
        -11   -1    0    0    0    0  0.00000000000E+00  0.00000000000E+00  0.45593999997E+02  0.45594000000E+02  0.51100000000E-03 0.  1.
         11   -1    0    0    0    0 -0.00000000000E+00 -0.00000000000E+00 -0.45593999997E+02  0.45594000000E+02  0.51100000000E-03 0. -1.
    9900012    2    1    2    0    0 -0.11496960532E+02  0.25542290696E+02  0.33151690261E+02  0.47787270943E+02  0.19999999539E+02 0.  0.
         12    1    1    2    0    0  0.11496960532E+02 -0.25542290696E+02 -0.33151690261E+02  0.43400729057E+02  0.00000000000E+00 0. -1.
         11    1    3    3    0    0 -0.30795437816E+01  0.88244560563E+01  0.47113194390E+01  0.10466668319E+02  0.51100000000E-03 0. -1.
        -11    1    3    3    0    0 -0.94184095016E+00  0.15425554182E+02  0.23954697697E+02  0.28507232910E+02  0.51100000000E-03 0.  1.
         12    1    3    3    0    0 -0.74755757998E+01  0.12922804581E+01  0.44856731257E+01  0.88133697138E+01  0.00000000000E+00 0. -1.
</event>
<event>
 7    1  0.2486105E-010  0.4778727E+02  0.7816164E-02  0.1312668E+00
        -11   -1    0    0    0    0  0.00000000000E+00  0.00000000000E+00  0.45593999997E+02  0.45594000000E+02  0.51100000000E-03 0. -1.
         11   -1    0    0    0    0 -0.00000000000E+00 -0.00000000000E+00 -0.45593999997E+02  0.45594000000E+02  0.51100000000E-03 0.  1.
    9900012    2    1    2    0    0  0.15154300724E+01  0.38863046663E+02 -0.19261120428E+02  0.47787266315E+02  0.19999978439E+02 0.  0.
         12    1    1    2    0    0 -0.15154300724E+01 -0.38863046663E+02  0.19261120428E+02  0.43400733685E+02  0.00000000000E+00 0. -1.
         11    1    3    3    0    0 -0.20629068946E+01  0.10349546497E+02 -0.98713250355E+01  0.14450320265E+02  0.51100000000E-03 0. -1.
        -11    1    3    3    0    0 -0.52032961728E+01  0.12603089396E+02 -0.22881237430E+01  0.13825616222E+02  0.51100000000E-03 0.  1.
        -12    1    3    3    0    0  0.87816331398E+01  0.15910410769E+02 -0.71016716497E+01  0.19511329828E+02  0.00000000000E+00 0.  1.
</event>
<event>
 7    1  0.2486105E-010  0.4778727E+02  0.7816164E-02  0.1312668E+00
        -11   -1    0    0    0    0  0.00000000000E+00  0.00000000000E+00  0.45593999997E+02  0.45594000000E+02  0.51100000000E-03 0.  1.
         11   -1    0    0    0    0 -0.00000000000E+00 -0.00000000000E+00 -0.45593999997E+02  0.45594000000E+02  0.51100000000E-03 0. -1.
    9900012    2    1    2    0    0 -0.26441160922E+02 -0.13838894009E+02 -0.31511480244E+02  0.47787269989E+02  0.19999995190E+02 0.  0.
         12    1    1    2    0    0  0.26441160922E+02  0.13838894009E+02  0.31511480244E+02  0.43400730011E+02  0.00000000000E+00 0. -1.
         11    1    3    3    0    0 -0.16264235180E+01 -0.60848057077E+01 -0.10732477998E+02  0.12444123039E+02  0.51100000000E-03 0. -1.
        -11    1    3    3    0    0 -0.13126595951E+02 -0.97401709032E+01 -0.14866032217E+02  0.22094736130E+02  0.51100000000E-03 0.  1.
         12    1    3    3    0    0 -0.11688141453E+02  0.19860826024E+01 -0.59129700280E+01  0.13248410821E+02  0.00000000000E+00 0. -1.
</event>
<event>
 7    1  0.2486105E-010  0.4778727E+02  0.7816164E-02  0.1312668E+00
        -11   -1    0    0    0    0  0.00000000000E+00  0.00000000000E+00  0.45593999997E+02  0.45594000000E+02  0.51100000000E-03 0.  1.
         11   -1    0    0    0    0 -0.00000000000E+00 -0.00000000000E+00 -0.45593999997E+02  0.45594000000E+02  0.51100000000E-03 0. -1.
    9900012    2    1    2    0    0  0.11091868765E+02 -0.40894380780E+02  0.93937791147E+01  0.47787273991E+02  0.20000013435E+02 0.  0.
         12    1    1    2    0    0 -0.11091868765E+02  0.40894380780E+02 -0.93937791147E+01  0.43400726009E+02  0.00000000000E+00 0. -1.
         11    1    3    3    0    0 -0.47175769801E+01 -0.41928035358E+01  0.63374596953E+00  0.63432458779E+01  0.51100000000E-03 0. -1.
        -11    1    3    3    0    0  0.76121086280E+00 -0.51427921094E+01  0.30221022345E+01  0.60133896293E+01  0.51100000000E-03 0.  1.
        -12    1    3    3    0    0  0.15048234882E+02 -0.31558785134E+02  0.57379309107E+01  0.35430638484E+02  0.00000000000E+00 0.  1.
</event>
<event>
 7    1  0.2486105E-010  0.4778727E+02  0.7816164E-02  0.1312668E+00
        -11   -1    0    0    0    0  0.00000000000E+00  0.00000000000E+00  0.45593999997E+02  0.45594000000E+02  0.51100000000E-03 0. -1.
         11   -1    0    0    0    0 -0.00000000000E+00 -0.00000000000E+00 -0.45593999997E+02  0.45594000000E+02  0.51100000000E-03 0.  1.
    9900012    2    1    2    0    0 -0.93845255139E+01  0.30355306441E+02 -0.29565334745E+02  0.47787274582E+02  0.20000016129E+02 0.  0.
         12    1    1    2    0    0  0.93845255139E+01 -0.30355306441E+02  0.29565334745E+02  0.43400725418E+02  0.00000000000E+00 0. -1.
         11    1    3    3    0    0 -0.70719396054E+00  0.63588079047E+01 -0.15946176558E+02  0.17181824942E+02  0.51100000000E-03 0. -1.
        -11    1    3    3    0    0 -0.58102610300E+01  0.81856245013E+01 -0.99276744284E+01  0.14118155033E+02  0.51100000000E-03 0.  1.
         12    1    3    3    0    0 -0.28670705233E+01  0.15810874035E+02 -0.36914837591E+01  0.16487294607E+02  0.00000000000E+00 0. -1.
</event>
<event>
 7    1  0.2486105E-010  0.4778727E+02  0.7816164E-02  0.1312668E+00
        -11   -1    0    0    0    0  0.00000000000E+00  0.00000000000E+00  0.45593999997E+02  0.45594000000E+02  0.51100000000E-03 0. -1.
         11   -1    0    0    0    0 -0.00000000000E+00 -0.00000000000E+00 -0.45593999997E+02  0.45594000000E+02  0.51100000000E-03 0.  1.
    9900012    2    1    2    0    0 -0.19931715096E+02 -0.37780295196E+02 -0.76811049782E+01  0.47787270220E+02  0.19999996241E+02 0.  0.
         12    1    1    2    0    0  0.19931715096E+02  0.37780295196E+02  0.76811049782E+01  0.43400729780E+02  0.00000000000E+00 0. -1.
         11    1    3    3    0    0 -0.55283824311E+00  0.88133080258E+00 -0.87447586124E-01  0.10440409226E+01  0.51100000000E-03 0. -1.
        -11    1    3    3    0    0 -0.49181172445E+01 -0.93274618167E+01  0.50347373776E+01  0.11684947663E+02  0.51100000000E-03 0.  1.
        -12    1    3    3    0    0 -0.14460759609E+02 -0.29334164181E+02 -0.12628394770E+02  0.35058281634E+02  0.00000000000E+00 0.  1.
</event>
<event>
 7    1  0.2486105E-010  0.4778727E+02  0.7816164E-02  0.1312668E+00
        -11   -1    0    0    0    0  0.00000000000E+00  0.00000000000E+00  0.45593999997E+02  0.45594000000E+02  0.51100000000E-03 0.  1.
         11   -1    0    0    0    0 -0.00000000000E+00 -0.00000000000E+00 -0.45593999997E+02  0.45594000000E+02  0.51100000000E-03 0. -1.
    9900012    2    1    2    0    0 -0.16778013802E+01 -0.43019385526E+02  0.54900924840E+01  0.47787266550E+02  0.19999979510E+02 0.  0.
         12    1    1    2    0    0  0.16778013802E+01  0.43019385526E+02 -0.54900924840E+01  0.43400733450E+02  0.00000000000E+00 0. -1.
         11    1    3    3    0    0 -0.41315875797E+01 -0.53022168792E+01  0.26352247721E+01  0.72199674253E+01  0.51100000000E-03 0. -1.
        -11    1    3    3    0    0 -0.31624549183E+01 -0.28453587520E+02 -0.19948008975E+01  0.28698205428E+02  0.51100000000E-03 0.  1.
        -12    1    3    3    0    0  0.56162411178E+01 -0.92635811261E+01  0.48496686094E+01  0.11869093697E+02  0.00000000000E+00 0.  1.
</event>
<event>
 7    1  0.2486105E-010  0.4778727E+02  0.7816164E-02  0.1312668E+00
        -11   -1    0    0    0    0  0.00000000000E+00  0.00000000000E+00  0.45593999997E+02  0.45594000000E+02  0.51100000000E-03 0. -1.
         11   -1    0    0    0    0 -0.00000000000E+00 -0.00000000000E+00 -0.45593999997E+02  0.45594000000E+02  0.51100000000E-03 0.  1.
    9900012    2    1    2    0    0 -0.28591640703E+02 -0.20791607427E+02  0.25176387263E+02  0.47787270362E+02  0.19999996890E+02 0.  0.
         12    1    1    2    0    0  0.28591640703E+02  0.20791607427E+02 -0.25176387263E+02  0.43400729638E+02  0.00000000000E+00 0. -1.
         11    1    3    3    0    0 -0.16274996080E+02 -0.14121868224E+02  0.19697794260E+02  0.29194276126E+02  0.51100000000E-03 0. -1.
        -11    1    3    3    0    0 -0.11854763390E+02 -0.85197229750E+01  0.69652497878E+01  0.16175159952E+02  0.51100000000E-03 0.  1.
        -12    1    3    3    0    0 -0.46188123194E+00  0.18499837728E+01 -0.14866567843E+01  0.24178342843E+01  0.00000000000E+00 0.  1.
</event>
<event>
 7    1  0.2486105E-010  0.4778727E+02  0.7816164E-02  0.1312668E+00
        -11   -1    0    0    0    0  0.00000000000E+00  0.00000000000E+00  0.45593999997E+02  0.45594000000E+02  0.51100000000E-03 0.  1.
         11   -1    0    0    0    0 -0.00000000000E+00 -0.00000000000E+00 -0.45593999997E+02  0.45594000000E+02  0.51100000000E-03 0. -1.
    9900012    2    1    2    0    0 -0.13303611781E+02 -0.10841128253E+02  0.39863607125E+02  0.47787270499E+02  0.19999997512E+02 0.  0.
         12    1    1    2    0    0  0.13303611781E+02  0.10841128253E+02 -0.39863607125E+02  0.43400729501E+02  0.00000000000E+00 0. -1.
         11    1    3    3    0    0 -0.31842363868E+01 -0.36524132287E+01  0.51348776420E+01  0.70602020098E+01  0.51100000000E-03 0. -1.
        -11    1    3    3    0    0 -0.78686542783E+01 -0.10262438263E+02  0.34575030993E+02  0.36914307899E+02  0.51100000000E-03 0.  1.
         12    1    3    3    0    0 -0.22507211162E+01  0.30737232380E+01  0.15369848973E+00  0.38127605894E+01  0.00000000000E+00 0. -1.
</event>
<event>
 7    1  0.2486105E-010  0.4778727E+02  0.7816164E-02  0.1312668E+00
        -11   -1    0    0    0    0  0.00000000000E+00  0.00000000000E+00  0.45593999997E+02  0.45594000000E+02  0.51100000000E-03 0.  1.
         11   -1    0    0    0    0 -0.00000000000E+00 -0.00000000000E+00 -0.45593999997E+02  0.45594000000E+02  0.51100000000E-03 0. -1.
    9900012    2    1    2    0    0 -0.10134564100E+02  0.22034457654E+02  0.35991617312E+02  0.47787271546E+02  0.20000002287E+02 0.  0.
         12    1    1    2    0    0  0.10134564100E+02 -0.22034457654E+02 -0.35991617312E+02  0.43400728454E+02  0.00000000000E+00 0. -1.
         11    1    3    3    0    0  0.13166271658E+01  0.19308385462E+01  0.51602500326E+01  0.56647881907E+01  0.51100000000E-03 0. -1.
        -11    1    3    3    0    0 -0.12388969543E+02  0.14561086613E+02  0.31086975667E+02  0.36495367735E+02  0.51100000000E-03 0.  1.
        -12    1    3    3    0    0  0.93777827750E+00  0.55425324955E+01 -0.25560838807E+00  0.56271156208E+01  0.00000000000E+00 0.  1.
</event>
<event>
 7    1  0.2486105E-010  0.4778727E+02  0.7816164E-02  0.1312668E+00
        -11   -1    0    0    0    0  0.00000000000E+00  0.00000000000E+00  0.45593999997E+02  0.45594000000E+02  0.51100000000E-03 0.  1.
         11   -1    0    0    0    0 -0.00000000000E+00 -0.00000000000E+00 -0.45593999997E+02  0.45594000000E+02  0.51100000000E-03 0. -1.
    9900012    2    1    2    0    0  0.24449337431E+02  0.27496576982E+01  0.35753217448E+02  0.47787271018E+02  0.19999999880E+02 0.  0.
         12    1    1    2    0    0 -0.24449337431E+02 -0.27496576982E+01 -0.35753217448E+02  0.43400728982E+02  0.00000000000E+00 0. -1.
         11    1    3    3    0    0 -0.13905117941E+01  0.33522538813E+01  0.24669003256E+00  0.36375796029E+01  0.51100000000E-03 0. -1.
        -11    1    3    3    0    0  0.50385140827E+00  0.29384719357E+00  0.22943872791E+01  0.23673668204E+01  0.51100000000E-03 0.  1.
         12    1    3    3    0    0  0.25335997816E+02 -0.89644337666E+00  0.33212140137E+02  0.41782324595E+02  0.00000000000E+00 0. -1.
</event>
<event>
 7    1  0.2486105E-010  0.4778727E+02  0.7816164E-02  0.1312668E+00
        -11   -1    0    0    0    0  0.00000000000E+00  0.00000000000E+00  0.45593999997E+02  0.45594000000E+02  0.51100000000E-03 0. -1.
         11   -1    0    0    0    0 -0.00000000000E+00 -0.00000000000E+00 -0.45593999997E+02  0.45594000000E+02  0.51100000000E-03 0.  1.
    9900012    2    1    2    0    0 -0.41703710725E+01  0.20587081316E+02 -0.37978988060E+02  0.47787269061E+02  0.19999990957E+02 0.  0.
         12    1    1    2    0    0  0.41703710725E+01 -0.20587081316E+02  0.37978988060E+02  0.43400730939E+02  0.00000000000E+00 0. -1.
         11    1    3    3    0    0  0.12269504767E+01  0.35399936980E+01 -0.62858341306E+00  0.37989577811E+01  0.51100000000E-03 0. -1.
        -11    1    3    3    0    0  0.33617321061E+01  0.13282369189E+02 -0.21811661118E+02  0.25757933439E+02  0.51100000000E-03 0.  1.
         12    1    3    3    0    0 -0.87590536553E+01  0.37647184284E+01 -0.15538743529E+02  0.18230377841E+02  0.00000000000E+00 0. -1.
</event>
<event>
 7    1  0.2486105E-010  0.4778721E+02  0.7816164E-02  0.1312668E+00
        -11   -1    0    0    0    0  0.00000000000E+00  0.00000000000E+00  0.45593999997E+02  0.45594000000E+02  0.51100000000E-03 0. -1.
         11   -1    0    0    0    0 -0.00000000000E+00 -0.00000000000E+00 -0.45593999997E+02  0.45594000000E+02  0.51100000000E-03 0.  1.
    9900012    2    1    2    0    0 -0.37794654228E+02 -0.19123503354E+02 -0.94595962886E+01  0.47787213939E+02  0.19999739631E+02 0.  0.
         12    1    1    2    0    0  0.37794654228E+02  0.19123503354E+02  0.94595962886E+01  0.43400786061E+02  0.00000000000E+00 0. -1.
         11    1    3    3    0    0 -0.11768674166E+02  0.23313572718E+01 -0.49087477985E+01  0.12962743675E+02  0.51100000000E-03 0. -1.
        -11    1    3    3    0    0 -0.10416764376E+02 -0.52444431204E+01  0.81098470770E+00  0.11690631299E+02  0.51100000000E-03 0.  1.
        -12    1    3    3    0    0 -0.15609215686E+02 -0.16210417506E+02 -0.53618331978E+01  0.23133838966E+02  0.00000000000E+00 0.  1.
</event>
<event>
 7    1  0.2486105E-010  0.4778727E+02  0.7816164E-02  0.1312668E+00
        -11   -1    0    0    0    0  0.00000000000E+00  0.00000000000E+00  0.45593999997E+02  0.45594000000E+02  0.51100000000E-03 0.  1.
         11   -1    0    0    0    0 -0.00000000000E+00 -0.00000000000E+00 -0.45593999997E+02  0.45594000000E+02  0.51100000000E-03 0. -1.
    9900012    2    1    2    0    0 -0.43438517235E+01 -0.37474557492E+02  0.21457204855E+02  0.47787272504E+02  0.20000006656E+02 0.  0.
         12    1    1    2    0    0  0.43438517235E+01  0.37474557492E+02 -0.21457204855E+02  0.43400727496E+02  0.00000000000E+00 0. -1.
         11    1    3    3    0    0 -0.32100893464E+01 -0.20325322524E+02  0.94008236954E+01  0.22622972743E+02  0.51100000000E-03 0. -1.
        -11    1    3    3    0    0  0.30271167445E+01 -0.13733947844E+02  0.13600462090E+02  0.19564184841E+02  0.51100000000E-03 0.  1.
         12    1    3    3    0    0 -0.41608791217E+01 -0.34152871243E+01 -0.15440809307E+01  0.56001149209E+01  0.00000000000E+00 0. -1.
</event>
<event>
 7    1  0.2486105E-010  0.4778727E+02  0.7816164E-02  0.1312668E+00
        -11   -1    0    0    0    0  0.00000000000E+00  0.00000000000E+00  0.45593999997E+02  0.45594000000E+02  0.51100000000E-03 0.  1.
         11   -1    0    0    0    0 -0.00000000000E+00 -0.00000000000E+00 -0.45593999997E+02  0.45594000000E+02  0.51100000000E-03 0. -1.
    9900012    2    1    2    0    0 -0.57813781112E+01 -0.23906576359E+02  0.35758555057E+02  0.47787274363E+02  0.20000015130E+02 0.  0.
         12    1    1    2    0    0  0.57813781112E+01  0.23906576359E+02 -0.35758555057E+02  0.43400725637E+02  0.00000000000E+00 0. -1.
         11    1    3    3    0    0  0.37981082534E+01 -0.19735299621E+01  0.45336393302E+01  0.62349284401E+01  0.51100000000E-03 0. -1.
        -11    1    3    3    0    0  0.12256699754E+01 -0.40089298524E+01  0.13468257080E+02  0.14105592313E+02  0.51100000000E-03 0.  1.
        -12    1    3    3    0    0 -0.10805156340E+02 -0.17924116545E+02  0.17756658646E+02  0.27446753610E+02  0.00000000000E+00 0.  1.
</event>
<event>
 7    1  0.2486105E-010  0.4778728E+02  0.7816164E-02  0.1312668E+00
        -11   -1    0    0    0    0  0.00000000000E+00  0.00000000000E+00  0.45593999997E+02  0.45594000000E+02  0.51100000000E-03 0.  1.
         11   -1    0    0    0    0 -0.00000000000E+00 -0.00000000000E+00 -0.45593999997E+02  0.45594000000E+02  0.51100000000E-03 0. -1.
    9900012    2    1    2    0    0  0.37998519738E+02  0.20527318135E+02 -0.42853115645E+01  0.47787283562E+02  0.20000057073E+02 0.  0.
         12    1    1    2    0    0 -0.37998519738E+02 -0.20527318135E+02  0.42853115645E+01  0.43400716438E+02  0.00000000000E+00 0. -1.
         11    1    3    3    0    0  0.77652907462E+01 -0.57133182460E+00  0.83042270047E+00  0.78304382092E+01  0.51100000000E-03 0. -1.
        -11    1    3    3    0    0  0.27221228459E+02  0.13241625421E+02 -0.75478277790E+01  0.31197846513E+02  0.51100000000E-03 0.  1.
        -12    1    3    3    0    0  0.30120005329E+01  0.78570245387E+01  0.24320935140E+01  0.87589988396E+01  0.00000000000E+00 0.  1.
</event>
<event>
 7    1  0.2486105E-010  0.4778726E+02  0.7816164E-02  0.1312668E+00
        -11   -1    0    0    0    0  0.00000000000E+00  0.00000000000E+00  0.45593999997E+02  0.45594000000E+02  0.51100000000E-03 0.  1.
         11   -1    0    0    0    0 -0.00000000000E+00 -0.00000000000E+00 -0.45593999997E+02  0.45594000000E+02  0.51100000000E-03 0. -1.
    9900012    2    1    2    0    0 -0.36000823831E+02 -0.22003726816E+02  0.10168610140E+02  0.47787263341E+02  0.19999964879E+02 0.  0.
         12    1    1    2    0    0  0.36000823831E+02  0.22003726816E+02 -0.10168610140E+02  0.43400736659E+02  0.00000000000E+00 0. -1.
         11    1    3    3    0    0 -0.10444159555E+02 -0.12465361971E+02  0.19489978149E+01  0.16378776225E+02  0.51100000000E-03 0. -1.
        -11    1    3    3    0    0 -0.17828546980E+02 -0.86866089655E+01 -0.35299095460E+00  0.19835293434E+02  0.51100000000E-03 0.  1.
         12    1    3    3    0    0 -0.77281172966E+01 -0.85175587993E+00  0.85726032801E+01  0.11573193683E+02  0.00000000000E+00 0. -1.
</event>
<event>
 7    1  0.2486105E-010  0.4778727E+02  0.7816164E-02  0.1312668E+00
        -11   -1    0    0    0    0  0.00000000000E+00  0.00000000000E+00  0.45593999997E+02  0.45594000000E+02  0.51100000000E-03 0. -1.
         11   -1    0    0    0    0 -0.00000000000E+00 -0.00000000000E+00 -0.45593999997E+02  0.45594000000E+02  0.51100000000E-03 0.  1.
    9900012    2    1    2    0    0 -0.25934576940E+02  0.11616075301E+02 -0.32803781394E+02  0.47787267746E+02  0.19999984960E+02 0.  0.
         12    1    1    2    0    0  0.25934576940E+02 -0.11616075301E+02  0.32803781394E+02  0.43400732254E+02  0.00000000000E+00 0. -1.
         11    1    3    3    0    0  0.56783463112E+00  0.13548956795E+01  0.70135394508E+00  0.16279054297E+01  0.51100000000E-03 0. -1.
        -11    1    3    3    0    0 -0.15716998545E+02  0.11916061601E+02 -0.15413347212E+02  0.25031736653E+02  0.51100000000E-03 0.  1.
         12    1    3    3    0    0 -0.10785413026E+02 -0.16548819792E+01 -0.18091788127E+02  0.21127625663E+02  0.00000000000E+00 0. -1.
</event>
<event>
 7    1  0.2486105E-010  0.4778721E+02  0.7816164E-02  0.1312668E+00
        -11   -1    0    0    0    0  0.00000000000E+00  0.00000000000E+00  0.45593999997E+02  0.45594000000E+02  0.51100000000E-03 0. -1.
         11   -1    0    0    0    0 -0.00000000000E+00 -0.00000000000E+00 -0.45593999997E+02  0.45594000000E+02  0.51100000000E-03 0.  1.
    9900012    2    1    2    0    0 -0.23597237975E+02  0.36310045697E+02 -0.28947411387E+01  0.47787209859E+02  0.19999721031E+02 0.  0.
         12    1    1    2    0    0  0.23597237975E+02 -0.36310045697E+02  0.28947411387E+01  0.43400790141E+02  0.00000000000E+00 0. -1.
         11    1    3    3    0    0  0.61010164361E+00 -0.13499496419E+01 -0.22262464987E+00  0.14980487466E+01  0.51100000000E-03 0. -1.
        -11    1    3    3    0    0 -0.10354226785E+02  0.13679276061E+02  0.43891129182E+01  0.17708667887E+02  0.51100000000E-03 0.  1.
        -12    1    3    3    0    0 -0.13853112833E+02  0.23980719278E+02 -0.70612294070E+01  0.28580493226E+02  0.00000000000E+00 0.  1.
</event>
<event>
 7    1  0.2486105E-010  0.4778727E+02  0.7816164E-02  0.1312668E+00
        -11   -1    0    0    0    0  0.00000000000E+00  0.00000000000E+00  0.45593999997E+02  0.45594000000E+02  0.51100000000E-03 0.  1.
         11   -1    0    0    0    0 -0.00000000000E+00 -0.00000000000E+00 -0.45593999997E+02  0.45594000000E+02  0.51100000000E-03 0. -1.
    9900012    2    1    2    0    0  0.25236396898E+02  0.22287982742E+01  0.35238899854E+02  0.47787270363E+02  0.19999996891E+02 0.  0.
         12    1    1    2    0    0 -0.25236396898E+02 -0.22287982742E+01 -0.35238899854E+02  0.43400729637E+02  0.00000000000E+00 0. -1.
         11    1    3    3    0    0  0.10692986193E+02 -0.41946729599E+00  0.76564403760E+01  0.13158152835E+02  0.51100000000E-03 0. -1.
        -11    1    3    3    0    0  0.31931307867E+01 -0.75591514788E+00 -0.12070003009E+01  0.34963326385E+01  0.51100000000E-03 0.  1.
        -12    1    3    3    0    0  0.11350279918E+02  0.34041807181E+01  0.28789459779E+02  0.31132784889E+02  0.00000000000E+00 0.  1.
</event>
<event>
 7    1  0.2486105E-010  0.4778727E+02  0.7816164E-02  0.1312668E+00
        -11   -1    0    0    0    0  0.00000000000E+00  0.00000000000E+00  0.45593999997E+02  0.45594000000E+02  0.51100000000E-03 0.  1.
         11   -1    0    0    0    0 -0.00000000000E+00 -0.00000000000E+00 -0.45593999997E+02  0.45594000000E+02  0.51100000000E-03 0. -1.
    9900012    2    1    2    0    0  0.26788216184E+02 -0.17508402583E+02  0.29316729763E+02  0.47787270382E+02  0.19999996982E+02 0.  0.
         12    1    1    2    0    0 -0.26788216184E+02  0.17508402583E+02 -0.29316729763E+02  0.43400729618E+02  0.00000000000E+00 0. -1.
         11    1    3    3    0    0  0.12041804979E+02 -0.41326752662E+00  0.91949947045E+01  0.15156641616E+02  0.51100000000E-03 0.  1.
        -11    1    3    3    0    0  0.96172597550E+01 -0.84016831080E+01  0.35973757172E+01  0.13267293490E+02  0.51100000000E-03 0. -1.
        -12    1    3    3    0    0  0.51291514501E+01 -0.86934519489E+01  0.16524359341E+02  0.19363335276E+02  0.00000000000E+00 0.  1.
</event>
<event>
 7    1  0.2486105E-010  0.4778727E+02  0.7816164E-02  0.1312668E+00
        -11   -1    0    0    0    0  0.00000000000E+00  0.00000000000E+00  0.45593999997E+02  0.45594000000E+02  0.51100000000E-03 0. -1.
         11   -1    0    0    0    0 -0.00000000000E+00 -0.00000000000E+00 -0.45593999997E+02  0.45594000000E+02  0.51100000000E-03 0.  1.
    9900012    2    1    2    0    0  0.29350886657E+02 -0.17361821890E+02 -0.26846156804E+02  0.47787267955E+02  0.19999985914E+02 0.  0.
         12    1    1    2    0    0 -0.29350886657E+02  0.17361821890E+02  0.26846156804E+02  0.43400732045E+02  0.00000000000E+00 0. -1.
         11    1    3    3    0    0  0.43948049755E+00 -0.78199383509E+00  0.68053303855E+00  0.11259586775E+01  0.51100000000E-03 0. -1.
        -11    1    3    3    0    0  0.14530031170E+02 -0.10225678799E+02 -0.25100594157E+02  0.30752660698E+02  0.51100000000E-03 0.  1.
        -12    1    3    3    0    0  0.14381374990E+02 -0.63541492555E+01 -0.24260956854E+01  0.15908648580E+02  0.00000000000E+00 0.  1.
</event>
<event>
 7    1  0.2486105E-010  0.4778727E+02  0.7816164E-02  0.1312668E+00
        -11   -1    0    0    0    0  0.00000000000E+00  0.00000000000E+00  0.45593999997E+02  0.45594000000E+02  0.51100000000E-03 0.  1.
         11   -1    0    0    0    0 -0.00000000000E+00 -0.00000000000E+00 -0.45593999997E+02  0.45594000000E+02  0.51100000000E-03 0. -1.
    9900012    2    1    2    0    0 -0.37151627222E+02  0.22367103351E+02 -0.17586337212E+01  0.47787268323E+02  0.19999987592E+02 0.  0.
         12    1    1    2    0    0  0.37151627222E+02 -0.22367103351E+02  0.17586337212E+01  0.43400731677E+02  0.00000000000E+00 0. -1.
         11    1    3    3    0    0 -0.55778899780E+01 -0.15764108364E+01  0.26951956226E+01  0.63923397467E+01  0.51100000000E-03 0. -1.
        -11    1    3    3    0    0 -0.11345934793E+02  0.44893528965E+01  0.25590324604E+01  0.12467284113E+02  0.51100000000E-03 0.  1.
        -12    1    3    3    0    0 -0.20227802451E+02  0.19454161291E+02 -0.70128618043E+01  0.28927644463E+02  0.00000000000E+00 0.  1.
</event>
<event>
 7    1  0.2486105E-010  0.4778727E+02  0.7816164E-02  0.1312668E+00
        -11   -1    0    0    0    0  0.00000000000E+00  0.00000000000E+00  0.45593999997E+02  0.45594000000E+02  0.51100000000E-03 0.  1.
         11   -1    0    0    0    0 -0.00000000000E+00 -0.00000000000E+00 -0.45593999997E+02  0.45594000000E+02  0.51100000000E-03 0. -1.
    9900012    2    1    2    0    0 -0.10325851319E+02  0.16437225048E+01  0.42122419066E+02  0.47787271699E+02  0.20000002984E+02 0.  0.
         12    1    1    2    0    0  0.10325851319E+02 -0.16437225048E+01 -0.42122419066E+02  0.43400728301E+02  0.00000000000E+00 0. -1.
         11    1    3    3    0    0 -0.82984239479E+01  0.29152351717E+00  0.84307936454E+01  0.11833305022E+02  0.51100000000E-03 0. -1.
        -11    1    3    3    0    0 -0.21714293093E+01 -0.53497947330E+01  0.13646573058E+02  0.14817704459E+02  0.51100000000E-03 0.  1.
         12    1    3    3    0    0  0.14400193865E+00  0.67019937205E+01  0.20045052362E+02  0.21136262219E+02  0.00000000000E+00 0. -1.
</event>
<event>
 7    1  0.2486105E-010  0.4778727E+02  0.7816164E-02  0.1312668E+00
        -11   -1    0    0    0    0  0.00000000000E+00  0.00000000000E+00  0.45593999997E+02  0.45594000000E+02  0.51100000000E-03 0.  1.
         11   -1    0    0    0    0 -0.00000000000E+00 -0.00000000000E+00 -0.45593999997E+02  0.45594000000E+02  0.51100000000E-03 0. -1.
    9900012    2    1    2    0    0 -0.36447151625E+02 -0.12476206917E+02  0.19989309027E+02  0.47787273324E+02  0.20000010392E+02 0.  0.
         12    1    1    2    0    0  0.36447151625E+02  0.12476206917E+02 -0.19989309027E+02  0.43400726676E+02  0.00000000000E+00 0. -1.
         11    1    3    3    0    0 -0.19959054762E+02 -0.67797499662E+01  0.12871915408E+02  0.24698483417E+02  0.51100000000E-03 0. -1.
        -11    1    3    3    0    0 -0.16145896568E+02 -0.76762742968E+00  0.25570068032E+01  0.16365130977E+02  0.51100000000E-03 0.  1.
         12    1    3    3    0    0 -0.34220029636E+00 -0.49288295211E+01  0.45603868161E+01  0.67236589297E+01  0.00000000000E+00 0. -1.
</event>
<event>
 7    1  0.2486105E-010  0.4778727E+02  0.7816164E-02  0.1312668E+00
        -11   -1    0    0    0    0  0.00000000000E+00  0.00000000000E+00  0.45593999997E+02  0.45594000000E+02  0.51100000000E-03 0.  1.
         11   -1    0    0    0    0 -0.00000000000E+00 -0.00000000000E+00 -0.45593999997E+02  0.45594000000E+02  0.51100000000E-03 0. -1.
    9900012    2    1    2    0    0  0.17788470752E+02  0.13730482668E+02  0.37130416308E+02  0.47787266582E+02  0.19999979656E+02 0.  0.
         12    1    1    2    0    0 -0.17788470752E+02 -0.13730482668E+02 -0.37130416308E+02  0.43400733418E+02  0.00000000000E+00 0. -1.
         11    1    3    3    0    0 -0.25112146771E+01  0.27117614384E+01 -0.51144767710E-02  0.36959269030E+01  0.51100000000E-03 0. -1.
        -11    1    3    3    0    0  0.73897259493E+01  0.27824364349E+01  0.83906405043E+01  0.11521842320E+02  0.51100000000E-03 0.  1.
         12    1    3    3    0    0  0.12909959479E+02  0.82362847945E+01  0.28744890281E+02  0.32569497359E+02  0.00000000000E+00 0. -1.
</event>
<event>
 7    1  0.2486105E-010  0.4778727E+02  0.7816164E-02  0.1312668E+00
        -11   -1    0    0    0    0  0.00000000000E+00  0.00000000000E+00  0.45593999997E+02  0.45594000000E+02  0.51100000000E-03 0.  1.
         11   -1    0    0    0    0 -0.00000000000E+00 -0.00000000000E+00 -0.45593999997E+02  0.45594000000E+02  0.51100000000E-03 0. -1.
    9900012    2    1    2    0    0 -0.43329061781E+02  0.24443174127E+01 -0.49102146929E+00  0.47787269770E+02  0.19999994189E+02 0.  0.
         12    1    1    2    0    0  0.43329061781E+02 -0.24443174127E+01  0.49102146929E+00  0.43400730230E+02  0.00000000000E+00 0. -1.
         11    1    3    3    0    0 -0.97731550646E+01 -0.53371581828E+01 -0.37857689723E+00  0.11141953963E+02  0.51100000000E-03 0. -1.
        -11    1    3    3    0    0 -0.92421407014E+01  0.18746110838E+01  0.56173945070E+01  0.10976632123E+02  0.51100000000E-03 0.  1.
        -12    1    3    3    0    0 -0.24313766015E+02  0.59068645118E+01 -0.57298390791E+01  0.25668683684E+02  0.00000000000E+00 0.  1.
</event>
<event>
 7    1  0.2486105E-010  0.4778727E+02  0.7816164E-02  0.1312668E+00
        -11   -1    0    0    0    0  0.00000000000E+00  0.00000000000E+00  0.45593999997E+02  0.45594000000E+02  0.51100000000E-03 0. -1.
         11   -1    0    0    0    0 -0.00000000000E+00 -0.00000000000E+00 -0.45593999997E+02  0.45594000000E+02  0.51100000000E-03 0.  1.
    9900012    2    1    2    0    0  0.33453216962E+02  0.26734530164E+02  0.70548185337E+01  0.47787270827E+02  0.19999999009E+02 0.  0.
         12    1    1    2    0    0 -0.33453216962E+02 -0.26734530164E+02 -0.70548185337E+01  0.43400729173E+02  0.00000000000E+00 0. -1.
         11    1    3    3    0    0 -0.68228242629E+00 -0.10623232560E+01 -0.53548161698E+00  0.13714156309E+01  0.51100000000E-03 0. -1.
        -11    1    3    3    0    0  0.12703162586E+02  0.91997450852E+01  0.88552107751E+01  0.18011674199E+02  0.51100000000E-03 0.  1.
        -12    1    3    3    0    0  0.21432336802E+02  0.18597108334E+02 -0.12649106244E+01  0.28404180997E+02  0.00000000000E+00 0.  1.
</event>
<event>
 7    1  0.2486105E-010  0.4778727E+02  0.7816164E-02  0.1312668E+00
        -11   -1    0    0    0    0  0.00000000000E+00  0.00000000000E+00  0.45593999997E+02  0.45594000000E+02  0.51100000000E-03 0.  1.
         11   -1    0    0    0    0 -0.00000000000E+00 -0.00000000000E+00 -0.45593999997E+02  0.45594000000E+02  0.51100000000E-03 0. -1.
    9900012    2    1    2    0    0  0.40990337854E+02  0.10641004041E+02  0.94965641867E+01  0.47787268488E+02  0.19999988346E+02 0.  0.
         12    1    1    2    0    0 -0.40990337854E+02 -0.10641004041E+02 -0.94965641867E+01  0.43400731512E+02  0.00000000000E+00 0. -1.
         11    1    3    3    0    0  0.29177320670E+01  0.25956058502E+01  0.42009119567E+01  0.57356770894E+01  0.51100000000E-03 0. -1.
        -11    1    3    3    0    0  0.61988967282E+01  0.33843940399E+01 -0.45096859192E+01  0.83796008864E+01  0.51100000000E-03 0.  1.
         12    1    3    3    0    0  0.31873709059E+02  0.46610041510E+01  0.98053381491E+01  0.33671990513E+02  0.00000000000E+00 0. -1.
</event>
<event>
 7    1  0.2486105E-010  0.4778727E+02  0.7816164E-02  0.1312668E+00
        -11   -1    0    0    0    0  0.00000000000E+00  0.00000000000E+00  0.45593999997E+02  0.45594000000E+02  0.51100000000E-03 0.  1.
         11   -1    0    0    0    0 -0.00000000000E+00 -0.00000000000E+00 -0.45593999997E+02  0.45594000000E+02  0.51100000000E-03 0. -1.
    9900012    2    1    2    0    0  0.14816583676E+01 -0.18608280630E+02  0.39181114376E+02  0.47787272549E+02  0.20000006859E+02 0.  0.
         12    1    1    2    0    0 -0.14816583676E+01  0.18608280630E+02 -0.39181114376E+02  0.43400727451E+02  0.00000000000E+00 0. -1.
         11    1    3    3    0    0 -0.18127666880E+01  0.90558987067E+00  0.30238108757E+00  0.20488168933E+01  0.51100000000E-03 0. -1.
        -11    1    3    3    0    0  0.68209301508E+01 -0.36817758373E+01  0.14786016989E+02  0.16694515869E+02  0.51100000000E-03 0.  1.
        -12    1    3    3    0    0 -0.35265050952E+01 -0.15832094664E+02  0.24092716300E+02  0.29043939786E+02  0.00000000000E+00 0.  1.
</event>
<event>
 7    1  0.2486105E-010  0.4778727E+02  0.7816164E-02  0.1312668E+00
        -11   -1    0    0    0    0  0.00000000000E+00  0.00000000000E+00  0.45593999997E+02  0.45594000000E+02  0.51100000000E-03 0. -1.
         11   -1    0    0    0    0 -0.00000000000E+00 -0.00000000000E+00 -0.45593999997E+02  0.45594000000E+02  0.51100000000E-03 0.  1.
    9900012    2    1    2    0    0  0.11145343557E+02 -0.35470694913E+02 -0.22388264814E+02  0.47787270951E+02  0.19999999574E+02 0.  0.
         12    1    1    2    0    0 -0.11145343557E+02  0.35470694913E+02  0.22388264814E+02  0.43400729049E+02  0.00000000000E+00 0. -1.
         11    1    3    3    0    0  0.84502250910E+01 -0.17716780757E+02 -0.78524075452E+01  0.21141213991E+02  0.51100000000E-03 0. -1.
        -11    1    3    3    0    0  0.79900593667E+01 -0.12628726283E+02 -0.10246045531E+02  0.18119250137E+02  0.51100000000E-03 0.  1.
        -12    1    3    3    0    0 -0.52949409003E+01 -0.51251878726E+01 -0.42898117371E+01  0.85268068236E+01  0.00000000000E+00 0.  1.
</event>
<event>
 7    1  0.2486105E-010  0.4778728E+02  0.7816164E-02  0.1312668E+00
        -11   -1    0    0    0    0  0.00000000000E+00  0.00000000000E+00  0.45593999997E+02  0.45594000000E+02  0.51100000000E-03 0. -1.
         11   -1    0    0    0    0 -0.00000000000E+00 -0.00000000000E+00 -0.45593999997E+02  0.45594000000E+02  0.51100000000E-03 0.  1.
    9900012    2    1    2    0    0  0.31400194718E+02 -0.29786644047E+02  0.32259049719E+01  0.47787275872E+02  0.20000022012E+02 0.  0.
         12    1    1    2    0    0 -0.31400194718E+02  0.29786644047E+02 -0.32259049719E+01  0.43400724128E+02  0.00000000000E+00 0. -1.
         11    1    3    3    0    0  0.36167870728E+01 -0.20652897354E+01  0.39123500275E+01  0.57142850314E+01  0.51100000000E-03 0. -1.
        -11    1    3    3    0    0  0.15648292229E+02 -0.84913510156E+01  0.52693566425E+01  0.18567127173E+02  0.51100000000E-03 0.  1.
         12    1    3    3    0    0  0.12135115416E+02 -0.19230003296E+02 -0.59558016981E+01  0.23505863668E+02  0.00000000000E+00 0. -1.
</event>
<event>
 7    1  0.2486105E-010  0.4778728E+02  0.7816164E-02  0.1312668E+00
        -11   -1    0    0    0    0  0.00000000000E+00  0.00000000000E+00  0.45593999997E+02  0.45594000000E+02  0.51100000000E-03 0.  1.
         11   -1    0    0    0    0 -0.00000000000E+00 -0.00000000000E+00 -0.45593999997E+02  0.45594000000E+02  0.51100000000E-03 0. -1.
    9900012    2    1    2    0    0 -0.24823951909E+02  0.40751651783E+01  0.35366463966E+02  0.47787281883E+02  0.20000049417E+02 0.  0.
         12    1    1    2    0    0  0.24823951909E+02 -0.40751651783E+01 -0.35366463966E+02  0.43400718117E+02  0.00000000000E+00 0. -1.
         11    1    3    3    0    0  0.10498009919E+01 -0.18363400584E+01  0.56346911153E+01  0.60186353236E+01  0.51100000000E-03 0. -1.
        -11    1    3    3    0    0 -0.19168263204E+02 -0.10704739519E+01  0.23090861832E+02  0.30029254555E+02  0.51100000000E-03 0.  1.
         12    1    3    3    0    0 -0.67054896971E+01  0.69819791885E+01  0.66409110191E+01  0.11739392004E+02  0.00000000000E+00 0. -1.
</event>
<event>
 7    1  0.2486105E-010  0.4778727E+02  0.7816164E-02  0.1312668E+00
        -11   -1    0    0    0    0  0.00000000000E+00  0.00000000000E+00  0.45593999997E+02  0.45594000000E+02  0.51100000000E-03 0. -1.
         11   -1    0    0    0    0 -0.00000000000E+00 -0.00000000000E+00 -0.45593999997E+02  0.45594000000E+02  0.51100000000E-03 0.  1.
    9900012    2    1    2    0    0  0.26190721843E+02  0.58037987123E+01 -0.34117226988E+02  0.47787272270E+02  0.20000005589E+02 0.  0.
         12    1    1    2    0    0 -0.26190721843E+02 -0.58037987123E+01  0.34117226988E+02  0.43400727730E+02  0.00000000000E+00 0. -1.
         11    1    3    3    0    0  0.58750681933E+01  0.39187058470E+01 -0.40463080516E+01  0.81391210152E+01  0.51100000000E-03 0. -1.
        -11    1    3    3    0    0  0.15439485210E+02  0.40187639508E+01 -0.30382449703E+02  0.34316489003E+02  0.51100000000E-03 0.  1.
        -12    1    3    3    0    0  0.48761684398E+01 -0.21336710855E+01  0.31153076723E+00  0.53316622524E+01  0.00000000000E+00 0.  1.
</event>
<event>
 7    1  0.2486105E-010  0.4778727E+02  0.7816164E-02  0.1312668E+00
        -11   -1    0    0    0    0  0.00000000000E+00  0.00000000000E+00  0.45593999997E+02  0.45594000000E+02  0.51100000000E-03 0.  1.
         11   -1    0    0    0    0 -0.00000000000E+00 -0.00000000000E+00 -0.45593999997E+02  0.45594000000E+02  0.51100000000E-03 0. -1.
    9900012    2    1    2    0    0  0.92633340985E+01  0.19297863040E+02  0.37754555774E+02  0.47787270073E+02  0.19999995570E+02 0.  0.
         12    1    1    2    0    0 -0.92633340985E+01 -0.19297863040E+02 -0.37754555774E+02  0.43400729927E+02  0.00000000000E+00 0. -1.
         11    1    3    3    0    0  0.56132639439E+01  0.85699266037E+01  0.16959481772E+02  0.19813540732E+02  0.51100000000E-03 0. -1.
        -11    1    3    3    0    0  0.12417678587E+01  0.14249731421E+02  0.14489022107E+02  0.20359975316E+02  0.51100000000E-03 0.  1.
         12    1    3    3    0    0  0.24083022959E+01 -0.35217949842E+01  0.63060518949E+01  0.76137540255E+01  0.00000000000E+00 0. -1.
</event>
<event>
 7    1  0.2486105E-010  0.4778727E+02  0.7816164E-02  0.1312668E+00
        -11   -1    0    0    0    0  0.00000000000E+00  0.00000000000E+00  0.45593999997E+02  0.45594000000E+02  0.51100000000E-03 0.  1.
         11   -1    0    0    0    0 -0.00000000000E+00 -0.00000000000E+00 -0.45593999997E+02  0.45594000000E+02  0.51100000000E-03 0. -1.
    9900012    2    1    2    0    0 -0.41806046306E+02  0.11415473780E+02 -0.23589710099E+01  0.47787270817E+02  0.19999998965E+02 0.  0.
         12    1    1    2    0    0  0.41806046306E+02 -0.11415473780E+02  0.23589710099E+01  0.43400729183E+02  0.00000000000E+00 0. -1.
         11    1    3    3    0    0 -0.96592393247E+01  0.35883640468E+01 -0.56302375984E+00  0.10319605461E+02  0.51100000000E-03 0. -1.
        -11    1    3    3    0    0 -0.30657462591E+02  0.27815434174E+01  0.21991747842E+01  0.30861843210E+02  0.51100000000E-03 0.  1.
         12    1    3    3    0    0 -0.14893443901E+01  0.50455663156E+01 -0.39951220342E+01  0.66058221461E+01  0.00000000000E+00 0. -1.
</event>
<event>
 7    1  0.2486105E-010  0.4778727E+02  0.7816164E-02  0.1312668E+00
        -11   -1    0    0    0    0  0.00000000000E+00  0.00000000000E+00  0.45593999997E+02  0.45594000000E+02  0.51100000000E-03 0. -1.
         11   -1    0    0    0    0 -0.00000000000E+00 -0.00000000000E+00 -0.45593999997E+02  0.45594000000E+02  0.51100000000E-03 0.  1.
    9900012    2    1    2    0    0 -0.57310647223E+01 -0.20006922924E+02 -0.38085446693E+02  0.47787270541E+02  0.19999997707E+02 0.  0.
         12    1    1    2    0    0  0.57310647223E+01  0.20006922924E+02  0.38085446693E+02  0.43400729459E+02  0.00000000000E+00 0. -1.
         11    1    3    3    0    0  0.15728559541E+01 -0.61134674406E+00 -0.26840070479E+01  0.31704124003E+01  0.51100000000E-03 0.  1.
        -11    1    3    3    0    0  0.42497499128E+01 -0.13027156915E+02 -0.14952458360E+02  0.20281597641E+02  0.51100000000E-03 0. -1.
         12    1    3    3    0    0 -0.11553670589E+02 -0.63684192654E+01 -0.20448981285E+02  0.24335260500E+02  0.00000000000E+00 0. -1.
</event>
<event>
 7    1  0.2486105E-010  0.4778725E+02  0.7816164E-02  0.1312668E+00
        -11   -1    0    0    0    0  0.00000000000E+00  0.00000000000E+00  0.45593999997E+02  0.45594000000E+02  0.51100000000E-03 0. -1.
         11   -1    0    0    0    0 -0.00000000000E+00 -0.00000000000E+00 -0.45593999997E+02  0.45594000000E+02  0.51100000000E-03 0.  1.
    9900012    2    1    2    0    0  0.74586740377E+01 -0.30074575033E+02 -0.30389362126E+02  0.47787248713E+02  0.19999898184E+02 0.  0.
         12    1    1    2    0    0 -0.74586740377E+01  0.30074575033E+02  0.30389362126E+02  0.43400751287E+02  0.00000000000E+00 0. -1.
         11    1    3    3    0    0  0.25365501767E+01 -0.50298798649E-01 -0.22831683631E+01  0.34131326964E+01  0.51100000000E-03 0. -1.
        -11    1    3    3    0    0  0.92324652055E+01 -0.14140635650E+02 -0.89291663213E+01  0.19103036455E+02  0.51100000000E-03 0.  1.
         12    1    3    3    0    0 -0.43103413444E+01 -0.15883640585E+02 -0.19177027442E+02  0.25271079562E+02  0.00000000000E+00 0. -1.
</event>
<event>
 7    1  0.2486105E-010  0.4778728E+02  0.7816164E-02  0.1312668E+00
        -11   -1    0    0    0    0  0.00000000000E+00  0.00000000000E+00  0.45593999997E+02  0.45594000000E+02  0.51100000000E-03 0.  1.
         11   -1    0    0    0    0 -0.00000000000E+00 -0.00000000000E+00 -0.45593999997E+02  0.45594000000E+02  0.51100000000E-03 0. -1.
    9900012    2    1    2    0    0 -0.33066718627E+02  0.50996824959E+01  0.27644315788E+02  0.47787276070E+02  0.20000022912E+02 0.  0.
         12    1    1    2    0    0  0.33066718627E+02 -0.50996824959E+01 -0.27644315788E+02  0.43400723930E+02  0.00000000000E+00 0. -1.
         11    1    3    3    0    0 -0.75824118706E+01 -0.43659756027E+01  0.11607324822E+02  0.14535635608E+02  0.51100000000E-03 0. -1.
        -11    1    3    3    0    0 -0.90801037295E+01 -0.16748610014E+01  0.61502463035E+01  0.11094096311E+02  0.51100000000E-03 0.  1.
         12    1    3    3    0    0 -0.16404203027E+02  0.11140519100E+02  0.98867446620E+01  0.22157544150E+02  0.00000000000E+00 0. -1.
</event>
<event>
 7    1  0.2486105E-010  0.4778726E+02  0.7816164E-02  0.1312668E+00
        -11   -1    0    0    0    0  0.00000000000E+00  0.00000000000E+00  0.45593999997E+02  0.45594000000E+02  0.51100000000E-03 0.  1.
         11   -1    0    0    0    0 -0.00000000000E+00 -0.00000000000E+00 -0.45593999997E+02  0.45594000000E+02  0.51100000000E-03 0. -1.
    9900012    2    1    2    0    0 -0.44368128924E+01  0.18281586521E+01  0.43134634181E+02  0.47787261082E+02  0.19999954577E+02 0.  0.
         12    1    1    2    0    0  0.44368128924E+01 -0.18281586521E+01 -0.43134634181E+02  0.43400738918E+02  0.00000000000E+00 0. -1.
         11    1    3    3    0    0 -0.43931344761E+01  0.18394888177E+01  0.40389996324E+00  0.47797996900E+01  0.51100000000E-03 0. -1.
        -11    1    3    3    0    0  0.12971415314E+01  0.15471792769E+01  0.94493333555E+01  0.96626208138E+01  0.51100000000E-03 0.  1.
         12    1    3    3    0    0 -0.13408199476E+01 -0.15585094425E+01  0.33281400862E+02  0.33344840578E+02  0.00000000000E+00 0. -1.
</event>
<event>
 7    1  0.2486105E-010  0.4778728E+02  0.7816164E-02  0.1312668E+00
        -11   -1    0    0    0    0  0.00000000000E+00  0.00000000000E+00  0.45593999997E+02  0.45594000000E+02  0.51100000000E-03 0.  1.
         11   -1    0    0    0    0 -0.00000000000E+00 -0.00000000000E+00 -0.45593999997E+02  0.45594000000E+02  0.51100000000E-03 0. -1.
    9900012    2    1    2    0    0 -0.29320947056E+02  0.31912596336E+02 -0.23433071777E+01  0.47787276162E+02  0.20000023333E+02 0.  0.
         12    1    1    2    0    0  0.29320947056E+02 -0.31912596336E+02  0.23433071777E+01  0.43400723838E+02  0.00000000000E+00 0. -1.
         11    1    3    3    0    0 -0.10791225402E+02  0.10700175416E+02 -0.61723647763E+01  0.16402511601E+02  0.51100000000E-03 0. -1.
        -11    1    3    3    0    0 -0.52705276471E+01  0.77192604663E+01 -0.48966120902E+01  0.10551883910E+02  0.51100000000E-03 0.  1.
        -12    1    3    3    0    0 -0.13259194007E+02  0.13493160453E+02  0.87256696888E+01  0.20832880651E+02  0.00000000000E+00 0.  1.
</event>
<event>
 7    1  0.2486105E-010  0.4778726E+02  0.7816164E-02  0.1312668E+00
        -11   -1    0    0    0    0  0.00000000000E+00  0.00000000000E+00  0.45593999997E+02  0.45594000000E+02  0.51100000000E-03 0. -1.
         11   -1    0    0    0    0 -0.00000000000E+00 -0.00000000000E+00 -0.45593999997E+02  0.45594000000E+02  0.51100000000E-03 0.  1.
    9900012    2    1    2    0    0  0.29560726242E+02  0.14111024487E+02 -0.28472210739E+02  0.47787258850E+02  0.19999944401E+02 0.  0.
         12    1    1    2    0    0 -0.29560726242E+02 -0.14111024487E+02  0.28472210739E+02  0.43400741150E+02  0.00000000000E+00 0. -1.
         11    1    3    3    0    0  0.69964475626E+01 -0.62033530184E+00 -0.28906592797E+00  0.70298402368E+01  0.51100000000E-03 0. -1.
        -11    1    3    3    0    0  0.12267844263E+02  0.50020674928E+01 -0.62532972175E+01  0.14650065133E+02  0.51100000000E-03 0.  1.
        -12    1    3    3    0    0  0.10296434416E+02  0.97292922956E+01 -0.21929847593E+02  0.26107353480E+02  0.00000000000E+00 0.  1.
</event>
<event>
 7    1  0.2486105E-010  0.4778727E+02  0.7816164E-02  0.1312668E+00
        -11   -1    0    0    0    0  0.00000000000E+00  0.00000000000E+00  0.45593999997E+02  0.45594000000E+02  0.51100000000E-03 0. -1.
         11   -1    0    0    0    0 -0.00000000000E+00 -0.00000000000E+00 -0.45593999997E+02  0.45594000000E+02  0.51100000000E-03 0.  1.
    9900012    2    1    2    0    0  0.20978215898E+02  0.37425304757E+02  0.65485995465E+01  0.47787272650E+02  0.20000007322E+02 0.  0.
         12    1    1    2    0    0 -0.20978215898E+02 -0.37425304757E+02 -0.65485995465E+01  0.43400727350E+02  0.00000000000E+00 0. -1.
         11    1    3    3    0    0  0.61091535120E+01  0.34389209512E+01 -0.10720232560E+01  0.70920496378E+01  0.51100000000E-03 0. -1.
        -11    1    3    3    0    0  0.96996792885E+01  0.16638348529E+02  0.11147846816E+02  0.22252930345E+02  0.51100000000E-03 0.  1.
        -12    1    3    3    0    0  0.51693830976E+01  0.17348035278E+02 -0.35272240130E+01  0.18442292668E+02  0.00000000000E+00 0.  1.
</event>
<event>
 7    1  0.2486105E-010  0.4778728E+02  0.7816164E-02  0.1312668E+00
        -11   -1    0    0    0    0  0.00000000000E+00  0.00000000000E+00  0.45593999997E+02  0.45594000000E+02  0.51100000000E-03 0.  1.
         11   -1    0    0    0    0 -0.00000000000E+00 -0.00000000000E+00 -0.45593999997E+02  0.45594000000E+02  0.51100000000E-03 0. -1.
    9900012    2    1    2    0    0 -0.65704199569E+01  0.12122336111E+01  0.42883357308E+02  0.47787282693E+02  0.20000053109E+02 0.  0.
         12    1    1    2    0    0  0.65704199569E+01 -0.12122336111E+01 -0.42883357308E+02  0.43400717307E+02  0.00000000000E+00 0. -1.
         11    1    3    3    0    0  0.13820792115E+01 -0.30239457686E+01  0.16189587573E+02  0.16527466139E+02  0.51100000000E-03 0. -1.
        -11    1    3    3    0    0  0.58157238263E-01  0.46013352638E+01  0.20812892856E+02  0.21315538412E+02  0.51100000000E-03 0.  1.
        -12    1    3    3    0    0 -0.80106564066E+01 -0.36515588404E+00  0.58808768796E+01  0.99442781416E+01  0.00000000000E+00 0.  1.
</event>
<event>
 7    1  0.2486105E-010  0.4778727E+02  0.7816164E-02  0.1312668E+00
        -11   -1    0    0    0    0  0.00000000000E+00  0.00000000000E+00  0.45593999997E+02  0.45594000000E+02  0.51100000000E-03 0.  1.
         11   -1    0    0    0    0 -0.00000000000E+00 -0.00000000000E+00 -0.45593999997E+02  0.45594000000E+02  0.51100000000E-03 0. -1.
    9900012    2    1    2    0    0  0.34720922160E+02 -0.21843201121E+02  0.14175887693E+02  0.47787266564E+02  0.19999979574E+02 0.  0.
         12    1    1    2    0    0 -0.34720922160E+02  0.21843201121E+02 -0.14175887693E+02  0.43400733436E+02  0.00000000000E+00 0. -1.
         11    1    3    3    0    0  0.20339565833E+02 -0.48016665419E+01  0.38976961679E+01  0.21259021039E+02  0.51100000000E-03 0. -1.
        -11    1    3    3    0    0  0.10188803498E+02 -0.47614867967E+01  0.66039129426E+01  0.13042052739E+02  0.51100000000E-03 0.  1.
        -12    1    3    3    0    0  0.41925528287E+01 -0.12280047782E+02  0.36742785828E+01  0.13486192786E+02  0.00000000000E+00 0.  1.
</event>
<event>
 7    1  0.2486105E-010  0.4778728E+02  0.7816164E-02  0.1312668E+00
        -11   -1    0    0    0    0  0.00000000000E+00  0.00000000000E+00  0.45593999997E+02  0.45594000000E+02  0.51100000000E-03 0.  1.
         11   -1    0    0    0    0 -0.00000000000E+00 -0.00000000000E+00 -0.45593999997E+02  0.45594000000E+02  0.51100000000E-03 0. -1.
    9900012    2    1    2    0    0  0.12317570212E+01  0.41164649925E+02  0.13695861927E+02  0.47787282693E+02  0.20000053113E+02 0.  0.
         12    1    1    2    0    0 -0.12317570212E+01 -0.41164649925E+02 -0.13695861927E+02  0.43400717307E+02  0.00000000000E+00 0. -1.
         11    1    3    3    0    0  0.38043501342E+01  0.61385490617E+01  0.74448099036E+01  0.10372080760E+02  0.51100000000E-03 0.  1.
        -11    1    3    3    0    0  0.15993312752E+01  0.12976013057E+02 -0.25306536502E+01  0.13316868384E+02  0.51100000000E-03 0. -1.
        -12    1    3    3    0    0 -0.41719243882E+01  0.22050087806E+02  0.87817056731E+01  0.24098333550E+02  0.00000000000E+00 0.  1.
</event>
<event>
 7    1  0.2486105E-010  0.4778725E+02  0.7816164E-02  0.1312668E+00
        -11   -1    0    0    0    0  0.00000000000E+00  0.00000000000E+00  0.45593999997E+02  0.45594000000E+02  0.51100000000E-03 0. -1.
         11   -1    0    0    0    0 -0.00000000000E+00 -0.00000000000E+00 -0.45593999997E+02  0.45594000000E+02  0.51100000000E-03 0.  1.
    9900012    2    1    2    0    0 -0.42212703160E+01  0.16495340466E+02 -0.39921293162E+02  0.47787250837E+02  0.19999907868E+02 0.  0.
         12    1    1    2    0    0  0.42212703160E+01 -0.16495340466E+02  0.39921293162E+02  0.43400749163E+02  0.00000000000E+00 0. -1.
         11    1    3    3    0    0 -0.20133011861E+01  0.23207670391E+01 -0.13404765951E+01  0.33520469983E+01  0.51100000000E-03 0. -1.
        -11    1    3    3    0    0 -0.47821702705E+01  0.13670690083E+02 -0.39157027331E+02  0.41749607298E+02  0.51100000000E-03 0.  1.
        -12    1    3    3    0    0  0.25742011406E+01  0.50388334382E+00  0.57621076486E+00  0.26855965411E+01  0.00000000000E+00 0.  1.
</event>
<event>
 7    1  0.2486105E-010  0.4778727E+02  0.7816164E-02  0.1312668E+00
        -11   -1    0    0    0    0  0.00000000000E+00  0.00000000000E+00  0.45593999997E+02  0.45594000000E+02  0.51100000000E-03 0. -1.
         11   -1    0    0    0    0 -0.00000000000E+00 -0.00000000000E+00 -0.45593999997E+02  0.45594000000E+02  0.51100000000E-03 0.  1.
    9900012    2    1    2    0    0 -0.18566769177E+02  0.39148117751E+02 -0.25146721322E+01  0.47787267090E+02  0.19999981972E+02 0.  0.
         12    1    1    2    0    0  0.18566769177E+02 -0.39148117751E+02  0.25146721322E+01  0.43400732910E+02  0.00000000000E+00 0. -1.
         11    1    3    3    0    0 -0.11074640441E+02  0.19235474383E+02 -0.35779067841E+01  0.22482271968E+02  0.51100000000E-03 0. -1.
        -11    1    3    3    0    0 -0.55556641913E+01  0.16951078379E+02 -0.47856187916E+01  0.18469071722E+02  0.51100000000E-03 0.  1.
         12    1    3    3    0    0 -0.19364645452E+01  0.29615649892E+01  0.58488534435E+01  0.68359233995E+01  0.00000000000E+00 0. -1.
</event>
<event>
 7    1  0.2486105E-010  0.4778727E+02  0.7816164E-02  0.1312668E+00
        -11   -1    0    0    0    0  0.00000000000E+00  0.00000000000E+00  0.45593999997E+02  0.45594000000E+02  0.51100000000E-03 0.  1.
         11   -1    0    0    0    0 -0.00000000000E+00 -0.00000000000E+00 -0.45593999997E+02  0.45594000000E+02  0.51100000000E-03 0. -1.
    9900012    2    1    2    0    0  0.27860101655E+02 -0.50834034929E+01  0.32887641518E+02  0.47787271666E+02  0.20000002835E+02 0.  0.
         12    1    1    2    0    0 -0.27860101655E+02  0.50834034929E+01 -0.32887641518E+02  0.43400728334E+02  0.00000000000E+00 0. -1.
         11    1    3    3    0    0  0.63786063104E+01 -0.38604703341E+01  0.13669174397E+02  0.15570362187E+02  0.51100000000E-03 0.  1.
        -11    1    3    3    0    0  0.51777839142E-02 -0.25929952865E+01  0.70120654591E+01  0.74761429648E+01  0.51100000000E-03 0. -1.
        -12    1    3    3    0    0  0.21476317561E+02  0.13700621278E+01  0.12206401661E+02  0.24740766514E+02  0.00000000000E+00 0.  1.
</event>
<event>
 7    1  0.2486105E-010  0.4778727E+02  0.7816164E-02  0.1312668E+00
        -11   -1    0    0    0    0  0.00000000000E+00  0.00000000000E+00  0.45593999997E+02  0.45594000000E+02  0.51100000000E-03 0.  1.
         11   -1    0    0    0    0 -0.00000000000E+00 -0.00000000000E+00 -0.45593999997E+02  0.45594000000E+02  0.51100000000E-03 0. -1.
    9900012    2    1    2    0    0  0.22598274654E+02 -0.16374650632E+02  0.33238708994E+02  0.47787274474E+02  0.20000015635E+02 0.  0.
         12    1    1    2    0    0 -0.22598274654E+02  0.16374650632E+02 -0.33238708994E+02  0.43400725526E+02  0.00000000000E+00 0. -1.
         11    1    3    3    0    0  0.99654274596E+01 -0.13861691997E+02  0.15246462645E+02  0.22889099435E+02  0.51100000000E-03 0. -1.
        -11    1    3    3    0    0  0.70568335080E+01 -0.56206983536E+01  0.15715153825E+02  0.18120629381E+02  0.51100000000E-03 0.  1.
         12    1    3    3    0    0  0.55760136864E+01  0.31077397186E+01  0.22770925233E+01  0.67775456582E+01  0.00000000000E+00 0. -1.
</event>
<event>
 7    1  0.2486105E-010  0.4778727E+02  0.7816164E-02  0.1312668E+00
        -11   -1    0    0    0    0  0.00000000000E+00  0.00000000000E+00  0.45593999997E+02  0.45594000000E+02  0.51100000000E-03 0.  1.
         11   -1    0    0    0    0 -0.00000000000E+00 -0.00000000000E+00 -0.45593999997E+02  0.45594000000E+02  0.51100000000E-03 0. -1.
    9900012    2    1    2    0    0 -0.28337848704E+02 -0.32870925198E+02 -0.30312719655E+00  0.47787270990E+02  0.19999999751E+02 0.  0.
         12    1    1    2    0    0  0.28337848704E+02  0.32870925198E+02  0.30312719655E+00  0.43400729010E+02  0.00000000000E+00 0. -1.
         11    1    3    3    0    0 -0.13127593775E+02 -0.87335047328E+01 -0.65815759846E+00  0.15781032758E+02  0.51100000000E-03 0.  1.
        -11    1    3    3    0    0 -0.37534499731E+01 -0.87191293357E+01 -0.66168150976E+01  0.11571250813E+02  0.51100000000E-03 0. -1.
         12    1    3    3    0    0 -0.11456804956E+02 -0.15418291129E+02  0.69718454995E+01  0.20434987419E+02  0.00000000000E+00 0. -1.
</event>
<event>
 7    1  0.2486105E-010  0.4778727E+02  0.7816164E-02  0.1312668E+00
        -11   -1    0    0    0    0  0.00000000000E+00  0.00000000000E+00  0.45593999997E+02  0.45594000000E+02  0.51100000000E-03 0.  1.
         11   -1    0    0    0    0 -0.00000000000E+00 -0.00000000000E+00 -0.45593999997E+02  0.45594000000E+02  0.51100000000E-03 0. -1.
    9900012    2    1    2    0    0  0.20186780399E+02 -0.30216195467E+02  0.23729710727E+02  0.47787265645E+02  0.19999975380E+02 0.  0.
         12    1    1    2    0    0 -0.20186780399E+02  0.30216195467E+02 -0.23729710727E+02  0.43400734355E+02  0.00000000000E+00 0. -1.
         11    1    3    3    0    0  0.50145363796E+01 -0.14466554905E+02  0.22178166557E+01  0.15470794966E+02  0.51100000000E-03 0. -1.
        -11    1    3    3    0    0 -0.44465593166E+00 -0.10967420704E+01 -0.77018743324E+00  0.14120024823E+01  0.51100000000E-03 0.  1.
        -12    1    3    3    0    0  0.15616899951E+02 -0.14652898492E+02  0.22282081505E+02  0.30904468196E+02  0.00000000000E+00 0.  1.
</event>
<event>
 7    1  0.2486105E-010  0.4778727E+02  0.7816164E-02  0.1312668E+00
        -11   -1    0    0    0    0  0.00000000000E+00  0.00000000000E+00  0.45593999997E+02  0.45594000000E+02  0.51100000000E-03 0. -1.
         11   -1    0    0    0    0 -0.00000000000E+00 -0.00000000000E+00 -0.45593999997E+02  0.45594000000E+02  0.51100000000E-03 0.  1.
    9900012    2    1    2    0    0  0.37904311086E+02 -0.10223101173E+02 -0.18503365515E+02  0.47787272680E+02  0.20000007457E+02 0.  0.
         12    1    1    2    0    0 -0.37904311086E+02  0.10223101173E+02  0.18503365515E+02  0.43400727320E+02  0.00000000000E+00 0. -1.
         11    1    3    3    0    0  0.44614700982E+01  0.24916427543E+01 -0.16187079043E+01  0.53603371715E+01  0.51100000000E-03 0. -1.
        -11    1    3    3    0    0  0.20522240943E+02 -0.28973357644E+01 -0.15986430002E+02  0.26174851907E+02  0.51100000000E-03 0.  1.
         12    1    3    3    0    0  0.12920600045E+02 -0.98174081630E+01 -0.89822760828E+00  0.16252083602E+02  0.00000000000E+00 0. -1.
</event>
<event>
 7    1  0.2486105E-010  0.4778727E+02  0.7816164E-02  0.1312668E+00
        -11   -1    0    0    0    0  0.00000000000E+00  0.00000000000E+00  0.45593999997E+02  0.45594000000E+02  0.51100000000E-03 0. -1.
         11   -1    0    0    0    0 -0.00000000000E+00 -0.00000000000E+00 -0.45593999997E+02  0.45594000000E+02  0.51100000000E-03 0.  1.
    9900012    2    1    2    0    0 -0.15959727458E+02 -0.35323324078E+02 -0.19523657110E+02  0.47787270613E+02  0.19999998031E+02 0.  0.
         12    1    1    2    0    0  0.15959727458E+02  0.35323324078E+02  0.19523657110E+02  0.43400729387E+02  0.00000000000E+00 0. -1.
         11    1    3    3    0    0  0.26026943104E+01 -0.39610825789E+01 -0.44594602496E+01  0.65077629681E+01  0.51100000000E-03 0. -1.
        -11    1    3    3    0    0 -0.63678709295E+01 -0.15256630126E+02 -0.12885971191E+02  0.20960982725E+02  0.51100000000E-03 0.  1.
        -12    1    3    3    0    0 -0.12194550839E+02 -0.16105611373E+02 -0.21782256687E+01  0.20318524920E+02  0.00000000000E+00 0.  1.
</event>
<event>
 7    1  0.2486105E-010  0.4778729E+02  0.7816164E-02  0.1312668E+00
        -11   -1    0    0    0    0  0.00000000000E+00  0.00000000000E+00  0.45593999997E+02  0.45594000000E+02  0.51100000000E-03 0. -1.
         11   -1    0    0    0    0 -0.00000000000E+00 -0.00000000000E+00 -0.45593999997E+02  0.45594000000E+02  0.51100000000E-03 0.  1.
    9900012    2    1    2    0    0  0.42601242508E+02 -0.16609875534E+01  0.81238694101E+01  0.47787285754E+02  0.20000067065E+02 0.  0.
         12    1    1    2    0    0 -0.42601242508E+02  0.16609875534E+01 -0.81238694101E+01  0.43400714246E+02  0.00000000000E+00 0. -1.
         11    1    3    3    0    0  0.11500101657E+02  0.13946408011E+01  0.73506892176E+01  0.13719693631E+02  0.51100000000E-03 0. -1.
        -11    1    3    3    0    0  0.68774087744E+01  0.43973613384E+01  0.28305234118E+01  0.86398727558E+01  0.51100000000E-03 0.  1.
        -12    1    3    3    0    0  0.24223732077E+02 -0.74529896929E+01 -0.20573432194E+01  0.25427719367E+02  0.00000000000E+00 0.  1.
</event>
<event>
 7    1  0.2486105E-010  0.4778727E+02  0.7816164E-02  0.1312668E+00
        -11   -1    0    0    0    0  0.00000000000E+00  0.00000000000E+00  0.45593999997E+02  0.45594000000E+02  0.51100000000E-03 0.  1.
         11   -1    0    0    0    0 -0.00000000000E+00 -0.00000000000E+00 -0.45593999997E+02  0.45594000000E+02  0.51100000000E-03 0. -1.
    9900012    2    1    2    0    0  0.32820860832E+02 -0.20007258496E+02  0.20152516170E+02  0.47787271823E+02  0.20000003550E+02 0.  0.
         12    1    1    2    0    0 -0.32820860832E+02  0.20007258496E+02 -0.20152516170E+02  0.43400728177E+02  0.00000000000E+00 0. -1.
         11    1    3    3    0    0  0.19257999477E+02 -0.11785749915E+02  0.15734317484E+02  0.27519869038E+02  0.51100000000E-03 0. -1.
        -11    1    3    3    0    0  0.87879323238E+01 -0.45021689617E+01  0.84489916800E+01  0.12995489239E+02  0.51100000000E-03 0.  1.
         12    1    3    3    0    0  0.47749290319E+01 -0.37193396191E+01 -0.40307929941E+01  0.72719135462E+01  0.00000000000E+00 0. -1.
</event>
<event>
 7    1  0.2486105E-010  0.4778727E+02  0.7816164E-02  0.1312668E+00
        -11   -1    0    0    0    0  0.00000000000E+00  0.00000000000E+00  0.45593999997E+02  0.45594000000E+02  0.51100000000E-03 0. -1.
         11   -1    0    0    0    0 -0.00000000000E+00 -0.00000000000E+00 -0.45593999997E+02  0.45594000000E+02  0.51100000000E-03 0.  1.
    9900012    2    1    2    0    0 -0.30824875063E+02  0.13403327341E+02 -0.27455438875E+02  0.47787271547E+02  0.20000002291E+02 0.  0.
         12    1    1    2    0    0  0.30824875063E+02 -0.13403327341E+02  0.27455438875E+02  0.43400728453E+02  0.00000000000E+00 0. -1.
         11    1    3    3    0    0 -0.13955408114E+02  0.19804100366E+01 -0.51497764014E+01  0.15006519810E+02  0.51100000000E-03 0. -1.
        -11    1    3    3    0    0 -0.10539658051E+02 -0.45402424390E+00 -0.92529366558E+01  0.14032368541E+02  0.51100000000E-03 0.  1.
         12    1    3    3    0    0 -0.63298088980E+01  0.11876941548E+02 -0.13052725817E+02  0.18748383197E+02  0.00000000000E+00 0. -1.
</event>
<event>
 7    1  0.2486105E-010  0.4778727E+02  0.7816164E-02  0.1312668E+00
        -11   -1    0    0    0    0  0.00000000000E+00  0.00000000000E+00  0.45593999997E+02  0.45594000000E+02  0.51100000000E-03 0. -1.
         11   -1    0    0    0    0 -0.00000000000E+00 -0.00000000000E+00 -0.45593999997E+02  0.45594000000E+02  0.51100000000E-03 0.  1.
    9900012    2    1    2    0    0  0.30338180296E+02 -0.19948529001E+02 -0.23775499200E+02  0.47787270108E+02  0.19999995730E+02 0.  0.
         12    1    1    2    0    0 -0.30338180296E+02  0.19948529001E+02  0.23775499200E+02  0.43400729892E+02  0.00000000000E+00 0. -1.
         11    1    3    3    0    0  0.17129626245E+02 -0.95387292928E+01 -0.15693975407E+02  0.25113986464E+02  0.51100000000E-03 0. -1.
        -11    1    3    3    0    0  0.12047171849E+02 -0.40458000589E+01 -0.97205824212E+01  0.15999767828E+02  0.51100000000E-03 0.  1.
         12    1    3    3    0    0  0.11613822024E+01 -0.63639996490E+01  0.16390586284E+01  0.66735158155E+01  0.00000000000E+00 0. -1.
</event>
<event>
 7    1  0.2486105E-010  0.4778726E+02  0.7816164E-02  0.1312668E+00
        -11   -1    0    0    0    0  0.00000000000E+00  0.00000000000E+00  0.45593999997E+02  0.45594000000E+02  0.51100000000E-03 0. -1.
         11   -1    0    0    0    0 -0.00000000000E+00 -0.00000000000E+00 -0.45593999997E+02  0.45594000000E+02  0.51100000000E-03 0.  1.
    9900012    2    1    2    0    0  0.30787709817E+02 -0.28302193407E+02  0.11607188909E+02  0.47787261967E+02  0.19999958612E+02 0.  0.
         12    1    1    2    0    0 -0.30787709817E+02  0.28302193407E+02 -0.11607188909E+02  0.43400738033E+02  0.00000000000E+00 0. -1.
         11    1    3    3    0    0  0.12318565600E+02 -0.11729035864E+02 -0.22919553541E+01  0.17163053352E+02  0.51100000000E-03 0. -1.
        -11    1    3    3    0    0  0.38417299959E+01 -0.80062355073E+00 -0.14658004130E+01  0.41890880325E+01  0.51100000000E-03 0.  1.
         12    1    3    3    0    0  0.14627414221E+02 -0.15772533993E+02  0.15364944676E+02  0.26435120583E+02  0.00000000000E+00 0. -1.
</event>
<event>
 7    1  0.2486105E-010  0.4778727E+02  0.7816164E-02  0.1312668E+00
        -11   -1    0    0    0    0  0.00000000000E+00  0.00000000000E+00  0.45593999997E+02  0.45594000000E+02  0.51100000000E-03 0.  1.
         11   -1    0    0    0    0 -0.00000000000E+00 -0.00000000000E+00 -0.45593999997E+02  0.45594000000E+02  0.51100000000E-03 0. -1.
    9900012    2    1    2    0    0  0.21084256217E+02 -0.19970377538E+02  0.32253078881E+02  0.47787274931E+02  0.20000017721E+02 0.  0.
         12    1    1    2    0    0 -0.21084256217E+02  0.19970377538E+02 -0.32253078881E+02  0.43400725069E+02  0.00000000000E+00 0. -1.
         11    1    3    3    0    0 -0.16499509272E+01  0.90159655243E+00  0.22597387958E+01  0.29396656429E+01  0.51100000000E-03 0. -1.
        -11    1    3    3    0    0  0.74053295794E+01 -0.10917720112E+02  0.55154133543E+01  0.14298786779E+02  0.51100000000E-03 0.  1.
        -12    1    3    3    0    0  0.15328877564E+02 -0.99542539781E+01  0.24477926731E+02  0.30548822509E+02  0.00000000000E+00 0.  1.
</event>
<event>
 7    1  0.2486105E-010  0.4778727E+02  0.7816164E-02  0.1312668E+00
        -11   -1    0    0    0    0  0.00000000000E+00  0.00000000000E+00  0.45593999997E+02  0.45594000000E+02  0.51100000000E-03 0.  1.
         11   -1    0    0    0    0 -0.00000000000E+00 -0.00000000000E+00 -0.45593999997E+02  0.45594000000E+02  0.51100000000E-03 0. -1.
    9900012    2    1    2    0    0 -0.18091897116E+02 -0.26926361664E+02  0.28831883721E+02  0.47787271750E+02  0.20000003217E+02 0.  0.
         12    1    1    2    0    0  0.18091897116E+02  0.26926361664E+02 -0.28831883721E+02  0.43400728250E+02  0.00000000000E+00 0. -1.
         11    1    3    3    0    0  0.14213730697E+01 -0.55367975970E+01  0.43066355371E+01  0.71570621727E+01  0.51100000000E-03 0. -1.
        -11    1    3    3    0    0 -0.34630955576E+01  0.14574599316E+01  0.49054020265E+00  0.37891754043E+01  0.51100000000E-03 0.  1.
        -12    1    3    3    0    0 -0.16050174628E+02 -0.22847023999E+02  0.24034707982E+02  0.36841034173E+02  0.00000000000E+00 0.  1.
</event>
<event>
 7    1  0.2486105E-010  0.4778727E+02  0.7816164E-02  0.1312668E+00
        -11   -1    0    0    0    0  0.00000000000E+00  0.00000000000E+00  0.45593999997E+02  0.45594000000E+02  0.51100000000E-03 0.  1.
         11   -1    0    0    0    0 -0.00000000000E+00 -0.00000000000E+00 -0.45593999997E+02  0.45594000000E+02  0.51100000000E-03 0. -1.
    9900012    2    1    2    0    0 -0.33282735914E+02 -0.17057191240E+02  0.22021242564E+02  0.47787269510E+02  0.19999993006E+02 0.  0.
         12    1    1    2    0    0  0.33282735914E+02  0.17057191240E+02 -0.22021242564E+02  0.43400730490E+02  0.00000000000E+00 0. -1.
         11    1    3    3    0    0 -0.23273062911E+01  0.59992754467E+00  0.32456637381E+01  0.40386385074E+01  0.51100000000E-03 0. -1.
        -11    1    3    3    0    0 -0.24569902184E+02 -0.83735310027E+01  0.19487411966E+02  0.32458517221E+02  0.51100000000E-03 0.  1.
         12    1    3    3    0    0 -0.63855274394E+01 -0.92835877824E+01 -0.71183314009E+00  0.11290113782E+02  0.00000000000E+00 0. -1.
</event>
<event>
 7    1  0.2486105E-010  0.4778727E+02  0.7816164E-02  0.1312668E+00
        -11   -1    0    0    0    0  0.00000000000E+00  0.00000000000E+00  0.45593999997E+02  0.45594000000E+02  0.51100000000E-03 0. -1.
         11   -1    0    0    0    0 -0.00000000000E+00 -0.00000000000E+00 -0.45593999997E+02  0.45594000000E+02  0.51100000000E-03 0.  1.
    9900012    2    1    2    0    0  0.24981241821E+02  0.34630698966E+02 -0.77637326841E+01  0.47787270755E+02  0.19999998681E+02 0.  0.
         12    1    1    2    0    0 -0.24981241821E+02 -0.34630698966E+02  0.77637326841E+01  0.43400729245E+02  0.00000000000E+00 0. -1.
         11    1    3    3    0    0  0.18721179450E+02  0.21448893654E+02 -0.86506168344E+01  0.29755180572E+02  0.51100000000E-03 0.  1.
        -11    1    3    3    0    0  0.54735554983E+01  0.74123823930E+00 -0.13219587362E+00  0.55250990878E+01  0.51100000000E-03 0. -1.
        -12    1    3    3    0    0  0.78650687196E+00  0.12440567074E+02  0.10190800239E+01  0.12506991096E+02  0.00000000000E+00 0.  1.
</event>
<event>
 7    1  0.2486105E-010  0.4778727E+02  0.7816164E-02  0.1312668E+00
        -11   -1    0    0    0    0  0.00000000000E+00  0.00000000000E+00  0.45593999997E+02  0.45594000000E+02  0.51100000000E-03 0.  1.
         11   -1    0    0    0    0 -0.00000000000E+00 -0.00000000000E+00 -0.45593999997E+02  0.45594000000E+02  0.51100000000E-03 0. -1.
    9900012    2    1    2    0    0  0.36329432231E+02  0.24731038880E+01  0.23615232375E+02  0.47787273172E+02  0.20000009700E+02 0.  0.
         12    1    1    2    0    0 -0.36329432231E+02 -0.24731038880E+01 -0.23615232375E+02  0.43400726828E+02  0.00000000000E+00 0. -1.
         11    1    3    3    0    0  0.29739695687E+01 -0.14584278863E+01  0.87998387196E+00  0.34272261045E+01  0.51100000000E-03 0. -1.
        -11    1    3    3    0    0  0.35279744475E+02  0.51681104464E+01  0.22227428307E+02  0.42017000193E+02  0.51100000000E-03 0.  1.
        -12    1    3    3    0    0 -0.19242818123E+01 -0.12365786721E+01  0.50782019617E+00  0.23430468748E+01  0.00000000000E+00 0.  1.
</event>
<event>
 7    1  0.2486105E-010  0.4778726E+02  0.7816164E-02  0.1312668E+00
        -11   -1    0    0    0    0  0.00000000000E+00  0.00000000000E+00  0.45593999997E+02  0.45594000000E+02  0.51100000000E-03 0. -1.
         11   -1    0    0    0    0 -0.00000000000E+00 -0.00000000000E+00 -0.45593999997E+02  0.45594000000E+02  0.51100000000E-03 0.  1.
    9900012    2    1    2    0    0  0.31296952189E+02  0.10413627183E+02 -0.28207819041E+02  0.47787263803E+02  0.19999966981E+02 0.  0.
         12    1    1    2    0    0 -0.31296952189E+02 -0.10413627183E+02  0.28207819041E+02  0.43400736197E+02  0.00000000000E+00 0. -1.
         11    1    3    3    0    0  0.21609852271E+01  0.42236122849E+01 -0.88637979712E+00  0.48264300772E+01  0.51100000000E-03 0.  1.
        -11    1    3    3    0    0  0.12676482527E+02 -0.29100205116E+01 -0.17318793561E+02  0.21658763569E+02  0.51100000000E-03 0. -1.
         12    1    3    3    0    0  0.16459484435E+02  0.91000354092E+01 -0.10002645683E+02  0.21302070157E+02  0.00000000000E+00 0. -1.
</event>
<event>
 7    1  0.2668093E-010  0.4778727E+02  0.7816164E-02  0.1312668E+00
        -11   -1    0    0    0    0  0.00000000000E+00  0.00000000000E+00  0.45593999997E+02  0.45594000000E+02  0.51100000000E-03 0. -1.
         11   -1    0    0    0    0 -0.00000000000E+00 -0.00000000000E+00 -0.45593999997E+02  0.45594000000E+02  0.51100000000E-03 0.  1.
    9900012    2    1    2    0    0  0.24099941304E+01 -0.23561862389E+02 -0.36368306610E+02  0.47787272395E+02  0.20000006159E+02 0.  0.
         12    1    1    2    0    0 -0.24099941304E+01  0.23561862389E+02  0.36368306610E+02  0.43400727605E+02  0.00000000000E+00 0. -1.
         11    1    3    3    0    0  0.24914835237E+00 -0.76099061618E+00  0.19738653350E+01  0.21301000542E+01  0.51100000000E-03 0. -1.
        -11    1    3    3    0    0  0.24150897551E+01 -0.10703230918E+02 -0.10022674067E+02  0.14860881748E+02  0.51100000000E-03 0.  1.
        -12    1    3    3    0    0 -0.25424397706E+00 -0.12097640855E+02 -0.28319497878E+02  0.30796290593E+02  0.00000000000E+00 0.  1.
</event>
<event>
 7    1  0.4586424E-010  0.4778728E+02  0.7816164E-02  0.1312668E+00
        -11   -1    0    0    0    0  0.00000000000E+00  0.00000000000E+00  0.45593999997E+02  0.45594000000E+02  0.51100000000E-03 0. -1.
         11   -1    0    0    0    0 -0.00000000000E+00 -0.00000000000E+00 -0.45593999997E+02  0.45594000000E+02  0.51100000000E-03 0.  1.
    9900012    2    1    2    0    0 -0.35711294086E+02 -0.57378687061E+01 -0.23987564678E+02  0.47787275101E+02  0.20000018494E+02 0.  0.
         12    1    1    2    0    0  0.35711294086E+02  0.57378687061E+01  0.23987564678E+02  0.43400724899E+02  0.00000000000E+00 0. -1.
         11    1    3    3    0    0 -0.28328006823E+01 -0.31647489946E+01  0.11507443435E+01  0.44005236858E+01  0.51100000000E-03 0. -1.
        -11    1    3    3    0    0 -0.28408896929E+01 -0.36996179695E+01 -0.65626608840E+01  0.80514809511E+01  0.51100000000E-03 0.  1.
        -12    1    3    3    0    0 -0.30037603711E+02  0.11264982580E+01 -0.18575648137E+02  0.35335270464E+02  0.00000000000E+00 0.  1.
</event>
<event>
 7    1  0.2486105E-010  0.4778728E+02  0.7816164E-02  0.1312668E+00
        -11   -1    0    0    0    0  0.00000000000E+00  0.00000000000E+00  0.45593999997E+02  0.45594000000E+02  0.51100000000E-03 0.  1.
         11   -1    0    0    0    0 -0.00000000000E+00 -0.00000000000E+00 -0.45593999997E+02  0.45594000000E+02  0.51100000000E-03 0. -1.
    9900012    2    1    2    0    0 -0.16722661211E+02  0.37048944481E+02  0.15210230271E+02  0.47787276619E+02  0.20000025416E+02 0.  0.
         12    1    1    2    0    0  0.16722661211E+02 -0.37048944481E+02 -0.15210230271E+02  0.43400723381E+02  0.00000000000E+00 0. -1.
         11    1    3    3    0    0  0.55794293394E+00  0.35736626806E+00  0.11716377726E+01  0.13460112549E+01  0.51100000000E-03 0. -1.
        -11    1    3    3    0    0  0.78154826962E+00  0.12865995779E+02 -0.10857578530E+01  0.12935359889E+02  0.51100000000E-03 0.  1.
        -12    1    3    3    0    0 -0.18062152414E+02  0.23825582434E+02  0.15124350352E+02  0.33505905475E+02  0.00000000000E+00 0.  1.
</event>
<event>
 7    1  0.2486105E-010  0.4778727E+02  0.7816164E-02  0.1312668E+00
        -11   -1    0    0    0    0  0.00000000000E+00  0.00000000000E+00  0.45593999997E+02  0.45594000000E+02  0.51100000000E-03 0. -1.
         11   -1    0    0    0    0 -0.00000000000E+00 -0.00000000000E+00 -0.45593999997E+02  0.45594000000E+02  0.51100000000E-03 0.  1.
    9900012    2    1    2    0    0 -0.12607020405E+02 -0.18973158238E+02 -0.36941926920E+02  0.47787266578E+02  0.19999979634E+02 0.  0.
         12    1    1    2    0    0  0.12607020405E+02  0.18973158238E+02  0.36941926920E+02  0.43400733422E+02  0.00000000000E+00 0. -1.
         11    1    3    3    0    0 -0.87851354713E+01 -0.46554476690E+01 -0.67564968613E+01  0.12020900480E+02  0.51100000000E-03 0. -1.
        -11    1    3    3    0    0 -0.40440036763E+01 -0.61006038301E+01 -0.40421598870E+01  0.83612433070E+01  0.51100000000E-03 0.  1.
         12    1    3    3    0    0  0.22211874254E+00 -0.82171067386E+01 -0.26143270172E+02  0.27405122791E+02  0.00000000000E+00 0. -1.
</event>
<event>
 7    1  0.2486105E-010  0.4778727E+02  0.7816164E-02  0.1312668E+00
        -11   -1    0    0    0    0  0.00000000000E+00  0.00000000000E+00  0.45593999997E+02  0.45594000000E+02  0.51100000000E-03 0. -1.
         11   -1    0    0    0    0 -0.00000000000E+00 -0.00000000000E+00 -0.45593999997E+02  0.45594000000E+02  0.51100000000E-03 0.  1.
    9900012    2    1    2    0    0  0.23636135298E+02 -0.48150091573E+01 -0.36080081227E+02  0.47787268827E+02  0.19999989891E+02 0.  0.
         12    1    1    2    0    0 -0.23636135298E+02  0.48150091573E+01  0.36080081227E+02  0.43400731173E+02  0.00000000000E+00 0. -1.
         11    1    3    3    0    0 -0.11986320316E-01  0.17617326575E+01 -0.81782900953E+01  0.83658995196E+01  0.51100000000E-03 0. -1.
        -11    1    3    3    0    0  0.23120533444E+01 -0.46240591978E+01 -0.10921354519E+02  0.12083190759E+02  0.51100000000E-03 0.  1.
         12    1    3    3    0    0  0.21336068274E+02 -0.19526826169E+01 -0.16980436612E+02  0.27338178548E+02  0.00000000000E+00 0. -1.
</event>
<event>
 7    1  0.2486105E-010  0.4778727E+02  0.7816164E-02  0.1312668E+00
        -11   -1    0    0    0    0  0.00000000000E+00  0.00000000000E+00  0.45593999997E+02  0.45594000000E+02  0.51100000000E-03 0.  1.
         11   -1    0    0    0    0 -0.00000000000E+00 -0.00000000000E+00 -0.45593999997E+02  0.45594000000E+02  0.51100000000E-03 0. -1.
    9900012    2    1    2    0    0  0.24539328363E+02 -0.10878114094E+02  0.34104419206E+02  0.47787269452E+02  0.19999992739E+02 0.  0.
         12    1    1    2    0    0 -0.24539328363E+02  0.10878114094E+02 -0.34104419206E+02  0.43400730548E+02  0.00000000000E+00 0. -1.
         11    1    3    3    0    0  0.47965631915E+01  0.24162245417E+00  0.76735064304E+01  0.90525190449E+01  0.51100000000E-03 0. -1.
        -11    1    3    3    0    0  0.19941683440E+02 -0.13319642139E+02  0.27321491457E+02  0.36353094790E+02  0.51100000000E-03 0.  1.
         12    1    3    3    0    0 -0.19891826795E+00  0.21999055912E+01 -0.89057868198E+00  0.23816556167E+01  0.00000000000E+00 0. -1.
</event>
<event>
 7    1  0.2486105E-010  0.4778727E+02  0.7816164E-02  0.1312668E+00
        -11   -1    0    0    0    0  0.00000000000E+00  0.00000000000E+00  0.45593999997E+02  0.45594000000E+02  0.51100000000E-03 0. -1.
         11   -1    0    0    0    0 -0.00000000000E+00 -0.00000000000E+00 -0.45593999997E+02  0.45594000000E+02  0.51100000000E-03 0.  1.
    9900012    2    1    2    0    0  0.19636494054E+02  0.20674310888E+02  0.32720088211E+02  0.47787271873E+02  0.20000003777E+02 0.  0.
         12    1    1    2    0    0 -0.19636494054E+02 -0.20674310888E+02 -0.32720088211E+02  0.43400728127E+02  0.00000000000E+00 0. -1.
         11    1    3    3    0    0  0.10760671029E+02  0.58757685807E+01  0.14061239184E+02  0.18655700069E+02  0.51100000000E-03 0. -1.
        -11    1    3    3    0    0  0.80835359837E+01  0.33802657582E+01  0.21135803776E+01  0.90131555445E+01  0.51100000000E-03 0.  1.
         12    1    3    3    0    0  0.79228704111E+00  0.11418276549E+02  0.16545268649E+02  0.20118416259E+02  0.00000000000E+00 0. -1.
</event>
<event>
 7    1  0.2486105E-010  0.4778727E+02  0.7816164E-02  0.1312668E+00
        -11   -1    0    0    0    0  0.00000000000E+00  0.00000000000E+00  0.45593999997E+02  0.45594000000E+02  0.51100000000E-03 0.  1.
         11   -1    0    0    0    0 -0.00000000000E+00 -0.00000000000E+00 -0.45593999997E+02  0.45594000000E+02  0.51100000000E-03 0. -1.
    9900012    2    1    2    0    0 -0.63305300851E+00 -0.42181619372E+02  0.10194777516E+02  0.47787271233E+02  0.20000000858E+02 0.  0.
         12    1    1    2    0    0  0.63305300851E+00  0.42181619372E+02 -0.10194777516E+02  0.43400728767E+02  0.00000000000E+00 0. -1.
         11    1    3    3    0    0  0.93637981218E+00 -0.52799106679E+01 -0.27911321138E+01  0.60452198100E+01  0.51100000000E-03 0. -1.
        -11    1    3    3    0    0  0.21284638086E+01 -0.32307094809E+01  0.60258930299E+01  0.71609516828E+01  0.51100000000E-03 0.  1.
        -12    1    3    3    0    0 -0.36978966293E+01 -0.33670999223E+02  0.69600166003E+01  0.34581099740E+02  0.00000000000E+00 0.  1.
</event>
<event>
 7    1  0.2486105E-010  0.4778727E+02  0.7816164E-02  0.1312668E+00
        -11   -1    0    0    0    0  0.00000000000E+00  0.00000000000E+00  0.45593999997E+02  0.45594000000E+02  0.51100000000E-03 0.  1.
         11   -1    0    0    0    0 -0.00000000000E+00 -0.00000000000E+00 -0.45593999997E+02  0.45594000000E+02  0.51100000000E-03 0. -1.
    9900012    2    1    2    0    0 -0.11125349242E+01  0.34956262478E+01  0.43245416854E+02  0.47787271715E+02  0.20000003056E+02 0.  0.
         12    1    1    2    0    0  0.11125349242E+01 -0.34956262478E+01 -0.43245416854E+02  0.43400728285E+02  0.00000000000E+00 0. -1.
         11    1    3    3    0    0  0.37278325136E+00  0.25580580559E+01  0.85643159376E+01  0.89459564111E+01  0.51100000000E-03 0. -1.
        -11    1    3    3    0    0 -0.72021562033E+01 -0.27740271263E+01  0.72956972036E+01  0.10620427412E+02  0.51100000000E-03 0.  1.
        -12    1    3    3    0    0  0.57168380278E+01  0.37115953182E+01  0.27385403713E+02  0.28220887891E+02  0.00000000000E+00 0.  1.
</event>
<event>
 7    1  0.2486105E-010  0.4778727E+02  0.7816164E-02  0.1312668E+00
        -11   -1    0    0    0    0  0.00000000000E+00  0.00000000000E+00  0.45593999997E+02  0.45594000000E+02  0.51100000000E-03 0.  1.
         11   -1    0    0    0    0 -0.00000000000E+00 -0.00000000000E+00 -0.45593999997E+02  0.45594000000E+02  0.51100000000E-03 0. -1.
    9900012    2    1    2    0    0 -0.77016107841E+01  0.10715258126E+01  0.42698481861E+02  0.47787270404E+02  0.19999997080E+02 0.  0.
         12    1    1    2    0    0  0.77016107841E+01 -0.10715258126E+01 -0.42698481861E+02  0.43400729596E+02  0.00000000000E+00 0. -1.
         11    1    3    3    0    0 -0.40704251836E+01  0.83728034622E+01  0.10943367643E+02  0.14367654458E+02  0.51100000000E-03 0. -1.
        -11    1    3    3    0    0 -0.44204216702E+01 -0.41882825039E+01  0.12567443182E+02  0.13965044449E+02  0.51100000000E-03 0.  1.
         12    1    3    3    0    0  0.78923606969E+00 -0.31129951457E+01  0.19187671036E+02  0.19454571497E+02  0.00000000000E+00 0. -1.
</event>
<event>
 7    1  0.2663379E-010  0.4778730E+02  0.7816164E-02  0.1312668E+00
        -11   -1    0    0    0    0  0.00000000000E+00  0.00000000000E+00  0.45593999997E+02  0.45594000000E+02  0.51100000000E-03 0. -1.
         11   -1    0    0    0    0 -0.00000000000E+00 -0.00000000000E+00 -0.45593999997E+02  0.45594000000E+02  0.51100000000E-03 0.  1.
    9900012    2    1    2    0    0 -0.38427358983E+02  0.18156330944E+02  0.87924345669E+01  0.47787295197E+02  0.20000110121E+02 0.  0.
         12    1    1    2    0    0  0.38427358983E+02 -0.18156330944E+02 -0.87924345669E+01  0.43400704803E+02  0.00000000000E+00 0. -1.
         11    1    3    3    0    0 -0.63025264834E+01 -0.11959411324E+01 -0.72594412506E+00  0.64559360592E+01  0.51100000000E-03 0. -1.
        -11    1    3    3    0    0 -0.34591166785E+01  0.50004124431E+01 -0.31662788593E+01  0.68552851781E+01  0.51100000000E-03 0.  1.
        -12    1    3    3    0    0 -0.28665715821E+02  0.14351859633E+02  0.12684657551E+02  0.34476073960E+02  0.00000000000E+00 0.  1.
</event>
<event>
 7    1  0.2486105E-010  0.4778727E+02  0.7816164E-02  0.1312668E+00
        -11   -1    0    0    0    0  0.00000000000E+00  0.00000000000E+00  0.45593999997E+02  0.45594000000E+02  0.51100000000E-03 0.  1.
         11   -1    0    0    0    0 -0.00000000000E+00 -0.00000000000E+00 -0.45593999997E+02  0.45594000000E+02  0.51100000000E-03 0. -1.
    9900012    2    1    2    0    0 -0.14220383237E+02  0.51774844861E+01  0.40676746874E+02  0.47787269807E+02  0.19999994357E+02 0.  0.
         12    1    1    2    0    0  0.14220383237E+02 -0.51774844861E+01 -0.40676746874E+02  0.43400730193E+02  0.00000000000E+00 0. -1.
         11    1    3    3    0    0 -0.48497236082E+01 -0.74026003684E+01  0.13733682011E+02  0.16338063935E+02  0.51100000000E-03 0. -1.
        -11    1    3    3    0    0 -0.15136101877E+00  0.25546778134E+01  0.51358762041E+01  0.57381629058E+01  0.51100000000E-03 0.  1.
        -12    1    3    3    0    0 -0.92192986105E+01  0.10025407041E+02  0.21807188659E+02  0.25711042966E+02  0.00000000000E+00 0.  1.
</event>
<event>
 7    1  0.2486105E-010  0.4778727E+02  0.7816164E-02  0.1312668E+00
        -11   -1    0    0    0    0  0.00000000000E+00  0.00000000000E+00  0.45593999997E+02  0.45594000000E+02  0.51100000000E-03 0.  1.
         11   -1    0    0    0    0 -0.00000000000E+00 -0.00000000000E+00 -0.45593999997E+02  0.45594000000E+02  0.51100000000E-03 0. -1.
    9900012    2    1    2    0    0 -0.13814436220E+02  0.22161269100E+02  0.34665003456E+02  0.47787274652E+02  0.20000016446E+02 0.  0.
         12    1    1    2    0    0  0.13814436220E+02 -0.22161269100E+02 -0.34665003456E+02  0.43400725348E+02  0.00000000000E+00 0. -1.
         11    1    3    3    0    0 -0.12571315514E+02  0.12344211754E+02  0.94101621000E+01  0.19974200574E+02  0.51100000000E-03 0. -1.
        -11    1    3    3    0    0 -0.23281349269E+01  0.74436776509E+00  0.66636065747E+01  0.70977424898E+01  0.51100000000E-03 0.  1.
        -12    1    3    3    0    0  0.10850142214E+01  0.90726895815E+01  0.18591234781E+02  0.20715331587E+02  0.00000000000E+00 0.  1.
</event>
<event>
 7    1  0.2486105E-010  0.4778726E+02  0.7816164E-02  0.1312668E+00
        -11   -1    0    0    0    0  0.00000000000E+00  0.00000000000E+00  0.45593999997E+02  0.45594000000E+02  0.51100000000E-03 0.  1.
         11   -1    0    0    0    0 -0.00000000000E+00 -0.00000000000E+00 -0.45593999997E+02  0.45594000000E+02  0.51100000000E-03 0. -1.
    9900012    2    1    2    0    0 -0.17029021295E+02  0.15372745163E+02  0.36841757946E+02  0.47787262810E+02  0.19999962456E+02 0.  0.
         12    1    1    2    0    0  0.17029021295E+02 -0.15372745163E+02 -0.36841757946E+02  0.43400737190E+02  0.00000000000E+00 0. -1.
         11    1    3    3    0    0 -0.15081701011E+02  0.13148129381E+02  0.17207353323E+02  0.26389846916E+02  0.51100000000E-03 0. -1.
        -11    1    3    3    0    0  0.66896316732E+00  0.47906145420E+01  0.10862949711E+02  0.11891222649E+02  0.51100000000E-03 0.  1.
        -12    1    3    3    0    0 -0.26162834512E+01 -0.25659987601E+01  0.87714549126E+01  0.95061932453E+01  0.00000000000E+00 0.  1.
</event>
<event>
 7    1  0.2486105E-010  0.4778726E+02  0.7816164E-02  0.1312668E+00
        -11   -1    0    0    0    0  0.00000000000E+00  0.00000000000E+00  0.45593999997E+02  0.45594000000E+02  0.51100000000E-03 0. -1.
         11   -1    0    0    0    0 -0.00000000000E+00 -0.00000000000E+00 -0.45593999997E+02  0.45594000000E+02  0.51100000000E-03 0.  1.
    9900012    2    1    2    0    0  0.21660930728E+02 -0.17122712138E+02 -0.33484934137E+02  0.47787262620E+02  0.19999961589E+02 0.  0.
         12    1    1    2    0    0 -0.21660930728E+02  0.17122712138E+02  0.33484934137E+02  0.43400737380E+02  0.00000000000E+00 0. -1.
         11    1    3    3    0    0  0.13140641986E+02 -0.91621779698E+00 -0.80408728762E+01  0.15432808031E+02  0.51100000000E-03 0. -1.
        -11    1    3    3    0    0  0.32587295880E+01 -0.20294839184E+01 -0.10127780936E+02  0.10830977354E+02  0.51100000000E-03 0.  1.
         12    1    3    3    0    0  0.52615591542E+01 -0.14177010423E+02 -0.15316280325E+02  0.21523477235E+02  0.00000000000E+00 0. -1.
</event>
<event>
 7    1  0.2486105E-010  0.4778727E+02  0.7816164E-02  0.1312668E+00
        -11   -1    0    0    0    0  0.00000000000E+00  0.00000000000E+00  0.45593999997E+02  0.45594000000E+02  0.51100000000E-03 0.  1.
         11   -1    0    0    0    0 -0.00000000000E+00 -0.00000000000E+00 -0.45593999997E+02  0.45594000000E+02  0.51100000000E-03 0. -1.
    9900012    2    1    2    0    0 -0.14927007285E+02  0.18564482123E+02  0.36279029659E+02  0.47787268025E+02  0.19999986231E+02 0.  0.
         12    1    1    2    0    0  0.14927007285E+02 -0.18564482123E+02 -0.36279029659E+02  0.43400731975E+02  0.00000000000E+00 0. -1.
         11    1    3    3    0    0  0.13588254374E+01 -0.51027620854E+00  0.37155615785E+01  0.39890082079E+01  0.51100000000E-03 0. -1.
        -11    1    3    3    0    0 -0.68700704284E+00  0.65275365061E+01  0.17661827998E+02  0.18841997771E+02  0.51100000000E-03 0.  1.
         12    1    3    3    0    0 -0.15598825680E+02  0.12547221825E+02  0.14901640083E+02  0.24956262046E+02  0.00000000000E+00 0. -1.
</event>
<event>
 7    1  0.2486105E-010  0.4778726E+02  0.7816164E-02  0.1312668E+00
        -11   -1    0    0    0    0  0.00000000000E+00  0.00000000000E+00  0.45593999997E+02  0.45594000000E+02  0.51100000000E-03 0. -1.
         11   -1    0    0    0    0 -0.00000000000E+00 -0.00000000000E+00 -0.45593999997E+02  0.45594000000E+02  0.51100000000E-03 0.  1.
    9900012    2    1    2    0    0 -0.90647125689E+01 -0.29626593713E+02 -0.30392764754E+02  0.47787260163E+02  0.19999950387E+02 0.  0.
         12    1    1    2    0    0  0.90647125689E+01  0.29626593713E+02  0.30392764754E+02  0.43400739837E+02  0.00000000000E+00 0. -1.
         11    1    3    3    0    0 -0.16530799938E+01 -0.47720316293E+01  0.17194384356E+01  0.53349253164E+01  0.51100000000E-03 0. -1.
        -11    1    3    3    0    0 -0.13240718807E+01  0.69881750123E+00 -0.16381465488E+01  0.22192423531E+01  0.51100000000E-03 0.  1.
        -12    1    3    3    0    0 -0.60875606944E+01 -0.25553379585E+02 -0.30474056641E+02  0.40233092493E+02  0.00000000000E+00 0.  1.
</event>
<event>
 7    1  0.3075826E-010  0.4778728E+02  0.7816164E-02  0.1312668E+00
        -11   -1    0    0    0    0  0.00000000000E+00  0.00000000000E+00  0.45593999997E+02  0.45594000000E+02  0.51100000000E-03 0.  1.
         11   -1    0    0    0    0 -0.00000000000E+00 -0.00000000000E+00 -0.45593999997E+02  0.45594000000E+02  0.51100000000E-03 0. -1.
    9900012    2    1    2    0    0  0.40074219625E+02 -0.14760352620E+02  0.77338082514E+01  0.47787275604E+02  0.20000020789E+02 0.  0.
         12    1    1    2    0    0 -0.40074219625E+02  0.14760352620E+02 -0.77338082514E+01  0.43400724396E+02  0.00000000000E+00 0. -1.
         11    1    3    3    0    0 -0.15533112716E+00 -0.18577120072E+01 -0.25238830962E+01  0.31377074123E+01  0.51100000000E-03 0. -1.
        -11    1    3    3    0    0  0.61043626562E+01 -0.12962925243E-01 -0.15674193044E+01  0.63023975606E+01  0.51100000000E-03 0.  1.
        -12    1    3    3    0    0  0.34125188096E+02 -0.12889677688E+02  0.11825110652E+02  0.38347170631E+02  0.00000000000E+00 0.  1.
</event>
<event>
 7    1  0.2486105E-010  0.4778726E+02  0.7816164E-02  0.1312668E+00
        -11   -1    0    0    0    0  0.00000000000E+00  0.00000000000E+00  0.45593999997E+02  0.45594000000E+02  0.51100000000E-03 0.  1.
         11   -1    0    0    0    0 -0.00000000000E+00 -0.00000000000E+00 -0.45593999997E+02  0.45594000000E+02  0.51100000000E-03 0. -1.
    9900012    2    1    2    0    0  0.67545216037E+01  0.30698212063E+01  0.42761859876E+02  0.47787262398E+02  0.19999960579E+02 0.  0.
         12    1    1    2    0    0 -0.67545216037E+01 -0.30698212063E+01 -0.42761859876E+02  0.43400737602E+02  0.00000000000E+00 0. -1.
         11    1    3    3    0    0 -0.20466505791E+01  0.36574530114E+00  0.81065322073E+01  0.83688955607E+01  0.51100000000E-03 0. -1.
        -11    1    3    3    0    0  0.10973732673E+02  0.73477474905E+01  0.28474381110E+02  0.31387936884E+02  0.51100000000E-03 0.  1.
        -12    1    3    3    0    0 -0.21725604907E+01 -0.46436715854E+01  0.61809465584E+01  0.80304299534E+01  0.00000000000E+00 0.  1.
</event>
<event>
 7    1  0.2486105E-010  0.4778728E+02  0.7816164E-02  0.1312668E+00
        -11   -1    0    0    0    0  0.00000000000E+00  0.00000000000E+00  0.45593999997E+02  0.45594000000E+02  0.51100000000E-03 0.  1.
         11   -1    0    0    0    0 -0.00000000000E+00 -0.00000000000E+00 -0.45593999997E+02  0.45594000000E+02  0.51100000000E-03 0. -1.
    9900012    2    1    2    0    0  0.48551871220E+01 -0.26639560027E+02  0.33917300950E+02  0.47787282216E+02  0.20000050936E+02 0.  0.
         12    1    1    2    0    0 -0.48551871220E+01  0.26639560027E+02 -0.33917300950E+02  0.43400717784E+02  0.00000000000E+00 0. -1.
         11    1    3    3    0    0  0.30035872598E+01 -0.16656823237E+02  0.19499826166E+02  0.25820815586E+02  0.51100000000E-03 0.  1.
        -11    1    3    3    0    0  0.30531171934E+01 -0.10535315713E+02  0.43297441705E+01  0.11792416487E+02  0.51100000000E-03 0. -1.
        -12    1    3    3    0    0 -0.12015173312E+01  0.55257892294E+00  0.10087730614E+02  0.10174050143E+02  0.00000000000E+00 0.  1.
</event>
<event>
 7    1  0.2486105E-010  0.4778727E+02  0.7816164E-02  0.1312668E+00
        -11   -1    0    0    0    0  0.00000000000E+00  0.00000000000E+00  0.45593999997E+02  0.45594000000E+02  0.51100000000E-03 0. -1.
         11   -1    0    0    0    0 -0.00000000000E+00 -0.00000000000E+00 -0.45593999997E+02  0.45594000000E+02  0.51100000000E-03 0.  1.
    9900012    2    1    2    0    0 -0.29442448030E+01 -0.15745926532E+02 -0.40336341057E+02  0.47787272014E+02  0.20000004423E+02 0.  0.
         12    1    1    2    0    0  0.29442448030E+01  0.15745926532E+02  0.40336341057E+02  0.43400727986E+02  0.00000000000E+00 0. -1.
         11    1    3    3    0    0 -0.63438544036E+00  0.16441438936E+01 -0.14482448189E+01  0.22810233112E+01  0.51100000000E-03 0. -1.
        -11    1    3    3    0    0 -0.14008694431E+01 -0.14705161239E+01 -0.22675482853E+02  0.22766255198E+02  0.51100000000E-03 0.  1.
         12    1    3    3    0    0 -0.90898991956E+00 -0.15919554302E+02 -0.16212613385E+02  0.22739993505E+02  0.00000000000E+00 0. -1.
</event>
<event>
 7    1  0.2486105E-010  0.4778727E+02  0.7816164E-02  0.1312668E+00
        -11   -1    0    0    0    0  0.00000000000E+00  0.00000000000E+00  0.45593999997E+02  0.45594000000E+02  0.51100000000E-03 0.  1.
         11   -1    0    0    0    0 -0.00000000000E+00 -0.00000000000E+00 -0.45593999997E+02  0.45594000000E+02  0.51100000000E-03 0. -1.
    9900012    2    1    2    0    0  0.16659688248E+02  0.34307216523E+02  0.20714554735E+02  0.47787273095E+02  0.20000009348E+02 0.  0.
         12    1    1    2    0    0 -0.16659688248E+02 -0.34307216523E+02 -0.20714554735E+02  0.43400726905E+02  0.00000000000E+00 0. -1.
         11    1    3    3    0    0 -0.88868770399E+00 -0.10982550827E+01  0.25154055118E+01  0.28849948374E+01  0.51100000000E-03 0.  1.
        -11    1    3    3    0    0  0.25472825506E+01  0.33314871293E+01 -0.14125279203E+01  0.44252333579E+01  0.51100000000E-03 0. -1.
        -12    1    3    3    0    0  0.15001093401E+02  0.32073984476E+02  0.19611677143E+02  0.40477044899E+02  0.00000000000E+00 0.  1.
</event>
<event>
 7    1  0.2486105E-010  0.4778727E+02  0.7816164E-02  0.1312668E+00
        -11   -1    0    0    0    0  0.00000000000E+00  0.00000000000E+00  0.45593999997E+02  0.45594000000E+02  0.51100000000E-03 0. -1.
         11   -1    0    0    0    0 -0.00000000000E+00 -0.00000000000E+00 -0.45593999997E+02  0.45594000000E+02  0.51100000000E-03 0.  1.
    9900012    2    1    2    0    0 -0.32944202080E+02 -0.84278798553E+01  0.26968010222E+02  0.47787272070E+02  0.20000004675E+02 0.  0.
         12    1    1    2    0    0  0.32944202080E+02  0.84278798553E+01 -0.26968010222E+02  0.43400727930E+02  0.00000000000E+00 0. -1.
         11    1    3    3    0    0 -0.23454666156E+00 -0.45795886207E+00 -0.13313348376E+01  0.14273020587E+01  0.51100000000E-03 0. -1.
        -11    1    3    3    0    0 -0.13740079905E+02 -0.48178994010E+01  0.34935326615E+01  0.14973534023E+02  0.51100000000E-03 0.  1.
         12    1    3    3    0    0 -0.18969575513E+02 -0.31520215923E+01  0.24805812398E+02  0.31386435988E+02  0.00000000000E+00 0. -1.
</event>
<event>
 7    1  0.2486105E-010  0.4778728E+02  0.7816164E-02  0.1312668E+00
        -11   -1    0    0    0    0  0.00000000000E+00  0.00000000000E+00  0.45593999997E+02  0.45594000000E+02  0.51100000000E-03 0.  1.
         11   -1    0    0    0    0 -0.00000000000E+00 -0.00000000000E+00 -0.45593999997E+02  0.45594000000E+02  0.51100000000E-03 0. -1.
    9900012    2    1    2    0    0  0.30042768517E+02 -0.31252444476E+02 -0.20830577816E+01  0.47787281623E+02  0.20000048233E+02 0.  0.
         12    1    1    2    0    0 -0.30042768517E+02  0.31252444476E+02  0.20830577816E+01  0.43400718377E+02  0.00000000000E+00 0. -1.
         11    1    3    3    0    0  0.23298908019E+02 -0.13806935681E+02 -0.39607506945E+01  0.27370753261E+02  0.51100000000E-03 0.  1.
        -11    1    3    3    0    0 -0.59330600729E+00 -0.11587442843E+01 -0.17576061923E+01  0.21872082944E+01  0.51100000000E-03 0. -1.
        -12    1    3    3    0    0  0.73371665058E+01 -0.16286764510E+02  0.36352991051E+01  0.18229320068E+02  0.00000000000E+00 0.  1.
</event>
<event>
 7    1  0.2486105E-010  0.4778727E+02  0.7816164E-02  0.1312668E+00
        -11   -1    0    0    0    0  0.00000000000E+00  0.00000000000E+00  0.45593999997E+02  0.45594000000E+02  0.51100000000E-03 0.  1.
         11   -1    0    0    0    0 -0.00000000000E+00 -0.00000000000E+00 -0.45593999997E+02  0.45594000000E+02  0.51100000000E-03 0. -1.
    9900012    2    1    2    0    0  0.17984288081E+02 -0.37887241907E+02 -0.11168964832E+02  0.47787268526E+02  0.19999988516E+02 0.  0.
         12    1    1    2    0    0 -0.17984288081E+02  0.37887241907E+02  0.11168964832E+02  0.43400731474E+02  0.00000000000E+00 0. -1.
         11    1    3    3    0    0  0.16844875736E+00 -0.23518228429E+01 -0.16881168837E+00  0.23638831011E+01  0.51100000000E-03 0. -1.
        -11    1    3    3    0    0  0.39962132791E+01 -0.14440514541E+02 -0.13386426392E+02  0.20092152512E+02  0.51100000000E-03 0.  1.
         12    1    3    3    0    0  0.13819626044E+02 -0.21094904523E+02  0.23862732477E+01  0.25331232912E+02  0.00000000000E+00 0. -1.
</event>
<event>
 7    1  0.3224829E-010  0.4778727E+02  0.7816164E-02  0.1312668E+00
        -11   -1    0    0    0    0  0.00000000000E+00  0.00000000000E+00  0.45593999997E+02  0.45594000000E+02  0.51100000000E-03 0.  1.
         11   -1    0    0    0    0 -0.00000000000E+00 -0.00000000000E+00 -0.45593999997E+02  0.45594000000E+02  0.51100000000E-03 0. -1.
    9900012    2    1    2    0    0 -0.24213841606E+02  0.18683834151E+02  0.30793300974E+02  0.47787272255E+02  0.20000005518E+02 0.  0.
         12    1    1    2    0    0  0.24213841606E+02 -0.18683834151E+02 -0.30793300974E+02  0.43400727745E+02  0.00000000000E+00 0. -1.
         11    1    3    3    0    0 -0.20091312517E+01  0.22720973136E+01 -0.18000349311E+01  0.35269194211E+01  0.51100000000E-03 0. -1.
        -11    1    3    3    0    0 -0.11708068799E+02  0.17071967689E+01  0.11713764349E+02  0.16649494626E+02  0.51100000000E-03 0.  1.
        -12    1    3    3    0    0 -0.10496641556E+02  0.14704540069E+02  0.20879571557E+02  0.27610858208E+02  0.00000000000E+00 0.  1.
</event>
<event>
 7    1  0.2486105E-010  0.4778725E+02  0.7816164E-02  0.1312668E+00
        -11   -1    0    0    0    0  0.00000000000E+00  0.00000000000E+00  0.45593999997E+02  0.45594000000E+02  0.51100000000E-03 0.  1.
         11   -1    0    0    0    0 -0.00000000000E+00 -0.00000000000E+00 -0.45593999997E+02  0.45594000000E+02  0.51100000000E-03 0. -1.
    9900012    2    1    2    0    0 -0.33664493080E+02  0.71612181708E+00  0.27382727188E+02  0.47787254925E+02  0.19999926505E+02 0.  0.
         12    1    1    2    0    0  0.33664493080E+02 -0.71612181708E+00 -0.27382727188E+02  0.43400745075E+02  0.00000000000E+00 0. -1.
         11    1    3    3    0    0 -0.11235777612E+02 -0.19119833136E+01 -0.32941163731E+00  0.11402056439E+02  0.51100000000E-03 0. -1.
        -11    1    3    3    0    0 -0.79118775705E+01 -0.31451174055E+00  0.53271290997E+01  0.95433237937E+01  0.51100000000E-03 0.  1.
         12    1    3    3    0    0 -0.14516837897E+02  0.29426168712E+01  0.22385009726E+02  0.26841874692E+02  0.00000000000E+00 0. -1.
</event>
<event>
 7    1  0.2486105E-010  0.4778727E+02  0.7816164E-02  0.1312668E+00
        -11   -1    0    0    0    0  0.00000000000E+00  0.00000000000E+00  0.45593999997E+02  0.45594000000E+02  0.51100000000E-03 0.  1.
         11   -1    0    0    0    0 -0.00000000000E+00 -0.00000000000E+00 -0.45593999997E+02  0.45594000000E+02  0.51100000000E-03 0. -1.
    9900012    2    1    2    0    0  0.51843403793E+01  0.27224437457E+02  0.33400243137E+02  0.47787267039E+02  0.19999981735E+02 0.  0.
         12    1    1    2    0    0 -0.51843403793E+01 -0.27224437457E+02 -0.33400243137E+02  0.43400732961E+02  0.00000000000E+00 0. -1.
         11    1    3    3    0    0  0.80150495015E+00  0.20894810821E+01  0.98549459349E+00  0.24453100483E+01  0.51100000000E-03 0. -1.
        -11    1    3    3    0    0  0.77885862179E+01  0.19008231069E+02  0.12074852469E+02  0.23828071388E+02  0.51100000000E-03 0.  1.
         12    1    3    3    0    0 -0.34057507887E+01  0.61267253052E+01  0.20339896074E+02  0.21513885602E+02  0.00000000000E+00 0. -1.
</event>
<event>
 7    1  0.2486105E-010  0.4778727E+02  0.7816164E-02  0.1312668E+00
        -11   -1    0    0    0    0  0.00000000000E+00  0.00000000000E+00  0.45593999997E+02  0.45594000000E+02  0.51100000000E-03 0. -1.
         11   -1    0    0    0    0 -0.00000000000E+00 -0.00000000000E+00 -0.45593999997E+02  0.45594000000E+02  0.51100000000E-03 0.  1.
    9900012    2    1    2    0    0 -0.17920533998E+02  0.39104761490E+02  0.57702307194E+01  0.47787268756E+02  0.19999989565E+02 0.  0.
         12    1    1    2    0    0  0.17920533998E+02 -0.39104761490E+02 -0.57702307194E+01  0.43400731244E+02  0.00000000000E+00 0. -1.
         11    1    3    3    0    0 -0.25913263513E+01  0.12302639207E+02 -0.37734887783E+00  0.12578246943E+02  0.51100000000E-03 0. -1.
        -11    1    3    3    0    0  0.13486362238E+01  0.10778213534E+02  0.52472162613E+01  0.12063249372E+02  0.51100000000E-03 0.  1.
         12    1    3    3    0    0 -0.16677843870E+02  0.16023908749E+02  0.90036333597E+00  0.23145772441E+02  0.00000000000E+00 0. -1.
</event>
<event>
 7    1  0.2486105E-010  0.4778727E+02  0.7816164E-02  0.1312668E+00
        -11   -1    0    0    0    0  0.00000000000E+00  0.00000000000E+00  0.45593999997E+02  0.45594000000E+02  0.51100000000E-03 0.  1.
         11   -1    0    0    0    0 -0.00000000000E+00 -0.00000000000E+00 -0.45593999997E+02  0.45594000000E+02  0.51100000000E-03 0. -1.
    9900012    2    1    2    0    0  0.13657488074E+02 -0.15748762157E+02  0.38066687983E+02  0.47787271620E+02  0.20000002622E+02 0.  0.
         12    1    1    2    0    0 -0.13657488074E+02  0.15748762157E+02 -0.38066687983E+02  0.43400728380E+02  0.00000000000E+00 0. -1.
         11    1    3    3    0    0 -0.76070013690E+00 -0.75479763713E+01  0.81348844713E+01  0.11123262005E+02  0.51100000000E-03 0. -1.
        -11    1    3    3    0    0  0.11671617573E+02 -0.11641749837E+02  0.25857183683E+02  0.30665142170E+02  0.51100000000E-03 0.  1.
         12    1    3    3    0    0  0.27465706381E+01  0.34409640516E+01  0.40746198290E+01  0.59988674452E+01  0.00000000000E+00 0. -1.
</event>
<event>
 7    1  0.2486105E-010  0.4778726E+02  0.7816164E-02  0.1312668E+00
        -11   -1    0    0    0    0  0.00000000000E+00  0.00000000000E+00  0.45593999997E+02  0.45594000000E+02  0.51100000000E-03 0. -1.
         11   -1    0    0    0    0 -0.00000000000E+00 -0.00000000000E+00 -0.45593999997E+02  0.45594000000E+02  0.51100000000E-03 0.  1.
    9900012    2    1    2    0    0  0.40250390368E+02  0.15035354416E+02 -0.61211600898E+01  0.47787257978E+02  0.19999940425E+02 0.  0.
         12    1    1    2    0    0 -0.40250390368E+02 -0.15035354416E+02  0.61211600898E+01  0.43400742022E+02  0.00000000000E+00 0. -1.
         11    1    3    3    0    0  0.24081857561E+01  0.42157462785E+01  0.17911794084E+01  0.51749588651E+01  0.51100000000E-03 0. -1.
        -11    1    3    3    0    0  0.59069143745E+01  0.76305812159E+01 -0.43990198190E+00  0.96597578197E+01  0.51100000000E-03 0.  1.
        -12    1    3    3    0    0  0.31935290237E+02  0.31890269220E+01 -0.74724375163E+01  0.32952541293E+02  0.00000000000E+00 0.  1.
</event>
<event>
 7    1  0.2486105E-010  0.4778725E+02  0.7816164E-02  0.1312668E+00
        -11   -1    0    0    0    0  0.00000000000E+00  0.00000000000E+00  0.45593999997E+02  0.45594000000E+02  0.51100000000E-03 0. -1.
         11   -1    0    0    0    0 -0.00000000000E+00 -0.00000000000E+00 -0.45593999997E+02  0.45594000000E+02  0.51100000000E-03 0.  1.
    9900012    2    1    2    0    0  0.32042360829E+02 -0.93073263161E+00 -0.29258256378E+02  0.47787254419E+02  0.19999924197E+02 0.  0.
         12    1    1    2    0    0 -0.32042360829E+02  0.93073263161E+00  0.29258256378E+02  0.43400745581E+02  0.00000000000E+00 0. -1.
         11    1    3    3    0    0  0.58621714347E+01  0.27214586201E+01 -0.10299217286E+02  0.12159163948E+02  0.51100000000E-03 0. -1.
        -11    1    3    3    0    0  0.12034578766E+02  0.50579353172E+01 -0.51776295594E+01  0.14043562363E+02  0.51100000000E-03 0.  1.
         12    1    3    3    0    0  0.14145610629E+02 -0.87101265689E+01 -0.13781409532E+02  0.21584528107E+02  0.00000000000E+00 0. -1.
</event>
<event>
 7    1  0.2486105E-010  0.4778727E+02  0.7816164E-02  0.1312668E+00
        -11   -1    0    0    0    0  0.00000000000E+00  0.00000000000E+00  0.45593999997E+02  0.45594000000E+02  0.51100000000E-03 0. -1.
         11   -1    0    0    0    0 -0.00000000000E+00 -0.00000000000E+00 -0.45593999997E+02  0.45594000000E+02  0.51100000000E-03 0.  1.
    9900012    2    1    2    0    0  0.69440523222E+01  0.19767171401E+02 -0.38008713522E+02  0.47787271533E+02  0.20000002228E+02 0.  0.
         12    1    1    2    0    0 -0.69440523222E+01 -0.19767171401E+02  0.38008713522E+02  0.43400728467E+02  0.00000000000E+00 0. -1.
         11    1    3    3    0    0  0.41204667435E+01  0.13168237608E+02 -0.78657212536E+01  0.15882389586E+02  0.51100000000E-03 0. -1.
        -11    1    3    3    0    0 -0.55190582774E+00 -0.84870798091E-01  0.24367600977E+00  0.60924654609E+00  0.51100000000E-03 0.  1.
        -12    1    3    3    0    0  0.33754914064E+01  0.66838045911E+01 -0.30386668279E+02  0.31295635401E+02  0.00000000000E+00 0.  1.
</event>
<event>
 7    1  0.2486105E-010  0.4778727E+02  0.7816164E-02  0.1312668E+00
        -11   -1    0    0    0    0  0.00000000000E+00  0.00000000000E+00  0.45593999997E+02  0.45594000000E+02  0.51100000000E-03 0. -1.
         11   -1    0    0    0    0 -0.00000000000E+00 -0.00000000000E+00 -0.45593999997E+02  0.45594000000E+02  0.51100000000E-03 0.  1.
    9900012    2    1    2    0    0 -0.24834681892E+02  0.22135218146E+02  0.27872818286E+02  0.47787270672E+02  0.19999998301E+02 0.  0.
         12    1    1    2    0    0  0.24834681892E+02 -0.22135218146E+02 -0.27872818286E+02  0.43400729328E+02  0.00000000000E+00 0. -1.
         11    1    3    3    0    0 -0.13068589321E+02  0.97652869401E+01  0.25850846324E+02  0.30568204262E+02  0.51100000000E-03 0. -1.
        -11    1    3    3    0    0 -0.46979471427E+01  0.52389757806E+01  0.39719810513E+00  0.70480735794E+01  0.51100000000E-03 0.  1.
         12    1    3    3    0    0 -0.70681454288E+01  0.71309554251E+01  0.16247738563E+01  0.10170992831E+02  0.00000000000E+00 0. -1.
</event>
<event>
 7    1  0.2486105E-010  0.4778727E+02  0.7816164E-02  0.1312668E+00
        -11   -1    0    0    0    0  0.00000000000E+00  0.00000000000E+00  0.45593999997E+02  0.45594000000E+02  0.51100000000E-03 0.  1.
         11   -1    0    0    0    0 -0.00000000000E+00 -0.00000000000E+00 -0.45593999997E+02  0.45594000000E+02  0.51100000000E-03 0. -1.
    9900012    2    1    2    0    0 -0.98619362135E+01 -0.79847481462E+00  0.42257873799E+02  0.47787271366E+02  0.20000001468E+02 0.  0.
         12    1    1    2    0    0  0.98619362135E+01  0.79847481462E+00 -0.42257873799E+02  0.43400728634E+02  0.00000000000E+00 0. -1.
         11    1    3    3    0    0 -0.18873273497E+01 -0.10464613628E+01 -0.27628091204E+00  0.21756418161E+01  0.51100000000E-03 0. -1.
        -11    1    3    3    0    0 -0.18805399170E+01  0.69228334526E+01  0.14901087514E+02  0.16537970333E+02  0.51100000000E-03 0.  1.
        -12    1    3    3    0    0 -0.60940689468E+01 -0.66748469045E+01  0.27633067197E+02  0.29073659217E+02  0.00000000000E+00 0.  1.
</event>
<event>
 7    1  0.2486105E-010  0.4778727E+02  0.7816164E-02  0.1312668E+00
        -11   -1    0    0    0    0  0.00000000000E+00  0.00000000000E+00  0.45593999997E+02  0.45594000000E+02  0.51100000000E-03 0. -1.
         11   -1    0    0    0    0 -0.00000000000E+00 -0.00000000000E+00 -0.45593999997E+02  0.45594000000E+02  0.51100000000E-03 0.  1.
    9900012    2    1    2    0    0  0.25562008075E+02 -0.32557765969E+02 -0.13046038310E+02  0.47787268470E+02  0.19999988263E+02 0.  0.
         12    1    1    2    0    0 -0.25562008075E+02  0.32557765969E+02  0.13046038310E+02  0.43400731530E+02  0.00000000000E+00 0. -1.
         11    1    3    3    0    0 -0.86207429414E+00  0.29968142183E+00  0.24008564070E+00  0.94372793706E+00  0.51100000000E-03 0. -1.
        -11    1    3    3    0    0 -0.75487407724E+00 -0.10312738847E+01 -0.36904338725E+01  0.39054658014E+01  0.51100000000E-03 0.  1.
        -12    1    3    3    0    0  0.27178956447E+02 -0.31826173506E+02 -0.95956900785E+01  0.42938074732E+02  0.00000000000E+00 0.  1.
</event>
<event>
 7    1  0.2486105E-010  0.4778727E+02  0.7816164E-02  0.1312668E+00
        -11   -1    0    0    0    0  0.00000000000E+00  0.00000000000E+00  0.45593999997E+02  0.45594000000E+02  0.51100000000E-03 0.  1.
         11   -1    0    0    0    0 -0.00000000000E+00 -0.00000000000E+00 -0.45593999997E+02  0.45594000000E+02  0.51100000000E-03 0. -1.
    9900012    2    1    2    0    0 -0.15879277111E+02 -0.30185768791E+02  0.26838242117E+02  0.47787270525E+02  0.19999997632E+02 0.  0.
         12    1    1    2    0    0  0.15879277111E+02  0.30185768791E+02 -0.26838242117E+02  0.43400729475E+02  0.00000000000E+00 0. -1.
         11    1    3    3    0    0 -0.89569255066E+00 -0.49907821849E+01 -0.39396981259E+00  0.50858022412E+01  0.51100000000E-03 0. -1.
        -11    1    3    3    0    0 -0.58268420560E+01 -0.30069518785E+01  0.21334529314E+00  0.65604393466E+01  0.51100000000E-03 0.  1.
        -12    1    3    3    0    0 -0.91567425042E+01 -0.22188034727E+02  0.27018866636E+02  0.36141028937E+02  0.00000000000E+00 0.  1.
</event>
<event>
 7    1  0.2486105E-010  0.4778727E+02  0.7816164E-02  0.1312668E+00
        -11   -1    0    0    0    0  0.00000000000E+00  0.00000000000E+00  0.45593999997E+02  0.45594000000E+02  0.51100000000E-03 0.  1.
         11   -1    0    0    0    0 -0.00000000000E+00 -0.00000000000E+00 -0.45593999997E+02  0.45594000000E+02  0.51100000000E-03 0. -1.
    9900012    2    1    2    0    0  0.28673017479E+02 -0.21157256463E+02  0.24776026919E+02  0.47787274864E+02  0.20000017416E+02 0.  0.
         12    1    1    2    0    0 -0.28673017479E+02  0.21157256463E+02 -0.24776026919E+02  0.43400725136E+02  0.00000000000E+00 0. -1.
         11    1    3    3    0    0 -0.70936800826E+00 -0.25153821026E+01  0.21551487713E+01  0.33874793846E+01  0.51100000000E-03 0. -1.
        -11    1    3    3    0    0  0.16367905364E+02 -0.16786048004E+02  0.80829169370E+01  0.24799461286E+02  0.51100000000E-03 0.  1.
         12    1    3    3    0    0  0.13014480123E+02 -0.18558263567E+01  0.14537961211E+02  0.19600334194E+02  0.00000000000E+00 0. -1.
</event>
<event>
 7    1  0.2486105E-010  0.4778727E+02  0.7816164E-02  0.1312668E+00
        -11   -1    0    0    0    0  0.00000000000E+00  0.00000000000E+00  0.45593999997E+02  0.45594000000E+02  0.51100000000E-03 0.  1.
         11   -1    0    0    0    0 -0.00000000000E+00 -0.00000000000E+00 -0.45593999997E+02  0.45594000000E+02  0.51100000000E-03 0. -1.
    9900012    2    1    2    0    0 -0.11182490768E+02 -0.37514144967E+02  0.18742034097E+02  0.47787274033E+02  0.20000013625E+02 0.  0.
         12    1    1    2    0    0  0.11182490768E+02  0.37514144967E+02 -0.18742034097E+02  0.43400725967E+02  0.00000000000E+00 0. -1.
         11    1    3    3    0    0 -0.61804156155E+01 -0.26282288445E+01  0.60686180841E+00  0.67433971820E+01  0.51100000000E-03 0. -1.
        -11    1    3    3    0    0  0.73643676328E+00 -0.18414584217E+01  0.43529898441E+01  0.47834954864E+01  0.51100000000E-03 0.  1.
         12    1    3    3    0    0 -0.57385119161E+01 -0.33044457701E+02  0.13782182445E+02  0.36260381364E+02  0.00000000000E+00 0. -1.
</event>
<event>
 7    1  0.2486105E-010  0.4778727E+02  0.7816164E-02  0.1312668E+00
        -11   -1    0    0    0    0  0.00000000000E+00  0.00000000000E+00  0.45593999997E+02  0.45594000000E+02  0.51100000000E-03 0.  1.
         11   -1    0    0    0    0 -0.00000000000E+00 -0.00000000000E+00 -0.45593999997E+02  0.45594000000E+02  0.51100000000E-03 0. -1.
    9900012    2    1    2    0    0 -0.39653216318E+01 -0.22033517054E+02  0.37180956485E+02  0.47787272188E+02  0.20000005216E+02 0.  0.
         12    1    1    2    0    0  0.39653216318E+01  0.22033517054E+02 -0.37180956485E+02  0.43400727812E+02  0.00000000000E+00 0. -1.
         11    1    3    3    0    0 -0.50549404280E+01  0.18403257795E+00  0.13576961286E+01  0.52373304038E+01  0.51100000000E-03 0. -1.
        -11    1    3    3    0    0 -0.23100795318E+01 -0.71347803168E+01  0.11738877244E+02  0.13929924509E+02  0.51100000000E-03 0.  1.
         12    1    3    3    0    0  0.33996983280E+01 -0.15082769315E+02  0.24084383113E+02  0.28620017276E+02  0.00000000000E+00 0. -1.
</event>
<event>
 7    1  0.2486105E-010  0.4778727E+02  0.7816164E-02  0.1312668E+00
        -11   -1    0    0    0    0  0.00000000000E+00  0.00000000000E+00  0.45593999997E+02  0.45594000000E+02  0.51100000000E-03 0.  1.
         11   -1    0    0    0    0 -0.00000000000E+00 -0.00000000000E+00 -0.45593999997E+02  0.45594000000E+02  0.51100000000E-03 0. -1.
    9900012    2    1    2    0    0  0.10413449579E+02 -0.40601228193E+02  0.11257158126E+02  0.47787271066E+02  0.20000000097E+02 0.  0.
         12    1    1    2    0    0 -0.10413449579E+02  0.40601228193E+02 -0.11257158126E+02  0.43400728934E+02  0.00000000000E+00 0. -1.
         11    1    3    3    0    0  0.82067410932E+00 -0.11239404014E+02  0.77347908152E+01  0.13668383145E+02  0.51100000000E-03 0. -1.
        -11    1    3    3    0    0 -0.10735066561E+01 -0.18443797434E+02  0.37592766400E+01  0.18853600225E+02  0.51100000000E-03 0.  1.
         12    1    3    3    0    0  0.10666282126E+02 -0.10918026745E+02 -0.23690932881E+00  0.15265287695E+02  0.00000000000E+00 0. -1.
</event>
<event>
 7    1  0.2486105E-010  0.4778727E+02  0.7816164E-02  0.1312668E+00
        -11   -1    0    0    0    0  0.00000000000E+00  0.00000000000E+00  0.45593999997E+02  0.45594000000E+02  0.51100000000E-03 0.  1.
         11   -1    0    0    0    0 -0.00000000000E+00 -0.00000000000E+00 -0.45593999997E+02  0.45594000000E+02  0.51100000000E-03 0. -1.
    9900012    2    1    2    0    0 -0.15593295445E+00 -0.37391016426E+02  0.22034309102E+02  0.47787271871E+02  0.20000003770E+02 0.  0.
         12    1    1    2    0    0  0.15593295445E+00  0.37391016426E+02 -0.22034309102E+02  0.43400728129E+02  0.00000000000E+00 0. -1.
         11    1    3    3    0    0 -0.46845734889E+01 -0.59902914762E+01  0.12714105607E+01  0.77100781979E+01  0.51100000000E-03 0. -1.
        -11    1    3    3    0    0 -0.17708234682E+01 -0.18782093210E+02  0.63339782783E+01  0.19900304575E+02  0.51100000000E-03 0.  1.
        -12    1    3    3    0    0  0.62994640027E+01 -0.12618631740E+02  0.14428920263E+02  0.20176889098E+02  0.00000000000E+00 0.  1.
</event>
<event>
 7    1  0.2486105E-010  0.4778725E+02  0.7816164E-02  0.1312668E+00
        -11   -1    0    0    0    0  0.00000000000E+00  0.00000000000E+00  0.45593999997E+02  0.45594000000E+02  0.51100000000E-03 0.  1.
         11   -1    0    0    0    0 -0.00000000000E+00 -0.00000000000E+00 -0.45593999997E+02  0.45594000000E+02  0.51100000000E-03 0. -1.
    9900012    2    1    2    0    0 -0.13293304026E+02 -0.34826804250E+02  0.22226273060E+02  0.47787246086E+02  0.19999886204E+02 0.  0.
         12    1    1    2    0    0  0.13293304026E+02  0.34826804250E+02 -0.22226273060E+02  0.43400753914E+02  0.00000000000E+00 0. -1.
         11    1    3    3    0    0 -0.30116849828E+01 -0.14607313213E+01 -0.11936621543E+01  0.35537039871E+01  0.51100000000E-03 0. -1.
        -11    1    3    3    0    0 -0.12224047231E+02 -0.17178363840E+02  0.11321481783E+02  0.23931140068E+02  0.51100000000E-03 0.  1.
         12    1    3    3    0    0  0.19424281878E+01 -0.16187709088E+02  0.12098453432E+02  0.20302402031E+02  0.00000000000E+00 0. -1.
</event>
<event>
 7    1  0.2486105E-010  0.4778727E+02  0.7816164E-02  0.1312668E+00
        -11   -1    0    0    0    0  0.00000000000E+00  0.00000000000E+00  0.45593999997E+02  0.45594000000E+02  0.51100000000E-03 0.  1.
         11   -1    0    0    0    0 -0.00000000000E+00 -0.00000000000E+00 -0.45593999997E+02  0.45594000000E+02  0.51100000000E-03 0. -1.
    9900012    2    1    2    0    0 -0.19146688013E+02  0.37359730999E+02  0.11012643620E+02  0.47787268650E+02  0.19999989083E+02 0.  0.
         12    1    1    2    0    0  0.19146688013E+02 -0.37359730999E+02 -0.11012643620E+02  0.43400731350E+02  0.00000000000E+00 0. -1.
         11    1    3    3    0    0 -0.17860380035E+02  0.25597001266E+02  0.31428587930E+01  0.31370004949E+02  0.51100000000E-03 0.  1.
        -11    1    3    3    0    0  0.23447631576E+01  0.11061893857E+01 -0.14648103269E+00  0.25967337515E+01  0.51100000000E-03 0. -1.
        -12    1    3    3    0    0 -0.36310711351E+01  0.10656540348E+02  0.80162658593E+01  0.13820529950E+02  0.00000000000E+00 0.  1.
</event>
<event>
 7    1  0.2486105E-010  0.4778727E+02  0.7816164E-02  0.1312668E+00
        -11   -1    0    0    0    0  0.00000000000E+00  0.00000000000E+00  0.45593999997E+02  0.45594000000E+02  0.51100000000E-03 0.  1.
         11   -1    0    0    0    0 -0.00000000000E+00 -0.00000000000E+00 -0.45593999997E+02  0.45594000000E+02  0.51100000000E-03 0. -1.
    9900012    2    1    2    0    0 -0.23419577398E+01  0.90157952748E+01  0.42389310011E+02  0.47787274964E+02  0.20000017870E+02 0.  0.
         12    1    1    2    0    0  0.23419577398E+01 -0.90157952748E+01 -0.42389310011E+02  0.43400725036E+02  0.00000000000E+00 0. -1.
         11    1    3    3    0    0  0.13419413119E+01  0.64602747725E+00  0.14352085651E+02  0.14429155234E+02  0.51100000000E-03 0. -1.
        -11    1    3    3    0    0 -0.98002005502E+00  0.34346118890E+01  0.27471188162E+02  0.27702403820E+02  0.51100000000E-03 0.  1.
        -12    1    3    3    0    0 -0.27038789967E+01  0.49351559085E+01  0.56603619806E+00  0.56557159094E+01  0.00000000000E+00 0.  1.
</event>
<event>
 7    1  0.2486105E-010  0.4778728E+02  0.7816164E-02  0.1312668E+00
        -11   -1    0    0    0    0  0.00000000000E+00  0.00000000000E+00  0.45593999997E+02  0.45594000000E+02  0.51100000000E-03 0. -1.
         11   -1    0    0    0    0 -0.00000000000E+00 -0.00000000000E+00 -0.45593999997E+02  0.45594000000E+02  0.51100000000E-03 0.  1.
    9900012    2    1    2    0    0  0.25560741827E+02 -0.27174303635E+02 -0.22177206396E+02  0.47787276685E+02  0.20000025716E+02 0.  0.
         12    1    1    2    0    0 -0.25560741827E+02  0.27174303635E+02  0.22177206396E+02  0.43400723315E+02  0.00000000000E+00 0. -1.
         11    1    3    3    0    0  0.23438837175E+02 -0.17336148262E+02 -0.20168374924E+02  0.35449745725E+02  0.51100000000E-03 0.  1.
        -11    1    3    3    0    0  0.10081995783E+01  0.21335867570E+00 -0.19713267123E+01  0.22244364639E+01  0.51100000000E-03 0. -1.
        -12    1    3    3    0    0  0.11137050732E+01 -0.10051514049E+02 -0.37504759817E-01  0.10113094495E+02  0.00000000000E+00 0.  1.
</event>
<event>
 7    1  0.2486105E-010  0.4778727E+02  0.7816164E-02  0.1312668E+00
        -11   -1    0    0    0    0  0.00000000000E+00  0.00000000000E+00  0.45593999997E+02  0.45594000000E+02  0.51100000000E-03 0.  1.
         11   -1    0    0    0    0 -0.00000000000E+00 -0.00000000000E+00 -0.45593999997E+02  0.45594000000E+02  0.51100000000E-03 0. -1.
    9900012    2    1    2    0    0 -0.39909824074E+02  0.12659066683E+02 -0.11427038628E+02  0.47787271450E+02  0.20000001848E+02 0.  0.
         12    1    1    2    0    0  0.39909824074E+02 -0.12659066683E+02  0.11427038628E+02  0.43400728550E+02  0.00000000000E+00 0. -1.
         11    1    3    3    0    0 -0.12381965667E+02 -0.19913318687E+00 -0.31382371311E+01  0.12775024867E+02  0.51100000000E-03 0. -1.
        -11    1    3    3    0    0 -0.28136118613E+02  0.14860168585E+02 -0.84241827033E+01  0.32915537904E+02  0.51100000000E-03 0.  1.
         12    1    3    3    0    0  0.60826020615E+00 -0.20019687151E+01  0.13538120677E+00  0.20967086793E+01  0.00000000000E+00 0. -1.
</event>
<event>
 7    1  0.2486105E-010  0.4778727E+02  0.7816164E-02  0.1312668E+00
        -11   -1    0    0    0    0  0.00000000000E+00  0.00000000000E+00  0.45593999997E+02  0.45594000000E+02  0.51100000000E-03 0. -1.
         11   -1    0    0    0    0 -0.00000000000E+00 -0.00000000000E+00 -0.45593999997E+02  0.45594000000E+02  0.51100000000E-03 0.  1.
    9900012    2    1    2    0    0  0.67347904054E+01  0.10833989752E+01 -0.42861312582E+02  0.47787271073E+02  0.20000000131E+02 0.  0.
         12    1    1    2    0    0 -0.67347904054E+01 -0.10833989752E+01  0.42861312582E+02  0.43400728927E+02  0.00000000000E+00 0. -1.
         11    1    3    3    0    0  0.56041634815E+00  0.15528590324E+01  0.28159967015E+00  0.16747346934E+01  0.51100000000E-03 0. -1.
        -11    1    3    3    0    0  0.68400460590E+01 -0.54076534792E+01 -0.37857299629E+02  0.38848475925E+02  0.51100000000E-03 0.  1.
        -12    1    3    3    0    0 -0.66567200172E+00  0.49381934220E+01 -0.52856126229E+01  0.72640604545E+01  0.00000000000E+00 0.  1.
</event>
<event>
 7    1  0.2486105E-010  0.4778727E+02  0.7816164E-02  0.1312668E+00
        -11   -1    0    0    0    0  0.00000000000E+00  0.00000000000E+00  0.45593999997E+02  0.45594000000E+02  0.51100000000E-03 0. -1.
         11   -1    0    0    0    0 -0.00000000000E+00 -0.00000000000E+00 -0.45593999997E+02  0.45594000000E+02  0.51100000000E-03 0.  1.
    9900012    2    1    2    0    0  0.70814422165E+01 -0.42539769045E+02 -0.48830979260E+01  0.47787269366E+02  0.19999992346E+02 0.  0.
         12    1    1    2    0    0 -0.70814422165E+01  0.42539769045E+02  0.48830979260E+01  0.43400730634E+02  0.00000000000E+00 0. -1.
         11    1    3    3    0    0 -0.22747081101E+01 -0.62120711441E+01 -0.29416714803E+01  0.72399969782E+01  0.51100000000E-03 0. -1.
        -11    1    3    3    0    0 -0.29081393659E+01 -0.38095328474E+01  0.26738644707E+01  0.54881113833E+01  0.51100000000E-03 0.  1.
         12    1    3    3    0    0  0.12264289692E+02 -0.32518165053E+02 -0.46152909164E+01  0.35059161004E+02  0.00000000000E+00 0. -1.
</event>
<event>
 7    1  0.2486105E-010  0.4778727E+02  0.7816164E-02  0.1312668E+00
        -11   -1    0    0    0    0  0.00000000000E+00  0.00000000000E+00  0.45593999997E+02  0.45594000000E+02  0.51100000000E-03 0.  1.
         11   -1    0    0    0    0 -0.00000000000E+00 -0.00000000000E+00 -0.45593999997E+02  0.45594000000E+02  0.51100000000E-03 0. -1.
    9900012    2    1    2    0    0  0.10887052249E+01 -0.70329118121E+01  0.42813267429E+02  0.47787274251E+02  0.20000014619E+02 0.  0.
         12    1    1    2    0    0 -0.10887052249E+01  0.70329118121E+01 -0.42813267429E+02  0.43400725749E+02  0.00000000000E+00 0. -1.
         11    1    3    3    0    0 -0.16432394597E+01 -0.38708156418E+01  0.31333174473E+01  0.52441518038E+01  0.51100000000E-03 0. -1.
        -11    1    3    3    0    0  0.56629159748E+01  0.21531919552E+01  0.67991719885E+01  0.91067882881E+01  0.51100000000E-03 0.  1.
        -12    1    3    3    0    0 -0.29309712902E+01 -0.53152881255E+01  0.32880777993E+02  0.33436334159E+02  0.00000000000E+00 0.  1.
</event>
<event>
 7    1  0.2486105E-010  0.4778726E+02  0.7816164E-02  0.1312668E+00
        -11   -1    0    0    0    0  0.00000000000E+00  0.00000000000E+00  0.45593999997E+02  0.45594000000E+02  0.51100000000E-03 0. -1.
         11   -1    0    0    0    0 -0.00000000000E+00 -0.00000000000E+00 -0.45593999997E+02  0.45594000000E+02  0.51100000000E-03 0.  1.
    9900012    2    1    2    0    0 -0.42057167856E+02 -0.10714555567E+02  0.12986517941E+00  0.47787263439E+02  0.19999965323E+02 0.  0.
         12    1    1    2    0    0  0.42057167856E+02  0.10714555567E+02 -0.12986517941E+00  0.43400736561E+02  0.00000000000E+00 0. -1.
         11    1    3    3    0    0 -0.16764848350E+02 -0.60933846050E+01  0.32147933787E+01  0.18125241319E+02  0.51100000000E-03 0.  1.
        -11    1    3    3    0    0 -0.68380049060E+01 -0.77340766210E+01  0.13976490484E+01  0.10417661705E+02  0.51100000000E-03 0. -1.
         12    1    3    3    0    0 -0.18454314600E+02  0.31129056586E+01 -0.44825772476E+01  0.19244360415E+02  0.00000000000E+00 0. -1.
</event>
<event>
 7    1  0.2486105E-010  0.4778727E+02  0.7816164E-02  0.1312668E+00
        -11   -1    0    0    0    0  0.00000000000E+00  0.00000000000E+00  0.45593999997E+02  0.45594000000E+02  0.51100000000E-03 0.  1.
         11   -1    0    0    0    0 -0.00000000000E+00 -0.00000000000E+00 -0.45593999997E+02  0.45594000000E+02  0.51100000000E-03 0. -1.
    9900012    2    1    2    0    0 -0.16293062661E+02 -0.29269612528E+02  0.27594376172E+02  0.47787266080E+02  0.19999977365E+02 0.  0.
         12    1    1    2    0    0  0.16293062661E+02  0.29269612528E+02 -0.27594376172E+02  0.43400733920E+02  0.00000000000E+00 0. -1.
         11    1    3    3    0    0 -0.44999551688E+00 -0.25863117225E+01  0.39146686114E+01  0.47133995046E+01  0.51100000000E-03 0. -1.
        -11    1    3    3    0    0 -0.79650688299E+01 -0.39149910207E+01 -0.56603158680E+00  0.88932484602E+01  0.51100000000E-03 0.  1.
         12    1    3    3    0    0 -0.78779983147E+01 -0.22768309785E+02  0.24245739148E+02  0.34180618115E+02  0.00000000000E+00 0. -1.
</event>
<event>
 7    1  0.2486105E-010  0.4778727E+02  0.7816164E-02  0.1312668E+00
        -11   -1    0    0    0    0  0.00000000000E+00  0.00000000000E+00  0.45593999997E+02  0.45594000000E+02  0.51100000000E-03 0. -1.
         11   -1    0    0    0    0 -0.00000000000E+00 -0.00000000000E+00 -0.45593999997E+02  0.45594000000E+02  0.51100000000E-03 0.  1.
    9900012    2    1    2    0    0 -0.18145812677E+02  0.25327666110E+02 -0.30213604594E+02  0.47787273153E+02  0.20000009612E+02 0.  0.
         12    1    1    2    0    0  0.18145812677E+02 -0.25327666110E+02  0.30213604594E+02  0.43400726847E+02  0.00000000000E+00 0. -1.
         11    1    3    3    0    0  0.54943657568E-01  0.44545369708E+01  0.16787924670E+01  0.47606998265E+01  0.51100000000E-03 0. -1.
        -11    1    3    3    0    0 -0.51211725267E+01  0.30140418119E+01 -0.30822195468E+01  0.66940969285E+01  0.51100000000E-03 0.  1.
        -12    1    3    3    0    0 -0.13079583808E+02  0.17859087328E+02 -0.28810177514E+02  0.36332476398E+02  0.00000000000E+00 0.  1.
</event>
<event>
 7    1  0.2486105E-010  0.4778725E+02  0.7816164E-02  0.1312668E+00
        -11   -1    0    0    0    0  0.00000000000E+00  0.00000000000E+00  0.45593999997E+02  0.45594000000E+02  0.51100000000E-03 0.  1.
         11   -1    0    0    0    0 -0.00000000000E+00 -0.00000000000E+00 -0.45593999997E+02  0.45594000000E+02  0.51100000000E-03 0. -1.
    9900012    2    1    2    0    0  0.21608770358E+02 -0.32902785834E+02  0.18278201972E+02  0.47787251858E+02  0.19999912519E+02 0.  0.
         12    1    1    2    0    0 -0.21608770358E+02  0.32902785834E+02 -0.18278201972E+02  0.43400748142E+02  0.00000000000E+00 0. -1.
         11    1    3    3    0    0 -0.38974180831E+00 -0.19601319715E+01 -0.14414147691E+00  0.20036948494E+01  0.51100000000E-03 0. -1.
        -11    1    3    3    0    0  0.17871276559E+02 -0.98963778367E+01  0.80126297062E+01  0.21943633592E+02  0.51100000000E-03 0.  1.
        -12    1    3    3    0    0  0.41272356069E+01 -0.21046276025E+02  0.10409713743E+02  0.23839923416E+02  0.00000000000E+00 0.  1.
</event>
<event>
 7    1  0.2486105E-010  0.4778727E+02  0.7816164E-02  0.1312668E+00
        -11   -1    0    0    0    0  0.00000000000E+00  0.00000000000E+00  0.45593999997E+02  0.45594000000E+02  0.51100000000E-03 0.  1.
         11   -1    0    0    0    0 -0.00000000000E+00 -0.00000000000E+00 -0.45593999997E+02  0.45594000000E+02  0.51100000000E-03 0. -1.
    9900012    2    1    2    0    0  0.25985900886E+02  0.19337985901E+02  0.28885957207E+02  0.47787271119E+02  0.20000000341E+02 0.  0.
         12    1    1    2    0    0 -0.25985900886E+02 -0.19337985901E+02 -0.28885957207E+02  0.43400728881E+02  0.00000000000E+00 0. -1.
         11    1    3    3    0    0 -0.17922644250E+01  0.25193553314E+01  0.51475013624E+01  0.60046759772E+01  0.51100000000E-03 0. -1.
        -11    1    3    3    0    0  0.75279613693E+01  0.10972091863E+02  0.90679532512E+01  0.16102322151E+02  0.51100000000E-03 0.  1.
        -12    1    3    3    0    0  0.20250203942E+02  0.58465387072E+01  0.14670502594E+02  0.25680272991E+02  0.00000000000E+00 0.  1.
</event>
<event>
 7    1  0.2486105E-010  0.4778728E+02  0.7816164E-02  0.1312668E+00
        -11   -1    0    0    0    0  0.00000000000E+00  0.00000000000E+00  0.45593999997E+02  0.45594000000E+02  0.51100000000E-03 0. -1.
         11   -1    0    0    0    0 -0.00000000000E+00 -0.00000000000E+00 -0.45593999997E+02  0.45594000000E+02  0.51100000000E-03 0.  1.
    9900012    2    1    2    0    0 -0.24664723937E+01  0.11262445403E+02 -0.41841328269E+02  0.47787275193E+02  0.20000018913E+02 0.  0.
         12    1    1    2    0    0  0.24664723937E+01 -0.11262445403E+02  0.41841328269E+02  0.43400724807E+02  0.00000000000E+00 0. -1.
         11    1    3    3    0    0 -0.30500246983E+01  0.23535966902E+01 -0.97093890185E+00  0.39730077589E+01  0.51100000000E-03 0. -1.
        -11    1    3    3    0    0 -0.40086734156E+01  0.74909168963E+01 -0.12983605909E+02  0.15516356568E+02  0.51100000000E-03 0.  1.
         12    1    3    3    0    0  0.45922257201E+01  0.14179318163E+01 -0.27886783458E+02  0.28297910865E+02  0.00000000000E+00 0. -1.
</event>
<event>
 7    1  0.2486105E-010  0.4778727E+02  0.7816164E-02  0.1312668E+00
        -11   -1    0    0    0    0  0.00000000000E+00  0.00000000000E+00  0.45593999997E+02  0.45594000000E+02  0.51100000000E-03 0.  1.
         11   -1    0    0    0    0 -0.00000000000E+00 -0.00000000000E+00 -0.45593999997E+02  0.45594000000E+02  0.51100000000E-03 0. -1.
    9900012    2    1    2    0    0 -0.42577187562E+02 -0.82412763581E+01 -0.16993616328E+01  0.47787269975E+02  0.19999995125E+02 0.  0.
         12    1    1    2    0    0  0.42577187562E+02  0.82412763581E+01  0.16993616328E+01  0.43400730025E+02  0.00000000000E+00 0. -1.
         11    1    3    3    0    0 -0.84568436293E+01 -0.34346403656E+01 -0.74608031428E+01  0.11788916083E+02  0.51100000000E-03 0. -1.
        -11    1    3    3    0    0 -0.64146867698E+01 -0.44743743454E+01  0.15347725262E+01  0.79701793648E+01  0.51100000000E-03 0.  1.
        -12    1    3    3    0    0 -0.27705657163E+02 -0.33226164707E+00  0.42266689837E+01  0.28028174528E+02  0.00000000000E+00 0.  1.
</event>
<event>
 7    1  0.2486105E-010  0.4778727E+02  0.7816164E-02  0.1312668E+00
        -11   -1    0    0    0    0  0.00000000000E+00  0.00000000000E+00  0.45593999997E+02  0.45594000000E+02  0.51100000000E-03 0. -1.
         11   -1    0    0    0    0 -0.00000000000E+00 -0.00000000000E+00 -0.45593999997E+02  0.45594000000E+02  0.51100000000E-03 0.  1.
    9900012    2    1    2    0    0 -0.11029696557E+02 -0.33408788547E+02 -0.25413020599E+02  0.47787274495E+02  0.20000015734E+02 0.  0.
         12    1    1    2    0    0  0.11029696557E+02  0.33408788547E+02  0.25413020599E+02  0.43400725505E+02  0.00000000000E+00 0. -1.
         11    1    3    3    0    0  0.13143718852E+01 -0.12197556733E+02 -0.11708305671E+02  0.16958549043E+02  0.51100000000E-03 0. -1.
        -11    1    3    3    0    0  0.11550715482E+01 -0.80990482683E+01 -0.72568012063E+01  0.10935718410E+02  0.51100000000E-03 0.  1.
        -12    1    3    3    0    0 -0.13499139990E+02 -0.13112183546E+02 -0.64479137224E+01  0.19893007042E+02  0.00000000000E+00 0.  1.
</event>
<event>
 7    1  0.2486105E-010  0.4778727E+02  0.7816164E-02  0.1312668E+00
        -11   -1    0    0    0    0  0.00000000000E+00  0.00000000000E+00  0.45593999997E+02  0.45594000000E+02  0.51100000000E-03 0.  1.
         11   -1    0    0    0    0 -0.00000000000E+00 -0.00000000000E+00 -0.45593999997E+02  0.45594000000E+02  0.51100000000E-03 0. -1.
    9900012    2    1    2    0    0 -0.10371002582E+01 -0.10333646096E+02  0.42139805489E+02  0.47787273909E+02  0.20000013058E+02 0.  0.
         12    1    1    2    0    0  0.10371002582E+01  0.10333646096E+02 -0.42139805489E+02  0.43400726091E+02  0.00000000000E+00 0. -1.
         11    1    3    3    0    0  0.23428629380E+01 -0.85914501835E+01  0.17554881048E+02  0.19684406821E+02  0.51100000000E-03 0. -1.
        -11    1    3    3    0    0  0.35003787259E+01 -0.48691753824E+01  0.95798469815E+01  0.11301990470E+02  0.51100000000E-03 0.  1.
         12    1    3    3    0    0 -0.68803419221E+01  0.31269794695E+01  0.15005077460E+02  0.16800876618E+02  0.00000000000E+00 0. -1.
</event>
<event>
 7    1  0.2486105E-010  0.4778727E+02  0.7816164E-02  0.1312668E+00
        -11   -1    0    0    0    0  0.00000000000E+00  0.00000000000E+00  0.45593999997E+02  0.45594000000E+02  0.51100000000E-03 0.  1.
         11   -1    0    0    0    0 -0.00000000000E+00 -0.00000000000E+00 -0.45593999997E+02  0.45594000000E+02  0.51100000000E-03 0. -1.
    9900012    2    1    2    0    0 -0.79208821918E+01 -0.38697602834E+02  0.17982727640E+02  0.47787270361E+02  0.19999996885E+02 0.  0.
         12    1    1    2    0    0  0.79208821918E+01  0.38697602834E+02 -0.17982727640E+02  0.43400729639E+02  0.00000000000E+00 0. -1.
         11    1    3    3    0    0 -0.62444931964E+01 -0.37845816763E+02  0.14118654557E+02  0.40873413713E+02  0.51100000000E-03 0. -1.
        -11    1    3    3    0    0 -0.17428096393E+01 -0.29453650358E+01  0.32775435978E+01  0.47386551815E+01  0.51100000000E-03 0.  1.
         12    1    3    3    0    0  0.66420643826E-01  0.20935789651E+01  0.58652948495E+00  0.21752014670E+01  0.00000000000E+00 0. -1.
</event>
<event>
 7    1  0.2486105E-010  0.4778727E+02  0.7816164E-02  0.1312668E+00
        -11   -1    0    0    0    0  0.00000000000E+00  0.00000000000E+00  0.45593999997E+02  0.45594000000E+02  0.51100000000E-03 0.  1.
         11   -1    0    0    0    0 -0.00000000000E+00 -0.00000000000E+00 -0.45593999997E+02  0.45594000000E+02  0.51100000000E-03 0. -1.
    9900012    2    1    2    0    0  0.21738071597E+02 -0.37419456592E+02  0.32960735087E+01  0.47787267415E+02  0.19999983450E+02 0.  0.
         12    1    1    2    0    0 -0.21738071597E+02  0.37419456592E+02 -0.32960735087E+01  0.43400732585E+02  0.00000000000E+00 0. -1.
         11    1    3    3    0    0  0.52499073390E+01 -0.90011800328E+01  0.55986203418E+01  0.11829087837E+02  0.51100000000E-03 0. -1.
        -11    1    3    3    0    0  0.17545038600E+02 -0.27542061740E+02  0.69299142193E+00  0.32663033872E+02  0.51100000000E-03 0.  1.
         12    1    3    3    0    0 -0.10568743421E+01 -0.87621481878E+00 -0.29955382550E+01  0.32951457056E+01  0.00000000000E+00 0. -1.
</event>
<event>
 7    1  0.2486105E-010  0.4778727E+02  0.7816164E-02  0.1312668E+00
        -11   -1    0    0    0    0  0.00000000000E+00  0.00000000000E+00  0.45593999997E+02  0.45594000000E+02  0.51100000000E-03 0. -1.
         11   -1    0    0    0    0 -0.00000000000E+00 -0.00000000000E+00 -0.45593999997E+02  0.45594000000E+02  0.51100000000E-03 0.  1.
    9900012    2    1    2    0    0  0.31284213754E+02  0.28421285733E+02  0.98565769521E+01  0.47787267032E+02  0.19999981707E+02 0.  0.
         12    1    1    2    0    0 -0.31284213754E+02 -0.28421285733E+02 -0.98565769521E+01  0.43400732968E+02  0.00000000000E+00 0. -1.
         11    1    3    3    0    0  0.43502481315E+01 -0.63732525144E+00  0.37464648935E+01  0.57764038762E+01  0.51100000000E-03 0. -1.
        -11    1    3    3    0    0  0.10975853734E+01  0.24561361108E+01 -0.27881434119E+01  0.38744086250E+01  0.51100000000E-03 0.  1.
        -12    1    3    3    0    0  0.25836380249E+02  0.26602474874E+02  0.88982554705E+01  0.38136454531E+02  0.00000000000E+00 0.  1.
</event>
<event>
 7    1  0.2486105E-010  0.4778727E+02  0.7816164E-02  0.1312668E+00
        -11   -1    0    0    0    0  0.00000000000E+00  0.00000000000E+00  0.45593999997E+02  0.45594000000E+02  0.51100000000E-03 0.  1.
         11   -1    0    0    0    0 -0.00000000000E+00 -0.00000000000E+00 -0.45593999997E+02  0.45594000000E+02  0.51100000000E-03 0. -1.
    9900012    2    1    2    0    0  0.20984967693E+02 -0.60319039391E+01  0.37508272934E+02  0.47787271058E+02  0.20000000062E+02 0.  0.
         12    1    1    2    0    0 -0.20984967693E+02  0.60319039391E+01 -0.37508272934E+02  0.43400728942E+02  0.00000000000E+00 0. -1.
         11    1    3    3    0    0  0.11724021541E+02  0.12547005257E+01  0.10853813149E+02  0.16025985606E+02  0.51100000000E-03 0. -1.
        -11    1    3    3    0    0 -0.13122008120E+01  0.14148128219E+00 -0.71053728907E+00  0.14989167504E+01  0.51100000000E-03 0.  1.
        -12    1    3    3    0    0  0.10573146964E+02 -0.74280857469E+01  0.27364997074E+02  0.30262368702E+02  0.00000000000E+00 0.  1.
</event>
<event>
 7    1  0.2486105E-010  0.4778727E+02  0.7816164E-02  0.1312668E+00
        -11   -1    0    0    0    0  0.00000000000E+00  0.00000000000E+00  0.45593999997E+02  0.45594000000E+02  0.51100000000E-03 0. -1.
         11   -1    0    0    0    0 -0.00000000000E+00 -0.00000000000E+00 -0.45593999997E+02  0.45594000000E+02  0.51100000000E-03 0.  1.
    9900012    2    1    2    0    0 -0.50189023772E+01  0.37450158080E+02 -0.21352268787E+02  0.47787273006E+02  0.20000008943E+02 0.  0.
         12    1    1    2    0    0  0.50189023772E+01 -0.37450158080E+02  0.21352268787E+02  0.43400726994E+02  0.00000000000E+00 0. -1.
         11    1    3    3    0    0  0.32350345698E+01  0.84353219153E+01 -0.23987889028E+01  0.93474217271E+01  0.51100000000E-03 0. -1.
        -11    1    3    3    0    0 -0.34126466582E-01  0.22560039799E+02 -0.15730720999E+02  0.27502947911E+02  0.51100000000E-03 0.  1.
         12    1    3    3    0    0 -0.82198104805E+01  0.64547963653E+01 -0.32227588847E+01  0.10936903368E+02  0.00000000000E+00 0. -1.
</event>
<event>
 7    1  0.2486105E-010  0.4778727E+02  0.7816164E-02  0.1312668E+00
        -11   -1    0    0    0    0  0.00000000000E+00  0.00000000000E+00  0.45593999997E+02  0.45594000000E+02  0.51100000000E-03 0. -1.
         11   -1    0    0    0    0 -0.00000000000E+00 -0.00000000000E+00 -0.45593999997E+02  0.45594000000E+02  0.51100000000E-03 0.  1.
    9900012    2    1    2    0    0  0.37010280166E+02 -0.19490149025E+02 -0.11575691111E+02  0.47787269918E+02  0.19999994863E+02 0.  0.
         12    1    1    2    0    0 -0.37010280166E+02  0.19490149025E+02  0.11575691111E+02  0.43400730082E+02  0.00000000000E+00 0. -1.
         11    1    3    3    0    0  0.64048718826E+00  0.10805742147E+01  0.61269194564E+00  0.13975894079E+01  0.51100000000E-03 0. -1.
        -11    1    3    3    0    0  0.18927620133E+02 -0.96404699987E+01 -0.14437263844E+02  0.25683225133E+02  0.51100000000E-03 0.  1.
        -12    1    3    3    0    0  0.17442172845E+02 -0.10930253241E+02  0.22488807873E+01  0.20706455377E+02  0.00000000000E+00 0.  1.
</event>
<event>
 7    1  0.2486105E-010  0.4778727E+02  0.7816164E-02  0.1312668E+00
        -11   -1    0    0    0    0  0.00000000000E+00  0.00000000000E+00  0.45593999997E+02  0.45594000000E+02  0.51100000000E-03 0. -1.
         11   -1    0    0    0    0 -0.00000000000E+00 -0.00000000000E+00 -0.45593999997E+02  0.45594000000E+02  0.51100000000E-03 0.  1.
    9900012    2    1    2    0    0  0.33190324292E+02  0.19492884990E+02 -0.20051261038E+02  0.47787271192E+02  0.20000000673E+02 0.  0.
         12    1    1    2    0    0 -0.33190324292E+02 -0.19492884990E+02  0.20051261038E+02  0.43400728808E+02  0.00000000000E+00 0. -1.
         11    1    3    3    0    0  0.42186585110E+00 -0.11184487366E+01 -0.41321566641E+01  0.43015831191E+01  0.51100000000E-03 0. -1.
        -11    1    3    3    0    0  0.18670100296E+02  0.18199584129E+02 -0.11663923308E+02  0.28562993799E+02  0.51100000000E-03 0.  1.
         12    1    3    3    0    0  0.14098358145E+02  0.24117495979E+01 -0.42551810650E+01  0.14922694274E+02  0.00000000000E+00 0. -1.
</event>
<event>
 7    1  0.2486105E-010  0.4778727E+02  0.7816164E-02  0.1312668E+00
        -11   -1    0    0    0    0  0.00000000000E+00  0.00000000000E+00  0.45593999997E+02  0.45594000000E+02  0.51100000000E-03 0.  1.
         11   -1    0    0    0    0 -0.00000000000E+00 -0.00000000000E+00 -0.45593999997E+02  0.45594000000E+02  0.51100000000E-03 0. -1.
    9900012    2    1    2    0    0  0.22570143797E+02 -0.30891891469E+02  0.20491528693E+02  0.47787273074E+02  0.20000009251E+02 0.  0.
         12    1    1    2    0    0 -0.22570143797E+02  0.30891891469E+02 -0.20491528693E+02  0.43400726926E+02  0.00000000000E+00 0. -1.
         11    1    3    3    0    0 -0.13595549648E+01 -0.21640206770E+01  0.14203896587E+01  0.29238471637E+01  0.51100000000E-03 0. -1.
        -11    1    3    3    0    0  0.13650184079E+02 -0.65302104040E+01  0.25510356855E+01  0.15345323608E+02  0.51100000000E-03 0.  1.
        -12    1    3    3    0    0  0.10279514683E+02 -0.22197660388E+02  0.16520103349E+02  0.29518102301E+02  0.00000000000E+00 0.  1.
</event>
<event>
 7    1  0.2486105E-010  0.4778726E+02  0.7816164E-02  0.1312668E+00
        -11   -1    0    0    0    0  0.00000000000E+00  0.00000000000E+00  0.45593999997E+02  0.45594000000E+02  0.51100000000E-03 0. -1.
         11   -1    0    0    0    0 -0.00000000000E+00 -0.00000000000E+00 -0.45593999997E+02  0.45594000000E+02  0.51100000000E-03 0.  1.
    9900012    2    1    2    0    0  0.33545420260E+02  0.18126062792E+02 -0.20731002358E+02  0.47787264619E+02  0.19999970705E+02 0.  0.
         12    1    1    2    0    0 -0.33545420260E+02 -0.18126062792E+02  0.20731002358E+02  0.43400735381E+02  0.00000000000E+00 0. -1.
         11    1    3    3    0    0  0.60395881288E+01 -0.10510486465E+01 -0.86228781054E+01  0.10579950619E+02  0.51100000000E-03 0. -1.
        -11    1    3    3    0    0  0.27785370747E+01 -0.12982795576E+01 -0.13210821295E+01  0.33393197419E+01  0.51100000000E-03 0.  1.
        -12    1    3    3    0    0  0.24727295057E+02  0.20475390996E+02 -0.10787042124E+02  0.33867994258E+02  0.00000000000E+00 0.  1.
</event>
<event>
 7    1  0.2486105E-010  0.4778727E+02  0.7816164E-02  0.1312668E+00
        -11   -1    0    0    0    0  0.00000000000E+00  0.00000000000E+00  0.45593999997E+02  0.45594000000E+02  0.51100000000E-03 0.  1.
         11   -1    0    0    0    0 -0.00000000000E+00 -0.00000000000E+00 -0.45593999997E+02  0.45594000000E+02  0.51100000000E-03 0. -1.
    9900012    2    1    2    0    0 -0.29923034716E+02  0.31394176711E+02 -0.16250108204E+01  0.47787274221E+02  0.20000014483E+02 0.  0.
         12    1    1    2    0    0  0.29923034716E+02 -0.31394176711E+02  0.16250108204E+01  0.43400725779E+02  0.00000000000E+00 0. -1.
         11    1    3    3    0    0 -0.17384470082E+02  0.66501594975E+01  0.47970239926E+01  0.19221234633E+02  0.51100000000E-03 0. -1.
        -11    1    3    3    0    0 -0.65049631514E+01  0.11772542143E+02 -0.41843738346E+01  0.14086031334E+02  0.51100000000E-03 0.  1.
         12    1    3    3    0    0 -0.60336014828E+01  0.12971475071E+02 -0.22376609784E+01  0.14480008254E+02  0.00000000000E+00 0. -1.
</event>
<event>
 7    1  0.2486105E-010  0.4778726E+02  0.7816164E-02  0.1312668E+00
        -11   -1    0    0    0    0  0.00000000000E+00  0.00000000000E+00  0.45593999997E+02  0.45594000000E+02  0.51100000000E-03 0.  1.
         11   -1    0    0    0    0 -0.00000000000E+00 -0.00000000000E+00 -0.45593999997E+02  0.45594000000E+02  0.51100000000E-03 0. -1.
    9900012    2    1    2    0    0  0.11577869565E+02  0.41169407295E+02  0.73930494465E+01  0.47787258753E+02  0.19999943957E+02 0.  0.
         12    1    1    2    0    0 -0.11577869565E+02 -0.41169407295E+02 -0.73930494465E+01  0.43400741247E+02  0.00000000000E+00 0. -1.
         11    1    3    3    0    0  0.44040509985E+01  0.13621384802E+02  0.92955854687E+01  0.17068851707E+02  0.51100000000E-03 0.  1.
        -11    1    3    3    0    0  0.80142289691E+01  0.21270713193E+02  0.26987907337E+01  0.22890054116E+02  0.51100000000E-03 0. -1.
         12    1    3    3    0    0 -0.84041040261E+00  0.62773092994E+01 -0.46013267558E+01  0.78283529301E+01  0.00000000000E+00 0. -1.
</event>
<event>
 7    1  0.2486105E-010  0.4778727E+02  0.7816164E-02  0.1312668E+00
        -11   -1    0    0    0    0  0.00000000000E+00  0.00000000000E+00  0.45593999997E+02  0.45594000000E+02  0.51100000000E-03 0.  1.
         11   -1    0    0    0    0 -0.00000000000E+00 -0.00000000000E+00 -0.45593999997E+02  0.45594000000E+02  0.51100000000E-03 0. -1.
    9900012    2    1    2    0    0 -0.37638536495E+02 -0.20522825340E+02  0.67658888880E+01  0.47787273717E+02  0.20000012187E+02 0.  0.
         12    1    1    2    0    0  0.37638536495E+02  0.20522825340E+02 -0.67658888880E+01  0.43400726283E+02  0.00000000000E+00 0. -1.
         11    1    3    3    0    0  0.45169764894E+00 -0.14024737180E+00 -0.10907707769E+01  0.11888991716E+01  0.51100000000E-03 0. -1.
        -11    1    3    3    0    0 -0.51768182524E+01 -0.68593866749E+01 -0.34524125799E+01  0.92611978522E+01  0.51100000000E-03 0.  1.
        -12    1    3    3    0    0 -0.32913415892E+02 -0.13523191293E+02  0.11309072245E+02  0.37337176693E+02  0.00000000000E+00 0.  1.
</event>
<event>
 7    1  0.2486105E-010  0.4778727E+02  0.7816164E-02  0.1312668E+00
        -11   -1    0    0    0    0  0.00000000000E+00  0.00000000000E+00  0.45593999997E+02  0.45594000000E+02  0.51100000000E-03 0.  1.
         11   -1    0    0    0    0 -0.00000000000E+00 -0.00000000000E+00 -0.45593999997E+02  0.45594000000E+02  0.51100000000E-03 0. -1.
    9900012    2    1    2    0    0 -0.21264751105E+02  0.32216477058E+02  0.19837648517E+02  0.47787270372E+02  0.19999996933E+02 0.  0.
         12    1    1    2    0    0  0.21264751105E+02 -0.32216477058E+02 -0.19837648517E+02  0.43400729628E+02  0.00000000000E+00 0. -1.
         11    1    3    3    0    0 -0.51271645991E+01  0.10489197405E+02  0.51118369089E+01  0.12745271902E+02  0.51100000000E-03 0. -1.
        -11    1    3    3    0    0 -0.13693494684E+02  0.16646504504E+02  0.18376548451E+02  0.28325173293E+02  0.51100000000E-03 0.  1.
         12    1    3    3    0    0 -0.24440918222E+01  0.50807751491E+01 -0.36507368430E+01  0.67168251762E+01  0.00000000000E+00 0. -1.
</event>
<event>
 7    1  0.2486105E-010  0.4778727E+02  0.7816164E-02  0.1312668E+00
        -11   -1    0    0    0    0  0.00000000000E+00  0.00000000000E+00  0.45593999997E+02  0.45594000000E+02  0.51100000000E-03 0.  1.
         11   -1    0    0    0    0 -0.00000000000E+00 -0.00000000000E+00 -0.45593999997E+02  0.45594000000E+02  0.51100000000E-03 0. -1.
    9900012    2    1    2    0    0 -0.97927154434E+01  0.26940327722E+02  0.32587492388E+02  0.47787271969E+02  0.20000004214E+02 0.  0.
         12    1    1    2    0    0  0.97927154434E+01 -0.26940327722E+02 -0.32587492388E+02  0.43400728031E+02  0.00000000000E+00 0. -1.
         11    1    3    3    0    0 -0.38992838903E+01  0.60874631299E+01  0.48982089914E+01  0.87323578603E+01  0.51100000000E-03 0. -1.
        -11    1    3    3    0    0  0.11499224722E+01  0.14127487285E+02  0.62175680023E+01  0.15477931735E+02  0.51100000000E-03 0.  1.
         12    1    3    3    0    0 -0.70433540253E+01  0.67253773070E+01  0.21471715394E+02  0.23576982373E+02  0.00000000000E+00 0. -1.
</event>
<event>
 7    1  0.2486105E-010  0.4778727E+02  0.7816164E-02  0.1312668E+00
        -11   -1    0    0    0    0  0.00000000000E+00  0.00000000000E+00  0.45593999997E+02  0.45594000000E+02  0.51100000000E-03 0.  1.
         11   -1    0    0    0    0 -0.00000000000E+00 -0.00000000000E+00 -0.45593999997E+02  0.45594000000E+02  0.51100000000E-03 0. -1.
    9900012    2    1    2    0    0 -0.98056701095E+01 -0.39333587483E+02  0.15502944911E+02  0.47787267616E+02  0.19999984368E+02 0.  0.
         12    1    1    2    0    0  0.98056701095E+01  0.39333587483E+02 -0.15502944911E+02  0.43400732384E+02  0.00000000000E+00 0. -1.
         11    1    3    3    0    0 -0.29460352332E+01 -0.10011717757E+02 -0.12945348369E+00  0.10436971520E+02  0.51100000000E-03 0. -1.
        -11    1    3    3    0    0 -0.11475960705E+02 -0.24213302836E+02  0.10571910820E+02  0.28805329489E+02  0.51100000000E-03 0.  1.
         12    1    3    3    0    0  0.46163258283E+01 -0.51085668898E+01  0.50604875750E+01  0.85449666071E+01  0.00000000000E+00 0. -1.
</event>
<event>
 7    1  0.2486105E-010  0.4778727E+02  0.7816164E-02  0.1312668E+00
        -11   -1    0    0    0    0  0.00000000000E+00  0.00000000000E+00  0.45593999997E+02  0.45594000000E+02  0.51100000000E-03 0. -1.
         11   -1    0    0    0    0 -0.00000000000E+00 -0.00000000000E+00 -0.45593999997E+02  0.45594000000E+02  0.51100000000E-03 0.  1.
    9900012    2    1    2    0    0  0.25275179743E+02  0.27804273723E+02  0.21718907356E+02  0.47787270916E+02  0.19999999414E+02 0.  0.
         12    1    1    2    0    0 -0.25275179743E+02 -0.27804273723E+02 -0.21718907356E+02  0.43400729084E+02  0.00000000000E+00 0. -1.
         11    1    3    3    0    0 -0.16668227400E+00  0.39421648028E+01  0.42648739734E+01  0.58101287923E+01  0.51100000000E-03 0. -1.
        -11    1    3    3    0    0  0.92762588980E+01  0.42097047815E+01  0.12374809931E+02  0.16028303547E+02  0.51100000000E-03 0.  1.
        -12    1    3    3    0    0  0.16165603119E+02  0.19652404138E+02  0.50792234510E+01  0.25948838577E+02  0.00000000000E+00 0.  1.
</event>
<event>
 7    1  0.2486105E-010  0.4778727E+02  0.7816164E-02  0.1312668E+00
        -11   -1    0    0    0    0  0.00000000000E+00  0.00000000000E+00  0.45593999997E+02  0.45594000000E+02  0.51100000000E-03 0.  1.
         11   -1    0    0    0    0 -0.00000000000E+00 -0.00000000000E+00 -0.45593999997E+02  0.45594000000E+02  0.51100000000E-03 0. -1.
    9900012    2    1    2    0    0 -0.37584163124E+02  0.20279028112E+02  0.77340299782E+01  0.47787268225E+02  0.19999987147E+02 0.  0.
         12    1    1    2    0    0  0.37584163124E+02 -0.20279028112E+02 -0.77340299782E+01  0.43400731775E+02  0.00000000000E+00 0. -1.
         11    1    3    3    0    0  0.10337577634E+01 -0.16353508506E+00 -0.89063668082E+00  0.13742753712E+01  0.51100000000E-03 0. -1.
        -11    1    3    3    0    0 -0.22321992886E+02  0.18386449360E+02  0.31069236568E+01  0.29085836094E+02  0.51100000000E-03 0.  1.
        -12    1    3    3    0    0 -0.16295928001E+02  0.20561138370E+01  0.55177430022E+01  0.17327156760E+02  0.00000000000E+00 0.  1.
</event>
<event>
 7    1  0.2486105E-010  0.4778727E+02  0.7816164E-02  0.1312668E+00
        -11   -1    0    0    0    0  0.00000000000E+00  0.00000000000E+00  0.45593999997E+02  0.45594000000E+02  0.51100000000E-03 0. -1.
         11   -1    0    0    0    0 -0.00000000000E+00 -0.00000000000E+00 -0.45593999997E+02  0.45594000000E+02  0.51100000000E-03 0.  1.
    9900012    2    1    2    0    0  0.85735043523E+01 -0.28203949037E+02 -0.31853658112E+02  0.47787271281E+02  0.20000001081E+02 0.  0.
         12    1    1    2    0    0 -0.85735043523E+01  0.28203949037E+02  0.31853658112E+02  0.43400728719E+02  0.00000000000E+00 0. -1.
         11    1    3    3    0    0  0.14697919468E+01 -0.88920053753E+01 -0.38904570839E+01  0.98165016449E+01  0.51100000000E-03 0. -1.
        -11    1    3    3    0    0 -0.13525073461E+01 -0.39880238391E+01  0.81398226025E+00  0.42890765490E+01  0.51100000000E-03 0.  1.
        -12    1    3    3    0    0  0.84562197516E+01 -0.15323919823E+02 -0.28777183288E+02  0.33681693088E+02  0.00000000000E+00 0.  1.
</event>
<event>
 7    1  0.2486105E-010  0.4778727E+02  0.7816164E-02  0.1312668E+00
        -11   -1    0    0    0    0  0.00000000000E+00  0.00000000000E+00  0.45593999997E+02  0.45594000000E+02  0.51100000000E-03 0.  1.
         11   -1    0    0    0    0 -0.00000000000E+00 -0.00000000000E+00 -0.45593999997E+02  0.45594000000E+02  0.51100000000E-03 0. -1.
    9900012    2    1    2    0    0 -0.42924947200E+02  0.56673659978E+01  0.29921995462E+01  0.47787269734E+02  0.19999994027E+02 0.  0.
         12    1    1    2    0    0  0.42924947200E+02 -0.56673659978E+01 -0.29921995462E+01  0.43400730266E+02  0.00000000000E+00 0. -1.
         11    1    3    3    0    0 -0.12191217194E+02 -0.51627862880E+01 -0.16514595345E+01  0.13341943553E+02  0.51100000000E-03 0. -1.
        -11    1    3    3    0    0 -0.51559076502E+01 -0.46505257480E+00 -0.22540614673E+01  0.56462776193E+01  0.51100000000E-03 0.  1.
        -12    1    3    3    0    0 -0.25577822356E+02  0.11295204861E+02  0.68977205479E+01  0.28799048562E+02  0.00000000000E+00 0.  1.
</event>
<event>
 7    1  0.2486105E-010  0.4778725E+02  0.7816164E-02  0.1312668E+00
        -11   -1    0    0    0    0  0.00000000000E+00  0.00000000000E+00  0.45593999997E+02  0.45594000000E+02  0.51100000000E-03 0.  1.
         11   -1    0    0    0    0 -0.00000000000E+00 -0.00000000000E+00 -0.45593999997E+02  0.45594000000E+02  0.51100000000E-03 0. -1.
    9900012    2    1    2    0    0  0.42486650451E+02 -0.24611841101E+01  0.85118670355E+01  0.47787253760E+02  0.19999921192E+02 0.  0.
         12    1    1    2    0    0 -0.42486650451E+02  0.24611841101E+01 -0.85118670355E+01  0.43400746240E+02  0.00000000000E+00 0. -1.
         11    1    3    3    0    0  0.38889985819E+01  0.11474579699E+01 -0.81711138642E+00  0.41362593055E+01  0.51100000000E-03 0. -1.
        -11    1    3    3    0    0  0.33689040216E+02  0.31730844588E+01  0.99090377364E+01  0.35259167953E+02  0.51100000000E-03 0.  1.
        -12    1    3    3    0    0  0.49086116536E+01 -0.67817265389E+01 -0.58005931450E+00  0.83918265009E+01  0.00000000000E+00 0.  1.
</event>
<event>
 7    1  0.2486105E-010  0.4778727E+02  0.7816164E-02  0.1312668E+00
        -11   -1    0    0    0    0  0.00000000000E+00  0.00000000000E+00  0.45593999997E+02  0.45594000000E+02  0.51100000000E-03 0.  1.
         11   -1    0    0    0    0 -0.00000000000E+00 -0.00000000000E+00 -0.45593999997E+02  0.45594000000E+02  0.51100000000E-03 0. -1.
    9900012    2    1    2    0    0 -0.13054136327E+02  0.32930706621E+02  0.25075516290E+02  0.47787269235E+02  0.19999991748E+02 0.  0.
         12    1    1    2    0    0  0.13054136327E+02 -0.32930706621E+02 -0.25075516290E+02  0.43400730765E+02  0.00000000000E+00 0. -1.
         11    1    3    3    0    0 -0.60647145070E+00  0.13680274233E+02  0.11922566930E+02  0.18156687836E+02  0.51100000000E-03 0. -1.
        -11    1    3    3    0    0  0.19610254064E+01 -0.35134693452E+00  0.21473944937E+01  0.29292266360E+01  0.51100000000E-03 0.  1.
        -12    1    3    3    0    0 -0.14408690282E+02  0.19601779322E+02  0.11005554867E+02  0.26701354763E+02  0.00000000000E+00 0.  1.
</event>
<event>
 7    1  0.2486105E-010  0.4778727E+02  0.7816164E-02  0.1312668E+00
        -11   -1    0    0    0    0  0.00000000000E+00  0.00000000000E+00  0.45593999997E+02  0.45594000000E+02  0.51100000000E-03 0.  1.
         11   -1    0    0    0    0 -0.00000000000E+00 -0.00000000000E+00 -0.45593999997E+02  0.45594000000E+02  0.51100000000E-03 0. -1.
    9900012    2    1    2    0    0  0.38598838550E+02  0.96253358743E+01  0.17352412213E+02  0.47787266853E+02  0.19999980890E+02 0.  0.
         12    1    1    2    0    0 -0.38598838550E+02 -0.96253358743E+01 -0.17352412213E+02  0.43400733147E+02  0.00000000000E+00 0. -1.
         11    1    3    3    0    0  0.86465796442E+01  0.27902067989E+01 -0.12093291096E+01  0.91657553252E+01  0.51100000000E-03 0. -1.
        -11    1    3    3    0    0  0.14257311936E+02  0.97700499808E+00  0.96158095318E+00  0.14323062542E+02  0.51100000000E-03 0.  1.
        -12    1    3    3    0    0  0.15694946970E+02  0.58581240773E+01  0.17600160369E+02  0.24298448986E+02  0.00000000000E+00 0.  1.
</event>
<event>
 7    1  0.2486105E-010  0.4778730E+02  0.7816164E-02  0.1312668E+00
        -11   -1    0    0    0    0  0.00000000000E+00  0.00000000000E+00  0.45593999997E+02  0.45594000000E+02  0.51100000000E-03 0.  1.
         11   -1    0    0    0    0 -0.00000000000E+00 -0.00000000000E+00 -0.45593999997E+02  0.45594000000E+02  0.51100000000E-03 0. -1.
    9900012    2    1    2    0    0 -0.17508968390E+02 -0.86186695471E+01  0.38765647748E+02  0.47787298575E+02  0.20000125524E+02 0.  0.
         12    1    1    2    0    0  0.17508968390E+02  0.86186695471E+01 -0.38765647748E+02  0.43400701425E+02  0.00000000000E+00 0. -1.
         11    1    3    3    0    0  0.29942896925E+01 -0.36002830737E+01  0.54769205931E+01  0.72058634748E+01  0.51100000000E-03 0. -1.
        -11    1    3    3    0    0 -0.21560922127E+01  0.92054124551E+00  0.29175532583E+00  0.23624671946E+01  0.51100000000E-03 0.  1.
        -12    1    3    3    0    0 -0.18347165870E+02 -0.59389277189E+01  0.32996971829E+02  0.38218967906E+02  0.00000000000E+00 0.  1.
</event>
<event>
 7    1  0.2486105E-010  0.4778727E+02  0.7816164E-02  0.1312668E+00
        -11   -1    0    0    0    0  0.00000000000E+00  0.00000000000E+00  0.45593999997E+02  0.45594000000E+02  0.51100000000E-03 0. -1.
         11   -1    0    0    0    0 -0.00000000000E+00 -0.00000000000E+00 -0.45593999997E+02  0.45594000000E+02  0.51100000000E-03 0.  1.
    9900012    2    1    2    0    0 -0.37643503126E+02 -0.10740191766E+02  0.18741353992E+02  0.47787269635E+02  0.19999993573E+02 0.  0.
         12    1    1    2    0    0  0.37643503126E+02  0.10740191766E+02 -0.18741353992E+02  0.43400730365E+02  0.00000000000E+00 0. -1.
         11    1    3    3    0    0 -0.44536533463E+01 -0.62305030956E+01  0.27835608595E+01  0.81487672855E+01  0.51100000000E-03 0. -1.
        -11    1    3    3    0    0 -0.36784069845E+01 -0.28549722920E+01 -0.19840716271E+01  0.50614311430E+01  0.51100000000E-03 0.  1.
         12    1    3    3    0    0 -0.29511442795E+02 -0.16547163785E+01  0.17941864759E+02  0.34577071206E+02  0.00000000000E+00 0. -1.
</event>
<event>
 7    1  0.2486105E-010  0.4778726E+02  0.7816164E-02  0.1312668E+00
        -11   -1    0    0    0    0  0.00000000000E+00  0.00000000000E+00  0.45593999997E+02  0.45594000000E+02  0.51100000000E-03 0.  1.
         11   -1    0    0    0    0 -0.00000000000E+00 -0.00000000000E+00 -0.45593999997E+02  0.45594000000E+02  0.51100000000E-03 0. -1.
    9900012    2    1    2    0    0 -0.31783120792E+02 -0.29327403935E+02 -0.36552086652E+01  0.47787263379E+02  0.19999965050E+02 0.  0.
         12    1    1    2    0    0  0.31783120792E+02  0.29327403935E+02  0.36552086652E+01  0.43400736621E+02  0.00000000000E+00 0. -1.
         11    1    3    3    0    0 -0.16017606587E+02 -0.14708215291E+02  0.15122160820E+01  0.21798672335E+02  0.51100000000E-03 0.  1.
        -11    1    3    3    0    0 -0.11605499364E+02 -0.13140491678E+02  0.19220864246E+01  0.17636738744E+02  0.51100000000E-03 0. -1.
         12    1    3    3    0    0 -0.41600148416E+01 -0.14786969661E+01 -0.70895111718E+01  0.83518523008E+01  0.00000000000E+00 0. -1.
</event>
<event>
 7    1  0.2486105E-010  0.4778726E+02  0.7816164E-02  0.1312668E+00
        -11   -1    0    0    0    0  0.00000000000E+00  0.00000000000E+00  0.45593999997E+02  0.45594000000E+02  0.51100000000E-03 0.  1.
         11   -1    0    0    0    0 -0.00000000000E+00 -0.00000000000E+00 -0.45593999997E+02  0.45594000000E+02  0.51100000000E-03 0. -1.
    9900012    2    1    2    0    0  0.17792438345E+02 -0.19626136870E+02  0.34378310649E+02  0.47787258603E+02  0.19999943276E+02 0.  0.
         12    1    1    2    0    0 -0.17792438345E+02  0.19626136870E+02 -0.34378310649E+02  0.43400741397E+02  0.00000000000E+00 0. -1.
         11    1    3    3    0    0 -0.25020127799E+01 -0.54496384630E+01  0.17035382156E+01  0.62338326928E+01  0.51100000000E-03 0. -1.
        -11    1    3    3    0    0  0.13247539279E+00 -0.17042314324E+01  0.39813727639E+01  0.43328147723E+01  0.51100000000E-03 0.  1.
         12    1    3    3    0    0  0.20161975732E+02 -0.12472266974E+02  0.28693399670E+02  0.37220611138E+02  0.00000000000E+00 0. -1.
</event>
<event>
 7    1  0.2486105E-010  0.4778727E+02  0.7816164E-02  0.1312668E+00
        -11   -1    0    0    0    0  0.00000000000E+00  0.00000000000E+00  0.45593999997E+02  0.45594000000E+02  0.51100000000E-03 0.  1.
         11   -1    0    0    0    0 -0.00000000000E+00 -0.00000000000E+00 -0.45593999997E+02  0.45594000000E+02  0.51100000000E-03 0. -1.
    9900012    2    1    2    0    0 -0.14929807502E+02 -0.17436738464E+02  0.36833195819E+02  0.47787270576E+02  0.19999997864E+02 0.  0.
         12    1    1    2    0    0  0.14929807502E+02  0.17436738464E+02 -0.36833195819E+02  0.43400729424E+02  0.00000000000E+00 0. -1.
         11    1    3    3    0    0  0.17940996853E+01 -0.11998095851E+01  0.10371979487E+02  0.10594163273E+02  0.51100000000E-03 0. -1.
        -11    1    3    3    0    0 -0.71750407607E+01 -0.38837045654E+01  0.17206576123E+02  0.19042863052E+02  0.51100000000E-03 0.  1.
        -12    1    3    3    0    0 -0.95488664264E+01 -0.12353224314E+02  0.92546402090E+01  0.18150244251E+02  0.00000000000E+00 0.  1.
</event>
<event>
 7    1  0.2486105E-010  0.4778726E+02  0.7816164E-02  0.1312668E+00
        -11   -1    0    0    0    0  0.00000000000E+00  0.00000000000E+00  0.45593999997E+02  0.45594000000E+02  0.51100000000E-03 0.  1.
         11   -1    0    0    0    0 -0.00000000000E+00 -0.00000000000E+00 -0.45593999997E+02  0.45594000000E+02  0.51100000000E-03 0. -1.
    9900012    2    1    2    0    0 -0.42753543861E+02 -0.58332286778E+01  0.46617489463E+01  0.47787262993E+02  0.19999963290E+02 0.  0.
         12    1    1    2    0    0  0.42753543861E+02  0.58332286778E+01 -0.46617489463E+01  0.43400737007E+02  0.00000000000E+00 0. -1.
         11    1    3    3    0    0 -0.14596375902E+02 -0.53936164172E+01  0.47608891903E+01  0.16273025338E+02  0.51100000000E-03 0. -1.
        -11    1    3    3    0    0 -0.15436072585E+02 -0.63340662401E+01  0.34801734161E+01  0.17044187844E+02  0.51100000000E-03 0.  1.
        -12    1    3    3    0    0 -0.12721095375E+02  0.58944539795E+01 -0.35793136601E+01  0.14470049811E+02  0.00000000000E+00 0.  1.
</event>
<event>
 7    1  0.2486105E-010  0.4778727E+02  0.7816164E-02  0.1312668E+00
        -11   -1    0    0    0    0  0.00000000000E+00  0.00000000000E+00  0.45593999997E+02  0.45594000000E+02  0.51100000000E-03 0.  1.
         11   -1    0    0    0    0 -0.00000000000E+00 -0.00000000000E+00 -0.45593999997E+02  0.45594000000E+02  0.51100000000E-03 0. -1.
    9900012    2    1    2    0    0 -0.32398685793E+02 -0.11519787185E+02  0.26480986308E+02  0.47787274502E+02  0.20000015766E+02 0.  0.
         12    1    1    2    0    0  0.32398685793E+02  0.11519787185E+02 -0.26480986308E+02  0.43400725498E+02  0.00000000000E+00 0. -1.
         11    1    3    3    0    0 -0.37942832136E+01  0.13776247520E+01  0.21676013750E+00  0.40424522607E+01  0.51100000000E-03 0. -1.
        -11    1    3    3    0    0 -0.18693524262E+02 -0.10027345261E+01  0.97474139097E+01  0.21106051361E+02  0.51100000000E-03 0.  1.
         12    1    3    3    0    0 -0.99108783173E+01 -0.11894677411E+02  0.16516812261E+02  0.22638770880E+02  0.00000000000E+00 0. -1.
</event>
<event>
 7    1  0.2486105E-010  0.4778727E+02  0.7816164E-02  0.1312668E+00
        -11   -1    0    0    0    0  0.00000000000E+00  0.00000000000E+00  0.45593999997E+02  0.45594000000E+02  0.51100000000E-03 0. -1.
         11   -1    0    0    0    0 -0.00000000000E+00 -0.00000000000E+00 -0.45593999997E+02  0.45594000000E+02  0.51100000000E-03 0.  1.
    9900012    2    1    2    0    0 -0.13411909345E+02 -0.27514217406E+02 -0.30768684890E+02  0.47787269112E+02  0.19999991189E+02 0.  0.
         12    1    1    2    0    0  0.13411909345E+02  0.27514217406E+02  0.30768684890E+02  0.43400730888E+02  0.00000000000E+00 0. -1.
         11    1    3    3    0    0 -0.23226981897E+01 -0.71084066776E+01 -0.38101318687E+01  0.83929421238E+01  0.51100000000E-03 0. -1.
        -11    1    3    3    0    0 -0.14357764241E+02 -0.18974989824E+02 -0.26776819136E+02  0.35821692815E+02  0.51100000000E-03 0.  1.
         12    1    3    3    0    0  0.32685530851E+01 -0.14308209042E+01 -0.18173388492E+00  0.35726341731E+01  0.00000000000E+00 0. -1.
</event>
<event>
 7    1  0.2486105E-010  0.4778727E+02  0.7816164E-02  0.1312668E+00
        -11   -1    0    0    0    0  0.00000000000E+00  0.00000000000E+00  0.45593999997E+02  0.45594000000E+02  0.51100000000E-03 0. -1.
         11   -1    0    0    0    0 -0.00000000000E+00 -0.00000000000E+00 -0.45593999997E+02  0.45594000000E+02  0.51100000000E-03 0.  1.
    9900012    2    1    2    0    0  0.14598259917E+02  0.34896910049E+02  0.21277206170E+02  0.47787273901E+02  0.20000013023E+02 0.  0.
         12    1    1    2    0    0 -0.14598259917E+02 -0.34896910049E+02 -0.21277206170E+02  0.43400726099E+02  0.00000000000E+00 0. -1.
         11    1    3    3    0    0  0.55417726167E+01  0.86433238385E+01  0.53729357049E+01  0.11588215094E+02  0.51100000000E-03 0.  1.
        -11    1    3    3    0    0  0.18289394078E+01  0.22953070474E+02  0.65777563136E+01  0.23946927610E+02  0.51100000000E-03 0. -1.
         12    1    3    3    0    0  0.72275478929E+01  0.33005157358E+01  0.93265141511E+01  0.12252131197E+02  0.00000000000E+00 0. -1.
</event>
<event>
 7    1  0.2486105E-010  0.4778727E+02  0.7816164E-02  0.1312668E+00
        -11   -1    0    0    0    0  0.00000000000E+00  0.00000000000E+00  0.45593999997E+02  0.45594000000E+02  0.51100000000E-03 0.  1.
         11   -1    0    0    0    0 -0.00000000000E+00 -0.00000000000E+00 -0.45593999997E+02  0.45594000000E+02  0.51100000000E-03 0. -1.
    9900012    2    1    2    0    0 -0.63115885970E+01  0.30260342143E+01  0.42832583840E+02  0.47787271065E+02  0.20000000095E+02 0.  0.
         12    1    1    2    0    0  0.63115885970E+01 -0.30260342143E+01 -0.42832583840E+02  0.43400728935E+02  0.00000000000E+00 0. -1.
         11    1    3    3    0    0  0.23528158119E+01 -0.78857614068E+00  0.14263912148E+01  0.28621996319E+01  0.51100000000E-03 0. -1.
        -11    1    3    3    0    0 -0.86433575856E+01 -0.35410914632E+01  0.16556945103E+02  0.19009981339E+02  0.51100000000E-03 0.  1.
         12    1    3    3    0    0 -0.21046823280E-01  0.73557018182E+01  0.24849247522E+02  0.25915090095E+02  0.00000000000E+00 0. -1.
</event>
<event>
 7    1  0.2486105E-010  0.4778727E+02  0.7816164E-02  0.1312668E+00
        -11   -1    0    0    0    0  0.00000000000E+00  0.00000000000E+00  0.45593999997E+02  0.45594000000E+02  0.51100000000E-03 0. -1.
         11   -1    0    0    0    0 -0.00000000000E+00 -0.00000000000E+00 -0.45593999997E+02  0.45594000000E+02  0.51100000000E-03 0.  1.
    9900012    2    1    2    0    0 -0.21748144152E+02 -0.16826374996E+01 -0.37520798335E+02  0.47787270159E+02  0.19999995963E+02 0.  0.
         12    1    1    2    0    0  0.21748144152E+02  0.16826374996E+01  0.37520798335E+02  0.43400729841E+02  0.00000000000E+00 0. -1.
         11    1    3    3    0    0 -0.11859064671E+02 -0.19657362527E+01 -0.20205790841E+02  0.23511178568E+02  0.51100000000E-03 0. -1.
        -11    1    3    3    0    0 -0.59939488164E+01 -0.51868775352E+01 -0.15355874389E+02  0.17281030047E+02  0.51100000000E-03 0.  1.
         12    1    3    3    0    0 -0.38951306638E+01  0.54699762883E+01 -0.19591331062E+01  0.69950615444E+01  0.00000000000E+00 0. -1.
</event>
<event>
 7    1  0.2486105E-010  0.4778727E+02  0.7816164E-02  0.1312668E+00
        -11   -1    0    0    0    0  0.00000000000E+00  0.00000000000E+00  0.45593999997E+02  0.45594000000E+02  0.51100000000E-03 0. -1.
         11   -1    0    0    0    0 -0.00000000000E+00 -0.00000000000E+00 -0.45593999997E+02  0.45594000000E+02  0.51100000000E-03 0.  1.
    9900012    2    1    2    0    0 -0.39154505536E+02 -0.12482338164E+02 -0.13954892391E+02  0.47787273146E+02  0.20000009582E+02 0.  0.
         12    1    1    2    0    0  0.39154505536E+02  0.12482338164E+02  0.13954892391E+02  0.43400726854E+02  0.00000000000E+00 0. -1.
         11    1    3    3    0    0 -0.87134804626E+01 -0.13664917296E+01  0.23214882795E+01  0.91203809960E+01  0.51100000000E-03 0. -1.
        -11    1    3    3    0    0 -0.23294747395E+02 -0.11835702248E+02 -0.72202861925E+01  0.27108331502E+02  0.51100000000E-03 0.  1.
         12    1    3    3    0    0 -0.71462776785E+01  0.71985581305E+00 -0.90560944782E+01  0.11558560648E+02  0.00000000000E+00 0. -1.
</event>
<event>
 7    1  0.2486105E-010  0.4778727E+02  0.7816164E-02  0.1312668E+00
        -11   -1    0    0    0    0  0.00000000000E+00  0.00000000000E+00  0.45593999997E+02  0.45594000000E+02  0.51100000000E-03 0.  1.
         11   -1    0    0    0    0 -0.00000000000E+00 -0.00000000000E+00 -0.45593999997E+02  0.45594000000E+02  0.51100000000E-03 0. -1.
    9900012    2    1    2    0    0 -0.13533560706E+02 -0.21140068100E+01  0.41182486096E+02  0.47787269001E+02  0.19999990683E+02 0.  0.
         12    1    1    2    0    0  0.13533560706E+02  0.21140068100E+01 -0.41182486096E+02  0.43400730999E+02  0.00000000000E+00 0. -1.
         11    1    3    3    0    0 -0.80227932933E+01 -0.64541766466E+01  0.72631717677E+01  0.12600606049E+02  0.51100000000E-03 0. -1.
        -11    1    3    3    0    0 -0.94308431201E+00 -0.84680699701E+00  0.12002696709E+01  0.17456052399E+01  0.51100000000E-03 0.  1.
        -12    1    3    3    0    0 -0.45676831008E+01  0.51869768336E+01  0.32719044658E+02  0.33441057712E+02  0.00000000000E+00 0.  1.
</event>
<event>
 7    1  0.2486105E-010  0.4778728E+02  0.7816164E-02  0.1312668E+00
        -11   -1    0    0    0    0  0.00000000000E+00  0.00000000000E+00  0.45593999997E+02  0.45594000000E+02  0.51100000000E-03 0. -1.
         11   -1    0    0    0    0 -0.00000000000E+00 -0.00000000000E+00 -0.45593999997E+02  0.45594000000E+02  0.51100000000E-03 0.  1.
    9900012    2    1    2    0    0  0.33249433941E+02 -0.11471898009E+02 -0.25426230618E+02  0.47787279905E+02  0.20000040400E+02 0.  0.
         12    1    1    2    0    0 -0.33249433941E+02  0.11471898009E+02  0.25426230618E+02  0.43400720095E+02  0.00000000000E+00 0. -1.
         11    1    3    3    0    0  0.33918248539E+00  0.27501206821E+01 -0.11819259057E+01  0.30125002294E+01  0.51100000000E-03 0. -1.
        -11    1    3    3    0    0  0.18077014809E+02 -0.20879033872E+01 -0.14546064313E+02  0.23296475961E+02  0.51100000000E-03 0.  1.
         12    1    3    3    0    0  0.14833236647E+02 -0.12134115304E+02 -0.96982403994E+01  0.21478303715E+02  0.00000000000E+00 0. -1.
</event>
<event>
 7    1  0.2486105E-010  0.4778727E+02  0.7816164E-02  0.1312668E+00
        -11   -1    0    0    0    0  0.00000000000E+00  0.00000000000E+00  0.45593999997E+02  0.45594000000E+02  0.51100000000E-03 0. -1.
         11   -1    0    0    0    0 -0.00000000000E+00 -0.00000000000E+00 -0.45593999997E+02  0.45594000000E+02  0.51100000000E-03 0.  1.
    9900012    2    1    2    0    0  0.23127787609E+02  0.31707453796E+02 -0.18530140463E+02  0.47787270842E+02  0.19999999075E+02 0.  0.
         12    1    1    2    0    0 -0.23127787609E+02 -0.31707453796E+02  0.18530140463E+02  0.43400729158E+02  0.00000000000E+00 0. -1.
         11    1    3    3    0    0  0.16112439669E+02  0.17709403086E+02 -0.76587486472E+01  0.25137424308E+02  0.51100000000E-03 0. -1.
        -11    1    3    3    0    0  0.99433476696E+01  0.11770682774E+02 -0.59771658942E+01  0.16527118570E+02  0.51100000000E-03 0.  1.
         12    1    3    3    0    0 -0.29279997299E+01  0.22273679360E+01 -0.48942259213E+01  0.61227279630E+01  0.00000000000E+00 0. -1.
</event>
<event>
 7    1  0.2486105E-010  0.4778727E+02  0.7816164E-02  0.1312668E+00
        -11   -1    0    0    0    0  0.00000000000E+00  0.00000000000E+00  0.45593999997E+02  0.45594000000E+02  0.51100000000E-03 0.  1.
         11   -1    0    0    0    0 -0.00000000000E+00 -0.00000000000E+00 -0.45593999997E+02  0.45594000000E+02  0.51100000000E-03 0. -1.
    9900012    2    1    2    0    0  0.22010717641E+02  0.28380629252E+02  0.24365781554E+02  0.47787272833E+02  0.20000008157E+02 0.  0.
         12    1    1    2    0    0 -0.22010717641E+02 -0.28380629252E+02 -0.24365781554E+02  0.43400727167E+02  0.00000000000E+00 0. -1.
         11    1    3    3    0    0 -0.10142938267E+01  0.10037641971E+01  0.93804283824E+00  0.17077058171E+01  0.51100000000E-03 0. -1.
        -11    1    3    3    0    0  0.25224103555E+02  0.27442800339E+02  0.20919967543E+02  0.42743511003E+02  0.51100000000E-03 0.  1.
        -12    1    3    3    0    0 -0.21990920870E+01 -0.65935283718E-01  0.25077711731E+01  0.33360560135E+01  0.00000000000E+00 0.  1.
</event>
<event>
 7    1  0.2486105E-010  0.4778727E+02  0.7816164E-02  0.1312668E+00
        -11   -1    0    0    0    0  0.00000000000E+00  0.00000000000E+00  0.45593999997E+02  0.45594000000E+02  0.51100000000E-03 0.  1.
         11   -1    0    0    0    0 -0.00000000000E+00 -0.00000000000E+00 -0.45593999997E+02  0.45594000000E+02  0.51100000000E-03 0. -1.
    9900012    2    1    2    0    0 -0.27645279713E+02 -0.27638032982E+02  0.18854726094E+02  0.47787273582E+02  0.20000011572E+02 0.  0.
         12    1    1    2    0    0  0.27645279713E+02  0.27638032982E+02 -0.18854726094E+02  0.43400726418E+02  0.00000000000E+00 0. -1.
         11    1    3    3    0    0 -0.19698656650E+02 -0.20342996665E+02  0.22025276070E+02  0.35874606247E+02  0.51100000000E-03 0.  1.
        -11    1    3    3    0    0 -0.33979852593E+00  0.32369540229E+00 -0.73896406715E+00  0.87539128700E+00  0.51100000000E-03 0. -1.
        -12    1    3    3    0    0 -0.76068245368E+01 -0.76187317184E+01 -0.24315859094E+01  0.11037276048E+02  0.00000000000E+00 0.  1.
</event>
<event>
 7    1  0.2486105E-010  0.4778727E+02  0.7816164E-02  0.1312668E+00
        -11   -1    0    0    0    0  0.00000000000E+00  0.00000000000E+00  0.45593999997E+02  0.45594000000E+02  0.51100000000E-03 0. -1.
         11   -1    0    0    0    0 -0.00000000000E+00 -0.00000000000E+00 -0.45593999997E+02  0.45594000000E+02  0.51100000000E-03 0.  1.
    9900012    2    1    2    0    0  0.37182420943E+02 -0.64528776014E+01 -0.21434812059E+02  0.47787271613E+02  0.20000002594E+02 0.  0.
         12    1    1    2    0    0 -0.37182420943E+02  0.64528776014E+01  0.21434812059E+02  0.43400728387E+02  0.00000000000E+00 0. -1.
         11    1    3    3    0    0  0.14357812325E+02 -0.52645803920E+01 -0.58265928804E+01  0.16364955433E+02  0.51100000000E-03 0. -1.
        -11    1    3    3    0    0  0.21019513861E+02 -0.62117516802E+01 -0.12967989159E+02  0.25467127144E+02  0.51100000000E-03 0.  1.
        -12    1    3    3    0    0  0.18050947565E+01  0.50234544709E+01 -0.26402300195E+01  0.59551890362E+01  0.00000000000E+00 0.  1.
</event>
<event>
 7    1  0.2486105E-010  0.4778727E+02  0.7816164E-02  0.1312668E+00
        -11   -1    0    0    0    0  0.00000000000E+00  0.00000000000E+00  0.45593999997E+02  0.45594000000E+02  0.51100000000E-03 0. -1.
         11   -1    0    0    0    0 -0.00000000000E+00 -0.00000000000E+00 -0.45593999997E+02  0.45594000000E+02  0.51100000000E-03 0.  1.
    9900012    2    1    2    0    0  0.19881382146E+02  0.26688884519E+02 -0.27857810205E+02  0.47787268412E+02  0.19999988000E+02 0.  0.
         12    1    1    2    0    0 -0.19881382146E+02 -0.26688884519E+02  0.27857810205E+02  0.43400731588E+02  0.00000000000E+00 0. -1.
         11    1    3    3    0    0  0.60825711396E+01  0.13362638953E+02 -0.79562087075E+01  0.16699073289E+02  0.51100000000E-03 0. -1.
        -11    1    3    3    0    0 -0.29711849655E+01  0.14245832168E+01 -0.22823136235E+01  0.40082830711E+01  0.51100000000E-03 0.  1.
        -12    1    3    3    0    0  0.16769995972E+02  0.11901662349E+02 -0.17619287874E+02  0.27079912053E+02  0.00000000000E+00 0.  1.
</event>
<event>
 7    1  0.2486105E-010  0.4778727E+02  0.7816164E-02  0.1312668E+00
        -11   -1    0    0    0    0  0.00000000000E+00  0.00000000000E+00  0.45593999997E+02  0.45594000000E+02  0.51100000000E-03 0.  1.
         11   -1    0    0    0    0 -0.00000000000E+00 -0.00000000000E+00 -0.45593999997E+02  0.45594000000E+02  0.51100000000E-03 0. -1.
    9900012    2    1    2    0    0  0.10759609991E+02  0.17864027557E+02  0.38062193065E+02  0.47787271566E+02  0.20000002377E+02 0.  0.
         12    1    1    2    0    0 -0.10759609991E+02 -0.17864027557E+02 -0.38062193065E+02  0.43400728434E+02  0.00000000000E+00 0. -1.
         11    1    3    3    0    0 -0.30915447033E+01  0.19479857540E+01  0.12887308030E+01  0.38746773406E+01  0.51100000000E-03 0.  1.
        -11    1    3    3    0    0  0.22662110632E+01 -0.17524513890E+01  0.40328201217E+01  0.49467602376E+01  0.51100000000E-03 0. -1.
        -12    1    3    3    0    0  0.11584943631E+02  0.17668493192E+02  0.32740642140E+02  0.38965833988E+02  0.00000000000E+00 0.  1.
</event>
<event>
 7    1  0.2486105E-010  0.4778727E+02  0.7816164E-02  0.1312668E+00
        -11   -1    0    0    0    0  0.00000000000E+00  0.00000000000E+00  0.45593999997E+02  0.45594000000E+02  0.51100000000E-03 0.  1.
         11   -1    0    0    0    0 -0.00000000000E+00 -0.00000000000E+00 -0.45593999997E+02  0.45594000000E+02  0.51100000000E-03 0. -1.
    9900012    2    1    2    0    0  0.36617684258E+02  0.13882539618E+02 -0.18709449762E+02  0.47787271699E+02  0.20000002984E+02 0.  0.
         12    1    1    2    0    0 -0.36617684258E+02 -0.13882539618E+02  0.18709449762E+02  0.43400728301E+02  0.00000000000E+00 0. -1.
         11    1    3    3    0    0  0.58033966084E-02 -0.63065791707E+00 -0.18242229365E+01  0.19301690784E+01  0.51100000000E-03 0. -1.
        -11    1    3    3    0    0  0.30971856276E+02  0.95633801080E+01 -0.19596921091E+02  0.37878139299E+02  0.51100000000E-03 0.  1.
        -12    1    3    3    0    0  0.56400245857E+01  0.49498174270E+01  0.27116942659E+01  0.79789633211E+01  0.00000000000E+00 0.  1.
</event>
<event>
 7    1  0.2486105E-010  0.4778727E+02  0.7816164E-02  0.1312668E+00
        -11   -1    0    0    0    0  0.00000000000E+00  0.00000000000E+00  0.45593999997E+02  0.45594000000E+02  0.51100000000E-03 0.  1.
         11   -1    0    0    0    0 -0.00000000000E+00 -0.00000000000E+00 -0.45593999997E+02  0.45594000000E+02  0.51100000000E-03 0. -1.
    9900012    2    1    2    0    0 -0.23703847030E+02 -0.31174253002E+02  0.18706067910E+02  0.47787269696E+02  0.19999993852E+02 0.  0.
         12    1    1    2    0    0  0.23703847030E+02  0.31174253002E+02 -0.18706067910E+02  0.43400730304E+02  0.00000000000E+00 0. -1.
         11    1    3    3    0    0 -0.15995250382E+02 -0.16421955281E+02  0.15205922210E+02  0.27509066152E+02  0.51100000000E-03 0.  1.
        -11    1    3    3    0    0 -0.80764787591E+01 -0.37149506902E+01  0.92044202766E+00  0.89374258913E+01  0.51100000000E-03 0. -1.
        -12    1    3    3    0    0  0.36788211117E+00 -0.11037347031E+02  0.25797036729E+01  0.11340777653E+02  0.00000000000E+00 0.  1.
</event>
<event>
 7    1  0.2486105E-010  0.4778727E+02  0.7816164E-02  0.1312668E+00
        -11   -1    0    0    0    0  0.00000000000E+00  0.00000000000E+00  0.45593999997E+02  0.45594000000E+02  0.51100000000E-03 0.  1.
         11   -1    0    0    0    0 -0.00000000000E+00 -0.00000000000E+00 -0.45593999997E+02  0.45594000000E+02  0.51100000000E-03 0. -1.
    9900012    2    1    2    0    0 -0.31128640674E+02 -0.26898050686E+02  0.13824831424E+02  0.47787269997E+02  0.19999995224E+02 0.  0.
         12    1    1    2    0    0  0.31128640674E+02  0.26898050686E+02 -0.13824831424E+02  0.43400730003E+02  0.00000000000E+00 0. -1.
         11    1    3    3    0    0  0.21917441985E+00 -0.38243251348E+01  0.52001107348E+01  0.64586881081E+01  0.51100000000E-03 0. -1.
        -11    1    3    3    0    0 -0.82633367204E+01 -0.32825688245E+01 -0.20094928057E+01  0.91157036722E+01  0.51100000000E-03 0.  1.
        -12    1    3    3    0    0 -0.23084478373E+02 -0.19791156727E+02  0.10634213495E+02  0.32212878217E+02  0.00000000000E+00 0.  1.
</event>
<event>
 7    1  0.2486105E-010  0.4778727E+02  0.7816164E-02  0.1312668E+00
        -11   -1    0    0    0    0  0.00000000000E+00  0.00000000000E+00  0.45593999997E+02  0.45594000000E+02  0.51100000000E-03 0. -1.
         11   -1    0    0    0    0 -0.00000000000E+00 -0.00000000000E+00 -0.45593999997E+02  0.45594000000E+02  0.51100000000E-03 0.  1.
    9900012    2    1    2    0    0 -0.19179551033E+02  0.34286791643E+02 -0.18444076737E+02  0.47787271600E+02  0.20000002533E+02 0.  0.
         12    1    1    2    0    0  0.19179551033E+02 -0.34286791643E+02  0.18444076737E+02  0.43400728400E+02  0.00000000000E+00 0. -1.
         11    1    3    3    0    0 -0.10054568311E+02  0.22960712607E+02 -0.14577783565E+02  0.28996559128E+02  0.51100000000E-03 0. -1.
        -11    1    3    3    0    0 -0.48786708499E+01  0.10786603851E+02  0.14924151419E+01  0.11932290439E+02  0.51100000000E-03 0.  1.
        -12    1    3    3    0    0 -0.42463118723E+01  0.53947518494E+00 -0.53587083137E+01  0.68584220331E+01  0.00000000000E+00 0.  1.
</event>
<event>
 7    1  0.2486105E-010  0.4778727E+02  0.7816164E-02  0.1312668E+00
        -11   -1    0    0    0    0  0.00000000000E+00  0.00000000000E+00  0.45593999997E+02  0.45594000000E+02  0.51100000000E-03 0. -1.
         11   -1    0    0    0    0 -0.00000000000E+00 -0.00000000000E+00 -0.45593999997E+02  0.45594000000E+02  0.51100000000E-03 0.  1.
    9900012    2    1    2    0    0  0.14400907831E+02  0.38897580421E+02  0.12775577183E+02  0.47787270959E+02  0.19999999609E+02 0.  0.
         12    1    1    2    0    0 -0.14400907831E+02 -0.38897580421E+02 -0.12775577183E+02  0.43400729041E+02  0.00000000000E+00 0. -1.
         11    1    3    3    0    0  0.42399439391E+01  0.13976240962E+02  0.88799051373E+01  0.17092839189E+02  0.51100000000E-03 0. -1.
        -11    1    3    3    0    0  0.11560568545E+02  0.26060202971E+02  0.29619973064E+01  0.28662769445E+02  0.51100000000E-03 0.  1.
        -12    1    3    3    0    0 -0.13996046526E+01 -0.11388635118E+01  0.93367473910E+00  0.20316623245E+01  0.00000000000E+00 0.  1.
</event>
<event>
 7    1  0.2486105E-010  0.4778727E+02  0.7816164E-02  0.1312668E+00
        -11   -1    0    0    0    0  0.00000000000E+00  0.00000000000E+00  0.45593999997E+02  0.45594000000E+02  0.51100000000E-03 0.  1.
         11   -1    0    0    0    0 -0.00000000000E+00 -0.00000000000E+00 -0.45593999997E+02  0.45594000000E+02  0.51100000000E-03 0. -1.
    9900012    2    1    2    0    0 -0.38877934290E+02  0.12525763880E+02  0.14670872505E+02  0.47787273791E+02  0.20000012521E+02 0.  0.
         12    1    1    2    0    0  0.38877934290E+02 -0.12525763880E+02 -0.14670872505E+02  0.43400726209E+02  0.00000000000E+00 0. -1.
         11    1    3    3    0    0 -0.13432935177E+02  0.49337635831E+01  0.15506346332E+02  0.21100534291E+02  0.51100000000E-03 0. -1.
        -11    1    3    3    0    0 -0.24437077974E+01  0.11207913405E+00  0.34771531065E+00  0.24708653807E+01  0.51100000000E-03 0.  1.
         12    1    3    3    0    0 -0.23001291316E+02  0.74799211631E+01 -0.11831891371E+01  0.24215874119E+02  0.00000000000E+00 0. -1.
</event>
<event>
 7    1  0.2486105E-010  0.4778727E+02  0.7816164E-02  0.1312668E+00
        -11   -1    0    0    0    0  0.00000000000E+00  0.00000000000E+00  0.45593999997E+02  0.45594000000E+02  0.51100000000E-03 0.  1.
         11   -1    0    0    0    0 -0.00000000000E+00 -0.00000000000E+00 -0.45593999997E+02  0.45594000000E+02  0.51100000000E-03 0. -1.
    9900012    2    1    2    0    0 -0.27015841074E+02  0.19076247898E+02  0.28104530381E+02  0.47787268085E+02  0.19999986509E+02 0.  0.
         12    1    1    2    0    0  0.27015841074E+02 -0.19076247898E+02 -0.28104530381E+02  0.43400731915E+02  0.00000000000E+00 0. -1.
         11    1    3    3    0    0 -0.95046836065E+01  0.96736488020E+01  0.62835159755E+01  0.14946607136E+02  0.51100000000E-03 0. -1.
        -11    1    3    3    0    0 -0.10240451296E+02  0.14850616128E+01  0.23677712647E+01  0.10615017275E+02  0.51100000000E-03 0.  1.
        -12    1    3    3    0    0 -0.72707061716E+01  0.79175374829E+01  0.19453243141E+02  0.22225643674E+02  0.00000000000E+00 0.  1.
</event>
<event>
 7    1  0.2486105E-010  0.4778727E+02  0.7816164E-02  0.1312668E+00
        -11   -1    0    0    0    0  0.00000000000E+00  0.00000000000E+00  0.45593999997E+02  0.45594000000E+02  0.51100000000E-03 0. -1.
         11   -1    0    0    0    0 -0.00000000000E+00 -0.00000000000E+00 -0.45593999997E+02  0.45594000000E+02  0.51100000000E-03 0.  1.
    9900012    2    1    2    0    0 -0.86153923020E+01 -0.38603742006E+02 -0.17864756721E+02  0.47787269429E+02  0.19999992636E+02 0.  0.
         12    1    1    2    0    0  0.86153923020E+01  0.38603742006E+02  0.17864756721E+02  0.43400730571E+02  0.00000000000E+00 0. -1.
         11    1    3    3    0    0 -0.11027819312E+02 -0.19864050075E+02 -0.14193343406E+02  0.26788883543E+02  0.51100000000E-03 0. -1.
        -11    1    3    3    0    0 -0.23726649010E+01 -0.11991934053E+02 -0.35342271978E+01  0.12725045509E+02  0.51100000000E-03 0.  1.
        -12    1    3    3    0    0  0.47850919106E+01 -0.67477578778E+01 -0.13718611702E+00  0.82733403774E+01  0.00000000000E+00 0.  1.
</event>
<event>
 7    1  0.2486105E-010  0.4778727E+02  0.7816164E-02  0.1312668E+00
        -11   -1    0    0    0    0  0.00000000000E+00  0.00000000000E+00  0.45593999997E+02  0.45594000000E+02  0.51100000000E-03 0.  1.
         11   -1    0    0    0    0 -0.00000000000E+00 -0.00000000000E+00 -0.45593999997E+02  0.45594000000E+02  0.51100000000E-03 0. -1.
    9900012    2    1    2    0    0  0.20675050895E+02  0.32326070438E+02  0.20277841670E+02  0.47787269334E+02  0.19999992204E+02 0.  0.
         12    1    1    2    0    0 -0.20675050895E+02 -0.32326070438E+02 -0.20277841670E+02  0.43400730666E+02  0.00000000000E+00 0. -1.
         11    1    3    3    0    0  0.14237646540E+02  0.17625094779E+02  0.91989400876E+01  0.24453528252E+02  0.51100000000E-03 0. -1.
        -11    1    3    3    0    0  0.10214367482E+02  0.10121309976E+02  0.62401307380E+01  0.15675249618E+02  0.51100000000E-03 0.  1.
         12    1    3    3    0    0 -0.37769631270E+01  0.45796656838E+01  0.48387708440E+01  0.76584914650E+01  0.00000000000E+00 0. -1.
</event>
<event>
 7    1  0.2486105E-010  0.4778727E+02  0.7816164E-02  0.1312668E+00
        -11   -1    0    0    0    0  0.00000000000E+00  0.00000000000E+00  0.45593999997E+02  0.45594000000E+02  0.51100000000E-03 0. -1.
         11   -1    0    0    0    0 -0.00000000000E+00 -0.00000000000E+00 -0.45593999997E+02  0.45594000000E+02  0.51100000000E-03 0.  1.
    9900012    2    1    2    0    0  0.20302472325E+02 -0.17636303557E+02 -0.34064552534E+02  0.47787270455E+02  0.19999997314E+02 0.  0.
         12    1    1    2    0    0 -0.20302472325E+02  0.17636303557E+02  0.34064552534E+02  0.43400729545E+02  0.00000000000E+00 0. -1.
         11    1    3    3    0    0  0.40422744195E+01 -0.11788901791E+02 -0.91356722987E+01  0.15452465711E+02  0.51100000000E-03 0. -1.
        -11    1    3    3    0    0  0.13519201117E+02 -0.91269902856E+01 -0.19391572716E+02  0.25339768017E+02  0.51100000000E-03 0.  1.
         12    1    3    3    0    0  0.27409967885E+01  0.32795885198E+01 -0.55373075195E+01  0.69950367275E+01  0.00000000000E+00 0. -1.
</event>
<event>
 7    1  0.3414742E-010  0.4778727E+02  0.7816164E-02  0.1312668E+00
        -11   -1    0    0    0    0  0.00000000000E+00  0.00000000000E+00  0.45593999997E+02  0.45594000000E+02  0.51100000000E-03 0. -1.
         11   -1    0    0    0    0 -0.00000000000E+00 -0.00000000000E+00 -0.45593999997E+02  0.45594000000E+02  0.51100000000E-03 0.  1.
    9900012    2    1    2    0    0  0.61031247508E+01  0.18037842464E+02 -0.39000145016E+02  0.47787271852E+02  0.20000003683E+02 0.  0.
         12    1    1    2    0    0 -0.61031247508E+01 -0.18037842464E+02  0.39000145016E+02  0.43400728148E+02  0.00000000000E+00 0. -1.
         11    1    3    3    0    0  0.44838036255E+01  0.19649243657E+01 -0.19010606047E+01  0.52516144564E+01  0.51100000000E-03 0.  1.
        -11    1    3    3    0    0 -0.32182490540E+01  0.48070449743E+01 -0.34806233544E+01  0.67512626637E+01  0.51100000000E-03 0. -1.
        -12    1    3    3    0    0  0.48375701793E+01  0.11265873124E+02 -0.33618461057E+02  0.35784394732E+02  0.00000000000E+00 0.  1.
</event>
<event>
 7    1  0.3207938E-010  0.4778725E+02  0.7816164E-02  0.1312668E+00
        -11   -1    0    0    0    0  0.00000000000E+00  0.00000000000E+00  0.45593999997E+02  0.45594000000E+02  0.51100000000E-03 0.  1.
         11   -1    0    0    0    0 -0.00000000000E+00 -0.00000000000E+00 -0.45593999997E+02  0.45594000000E+02  0.51100000000E-03 0. -1.
    9900012    2    1    2    0    0 -0.42459055567E+02  0.84624419951E+01  0.30398305143E+01  0.47787252383E+02  0.19999914913E+02 0.  0.
         12    1    1    2    0    0  0.42459055567E+02 -0.84624419951E+01 -0.30398305143E+01  0.43400747617E+02  0.00000000000E+00 0. -1.
         11    1    3    3    0    0 -0.31866565016E+01  0.31329052884E+00 -0.35978524661E+01  0.48163755298E+01  0.51100000000E-03 0. -1.
        -11    1    3    3    0    0 -0.81087114872E+01  0.65379977072E+01  0.54197300177E+01  0.11741809474E+02  0.51100000000E-03 0.  1.
        -12    1    3    3    0    0 -0.31163687579E+02  0.16111537591E+01  0.12179529627E+01  0.31229067379E+02  0.00000000000E+00 0.  1.
</event>
<event>
 7    1  0.2486105E-010  0.4778727E+02  0.7816164E-02  0.1312668E+00
        -11   -1    0    0    0    0  0.00000000000E+00  0.00000000000E+00  0.45593999997E+02  0.45594000000E+02  0.51100000000E-03 0.  1.
         11   -1    0    0    0    0 -0.00000000000E+00 -0.00000000000E+00 -0.45593999997E+02  0.45594000000E+02  0.51100000000E-03 0. -1.
    9900012    2    1    2    0    0  0.37102670955E+02  0.76859212953E+01  0.21164631406E+02  0.47787271887E+02  0.20000003843E+02 0.  0.
         12    1    1    2    0    0 -0.37102670955E+02 -0.76859212953E+01 -0.21164631406E+02  0.43400728113E+02  0.00000000000E+00 0. -1.
         11    1    3    3    0    0  0.72348160286E+01 -0.10977453437E+01  0.31255308904E+01  0.79571698118E+01  0.51100000000E-03 0. -1.
        -11    1    3    3    0    0  0.41314865802E-01  0.13688660786E+01 -0.25097438797E+01  0.28590760504E+01  0.51100000000E-03 0.  1.
        -12    1    3    3    0    0  0.29826540061E+02  0.74148005604E+01  0.20548844396E+02  0.36971026025E+02  0.00000000000E+00 0.  1.
</event>
<event>
 7    1  0.2486105E-010  0.4778732E+02  0.7816164E-02  0.1312668E+00
        -11   -1    0    0    0    0  0.00000000000E+00  0.00000000000E+00  0.45593999997E+02  0.45594000000E+02  0.51100000000E-03 0.  1.
         11   -1    0    0    0    0 -0.00000000000E+00 -0.00000000000E+00 -0.45593999997E+02  0.45594000000E+02  0.51100000000E-03 0. -1.
    9900012    2    1    2    0    0 -0.30969411635E+02 -0.36156468331E+01  0.30190086349E+02  0.47787324052E+02  0.20000241679E+02 0.  0.
         12    1    1    2    0    0  0.30969411635E+02  0.36156468331E+01 -0.30190086349E+02  0.43400675948E+02  0.00000000000E+00 0. -1.
         11    1    3    3    0    0 -0.30195155874E+02  0.10249765506E+01  0.26063826835E+02  0.39901392015E+02  0.51100000000E-03 0.  1.
        -11    1    3    3    0    0 -0.19636922677E+01 -0.26786132099E+01  0.44669413074E+01  0.55663831125E+01  0.51100000000E-03 0. -1.
        -12    1    3    3    0    0  0.11894365071E+01 -0.19620101738E+01 -0.34068179353E+00  0.23195489240E+01  0.00000000000E+00 0.  1.
</event>
<event>
 7    1  0.2486105E-010  0.4778727E+02  0.7816164E-02  0.1312668E+00
        -11   -1    0    0    0    0  0.00000000000E+00  0.00000000000E+00  0.45593999997E+02  0.45594000000E+02  0.51100000000E-03 0. -1.
         11   -1    0    0    0    0 -0.00000000000E+00 -0.00000000000E+00 -0.45593999997E+02  0.45594000000E+02  0.51100000000E-03 0.  1.
    9900012    2    1    2    0    0 -0.17555580973E+02 -0.38890107225E+02 -0.79362940831E+01  0.47787266976E+02  0.19999981451E+02 0.  0.
         12    1    1    2    0    0  0.17555580973E+02  0.38890107225E+02  0.79362940831E+01  0.43400733024E+02  0.00000000000E+00 0. -1.
         11    1    3    3    0    0 -0.41859726273E+01 -0.26809209404E+01  0.18507535239E+01  0.53042429048E+01  0.51100000000E-03 0. -1.
        -11    1    3    3    0    0 -0.10249922873E+02 -0.18621569021E+02  0.15733394567E+01  0.21314294476E+02  0.51100000000E-03 0.  1.
        -12    1    3    3    0    0 -0.31196854729E+01 -0.17587617264E+02 -0.11360387064E+02  0.21168729596E+02  0.00000000000E+00 0.  1.
</event>
<event>
 7    1  0.2486105E-010  0.4778727E+02  0.7816164E-02  0.1312668E+00
        -11   -1    0    0    0    0  0.00000000000E+00  0.00000000000E+00  0.45593999997E+02  0.45594000000E+02  0.51100000000E-03 0. -1.
         11   -1    0    0    0    0 -0.00000000000E+00 -0.00000000000E+00 -0.45593999997E+02  0.45594000000E+02  0.51100000000E-03 0.  1.
    9900012    2    1    2    0    0  0.98007808156E+01 -0.36358155473E+02 -0.21578977579E+02  0.47787273655E+02  0.20000011901E+02 0.  0.
         12    1    1    2    0    0 -0.98007808156E+01  0.36358155473E+02  0.21578977579E+02  0.43400726345E+02  0.00000000000E+00 0. -1.
         11    1    3    3    0    0  0.32097348711E+01 -0.12198071039E+02  0.13816456326E+01  0.12688746192E+02  0.51100000000E-03 0. -1.
        -11    1    3    3    0    0  0.16434668495E+01 -0.56875241285E+00  0.96753240953E-01  0.17417875999E+01  0.51100000000E-03 0.  1.
        -12    1    3    3    0    0  0.49475790950E+01 -0.23591332021E+02 -0.23057376452E+02  0.33356739863E+02  0.00000000000E+00 0.  1.
</event>
<event>
 7    1  0.2486105E-010  0.4778727E+02  0.7816164E-02  0.1312668E+00
        -11   -1    0    0    0    0  0.00000000000E+00  0.00000000000E+00  0.45593999997E+02  0.45594000000E+02  0.51100000000E-03 0.  1.
         11   -1    0    0    0    0 -0.00000000000E+00 -0.00000000000E+00 -0.45593999997E+02  0.45594000000E+02  0.51100000000E-03 0. -1.
    9900012    2    1    2    0    0 -0.97471298072E+01  0.35323983454E+02  0.23255818508E+02  0.47787269119E+02  0.19999991220E+02 0.  0.
         12    1    1    2    0    0  0.97471298072E+01 -0.35323983454E+02 -0.23255818508E+02  0.43400730881E+02  0.00000000000E+00 0. -1.
         11    1    3    3    0    0  0.13182362032E+01  0.81658091835E-02  0.37165277449E+01  0.39433985479E+01  0.51100000000E-03 0. -1.
        -11    1    3    3    0    0  0.28194986737E+01  0.95631468255E+01  0.43352787182E+01  0.10871889983E+02  0.51100000000E-03 0.  1.
         12    1    3    3    0    0 -0.13884864684E+02  0.25752670819E+02  0.15204012045E+02  0.32971980588E+02  0.00000000000E+00 0. -1.
</event>
<event>
 7    1  0.2486105E-010  0.4778727E+02  0.7816164E-02  0.1312668E+00
        -11   -1    0    0    0    0  0.00000000000E+00  0.00000000000E+00  0.45593999997E+02  0.45594000000E+02  0.51100000000E-03 0.  1.
         11   -1    0    0    0    0 -0.00000000000E+00 -0.00000000000E+00 -0.45593999997E+02  0.45594000000E+02  0.51100000000E-03 0. -1.
    9900012    2    1    2    0    0  0.39166529704E+02 -0.15206166504E+02  0.10880202782E+02  0.47787270036E+02  0.19999995404E+02 0.  0.
         12    1    1    2    0    0 -0.39166529704E+02  0.15206166504E+02 -0.10880202782E+02  0.43400729964E+02  0.00000000000E+00 0. -1.
         11    1    3    3    0    0  0.12458062266E+02 -0.34502384668E+01  0.84171067820E+01  0.15425794882E+02  0.51100000000E-03 0.  1.
        -11    1    3    3    0    0  0.20421404726E+02 -0.31659874490E+01  0.53213688098E+01  0.21339498912E+02  0.51100000000E-03 0. -1.
         12    1    3    3    0    0  0.62870627118E+01 -0.85899405879E+01 -0.28582728099E+01  0.11021976243E+02  0.00000000000E+00 0. -1.
</event>
<event>
 7    1  0.2486105E-010  0.4778728E+02  0.7816164E-02  0.1312668E+00
        -11   -1    0    0    0    0  0.00000000000E+00  0.00000000000E+00  0.45593999997E+02  0.45594000000E+02  0.51100000000E-03 0.  1.
         11   -1    0    0    0    0 -0.00000000000E+00 -0.00000000000E+00 -0.45593999997E+02  0.45594000000E+02  0.51100000000E-03 0. -1.
    9900012    2    1    2    0    0  0.28042932483E+02 -0.22031666135E+00  0.33123527650E+02  0.47787277821E+02  0.20000030895E+02 0.  0.
         12    1    1    2    0    0 -0.28042932483E+02  0.22031666135E+00 -0.33123527650E+02  0.43400722179E+02  0.00000000000E+00 0. -1.
         11    1    3    3    0    0  0.25489340275E+02  0.32592483274E+01  0.16848648971E+02  0.30727937447E+02  0.51100000000E-03 0. -1.
        -11    1    3    3    0    0  0.17074081793E+01 -0.22861356750E+00  0.64480639144E+01  0.66742067214E+01  0.51100000000E-03 0.  1.
         12    1    3    3    0    0  0.84618402859E+00 -0.32509514212E+01  0.98268147649E+01  0.10385133652E+02  0.00000000000E+00 0. -1.
</event>
<event>
 7    1  0.2486105E-010  0.4778727E+02  0.7816164E-02  0.1312668E+00
        -11   -1    0    0    0    0  0.00000000000E+00  0.00000000000E+00  0.45593999997E+02  0.45594000000E+02  0.51100000000E-03 0.  1.
         11   -1    0    0    0    0 -0.00000000000E+00 -0.00000000000E+00 -0.45593999997E+02  0.45594000000E+02  0.51100000000E-03 0. -1.
    9900012    2    1    2    0    0 -0.22250318993E+02  0.36551091524E+02  0.72501077644E+01  0.47787273630E+02  0.20000011787E+02 0.  0.
         12    1    1    2    0    0  0.22250318993E+02 -0.36551091524E+02 -0.72501077644E+01  0.43400726370E+02  0.00000000000E+00 0. -1.
         11    1    3    3    0    0 -0.10068378739E+02  0.60968686617E+01  0.17722500371E+01  0.11903147834E+02  0.51100000000E-03 0.  1.
        -11    1    3    3    0    0 -0.30245952282E+01 -0.54940753263E+00  0.10817299102E+01  0.32588594310E+01  0.51100000000E-03 0. -1.
        -12    1    3    3    0    0 -0.91573450260E+01  0.31003630395E+02  0.43961278171E+01  0.32625266365E+02  0.00000000000E+00 0.  1.
</event>
<event>
 7    1  0.2486105E-010  0.4778727E+02  0.7816164E-02  0.1312668E+00
        -11   -1    0    0    0    0  0.00000000000E+00  0.00000000000E+00  0.45593999997E+02  0.45594000000E+02  0.51100000000E-03 0.  1.
         11   -1    0    0    0    0 -0.00000000000E+00 -0.00000000000E+00 -0.45593999997E+02  0.45594000000E+02  0.51100000000E-03 0. -1.
    9900012    2    1    2    0    0  0.14384627099E+02  0.96007656554E+01  0.39806174283E+02  0.47787266031E+02  0.19999977143E+02 0.  0.
         12    1    1    2    0    0 -0.14384627099E+02 -0.96007656554E+01 -0.39806174283E+02  0.43400733969E+02  0.00000000000E+00 0. -1.
         11    1    3    3    0    0 -0.11219177123E+01  0.26995572281E+01  0.19753367047E+02  0.19968520690E+02  0.51100000000E-03 0. -1.
        -11    1    3    3    0    0  0.24688858544E+01 -0.20698205047E+01  0.51851265581E+01  0.61045140649E+01  0.51100000000E-03 0.  1.
        -12    1    3    3    0    0  0.13037658957E+02  0.89710289320E+01  0.14867680678E+02  0.21714231276E+02  0.00000000000E+00 0.  1.
</event>
<event>
 7    1  0.2486105E-010  0.4778727E+02  0.7816164E-02  0.1312668E+00
        -11   -1    0    0    0    0  0.00000000000E+00  0.00000000000E+00  0.45593999997E+02  0.45594000000E+02  0.51100000000E-03 0. -1.
         11   -1    0    0    0    0 -0.00000000000E+00 -0.00000000000E+00 -0.45593999997E+02  0.45594000000E+02  0.51100000000E-03 0.  1.
    9900012    2    1    2    0    0 -0.32128737843E+01 -0.34223867255E+02 -0.26495801418E+02  0.47787272579E+02  0.20000006999E+02 0.  0.
         12    1    1    2    0    0  0.32128737843E+01  0.34223867255E+02  0.26495801418E+02  0.43400727421E+02  0.00000000000E+00 0. -1.
         11    1    3    3    0    0 -0.32405966511E+01 -0.21950490664E+01 -0.15143352599E+01  0.41967747854E+01  0.51100000000E-03 0. -1.
        -11    1    3    3    0    0  0.60254142700E+01 -0.20771127698E+02 -0.97507581345E+01  0.23723883482E+02  0.51100000000E-03 0.  1.
        -12    1    3    3    0    0 -0.59976914032E+01 -0.11257690491E+02 -0.15230708023E+02  0.19866614312E+02  0.00000000000E+00 0.  1.
</event>
<event>
 7    1  0.2486105E-010  0.4778727E+02  0.7816164E-02  0.1312668E+00
        -11   -1    0    0    0    0  0.00000000000E+00  0.00000000000E+00  0.45593999997E+02  0.45594000000E+02  0.51100000000E-03 0.  1.
         11   -1    0    0    0    0 -0.00000000000E+00 -0.00000000000E+00 -0.45593999997E+02  0.45594000000E+02  0.51100000000E-03 0. -1.
    9900012    2    1    2    0    0 -0.17198944479E+02  0.23854726374E+02  0.31918201165E+02  0.47787271582E+02  0.20000002452E+02 0.  0.
         12    1    1    2    0    0  0.17198944479E+02 -0.23854726374E+02 -0.31918201165E+02  0.43400728418E+02  0.00000000000E+00 0. -1.
         11    1    3    3    0    0  0.35676240901E+00 -0.96315974924E+00  0.79582960439E+00  0.12993464278E+01  0.51100000000E-03 0. -1.
        -11    1    3    3    0    0 -0.21046619788E+00  0.40558234799E+01  0.13748013968E+02  0.14335337053E+02  0.51100000000E-03 0.  1.
         12    1    3    3    0    0 -0.17345240691E+02  0.20762062643E+02  0.17374357593E+02  0.32152588101E+02  0.00000000000E+00 0. -1.
</event>
<event>
 7    1  0.2486105E-010  0.4778727E+02  0.7816164E-02  0.1312668E+00
        -11   -1    0    0    0    0  0.00000000000E+00  0.00000000000E+00  0.45593999997E+02  0.45594000000E+02  0.51100000000E-03 0. -1.
         11   -1    0    0    0    0 -0.00000000000E+00 -0.00000000000E+00 -0.45593999997E+02  0.45594000000E+02  0.51100000000E-03 0.  1.
    9900012    2    1    2    0    0 -0.21732005642E+02 -0.36145589903E+02 -0.10239106314E+02  0.47787273776E+02  0.20000012453E+02 0.  0.
         12    1    1    2    0    0  0.21732005642E+02  0.36145589903E+02  0.10239106314E+02  0.43400726224E+02  0.00000000000E+00 0. -1.
         11    1    3    3    0    0 -0.45592355367E+01 -0.27572441567E+00  0.18838640794E+01  0.49408093227E+01  0.51100000000E-03 0. -1.
        -11    1    3    3    0    0 -0.10759735223E+02 -0.10931292579E+02 -0.41337439477E+01  0.15885619245E+02  0.51100000000E-03 0.  1.
         12    1    3    3    0    0 -0.64130348824E+01 -0.24938572908E+02 -0.79892264459E+01  0.26960845208E+02  0.00000000000E+00 0. -1.
</event>
<event>
 7    1  0.2486105E-010  0.4778727E+02  0.7816164E-02  0.1312668E+00
        -11   -1    0    0    0    0  0.00000000000E+00  0.00000000000E+00  0.45593999997E+02  0.45594000000E+02  0.51100000000E-03 0.  1.
         11   -1    0    0    0    0 -0.00000000000E+00 -0.00000000000E+00 -0.45593999997E+02  0.45594000000E+02  0.51100000000E-03 0. -1.
    9900012    2    1    2    0    0 -0.27512468295E+02 -0.14570741924E+02  0.30238734370E+02  0.47787268575E+02  0.19999988743E+02 0.  0.
         12    1    1    2    0    0  0.27512468295E+02  0.14570741924E+02 -0.30238734370E+02  0.43400731425E+02  0.00000000000E+00 0. -1.
         11    1    3    3    0    0 -0.45403864343E+01  0.25876229125E+01  0.11051100817E+02  0.12224472620E+02  0.51100000000E-03 0. -1.
        -11    1    3    3    0    0 -0.88090657543E+00 -0.27537136534E+01 -0.94961174277E-01  0.28927414618E+01  0.51100000000E-03 0.  1.
        -12    1    3    3    0    0 -0.22091175285E+02 -0.14404651183E+02  0.19282594727E+02  0.32670054494E+02  0.00000000000E+00 0.  1.
</event>
<event>
 7    1  0.2486105E-010  0.4778727E+02  0.7816164E-02  0.1312668E+00
        -11   -1    0    0    0    0  0.00000000000E+00  0.00000000000E+00  0.45593999997E+02  0.45594000000E+02  0.51100000000E-03 0. -1.
         11   -1    0    0    0    0 -0.00000000000E+00 -0.00000000000E+00 -0.45593999997E+02  0.45594000000E+02  0.51100000000E-03 0.  1.
    9900012    2    1    2    0    0  0.35585262494E+01  0.21569845412E+02 -0.37492692805E+02  0.47787270122E+02  0.19999995794E+02 0.  0.
         12    1    1    2    0    0 -0.35585262494E+01 -0.21569845412E+02  0.37492692805E+02  0.43400729878E+02  0.00000000000E+00 0. -1.
         11    1    3    3    0    0  0.13366556309E+01  0.60327893616E+01 -0.29585293435E+01  0.68508460714E+01  0.51100000000E-03 0. -1.
        -11    1    3    3    0    0 -0.46727364717E+01  0.14208684724E+02 -0.23798768277E+02  0.28108763037E+02  0.51100000000E-03 0.  1.
         12    1    3    3    0    0  0.68946070902E+01  0.13283713269E+01 -0.10735395184E+02  0.12827661013E+02  0.00000000000E+00 0. -1.
</event>
<event>
 7    1  0.2486105E-010  0.4778727E+02  0.7816164E-02  0.1312668E+00
        -11   -1    0    0    0    0  0.00000000000E+00  0.00000000000E+00  0.45593999997E+02  0.45594000000E+02  0.51100000000E-03 0.  1.
         11   -1    0    0    0    0 -0.00000000000E+00 -0.00000000000E+00 -0.45593999997E+02  0.45594000000E+02  0.51100000000E-03 0. -1.
    9900012    2    1    2    0    0  0.23381316642E+02 -0.98474266315E+01  0.35213143619E+02  0.47787271173E+02  0.20000000586E+02 0.  0.
         12    1    1    2    0    0 -0.23381316642E+02  0.98474266315E+01 -0.35213143619E+02  0.43400728827E+02  0.00000000000E+00 0. -1.
         11    1    3    3    0    0  0.18401565601E+02 -0.84313022543E+01  0.15400095752E+02  0.25433588494E+02  0.51100000000E-03 0. -1.
        -11    1    3    3    0    0  0.67432338062E+01  0.11676202098E+01  0.10536836306E+02  0.12564213414E+02  0.51100000000E-03 0.  1.
        -12    1    3    3    0    0 -0.17634827649E+01 -0.25837445870E+01  0.92762115610E+01  0.97894692644E+01  0.00000000000E+00 0.  1.
</event>
<event>
 7    1  0.2486105E-010  0.4778727E+02  0.7816164E-02  0.1312668E+00
        -11   -1    0    0    0    0  0.00000000000E+00  0.00000000000E+00  0.45593999997E+02  0.45594000000E+02  0.51100000000E-03 0. -1.
         11   -1    0    0    0    0 -0.00000000000E+00 -0.00000000000E+00 -0.45593999997E+02  0.45594000000E+02  0.51100000000E-03 0.  1.
    9900012    2    1    2    0    0  0.17095010024E+02  0.39890115921E+02 -0.40323435398E+00  0.47787270584E+02  0.19999997901E+02 0.  0.
         12    1    1    2    0    0 -0.17095010024E+02 -0.39890115921E+02  0.40323435398E+00  0.43400729416E+02  0.00000000000E+00 0. -1.
         11    1    3    3    0    0  0.66197555901E+01  0.10911289097E+02  0.26237704206E+01  0.13029258049E+02  0.51100000000E-03 0. -1.
        -11    1    3    3    0    0  0.16472284689E+01  0.14574868942E+02  0.57082580580E+01  0.15739262265E+02  0.51100000000E-03 0.  1.
        -12    1    3    3    0    0  0.88280259655E+01  0.14403957881E+02 -0.87352628326E+01  0.19018750270E+02  0.00000000000E+00 0.  1.
</event>
<event>
 7    1  0.2486105E-010  0.4778723E+02  0.7816164E-02  0.1312668E+00
        -11   -1    0    0    0    0  0.00000000000E+00  0.00000000000E+00  0.45593999997E+02  0.45594000000E+02  0.51100000000E-03 0.  1.
         11   -1    0    0    0    0 -0.00000000000E+00 -0.00000000000E+00 -0.45593999997E+02  0.45594000000E+02  0.51100000000E-03 0. -1.
    9900012    2    1    2    0    0  0.41472963976E+02  0.15393037027E+01  0.12698449042E+02  0.47787230365E+02  0.19999814525E+02 0.  0.
         12    1    1    2    0    0 -0.41472963976E+02 -0.15393037027E+01 -0.12698449042E+02  0.43400769635E+02  0.00000000000E+00 0. -1.
         11    1    3    3    0    0  0.17647413795E+02 -0.46842695574E+01  0.59071736989E-01  0.18258616724E+02  0.51100000000E-03 0. -1.
        -11    1    3    3    0    0  0.18809135497E+02  0.33313813593E+01  0.46468247147E+01  0.19658958775E+02  0.51100000000E-03 0.  1.
        -12    1    3    3    0    0  0.50164146840E+01  0.28921919007E+01  0.79925525906E+01  0.98696548666E+01  0.00000000000E+00 0.  1.
</event>
<event>
 7    1  0.2486105E-010  0.4778727E+02  0.7816164E-02  0.1312668E+00
        -11   -1    0    0    0    0  0.00000000000E+00  0.00000000000E+00  0.45593999997E+02  0.45594000000E+02  0.51100000000E-03 0. -1.
         11   -1    0    0    0    0 -0.00000000000E+00 -0.00000000000E+00 -0.45593999997E+02  0.45594000000E+02  0.51100000000E-03 0.  1.
    9900012    2    1    2    0    0 -0.36551936708E+01 -0.71715363629E+01 -0.42647765184E+02  0.47787271322E+02  0.20000001265E+02 0.  0.
         12    1    1    2    0    0  0.36551936708E+01  0.71715363629E+01  0.42647765184E+02  0.43400728678E+02  0.00000000000E+00 0. -1.
         11    1    3    3    0    0  0.19485796403E+01 -0.11088689227E+01 -0.27244862783E+01  0.35283677025E+01  0.51100000000E-03 0. -1.
        -11    1    3    3    0    0 -0.11313813086E+02 -0.90512863784E+00 -0.22047791183E+02  0.24797716038E+02  0.51100000000E-03 0.  1.
        -12    1    3    3    0    0  0.57100397753E+01 -0.51575388024E+01 -0.17875487723E+02  0.19461187581E+02  0.00000000000E+00 0.  1.
</event>
<event>
 7    1  0.2486105E-010  0.4778727E+02  0.7816164E-02  0.1312668E+00
        -11   -1    0    0    0    0  0.00000000000E+00  0.00000000000E+00  0.45593999997E+02  0.45594000000E+02  0.51100000000E-03 0.  1.
         11   -1    0    0    0    0 -0.00000000000E+00 -0.00000000000E+00 -0.45593999997E+02  0.45594000000E+02  0.51100000000E-03 0. -1.
    9900012    2    1    2    0    0  0.24540654601E+02 -0.46908668856E+01  0.35487677949E+02  0.47787271358E+02  0.20000001432E+02 0.  0.
         12    1    1    2    0    0 -0.24540654601E+02  0.46908668856E+01 -0.35487677949E+02  0.43400728642E+02  0.00000000000E+00 0. -1.
         11    1    3    3    0    0  0.15780978426E+01 -0.22786790077E+01  0.24159047377E+01  0.36768691552E+01  0.51100000000E-03 0. -1.
        -11    1    3    3    0    0  0.13668452274E+02  0.34215309435E+01  0.29291496088E+02  0.32504233646E+02  0.51100000000E-03 0.  1.
        -12    1    3    3    0    0  0.92941044846E+01 -0.58337188214E+01  0.37802771236E+01  0.11606168558E+02  0.00000000000E+00 0.  1.
</event>
<event>
 7    1  0.2486105E-010  0.4778726E+02  0.7816164E-02  0.1312668E+00
        -11   -1    0    0    0    0  0.00000000000E+00  0.00000000000E+00  0.45593999997E+02  0.45594000000E+02  0.51100000000E-03 0. -1.
         11   -1    0    0    0    0 -0.00000000000E+00 -0.00000000000E+00 -0.45593999997E+02  0.45594000000E+02  0.51100000000E-03 0.  1.
    9900012    2    1    2    0    0 -0.39051607488E+02  0.33332088456E+01 -0.18640976225E+02  0.47787258956E+02  0.19999944882E+02 0.  0.
         12    1    1    2    0    0  0.39051607488E+02 -0.33332088456E+01  0.18640976225E+02  0.43400741044E+02  0.00000000000E+00 0. -1.
         11    1    3    3    0    0 -0.62396978343E+01  0.14557221975E+01 -0.93979533444E+01  0.11374290462E+02  0.51100000000E-03 0. -1.
        -11    1    3    3    0    0  0.24993615465E+00  0.13625086065E+01 -0.22087120765E+01  0.26071645675E+01  0.51100000000E-03 0.  1.
         12    1    3    3    0    0 -0.33061845808E+02  0.51497804159E+00 -0.70343108037E+01  0.33805803926E+02  0.00000000000E+00 0. -1.
</event>
<event>
 7    1  0.2486105E-010  0.4778727E+02  0.7816164E-02  0.1312668E+00
        -11   -1    0    0    0    0  0.00000000000E+00  0.00000000000E+00  0.45593999997E+02  0.45594000000E+02  0.51100000000E-03 0.  1.
         11   -1    0    0    0    0 -0.00000000000E+00 -0.00000000000E+00 -0.45593999997E+02  0.45594000000E+02  0.51100000000E-03 0. -1.
    9900012    2    1    2    0    0 -0.37295006675E+02 -0.22136232847E+02  0.16410378652E+01  0.47787270365E+02  0.19999996904E+02 0.  0.
         12    1    1    2    0    0  0.37295006675E+02  0.22136232847E+02 -0.16410378652E+01  0.43400729635E+02  0.00000000000E+00 0. -1.
         11    1    3    3    0    0 -0.11910212370E+01  0.31874587810E+01  0.99074560233E+00  0.35440093365E+01  0.51100000000E-03 0. -1.
        -11    1    3    3    0    0 -0.64470078892E+01 -0.61224408299E+01  0.62769660169E+00  0.89130351577E+01  0.51100000000E-03 0.  1.
         12    1    3    3    0    0 -0.29656977549E+02 -0.19201250798E+02  0.22595661231E-01  0.35330225871E+02  0.00000000000E+00 0. -1.
</event>
<event>
 7    1  0.2486105E-010  0.4778728E+02  0.7816164E-02  0.1312668E+00
        -11   -1    0    0    0    0  0.00000000000E+00  0.00000000000E+00  0.45593999997E+02  0.45594000000E+02  0.51100000000E-03 0.  1.
         11   -1    0    0    0    0 -0.00000000000E+00 -0.00000000000E+00 -0.45593999997E+02  0.45594000000E+02  0.51100000000E-03 0. -1.
    9900012    2    1    2    0    0 -0.20048748845E+02 -0.89019071369E+00  0.38482177029E+02  0.47787277441E+02  0.20000029166E+02 0.  0.
         12    1    1    2    0    0  0.20048748845E+02  0.89019071369E+00 -0.38482177029E+02  0.43400722559E+02  0.00000000000E+00 0. -1.
         11    1    3    3    0    0 -0.60302884196E+01 -0.16483889525E+01  0.39757012957E+01  0.74086277822E+01  0.51100000000E-03 0. -1.
        -11    1    3    3    0    0 -0.91815830562E+01  0.22576561287E+01  0.55102464299E+01  0.10943550365E+02  0.51100000000E-03 0.  1.
         12    1    3    3    0    0 -0.48368773690E+01 -0.14994578898E+01  0.28996229303E+02  0.29435099294E+02  0.00000000000E+00 0. -1.
</event>
<event>
 7    1  0.2486105E-010  0.4778727E+02  0.7816164E-02  0.1312668E+00
        -11   -1    0    0    0    0  0.00000000000E+00  0.00000000000E+00  0.45593999997E+02  0.45594000000E+02  0.51100000000E-03 0.  1.
         11   -1    0    0    0    0 -0.00000000000E+00 -0.00000000000E+00 -0.45593999997E+02  0.45594000000E+02  0.51100000000E-03 0. -1.
    9900012    2    1    2    0    0 -0.17234184082E+02 -0.27892413857E+02  0.28436233826E+02  0.47787271366E+02  0.20000001467E+02 0.  0.
         12    1    1    2    0    0  0.17234184082E+02  0.27892413857E+02 -0.28436233826E+02  0.43400728634E+02  0.00000000000E+00 0. -1.
         11    1    3    3    0    0 -0.51635622679E+01  0.53205054267E+00  0.57510879471E+01  0.77472876487E+01  0.51100000000E-03 0. -1.
        -11    1    3    3    0    0 -0.11077495787E+02 -0.19576959659E+02  0.10181955448E+02  0.24690898716E+02  0.51100000000E-03 0.  1.
         12    1    3    3    0    0 -0.99312602724E+00 -0.88475047407E+01  0.12503190431E+02  0.15349085002E+02  0.00000000000E+00 0. -1.
</event>
<event>
 7    1  0.2486105E-010  0.4778727E+02  0.7816164E-02  0.1312668E+00
        -11   -1    0    0    0    0  0.00000000000E+00  0.00000000000E+00  0.45593999997E+02  0.45594000000E+02  0.51100000000E-03 0.  1.
         11   -1    0    0    0    0 -0.00000000000E+00 -0.00000000000E+00 -0.45593999997E+02  0.45594000000E+02  0.51100000000E-03 0. -1.
    9900012    2    1    2    0    0 -0.70855038730E+00 -0.28143378696E+02  0.33031368487E+02  0.47787272907E+02  0.20000008493E+02 0.  0.
         12    1    1    2    0    0  0.70855038730E+00  0.28143378696E+02 -0.33031368487E+02  0.43400727093E+02  0.00000000000E+00 0. -1.
         11    1    3    3    0    0  0.56746636069E+01 -0.10774700668E+02  0.80204737955E+01  0.14581631655E+02  0.51100000000E-03 0. -1.
        -11    1    3    3    0    0 -0.17081229373E+01 -0.14450583644E+02  0.11283888012E+02  0.18413668308E+02  0.51100000000E-03 0.  1.
         12    1    3    3    0    0 -0.46750910569E+01 -0.29180943836E+01  0.13727006679E+02  0.14791972945E+02  0.00000000000E+00 0. -1.
</event>
<event>
 7    1  0.2486105E-010  0.4778727E+02  0.7816164E-02  0.1312668E+00
        -11   -1    0    0    0    0  0.00000000000E+00  0.00000000000E+00  0.45593999997E+02  0.45594000000E+02  0.51100000000E-03 0.  1.
         11   -1    0    0    0    0 -0.00000000000E+00 -0.00000000000E+00 -0.45593999997E+02  0.45594000000E+02  0.51100000000E-03 0. -1.
    9900012    2    1    2    0    0 -0.37529618776E+02  0.14265420531E+01  0.21751228085E+02  0.47787271539E+02  0.20000002256E+02 0.  0.
         12    1    1    2    0    0  0.37529618776E+02 -0.14265420531E+01 -0.21751228085E+02  0.43400728461E+02  0.00000000000E+00 0. -1.
         11    1    3    3    0    0 -0.13440377324E+01 -0.58079814539E-01  0.28375939621E+01  0.31403424090E+01  0.51100000000E-03 0. -1.
        -11    1    3    3    0    0 -0.34803155933E+02  0.63557534260E+01  0.16465325060E+02  0.39022585692E+02  0.51100000000E-03 0.  1.
         12    1    3    3    0    0 -0.13824251111E+01 -0.48711315583E+01  0.24483090625E+01  0.56243434383E+01  0.00000000000E+00 0. -1.
</event>
<event>
 7    1  0.2486105E-010  0.4778727E+02  0.7816164E-02  0.1312668E+00
        -11   -1    0    0    0    0  0.00000000000E+00  0.00000000000E+00  0.45593999997E+02  0.45594000000E+02  0.51100000000E-03 0. -1.
         11   -1    0    0    0    0 -0.00000000000E+00 -0.00000000000E+00 -0.45593999997E+02  0.45594000000E+02  0.51100000000E-03 0.  1.
    9900012    2    1    2    0    0  0.16713562357E+02  0.35747184359E+02 -0.18067078966E+02  0.47787266151E+02  0.19999977690E+02 0.  0.
         12    1    1    2    0    0 -0.16713562357E+02 -0.35747184359E+02  0.18067078966E+02  0.43400733849E+02  0.00000000000E+00 0. -1.
         11    1    3    3    0    0  0.62229621469E+01  0.12655001576E+02 -0.97110966142E+01  0.17122491655E+02  0.51100000000E-03 0. -1.
        -11    1    3    3    0    0  0.68122102480E+01  0.24592941066E+02 -0.75336665549E+01  0.26607801314E+02  0.51100000000E-03 0.  1.
         12    1    3    3    0    0  0.36783899618E+01 -0.15007582825E+01 -0.82231579654E+00  0.40569731824E+01  0.00000000000E+00 0. -1.
</event>
<event>
 7    1  0.2486105E-010  0.4778728E+02  0.7816164E-02  0.1312668E+00
        -11   -1    0    0    0    0  0.00000000000E+00  0.00000000000E+00  0.45593999997E+02  0.45594000000E+02  0.51100000000E-03 0. -1.
         11   -1    0    0    0    0 -0.00000000000E+00 -0.00000000000E+00 -0.45593999997E+02  0.45594000000E+02  0.51100000000E-03 0.  1.
    9900012    2    1    2    0    0  0.30883822291E+02  0.15408945609E+02 -0.26313050531E+02  0.47787277514E+02  0.20000029497E+02 0.  0.
         12    1    1    2    0    0 -0.30883822291E+02 -0.15408945609E+02  0.26313050531E+02  0.43400722486E+02  0.00000000000E+00 0. -1.
         11    1    3    3    0    0  0.19954114134E+01 -0.56969711178E-01 -0.71950551141E+01  0.74668420776E+01  0.51100000000E-03 0. -1.
        -11    1    3    3    0    0  0.21818686900E+02  0.12760106940E+02 -0.20599517140E+02  0.32606985966E+02  0.51100000000E-03 0.  1.
        -12    1    3    3    0    0  0.70697239775E+01  0.27058083803E+01  0.14815217228E+01  0.77134494698E+01  0.00000000000E+00 0.  1.
</event>
<event>
 7    1  0.2486105E-010  0.4778725E+02  0.7816164E-02  0.1312668E+00
        -11   -1    0    0    0    0  0.00000000000E+00  0.00000000000E+00  0.45593999997E+02  0.45594000000E+02  0.51100000000E-03 0.  1.
         11   -1    0    0    0    0 -0.00000000000E+00 -0.00000000000E+00 -0.45593999997E+02  0.45594000000E+02  0.51100000000E-03 0. -1.
    9900012    2    1    2    0    0  0.22570722995E+02  0.21464125619E+02  0.30223813777E+02  0.47787249495E+02  0.19999901749E+02 0.  0.
         12    1    1    2    0    0 -0.22570722995E+02 -0.21464125619E+02 -0.30223813777E+02  0.43400750505E+02  0.00000000000E+00 0. -1.
         11    1    3    3    0    0  0.11731480438E+02  0.60005711946E+01  0.11731733280E+02  0.17642790424E+02  0.51100000000E-03 0. -1.
        -11    1    3    3    0    0  0.13767426587E+02  0.83247739760E+01  0.12656464553E+02  0.20470222075E+02  0.51100000000E-03 0.  1.
         12    1    3    3    0    0 -0.29281840297E+01  0.71387804487E+01  0.58356159449E+01  0.96742369964E+01  0.00000000000E+00 0. -1.
</event>
<event>
 7    1  0.2486105E-010  0.4778727E+02  0.7816164E-02  0.1312668E+00
        -11   -1    0    0    0    0  0.00000000000E+00  0.00000000000E+00  0.45593999997E+02  0.45594000000E+02  0.51100000000E-03 0.  1.
         11   -1    0    0    0    0 -0.00000000000E+00 -0.00000000000E+00 -0.45593999997E+02  0.45594000000E+02  0.51100000000E-03 0. -1.
    9900012    2    1    2    0    0  0.90993880692E+01 -0.35211793175E+02  0.23684467068E+02  0.47787271641E+02  0.20000002719E+02 0.  0.
         12    1    1    2    0    0 -0.90993880692E+01  0.35211793175E+02 -0.23684467068E+02  0.43400728359E+02  0.00000000000E+00 0. -1.
         11    1    3    3    0    0 -0.12893950920E+00 -0.15333976649E+02  0.32503976369E+01  0.15675220902E+02  0.51100000000E-03 0. -1.
        -11    1    3    3    0    0  0.76782983185E+01 -0.20908329568E+02  0.20468805804E+02  0.30250397051E+02  0.51100000000E-03 0.  1.
         12    1    3    3    0    0  0.15500292599E+01  0.10305130428E+01 -0.34736373453E-01  0.18616536879E+01  0.00000000000E+00 0. -1.
</event>
<event>
 7    1  0.2486105E-010  0.4778724E+02  0.7816164E-02  0.1312668E+00
        -11   -1    0    0    0    0  0.00000000000E+00  0.00000000000E+00  0.45593999997E+02  0.45594000000E+02  0.51100000000E-03 0. -1.
         11   -1    0    0    0    0 -0.00000000000E+00 -0.00000000000E+00 -0.45593999997E+02  0.45594000000E+02  0.51100000000E-03 0.  1.
    9900012    2    1    2    0    0  0.39061130467E+02  0.98530103555E+01 -0.16148450753E+02  0.47787237471E+02  0.19999846924E+02 0.  0.
         12    1    1    2    0    0 -0.39061130467E+02 -0.98530103555E+01  0.16148450753E+02  0.43400762529E+02  0.00000000000E+00 0. -1.
         11    1    3    3    0    0  0.92284094018E+01  0.88687075457E+00  0.19016202069E+01  0.94639441828E+01  0.51100000000E-03 0. -1.
        -11    1    3    3    0    0  0.75369626549E+01  0.39117161719E+01  0.10194667707E+01  0.85525810273E+01  0.51100000000E-03 0.  1.
        -12    1    3    3    0    0  0.22295758410E+02  0.50544234290E+01 -0.19069537730E+02  0.29770712261E+02  0.00000000000E+00 0.  1.
</event>
<event>
 7    1  0.2486105E-010  0.4778727E+02  0.7816164E-02  0.1312668E+00
        -11   -1    0    0    0    0  0.00000000000E+00  0.00000000000E+00  0.45593999997E+02  0.45594000000E+02  0.51100000000E-03 0. -1.
         11   -1    0    0    0    0 -0.00000000000E+00 -0.00000000000E+00 -0.45593999997E+02  0.45594000000E+02  0.51100000000E-03 0.  1.
    9900012    2    1    2    0    0 -0.37536576701E+02 -0.17441285281E+02 -0.13054899832E+02  0.47787269219E+02  0.19999991677E+02 0.  0.
         12    1    1    2    0    0  0.37536576701E+02  0.17441285281E+02  0.13054899832E+02  0.43400730781E+02  0.00000000000E+00 0. -1.
         11    1    3    3    0    0 -0.48125077387E+01  0.39192828501E+01 -0.37810981821E+01  0.72675795502E+01  0.51100000000E-03 0. -1.
        -11    1    3    3    0    0 -0.32075663377E+01 -0.35026108831E+01  0.16908353240E+00  0.47524051081E+01  0.51100000000E-03 0.  1.
        -12    1    3    3    0    0 -0.29516502625E+02 -0.17857957248E+02 -0.94428851820E+01  0.35767284561E+02  0.00000000000E+00 0.  1.
</event>
<event>
 7    1  0.2486105E-010  0.4778726E+02  0.7816164E-02  0.1312668E+00
        -11   -1    0    0    0    0  0.00000000000E+00  0.00000000000E+00  0.45593999997E+02  0.45594000000E+02  0.51100000000E-03 0. -1.
         11   -1    0    0    0    0 -0.00000000000E+00 -0.00000000000E+00 -0.45593999997E+02  0.45594000000E+02  0.51100000000E-03 0.  1.
    9900012    2    1    2    0    0  0.36438333989E+02  0.54526201193E+01 -0.22937758679E+02  0.47787262411E+02  0.19999960636E+02 0.  0.
         12    1    1    2    0    0 -0.36438333989E+02 -0.54526201193E+01  0.22937758679E+02  0.43400737589E+02  0.00000000000E+00 0. -1.
         11    1    3    3    0    0  0.21570514446E+02  0.14110731971E+01 -0.11065824554E+02  0.24284371401E+02  0.51100000000E-03 0. -1.
        -11    1    3    3    0    0  0.17221465486E+02  0.45233443261E+01 -0.11087972476E+02  0.20975763425E+02  0.51100000000E-03 0.  1.
         12    1    3    3    0    0 -0.23536459428E+01 -0.48179740386E+00 -0.78396164946E+00  0.25271275849E+01  0.00000000000E+00 0. -1.
</event>
<event>
 7    1  0.2486105E-010  0.4778727E+02  0.7816164E-02  0.1312668E+00
        -11   -1    0    0    0    0  0.00000000000E+00  0.00000000000E+00  0.45593999997E+02  0.45594000000E+02  0.51100000000E-03 0. -1.
         11   -1    0    0    0    0 -0.00000000000E+00 -0.00000000000E+00 -0.45593999997E+02  0.45594000000E+02  0.51100000000E-03 0.  1.
    9900012    2    1    2    0    0 -0.41369693547E+02 -0.12595007715E+02 -0.36793576124E+01  0.47787269177E+02  0.19999991484E+02 0.  0.
         12    1    1    2    0    0  0.41369693547E+02  0.12595007715E+02  0.36793576124E+01  0.43400730823E+02  0.00000000000E+00 0. -1.
         11    1    3    3    0    0 -0.11365420591E+02 -0.37339030749E+01  0.48376115035E+01  0.12904158349E+02  0.51100000000E-03 0. -1.
        -11    1    3    3    0    0 -0.80801059076E+01 -0.78987696719E+01  0.11798948111E+00  0.11300114848E+02  0.51100000000E-03 0.  1.
        -12    1    3    3    0    0 -0.21924167049E+02 -0.96233496823E+00 -0.86349585970E+01  0.23582995979E+02  0.00000000000E+00 0.  1.
</event>
<event>
 7    1  0.2486105E-010  0.4778727E+02  0.7816164E-02  0.1312668E+00
        -11   -1    0    0    0    0  0.00000000000E+00  0.00000000000E+00  0.45593999997E+02  0.45594000000E+02  0.51100000000E-03 0. -1.
         11   -1    0    0    0    0 -0.00000000000E+00 -0.00000000000E+00 -0.45593999997E+02  0.45594000000E+02  0.51100000000E-03 0.  1.
    9900012    2    1    2    0    0 -0.33812694303E+02  0.14024640268E+02 -0.23315973394E+02  0.47787269062E+02  0.19999990959E+02 0.  0.
         12    1    1    2    0    0  0.33812694303E+02 -0.14024640268E+02  0.23315973394E+02  0.43400730938E+02  0.00000000000E+00 0. -1.
         11    1    3    3    0    0 -0.21478367311E+02  0.45684531271E+01 -0.13378764221E+02  0.25713466485E+02  0.51100000000E-03 0. -1.
        -11    1    3    3    0    0 -0.10538537205E+02  0.75958542239E+01 -0.12785386790E+02  0.18227009723E+02  0.51100000000E-03 0.  1.
        -12    1    3    3    0    0 -0.17957897869E+01  0.18603329172E+01  0.28481776169E+01  0.38467928537E+01  0.00000000000E+00 0.  1.
</event>
<event>
 7    1  0.2486105E-010  0.4778728E+02  0.7816164E-02  0.1312668E+00
        -11   -1    0    0    0    0  0.00000000000E+00  0.00000000000E+00  0.45593999997E+02  0.45594000000E+02  0.51100000000E-03 0. -1.
         11   -1    0    0    0    0 -0.00000000000E+00 -0.00000000000E+00 -0.45593999997E+02  0.45594000000E+02  0.51100000000E-03 0.  1.
    9900012    2    1    2    0    0  0.61118230191E+01 -0.41708284084E+02 -0.10328963001E+02  0.47787276290E+02  0.20000023918E+02 0.  0.
         12    1    1    2    0    0 -0.61118230191E+01  0.41708284084E+02  0.10328963001E+02  0.43400723710E+02  0.00000000000E+00 0. -1.
         11    1    3    3    0    0  0.21020613452E+01 -0.27871168616E+01  0.16539631792E+01  0.38629362871E+01  0.51100000000E-03 0. -1.
        -11    1    3    3    0    0  0.78151964501E+01 -0.20269364682E+02 -0.57438145758E+00  0.21731414001E+02  0.51100000000E-03 0.  1.
        -12    1    3    3    0    0 -0.38054347762E+01 -0.18651802540E+02 -0.11408544723E+02  0.22192926002E+02  0.00000000000E+00 0.  1.
</event>
<event>
 7    1  0.2486105E-010  0.4778727E+02  0.7816164E-02  0.1312668E+00
        -11   -1    0    0    0    0  0.00000000000E+00  0.00000000000E+00  0.45593999997E+02  0.45594000000E+02  0.51100000000E-03 0.  1.
         11   -1    0    0    0    0 -0.00000000000E+00 -0.00000000000E+00 -0.45593999997E+02  0.45594000000E+02  0.51100000000E-03 0. -1.
    9900012    2    1    2    0    0  0.29452209769E+02 -0.30639429192E+02 -0.87986378280E+01  0.47787270638E+02  0.19999998149E+02 0.  0.
         12    1    1    2    0    0 -0.29452209769E+02  0.30639429192E+02  0.87986378280E+01  0.43400729362E+02  0.00000000000E+00 0. -1.
         11    1    3    3    0    0  0.11012384693E+02 -0.11466478670E+02 -0.10320485392E+02  0.18954291565E+02  0.51100000000E-03 0.  1.
        -11    1    3    3    0    0 -0.36269043716E+00 -0.54535684020E+01 -0.38624358099E+00  0.54792460278E+01  0.51100000000E-03 0. -1.
        -12    1    3    3    0    0  0.18802515513E+02 -0.13719382120E+02  0.19080911452E+01  0.23353733046E+02  0.00000000000E+00 0.  1.
</event>
<event>
 7    1  0.2486105E-010  0.4778727E+02  0.7816164E-02  0.1312668E+00
        -11   -1    0    0    0    0  0.00000000000E+00  0.00000000000E+00  0.45593999997E+02  0.45594000000E+02  0.51100000000E-03 0.  1.
         11   -1    0    0    0    0 -0.00000000000E+00 -0.00000000000E+00 -0.45593999997E+02  0.45594000000E+02  0.51100000000E-03 0. -1.
    9900012    2    1    2    0    0  0.25667430569E+02  0.27421682538E+02  0.21745286769E+02  0.47787272335E+02  0.20000005883E+02 0.  0.
         12    1    1    2    0    0 -0.25667430569E+02 -0.27421682538E+02 -0.21745286769E+02  0.43400727665E+02  0.00000000000E+00 0. -1.
         11    1    3    3    0    0  0.22887717184E+01  0.57125468418E+01  0.55216827606E+00  0.61787181086E+01  0.51100000000E-03 0. -1.
        -11    1    3    3    0    0  0.25774979757E+02  0.20537516492E+02  0.20634025572E+02  0.38883186298E+02  0.51100000000E-03 0.  1.
        -12    1    3    3    0    0 -0.23963209069E+01  0.11716192040E+01  0.55909292136E+00  0.27253679279E+01  0.00000000000E+00 0.  1.
</event>
<event>
 7    1  0.3486300E-010  0.4778727E+02  0.7816164E-02  0.1312668E+00
        -11   -1    0    0    0    0  0.00000000000E+00  0.00000000000E+00  0.45593999997E+02  0.45594000000E+02  0.51100000000E-03 0. -1.
         11   -1    0    0    0    0 -0.00000000000E+00 -0.00000000000E+00 -0.45593999997E+02  0.45594000000E+02  0.51100000000E-03 0.  1.
    9900012    2    1    2    0    0  0.15679567878E+02 -0.11369115280E+01 -0.40453452264E+02  0.47787271703E+02  0.20000003002E+02 0.  0.
         12    1    1    2    0    0 -0.15679567878E+02  0.11369115280E+01  0.40453452264E+02  0.43400728297E+02  0.00000000000E+00 0. -1.
         11    1    3    3    0    0  0.11079520640E+02  0.59236181319E+01 -0.14758729226E+02  0.19382082397E+02  0.51100000000E-03 0. -1.
        -11    1    3    3    0    0  0.17422202499E+01  0.57514029624E+00 -0.14169431325E+02  0.14287718576E+02  0.51100000000E-03 0.  1.
         12    1    3    3    0    0  0.28578269875E+01 -0.76356699562E+01 -0.11525291712E+02  0.14117470730E+02  0.00000000000E+00 0. -1.
</event>
<event>
 7    1  0.2486105E-010  0.4778727E+02  0.7816164E-02  0.1312668E+00
        -11   -1    0    0    0    0  0.00000000000E+00  0.00000000000E+00  0.45593999997E+02  0.45594000000E+02  0.51100000000E-03 0. -1.
         11   -1    0    0    0    0 -0.00000000000E+00 -0.00000000000E+00 -0.45593999997E+02  0.45594000000E+02  0.51100000000E-03 0.  1.
    9900012    2    1    2    0    0 -0.26602042335E+02 -0.31509450679E+02 -0.13531795987E+02  0.47787266814E+02  0.19999980711E+02 0.  0.
         12    1    1    2    0    0  0.26602042335E+02  0.31509450679E+02  0.13531795987E+02  0.43400733186E+02  0.00000000000E+00 0. -1.
         11    1    3    3    0    0 -0.11923587908E+01 -0.45798847225E+01  0.48595152450E+00  0.47574376195E+01  0.51100000000E-03 0. -1.
        -11    1    3    3    0    0  0.15900248330E+01 -0.66155046346E+01 -0.12975521148E+01  0.69265231027E+01  0.51100000000E-03 0.  1.
        -12    1    3    3    0    0 -0.26999708377E+02 -0.20314061321E+02 -0.12720195397E+02  0.36103306092E+02  0.00000000000E+00 0.  1.
</event>
<event>
 7    1  0.2486105E-010  0.4778727E+02  0.7816164E-02  0.1312668E+00
        -11   -1    0    0    0    0  0.00000000000E+00  0.00000000000E+00  0.45593999997E+02  0.45594000000E+02  0.51100000000E-03 0.  1.
         11   -1    0    0    0    0 -0.00000000000E+00 -0.00000000000E+00 -0.45593999997E+02  0.45594000000E+02  0.51100000000E-03 0. -1.
    9900012    2    1    2    0    0 -0.13469710989E+02  0.32205435188E+01  0.41131716812E+02  0.47787272557E+02  0.20000006895E+02 0.  0.
         12    1    1    2    0    0  0.13469710989E+02 -0.32205435188E+01 -0.41131716812E+02  0.43400727443E+02  0.00000000000E+00 0. -1.
         11    1    3    3    0    0 -0.38357819663E+01  0.65386840500E+01  0.24476325899E+02  0.25623390529E+02  0.51100000000E-03 0. -1.
        -11    1    3    3    0    0 -0.46943438195E+01  0.37305129292E+01  0.62749812135E+01  0.86792269300E+01  0.51100000000E-03 0.  1.
        -12    1    3    3    0    0 -0.49395852035E+01 -0.70486534603E+01  0.10380409699E+02  0.13484655098E+02  0.00000000000E+00 0.  1.
</event>
<event>
 7    1  0.2486105E-010  0.4778723E+02  0.7816164E-02  0.1312668E+00
        -11   -1    0    0    0    0  0.00000000000E+00  0.00000000000E+00  0.45593999997E+02  0.45594000000E+02  0.51100000000E-03 0. -1.
         11   -1    0    0    0    0 -0.00000000000E+00 -0.00000000000E+00 -0.45593999997E+02  0.45594000000E+02  0.51100000000E-03 0.  1.
    9900012    2    1    2    0    0  0.32010222883E+02  0.85043011306E+01 -0.28047263066E+02  0.47787234198E+02  0.19999832002E+02 0.  0.
         12    1    1    2    0    0 -0.32010222883E+02 -0.85043011306E+01  0.28047263066E+02  0.43400765802E+02  0.00000000000E+00 0. -1.
         11    1    3    3    0    0  0.40299674113E+01  0.20717452309E+01 -0.40930263853E+00  0.45497576363E+01  0.51100000000E-03 0. -1.
        -11    1    3    3    0    0  0.10135030184E+02 -0.14606473250E+01 -0.19639915981E+02  0.22149009627E+02  0.51100000000E-03 0.  1.
        -12    1    3    3    0    0  0.17845225288E+02  0.78932032246E+01 -0.79980444455E+01  0.21088466935E+02  0.00000000000E+00 0.  1.
</event>
<event>
 7    1  0.2486105E-010  0.4778727E+02  0.7816164E-02  0.1312668E+00
        -11   -1    0    0    0    0  0.00000000000E+00  0.00000000000E+00  0.45593999997E+02  0.45594000000E+02  0.51100000000E-03 0. -1.
         11   -1    0    0    0    0 -0.00000000000E+00 -0.00000000000E+00 -0.45593999997E+02  0.45594000000E+02  0.51100000000E-03 0.  1.
    9900012    2    1    2    0    0 -0.12808598150E+02 -0.11108731681E+01 -0.41452731748E+02  0.47787271952E+02  0.20000004136E+02 0.  0.
         12    1    1    2    0    0  0.12808598150E+02  0.11108731681E+01  0.41452731748E+02  0.43400728048E+02  0.00000000000E+00 0. -1.
         11    1    3    3    0    0 -0.53573538073E+01 -0.55270176644E+01 -0.12766721096E+02  0.14907660175E+02  0.51100000000E-03 0. -1.
        -11    1    3    3    0    0 -0.52184505295E+01 -0.61023116672E+00 -0.26409585529E+02  0.26927139025E+02  0.51100000000E-03 0.  1.
         12    1    3    3    0    0 -0.22327938130E+01  0.50263756631E+01 -0.22764251226E+01  0.59524727514E+01  0.00000000000E+00 0. -1.
</event>
<event>
 7    1  0.2486105E-010  0.4778727E+02  0.7816164E-02  0.1312668E+00
        -11   -1    0    0    0    0  0.00000000000E+00  0.00000000000E+00  0.45593999997E+02  0.45594000000E+02  0.51100000000E-03 0.  1.
         11   -1    0    0    0    0 -0.00000000000E+00 -0.00000000000E+00 -0.45593999997E+02  0.45594000000E+02  0.51100000000E-03 0. -1.
    9900012    2    1    2    0    0  0.14724484560E+02  0.24380839715E+01  0.40753754648E+02  0.47787271701E+02  0.20000002993E+02 0.  0.
         12    1    1    2    0    0 -0.14724484560E+02 -0.24380839715E+01 -0.40753754648E+02  0.43400728299E+02  0.00000000000E+00 0. -1.
         11    1    3    3    0    0  0.11096925869E+02 -0.59016846926E+00  0.27412408695E+02  0.29579219282E+02  0.51100000000E-03 0.  1.
        -11    1    3    3    0    0 -0.31775959542E+00 -0.19501848825E+01  0.11394014803E+02  0.11564072199E+02  0.51100000000E-03 0. -1.
         12    1    3    3    0    0  0.39453182861E+01  0.49784373233E+01  0.19473311495E+01  0.66439802202E+01  0.00000000000E+00 0. -1.
</event>
<event>
 7    1  0.2486105E-010  0.4778727E+02  0.7816164E-02  0.1312668E+00
        -11   -1    0    0    0    0  0.00000000000E+00  0.00000000000E+00  0.45593999997E+02  0.45594000000E+02  0.51100000000E-03 0. -1.
         11   -1    0    0    0    0 -0.00000000000E+00 -0.00000000000E+00 -0.45593999997E+02  0.45594000000E+02  0.51100000000E-03 0.  1.
    9900012    2    1    2    0    0  0.36661190238E+02  0.19539190962E+02 -0.12561855430E+02  0.47787273451E+02  0.20000010974E+02 0.  0.
         12    1    1    2    0    0 -0.36661190238E+02 -0.19539190962E+02  0.12561855430E+02  0.43400726549E+02  0.00000000000E+00 0. -1.
         11    1    3    3    0    0  0.89573178181E+01  0.69013037503E+01  0.17737319694E+01  0.11445857823E+02  0.51100000000E-03 0. -1.
        -11    1    3    3    0    0  0.14415090053E+02  0.13798616239E+02 -0.72047438604E+01  0.21215677357E+02  0.51100000000E-03 0.  1.
        -12    1    3    3    0    0  0.13288782367E+02 -0.11607290278E+01 -0.71308435395E+01  0.15125738271E+02  0.00000000000E+00 0.  1.
</event>
<event>
 7    1  0.2486105E-010  0.4778727E+02  0.7816164E-02  0.1312668E+00
        -11   -1    0    0    0    0  0.00000000000E+00  0.00000000000E+00  0.45593999997E+02  0.45594000000E+02  0.51100000000E-03 0.  1.
         11   -1    0    0    0    0 -0.00000000000E+00 -0.00000000000E+00 -0.45593999997E+02  0.45594000000E+02  0.51100000000E-03 0. -1.
    9900012    2    1    2    0    0 -0.26424703526E+02 -0.25509942215E+02  0.23121437062E+02  0.47787274661E+02  0.20000016487E+02 0.  0.
         12    1    1    2    0    0  0.26424703526E+02  0.25509942215E+02 -0.23121437062E+02  0.43400725339E+02  0.00000000000E+00 0. -1.
         11    1    3    3    0    0 -0.93926011115E+01 -0.50507828974E+00  0.38953047363E-01  0.94062520336E+01  0.51100000000E-03 0. -1.
        -11    1    3    3    0    0 -0.56208636226E+01 -0.10082353605E+02  0.11596021444E+02  0.16362019303E+02  0.51100000000E-03 0.  1.
         12    1    3    3    0    0 -0.11411238791E+02 -0.14922510320E+02  0.11486462570E+02  0.22019003324E+02  0.00000000000E+00 0. -1.
</event>
<event>
 7    1  0.2486105E-010  0.4778729E+02  0.7816164E-02  0.1312668E+00
        -11   -1    0    0    0    0  0.00000000000E+00  0.00000000000E+00  0.45593999997E+02  0.45594000000E+02  0.51100000000E-03 0.  1.
         11   -1    0    0    0    0 -0.00000000000E+00 -0.00000000000E+00 -0.45593999997E+02  0.45594000000E+02  0.51100000000E-03 0. -1.
    9900012    2    1    2    0    0  0.38361174040E+02  0.10661427622E+02  0.17273564081E+02  0.47787288845E+02  0.20000081160E+02 0.  0.
         12    1    1    2    0    0 -0.38361174040E+02 -0.10661427622E+02 -0.17273564081E+02  0.43400711155E+02  0.00000000000E+00 0. -1.
         11    1    3    3    0    0  0.13765932216E+02  0.90921686133E+00 -0.10453808535E+01  0.13835475650E+02  0.51100000000E-03 0. -1.
        -11    1    3    3    0    0  0.12729872355E+02  0.88663091520E+01  0.54936841385E+01  0.16457267508E+02  0.51100000000E-03 0.  1.
        -12    1    3    3    0    0  0.11865369469E+02  0.88590160896E+00  0.12825260796E+02  0.17494545687E+02  0.00000000000E+00 0.  1.
</event>
<event>
 7    1  0.2486105E-010  0.4778727E+02  0.7816164E-02  0.1312668E+00
        -11   -1    0    0    0    0  0.00000000000E+00  0.00000000000E+00  0.45593999997E+02  0.45594000000E+02  0.51100000000E-03 0.  1.
         11   -1    0    0    0    0 -0.00000000000E+00 -0.00000000000E+00 -0.45593999997E+02  0.45594000000E+02  0.51100000000E-03 0. -1.
    9900012    2    1    2    0    0  0.41534426690E+02 -0.35981381830E+01 -0.12065160258E+02  0.47787270848E+02  0.19999999106E+02 0.  0.
         12    1    1    2    0    0 -0.41534426690E+02  0.35981381830E+01  0.12065160258E+02  0.43400729152E+02  0.00000000000E+00 0. -1.
         11    1    3    3    0    0  0.31903345664E+01  0.27496010446E+00  0.38894504786E+01  0.50380217339E+01  0.51100000000E-03 0. -1.
        -11    1    3    3    0    0 -0.15157633997E+00 -0.30545903819E+00 -0.13979660369E+01  0.14389544511E+01  0.51100000000E-03 0.  1.
        -12    1    3    3    0    0  0.38495668463E+02 -0.35676392493E+01 -0.14556644700E+02  0.41310294663E+02  0.00000000000E+00 0.  1.
</event>
<event>
 7    1  0.2486105E-010  0.4778727E+02  0.7816164E-02  0.1312668E+00
        -11   -1    0    0    0    0  0.00000000000E+00  0.00000000000E+00  0.45593999997E+02  0.45594000000E+02  0.51100000000E-03 0.  1.
         11   -1    0    0    0    0 -0.00000000000E+00 -0.00000000000E+00 -0.45593999997E+02  0.45594000000E+02  0.51100000000E-03 0. -1.
    9900012    2    1    2    0    0 -0.18492308893E+02  0.14105667032E+02  0.36642705144E+02  0.47787272232E+02  0.20000005412E+02 0.  0.
         12    1    1    2    0    0  0.18492308893E+02 -0.14105667032E+02 -0.36642705144E+02  0.43400727768E+02  0.00000000000E+00 0. -1.
         11    1    3    3    0    0 -0.82248039051E+01  0.59398153552E+01  0.67342865209E+01  0.12177003775E+02  0.51100000000E-03 0. -1.
        -11    1    3    3    0    0 -0.11948676825E+02  0.10302257661E+01  0.18202167666E+02  0.21797962083E+02  0.51100000000E-03 0.  1.
         12    1    3    3    0    0  0.16811718371E+01  0.71356259103E+01  0.11706250957E+02  0.13812306373E+02  0.00000000000E+00 0. -1.
</event>
<event>
 7    1  0.2486105E-010  0.4778728E+02  0.7816164E-02  0.1312668E+00
        -11   -1    0    0    0    0  0.00000000000E+00  0.00000000000E+00  0.45593999997E+02  0.45594000000E+02  0.51100000000E-03 0.  1.
         11   -1    0    0    0    0 -0.00000000000E+00 -0.00000000000E+00 -0.45593999997E+02  0.45594000000E+02  0.51100000000E-03 0. -1.
    9900012    2    1    2    0    0 -0.17663979612E+02  0.90700745412E+01  0.38591974517E+02  0.47787275063E+02  0.20000018323E+02 0.  0.
         12    1    1    2    0    0  0.17663979612E+02 -0.90700745412E+01 -0.38591974517E+02  0.43400724937E+02  0.00000000000E+00 0. -1.
         11    1    3    3    0    0 -0.86789380213E+01  0.33566874758E+01  0.22824326841E+02  0.24648351101E+02  0.51100000000E-03 0. -1.
        -11    1    3    3    0    0 -0.10593816771E+02  0.25964993248E+01  0.16277913793E+02  0.19594418599E+02  0.51100000000E-03 0.  1.
         12    1    3    3    0    0  0.16087751794E+01  0.31168877406E+01 -0.51026611663E+00  0.35445053639E+01  0.00000000000E+00 0. -1.
</event>
<event>
 7    1  0.2486105E-010  0.4778727E+02  0.7816164E-02  0.1312668E+00
        -11   -1    0    0    0    0  0.00000000000E+00  0.00000000000E+00  0.45593999997E+02  0.45594000000E+02  0.51100000000E-03 0.  1.
         11   -1    0    0    0    0 -0.00000000000E+00 -0.00000000000E+00 -0.45593999997E+02  0.45594000000E+02  0.51100000000E-03 0. -1.
    9900012    2    1    2    0    0 -0.15701232905E+02  0.84245251748E+00  0.40452257080E+02  0.47787267934E+02  0.19999985819E+02 0.  0.
         12    1    1    2    0    0  0.15701232905E+02 -0.84245251748E+00 -0.40452257080E+02  0.43400732066E+02  0.00000000000E+00 0. -1.
         11    1    3    3    0    0 -0.13123287628E+02  0.35389409617E+01  0.20691765838E+02  0.24756695156E+02  0.51100000000E-03 0. -1.
        -11    1    3    3    0    0 -0.53344948598E+01 -0.50580077059E+01  0.87011547826E+01  0.11390802087E+02  0.51100000000E-03 0.  1.
         12    1    3    3    0    0  0.27565495827E+01  0.23615192616E+01  0.11059336460E+02  0.11639770692E+02  0.00000000000E+00 0. -1.
</event>
<event>
 7    1  0.2486105E-010  0.4778727E+02  0.7816164E-02  0.1312668E+00
        -11   -1    0    0    0    0  0.00000000000E+00  0.00000000000E+00  0.45593999997E+02  0.45594000000E+02  0.51100000000E-03 0.  1.
         11   -1    0    0    0    0 -0.00000000000E+00 -0.00000000000E+00 -0.45593999997E+02  0.45594000000E+02  0.51100000000E-03 0. -1.
    9900012    2    1    2    0    0 -0.41915195077E+02 -0.10491120244E+02 -0.40836165161E+01  0.47787272977E+02  0.20000008810E+02 0.  0.
         12    1    1    2    0    0  0.41915195077E+02  0.10491120244E+02  0.40836165161E+01  0.43400727023E+02  0.00000000000E+00 0. -1.
         11    1    3    3    0    0 -0.84923238538E+01 -0.44107704641E+01 -0.43391163552E+01  0.10507254234E+02  0.51100000000E-03 0. -1.
        -11    1    3    3    0    0 -0.66100632635E+01  0.36327252320E+01 -0.38496927531E+01  0.84681617552E+01  0.51100000000E-03 0.  1.
        -12    1    3    3    0    0 -0.26812807960E+02 -0.97130750119E+01  0.41051925922E+01  0.28811856988E+02  0.00000000000E+00 0.  1.
</event>
<event>
 7    1  0.2486105E-010  0.4778728E+02  0.7816164E-02  0.1312668E+00
        -11   -1    0    0    0    0  0.00000000000E+00  0.00000000000E+00  0.45593999997E+02  0.45594000000E+02  0.51100000000E-03 0.  1.
         11   -1    0    0    0    0 -0.00000000000E+00 -0.00000000000E+00 -0.45593999997E+02  0.45594000000E+02  0.51100000000E-03 0. -1.
    9900012    2    1    2    0    0 -0.18623830279E+02 -0.30518198251E+01  0.39082759872E+02  0.47787276760E+02  0.20000026062E+02 0.  0.
         12    1    1    2    0    0  0.18623830279E+02  0.30518198251E+01 -0.39082759872E+02  0.43400723240E+02  0.00000000000E+00 0. -1.
         11    1    3    3    0    0 -0.43300347002E+01 -0.41689003314E+01  0.12995259531E+02  0.14318020150E+02  0.51100000000E-03 0. -1.
        -11    1    3    3    0    0 -0.10537063213E+01 -0.21090272425E+01  0.16831007111E+02  0.16995325638E+02  0.51100000000E-03 0.  1.
        -12    1    3    3    0    0 -0.13240089257E+02  0.32261077487E+01  0.92564932296E+01  0.16473930972E+02  0.00000000000E+00 0.  1.
</event>
<event>
 7    1  0.2486105E-010  0.4778727E+02  0.7816164E-02  0.1312668E+00
        -11   -1    0    0    0    0  0.00000000000E+00  0.00000000000E+00  0.45593999997E+02  0.45594000000E+02  0.51100000000E-03 0.  1.
         11   -1    0    0    0    0 -0.00000000000E+00 -0.00000000000E+00 -0.45593999997E+02  0.45594000000E+02  0.51100000000E-03 0. -1.
    9900012    2    1    2    0    0  0.40753147727E+02  0.97279800196E+01  0.11321246692E+02  0.47787271071E+02  0.20000000120E+02 0.  0.
         12    1    1    2    0    0 -0.40753147727E+02 -0.97279800196E+01 -0.11321246692E+02  0.43400728929E+02  0.00000000000E+00 0. -1.
         11    1    3    3    0    0  0.42975001988E+00  0.39264893150E+01  0.49009976841E+00  0.39802263082E+01  0.51100000000E-03 0. -1.
        -11    1    3    3    0    0  0.18684809824E+01  0.23403490354E+01 -0.13997960970E+01  0.33057350413E+01  0.51100000000E-03 0.  1.
        -12    1    3    3    0    0  0.38454916725E+02  0.34611416693E+01  0.12230943021E+02  0.40501309721E+02  0.00000000000E+00 0.  1.
</event>
<event>
 7    1  0.2486105E-010  0.4778727E+02  0.7816164E-02  0.1312668E+00
        -11   -1    0    0    0    0  0.00000000000E+00  0.00000000000E+00  0.45593999997E+02  0.45594000000E+02  0.51100000000E-03 0.  1.
         11   -1    0    0    0    0 -0.00000000000E+00 -0.00000000000E+00 -0.45593999997E+02  0.45594000000E+02  0.51100000000E-03 0. -1.
    9900012    2    1    2    0    0 -0.18304802181E+02 -0.36897408180E+02  0.13679865937E+02  0.47787271374E+02  0.20000001501E+02 0.  0.
         12    1    1    2    0    0  0.18304802181E+02  0.36897408180E+02 -0.13679865937E+02  0.43400728626E+02  0.00000000000E+00 0. -1.
         11    1    3    3    0    0 -0.14353417039E+02 -0.18631903188E+02  0.49433903171E+01  0.24033424749E+02  0.51100000000E-03 0. -1.
        -11    1    3    3    0    0 -0.61776184573E+01 -0.17110905816E+02  0.43558039884E+01  0.18706124566E+02  0.51100000000E-03 0.  1.
        -12    1    3    3    0    0  0.22262333156E+01 -0.11545991761E+01  0.43806716315E+01  0.50477220581E+01  0.00000000000E+00 0.  1.
</event>
<event>
 7    1  0.2486105E-010  0.4778727E+02  0.7816164E-02  0.1312668E+00
        -11   -1    0    0    0    0  0.00000000000E+00  0.00000000000E+00  0.45593999997E+02  0.45594000000E+02  0.51100000000E-03 0.  1.
         11   -1    0    0    0    0 -0.00000000000E+00 -0.00000000000E+00 -0.45593999997E+02  0.45594000000E+02  0.51100000000E-03 0. -1.
    9900012    2    1    2    0    0 -0.13748952217E+02  0.14808960803E+02  0.38409429829E+02  0.47787270664E+02  0.19999998264E+02 0.  0.
         12    1    1    2    0    0  0.13748952217E+02 -0.14808960803E+02 -0.38409429829E+02  0.43400729336E+02  0.00000000000E+00 0. -1.
         11    1    3    3    0    0  0.78684138711E+00  0.13831972416E+01  0.26909908280E+01  0.31263054674E+01  0.51100000000E-03 0. -1.
        -11    1    3    3    0    0 -0.18006751018E+02  0.96540707603E+01  0.33117997200E+02  0.38913312674E+02  0.51100000000E-03 0.  1.
        -12    1    3    3    0    0  0.34709574139E+01  0.37716928012E+01  0.26004418010E+01  0.57476525222E+01  0.00000000000E+00 0.  1.
</event>
<event>
 7    1  0.2486105E-010  0.4778727E+02  0.7816164E-02  0.1312668E+00
        -11   -1    0    0    0    0  0.00000000000E+00  0.00000000000E+00  0.45593999997E+02  0.45594000000E+02  0.51100000000E-03 0.  1.
         11   -1    0    0    0    0 -0.00000000000E+00 -0.00000000000E+00 -0.45593999997E+02  0.45594000000E+02  0.51100000000E-03 0. -1.
    9900012    2    1    2    0    0  0.29861525149E+02  0.12408010425E+02  0.28947432059E+02  0.47787271553E+02  0.20000002321E+02 0.  0.
         12    1    1    2    0    0 -0.29861525149E+02 -0.12408010425E+02 -0.28947432059E+02  0.43400728447E+02  0.00000000000E+00 0. -1.
         11    1    3    3    0    0 -0.79830533392E+00  0.70320264962E+00 -0.98708071017E+00  0.14512456588E+01  0.51100000000E-03 0. -1.
        -11    1    3    3    0    0  0.17387032185E+02  0.13222499866E+02  0.16364867633E+02  0.27293814020E+02  0.51100000000E-03 0.  1.
        -12    1    3    3    0    0  0.13272798298E+02 -0.15176920907E+01  0.13569645136E+02  0.19042211874E+02  0.00000000000E+00 0.  1.
</event>
<event>
 7    1  0.2486105E-010  0.4778727E+02  0.7816164E-02  0.1312668E+00
        -11   -1    0    0    0    0  0.00000000000E+00  0.00000000000E+00  0.45593999997E+02  0.45594000000E+02  0.51100000000E-03 0.  1.
         11   -1    0    0    0    0 -0.00000000000E+00 -0.00000000000E+00 -0.45593999997E+02  0.45594000000E+02  0.51100000000E-03 0. -1.
    9900012    2    1    2    0    0  0.21387616134E+02 -0.28780224951E+02  0.24451827954E+02  0.47787270024E+02  0.19999995348E+02 0.  0.
         12    1    1    2    0    0 -0.21387616134E+02  0.28780224951E+02 -0.24451827954E+02  0.43400729976E+02  0.00000000000E+00 0. -1.
         11    1    3    3    0    0  0.66811553030E+01 -0.12089709961E+02  0.13113008083E+02  0.19045994444E+02  0.51100000000E-03 0. -1.
        -11    1    3    3    0    0  0.15322070875E+02 -0.12673055963E+02  0.13600172278E+02  0.24090182432E+02  0.51100000000E-03 0.  1.
         12    1    3    3    0    0 -0.61561004419E+00 -0.40174590275E+01 -0.22613524070E+01  0.46510931482E+01  0.00000000000E+00 0. -1.
</event>
<event>
 7    1  0.2486105E-010  0.4778727E+02  0.7816164E-02  0.1312668E+00
        -11   -1    0    0    0    0  0.00000000000E+00  0.00000000000E+00  0.45593999997E+02  0.45594000000E+02  0.51100000000E-03 0. -1.
         11   -1    0    0    0    0 -0.00000000000E+00 -0.00000000000E+00 -0.45593999997E+02  0.45594000000E+02  0.51100000000E-03 0.  1.
    9900012    2    1    2    0    0  0.25560736268E+01 -0.16339060669E+02 -0.40126367162E+02  0.47787265473E+02  0.19999974596E+02 0.  0.
         12    1    1    2    0    0 -0.25560736268E+01  0.16339060669E+02  0.40126367162E+02  0.43400734527E+02  0.00000000000E+00 0. -1.
         11    1    3    3    0    0  0.35970761882E+00  0.11855479554E+01 -0.22185135313E+01  0.25410069018E+01  0.51100000000E-03 0. -1.
        -11    1    3    3    0    0 -0.64914907817E+01 -0.13764795152E+02 -0.24189368045E+02  0.28578568278E+02  0.51100000000E-03 0.  1.
        -12    1    3    3    0    0  0.86878567896E+01 -0.37598134716E+01 -0.13718485585E+02  0.16667690292E+02  0.00000000000E+00 0.  1.
</event>
<event>
 7    1  0.2486105E-010  0.4778727E+02  0.7816164E-02  0.1312668E+00
        -11   -1    0    0    0    0  0.00000000000E+00  0.00000000000E+00  0.45593999997E+02  0.45594000000E+02  0.51100000000E-03 0.  1.
         11   -1    0    0    0    0 -0.00000000000E+00 -0.00000000000E+00 -0.45593999997E+02  0.45594000000E+02  0.51100000000E-03 0. -1.
    9900012    2    1    2    0    0 -0.27161305718E+02  0.26393871792E+02  0.21195526660E+02  0.47787270203E+02  0.19999996164E+02 0.  0.
         12    1    1    2    0    0  0.27161305718E+02 -0.26393871792E+02 -0.21195526660E+02  0.43400729797E+02  0.00000000000E+00 0. -1.
         11    1    3    3    0    0 -0.99633277336E+01  0.12405076940E+02  0.11611460148E+02  0.19697203874E+02  0.51100000000E-03 0. -1.
        -11    1    3    3    0    0 -0.93745623354E+01  0.15610287363E+02  0.50179545855E+01  0.18887650966E+02  0.51100000000E-03 0.  1.
        -12    1    3    3    0    0 -0.78234156493E+01 -0.16214925110E+01  0.45661119260E+01  0.92024153625E+01  0.00000000000E+00 0.  1.
</event>
<event>
 7    1  0.2486105E-010  0.4778726E+02  0.7816164E-02  0.1312668E+00
        -11   -1    0    0    0    0  0.00000000000E+00  0.00000000000E+00  0.45593999997E+02  0.45594000000E+02  0.51100000000E-03 0.  1.
         11   -1    0    0    0    0 -0.00000000000E+00 -0.00000000000E+00 -0.45593999997E+02  0.45594000000E+02  0.51100000000E-03 0. -1.
    9900012    2    1    2    0    0 -0.26495584873E+02 -0.20749803395E+02  0.27405356072E+02  0.47787263830E+02  0.19999967107E+02 0.  0.
         12    1    1    2    0    0  0.26495584873E+02  0.20749803395E+02 -0.27405356072E+02  0.43400736170E+02  0.00000000000E+00 0. -1.
         11    1    3    3    0    0 -0.10649446079E+02 -0.41566462234E+01  0.16499958026E+01  0.11550363458E+02  0.51100000000E-03 0. -1.
        -11    1    3    3    0    0 -0.11776136134E+02 -0.13074723815E+02  0.11553498562E+02  0.21050157110E+02  0.51100000000E-03 0.  1.
         12    1    3    3    0    0 -0.40700026604E+01 -0.35184333565E+01  0.14201861707E+02  0.15186743262E+02  0.00000000000E+00 0. -1.
</event>
<event>
 7    1  0.2486105E-010  0.4778727E+02  0.7816164E-02  0.1312668E+00
        -11   -1    0    0    0    0  0.00000000000E+00  0.00000000000E+00  0.45593999997E+02  0.45594000000E+02  0.51100000000E-03 0. -1.
         11   -1    0    0    0    0 -0.00000000000E+00 -0.00000000000E+00 -0.45593999997E+02  0.45594000000E+02  0.51100000000E-03 0.  1.
    9900012    2    1    2    0    0  0.30665238634E+02  0.37191804468E+01 -0.30486622453E+02  0.47787270602E+02  0.19999997985E+02 0.  0.
         12    1    1    2    0    0 -0.30665238634E+02 -0.37191804468E+01  0.30486622453E+02  0.43400729398E+02  0.00000000000E+00 0. -1.
         11    1    3    3    0    0  0.65559600125E+01  0.33818660554E+00 -0.13308186154E+02  0.14839231814E+02  0.51100000000E-03 0. -1.
        -11    1    3    3    0    0  0.12742780430E+02  0.69531749641E+01 -0.14928783353E+02  0.20822912088E+02  0.51100000000E-03 0.  1.
         12    1    3    3    0    0  0.11366498192E+02 -0.35721811229E+01 -0.22496529453E+01  0.12125126700E+02  0.00000000000E+00 0. -1.
</event>
<event>
 7    1  0.2486105E-010  0.4778726E+02  0.7816164E-02  0.1312668E+00
        -11   -1    0    0    0    0  0.00000000000E+00  0.00000000000E+00  0.45593999997E+02  0.45594000000E+02  0.51100000000E-03 0.  1.
         11   -1    0    0    0    0 -0.00000000000E+00 -0.00000000000E+00 -0.45593999997E+02  0.45594000000E+02  0.51100000000E-03 0. -1.
    9900012    2    1    2    0    0  0.40154864028E+02 -0.10347360109E+02  0.12811825306E+02  0.47787264592E+02  0.19999970579E+02 0.  0.
         12    1    1    2    0    0 -0.40154864028E+02  0.10347360109E+02 -0.12811825306E+02  0.43400735408E+02  0.00000000000E+00 0. -1.
         11    1    3    3    0    0  0.19223993664E+01 -0.37929084236E+01  0.51884685664E+01  0.67083515083E+01  0.51100000000E-03 0. -1.
        -11    1    3    3    0    0  0.25603388595E+02 -0.96186368186E+01  0.45726098132E+01  0.27730136000E+02  0.51100000000E-03 0.  1.
         12    1    3    3    0    0  0.12629076066E+02  0.30641851332E+01  0.30507469260E+01  0.13348777084E+02  0.00000000000E+00 0. -1.
</event>
<event>
 7    1  0.2486105E-010  0.4778727E+02  0.7816164E-02  0.1312668E+00
        -11   -1    0    0    0    0  0.00000000000E+00  0.00000000000E+00  0.45593999997E+02  0.45594000000E+02  0.51100000000E-03 0.  1.
         11   -1    0    0    0    0 -0.00000000000E+00 -0.00000000000E+00 -0.45593999997E+02  0.45594000000E+02  0.51100000000E-03 0. -1.
    9900012    2    1    2    0    0  0.18435157950E+02  0.31788570731E+02  0.23092320385E+02  0.47787267996E+02  0.19999986099E+02 0.  0.
         12    1    1    2    0    0 -0.18435157950E+02 -0.31788570731E+02 -0.23092320385E+02  0.43400732004E+02  0.00000000000E+00 0. -1.
         11    1    3    3    0    0 -0.24544201205E+01  0.63571133448E+01  0.60518381254E+01  0.91138253859E+01  0.51100000000E-03 0. -1.
        -11    1    3    3    0    0  0.33174782068E+01  0.93232831948E+01  0.93793637837E+01  0.13634578704E+02  0.51100000000E-03 0.  1.
        -12    1    3    3    0    0  0.17572099864E+02  0.16108174191E+02  0.76611184761E+01  0.25038863906E+02  0.00000000000E+00 0.  1.
</event>
<event>
 7    1  0.2486105E-010  0.4778727E+02  0.7816164E-02  0.1312668E+00
        -11   -1    0    0    0    0  0.00000000000E+00  0.00000000000E+00  0.45593999997E+02  0.45594000000E+02  0.51100000000E-03 0.  1.
         11   -1    0    0    0    0 -0.00000000000E+00 -0.00000000000E+00 -0.45593999997E+02  0.45594000000E+02  0.51100000000E-03 0. -1.
    9900012    2    1    2    0    0 -0.36715967561E+02  0.15256781272E+02  0.17400906888E+02  0.47787271789E+02  0.20000003395E+02 0.  0.
         12    1    1    2    0    0  0.36715967561E+02 -0.15256781272E+02 -0.17400906888E+02  0.43400728211E+02  0.00000000000E+00 0. -1.
         11    1    3    3    0    0 -0.31254112587E+01  0.34377549022E+01 -0.33604012664E+00  0.46582483330E+01  0.51100000000E-03 0. -1.
        -11    1    3    3    0    0 -0.49725417676E+01 -0.31135980640E+01  0.69489160275E+01  0.90943993069E+01  0.51100000000E-03 0.  1.
        -12    1    3    3    0    0 -0.28618014535E+02  0.14932624434E+02  0.10788030987E+02  0.34034624149E+02  0.00000000000E+00 0.  1.
</event>
<event>
 7    1  0.2486105E-010  0.4778727E+02  0.7816164E-02  0.1312668E+00
        -11   -1    0    0    0    0  0.00000000000E+00  0.00000000000E+00  0.45593999997E+02  0.45594000000E+02  0.51100000000E-03 0.  1.
         11   -1    0    0    0    0 -0.00000000000E+00 -0.00000000000E+00 -0.45593999997E+02  0.45594000000E+02  0.51100000000E-03 0. -1.
    9900012    2    1    2    0    0 -0.29333521428E+02 -0.25221205593E+02  0.19673795979E+02  0.47787274901E+02  0.20000017582E+02 0.  0.
         12    1    1    2    0    0  0.29333521428E+02  0.25221205593E+02 -0.19673795979E+02  0.43400725099E+02  0.00000000000E+00 0. -1.
         11    1    3    3    0    0 -0.77080890435E+00 -0.32966232338E+01 -0.70965174469E+00  0.34591150562E+01  0.51100000000E-03 0. -1.
        -11    1    3    3    0    0 -0.64266870673E+01 -0.14757468729E+02  0.82669222601E+01  0.18094949402E+02  0.51100000000E-03 0.  1.
         12    1    3    3    0    0 -0.22136025456E+02 -0.71671136298E+01  0.12116525464E+02  0.26233210442E+02  0.00000000000E+00 0. -1.
</event>
<event>
 7    1  0.4124634E-010  0.4778727E+02  0.7816164E-02  0.1312668E+00
        -11   -1    0    0    0    0  0.00000000000E+00  0.00000000000E+00  0.45593999997E+02  0.45594000000E+02  0.51100000000E-03 0. -1.
         11   -1    0    0    0    0 -0.00000000000E+00 -0.00000000000E+00 -0.45593999997E+02  0.45594000000E+02  0.51100000000E-03 0.  1.
    9900012    2    1    2    0    0 -0.36606864074E+02  0.82727295297E+01 -0.21797308226E+02  0.47787271929E+02  0.20000004031E+02 0.  0.
         12    1    1    2    0    0  0.36606864074E+02 -0.82727295297E+01  0.21797308226E+02  0.43400728071E+02  0.00000000000E+00 0. -1.
         11    1    3    3    0    0 -0.10789579798E+00  0.11282201581E+01 -0.56476279889E+01  0.57602278072E+01  0.51100000000E-03 0. -1.
        -11    1    3    3    0    0 -0.12376943335E+02 -0.10286415855E+01 -0.96873673900E+01  0.15750933846E+02  0.51100000000E-03 0.  1.
        -12    1    3    3    0    0 -0.24122024941E+02  0.81731509570E+01 -0.64623128475E+01  0.26276110275E+02  0.00000000000E+00 0.  1.
</event>
<event>
 7    1  0.2486105E-010  0.4778727E+02  0.7816164E-02  0.1312668E+00
        -11   -1    0    0    0    0  0.00000000000E+00  0.00000000000E+00  0.45593999997E+02  0.45594000000E+02  0.51100000000E-03 0.  1.
         11   -1    0    0    0    0 -0.00000000000E+00 -0.00000000000E+00 -0.45593999997E+02  0.45594000000E+02  0.51100000000E-03 0. -1.
    9900012    2    1    2    0    0 -0.30503145809E+02 -0.13659318728E+02  0.27687615576E+02  0.47787274791E+02  0.20000017082E+02 0.  0.
         12    1    1    2    0    0  0.30503145809E+02  0.13659318728E+02 -0.27687615576E+02  0.43400725209E+02  0.00000000000E+00 0. -1.
         11    1    3    3    0    0 -0.68622481630E+01 -0.54028143415E-01  0.12901655070E+00  0.68636735369E+01  0.51100000000E-03 0. -1.
        -11    1    3    3    0    0  0.26879476084E+00 -0.13497445697E+01 -0.10090146525E+01  0.17065086748E+01  0.51100000000E-03 0.  1.
        -12    1    3    3    0    0 -0.23909692407E+02 -0.12255546014E+02  0.28567613678E+02  0.39217092579E+02  0.00000000000E+00 0.  1.
</event>
<event>
 7    1 -0.5810109E-010  0.4778727E+02  0.7816164E-02  0.1312668E+00
        -11   -1    0    0    0    0  0.00000000000E+00  0.00000000000E+00  0.45593999997E+02  0.45594000000E+02  0.51100000000E-03 0.  1.
         11   -1    0    0    0    0 -0.00000000000E+00 -0.00000000000E+00 -0.45593999997E+02  0.45594000000E+02  0.51100000000E-03 0. -1.
    9900012    2    1    2    0    0 -0.80718331238E+01  0.13466068943E+02  0.40461514118E+02  0.47787266971E+02  0.19999981427E+02 0.  0.
         12    1    1    2    0    0  0.80718331238E+01 -0.13466068943E+02 -0.40461514118E+02  0.43400733029E+02  0.00000000000E+00 0. -1.
         11    1    3    3    0    0 -0.25737987006E+01  0.63040546112E+01  0.62388470121E+01  0.92351912050E+01  0.51100000000E-03 0. -1.
        -11    1    3    3    0    0 -0.80978025061E+01 -0.13451832306E+01  0.11324559793E+02  0.13986764390E+02  0.51100000000E-03 0.  1.
        -12    1    3    3    0    0  0.25997680829E+01  0.85071975621E+01  0.22898107313E+02  0.24565311376E+02  0.00000000000E+00 0.  1.
</event>
<event>
 7    1  0.2486105E-010  0.4778727E+02  0.7816164E-02  0.1312668E+00
        -11   -1    0    0    0    0  0.00000000000E+00  0.00000000000E+00  0.45593999997E+02  0.45594000000E+02  0.51100000000E-03 0. -1.
         11   -1    0    0    0    0 -0.00000000000E+00 -0.00000000000E+00 -0.45593999997E+02  0.45594000000E+02  0.51100000000E-03 0.  1.
    9900012    2    1    2    0    0 -0.38986855089E+02  0.11468724224E+02 -0.15235371810E+02  0.47787273517E+02  0.20000011275E+02 0.  0.
         12    1    1    2    0    0  0.38986855089E+02 -0.11468724224E+02  0.15235371810E+02  0.43400726483E+02  0.00000000000E+00 0. -1.
         11    1    3    3    0    0 -0.16015019102E+02  0.55458258424E+01 -0.31595361972E+01  0.17240060625E+02  0.51100000000E-03 0. -1.
        -11    1    3    3    0    0 -0.24906724746E+02  0.57828140531E+01 -0.12645523214E+02  0.28525341953E+02  0.51100000000E-03 0.  1.
         12    1    3    3    0    0  0.19348887593E+01  0.14008432896E+00  0.56968760163E+00  0.20218709389E+01  0.00000000000E+00 0. -1.
</event>
<event>
 7    1  0.2486105E-010  0.4778727E+02  0.7816164E-02  0.1312668E+00
        -11   -1    0    0    0    0  0.00000000000E+00  0.00000000000E+00  0.45593999997E+02  0.45594000000E+02  0.51100000000E-03 0.  1.
         11   -1    0    0    0    0 -0.00000000000E+00 -0.00000000000E+00 -0.45593999997E+02  0.45594000000E+02  0.51100000000E-03 0. -1.
    9900012    2    1    2    0    0  0.31393821616E+02  0.26856052269E+02 -0.13296758048E+02  0.47787270125E+02  0.19999995806E+02 0.  0.
         12    1    1    2    0    0 -0.31393821616E+02 -0.26856052269E+02  0.13296758048E+02  0.43400729875E+02  0.00000000000E+00 0. -1.
         11    1    3    3    0    0  0.37784890599E+01 -0.11381685798E+01 -0.12113893804E+01  0.41279379579E+01  0.51100000000E-03 0. -1.
        -11    1    3    3    0    0  0.15838823280E+02  0.69472296863E+01 -0.16273227613E+01  0.17371830728E+02  0.51100000000E-03 0.  1.
         12    1    3    3    0    0  0.11776509276E+02  0.21046991162E+02 -0.10458045906E+02  0.26287501439E+02  0.00000000000E+00 0. -1.
</event>
<event>
 7    1  0.2486105E-010  0.4778729E+02  0.7816164E-02  0.1312668E+00
        -11   -1    0    0    0    0  0.00000000000E+00  0.00000000000E+00  0.45593999997E+02  0.45594000000E+02  0.51100000000E-03 0. -1.
         11   -1    0    0    0    0 -0.00000000000E+00 -0.00000000000E+00 -0.45593999997E+02  0.45594000000E+02  0.51100000000E-03 0.  1.
    9900012    2    1    2    0    0 -0.27733784759E+01 -0.40916797708E+02 -0.14203724419E+02  0.47787288597E+02  0.20000080030E+02 0.  0.
         12    1    1    2    0    0  0.27733784759E+01  0.40916797708E+02  0.14203724419E+02  0.43400711403E+02  0.00000000000E+00 0. -1.
         11    1    3    3    0    0 -0.41541974812E+01 -0.55865904415E+01  0.14389802812E+01  0.71090093533E+01  0.51100000000E-03 0.  1.
        -11    1    3    3    0    0 -0.24387751754E+01 -0.73019680670E+00 -0.78379086917E-01  0.25469501909E+01  0.51100000000E-03 0. -1.
        -12    1    3    3    0    0  0.38195941807E+01 -0.34600010460E+02 -0.15564325614E+02  0.38131329053E+02  0.00000000000E+00 0.  1.
</event>
<event>
 7    1  0.2486105E-010  0.4778725E+02  0.7816164E-02  0.1312668E+00
        -11   -1    0    0    0    0  0.00000000000E+00  0.00000000000E+00  0.45593999997E+02  0.45594000000E+02  0.51100000000E-03 0. -1.
         11   -1    0    0    0    0 -0.00000000000E+00 -0.00000000000E+00 -0.45593999997E+02  0.45594000000E+02  0.51100000000E-03 0.  1.
    9900012    2    1    2    0    0  0.20087597100E+02 -0.38469234018E+02  0.48080303872E+00  0.47787254676E+02  0.19999925368E+02 0.  0.
         12    1    1    2    0    0 -0.20087597100E+02  0.38469234018E+02 -0.48080303872E+00  0.43400745324E+02  0.00000000000E+00 0. -1.
         11    1    3    3    0    0  0.10321583516E+02 -0.10671903128E+02 -0.33676948455E+01  0.15223861911E+02  0.51100000000E-03 0. -1.
        -11    1    3    3    0    0  0.11097896024E+02 -0.20985556215E+02 -0.15211115178E+01  0.23788035781E+02  0.51100000000E-03 0.  1.
         12    1    3    3    0    0 -0.13318824407E+01 -0.68117746743E+01  0.53696094020E+01  0.87753569830E+01  0.00000000000E+00 0. -1.
</event>
<event>
 7    1  0.2486105E-010  0.4778730E+02  0.7816164E-02  0.1312668E+00
        -11   -1    0    0    0    0  0.00000000000E+00  0.00000000000E+00  0.45593999997E+02  0.45594000000E+02  0.51100000000E-03 0.  1.
         11   -1    0    0    0    0 -0.00000000000E+00 -0.00000000000E+00 -0.45593999997E+02  0.45594000000E+02  0.51100000000E-03 0. -1.
    9900012    2    1    2    0    0  0.12787531883E+02 -0.41081589529E+02  0.56923417967E+01  0.47787300409E+02  0.20000133884E+02 0.  0.
         12    1    1    2    0    0 -0.12787531883E+02  0.41081589529E+02 -0.56923417967E+01  0.43400699591E+02  0.00000000000E+00 0. -1.
         11    1    3    3    0    0  0.54991906039E+01 -0.10353236038E+02 -0.24212445292E+01  0.11970506217E+02  0.51100000000E-03 0. -1.
        -11    1    3    3    0    0  0.31079216856E+01 -0.28176386768E+02  0.26371151818E+01  0.28469673782E+02  0.51100000000E-03 0.  1.
         12    1    3    3    0    0  0.41804195930E+01 -0.25519667228E+01  0.54764711442E+01  0.73471204101E+01  0.00000000000E+00 0. -1.
</event>
<event>
 7    1  0.2486105E-010  0.4778724E+02  0.7816164E-02  0.1312668E+00
        -11   -1    0    0    0    0  0.00000000000E+00  0.00000000000E+00  0.45593999997E+02  0.45594000000E+02  0.51100000000E-03 0.  1.
         11   -1    0    0    0    0 -0.00000000000E+00 -0.00000000000E+00 -0.45593999997E+02  0.45594000000E+02  0.51100000000E-03 0. -1.
    9900012    2    1    2    0    0 -0.82934970702E+01  0.13418703627E+01  0.42579845523E+02  0.47787240162E+02  0.19999859194E+02 0.  0.
         12    1    1    2    0    0  0.82934970702E+01 -0.13418703627E+01 -0.42579845523E+02  0.43400759838E+02  0.00000000000E+00 0. -1.
         11    1    3    3    0    0 -0.74045957973E+01 -0.19498791053E+01  0.72067658202E+01  0.10515110142E+02  0.51100000000E-03 0. -1.
        -11    1    3    3    0    0 -0.25170836921E+01 -0.26738167381E+01  0.46106150859E+01  0.58943004668E+01  0.51100000000E-03 0.  1.
        -12    1    3    3    0    0  0.16281824192E+01  0.59655662061E+01  0.30762464617E+02  0.31377829553E+02  0.00000000000E+00 0.  1.
</event>
<event>
 7    1  0.2486105E-010  0.4778727E+02  0.7816164E-02  0.1312668E+00
        -11   -1    0    0    0    0  0.00000000000E+00  0.00000000000E+00  0.45593999997E+02  0.45594000000E+02  0.51100000000E-03 0.  1.
         11   -1    0    0    0    0 -0.00000000000E+00 -0.00000000000E+00 -0.45593999997E+02  0.45594000000E+02  0.51100000000E-03 0. -1.
    9900012    2    1    2    0    0 -0.38293675507E+01  0.43157981691E+02 -0.25194915987E+01  0.47787271004E+02  0.19999999814E+02 0.  0.
         12    1    1    2    0    0  0.38293675507E+01 -0.43157981691E+02  0.25194915987E+01  0.43400728996E+02  0.00000000000E+00 0. -1.
         11    1    3    3    0    0 -0.64114183144E+01  0.26776354702E+02  0.51157363781E+01  0.28004467766E+02  0.51100000000E-03 0. -1.
        -11    1    3    3    0    0 -0.11112634903E+01  0.20932541989E+01  0.11220590462E+01  0.26221434839E+01  0.51100000000E-03 0.  1.
        -12    1    3    3    0    0  0.36933142539E+01  0.14288372791E+02 -0.87572870230E+01  0.17160659754E+02  0.00000000000E+00 0.  1.
</event>
<event>
 7    1  0.2486105E-010  0.4778726E+02  0.7816164E-02  0.1312668E+00
        -11   -1    0    0    0    0  0.00000000000E+00  0.00000000000E+00  0.45593999997E+02  0.45594000000E+02  0.51100000000E-03 0.  1.
         11   -1    0    0    0    0 -0.00000000000E+00 -0.00000000000E+00 -0.45593999997E+02  0.45594000000E+02  0.51100000000E-03 0. -1.
    9900012    2    1    2    0    0  0.38646741971E+02  0.10481464765E+02  0.16738963016E+02  0.47787255174E+02  0.19999927639E+02 0.  0.
         12    1    1    2    0    0 -0.38646741971E+02 -0.10481464765E+02 -0.16738963016E+02  0.43400744826E+02  0.00000000000E+00 0. -1.
         11    1    3    3    0    0  0.21575484617E+02  0.14951972755E+02  0.73086921405E+01  0.27248486321E+02  0.51100000000E-03 0. -1.
        -11    1    3    3    0    0  0.32727737217E+01  0.49708316824E+00  0.44615563325E+00  0.33402387070E+01  0.51100000000E-03 0.  1.
        -12    1    3    3    0    0  0.13798483633E+02 -0.49675911584E+01  0.89841152426E+01  0.17198530146E+02  0.00000000000E+00 0.  1.
</event>
<event>
 7    1  0.2486105E-010  0.4778727E+02  0.7816164E-02  0.1312668E+00
        -11   -1    0    0    0    0  0.00000000000E+00  0.00000000000E+00  0.45593999997E+02  0.45594000000E+02  0.51100000000E-03 0.  1.
         11   -1    0    0    0    0 -0.00000000000E+00 -0.00000000000E+00 -0.45593999997E+02  0.45594000000E+02  0.51100000000E-03 0. -1.
    9900012    2    1    2    0    0  0.11687731258E+02  0.91361760814E+01  0.40786646058E+02  0.47787271066E+02  0.20000000100E+02 0.  0.
         12    1    1    2    0    0 -0.11687731258E+02 -0.91361760814E+01 -0.40786646058E+02  0.43400728934E+02  0.00000000000E+00 0. -1.
         11    1    3    3    0    0 -0.19616260069E+01  0.18802744415E+01  0.18123876144E+02  0.18326437060E+02  0.51100000000E-03 0.  1.
        -11    1    3    3    0    0  0.86650456011E+01  0.16481573260E+01  0.19337777066E+02  0.21254389193E+02  0.51100000000E-03 0. -1.
         12    1    3    3    0    0  0.49843116636E+01  0.56077443139E+01  0.33249928480E+01  0.82064448143E+01  0.00000000000E+00 0. -1.
</event>
<event>
 7    1  0.2486105E-010  0.4778727E+02  0.7816164E-02  0.1312668E+00
        -11   -1    0    0    0    0  0.00000000000E+00  0.00000000000E+00  0.45593999997E+02  0.45594000000E+02  0.51100000000E-03 0. -1.
         11   -1    0    0    0    0 -0.00000000000E+00 -0.00000000000E+00 -0.45593999997E+02  0.45594000000E+02  0.51100000000E-03 0.  1.
    9900012    2    1    2    0    0 -0.23614101500E+02 -0.20152741806E+02 -0.30329263917E+02  0.47787273719E+02  0.20000012195E+02 0.  0.
         12    1    1    2    0    0  0.23614101500E+02  0.20152741806E+02  0.30329263917E+02  0.43400726281E+02  0.00000000000E+00 0. -1.
         11    1    3    3    0    0 -0.49965987019E+01 -0.38772507548E+00 -0.10174912343E+01  0.51138652695E+01  0.51100000000E-03 0. -1.
        -11    1    3    3    0    0 -0.16691936668E+02 -0.69968722048E+01 -0.16872127399E+02  0.24743598235E+02  0.51100000000E-03 0.  1.
        -12    1    3    3    0    0 -0.19255661299E+01 -0.12768144526E+02 -0.12439645284E+02  0.17929810215E+02  0.00000000000E+00 0.  1.
</event>
<event>
 7    1  0.2486105E-010  0.4778727E+02  0.7816164E-02  0.1312668E+00
        -11   -1    0    0    0    0  0.00000000000E+00  0.00000000000E+00  0.45593999997E+02  0.45594000000E+02  0.51100000000E-03 0. -1.
         11   -1    0    0    0    0 -0.00000000000E+00 -0.00000000000E+00 -0.45593999997E+02  0.45594000000E+02  0.51100000000E-03 0.  1.
    9900012    2    1    2    0    0  0.37390017774E+02 -0.17309313620E+02 -0.13638105085E+02  0.47787266396E+02  0.19999978804E+02 0.  0.
         12    1    1    2    0    0 -0.37390017774E+02  0.17309313620E+02  0.13638105085E+02  0.43400733604E+02  0.00000000000E+00 0. -1.
         11    1    3    3    0    0  0.24983350863E+02 -0.50037050534E+01 -0.22836466766E+01  0.25581632610E+02  0.51100000000E-03 0. -1.
        -11    1    3    3    0    0  0.36365493783E+01  0.24313566368E+00 -0.12110964531E+01  0.38406198994E+01  0.51100000000E-03 0.  1.
        -12    1    3    3    0    0  0.87701175321E+01 -0.12548744230E+02 -0.10143361955E+02  0.18365013886E+02  0.00000000000E+00 0.  1.
</event>
<event>
 7    1  0.2486105E-010  0.4778727E+02  0.7816164E-02  0.1312668E+00
        -11   -1    0    0    0    0  0.00000000000E+00  0.00000000000E+00  0.45593999997E+02  0.45594000000E+02  0.51100000000E-03 0.  1.
         11   -1    0    0    0    0 -0.00000000000E+00 -0.00000000000E+00 -0.45593999997E+02  0.45594000000E+02  0.51100000000E-03 0. -1.
    9900012    2    1    2    0    0 -0.13729488691E+02  0.40983911612E+02  0.39298179930E+01  0.47787270280E+02  0.19999996516E+02 0.  0.
         12    1    1    2    0    0  0.13729488691E+02 -0.40983911612E+02 -0.39298179930E+01  0.43400729720E+02  0.00000000000E+00 0. -1.
         11    1    3    3    0    0  0.13675073728E+01  0.84058653490E+01  0.35537753190E+01  0.92281074961E+01  0.51100000000E-03 0. -1.
        -11    1    3    3    0    0 -0.48894398516E+01  0.25904104652E+02  0.21762090781E+00  0.26362409203E+02  0.51100000000E-03 0.  1.
         12    1    3    3    0    0 -0.10207556212E+02  0.66739416111E+01  0.15842176614E+00  0.12196753581E+02  0.00000000000E+00 0. -1.
</event>
<event>
 7    1  0.2486105E-010  0.4778727E+02  0.7816164E-02  0.1312668E+00
        -11   -1    0    0    0    0  0.00000000000E+00  0.00000000000E+00  0.45593999997E+02  0.45594000000E+02  0.51100000000E-03 0.  1.
         11   -1    0    0    0    0 -0.00000000000E+00 -0.00000000000E+00 -0.45593999997E+02  0.45594000000E+02  0.51100000000E-03 0. -1.
    9900012    2    1    2    0    0  0.37451274562E+02  0.16449877067E+02  0.14506102324E+02  0.47787269286E+02  0.19999991982E+02 0.  0.
         12    1    1    2    0    0 -0.37451274562E+02 -0.16449877067E+02 -0.14506102324E+02  0.43400730714E+02  0.00000000000E+00 0. -1.
         11    1    3    3    0    0  0.69073956946E+01  0.71285871076E+01  0.10944487233E+01  0.99863250349E+01  0.51100000000E-03 0.  1.
        -11    1    3    3    0    0  0.30294236676E+02  0.53154515673E+01  0.13910536008E+02  0.33756448472E+02  0.51100000000E-03 0. -1.
         12    1    3    3    0    0  0.24964219122E+00  0.40058383925E+01 -0.49888240641E+00  0.40444957790E+01  0.00000000000E+00 0. -1.
</event>
<event>
 7    1  0.2486105E-010  0.4778728E+02  0.7816164E-02  0.1312668E+00
        -11   -1    0    0    0    0  0.00000000000E+00  0.00000000000E+00  0.45593999997E+02  0.45594000000E+02  0.51100000000E-03 0. -1.
         11   -1    0    0    0    0 -0.00000000000E+00 -0.00000000000E+00 -0.45593999997E+02  0.45594000000E+02  0.51100000000E-03 0.  1.
    9900012    2    1    2    0    0  0.18087240042E+02  0.35334144858E+02 -0.17549136138E+02  0.47787283135E+02  0.20000055127E+02 0.  0.
         12    1    1    2    0    0 -0.18087240042E+02 -0.35334144858E+02  0.17549136138E+02  0.43400716865E+02  0.00000000000E+00 0. -1.
         11    1    3    3    0    0 -0.72477402699E+00  0.16429398460E+01 -0.13543651808E+01  0.22491896389E+01  0.51100000000E-03 0. -1.
        -11    1    3    3    0    0  0.12982642778E+02  0.29528684268E+02 -0.19453493790E+02  0.37668695610E+02  0.51100000000E-03 0.  1.
         12    1    3    3    0    0  0.58293712902E+01  0.41625207445E+01  0.32587228329E+01  0.78693978861E+01  0.00000000000E+00 0. -1.
</event>
<event>
 7    1  0.2486105E-010  0.4778730E+02  0.7816164E-02  0.1312668E+00
        -11   -1    0    0    0    0  0.00000000000E+00  0.00000000000E+00  0.45593999997E+02  0.45594000000E+02  0.51100000000E-03 0. -1.
         11   -1    0    0    0    0 -0.00000000000E+00 -0.00000000000E+00 -0.45593999997E+02  0.45594000000E+02  0.51100000000E-03 0.  1.
    9900012    2    1    2    0    0 -0.31878342839E+02  0.26438860170E+02 -0.12976095394E+02  0.47787295848E+02  0.20000113087E+02 0.  0.
         12    1    1    2    0    0  0.31878342839E+02 -0.26438860170E+02  0.12976095394E+02  0.43400704152E+02  0.00000000000E+00 0. -1.
         11    1    3    3    0    0 -0.20559986167E+01  0.22265470726E+01 -0.42559693226E+01  0.52247408849E+01  0.51100000000E-03 0. -1.
        -11    1    3    3    0    0  0.40074564316E+00  0.66976542699E+01 -0.18770588800E+01  0.69672462343E+01  0.51100000000E-03 0.  1.
        -12    1    3    3    0    0 -0.30223089866E+02  0.17514658827E+02 -0.68430671912E+01  0.35595308728E+02  0.00000000000E+00 0.  1.
</event>
<event>
 7    1  0.2486105E-010  0.4778727E+02  0.7816164E-02  0.1312668E+00
        -11   -1    0    0    0    0  0.00000000000E+00  0.00000000000E+00  0.45593999997E+02  0.45594000000E+02  0.51100000000E-03 0.  1.
         11   -1    0    0    0    0 -0.00000000000E+00 -0.00000000000E+00 -0.45593999997E+02  0.45594000000E+02  0.51100000000E-03 0. -1.
    9900012    2    1    2    0    0 -0.39115047106E+02 -0.13829340840E+02  0.12743066878E+02  0.47787270379E+02  0.19999996966E+02 0.  0.
         12    1    1    2    0    0  0.39115047106E+02  0.13829340840E+02 -0.12743066878E+02  0.43400729621E+02  0.00000000000E+00 0. -1.
         11    1    3    3    0    0 -0.69569310255E+01  0.40424765892E+01  0.13660991022E+01  0.81612948290E+01  0.51100000000E-03 0. -1.
        -11    1    3    3    0    0 -0.17064546871E+02 -0.57451215059E+01  0.20099929416E+01  0.18117539925E+02  0.51100000000E-03 0.  1.
         12    1    3    3    0    0 -0.15093569209E+02 -0.12126695923E+02  0.93669748342E+01  0.21508435625E+02  0.00000000000E+00 0. -1.
</event>
<event>
 7    1  0.2486105E-010  0.4778728E+02  0.7816164E-02  0.1312668E+00
        -11   -1    0    0    0    0  0.00000000000E+00  0.00000000000E+00  0.45593999997E+02  0.45594000000E+02  0.51100000000E-03 0.  1.
         11   -1    0    0    0    0 -0.00000000000E+00 -0.00000000000E+00 -0.45593999997E+02  0.45594000000E+02  0.51100000000E-03 0. -1.
    9900012    2    1    2    0    0 -0.27201616568E+02 -0.43184405012E+01  0.33541703765E+02  0.47787276922E+02  0.20000026799E+02 0.  0.
         12    1    1    2    0    0  0.27201616568E+02  0.43184405012E+01 -0.33541703765E+02  0.43400723078E+02  0.00000000000E+00 0. -1.
         11    1    3    3    0    0 -0.82000862706E+01 -0.26236423335E+01  0.71994342045E+01  0.11223046247E+02  0.51100000000E-03 0. -1.
        -11    1    3    3    0    0 -0.27869664043E+01 -0.67522244538E+01  0.13207781041E+02  0.15093216923E+02  0.51100000000E-03 0.  1.
         12    1    3    3    0    0 -0.16214563893E+02  0.50574262861E+01  0.13134488519E+02  0.21471013752E+02  0.00000000000E+00 0. -1.
</event>
<event>
 7    1  0.2486105E-010  0.4778728E+02  0.7816164E-02  0.1312668E+00
        -11   -1    0    0    0    0  0.00000000000E+00  0.00000000000E+00  0.45593999997E+02  0.45594000000E+02  0.51100000000E-03 0.  1.
         11   -1    0    0    0    0 -0.00000000000E+00 -0.00000000000E+00 -0.45593999997E+02  0.45594000000E+02  0.51100000000E-03 0. -1.
    9900012    2    1    2    0    0  0.40051379700E+02 -0.63649849770E+01  0.15459523262E+02  0.47787275247E+02  0.20000019161E+02 0.  0.
         12    1    1    2    0    0 -0.40051379700E+02  0.63649849770E+01 -0.15459523262E+02  0.43400724753E+02  0.00000000000E+00 0. -1.
         11    1    3    3    0    0  0.20015886160E+02 -0.50702396200E+01  0.12282866594E+01  0.20684576789E+02  0.51100000000E-03 0. -1.
        -11    1    3    3    0    0  0.18871229704E+02 -0.36834410234E+01  0.14943495796E+02  0.24351573156E+02  0.51100000000E-03 0.  1.
         12    1    3    3    0    0  0.11642638359E+01  0.23886956665E+01 -0.71225919371E+00  0.27511253017E+01  0.00000000000E+00 0. -1.
</event>
<event>
 7    1  0.2486105E-010  0.4778727E+02  0.7816164E-02  0.1312668E+00
        -11   -1    0    0    0    0  0.00000000000E+00  0.00000000000E+00  0.45593999997E+02  0.45594000000E+02  0.51100000000E-03 0.  1.
         11   -1    0    0    0    0 -0.00000000000E+00 -0.00000000000E+00 -0.45593999997E+02  0.45594000000E+02  0.51100000000E-03 0. -1.
    9900012    2    1    2    0    0 -0.30813282262E+02 -0.90917219045E+00  0.30550587055E+02  0.47787270430E+02  0.19999997198E+02 0.  0.
         12    1    1    2    0    0  0.30813282262E+02  0.90917219045E+00 -0.30550587055E+02  0.43400729570E+02  0.00000000000E+00 0. -1.
         11    1    3    3    0    0 -0.14295233695E+00  0.20435313865E+01 -0.11184553008E+01  0.23339662421E+01  0.51100000000E-03 0. -1.
        -11    1    3    3    0    0 -0.70282783020E+01 -0.70089945441E+00  0.17915631149E+01  0.72868137476E+01  0.51100000000E-03 0.  1.
        -12    1    3    3    0    0 -0.23642051623E+02 -0.22518041225E+01  0.29877479241E+02  0.38166490440E+02  0.00000000000E+00 0.  1.
</event>
<event>
 7    1  0.2486105E-010  0.4778728E+02  0.7816164E-02  0.1312668E+00
        -11   -1    0    0    0    0  0.00000000000E+00  0.00000000000E+00  0.45593999997E+02  0.45594000000E+02  0.51100000000E-03 0.  1.
         11   -1    0    0    0    0 -0.00000000000E+00 -0.00000000000E+00 -0.45593999997E+02  0.45594000000E+02  0.51100000000E-03 0. -1.
    9900012    2    1    2    0    0  0.22804355569E+02  0.15783164259E+02  0.33383768378E+02  0.47787275374E+02  0.20000019739E+02 0.  0.
         12    1    1    2    0    0 -0.22804355569E+02 -0.15783164259E+02 -0.33383768378E+02  0.43400724626E+02  0.00000000000E+00 0. -1.
         11    1    3    3    0    0  0.21120564230E+01  0.15594855018E+01  0.10334739631E+02  0.10663002432E+02  0.51100000000E-03 0. -1.
        -11    1    3    3    0    0  0.70680387839E+01  0.13462356621E+02  0.97030074720E+01  0.18037199680E+02  0.51100000000E-03 0.  1.
        -12    1    3    3    0    0  0.13624260362E+02  0.76132213648E+00  0.13346021275E+02  0.19087073261E+02  0.00000000000E+00 0.  1.
</event>
<event>
 7    1  0.2486105E-010  0.4778727E+02  0.7816164E-02  0.1312668E+00
        -11   -1    0    0    0    0  0.00000000000E+00  0.00000000000E+00  0.45593999997E+02  0.45594000000E+02  0.51100000000E-03 0.  1.
         11   -1    0    0    0    0 -0.00000000000E+00 -0.00000000000E+00 -0.45593999997E+02  0.45594000000E+02  0.51100000000E-03 0. -1.
    9900012    2    1    2    0    0 -0.20038826358E+02 -0.35687904895E+01  0.38331873837E+02  0.47787269830E+02  0.19999994465E+02 0.  0.
         12    1    1    2    0    0  0.20038826358E+02  0.35687904895E+01 -0.38331873837E+02  0.43400730170E+02  0.00000000000E+00 0. -1.
         11    1    3    3    0    0 -0.12138512327E+01  0.20088924069E+01 -0.36382370380E-01  0.23474257082E+01  0.51100000000E-03 0. -1.
        -11    1    3    3    0    0 -0.34312184213E+01  0.16876457982E+01  0.20138780133E+02  0.20498582236E+02  0.51100000000E-03 0.  1.
         12    1    3    3    0    0 -0.15393756704E+02 -0.72653286946E+01  0.18229476075E+02  0.24941261886E+02  0.00000000000E+00 0. -1.
</event>
<event>
 7    1  0.2486105E-010  0.4778727E+02  0.7816164E-02  0.1312668E+00
        -11   -1    0    0    0    0  0.00000000000E+00  0.00000000000E+00  0.45593999997E+02  0.45594000000E+02  0.51100000000E-03 0.  1.
         11   -1    0    0    0    0 -0.00000000000E+00 -0.00000000000E+00 -0.45593999997E+02  0.45594000000E+02  0.51100000000E-03 0. -1.
    9900012    2    1    2    0    0  0.16278194052E+02  0.21591300297E+02  0.33947895673E+02  0.47787268777E+02  0.19999989660E+02 0.  0.
         12    1    1    2    0    0 -0.16278194052E+02 -0.21591300297E+02 -0.33947895673E+02  0.43400731223E+02  0.00000000000E+00 0. -1.
         11    1    3    3    0    0 -0.48361370556E-01 -0.33163361230E+01  0.16713376594E+01  0.37139997221E+01  0.51100000000E-03 0. -1.
        -11    1    3    3    0    0  0.53002509063E+01  0.53839322162E+01  0.90636786001E+01  0.11799561678E+02  0.51100000000E-03 0.  1.
         12    1    3    3    0    0  0.11026304516E+02  0.19523704204E+02  0.23212879413E+02  0.32273707376E+02  0.00000000000E+00 0. -1.
</event>
<event>
 7    1  0.2486105E-010  0.4778728E+02  0.7816164E-02  0.1312668E+00
        -11   -1    0    0    0    0  0.00000000000E+00  0.00000000000E+00  0.45593999997E+02  0.45594000000E+02  0.51100000000E-03 0. -1.
         11   -1    0    0    0    0 -0.00000000000E+00 -0.00000000000E+00 -0.45593999997E+02  0.45594000000E+02  0.51100000000E-03 0.  1.
    9900012    2    1    2    0    0 -0.99552267282E+01 -0.34881871664E+02 -0.23827949995E+02  0.47787277530E+02  0.20000029570E+02 0.  0.
         12    1    1    2    0    0  0.99552267282E+01  0.34881871664E+02  0.23827949995E+02  0.43400722470E+02  0.00000000000E+00 0. -1.
         11    1    3    3    0    0 -0.10583562575E+01 -0.19441190013E+02 -0.91100833432E+01  0.21495897420E+02  0.51100000000E-03 0. -1.
        -11    1    3    3    0    0  0.15435696054E+00 -0.12041245849E+02 -0.92414309701E+01  0.15179574246E+02  0.51100000000E-03 0.  1.
        -12    1    3    3    0    0 -0.90512274312E+01 -0.33994358016E+01 -0.54764356816E+01  0.11111805864E+02  0.00000000000E+00 0.  1.
</event>
<event>
 7    1  0.2486105E-010  0.4778727E+02  0.7816164E-02  0.1312668E+00
        -11   -1    0    0    0    0  0.00000000000E+00  0.00000000000E+00  0.45593999997E+02  0.45594000000E+02  0.51100000000E-03 0.  1.
         11   -1    0    0    0    0 -0.00000000000E+00 -0.00000000000E+00 -0.45593999997E+02  0.45594000000E+02  0.51100000000E-03 0. -1.
    9900012    2    1    2    0    0  0.34094220563E+02 -0.26937257437E+01  0.26719860182E+02  0.47787274634E+02  0.20000016365E+02 0.  0.
         12    1    1    2    0    0 -0.34094220563E+02  0.26937257437E+01 -0.26719860182E+02  0.43400725366E+02  0.00000000000E+00 0. -1.
         11    1    3    3    0    0  0.20464989119E+02 -0.57923014805E+01  0.72052240703E+01  0.22456219412E+02  0.51100000000E-03 0. -1.
        -11    1    3    3    0    0  0.53232236275E+01 -0.26881734621E+01  0.83432046892E+01  0.10255342564E+02  0.51100000000E-03 0.  1.
        -12    1    3    3    0    0  0.83060078163E+01  0.57867491988E+01  0.11171431422E+02  0.15075712658E+02  0.00000000000E+00 0.  1.
</event>
<event>
 7    1  0.2486105E-010  0.4778727E+02  0.7816164E-02  0.1312668E+00
        -11   -1    0    0    0    0  0.00000000000E+00  0.00000000000E+00  0.45593999997E+02  0.45594000000E+02  0.51100000000E-03 0.  1.
         11   -1    0    0    0    0 -0.00000000000E+00 -0.00000000000E+00 -0.45593999997E+02  0.45594000000E+02  0.51100000000E-03 0. -1.
    9900012    2    1    2    0    0 -0.24892271984E+02  0.17304604622E+02  0.31057182428E+02  0.47787272748E+02  0.20000007765E+02 0.  0.
         12    1    1    2    0    0  0.24892271984E+02 -0.17304604622E+02 -0.31057182428E+02  0.43400727252E+02  0.00000000000E+00 0. -1.
         11    1    3    3    0    0 -0.52405568772E+01  0.71108898205E+01  0.11755761581E+02  0.14704629238E+02  0.51100000000E-03 0. -1.
        -11    1    3    3    0    0 -0.13561331528E+02  0.30729901344E+01  0.19207094178E+02  0.23712137149E+02  0.51100000000E-03 0.  1.
         12    1    3    3    0    0 -0.60903835789E+01  0.71207246668E+01  0.94326669493E-01  0.93705063598E+01  0.00000000000E+00 0. -1.
</event>
<event>
 7    1  0.2486105E-010  0.4778727E+02  0.7816164E-02  0.1312668E+00
        -11   -1    0    0    0    0  0.00000000000E+00  0.00000000000E+00  0.45593999997E+02  0.45594000000E+02  0.51100000000E-03 0.  1.
         11   -1    0    0    0    0 -0.00000000000E+00 -0.00000000000E+00 -0.45593999997E+02  0.45594000000E+02  0.51100000000E-03 0. -1.
    9900012    2    1    2    0    0  0.42595137960E+02 -0.28776486581E+01 -0.78100345185E+01  0.47787270987E+02  0.19999999739E+02 0.  0.
         12    1    1    2    0    0 -0.42595137960E+02  0.28776486581E+01  0.78100345185E+01  0.43400729013E+02  0.00000000000E+00 0. -1.
         11    1    3    3    0    0  0.28500292124E+02 -0.20491920522E+01 -0.74562323056E+01  0.29530683021E+02  0.51100000000E-03 0. -1.
        -11    1    3    3    0    0  0.15754248377E+02 -0.20624798920E+01 -0.13790902754E+01  0.15948418589E+02  0.51100000000E-03 0.  1.
         12    1    3    3    0    0 -0.16594025411E+01  0.12340232861E+01  0.10252880624E+01  0.23081693775E+01  0.00000000000E+00 0. -1.
</event>
<event>
 7    1  0.2486105E-010  0.4778727E+02  0.7816164E-02  0.1312668E+00
        -11   -1    0    0    0    0  0.00000000000E+00  0.00000000000E+00  0.45593999997E+02  0.45594000000E+02  0.51100000000E-03 0.  1.
         11   -1    0    0    0    0 -0.00000000000E+00 -0.00000000000E+00 -0.45593999997E+02  0.45594000000E+02  0.51100000000E-03 0. -1.
    9900012    2    1    2    0    0 -0.37251509721E+02  0.20346173413E+02 -0.90543742035E+01  0.47787269116E+02  0.19999991209E+02 0.  0.
         12    1    1    2    0    0  0.37251509721E+02 -0.20346173413E+02  0.90543742035E+01  0.43400730884E+02  0.00000000000E+00 0. -1.
         11    1    3    3    0    0 -0.39994310891E+01  0.56856984384E+01  0.28451607610E+01  0.75111620796E+01  0.51100000000E-03 0. -1.
        -11    1    3    3    0    0 -0.14542985087E+02  0.13147221920E+02 -0.46053424443E+01  0.20138446781E+02  0.51100000000E-03 0.  1.
         12    1    3    3    0    0 -0.18709093545E+02  0.15132530548E+01 -0.72941925202E+01  0.20137660256E+02  0.00000000000E+00 0. -1.
</event>
<event>
 7    1  0.2486105E-010  0.4778728E+02  0.7816164E-02  0.1312668E+00
        -11   -1    0    0    0    0  0.00000000000E+00  0.00000000000E+00  0.45593999997E+02  0.45594000000E+02  0.51100000000E-03 0.  1.
         11   -1    0    0    0    0 -0.00000000000E+00 -0.00000000000E+00 -0.45593999997E+02  0.45594000000E+02  0.51100000000E-03 0. -1.
    9900012    2    1    2    0    0 -0.33864572550E+02 -0.70572612590E+01  0.26210844053E+02  0.47787279310E+02  0.20000037686E+02 0.  0.
         12    1    1    2    0    0  0.33864572550E+02  0.70572612590E+01 -0.26210844053E+02  0.43400720690E+02  0.00000000000E+00 0. -1.
         11    1    3    3    0    0 -0.29395438233E+02 -0.36476524233E+01  0.13062343849E+02  0.32373167658E+02  0.51100000000E-03 0.  1.
        -11    1    3    3    0    0 -0.12384944981E+01 -0.42215531326E+01  0.53006589268E+01  0.68885676881E+01  0.51100000000E-03 0. -1.
        -12    1    3    3    0    0 -0.32306398186E+01  0.81194429688E+00  0.78478412767E+01  0.85255439641E+01  0.00000000000E+00 0.  1.
</event>
<event>
 7    1  0.2486105E-010  0.4778726E+02  0.7816164E-02  0.1312668E+00
        -11   -1    0    0    0    0  0.00000000000E+00  0.00000000000E+00  0.45593999997E+02  0.45594000000E+02  0.51100000000E-03 0.  1.
         11   -1    0    0    0    0 -0.00000000000E+00 -0.00000000000E+00 -0.45593999997E+02  0.45594000000E+02  0.51100000000E-03 0. -1.
    9900012    2    1    2    0    0  0.45204497757E+01 -0.31298758181E+02  0.29725035257E+02  0.47787257485E+02  0.19999938177E+02 0.  0.
         12    1    1    2    0    0 -0.45204497757E+01  0.31298758181E+02 -0.29725035257E+02  0.43400742515E+02  0.00000000000E+00 0. -1.
         11    1    3    3    0    0 -0.22661412831E+01 -0.13831088480E+02  0.14980685900E+02  0.20514759447E+02  0.51100000000E-03 0. -1.
        -11    1    3    3    0    0  0.57304647814E+01 -0.19354875883E+02  0.14922718196E+02  0.25102529069E+02  0.51100000000E-03 0.  1.
         12    1    3    3    0    0  0.10561262774E+01  0.18872061814E+01 -0.17836884003E+00  0.21699689693E+01  0.00000000000E+00 0. -1.
</event>
<event>
 7    1  0.2486105E-010  0.4778727E+02  0.7816164E-02  0.1312668E+00
        -11   -1    0    0    0    0  0.00000000000E+00  0.00000000000E+00  0.45593999997E+02  0.45594000000E+02  0.51100000000E-03 0.  1.
         11   -1    0    0    0    0 -0.00000000000E+00 -0.00000000000E+00 -0.45593999997E+02  0.45594000000E+02  0.51100000000E-03 0. -1.
    9900012    2    1    2    0    0  0.14342746784E+02 -0.23230532925E+02  0.33737981445E+02  0.47787269162E+02  0.19999991416E+02 0.  0.
         12    1    1    2    0    0 -0.14342746784E+02  0.23230532925E+02 -0.33737981445E+02  0.43400730838E+02  0.00000000000E+00 0. -1.
         11    1    3    3    0    0 -0.28724003952E+01 -0.66101418491E+01  0.12880105572E+01  0.73214500444E+01  0.51100000000E-03 0. -1.
        -11    1    3    3    0    0  0.12388600574E+01 -0.19991902486E+01  0.19285647064E+01  0.30415288885E+01  0.51100000000E-03 0.  1.
         12    1    3    3    0    0  0.15976287122E+02 -0.14621200827E+02  0.30521406182E+02  0.37424290229E+02  0.00000000000E+00 0. -1.
</event>
<event>
 7    1  0.2486105E-010  0.4778727E+02  0.7816164E-02  0.1312668E+00
        -11   -1    0    0    0    0  0.00000000000E+00  0.00000000000E+00  0.45593999997E+02  0.45594000000E+02  0.51100000000E-03 0. -1.
         11   -1    0    0    0    0 -0.00000000000E+00 -0.00000000000E+00 -0.45593999997E+02  0.45594000000E+02  0.51100000000E-03 0.  1.
    9900012    2    1    2    0    0  0.37192903488E+02 -0.66094788067E+01  0.21368808312E+02  0.47787271335E+02  0.20000001325E+02 0.  0.
         12    1    1    2    0    0 -0.37192903488E+02  0.66094788067E+01 -0.21368808312E+02  0.43400728665E+02  0.00000000000E+00 0. -1.
         11    1    3    3    0    0  0.89782885622E+01 -0.75310874371E+01  0.83455626149E+01  0.14386638214E+02  0.51100000000E-03 0. -1.
        -11    1    3    3    0    0  0.10452937461E+01  0.10475313182E+01 -0.18953369649E+01  0.24046337247E+01  0.51100000000E-03 0.  1.
        -12    1    3    3    0    0  0.27169321180E+02 -0.12592268775E+00  0.14918582663E+02  0.30995999396E+02  0.00000000000E+00 0.  1.
</event>
<event>
 7    1  0.3876196E-010  0.4778727E+02  0.7816164E-02  0.1312668E+00
        -11   -1    0    0    0    0  0.00000000000E+00  0.00000000000E+00  0.45593999997E+02  0.45594000000E+02  0.51100000000E-03 0. -1.
         11   -1    0    0    0    0 -0.00000000000E+00 -0.00000000000E+00 -0.45593999997E+02  0.45594000000E+02  0.51100000000E-03 0.  1.
    9900012    2    1    2    0    0  0.22743436786E+01  0.23391366826E+02 -0.36486906791E+02  0.47787273643E+02  0.20000011847E+02 0.  0.
         12    1    1    2    0    0 -0.22743436786E+01 -0.23391366826E+02  0.36486906791E+02  0.43400726357E+02  0.00000000000E+00 0. -1.
         11    1    3    3    0    0  0.23823499196E+00  0.12229452973E+01  0.14455813354E+01  0.19084173469E+01  0.51100000000E-03 0. -1.
        -11    1    3    3    0    0 -0.20735654217E+01  0.22645051874E+01 -0.14673852672E+02  0.14991651337E+02  0.51100000000E-03 0.  1.
        -12    1    3    3    0    0  0.41096741084E+01  0.19903916341E+02 -0.23258635454E+02  0.30887204959E+02  0.00000000000E+00 0.  1.
</event>
<event>
 7    1  0.2486105E-010  0.4778727E+02  0.7816164E-02  0.1312668E+00
        -11   -1    0    0    0    0  0.00000000000E+00  0.00000000000E+00  0.45593999997E+02  0.45594000000E+02  0.51100000000E-03 0.  1.
         11   -1    0    0    0    0 -0.00000000000E+00 -0.00000000000E+00 -0.45593999997E+02  0.45594000000E+02  0.51100000000E-03 0. -1.
    9900012    2    1    2    0    0 -0.30598046975E+02 -0.27593363726E+02  0.13637778377E+02  0.47787271902E+02  0.20000003909E+02 0.  0.
         12    1    1    2    0    0  0.30598046975E+02  0.27593363726E+02 -0.13637778377E+02  0.43400728098E+02  0.00000000000E+00 0. -1.
         11    1    3    3    0    0 -0.16163391568E+02 -0.19018571693E+02  0.61683191528E+01  0.25710104194E+02  0.51100000000E-03 0. -1.
        -11    1    3    3    0    0 -0.37788274697E+01 -0.93557555618E+01  0.37186403247E+01  0.10753510371E+02  0.51100000000E-03 0.  1.
        -12    1    3    3    0    0 -0.10655827937E+02  0.78096352894E+00  0.37508188992E+01  0.11323657337E+02  0.00000000000E+00 0.  1.
</event>
<event>
 7    1  0.2486105E-010  0.4778727E+02  0.7816164E-02  0.1312668E+00
        -11   -1    0    0    0    0  0.00000000000E+00  0.00000000000E+00  0.45593999997E+02  0.45594000000E+02  0.51100000000E-03 0.  1.
         11   -1    0    0    0    0 -0.00000000000E+00 -0.00000000000E+00 -0.45593999997E+02  0.45594000000E+02  0.51100000000E-03 0. -1.
    9900012    2    1    2    0    0 -0.19505875889E+02  0.38175016202E+02 -0.67684687100E+01  0.47787271608E+02  0.20000002572E+02 0.  0.
         12    1    1    2    0    0  0.19505875889E+02 -0.38175016202E+02  0.67684687100E+01  0.43400728392E+02  0.00000000000E+00 0. -1.
         11    1    3    3    0    0 -0.82868699859E+01  0.33380898979E+01 -0.34777610540E+01  0.95869640940E+01  0.51100000000E-03 0. -1.
        -11    1    3    3    0    0 -0.41865839674E+01  0.10447330578E+02 -0.58569337291E+01  0.12687705643E+02  0.51100000000E-03 0.  1.
        -12    1    3    3    0    0 -0.70324219354E+01  0.24389595727E+02  0.25662260731E+01  0.25512601871E+02  0.00000000000E+00 0.  1.
</event>
<event>
 7    1  0.2486105E-010  0.4778728E+02  0.7816164E-02  0.1312668E+00
        -11   -1    0    0    0    0  0.00000000000E+00  0.00000000000E+00  0.45593999997E+02  0.45594000000E+02  0.51100000000E-03 0.  1.
         11   -1    0    0    0    0 -0.00000000000E+00 -0.00000000000E+00 -0.45593999997E+02  0.45594000000E+02  0.51100000000E-03 0. -1.
    9900012    2    1    2    0    0  0.15806987415E+02 -0.12588539704E+02  0.38409511289E+02  0.47787277190E+02  0.20000028018E+02 0.  0.
         12    1    1    2    0    0 -0.15806987415E+02  0.12588539704E+02 -0.38409511289E+02  0.43400722810E+02  0.00000000000E+00 0. -1.
         11    1    3    3    0    0 -0.41327914745E+01 -0.55810540985E+00  0.61907234626E+01  0.74643488847E+01  0.51100000000E-03 0. -1.
        -11    1    3    3    0    0  0.21058179002E+01 -0.74943712745E+00  0.74783051787E+01  0.78052017042E+01  0.51100000000E-03 0.  1.
        -12    1    3    3    0    0  0.17833960989E+02 -0.11280997166E+02  0.24740482648E+02  0.32517726601E+02  0.00000000000E+00 0.  1.
</event>
<event>
 7    1  0.2486105E-010  0.4778727E+02  0.7816164E-02  0.1312668E+00
        -11   -1    0    0    0    0  0.00000000000E+00  0.00000000000E+00  0.45593999997E+02  0.45594000000E+02  0.51100000000E-03 0.  1.
         11   -1    0    0    0    0 -0.00000000000E+00 -0.00000000000E+00 -0.45593999997E+02  0.45594000000E+02  0.51100000000E-03 0. -1.
    9900012    2    1    2    0    0 -0.42686722397E+02  0.17710678595E+01  0.76374253240E+01  0.47787271711E+02  0.20000003041E+02 0.  0.
         12    1    1    2    0    0  0.42686722397E+02 -0.17710678595E+01 -0.76374253240E+01  0.43400728289E+02  0.00000000000E+00 0. -1.
         11    1    3    3    0    0 -0.21803921448E+02  0.40422993033E+01  0.41260705282E+01  0.22556055339E+02  0.51100000000E-03 0. -1.
        -11    1    3    3    0    0 -0.19037779566E+02 -0.47189675642E+01  0.67776375542E+01  0.20751917423E+02  0.51100000000E-03 0.  1.
         12    1    3    3    0    0 -0.18450213835E+01  0.24477361203E+01 -0.32662827584E+01  0.44792989494E+01  0.00000000000E+00 0. -1.
</event>
<event>
 7    1  0.2486105E-010  0.4778727E+02  0.7816164E-02  0.1312668E+00
        -11   -1    0    0    0    0  0.00000000000E+00  0.00000000000E+00  0.45593999997E+02  0.45594000000E+02  0.51100000000E-03 0. -1.
         11   -1    0    0    0    0 -0.00000000000E+00 -0.00000000000E+00 -0.45593999997E+02  0.45594000000E+02  0.51100000000E-03 0.  1.
    9900012    2    1    2    0    0 -0.43363904881E+02 -0.12433136710E+01 -0.12841005841E+01  0.47787274318E+02  0.20000014923E+02 0.  0.
         12    1    1    2    0    0  0.43363904881E+02  0.12433136710E+01  0.12841005841E+01  0.43400725682E+02  0.00000000000E+00 0. -1.
         11    1    3    3    0    0  0.58073152991E+00 -0.11711809929E+01  0.93617110374E+00  0.16078963351E+01  0.51100000000E-03 0. -1.
        -11    1    3    3    0    0 -0.18112263853E+00 -0.22636894556E+01  0.28898567355E+00  0.22892375024E+01  0.51100000000E-03 0.  1.
        -12    1    3    3    0    0 -0.43763513773E+02  0.21915567775E+01 -0.25092573614E+01  0.43890140480E+02  0.00000000000E+00 0.  1.
</event>
<event>
 7    1  0.2486105E-010  0.4778727E+02  0.7816164E-02  0.1312668E+00
        -11   -1    0    0    0    0  0.00000000000E+00  0.00000000000E+00  0.45593999997E+02  0.45594000000E+02  0.51100000000E-03 0.  1.
         11   -1    0    0    0    0 -0.00000000000E+00 -0.00000000000E+00 -0.45593999997E+02  0.45594000000E+02  0.51100000000E-03 0. -1.
    9900012    2    1    2    0    0 -0.21018219856E+02 -0.25528919726E+02  0.28109284429E+02  0.47787272133E+02  0.20000004962E+02 0.  0.
         12    1    1    2    0    0  0.21018219856E+02  0.25528919726E+02 -0.28109284429E+02  0.43400727867E+02  0.00000000000E+00 0. -1.
         11    1    3    3    0    0 -0.11923911942E+02 -0.13899331095E+02  0.61949052296E+01  0.19332561443E+02  0.51100000000E-03 0. -1.
        -11    1    3    3    0    0 -0.10069837131E+02 -0.80947341688E+01  0.11092749997E+02  0.17028665357E+02  0.51100000000E-03 0.  1.
         12    1    3    3    0    0  0.97552921655E+00 -0.35348544616E+01  0.10821629203E+02  0.11426045332E+02  0.00000000000E+00 0. -1.
</event>
<event>
 7    1  0.2486105E-010  0.4778727E+02  0.7816164E-02  0.1312668E+00
        -11   -1    0    0    0    0  0.00000000000E+00  0.00000000000E+00  0.45593999997E+02  0.45594000000E+02  0.51100000000E-03 0.  1.
         11   -1    0    0    0    0 -0.00000000000E+00 -0.00000000000E+00 -0.45593999997E+02  0.45594000000E+02  0.51100000000E-03 0. -1.
    9900012    2    1    2    0    0 -0.34734818910E+02 -0.96248254432E+01  0.24175993252E+02  0.47787267757E+02  0.19999985009E+02 0.  0.
         12    1    1    2    0    0  0.34734818910E+02  0.96248254432E+01 -0.24175993252E+02  0.43400732243E+02  0.00000000000E+00 0. -1.
         11    1    3    3    0    0  0.33496487440E+00 -0.24798355786E+01 -0.11402865891E+01  0.27499163133E+01  0.51100000000E-03 0. -1.
        -11    1    3    3    0    0 -0.55383923513E+01  0.26065798078E+01  0.48186928344E+01  0.77902406269E+01  0.51100000000E-03 0.  1.
        -12    1    3    3    0    0 -0.29531391433E+02 -0.97515696724E+01  0.20497587007E+02  0.37247110816E+02  0.00000000000E+00 0.  1.
</event>
<event>
 7    1  0.2486105E-010  0.4778728E+02  0.7816164E-02  0.1312668E+00
        -11   -1    0    0    0    0  0.00000000000E+00  0.00000000000E+00  0.45593999997E+02  0.45594000000E+02  0.51100000000E-03 0.  1.
         11   -1    0    0    0    0 -0.00000000000E+00 -0.00000000000E+00 -0.45593999997E+02  0.45594000000E+02  0.51100000000E-03 0. -1.
    9900012    2    1    2    0    0 -0.35249569927E+02 -0.18101030817E+02  0.17704323671E+02  0.47787279115E+02  0.20000036798E+02 0.  0.
         12    1    1    2    0    0  0.35249569927E+02  0.18101030817E+02 -0.17704323671E+02  0.43400720885E+02  0.00000000000E+00 0. -1.
         11    1    3    3    0    0 -0.76782366214E+01 -0.19651376450E+00 -0.58260655117E+00  0.77028154546E+01  0.51100000000E-03 0. -1.
        -11    1    3    3    0    0 -0.10280792966E+02 -0.52207291524E-01  0.86243016299E+01  0.13419240235E+02  0.51100000000E-03 0.  1.
         12    1    3    3    0    0 -0.17290540339E+02 -0.17852309761E+02  0.96626285927E+01  0.26665223426E+02  0.00000000000E+00 0. -1.
</event>
<event>
 7    1  0.2486105E-010  0.4778727E+02  0.7816164E-02  0.1312668E+00
        -11   -1    0    0    0    0  0.00000000000E+00  0.00000000000E+00  0.45593999997E+02  0.45594000000E+02  0.51100000000E-03 0. -1.
         11   -1    0    0    0    0 -0.00000000000E+00 -0.00000000000E+00 -0.45593999997E+02  0.45594000000E+02  0.51100000000E-03 0.  1.
    9900012    2    1    2    0    0 -0.11633804938E+02  0.41397105749E+02 -0.58785573032E+01  0.47787271691E+02  0.20000002950E+02 0.  0.
         12    1    1    2    0    0  0.11633804938E+02 -0.41397105749E+02  0.58785573032E+01  0.43400728309E+02  0.00000000000E+00 0. -1.
         11    1    3    3    0    0 -0.17905834011E+01  0.89446606949E+01  0.53532467999E+01  0.10576880231E+02  0.51100000000E-03 0. -1.
        -11    1    3    3    0    0 -0.32339313300E+01  0.15532585170E+01  0.23663248578E+00  0.35954024896E+01  0.51100000000E-03 0.  1.
        -12    1    3    3    0    0 -0.66092902066E+01  0.30899186537E+02 -0.11468436589E+02  0.33614988971E+02  0.00000000000E+00 0.  1.
</event>
<event>
 7    1  0.2486105E-010  0.4778727E+02  0.7816164E-02  0.1312668E+00
        -11   -1    0    0    0    0  0.00000000000E+00  0.00000000000E+00  0.45593999997E+02  0.45594000000E+02  0.51100000000E-03 0.  1.
         11   -1    0    0    0    0 -0.00000000000E+00 -0.00000000000E+00 -0.45593999997E+02  0.45594000000E+02  0.51100000000E-03 0. -1.
    9900012    2    1    2    0    0 -0.15208240261E+02  0.27613664393E+02  0.29829821170E+02  0.47787271157E+02  0.20000000515E+02 0.  0.
         12    1    1    2    0    0  0.15208240261E+02 -0.27613664393E+02 -0.29829821170E+02  0.43400728843E+02  0.00000000000E+00 0. -1.
         11    1    3    3    0    0  0.82092428328E+00  0.43272824767E+01 -0.14821543443E+01  0.46471574186E+01  0.51100000000E-03 0. -1.
        -11    1    3    3    0    0 -0.33704288647E+01  0.38952107622E+00  0.24517055259E+01  0.41859739187E+01  0.51100000000E-03 0.  1.
        -12    1    3    3    0    0 -0.12658735680E+02  0.22896860840E+02  0.28860269988E+02  0.38954139820E+02  0.00000000000E+00 0.  1.
</event>
<event>
 7    1  0.2486105E-010  0.4778727E+02  0.7816164E-02  0.1312668E+00
        -11   -1    0    0    0    0  0.00000000000E+00  0.00000000000E+00  0.45593999997E+02  0.45594000000E+02  0.51100000000E-03 0. -1.
         11   -1    0    0    0    0 -0.00000000000E+00 -0.00000000000E+00 -0.45593999997E+02  0.45594000000E+02  0.51100000000E-03 0.  1.
    9900012    2    1    2    0    0  0.13276483035E+02 -0.12629754014E+02 -0.39342695991E+02  0.47787269406E+02  0.19999992532E+02 0.  0.
         12    1    1    2    0    0 -0.13276483035E+02  0.12629754014E+02  0.39342695991E+02  0.43400730594E+02  0.00000000000E+00 0. -1.
         11    1    3    3    0    0 -0.99201887082E+00 -0.25636029015E+01 -0.84727361035E+01  0.89074922743E+01  0.51100000000E-03 0. -1.
        -11    1    3    3    0    0  0.34382566605E+01 -0.71435026664E+01 -0.24984032347E+02  0.26211697995E+02  0.51100000000E-03 0.  1.
         12    1    3    3    0    0  0.10830245245E+02 -0.29226484458E+01 -0.58859275403E+01  0.12668079137E+02  0.00000000000E+00 0. -1.
</event>
<event>
 7    1  0.2486105E-010  0.4778727E+02  0.7816164E-02  0.1312668E+00
        -11   -1    0    0    0    0  0.00000000000E+00  0.00000000000E+00  0.45593999997E+02  0.45594000000E+02  0.51100000000E-03 0.  1.
         11   -1    0    0    0    0 -0.00000000000E+00 -0.00000000000E+00 -0.45593999997E+02  0.45594000000E+02  0.51100000000E-03 0. -1.
    9900012    2    1    2    0    0  0.42170827986E+02 -0.10222935097E+02  0.85784530908E+00  0.47787273813E+02  0.20000012622E+02 0.  0.
         12    1    1    2    0    0 -0.42170827986E+02  0.10222935097E+02 -0.85784530908E+00  0.43400726187E+02  0.00000000000E+00 0. -1.
         11    1    3    3    0    0  0.13229569755E+02 -0.41282299852E+01 -0.33892125002E+01  0.14267114647E+02  0.51100000000E-03 0. -1.
        -11    1    3    3    0    0  0.51178600420E+01 -0.74841848938E+01  0.32629484407E+01  0.96359923061E+01  0.51100000000E-03 0.  1.
        -12    1    3    3    0    0  0.23823398189E+02  0.13894797823E+01  0.98410936855E+00  0.23884166860E+02  0.00000000000E+00 0.  1.
</event>
<event>
 7    1  0.2486105E-010  0.4778727E+02  0.7816164E-02  0.1312668E+00
        -11   -1    0    0    0    0  0.00000000000E+00  0.00000000000E+00  0.45593999997E+02  0.45594000000E+02  0.51100000000E-03 0. -1.
         11   -1    0    0    0    0 -0.00000000000E+00 -0.00000000000E+00 -0.45593999997E+02  0.45594000000E+02  0.51100000000E-03 0.  1.
    9900012    2    1    2    0    0 -0.87534442525E+01  0.42454862052E+02 -0.21413626799E+01  0.47787268068E+02  0.19999986428E+02 0.  0.
         12    1    1    2    0    0  0.87534442525E+01 -0.42454862052E+02  0.21413626799E+01  0.43400731932E+02  0.00000000000E+00 0. -1.
         11    1    3    3    0    0  0.14779695864E+01  0.60042577504E+00  0.36802864005E+00  0.16371776173E+01  0.51100000000E-03 0. -1.
        -11    1    3    3    0    0  0.13111992799E+01  0.13803813114E+02  0.52734546438E+01  0.14834885378E+02  0.51100000000E-03 0.  1.
         12    1    3    3    0    0 -0.11542613119E+02  0.28050623162E+02 -0.77828459638E+01  0.31315205072E+02  0.00000000000E+00 0. -1.
</event>
<event>
 7    1  0.2848209E-010  0.4778727E+02  0.7816164E-02  0.1312668E+00
        -11   -1    0    0    0    0  0.00000000000E+00  0.00000000000E+00  0.45593999997E+02  0.45594000000E+02  0.51100000000E-03 0. -1.
         11   -1    0    0    0    0 -0.00000000000E+00 -0.00000000000E+00 -0.45593999997E+02  0.45594000000E+02  0.51100000000E-03 0.  1.
    9900012    2    1    2    0    0  0.56502539508E+01 -0.17564499602E+01 -0.42995497024E+02  0.47787271313E+02  0.20000001225E+02 0.  0.
         12    1    1    2    0    0 -0.56502539508E+01  0.17564499602E+01  0.42995497024E+02  0.43400728687E+02  0.00000000000E+00 0. -1.
         11    1    3    3    0    0 -0.44509893257E+01  0.35108471505E+00 -0.46261490212E+01  0.64292940112E+01  0.51100000000E-03 0. -1.
        -11    1    3    3    0    0  0.71915981832E+00 -0.54297613249E+01 -0.13069306291E+02  0.14170612763E+02  0.51100000000E-03 0.  1.
        -12    1    3    3    0    0  0.93820834582E+01  0.33222266497E+01 -0.25300041712E+02  0.27187364539E+02  0.00000000000E+00 0.  1.
</event>
<event>
 7    1  0.2486105E-010  0.4778724E+02  0.7816164E-02  0.1312668E+00
        -11   -1    0    0    0    0  0.00000000000E+00  0.00000000000E+00  0.45593999997E+02  0.45594000000E+02  0.51100000000E-03 0.  1.
         11   -1    0    0    0    0 -0.00000000000E+00 -0.00000000000E+00 -0.45593999997E+02  0.45594000000E+02  0.51100000000E-03 0. -1.
    9900012    2    1    2    0    0  0.19896084136E+02 -0.30911911696E+02 -0.23070010044E+02  0.47787241803E+02  0.19999866675E+02 0.  0.
         12    1    1    2    0    0 -0.19896084136E+02  0.30911911696E+02  0.23070010044E+02  0.43400758197E+02  0.00000000000E+00 0. -1.
         11    1    3    3    0    0  0.70244976993E+01 -0.18342751806E+02 -0.12104243220E+02  0.23071905339E+02  0.51100000000E-03 0. -1.
        -11    1    3    3    0    0  0.13647422309E+02 -0.14118461478E+02 -0.11672994634E+02  0.22843859003E+02  0.51100000000E-03 0.  1.
        -12    1    3    3    0    0 -0.77583587252E+00  0.15493015880E+01  0.70722780983E+00  0.18714774609E+01  0.00000000000E+00 0.  1.
</event>
<event>
 7    1  0.2486105E-010  0.4778727E+02  0.7816164E-02  0.1312668E+00
        -11   -1    0    0    0    0  0.00000000000E+00  0.00000000000E+00  0.45593999997E+02  0.45594000000E+02  0.51100000000E-03 0.  1.
         11   -1    0    0    0    0 -0.00000000000E+00 -0.00000000000E+00 -0.45593999997E+02  0.45594000000E+02  0.51100000000E-03 0. -1.
    9900012    2    1    2    0    0  0.78839058194E+01 -0.41020155782E+02  0.11781931124E+02  0.47787273597E+02  0.20000011637E+02 0.  0.
         12    1    1    2    0    0 -0.78839058194E+01  0.41020155782E+02 -0.11781931124E+02  0.43400726403E+02  0.00000000000E+00 0. -1.
         11    1    3    3    0    0  0.47054530536E+01 -0.22135587322E+02  0.45211324926E+01  0.23077394866E+02  0.51100000000E-03 0. -1.
        -11    1    3    3    0    0  0.17582624276E+01 -0.14841554312E+02 -0.14364959522E+01  0.15014217997E+02  0.51100000000E-03 0.  1.
         12    1    3    3    0    0  0.14201903383E+01 -0.40430141477E+01  0.86972945840E+01  0.96956607344E+01  0.00000000000E+00 0. -1.
</event>
<event>
 7    1  0.2486105E-010  0.4778727E+02  0.7816164E-02  0.1312668E+00
        -11   -1    0    0    0    0  0.00000000000E+00  0.00000000000E+00  0.45593999997E+02  0.45594000000E+02  0.51100000000E-03 0.  1.
         11   -1    0    0    0    0 -0.00000000000E+00 -0.00000000000E+00 -0.45593999997E+02  0.45594000000E+02  0.51100000000E-03 0. -1.
    9900012    2    1    2    0    0  0.11842353473E+02 -0.90788953818E+01  0.40754825203E+02  0.47787268964E+02  0.19999990513E+02 0.  0.
         12    1    1    2    0    0 -0.11842353473E+02  0.90788953818E+01 -0.40754825203E+02  0.43400731036E+02  0.00000000000E+00 0. -1.
         11    1    3    3    0    0 -0.12692324250E+01 -0.35049064002E+00 -0.51968374252E+00  0.14155797719E+01  0.51100000000E-03 0. -1.
        -11    1    3    3    0    0  0.90234001612E+01  0.18506915047E+01  0.13231215027E+02  0.16121782186E+02  0.51100000000E-03 0.  1.
         12    1    3    3    0    0  0.40881857371E+01 -0.10579096246E+02  0.28043293919E+02  0.30249907005E+02  0.00000000000E+00 0. -1.
</event>
<event>
 7    1  0.2486105E-010  0.4778727E+02  0.7816164E-02  0.1312668E+00
        -11   -1    0    0    0    0  0.00000000000E+00  0.00000000000E+00  0.45593999997E+02  0.45594000000E+02  0.51100000000E-03 0.  1.
         11   -1    0    0    0    0 -0.00000000000E+00 -0.00000000000E+00 -0.45593999997E+02  0.45594000000E+02  0.51100000000E-03 0. -1.
    9900012    2    1    2    0    0 -0.10719426338E+01  0.24171572446E+02  0.36030672848E+02  0.47787270035E+02  0.19999995400E+02 0.  0.
         12    1    1    2    0    0  0.10719426338E+01 -0.24171572446E+02 -0.36030672848E+02  0.43400729965E+02  0.00000000000E+00 0. -1.
         11    1    3    3    0    0  0.40395373606E+01  0.48764933882E+01  0.10052365475E+01  0.64115950145E+01  0.51100000000E-03 0. -1.
        -11    1    3    3    0    0  0.12495451834E+01  0.12994380599E+01  0.41308057440E+00  0.18494697237E+01  0.51100000000E-03 0.  1.
        -12    1    3    3    0    0 -0.63610251778E+01  0.17995640998E+02  0.34612355727E+02  0.39526205297E+02  0.00000000000E+00 0.  1.
</event>
<event>
 7    1  0.2486105E-010  0.4778727E+02  0.7816164E-02  0.1312668E+00
        -11   -1    0    0    0    0  0.00000000000E+00  0.00000000000E+00  0.45593999997E+02  0.45594000000E+02  0.51100000000E-03 0.  1.
         11   -1    0    0    0    0 -0.00000000000E+00 -0.00000000000E+00 -0.45593999997E+02  0.45594000000E+02  0.51100000000E-03 0. -1.
    9900012    2    1    2    0    0  0.38565205314E+02  0.11265304691E+02  0.16414656698E+02  0.47787272988E+02  0.20000008861E+02 0.  0.
         12    1    1    2    0    0 -0.38565205314E+02 -0.11265304691E+02 -0.16414656698E+02  0.43400727012E+02  0.00000000000E+00 0. -1.
         11    1    3    3    0    0  0.13102581250E+01 -0.16703893941E+01  0.47649037657E+01  0.52164437349E+01  0.51100000000E-03 0. -1.
        -11    1    3    3    0    0  0.61978996518E+01  0.37869093855E+01  0.65784484898E+01  0.97995218037E+01  0.51100000000E-03 0.  1.
         12    1    3    3    0    0  0.31057047537E+02  0.91487846999E+01  0.50713044425E+01  0.32771307449E+02  0.00000000000E+00 0. -1.
</event>
<event>
 7    1  0.2486105E-010  0.4778727E+02  0.7816164E-02  0.1312668E+00
        -11   -1    0    0    0    0  0.00000000000E+00  0.00000000000E+00  0.45593999997E+02  0.45594000000E+02  0.51100000000E-03 0.  1.
         11   -1    0    0    0    0 -0.00000000000E+00 -0.00000000000E+00 -0.45593999997E+02  0.45594000000E+02  0.51100000000E-03 0. -1.
    9900012    2    1    2    0    0  0.56415767175E+01  0.12229984752E+02  0.41258005754E+02  0.47787274733E+02  0.20000016819E+02 0.  0.
         12    1    1    2    0    0 -0.56415767175E+01 -0.12229984752E+02 -0.41258005754E+02  0.43400725267E+02  0.00000000000E+00 0. -1.
         11    1    3    3    0    0  0.22199102060E+01 -0.75096383205E+00  0.14099628675E+02  0.14293056952E+02  0.51100000000E-03 0. -1.
        -11    1    3    3    0    0  0.32028164892E+01  0.12182851981E+02  0.28921943556E+02  0.31546136613E+02  0.51100000000E-03 0.  1.
         12    1    3    3    0    0  0.21885002230E+00  0.79809660348E+00 -0.17635664773E+01  0.19480811689E+01  0.00000000000E+00 0. -1.
</event>
<event>
 7    1  0.2486105E-010  0.4778727E+02  0.7816164E-02  0.1312668E+00
        -11   -1    0    0    0    0  0.00000000000E+00  0.00000000000E+00  0.45593999997E+02  0.45594000000E+02  0.51100000000E-03 0.  1.
         11   -1    0    0    0    0 -0.00000000000E+00 -0.00000000000E+00 -0.45593999997E+02  0.45594000000E+02  0.51100000000E-03 0. -1.
    9900012    2    1    2    0    0  0.23728411845E+02  0.14724626522E+02  0.33223050197E+02  0.47787271673E+02  0.20000002868E+02 0.  0.
         12    1    1    2    0    0 -0.23728411845E+02 -0.14724626522E+02 -0.33223050197E+02  0.43400728327E+02  0.00000000000E+00 0. -1.
         11    1    3    3    0    0  0.55388046561E+01 -0.24635876075E+01  0.77503553746E+01  0.98394933616E+01  0.51100000000E-03 0. -1.
        -11    1    3    3    0    0  0.91139101023E+01  0.54246890464E+01  0.18961117833E+02  0.21725896951E+02  0.51100000000E-03 0.  1.
         12    1    3    3    0    0  0.90756970861E+01  0.11763525083E+02  0.65115769896E+01  0.16221881361E+02  0.00000000000E+00 0. -1.
</event>
<event>
 7    1  0.2486105E-010  0.4778727E+02  0.7816164E-02  0.1312668E+00
        -11   -1    0    0    0    0  0.00000000000E+00  0.00000000000E+00  0.45593999997E+02  0.45594000000E+02  0.51100000000E-03 0. -1.
         11   -1    0    0    0    0 -0.00000000000E+00 -0.00000000000E+00 -0.45593999997E+02  0.45594000000E+02  0.51100000000E-03 0.  1.
    9900012    2    1    2    0    0  0.23757301127E+02 -0.16001044913E+02 -0.32606450056E+02  0.47787269818E+02  0.19999994407E+02 0.  0.
         12    1    1    2    0    0 -0.23757301127E+02  0.16001044913E+02  0.32606450056E+02  0.43400730182E+02  0.00000000000E+00 0. -1.
         11    1    3    3    0    0 -0.48572822008E+00 -0.34066318979E+01 -0.16099466749E+01  0.37990790132E+01  0.51100000000E-03 0. -1.
        -11    1    3    3    0    0  0.39139732852E+00  0.17889685150E+01 -0.69627907480E+01  0.71995871742E+01  0.51100000000E-03 0.  1.
        -12    1    3    3    0    0  0.23851632018E+02 -0.14383381530E+02 -0.24033712633E+02  0.36788603630E+02  0.00000000000E+00 0.  1.
</event>
<event>
 7    1  0.2486105E-010  0.4778727E+02  0.7816164E-02  0.1312668E+00
        -11   -1    0    0    0    0  0.00000000000E+00  0.00000000000E+00  0.45593999997E+02  0.45594000000E+02  0.51100000000E-03 0.  1.
         11   -1    0    0    0    0 -0.00000000000E+00 -0.00000000000E+00 -0.45593999997E+02  0.45594000000E+02  0.51100000000E-03 0. -1.
    9900012    2    1    2    0    0  0.10202394038E+02 -0.27837460957E+01  0.42092578420E+02  0.47787271383E+02  0.20000001545E+02 0.  0.
         12    1    1    2    0    0 -0.10202394038E+02  0.27837460957E+01 -0.42092578420E+02  0.43400728617E+02  0.00000000000E+00 0. -1.
         11    1    3    3    0    0 -0.18336450286E+01  0.14237266276E+01  0.15742965414E+01  0.28049351976E+01  0.51100000000E-03 0. -1.
        -11    1    3    3    0    0  0.12631279277E+01  0.49680071021E+01  0.14267077791E+02  0.15160016349E+02  0.51100000000E-03 0.  1.
        -12    1    3    3    0    0  0.10772911139E+02 -0.91754798254E+01  0.26251204087E+02  0.29822319837E+02  0.00000000000E+00 0.  1.
</event>
<event>
 7    1  0.2486105E-010  0.4778722E+02  0.7816164E-02  0.1312668E+00
        -11   -1    0    0    0    0  0.00000000000E+00  0.00000000000E+00  0.45593999997E+02  0.45594000000E+02  0.51100000000E-03 0.  1.
         11   -1    0    0    0    0 -0.00000000000E+00 -0.00000000000E+00 -0.45593999997E+02  0.45594000000E+02  0.51100000000E-03 0. -1.
    9900012    2    1    2    0    0 -0.22948704325E+01 -0.10599851410E+02  0.42023851843E+02  0.47787223464E+02  0.19999783060E+02 0.  0.
         12    1    1    2    0    0  0.22948704325E+01  0.10599851410E+02 -0.42023851843E+02  0.43400776536E+02  0.00000000000E+00 0. -1.
         11    1    3    3    0    0  0.98143467182E+00 -0.10082375688E+02  0.74085418673E+01  0.12550060016E+02  0.51100000000E-03 0. -1.
        -11    1    3    3    0    0  0.10146136243E+01  0.11907785332E+01  0.43767365141E+01  0.46479261071E+01  0.51100000000E-03 0.  1.
         12    1    3    3    0    0 -0.42909187286E+01 -0.17082542549E+01  0.30238573461E+02  0.30589237341E+02  0.00000000000E+00 0. -1.
</event>
<event>
 7    1  0.2486105E-010  0.4778726E+02  0.7816164E-02  0.1312668E+00
        -11   -1    0    0    0    0  0.00000000000E+00  0.00000000000E+00  0.45593999997E+02  0.45594000000E+02  0.51100000000E-03 0. -1.
         11   -1    0    0    0    0 -0.00000000000E+00 -0.00000000000E+00 -0.45593999997E+02  0.45594000000E+02  0.51100000000E-03 0.  1.
    9900012    2    1    2    0    0  0.41075105007E+02  0.13760085299E+02 -0.26682718083E+01  0.47787264140E+02  0.19999968521E+02 0.  0.
         12    1    1    2    0    0 -0.41075105007E+02 -0.13760085299E+02  0.26682718083E+01  0.43400735860E+02  0.00000000000E+00 0. -1.
         11    1    3    3    0    0  0.13726954413E+01  0.20633293100E+01 -0.24648143612E+01  0.34952726235E+01  0.51100000000E-03 0. -1.
        -11    1    3    3    0    0  0.20171580449E+02  0.12414024353E+02 -0.49105748321E+01  0.24189138139E+02  0.51100000000E-03 0.  1.
         12    1    3    3    0    0  0.19530829116E+02 -0.71726836432E+00  0.47071173850E+01  0.20102853378E+02  0.00000000000E+00 0. -1.
</event>
<event>
 7    1  0.2486105E-010  0.4778727E+02  0.7816164E-02  0.1312668E+00
        -11   -1    0    0    0    0  0.00000000000E+00  0.00000000000E+00  0.45593999997E+02  0.45594000000E+02  0.51100000000E-03 0.  1.
         11   -1    0    0    0    0 -0.00000000000E+00 -0.00000000000E+00 -0.45593999997E+02  0.45594000000E+02  0.51100000000E-03 0. -1.
    9900012    2    1    2    0    0 -0.20225341021E+02  0.35143664236E+02  0.15475193243E+02  0.47787272342E+02  0.20000005918E+02 0.  0.
         12    1    1    2    0    0  0.20225341021E+02 -0.35143664236E+02 -0.15475193243E+02  0.43400727658E+02  0.00000000000E+00 0. -1.
         11    1    3    3    0    0 -0.43438620468E+01 -0.13591288729E+00  0.13633958687E+01  0.45548280265E+01  0.51100000000E-03 0. -1.
        -11    1    3    3    0    0 -0.61946758883E+01  0.10314468703E+02 -0.16736118914E+01  0.12147561525E+02  0.51100000000E-03 0.  1.
         12    1    3    3    0    0 -0.96868030856E+01  0.24965108420E+02  0.15785409265E+02  0.31084882791E+02  0.00000000000E+00 0. -1.
</event>
<event>
 7    1  0.2486105E-010  0.4778727E+02  0.7816164E-02  0.1312668E+00
        -11   -1    0    0    0    0  0.00000000000E+00  0.00000000000E+00  0.45593999997E+02  0.45594000000E+02  0.51100000000E-03 0.  1.
         11   -1    0    0    0    0 -0.00000000000E+00 -0.00000000000E+00 -0.45593999997E+02  0.45594000000E+02  0.51100000000E-03 0. -1.
    9900012    2    1    2    0    0  0.30629046870E+02  0.35018750124E+01  0.30548679331E+02  0.47787269019E+02  0.19999990767E+02 0.  0.
         12    1    1    2    0    0 -0.30629046870E+02 -0.35018750124E+01 -0.30548679331E+02  0.43400730981E+02  0.00000000000E+00 0. -1.
         11    1    3    3    0    0  0.73837702211E+01  0.29958414768E+01  0.12913463191E+02  0.15174078578E+02  0.51100000000E-03 0. -1.
        -11    1    3    3    0    0  0.16816293139E+02  0.69553808988E+01  0.13219652624E+02  0.22492760038E+02  0.51100000000E-03 0.  1.
         12    1    3    3    0    0  0.64289835100E+01 -0.64493473631E+01  0.44155635163E+01  0.10120430403E+02  0.00000000000E+00 0. -1.
</event>
<event>
 7    1  0.2486105E-010  0.4778727E+02  0.7816164E-02  0.1312668E+00
        -11   -1    0    0    0    0  0.00000000000E+00  0.00000000000E+00  0.45593999997E+02  0.45594000000E+02  0.51100000000E-03 0.  1.
         11   -1    0    0    0    0 -0.00000000000E+00 -0.00000000000E+00 -0.45593999997E+02  0.45594000000E+02  0.51100000000E-03 0. -1.
    9900012    2    1    2    0    0  0.50550268750E+01 -0.31467485421E+02  0.29459596965E+02  0.47787265113E+02  0.19999972954E+02 0.  0.
         12    1    1    2    0    0 -0.50550268750E+01  0.31467485421E+02 -0.29459596965E+02  0.43400734887E+02  0.00000000000E+00 0. -1.
         11    1    3    3    0    0 -0.26345646966E+01 -0.40676737100E+01  0.72788004988E+00  0.49006846644E+01  0.51100000000E-03 0. -1.
        -11    1    3    3    0    0  0.59858492614E+01 -0.71156378891E+01  0.23980757454E+01  0.96027840489E+01  0.51100000000E-03 0.  1.
        -12    1    3    3    0    0  0.17037423102E+01 -0.20284173822E+02  0.26333641169E+02  0.33283796399E+02  0.00000000000E+00 0.  1.
</event>
<event>
 7    1  0.2486105E-010  0.4778727E+02  0.7816164E-02  0.1312668E+00
        -11   -1    0    0    0    0  0.00000000000E+00  0.00000000000E+00  0.45593999997E+02  0.45594000000E+02  0.51100000000E-03 0.  1.
         11   -1    0    0    0    0 -0.00000000000E+00 -0.00000000000E+00 -0.45593999997E+02  0.45594000000E+02  0.51100000000E-03 0. -1.
    9900012    2    1    2    0    0  0.23657267720E+02 -0.21872759334E+01  0.36320417759E+02  0.47787271456E+02  0.20000001878E+02 0.  0.
         12    1    1    2    0    0 -0.23657267720E+02  0.21872759334E+01 -0.36320417759E+02  0.43400728544E+02  0.00000000000E+00 0. -1.
         11    1    3    3    0    0 -0.27413536295E+00 -0.11053323598E+01  0.34504975528E+01  0.36335717202E+01  0.51100000000E-03 0. -1.
        -11    1    3    3    0    0  0.25647743714E+02  0.21677624170E+00  0.33223978026E+02  0.41972448888E+02  0.51100000000E-03 0.  1.
        -12    1    3    3    0    0 -0.17163406314E+01 -0.12987198153E+01 -0.35405781986E+00  0.21812508479E+01  0.00000000000E+00 0.  1.
</event>
<event>
 7    1  0.2486105E-010  0.4778727E+02  0.7816164E-02  0.1312668E+00
        -11   -1    0    0    0    0  0.00000000000E+00  0.00000000000E+00  0.45593999997E+02  0.45594000000E+02  0.51100000000E-03 0.  1.
         11   -1    0    0    0    0 -0.00000000000E+00 -0.00000000000E+00 -0.45593999997E+02  0.45594000000E+02  0.51100000000E-03 0. -1.
    9900012    2    1    2    0    0 -0.43025198928E+02 -0.33246897914E+01  0.46262412358E+01  0.47787269442E+02  0.19999992693E+02 0.  0.
         12    1    1    2    0    0  0.43025198928E+02  0.33246897914E+01 -0.46262412358E+01  0.43400730558E+02  0.00000000000E+00 0. -1.
         11    1    3    3    0    0 -0.88309835273E+01 -0.42338704764E+01 -0.26566175577E+01  0.10147391112E+02  0.51100000000E-03 0. -1.
        -11    1    3    3    0    0 -0.20264405850E+02 -0.63227174468E+01  0.45075924132E+01  0.21701181765E+02  0.51100000000E-03 0.  1.
         12    1    3    3    0    0 -0.13929809551E+02  0.72318981318E+01  0.27752663803E+01  0.15938696565E+02  0.00000000000E+00 0. -1.
</event>
<event>
 7    1  0.2486105E-010  0.4778724E+02  0.7816164E-02  0.1312668E+00
        -11   -1    0    0    0    0  0.00000000000E+00  0.00000000000E+00  0.45593999997E+02  0.45594000000E+02  0.51100000000E-03 0. -1.
         11   -1    0    0    0    0 -0.00000000000E+00 -0.00000000000E+00 -0.45593999997E+02  0.45594000000E+02  0.51100000000E-03 0.  1.
    9900012    2    1    2    0    0 -0.73617312573E+01 -0.16336348108E+02 -0.39529160395E+02  0.47787241042E+02  0.19999863208E+02 0.  0.
         12    1    1    2    0    0  0.73617312573E+01  0.16336348108E+02  0.39529160395E+02  0.43400758958E+02  0.00000000000E+00 0. -1.
         11    1    3    3    0    0 -0.53647296506E+00  0.13634400022E+00  0.62264356053E+00  0.83311355362E+00  0.51100000000E-03 0. -1.
        -11    1    3    3    0    0 -0.81501994679E+01 -0.96063781483E+01 -0.10236926671E+02  0.16232773035E+02  0.51100000000E-03 0.  1.
         12    1    3    3    0    0  0.13249411756E+01 -0.68663139598E+01 -0.29914877284E+02  0.30721354453E+02  0.00000000000E+00 0. -1.
</event>
<event>
 7    1  0.3417335E-010  0.4778727E+02  0.7816164E-02  0.1312668E+00
        -11   -1    0    0    0    0  0.00000000000E+00  0.00000000000E+00  0.45593999997E+02  0.45594000000E+02  0.51100000000E-03 0. -1.
         11   -1    0    0    0    0 -0.00000000000E+00 -0.00000000000E+00 -0.45593999997E+02  0.45594000000E+02  0.51100000000E-03 0.  1.
    9900012    2    1    2    0    0  0.68763084546E+01 -0.22545195327E+02 -0.36442473258E+02  0.47787270657E+02  0.19999998234E+02 0.  0.
         12    1    1    2    0    0 -0.68763084546E+01  0.22545195327E+02  0.36442473258E+02  0.43400729343E+02  0.00000000000E+00 0. -1.
         11    1    3    3    0    0  0.12403693170E+01 -0.17024917178E+01 -0.23303117108E+00  0.21192682416E+01  0.51100000000E-03 0. -1.
        -11    1    3    3    0    0  0.38764682224E+01 -0.72377715911E+01 -0.29061838633E+02  0.30199384240E+02  0.51100000000E-03 0.  1.
        -12    1    3    3    0    0  0.17594709152E+01 -0.13604932019E+02 -0.71476034543E+01  0.15468618176E+02  0.00000000000E+00 0.  1.
</event>
<event>
 7    1  0.2486105E-010  0.4778727E+02  0.7816164E-02  0.1312668E+00
        -11   -1    0    0    0    0  0.00000000000E+00  0.00000000000E+00  0.45593999997E+02  0.45594000000E+02  0.51100000000E-03 0.  1.
         11   -1    0    0    0    0 -0.00000000000E+00 -0.00000000000E+00 -0.45593999997E+02  0.45594000000E+02  0.51100000000E-03 0. -1.
    9900012    2    1    2    0    0  0.19525683962E+02 -0.37478915375E+02  0.98844173473E+01  0.47787272608E+02  0.20000007130E+02 0.  0.
         12    1    1    2    0    0 -0.19525683962E+02  0.37478915375E+02 -0.98844173473E+01  0.43400727392E+02  0.00000000000E+00 0. -1.
         11    1    3    3    0    0  0.80291442473E+01 -0.14093851614E+02  0.68290187675E+01  0.17599412156E+02  0.51100000000E-03 0. -1.
        -11    1    3    3    0    0  0.84302394009E+01 -0.89147381699E+01  0.79353577096E+01  0.14612029128E+02  0.51100000000E-03 0.  1.
         12    1    3    3    0    0  0.30663003134E+01 -0.14470325591E+02 -0.48799591298E+01  0.15575831324E+02  0.00000000000E+00 0. -1.
</event>
<event>
 7    1  0.2486105E-010  0.4778727E+02  0.7816164E-02  0.1312668E+00
        -11   -1    0    0    0    0  0.00000000000E+00  0.00000000000E+00  0.45593999997E+02  0.45594000000E+02  0.51100000000E-03 0.  1.
         11   -1    0    0    0    0 -0.00000000000E+00 -0.00000000000E+00 -0.45593999997E+02  0.45594000000E+02  0.51100000000E-03 0. -1.
    9900012    2    1    2    0    0  0.95907419682E+01 -0.29022508995E+02  0.30811280833E+02  0.47787269748E+02  0.19999994087E+02 0.  0.
         12    1    1    2    0    0 -0.95907419682E+01  0.29022508995E+02 -0.30811280833E+02  0.43400730252E+02  0.00000000000E+00 0. -1.
         11    1    3    3    0    0  0.41024729415E+01 -0.22826499268E+02  0.10128175453E+02  0.25307297195E+02  0.51100000000E-03 0. -1.
        -11    1    3    3    0    0  0.20856498337E+01 -0.30485268057E+01  0.56647127506E+01  0.67625750807E+01  0.51100000000E-03 0.  1.
         12    1    3    3    0    0  0.34026191930E+01 -0.31474829218E+01  0.15018392629E+02  0.15717397472E+02  0.00000000000E+00 0. -1.
</event>
<event>
 7    1  0.2486105E-010  0.4778727E+02  0.7816164E-02  0.1312668E+00
        -11   -1    0    0    0    0  0.00000000000E+00  0.00000000000E+00  0.45593999997E+02  0.45594000000E+02  0.51100000000E-03 0.  1.
         11   -1    0    0    0    0 -0.00000000000E+00 -0.00000000000E+00 -0.45593999997E+02  0.45594000000E+02  0.51100000000E-03 0. -1.
    9900012    2    1    2    0    0 -0.16818439431E+02  0.88870774661E+01  0.39010036003E+02  0.47787274663E+02  0.20000016500E+02 0.  0.
         12    1    1    2    0    0  0.16818439431E+02 -0.88870774661E+01 -0.39010036003E+02  0.43400725337E+02  0.00000000000E+00 0. -1.
         11    1    3    3    0    0 -0.84527667358E+00  0.16067460257E+01 -0.83429880264E+00  0.19980440934E+01  0.51100000000E-03 0. -1.
        -11    1    3    3    0    0 -0.32382451711E+01 -0.40252874335E+01  0.61177019508E+01  0.80072122571E+01  0.51100000000E-03 0.  1.
        -12    1    3    3    0    0 -0.12734917586E+02  0.11305618874E+02  0.33726632855E+02  0.37782018313E+02  0.00000000000E+00 0.  1.
</event>
<event>
 7    1  0.2486105E-010  0.4778727E+02  0.7816164E-02  0.1312668E+00
        -11   -1    0    0    0    0  0.00000000000E+00  0.00000000000E+00  0.45593999997E+02  0.45594000000E+02  0.51100000000E-03 0.  1.
         11   -1    0    0    0    0 -0.00000000000E+00 -0.00000000000E+00 -0.45593999997E+02  0.45594000000E+02  0.51100000000E-03 0. -1.
    9900012    2    1    2    0    0  0.24022586713E+02  0.22809374797E+01  0.36074035089E+02  0.47787270101E+02  0.19999995699E+02 0.  0.
         12    1    1    2    0    0 -0.24022586713E+02 -0.22809374797E+01 -0.36074035089E+02  0.43400729899E+02  0.00000000000E+00 0. -1.
         11    1    3    3    0    0 -0.27462869869E+00 -0.46544824937E+00 -0.96397657357E+00  0.11051308024E+01  0.51100000000E-03 0. -1.
        -11    1    3    3    0    0  0.11835842593E+02 -0.26167066245E+01  0.77033303303E+01  0.14362298628E+02  0.51100000000E-03 0.  1.
        -12    1    3    3    0    0  0.12461372819E+02  0.53630923536E+01  0.29334681332E+02  0.32319840671E+02  0.00000000000E+00 0.  1.
</event>
<event>
 7    1  0.2486105E-010  0.4778727E+02  0.7816164E-02  0.1312668E+00
        -11   -1    0    0    0    0  0.00000000000E+00  0.00000000000E+00  0.45593999997E+02  0.45594000000E+02  0.51100000000E-03 0.  1.
         11   -1    0    0    0    0 -0.00000000000E+00 -0.00000000000E+00 -0.45593999997E+02  0.45594000000E+02  0.51100000000E-03 0. -1.
    9900012    2    1    2    0    0 -0.25121291890E+02  0.60194862600E+01  0.34875634914E+02  0.47787269226E+02  0.19999991711E+02 0.  0.
         12    1    1    2    0    0  0.25121291890E+02 -0.60194862600E+01 -0.34875634914E+02  0.43400730774E+02  0.00000000000E+00 0. -1.
         11    1    3    3    0    0  0.25881458570E+01  0.18285430545E+01  0.52826184366E+00  0.32126514774E+01  0.51100000000E-03 0. -1.
        -11    1    3    3    0    0 -0.73668977039E+01  0.31616456295E+01  0.10559284168E+02  0.13257664473E+02  0.51100000000E-03 0.  1.
         12    1    3    3    0    0 -0.20342540043E+02  0.10292975760E+01  0.23788088902E+02  0.31316953276E+02  0.00000000000E+00 0. -1.
</event>
<event>
 7    1  0.2486105E-010  0.4778727E+02  0.7816164E-02  0.1312668E+00
        -11   -1    0    0    0    0  0.00000000000E+00  0.00000000000E+00  0.45593999997E+02  0.45594000000E+02  0.51100000000E-03 0.  1.
         11   -1    0    0    0    0 -0.00000000000E+00 -0.00000000000E+00 -0.45593999997E+02  0.45594000000E+02  0.51100000000E-03 0. -1.
    9900012    2    1    2    0    0  0.41834322939E+02  0.34776500824E+01  0.11019018431E+02  0.47787269671E+02  0.19999993738E+02 0.  0.
         12    1    1    2    0    0 -0.41834322939E+02 -0.34776500824E+01 -0.11019018431E+02  0.43400730329E+02  0.00000000000E+00 0. -1.
         11    1    3    3    0    0  0.29060568654E+02  0.10203503743E+02  0.11870575024E+02  0.33008160973E+02  0.51100000000E-03 0. -1.
        -11    1    3    3    0    0  0.63533669058E+01 -0.20539120669E+01  0.61181850422E+00  0.67050837401E+01  0.51100000000E-03 0.  1.
        -12    1    3    3    0    0  0.64203873795E+01 -0.46719415936E+01 -0.14633750967E+01  0.80740249585E+01  0.00000000000E+00 0.  1.
</event>
<event>
 7    1  0.2486105E-010  0.4778727E+02  0.7816164E-02  0.1312668E+00
        -11   -1    0    0    0    0  0.00000000000E+00  0.00000000000E+00  0.45593999997E+02  0.45594000000E+02  0.51100000000E-03 0. -1.
         11   -1    0    0    0    0 -0.00000000000E+00 -0.00000000000E+00 -0.45593999997E+02  0.45594000000E+02  0.51100000000E-03 0.  1.
    9900012    2    1    2    0    0  0.20061379900E+02 -0.28888832718E+02  0.25428322937E+02  0.47787271588E+02  0.20000002477E+02 0.  0.
         12    1    1    2    0    0 -0.20061379900E+02  0.28888832718E+02 -0.25428322937E+02  0.43400728412E+02  0.00000000000E+00 0. -1.
         11    1    3    3    0    0  0.10253350004E+01 -0.50639488713E+01  0.93289894573E+01  0.10664189355E+02  0.51100000000E-03 0. -1.
        -11    1    3    3    0    0 -0.10183686121E+01 -0.11811924685E+00 -0.11997123685E+01  0.15780801041E+01  0.51100000000E-03 0.  1.
        -12    1    3    3    0    0  0.20054413511E+02 -0.23706764600E+02  0.17299045848E+02  0.35545002129E+02  0.00000000000E+00 0.  1.
</event>
<event>
 7    1  0.2486105E-010  0.4778727E+02  0.7816164E-02  0.1312668E+00
        -11   -1    0    0    0    0  0.00000000000E+00  0.00000000000E+00  0.45593999997E+02  0.45594000000E+02  0.51100000000E-03 0.  1.
         11   -1    0    0    0    0 -0.00000000000E+00 -0.00000000000E+00 -0.45593999997E+02  0.45594000000E+02  0.51100000000E-03 0. -1.
    9900012    2    1    2    0    0  0.25317698274E+02 -0.31988540119E+02  0.14811167962E+02  0.47787271421E+02  0.20000001715E+02 0.  0.
         12    1    1    2    0    0 -0.25317698274E+02  0.31988540119E+02 -0.14811167962E+02  0.43400728579E+02  0.00000000000E+00 0. -1.
         11    1    3    3    0    0  0.12230111695E+02 -0.13727990966E+02  0.16126880385E+02  0.24456280160E+02  0.51100000000E-03 0. -1.
        -11    1    3    3    0    0 -0.27489748853E+00 -0.14921231652E+01 -0.11247783422E+01  0.18886838670E+01  0.51100000000E-03 0.  1.
        -12    1    3    3    0    0  0.13362484067E+02 -0.16768425988E+02 -0.19093408044E+00  0.21442307394E+02  0.00000000000E+00 0.  1.
</event>
<event>
 7    1  0.2486105E-010  0.4778726E+02  0.7816164E-02  0.1312668E+00
        -11   -1    0    0    0    0  0.00000000000E+00  0.00000000000E+00  0.45593999997E+02  0.45594000000E+02  0.51100000000E-03 0.  1.
         11   -1    0    0    0    0 -0.00000000000E+00 -0.00000000000E+00 -0.45593999997E+02  0.45594000000E+02  0.51100000000E-03 0. -1.
    9900012    2    1    2    0    0  0.34032501040E+02 -0.23589454556E+02  0.12998089734E+02  0.47787264637E+02  0.19999970785E+02 0.  0.
         12    1    1    2    0    0 -0.34032501040E+02  0.23589454556E+02 -0.12998089734E+02  0.43400735363E+02  0.00000000000E+00 0. -1.
         11    1    3    3    0    0  0.12421869026E+02  0.12014499022E+01  0.68511279560E+01  0.14236722463E+02  0.51100000000E-03 0. -1.
        -11    1    3    3    0    0  0.95393826010E+01 -0.10413315690E+02  0.14337646700E+01  0.14194810512E+02  0.51100000000E-03 0.  1.
         12    1    3    3    0    0  0.12071249414E+02 -0.14377588769E+02  0.47131971079E+01  0.19355731662E+02  0.00000000000E+00 0. -1.
</event>
<event>
 7    1  0.2486105E-010  0.4778727E+02  0.7816164E-02  0.1312668E+00
        -11   -1    0    0    0    0  0.00000000000E+00  0.00000000000E+00  0.45593999997E+02  0.45594000000E+02  0.51100000000E-03 0. -1.
         11   -1    0    0    0    0 -0.00000000000E+00 -0.00000000000E+00 -0.45593999997E+02  0.45594000000E+02  0.51100000000E-03 0.  1.
    9900012    2    1    2    0    0 -0.15126920706E+02 -0.32219362214E+02 -0.24833690495E+02  0.47787271721E+02  0.20000003086E+02 0.  0.
         12    1    1    2    0    0  0.15126920706E+02  0.32219362214E+02  0.24833690495E+02  0.43400728279E+02  0.00000000000E+00 0. -1.
         11    1    3    3    0    0 -0.33361310829E+01 -0.98666258582E+01 -0.55450642355E+01  0.11799483636E+02  0.51100000000E-03 0. -1.
        -11    1    3    3    0    0 -0.91080309443E+01 -0.22253245945E+02 -0.95268084259E+01  0.25863550836E+02  0.51100000000E-03 0.  1.
         12    1    3    3    0    0 -0.26827586792E+01 -0.99490409822E-01 -0.97618178338E+01  0.10124237250E+02  0.00000000000E+00 0. -1.
</event>
<event>
 7    1  0.2486105E-010  0.4778726E+02  0.7816164E-02  0.1312668E+00
        -11   -1    0    0    0    0  0.00000000000E+00  0.00000000000E+00  0.45593999997E+02  0.45594000000E+02  0.51100000000E-03 0.  1.
         11   -1    0    0    0    0 -0.00000000000E+00 -0.00000000000E+00 -0.45593999997E+02  0.45594000000E+02  0.51100000000E-03 0. -1.
    9900012    2    1    2    0    0  0.36768166839E+02  0.30311770603E+01  0.22859093092E+02  0.47787259637E+02  0.19999947990E+02 0.  0.
         12    1    1    2    0    0 -0.36768166839E+02 -0.30311770603E+01 -0.22859093092E+02  0.43400740363E+02  0.00000000000E+00 0. -1.
         11    1    3    3    0    0  0.13249100650E+02 -0.20156428571E+01  0.43247429631E+01  0.14082076768E+02  0.51100000000E-03 0. -1.
        -11    1    3    3    0    0  0.20519661153E+02  0.60690604402E+00  0.82804134147E+01  0.22135719445E+02  0.51100000000E-03 0.  1.
        -12    1    3    3    0    0  0.29994050359E+01  0.44399138733E+01  0.10253936714E+02  0.11569463424E+02  0.00000000000E+00 0.  1.
</event>
<event>
 7    1  0.2486105E-010  0.4778727E+02  0.7816164E-02  0.1312668E+00
        -11   -1    0    0    0    0  0.00000000000E+00  0.00000000000E+00  0.45593999997E+02  0.45594000000E+02  0.51100000000E-03 0. -1.
         11   -1    0    0    0    0 -0.00000000000E+00 -0.00000000000E+00 -0.45593999997E+02  0.45594000000E+02  0.51100000000E-03 0.  1.
    9900012    2    1    2    0    0 -0.29764128896E+02 -0.22888033560E+02  0.21768268751E+02  0.47787274504E+02  0.20000015772E+02 0.  0.
         12    1    1    2    0    0  0.29764128896E+02  0.22888033560E+02 -0.21768268751E+02  0.43400725496E+02  0.00000000000E+00 0. -1.
         11    1    3    3    0    0 -0.13365542465E+01 -0.88915514215E+01  0.35244232732E+01  0.96575164305E+01  0.51100000000E-03 0.  1.
        -11    1    3    3    0    0 -0.16178659544E+01  0.14745525379E+01  0.27507759273E+01  0.35154749177E+01  0.51100000000E-03 0. -1.
        -12    1    3    3    0    0 -0.26809708695E+02 -0.15471034676E+02  0.15493069551E+02  0.34614283156E+02  0.00000000000E+00 0.  1.
</event>
<event>
 7    1  0.2486105E-010  0.4778727E+02  0.7816164E-02  0.1312668E+00
        -11   -1    0    0    0    0  0.00000000000E+00  0.00000000000E+00  0.45593999997E+02  0.45594000000E+02  0.51100000000E-03 0. -1.
         11   -1    0    0    0    0 -0.00000000000E+00 -0.00000000000E+00 -0.45593999997E+02  0.45594000000E+02  0.51100000000E-03 0.  1.
    9900012    2    1    2    0    0  0.15862364679E+02  0.22078609578E+02  0.33831102448E+02  0.47787272968E+02  0.20000008769E+02 0.  0.
         12    1    1    2    0    0 -0.15862364679E+02 -0.22078609578E+02 -0.33831102448E+02  0.43400727032E+02  0.00000000000E+00 0. -1.
         11    1    3    3    0    0  0.71374174597E+01  0.66501843700E+01  0.11976914191E+02  0.15447140640E+02  0.51100000000E-03 0. -1.
        -11    1    3    3    0    0  0.11870380220E+02  0.65760150272E+01  0.85001515457E+01  0.16012572460E+02  0.51100000000E-03 0.  1.
         12    1    3    3    0    0 -0.31454330010E+01  0.88524101804E+01  0.13354036711E+02  0.16327559868E+02  0.00000000000E+00 0. -1.
</event>
<event>
 7    1  0.2486105E-010  0.4778727E+02  0.7816164E-02  0.1312668E+00
        -11   -1    0    0    0    0  0.00000000000E+00  0.00000000000E+00  0.45593999997E+02  0.45594000000E+02  0.51100000000E-03 0.  1.
         11   -1    0    0    0    0 -0.00000000000E+00 -0.00000000000E+00 -0.45593999997E+02  0.45594000000E+02  0.51100000000E-03 0. -1.
    9900012    2    1    2    0    0  0.30285083335E+02 -0.77060543727E+01  0.30117329778E+02  0.47787273053E+02  0.20000009156E+02 0.  0.
         12    1    1    2    0    0 -0.30285083335E+02  0.77060543727E+01 -0.30117329778E+02  0.43400726947E+02  0.00000000000E+00 0. -1.
         11    1    3    3    0    0  0.51821583128E+01  0.33882675120E+01  0.42600669450E+01  0.75155367173E+01  0.51100000000E-03 0. -1.
        -11    1    3    3    0    0  0.14444910282E+02 -0.53304009507E+00  0.66839645479E+01  0.15925292686E+02  0.51100000000E-03 0.  1.
        -12    1    3    3    0    0  0.10658014740E+02 -0.10561281790E+02  0.19173298285E+02  0.24346443650E+02  0.00000000000E+00 0.  1.
</event>
<event>
 7    1  0.2486105E-010  0.4778727E+02  0.7816164E-02  0.1312668E+00
        -11   -1    0    0    0    0  0.00000000000E+00  0.00000000000E+00  0.45593999997E+02  0.45594000000E+02  0.51100000000E-03 0.  1.
         11   -1    0    0    0    0 -0.00000000000E+00 -0.00000000000E+00 -0.45593999997E+02  0.45594000000E+02  0.51100000000E-03 0. -1.
    9900012    2    1    2    0    0 -0.15716238432E+02 -0.79808055066E+01  0.39660176253E+02  0.47787274345E+02  0.20000015047E+02 0.  0.
         12    1    1    2    0    0  0.15716238432E+02  0.79808055066E+01 -0.39660176253E+02  0.43400725655E+02  0.00000000000E+00 0. -1.
         11    1    3    3    0    0 -0.79687244153E+01  0.33638748843E+01  0.14164706660E+02  0.16596841208E+02  0.51100000000E-03 0. -1.
        -11    1    3    3    0    0 -0.80077294451E+01 -0.68613594146E+01  0.24380340554E+02  0.26563188620E+02  0.51100000000E-03 0.  1.
         12    1    3    3    0    0  0.26021542872E+00 -0.44833209763E+01  0.11151290391E+01  0.46272445169E+01  0.00000000000E+00 0. -1.
</event>
<event>
 7    1  0.2486105E-010  0.4778727E+02  0.7816164E-02  0.1312668E+00
        -11   -1    0    0    0    0  0.00000000000E+00  0.00000000000E+00  0.45593999997E+02  0.45594000000E+02  0.51100000000E-03 0.  1.
         11   -1    0    0    0    0 -0.00000000000E+00 -0.00000000000E+00 -0.45593999997E+02  0.45594000000E+02  0.51100000000E-03 0. -1.
    9900012    2    1    2    0    0  0.71030160500E+01  0.42772117308E+02  0.19278423466E+01  0.47787269222E+02  0.19999991689E+02 0.  0.
         12    1    1    2    0    0 -0.71030160500E+01 -0.42772117308E+02 -0.19278423466E+01  0.43400730778E+02  0.00000000000E+00 0. -1.
         11    1    3    3    0    0  0.85906754438E+00 -0.31515013416E+00 -0.43146531348E+00  0.10116715034E+01  0.51100000000E-03 0. -1.
        -11    1    3    3    0    0  0.96341789257E+01  0.39264409434E+02 -0.13660061081E+01  0.40452159704E+02  0.51100000000E-03 0.  1.
        -12    1    3    3    0    0 -0.33902304200E+01  0.38228580077E+01  0.37253137682E+01  0.63234380142E+01  0.00000000000E+00 0.  1.
</event>
<event>
 7    1  0.2486105E-010  0.4778727E+02  0.7816164E-02  0.1312668E+00
        -11   -1    0    0    0    0  0.00000000000E+00  0.00000000000E+00  0.45593999997E+02  0.45594000000E+02  0.51100000000E-03 0.  1.
         11   -1    0    0    0    0 -0.00000000000E+00 -0.00000000000E+00 -0.45593999997E+02  0.45594000000E+02  0.51100000000E-03 0. -1.
    9900012    2    1    2    0    0  0.21333864475E+02 -0.16036725360E+02  0.34224450739E+02  0.47787270028E+02  0.19999995366E+02 0.  0.
         12    1    1    2    0    0 -0.21333864475E+02  0.16036725360E+02 -0.34224450739E+02  0.43400729972E+02  0.00000000000E+00 0. -1.
         11    1    3    3    0    0  0.98041096858E+01 -0.84077537477E+01  0.10621713151E+02  0.16722191254E+02  0.51100000000E-03 0. -1.
        -11    1    3    3    0    0  0.10401911885E+02 -0.85344544734E+01  0.25408703246E+02  0.28751328403E+02  0.51100000000E-03 0.  1.
         12    1    3    3    0    0  0.11278429033E+01  0.90548286147E+00 -0.18059656571E+01  0.23137503715E+01  0.00000000000E+00 0. -1.
</event>
<event>
 7    1  0.2486105E-010  0.4778727E+02  0.7816164E-02  0.1312668E+00
        -11   -1    0    0    0    0  0.00000000000E+00  0.00000000000E+00  0.45593999997E+02  0.45594000000E+02  0.51100000000E-03 0. -1.
         11   -1    0    0    0    0 -0.00000000000E+00 -0.00000000000E+00 -0.45593999997E+02  0.45594000000E+02  0.51100000000E-03 0.  1.
    9900012    2    1    2    0    0  0.63276436791E+01 -0.24263367574E+02 -0.35424193817E+02  0.47787267424E+02  0.19999983493E+02 0.  0.
         12    1    1    2    0    0 -0.63276436791E+01  0.24263367574E+02  0.35424193817E+02  0.43400732576E+02  0.00000000000E+00 0. -1.
         11    1    3    3    0    0  0.23573334626E+01 -0.46675393095E+00  0.42997927819E+00  0.24412625272E+01  0.51100000000E-03 0. -1.
        -11    1    3    3    0    0 -0.16685381923E+01  0.93622324181E+00 -0.52937857951E+01  0.56289165888E+01  0.51100000000E-03 0.  1.
         12    1    3    3    0    0  0.56388484088E+01 -0.24732836885E+02 -0.30560387300E+02  0.39717088308E+02  0.00000000000E+00 0. -1.
</event>
<event>
 7    1  0.2486105E-010  0.4778727E+02  0.7816164E-02  0.1312668E+00
        -11   -1    0    0    0    0  0.00000000000E+00  0.00000000000E+00  0.45593999997E+02  0.45594000000E+02  0.51100000000E-03 0.  1.
         11   -1    0    0    0    0 -0.00000000000E+00 -0.00000000000E+00 -0.45593999997E+02  0.45594000000E+02  0.51100000000E-03 0. -1.
    9900012    2    1    2    0    0  0.15991833447E+02  0.65130955933E+01  0.39817886246E+02  0.47787271708E+02  0.20000003024E+02 0.  0.
         12    1    1    2    0    0 -0.15991833447E+02 -0.65130955933E+01 -0.39817886246E+02  0.43400728292E+02  0.00000000000E+00 0. -1.
         11    1    3    3    0    0  0.85459577244E+00 -0.17689039665E+01 -0.98712243562E+00  0.21985827574E+01  0.51100000000E-03 0.  1.
        -11    1    3    3    0    0  0.26816921810E+01  0.20240063845E+01  0.11436162244E+01  0.35490749679E+01  0.51100000000E-03 0. -1.
        -12    1    3    3    0    0  0.12455545494E+02  0.62579931753E+01  0.39661392457E+02  0.42039613982E+02  0.00000000000E+00 0.  1.
</event>
<event>
 7    1  0.2486105E-010  0.4778727E+02  0.7816164E-02  0.1312668E+00
        -11   -1    0    0    0    0  0.00000000000E+00  0.00000000000E+00  0.45593999997E+02  0.45594000000E+02  0.51100000000E-03 0. -1.
         11   -1    0    0    0    0 -0.00000000000E+00 -0.00000000000E+00 -0.45593999997E+02  0.45594000000E+02  0.51100000000E-03 0.  1.
    9900012    2    1    2    0    0  0.35544677323E+02 -0.75338001481E+01 -0.23736913300E+02  0.47787270931E+02  0.19999999484E+02 0.  0.
         12    1    1    2    0    0 -0.35544677323E+02  0.75338001481E+01  0.23736913300E+02  0.43400729069E+02  0.00000000000E+00 0. -1.
         11    1    3    3    0    0  0.14053467599E+01  0.12004859047E+01  0.13671717260E+01  0.22989834085E+01  0.51100000000E-03 0. -1.
        -11    1    3    3    0    0  0.12047668443E+02  0.31877187812E+01 -0.11390301269E+02  0.16883329921E+02  0.51100000000E-03 0.  1.
         12    1    3    3    0    0  0.22091662120E+02 -0.11922004834E+02 -0.13713783756E+02  0.28604957602E+02  0.00000000000E+00 0. -1.
</event>
<event>
 7    1  0.2486105E-010  0.4778727E+02  0.7816164E-02  0.1312668E+00
        -11   -1    0    0    0    0  0.00000000000E+00  0.00000000000E+00  0.45593999997E+02  0.45594000000E+02  0.51100000000E-03 0.  1.
         11   -1    0    0    0    0 -0.00000000000E+00 -0.00000000000E+00 -0.45593999997E+02  0.45594000000E+02  0.51100000000E-03 0. -1.
    9900012    2    1    2    0    0 -0.17772500340E+02 -0.70145890065E+01  0.38968668900E+02  0.47787269786E+02  0.19999994262E+02 0.  0.
         12    1    1    2    0    0  0.17772500340E+02  0.70145890065E+01 -0.38968668900E+02  0.43400730214E+02  0.00000000000E+00 0. -1.
         11    1    3    3    0    0 -0.33962148650E+01  0.85993747481E+00  0.39905184143E+01  0.53101794080E+01  0.51100000000E-03 0. -1.
        -11    1    3    3    0    0 -0.10744568211E-02 -0.26450268786E+01  0.22723204191E+02  0.22876629501E+02  0.51100000000E-03 0.  1.
         12    1    3    3    0    0 -0.14375211018E+02 -0.52294996027E+01  0.12254946295E+02  0.19600460877E+02  0.00000000000E+00 0. -1.
</event>
<event>
 7    1  0.2486105E-010  0.4778727E+02  0.7816164E-02  0.1312668E+00
        -11   -1    0    0    0    0  0.00000000000E+00  0.00000000000E+00  0.45593999997E+02  0.45594000000E+02  0.51100000000E-03 0.  1.
         11   -1    0    0    0    0 -0.00000000000E+00 -0.00000000000E+00 -0.45593999997E+02  0.45594000000E+02  0.51100000000E-03 0. -1.
    9900012    2    1    2    0    0 -0.17923156611E+02  0.31714428245E+02  0.23591920817E+02  0.47787271554E+02  0.20000002323E+02 0.  0.
         12    1    1    2    0    0  0.17923156611E+02 -0.31714428245E+02 -0.23591920817E+02  0.43400728446E+02  0.00000000000E+00 0. -1.
         11    1    3    3    0    0 -0.97447496696E+01  0.21431369456E+02  0.20446140164E+02  0.31181859963E+02  0.51100000000E-03 0. -1.
        -11    1    3    3    0    0 -0.93076586047E+01  0.10303597714E+02  0.47222059040E+01  0.14666146849E+02  0.51100000000E-03 0.  1.
         12    1    3    3    0    0  0.11292516631E+01 -0.20538924781E-01 -0.15764252510E+01  0.19392647416E+01  0.00000000000E+00 0. -1.
</event>
<event>
 7    1  0.2486105E-010  0.4778727E+02  0.7816164E-02  0.1312668E+00
        -11   -1    0    0    0    0  0.00000000000E+00  0.00000000000E+00  0.45593999997E+02  0.45594000000E+02  0.51100000000E-03 0.  1.
         11   -1    0    0    0    0 -0.00000000000E+00 -0.00000000000E+00 -0.45593999997E+02  0.45594000000E+02  0.51100000000E-03 0. -1.
    9900012    2    1    2    0    0 -0.73166411771E+01  0.34943659774E+02  0.24678549880E+02  0.47787269353E+02  0.19999992287E+02 0.  0.
         12    1    1    2    0    0  0.73166411771E+01 -0.34943659774E+02 -0.24678549880E+02  0.43400730647E+02  0.00000000000E+00 0. -1.
         11    1    3    3    0    0 -0.12836824925E+01 -0.58513023334E+00 -0.96961005784E+00  0.17118300316E+01  0.51100000000E-03 0. -1.
        -11    1    3    3    0    0 -0.26846224609E+01  0.90175291684E+01  0.14132322764E+02  0.16977796589E+02  0.51100000000E-03 0.  1.
        -12    1    3    3    0    0 -0.33483362237E+01  0.26511260839E+02  0.11515837174E+02  0.29097642732E+02  0.00000000000E+00 0.  1.
</event>
<event>
 7    1  0.2486105E-010  0.4778727E+02  0.7816164E-02  0.1312668E+00
        -11   -1    0    0    0    0  0.00000000000E+00  0.00000000000E+00  0.45593999997E+02  0.45594000000E+02  0.51100000000E-03 0.  1.
         11   -1    0    0    0    0 -0.00000000000E+00 -0.00000000000E+00 -0.45593999997E+02  0.45594000000E+02  0.51100000000E-03 0. -1.
    9900012    2    1    2    0    0 -0.49762538644E+01  0.26647308994E+02  0.33893672391E+02  0.47787271812E+02  0.20000003497E+02 0.  0.
         12    1    1    2    0    0  0.49762538644E+01 -0.26647308994E+02 -0.33893672391E+02  0.43400728188E+02  0.00000000000E+00 0. -1.
         11    1    3    3    0    0 -0.51425169804E+01  0.20375715657E+02  0.22811297108E+02  0.31015650008E+02  0.51100000000E-03 0. -1.
        -11    1    3    3    0    0 -0.52611936588E+01  0.28541714501E+01  0.39080975441E+01  0.71484040217E+01  0.51100000000E-03 0.  1.
         12    1    3    3    0    0  0.54274567748E+01  0.34174218868E+01  0.71742777393E+01  0.96232177818E+01  0.00000000000E+00 0. -1.
</event>
<event>
 7    1  0.2486105E-010  0.4778728E+02  0.7816164E-02  0.1312668E+00
        -11   -1    0    0    0    0  0.00000000000E+00  0.00000000000E+00  0.45593999997E+02  0.45594000000E+02  0.51100000000E-03 0.  1.
         11   -1    0    0    0    0 -0.00000000000E+00 -0.00000000000E+00 -0.45593999997E+02  0.45594000000E+02  0.51100000000E-03 0. -1.
    9900012    2    1    2    0    0  0.40955641581E+02  0.11537990466E+02  0.85517798988E+01  0.47787277186E+02  0.20000028001E+02 0.  0.
         12    1    1    2    0    0 -0.40955641581E+02 -0.11537990466E+02 -0.85517798988E+01  0.43400722814E+02  0.00000000000E+00 0. -1.
         11    1    3    3    0    0  0.20661123248E+02  0.61810578870E+01  0.10833869222E+02  0.24134212501E+02  0.51100000000E-03 0. -1.
        -11    1    3    3    0    0  0.53297176485E+01  0.46741551123E+01  0.30973523393E+01  0.77360977245E+01  0.51100000000E-03 0.  1.
         12    1    3    3    0    0  0.14964800685E+02  0.68277746696E+00 -0.53794416628E+01  0.15916966960E+02  0.00000000000E+00 0. -1.
</event>
<event>
 7    1  0.2486105E-010  0.4778727E+02  0.7816164E-02  0.1312668E+00
        -11   -1    0    0    0    0  0.00000000000E+00  0.00000000000E+00  0.45593999997E+02  0.45594000000E+02  0.51100000000E-03 0.  1.
         11   -1    0    0    0    0 -0.00000000000E+00 -0.00000000000E+00 -0.45593999997E+02  0.45594000000E+02  0.51100000000E-03 0. -1.
    9900012    2    1    2    0    0  0.25786488433E+00  0.41375008917E+02 -0.13102123305E+02  0.47787268529E+02  0.19999988529E+02 0.  0.
         12    1    1    2    0    0 -0.25786488433E+00 -0.41375008917E+02  0.13102123305E+02  0.43400731471E+02  0.00000000000E+00 0. -1.
         11    1    3    3    0    0 -0.77593648678E+01  0.20209916910E+02 -0.10798361806E+02  0.24192004932E+02  0.51100000000E-03 0. -1.
        -11    1    3    3    0    0  0.20212548599E+01  0.38932930286E+01 -0.29743666561E+01  0.53000055737E+01  0.51100000000E-03 0.  1.
        -12    1    3    3    0    0  0.59959748922E+01  0.17271798978E+02  0.67060515753E+00  0.18295258023E+02  0.00000000000E+00 0.  1.
</event>
<event>
 7    1  0.2486105E-010  0.4778727E+02  0.7816164E-02  0.1312668E+00
        -11   -1    0    0    0    0  0.00000000000E+00  0.00000000000E+00  0.45593999997E+02  0.45594000000E+02  0.51100000000E-03 0. -1.
         11   -1    0    0    0    0 -0.00000000000E+00 -0.00000000000E+00 -0.45593999997E+02  0.45594000000E+02  0.51100000000E-03 0.  1.
    9900012    2    1    2    0    0  0.29294142687E+02 -0.12236898419E+02 -0.29592818970E+02  0.47787269438E+02  0.19999992677E+02 0.  0.
         12    1    1    2    0    0 -0.29294142687E+02  0.12236898419E+02  0.29592818970E+02  0.43400730562E+02  0.00000000000E+00 0. -1.
         11    1    3    3    0    0  0.32333383755E+00 -0.62491623387E+01 -0.47825832268E+01  0.78758921583E+01  0.51100000000E-03 0. -1.
        -11    1    3    3    0    0  0.47306364605E+01 -0.42258525831E+01 -0.86438749222E+01  0.10721628855E+02  0.51100000000E-03 0.  1.
         12    1    3    3    0    0  0.24240172389E+02 -0.17618834975E+01 -0.16166360821E+02  0.29189748425E+02  0.00000000000E+00 0. -1.
</event>
<event>
 7    1  0.2486105E-010  0.4778728E+02  0.7816164E-02  0.1312668E+00
        -11   -1    0    0    0    0  0.00000000000E+00  0.00000000000E+00  0.45593999997E+02  0.45594000000E+02  0.51100000000E-03 0.  1.
         11   -1    0    0    0    0 -0.00000000000E+00 -0.00000000000E+00 -0.45593999997E+02  0.45594000000E+02  0.51100000000E-03 0. -1.
    9900012    2    1    2    0    0  0.12160112299E+02 -0.33639075268E+02  0.24579803740E+02  0.47787280330E+02  0.20000042335E+02 0.  0.
         12    1    1    2    0    0 -0.12160112299E+02  0.33639075268E+02 -0.24579803740E+02  0.43400719670E+02  0.00000000000E+00 0. -1.
         11    1    3    3    0    0 -0.18037390522E+01 -0.38695099191E+01  0.90047313177E+01  0.99655289849E+01  0.51100000000E-03 0. -1.
        -11    1    3    3    0    0  0.17581618916E+01 -0.87357001523E+01  0.89210853607E+01  0.12609098091E+02  0.51100000000E-03 0.  1.
         12    1    3    3    0    0  0.12205689459E+02 -0.21033865197E+02  0.66539870618E+01  0.25212653254E+02  0.00000000000E+00 0. -1.
</event>
<event>
 7    1  0.2486105E-010  0.4778731E+02  0.7816164E-02  0.1312668E+00
        -11   -1    0    0    0    0  0.00000000000E+00  0.00000000000E+00  0.45593999997E+02  0.45594000000E+02  0.51100000000E-03 0.  1.
         11   -1    0    0    0    0 -0.00000000000E+00 -0.00000000000E+00 -0.45593999997E+02  0.45594000000E+02  0.51100000000E-03 0. -1.
    9900012    2    1    2    0    0 -0.24227855206E+02 -0.29718018991E+02  0.20333973179E+02  0.47787307772E+02  0.20000167454E+02 0.  0.
         12    1    1    2    0    0  0.24227855206E+02  0.29718018991E+02 -0.20333973179E+02  0.43400692228E+02  0.00000000000E+00 0. -1.
         11    1    3    3    0    0  0.39495717273E+00 -0.83608622814E+01  0.14230497048E+01  0.84902932800E+01  0.51100000000E-03 0. -1.
        -11    1    3    3    0    0 -0.50867588354E+01 -0.99945241003E+01  0.99259293237E+01  0.14976304639E+02  0.51100000000E-03 0.  1.
         12    1    3    3    0    0 -0.19536053543E+02 -0.11362632609E+02  0.89849941509E+01  0.24320709853E+02  0.00000000000E+00 0. -1.
</event>
<event>
 7    1  0.2486105E-010  0.4778727E+02  0.7816164E-02  0.1312668E+00
        -11   -1    0    0    0    0  0.00000000000E+00  0.00000000000E+00  0.45593999997E+02  0.45594000000E+02  0.51100000000E-03 0.  1.
         11   -1    0    0    0    0 -0.00000000000E+00 -0.00000000000E+00 -0.45593999997E+02  0.45594000000E+02  0.51100000000E-03 0. -1.
    9900012    2    1    2    0    0 -0.28090569858E+01  0.21503509448E+02  0.37594299608E+02  0.47787273247E+02  0.20000010042E+02 0.  0.
         12    1    1    2    0    0  0.28090569858E+01 -0.21503509448E+02 -0.37594299608E+02  0.43400726753E+02  0.00000000000E+00 0. -1.
         11    1    3    3    0    0 -0.30725750012E+01  0.36882624802E+01  0.48233733415E+01  0.68050663416E+01  0.51100000000E-03 0. -1.
        -11    1    3    3    0    0  0.60827654904E+01  0.13701896121E+02  0.12579141128E+02  0.19569792669E+02  0.51100000000E-03 0.  1.
        -12    1    3    3    0    0 -0.58192474750E+01  0.41133508461E+01  0.20191785138E+02  0.21412414236E+02  0.00000000000E+00 0.  1.
</event>
<event>
 7    1  0.2486105E-010  0.4778727E+02  0.7816164E-02  0.1312668E+00
        -11   -1    0    0    0    0  0.00000000000E+00  0.00000000000E+00  0.45593999997E+02  0.45594000000E+02  0.51100000000E-03 0. -1.
         11   -1    0    0    0    0 -0.00000000000E+00 -0.00000000000E+00 -0.45593999997E+02  0.45594000000E+02  0.51100000000E-03 0.  1.
    9900012    2    1    2    0    0  0.19854714217E+02  0.35743376868E+02 -0.14554199662E+02  0.47787269656E+02  0.19999993669E+02 0.  0.
         12    1    1    2    0    0 -0.19854714217E+02 -0.35743376868E+02  0.14554199662E+02  0.43400730344E+02  0.00000000000E+00 0. -1.
         11    1    3    3    0    0  0.70230539684E+01  0.83273764578E+01 -0.74640250026E+01  0.13205307842E+02  0.51100000000E-03 0. -1.
        -11    1    3    3    0    0  0.93196433148E+01  0.69491435077E+01  0.22016976408E+01  0.11831898401E+02  0.51100000000E-03 0.  1.
        -12    1    3    3    0    0  0.35120169339E+01  0.20466856903E+02 -0.92918723006E+01  0.22750063412E+02  0.00000000000E+00 0.  1.
</event>
<event>
 7    1  0.2486105E-010  0.4778726E+02  0.7816164E-02  0.1312668E+00
        -11   -1    0    0    0    0  0.00000000000E+00  0.00000000000E+00  0.45593999997E+02  0.45594000000E+02  0.51100000000E-03 0. -1.
         11   -1    0    0    0    0 -0.00000000000E+00 -0.00000000000E+00 -0.45593999997E+02  0.45594000000E+02  0.51100000000E-03 0.  1.
    9900012    2    1    2    0    0  0.37707445266E+02  0.21136699539E+02  0.38745762154E+01  0.47787264560E+02  0.19999970434E+02 0.  0.
         12    1    1    2    0    0 -0.37707445266E+02 -0.21136699539E+02 -0.38745762154E+01  0.43400735440E+02  0.00000000000E+00 0. -1.
         11    1    3    3    0    0  0.54519196141E+01  0.68700980143E+01 -0.17220600815E+01  0.89379620378E+01  0.51100000000E-03 0. -1.
        -11    1    3    3    0    0  0.18705662189E+02  0.73524704139E+01 -0.44937257059E+01  0.20595004008E+02  0.51100000000E-03 0.  1.
        -12    1    3    3    0    0  0.13549863463E+02  0.69141311104E+01  0.10090362003E+02  0.18254298514E+02  0.00000000000E+00 0.  1.
</event>
<event>
 7    1  0.2486105E-010  0.4778727E+02  0.7816164E-02  0.1312668E+00
        -11   -1    0    0    0    0  0.00000000000E+00  0.00000000000E+00  0.45593999997E+02  0.45594000000E+02  0.51100000000E-03 0. -1.
         11   -1    0    0    0    0 -0.00000000000E+00 -0.00000000000E+00 -0.45593999997E+02  0.45594000000E+02  0.51100000000E-03 0.  1.
    9900012    2    1    2    0    0 -0.74406807486E+00 -0.34843634837E+02 -0.25864864634E+02  0.47787265576E+02  0.19999975069E+02 0.  0.
         12    1    1    2    0    0  0.74406807486E+00  0.34843634837E+02  0.25864864634E+02  0.43400734424E+02  0.00000000000E+00 0. -1.
         11    1    3    3    0    0  0.22016509095E+01 -0.30901627608E+02 -0.12353971726E+02  0.33352338347E+02  0.51100000000E-03 0. -1.
        -11    1    3    3    0    0 -0.24802633931E+01 -0.23310877905E+01 -0.91877008950E+01  0.97979347203E+01  0.51100000000E-03 0.  1.
         12    1    3    3    0    0 -0.46545559121E+00 -0.16109194385E+01 -0.43231920131E+01  0.46369925088E+01  0.00000000000E+00 0. -1.
</event>
<event>
 7    1  0.2486105E-010  0.4778729E+02  0.7816164E-02  0.1312668E+00
        -11   -1    0    0    0    0  0.00000000000E+00  0.00000000000E+00  0.45593999997E+02  0.45594000000E+02  0.51100000000E-03 0.  1.
         11   -1    0    0    0    0 -0.00000000000E+00 -0.00000000000E+00 -0.45593999997E+02  0.45594000000E+02  0.51100000000E-03 0. -1.
    9900012    2    1    2    0    0  0.85327364586E+01  0.42022856945E+02  0.67002524266E+01  0.47787291713E+02  0.20000094234E+02 0.  0.
         12    1    1    2    0    0 -0.85327364586E+01 -0.42022856945E+02 -0.67002524266E+01  0.43400708287E+02  0.00000000000E+00 0. -1.
         11    1    3    3    0    0 -0.83692422990E+00  0.38432391763E+01 -0.29524052020E+01  0.49180917306E+01  0.51100000000E-03 0. -1.
        -11    1    3    3    0    0 -0.17213794376E+01  0.67520664937E+01 -0.24889263713E+01  0.73992096772E+01  0.51100000000E-03 0.  1.
        -12    1    3    3    0    0  0.11091040126E+02  0.31427551275E+02  0.12141584000E+02  0.35469990305E+02  0.00000000000E+00 0.  1.
</event>
<event>
 7    1  0.2486105E-010  0.4778727E+02  0.7816164E-02  0.1312668E+00
        -11   -1    0    0    0    0  0.00000000000E+00  0.00000000000E+00  0.45593999997E+02  0.45594000000E+02  0.51100000000E-03 0. -1.
         11   -1    0    0    0    0 -0.00000000000E+00 -0.00000000000E+00 -0.45593999997E+02  0.45594000000E+02  0.51100000000E-03 0.  1.
    9900012    2    1    2    0    0 -0.29745918056E+02  0.29015303000E+01  0.31470381886E+02  0.47787268956E+02  0.19999990479E+02 0.  0.
         12    1    1    2    0    0  0.29745918056E+02 -0.29015303000E+01 -0.31470381886E+02  0.43400731044E+02  0.00000000000E+00 0. -1.
         11    1    3    3    0    0 -0.51114257590E+00 -0.29099767633E+01  0.81463918270E+01  0.86656177827E+01  0.51100000000E-03 0. -1.
        -11    1    3    3    0    0 -0.85733187936E+01  0.48374840003E+01  0.12065487533E+02  0.15571738383E+02  0.51100000000E-03 0.  1.
        -12    1    3    3    0    0 -0.20661456686E+02  0.97402306306E+00  0.11258502526E+02  0.23549912791E+02  0.00000000000E+00 0.  1.
</event>
<event>
 7    1  0.2486105E-010  0.4778727E+02  0.7816164E-02  0.1312668E+00
        -11   -1    0    0    0    0  0.00000000000E+00  0.00000000000E+00  0.45593999997E+02  0.45594000000E+02  0.51100000000E-03 0. -1.
         11   -1    0    0    0    0 -0.00000000000E+00 -0.00000000000E+00 -0.45593999997E+02  0.45594000000E+02  0.51100000000E-03 0.  1.
    9900012    2    1    2    0    0 -0.29997283353E+02 -0.30158637667E+02  0.86164296327E+01  0.47787270812E+02  0.19999998939E+02 0.  0.
         12    1    1    2    0    0  0.29997283353E+02  0.30158637667E+02 -0.86164296327E+01  0.43400729188E+02  0.00000000000E+00 0. -1.
         11    1    3    3    0    0 -0.39000371340E+01  0.30901300890E+00  0.33919760194E+01  0.51779610141E+01  0.51100000000E-03 0. -1.
        -11    1    3    3    0    0  0.99244986065E-01 -0.53672035631E+01 -0.17861693776E+01  0.56574839780E+01  0.51100000000E-03 0.  1.
        -12    1    3    3    0    0 -0.26196491205E+02 -0.25100447113E+02  0.70106229909E+01  0.36951825820E+02  0.00000000000E+00 0.  1.
</event>
<event>
 7    1  0.2486105E-010  0.4778726E+02  0.7816164E-02  0.1312668E+00
        -11   -1    0    0    0    0  0.00000000000E+00  0.00000000000E+00  0.45593999997E+02  0.45594000000E+02  0.51100000000E-03 0. -1.
         11   -1    0    0    0    0 -0.00000000000E+00 -0.00000000000E+00 -0.45593999997E+02  0.45594000000E+02  0.51100000000E-03 0.  1.
    9900012    2    1    2    0    0  0.20168806672E+02  0.38267721122E+02  0.35248507801E+01  0.47787264805E+02  0.19999971551E+02 0.  0.
         12    1    1    2    0    0 -0.20168806672E+02 -0.38267721122E+02 -0.35248507801E+01  0.43400735195E+02  0.00000000000E+00 0. -1.
         11    1    3    3    0    0 -0.12041640272E+01  0.90601915994E+01  0.13259661895E+01  0.92355438074E+01  0.51100000000E-03 0. -1.
        -11    1    3    3    0    0  0.16590797924E+01 -0.88074818733E+00  0.17653020387E+01  0.25777033724E+01  0.51100000000E-03 0.  1.
        -12    1    3    3    0    0  0.19713890907E+02  0.30088277710E+02  0.43358255192E+00  0.35974017625E+02  0.00000000000E+00 0.  1.
</event>
<event>
 7    1  0.2486105E-010  0.4778727E+02  0.7816164E-02  0.1312668E+00
        -11   -1    0    0    0    0  0.00000000000E+00  0.00000000000E+00  0.45593999997E+02  0.45594000000E+02  0.51100000000E-03 0. -1.
         11   -1    0    0    0    0 -0.00000000000E+00 -0.00000000000E+00 -0.45593999997E+02  0.45594000000E+02  0.51100000000E-03 0.  1.
    9900012    2    1    2    0    0 -0.39512733625E+02 -0.56924387393E+01 -0.17028300979E+02  0.47787274067E+02  0.20000013780E+02 0.  0.
         12    1    1    2    0    0  0.39512733625E+02  0.56924387393E+01  0.17028300979E+02  0.43400725933E+02  0.00000000000E+00 0. -1.
         11    1    3    3    0    0 -0.38752237747E+01 -0.37914244114E+01  0.90228247826E+00  0.54960324147E+01  0.51100000000E-03 0. -1.
        -11    1    3    3    0    0 -0.16991567986E+02 -0.64795406897E+01 -0.41356047477E+01  0.18649425113E+02  0.51100000000E-03 0.  1.
        -12    1    3    3    0    0 -0.18645941864E+02  0.45785263618E+01 -0.13794978710E+02  0.23641816539E+02  0.00000000000E+00 0.  1.
</event>
<event>
 7    1  0.2486105E-010  0.4778728E+02  0.7816164E-02  0.1312668E+00
        -11   -1    0    0    0    0  0.00000000000E+00  0.00000000000E+00  0.45593999997E+02  0.45594000000E+02  0.51100000000E-03 0.  1.
         11   -1    0    0    0    0 -0.00000000000E+00 -0.00000000000E+00 -0.45593999997E+02  0.45594000000E+02  0.51100000000E-03 0. -1.
    9900012    2    1    2    0    0 -0.18650427523E+01 -0.31162843407E+02  0.30149982376E+02  0.47787278452E+02  0.20000033772E+02 0.  0.
         12    1    1    2    0    0  0.18650427523E+01  0.31162843407E+02 -0.30149982376E+02  0.43400721548E+02  0.00000000000E+00 0. -1.
         11    1    3    3    0    0 -0.40457987649E+00  0.11550976347E+01  0.49059471172E+01  0.50563082185E+01  0.51100000000E-03 0. -1.
        -11    1    3    3    0    0 -0.47526561354E+01 -0.88362799303E+01  0.11742183214E+02  0.15444949020E+02  0.51100000000E-03 0.  1.
        -12    1    3    3    0    0  0.32921932596E+01 -0.23481661111E+02  0.13501852045E+02  0.27286021213E+02  0.00000000000E+00 0.  1.
</event>
<event>
 7    1  0.2486105E-010  0.4778728E+02  0.7816164E-02  0.1312668E+00
        -11   -1    0    0    0    0  0.00000000000E+00  0.00000000000E+00  0.45593999997E+02  0.45594000000E+02  0.51100000000E-03 0.  1.
         11   -1    0    0    0    0 -0.00000000000E+00 -0.00000000000E+00 -0.45593999997E+02  0.45594000000E+02  0.51100000000E-03 0. -1.
    9900012    2    1    2    0    0  0.81137985419E+01  0.31945773099E+02  0.28235726223E+02  0.47787281331E+02  0.20000046899E+02 0.  0.
         12    1    1    2    0    0 -0.81137985419E+01 -0.31945773099E+02 -0.28235726223E+02  0.43400718669E+02  0.00000000000E+00 0. -1.
         11    1    3    3    0    0  0.62644290003E+01  0.10026340318E+02  0.16691045676E+02  0.20453889041E+02  0.51100000000E-03 0. -1.
        -11    1    3    3    0    0  0.13054883013E+01  0.89705984568E+01  0.11146080843E+02  0.14367012730E+02  0.51100000000E-03 0.  1.
        -12    1    3    3    0    0  0.54388124032E+00  0.12948834324E+02  0.39859970422E+00  0.12966379559E+02  0.00000000000E+00 0.  1.
</event>
<event>
 7    1  0.2486105E-010  0.4778728E+02  0.7816164E-02  0.1312668E+00
        -11   -1    0    0    0    0  0.00000000000E+00  0.00000000000E+00  0.45593999997E+02  0.45594000000E+02  0.51100000000E-03 0.  1.
         11   -1    0    0    0    0 -0.00000000000E+00 -0.00000000000E+00 -0.45593999997E+02  0.45594000000E+02  0.51100000000E-03 0. -1.
    9900012    2    1    2    0    0 -0.27561096856E+02 -0.12087727681E+02  0.31271323012E+02  0.47787275774E+02  0.20000021563E+02 0.  0.
         12    1    1    2    0    0  0.27561096856E+02  0.12087727681E+02 -0.31271323012E+02  0.43400724226E+02  0.00000000000E+00 0. -1.
         11    1    3    3    0    0 -0.68173352926E+01 -0.34193775316E+01  0.81042425401E+00  0.76697451671E+01  0.51100000000E-03 0. -1.
        -11    1    3    3    0    0 -0.49856071091E+01 -0.58305379124E+01  0.28188570430E+01  0.81729679972E+01  0.51100000000E-03 0.  1.
        -12    1    3    3    0    0 -0.15758154455E+02 -0.28378122371E+01  0.27642041715E+02  0.31944562609E+02  0.00000000000E+00 0.  1.
</event>
<event>
 7    1  0.2486105E-010  0.4778726E+02  0.7816164E-02  0.1312668E+00
        -11   -1    0    0    0    0  0.00000000000E+00  0.00000000000E+00  0.45593999997E+02  0.45594000000E+02  0.51100000000E-03 0. -1.
         11   -1    0    0    0    0 -0.00000000000E+00 -0.00000000000E+00 -0.45593999997E+02  0.45594000000E+02  0.51100000000E-03 0.  1.
    9900012    2    1    2    0    0 -0.32305834594E+01 -0.33500591839E+02 -0.27402520971E+02  0.47787257165E+02  0.19999936720E+02 0.  0.
         12    1    1    2    0    0  0.32305834594E+01  0.33500591839E+02  0.27402520971E+02  0.43400742835E+02  0.00000000000E+00 0. -1.
         11    1    3    3    0    0  0.65618788803E-01 -0.25403207050E+01  0.12313998148E+01  0.28238060972E+01  0.51100000000E-03 0. -1.
        -11    1    3    3    0    0  0.24944328976E+01 -0.26237104229E+02 -0.17803342313E+02  0.31805138446E+02  0.51100000000E-03 0.  1.
         12    1    3    3    0    0 -0.57906351457E+01 -0.47231669045E+01 -0.10830578473E+02  0.13158312622E+02  0.00000000000E+00 0. -1.
</event>
<event>
 7    1  0.2486105E-010  0.4778727E+02  0.7816164E-02  0.1312668E+00
        -11   -1    0    0    0    0  0.00000000000E+00  0.00000000000E+00  0.45593999997E+02  0.45594000000E+02  0.51100000000E-03 0.  1.
         11   -1    0    0    0    0 -0.00000000000E+00 -0.00000000000E+00 -0.45593999997E+02  0.45594000000E+02  0.51100000000E-03 0. -1.
    9900012    2    1    2    0    0 -0.87344453682E+01  0.12271197589E+02  0.40703204504E+02  0.47787266330E+02  0.19999978506E+02 0.  0.
         12    1    1    2    0    0  0.87344453682E+01 -0.12271197589E+02 -0.40703204504E+02  0.43400733670E+02  0.00000000000E+00 0. -1.
         11    1    3    3    0    0  0.52650715115E+00  0.17355304868E+01  0.90609314368E+01  0.92406576938E+01  0.51100000000E-03 0. -1.
        -11    1    3    3    0    0 -0.39904230892E+01  0.12160626256E+01 -0.91779743322E+00  0.42713741500E+01  0.51100000000E-03 0.  1.
        -12    1    3    3    0    0 -0.52705294301E+01  0.93196044763E+01  0.32560070501E+02  0.34275234486E+02  0.00000000000E+00 0.  1.
</event>
<event>
 7    1  0.2486105E-010  0.4778726E+02  0.7816164E-02  0.1312668E+00
        -11   -1    0    0    0    0  0.00000000000E+00  0.00000000000E+00  0.45593999997E+02  0.45594000000E+02  0.51100000000E-03 0.  1.
         11   -1    0    0    0    0 -0.00000000000E+00 -0.00000000000E+00 -0.45593999997E+02  0.45594000000E+02  0.51100000000E-03 0. -1.
    9900012    2    1    2    0    0  0.16818890089E+02  0.23543713956E+02  0.32348763067E+02  0.47787262649E+02  0.19999961720E+02 0.  0.
         12    1    1    2    0    0 -0.16818890089E+02 -0.23543713956E+02 -0.32348763067E+02  0.43400737351E+02  0.00000000000E+00 0. -1.
         11    1    3    3    0    0  0.72922124045E+00  0.89990392630E+01  0.76863402676E+01  0.11857246655E+02  0.51100000000E-03 0. -1.
        -11    1    3    3    0    0  0.63760507656E+01  0.11997154881E+02  0.21442357802E+02  0.25384256085E+02  0.51100000000E-03 0.  1.
         12    1    3    3    0    0  0.97136180831E+01  0.25475198120E+01  0.32200649974E+01  0.10545759908E+02  0.00000000000E+00 0. -1.
</event>
<event>
 7    1  0.2486105E-010  0.4778727E+02  0.7816164E-02  0.1312668E+00
        -11   -1    0    0    0    0  0.00000000000E+00  0.00000000000E+00  0.45593999997E+02  0.45594000000E+02  0.51100000000E-03 0.  1.
         11   -1    0    0    0    0 -0.00000000000E+00 -0.00000000000E+00 -0.45593999997E+02  0.45594000000E+02  0.51100000000E-03 0. -1.
    9900012    2    1    2    0    0 -0.36408827440E+02 -0.22953357000E+02  0.55824671330E+01  0.47787271291E+02  0.20000001126E+02 0.  0.
         12    1    1    2    0    0  0.36408827440E+02  0.22953357000E+02 -0.55824671330E+01  0.43400728709E+02  0.00000000000E+00 0. -1.
         11    1    3    3    0    0  0.65310674118E+00 -0.24833440799E+01 -0.21706741976E+01  0.33623463486E+01  0.51100000000E-03 0. -1.
        -11    1    3    3    0    0 -0.17305952456E+02 -0.51703409066E+01  0.71632135074E+01  0.19430389690E+02  0.51100000000E-03 0.  1.
        -12    1    3    3    0    0 -0.19755981725E+02 -0.15299672013E+02  0.58992782326E+00  0.24994535252E+02  0.00000000000E+00 0.  1.
</event>
<event>
 7    1  0.2486105E-010  0.4778727E+02  0.7816164E-02  0.1312668E+00
        -11   -1    0    0    0    0  0.00000000000E+00  0.00000000000E+00  0.45593999997E+02  0.45594000000E+02  0.51100000000E-03 0.  1.
         11   -1    0    0    0    0 -0.00000000000E+00 -0.00000000000E+00 -0.45593999997E+02  0.45594000000E+02  0.51100000000E-03 0. -1.
    9900012    2    1    2    0    0 -0.28735602684E+02 -0.32384646123E+02 -0.30204093944E+01  0.47787273750E+02  0.20000012335E+02 0.  0.
         12    1    1    2    0    0  0.28735602684E+02  0.32384646123E+02  0.30204093944E+01  0.43400726250E+02  0.00000000000E+00 0. -1.
         11    1    3    3    0    0 -0.12108035565E+01 -0.26560538952E+00 -0.16298553277E+01  0.20476865301E+01  0.51100000000E-03 0. -1.
        -11    1    3    3    0    0 -0.23516319455E+02 -0.31553856688E+02  0.33623010815E+01  0.39496433021E+02  0.51100000000E-03 0.  1.
        -12    1    3    3    0    0 -0.40084796724E+01 -0.56518404624E+00 -0.47528551482E+01  0.62431541988E+01  0.00000000000E+00 0.  1.
</event>
<event>
 7    1  0.2486105E-010  0.4778727E+02  0.7816164E-02  0.1312668E+00
        -11   -1    0    0    0    0  0.00000000000E+00  0.00000000000E+00  0.45593999997E+02  0.45594000000E+02  0.51100000000E-03 0.  1.
         11   -1    0    0    0    0 -0.00000000000E+00 -0.00000000000E+00 -0.45593999997E+02  0.45594000000E+02  0.51100000000E-03 0. -1.
    9900012    2    1    2    0    0  0.21220543460E+02 -0.37817119107E+02 -0.17825326004E+01  0.47787269767E+02  0.19999994174E+02 0.  0.
         12    1    1    2    0    0 -0.21220543460E+02  0.37817119107E+02  0.17825326004E+01  0.43400730233E+02  0.00000000000E+00 0. -1.
         11    1    3    3    0    0  0.10608107260E+02 -0.17224928886E+02 -0.25640146457E+01  0.20391279659E+02  0.51100000000E-03 0.  1.
        -11    1    3    3    0    0  0.13052520736E+02 -0.17014550926E+02 -0.29919009340E+01  0.21652129508E+02  0.51100000000E-03 0. -1.
        -12    1    3    3    0    0 -0.24400845368E+01 -0.35776392953E+01  0.37733829794E+01  0.57438605992E+01  0.00000000000E+00 0.  1.
</event>
<event>
 7    1  0.2486105E-010  0.4778727E+02  0.7816164E-02  0.1312668E+00
        -11   -1    0    0    0    0  0.00000000000E+00  0.00000000000E+00  0.45593999997E+02  0.45594000000E+02  0.51100000000E-03 0.  1.
         11   -1    0    0    0    0 -0.00000000000E+00 -0.00000000000E+00 -0.45593999997E+02  0.45594000000E+02  0.51100000000E-03 0. -1.
    9900012    2    1    2    0    0 -0.18467249660E+02  0.12369057373E+02  0.37277216308E+02  0.47787265605E+02  0.19999975201E+02 0.  0.
         12    1    1    2    0    0  0.18467249660E+02 -0.12369057373E+02 -0.37277216308E+02  0.43400734395E+02  0.00000000000E+00 0. -1.
         11    1    3    3    0    0 -0.64297915040E+01  0.36815869967E+01  0.14550459434E+02  0.16328262970E+02  0.51100000000E-03 0. -1.
        -11    1    3    3    0    0 -0.38040678647E+01  0.41702060790E+00  0.18740077283E+02  0.19126822406E+02  0.51100000000E-03 0.  1.
         12    1    3    3    0    0 -0.82333902917E+01  0.82704497680E+01  0.39866795912E+01  0.12332180230E+02  0.00000000000E+00 0. -1.
</event>
<event>
 7    1  0.2486105E-010  0.4778727E+02  0.7816164E-02  0.1312668E+00
        -11   -1    0    0    0    0  0.00000000000E+00  0.00000000000E+00  0.45593999997E+02  0.45594000000E+02  0.51100000000E-03 0. -1.
         11   -1    0    0    0    0 -0.00000000000E+00 -0.00000000000E+00 -0.45593999997E+02  0.45594000000E+02  0.51100000000E-03 0.  1.
    9900012    2    1    2    0    0  0.10688021939E+01  0.31165792933E+01 -0.43275486493E+02  0.47787272635E+02  0.20000007252E+02 0.  0.
         12    1    1    2    0    0 -0.10688021939E+01 -0.31165792933E+01  0.43275486493E+02  0.43400727365E+02  0.00000000000E+00 0. -1.
         11    1    3    3    0    0 -0.29814102114E+00 -0.99692289804E+00 -0.76446729036E+01  0.77151647680E+01  0.51100000000E-03 0. -1.
        -11    1    3    3    0    0 -0.67698011560E+01  0.24154202932E+01 -0.27576697118E+02  0.28498047075E+02  0.51100000000E-03 0.  1.
         12    1    3    3    0    0  0.81367443710E+01  0.16980818982E+01 -0.80541164713E+01  0.11574060792E+02  0.00000000000E+00 0. -1.
</event>
<event>
 7    1  0.2486105E-010  0.4778727E+02  0.7816164E-02  0.1312668E+00
        -11   -1    0    0    0    0  0.00000000000E+00  0.00000000000E+00  0.45593999997E+02  0.45594000000E+02  0.51100000000E-03 0.  1.
         11   -1    0    0    0    0 -0.00000000000E+00 -0.00000000000E+00 -0.45593999997E+02  0.45594000000E+02  0.51100000000E-03 0. -1.
    9900012    2    1    2    0    0 -0.15816378635E+02  0.40113674668E+02  0.49354581243E+01  0.47787268723E+02  0.19999989414E+02 0.  0.
         12    1    1    2    0    0  0.15816378635E+02 -0.40113674668E+02 -0.49354581243E+01  0.43400731277E+02  0.00000000000E+00 0. -1.
         11    1    3    3    0    0 -0.12824503410E+02  0.25222243956E+02  0.43840085020E+01  0.28633005583E+02  0.51100000000E-03 0.  1.
        -11    1    3    3    0    0 -0.72327192805E+01  0.66369718515E+01 -0.40657559645E+00  0.98248118316E+01  0.51100000000E-03 0. -1.
         12    1    3    3    0    0  0.42408440560E+01  0.82544588603E+01  0.95802521880E+00  0.93294513078E+01  0.00000000000E+00 0. -1.
</event>
<event>
 7    1  0.2486105E-010  0.4778729E+02  0.7816164E-02  0.1312668E+00
        -11   -1    0    0    0    0  0.00000000000E+00  0.00000000000E+00  0.45593999997E+02  0.45594000000E+02  0.51100000000E-03 0.  1.
         11   -1    0    0    0    0 -0.00000000000E+00 -0.00000000000E+00 -0.45593999997E+02  0.45594000000E+02  0.51100000000E-03 0. -1.
    9900012    2    1    2    0    0  0.68211360983E+01 -0.42838649983E+02 -0.13943002710E+01  0.47787286834E+02  0.20000071992E+02 0.  0.
         12    1    1    2    0    0 -0.68211360983E+01  0.42838649983E+02  0.13943002710E+01  0.43400713166E+02  0.00000000000E+00 0. -1.
         11    1    3    3    0    0  0.69256030127E+01 -0.72689544284E+01 -0.11417048986E+01  0.10104710085E+02  0.51100000000E-03 0.  1.
        -11    1    3    3    0    0  0.50916058869E+01 -0.77111401223E+01 -0.12583402484E+01  0.93257467763E+01  0.51100000000E-03 0. -1.
        -12    1    3    3    0    0 -0.51960728014E+01 -0.27858555433E+02  0.10057448760E+01  0.28356829973E+02  0.00000000000E+00 0.  1.
</event>
<event>
 7    1  0.2486105E-010  0.4778727E+02  0.7816164E-02  0.1312668E+00
        -11   -1    0    0    0    0  0.00000000000E+00  0.00000000000E+00  0.45593999997E+02  0.45594000000E+02  0.51100000000E-03 0. -1.
         11   -1    0    0    0    0 -0.00000000000E+00 -0.00000000000E+00 -0.45593999997E+02  0.45594000000E+02  0.51100000000E-03 0.  1.
    9900012    2    1    2    0    0  0.34189924107E+01  0.42776097550E+02 -0.64914782744E+01  0.47787270503E+02  0.19999997532E+02 0.  0.
         12    1    1    2    0    0 -0.34189924107E+01 -0.42776097550E+02  0.64914782744E+01  0.43400729497E+02  0.00000000000E+00 0. -1.
         11    1    3    3    0    0  0.50019665721E+01  0.10025689594E+02 -0.84814726835E+01  0.14052384159E+02  0.51100000000E-03 0. -1.
        -11    1    3    3    0    0 -0.15763897699E+01  0.13302345021E+02 -0.28463502548E+01  0.13694491513E+02  0.51100000000E-03 0.  1.
         12    1    3    3    0    0 -0.65843914652E-02  0.19448062935E+02  0.48363446639E+01  0.20040394831E+02  0.00000000000E+00 0. -1.
</event>
<event>
 7    1  0.2486105E-010  0.4778727E+02  0.7816164E-02  0.1312668E+00
        -11   -1    0    0    0    0  0.00000000000E+00  0.00000000000E+00  0.45593999997E+02  0.45594000000E+02  0.51100000000E-03 0.  1.
         11   -1    0    0    0    0 -0.00000000000E+00 -0.00000000000E+00 -0.45593999997E+02  0.45594000000E+02  0.51100000000E-03 0. -1.
    9900012    2    1    2    0    0  0.25656513784E+02 -0.41553820055E+01  0.34757722697E+02  0.47787272054E+02  0.20000004604E+02 0.  0.
         12    1    1    2    0    0 -0.25656513784E+02  0.41553820055E+01 -0.34757722697E+02  0.43400727946E+02  0.00000000000E+00 0. -1.
         11    1    3    3    0    0  0.19145496908E+02  0.29923370825E+01  0.15654862169E+02  0.24911419929E+02  0.51100000000E-03 0. -1.
        -11    1    3    3    0    0  0.44291658975E+01 -0.30110555288E-01  0.36640997045E+01  0.57483949149E+01  0.51100000000E-03 0.  1.
        -12    1    3    3    0    0  0.20818509780E+01 -0.71176085328E+01  0.15438760824E+02  0.17127457211E+02  0.00000000000E+00 0.  1.
</event>
<event>
 7    1  0.2486105E-010  0.4778727E+02  0.7816164E-02  0.1312668E+00
        -11   -1    0    0    0    0  0.00000000000E+00  0.00000000000E+00  0.45593999997E+02  0.45594000000E+02  0.51100000000E-03 0.  1.
         11   -1    0    0    0    0 -0.00000000000E+00 -0.00000000000E+00 -0.45593999997E+02  0.45594000000E+02  0.51100000000E-03 0. -1.
    9900012    2    1    2    0    0 -0.42348958526E+02 -0.67290531414E+01 -0.67013917527E+01  0.47787273095E+02  0.20000009352E+02 0.  0.
         12    1    1    2    0    0  0.42348958526E+02  0.67290531414E+01  0.67013917527E+01  0.43400726905E+02  0.00000000000E+00 0. -1.
         11    1    3    3    0    0 -0.23029930809E+02 -0.34913096541E+01 -0.10046890379E+01  0.23314724028E+02  0.51100000000E-03 0. -1.
        -11    1    3    3    0    0 -0.15361956787E+02 -0.28575044932E+01  0.20559204331E+01  0.15760135068E+02  0.51100000000E-03 0.  1.
         12    1    3    3    0    0 -0.39570709300E+01 -0.38023899410E+00 -0.77526231480E+01  0.87124140002E+01  0.00000000000E+00 0. -1.
</event>
<event>
 7    1  0.2486105E-010  0.4778727E+02  0.7816164E-02  0.1312668E+00
        -11   -1    0    0    0    0  0.00000000000E+00  0.00000000000E+00  0.45593999997E+02  0.45594000000E+02  0.51100000000E-03 0.  1.
         11   -1    0    0    0    0 -0.00000000000E+00 -0.00000000000E+00 -0.45593999997E+02  0.45594000000E+02  0.51100000000E-03 0. -1.
    9900012    2    1    2    0    0 -0.24544129601E+02 -0.91463226594E+01  0.34605689440E+02  0.47787271232E+02  0.20000000853E+02 0.  0.
         12    1    1    2    0    0  0.24544129601E+02  0.91463226594E+01 -0.34605689440E+02  0.43400728768E+02  0.00000000000E+00 0. -1.
         11    1    3    3    0    0 -0.46456833925E+01 -0.37975749666E+01  0.47658794236E+01  0.76627382019E+01  0.51100000000E-03 0. -1.
        -11    1    3    3    0    0 -0.20396822060E+02 -0.68442311734E+01  0.17635336354E+02  0.27818679679E+02  0.51100000000E-03 0.  1.
        -12    1    3    3    0    0  0.49837585146E+00  0.14954834806E+01  0.12204473662E+02  0.12305853351E+02  0.00000000000E+00 0.  1.
</event>
<event>
 7    1  0.2486105E-010  0.4778728E+02  0.7816164E-02  0.1312668E+00
        -11   -1    0    0    0    0  0.00000000000E+00  0.00000000000E+00  0.45593999997E+02  0.45594000000E+02  0.51100000000E-03 0. -1.
         11   -1    0    0    0    0 -0.00000000000E+00 -0.00000000000E+00 -0.45593999997E+02  0.45594000000E+02  0.51100000000E-03 0.  1.
    9900012    2    1    2    0    0 -0.23794466416E+02 -0.30254359996E+02 -0.20052919134E+02  0.47787279999E+02  0.20000040829E+02 0.  0.
         12    1    1    2    0    0  0.23794466416E+02  0.30254359996E+02  0.20052919134E+02  0.43400720001E+02  0.00000000000E+00 0. -1.
         11    1    3    3    0    0 -0.65954488480E+01 -0.90217235498E+01 -0.64125323504E+01  0.12884564902E+02  0.51100000000E-03 0. -1.
        -11    1    3    3    0    0 -0.77851928243E+01 -0.21294899513E+02 -0.88433512936E+01  0.24336943829E+02  0.51100000000E-03 0.  1.
         12    1    3    3    0    0 -0.94138247433E+01  0.62263067121E-01 -0.47970354903E+01  0.10565771268E+02  0.00000000000E+00 0. -1.
</event>
<event>
 7    1  0.2486105E-010  0.4778727E+02  0.7816164E-02  0.1312668E+00
        -11   -1    0    0    0    0  0.00000000000E+00  0.00000000000E+00  0.45593999997E+02  0.45594000000E+02  0.51100000000E-03 0. -1.
         11   -1    0    0    0    0 -0.00000000000E+00 -0.00000000000E+00 -0.45593999997E+02  0.45594000000E+02  0.51100000000E-03 0.  1.
    9900012    2    1    2    0    0 -0.11858731379E+01 -0.34332883444E+02  0.26523012582E+02  0.47787269855E+02  0.19999994577E+02 0.  0.
         12    1    1    2    0    0  0.11858731379E+01  0.34332883444E+02 -0.26523012582E+02  0.43400730145E+02  0.00000000000E+00 0. -1.
         11    1    3    3    0    0  0.36720166650E+01 -0.16929242510E+01  0.16609323926E+00  0.40468859798E+01  0.51100000000E-03 0. -1.
        -11    1    3    3    0    0 -0.35430008830E+01 -0.17296710969E+01  0.24535599359E+01  0.46437672186E+01  0.51100000000E-03 0.  1.
         12    1    3    3    0    0 -0.13148889199E+01 -0.30910288097E+02  0.23903359406E+02  0.39096616657E+02  0.00000000000E+00 0. -1.
</event>
<event>
 7    1  0.2486105E-010  0.4778728E+02  0.7816164E-02  0.1312668E+00
        -11   -1    0    0    0    0  0.00000000000E+00  0.00000000000E+00  0.45593999997E+02  0.45594000000E+02  0.51100000000E-03 0.  1.
         11   -1    0    0    0    0 -0.00000000000E+00 -0.00000000000E+00 -0.45593999997E+02  0.45594000000E+02  0.51100000000E-03 0. -1.
    9900012    2    1    2    0    0 -0.25243800928E+02  0.14474135867E+02  0.32200506269E+02  0.47787277674E+02  0.20000030228E+02 0.  0.
         12    1    1    2    0    0  0.25243800928E+02 -0.14474135867E+02 -0.32200506269E+02  0.43400722326E+02  0.00000000000E+00 0. -1.
         11    1    3    3    0    0 -0.14679955596E+01  0.15379191865E+01 -0.11797897490E+01  0.24314831893E+01  0.51100000000E-03 0. -1.
        -11    1    3    3    0    0 -0.74918376077E+01  0.29721306336E+01  0.15023982399E+01  0.81986823317E+01  0.51100000000E-03 0.  1.
        -12    1    3    3    0    0 -0.16283967761E+02  0.99640860466E+01  0.31877897779E+02  0.37157112153E+02  0.00000000000E+00 0.  1.
</event>
<event>
 7    1  0.2486105E-010  0.4778727E+02  0.7816164E-02  0.1312668E+00
        -11   -1    0    0    0    0  0.00000000000E+00  0.00000000000E+00  0.45593999997E+02  0.45594000000E+02  0.51100000000E-03 0.  1.
         11   -1    0    0    0    0 -0.00000000000E+00 -0.00000000000E+00 -0.45593999997E+02  0.45594000000E+02  0.51100000000E-03 0. -1.
    9900012    2    1    2    0    0 -0.10718493647E+02  0.41327646820E+02  0.77950345060E+01  0.47787273500E+02  0.20000011196E+02 0.  0.
         12    1    1    2    0    0  0.10718493647E+02 -0.41327646820E+02 -0.77950345060E+01  0.43400726500E+02  0.00000000000E+00 0. -1.
         11    1    3    3    0    0  0.62446706194E+00  0.67761533026E+01 -0.29306891804E+01  0.74091262660E+01  0.51100000000E-03 0. -1.
        -11    1    3    3    0    0  0.25537866404E+01  0.35360888537E+01 -0.90874761713E+00  0.44555104173E+01  0.51100000000E-03 0.  1.
        -12    1    3    3    0    0 -0.13896747349E+02  0.31015404664E+02  0.11634471304E+02  0.35922636817E+02  0.00000000000E+00 0.  1.
</event>
<event>
 7    1  0.2486105E-010  0.4778727E+02  0.7816164E-02  0.1312668E+00
        -11   -1    0    0    0    0  0.00000000000E+00  0.00000000000E+00  0.45593999997E+02  0.45594000000E+02  0.51100000000E-03 0. -1.
         11   -1    0    0    0    0 -0.00000000000E+00 -0.00000000000E+00 -0.45593999997E+02  0.45594000000E+02  0.51100000000E-03 0.  1.
    9900012    2    1    2    0    0  0.51989026557E+01 -0.21659699282E+02 -0.37248521028E+02  0.47787268663E+02  0.19999989142E+02 0.  0.
         12    1    1    2    0    0 -0.51989026557E+01  0.21659699282E+02  0.37248521028E+02  0.43400731337E+02  0.00000000000E+00 0. -1.
         11    1    3    3    0    0  0.14944233315E+01 -0.19186515629E+02 -0.15614334013E+02  0.24782314461E+02  0.51100000000E-03 0.  1.
        -11    1    3    3    0    0 -0.13316449560E+01 -0.23725946430E+01 -0.90484767186E+01  0.94486726484E+01  0.51100000000E-03 0. -1.
        -12    1    3    3    0    0  0.50361242802E+01 -0.10058900993E+00 -0.12585710296E+02  0.13556281554E+02  0.00000000000E+00 0.  1.
</event>
<event>
 7    1  0.2486105E-010  0.4778727E+02  0.7816164E-02  0.1312668E+00
        -11   -1    0    0    0    0  0.00000000000E+00  0.00000000000E+00  0.45593999997E+02  0.45594000000E+02  0.51100000000E-03 0. -1.
         11   -1    0    0    0    0 -0.00000000000E+00 -0.00000000000E+00 -0.45593999997E+02  0.45594000000E+02  0.51100000000E-03 0.  1.
    9900012    2    1    2    0    0 -0.77413569884E+01 -0.24630596076E+02 -0.34885935409E+02  0.47787270047E+02  0.19999995452E+02 0.  0.
         12    1    1    2    0    0  0.77413569884E+01  0.24630596076E+02  0.34885935409E+02  0.43400729953E+02  0.00000000000E+00 0. -1.
         11    1    3    3    0    0  0.28109846420E+01 -0.45949152142E+01 -0.10186430321E+02  0.11522944217E+02  0.51100000000E-03 0. -1.
        -11    1    3    3    0    0 -0.48150615088E+01  0.75330876356E+00 -0.33208944862E+01  0.58975106508E+01  0.51100000000E-03 0.  1.
        -12    1    3    3    0    0 -0.57372801216E+01 -0.20788989626E+02 -0.21378610602E+02  0.30366815179E+02  0.00000000000E+00 0.  1.
</event>
<event>
 7    1  0.2486105E-010  0.4778727E+02  0.7816164E-02  0.1312668E+00
        -11   -1    0    0    0    0  0.00000000000E+00  0.00000000000E+00  0.45593999997E+02  0.45594000000E+02  0.51100000000E-03 0.  1.
         11   -1    0    0    0    0 -0.00000000000E+00 -0.00000000000E+00 -0.45593999997E+02  0.45594000000E+02  0.51100000000E-03 0. -1.
    9900012    2    1    2    0    0 -0.39052992929E+02 -0.31631790741E+01  0.18667657432E+02  0.47787269677E+02  0.19999993767E+02 0.  0.
         12    1    1    2    0    0  0.39052992929E+02  0.31631790741E+01 -0.18667657432E+02  0.43400730323E+02  0.00000000000E+00 0. -1.
         11    1    3    3    0    0 -0.33264021060E+02 -0.27869206627E+01  0.14070309344E+02  0.36224793017E+02  0.51100000000E-03 0. -1.
        -11    1    3    3    0    0 -0.50797254055E+01 -0.42554554787E+01  0.33573675894E+01  0.74286222759E+01  0.51100000000E-03 0.  1.
         12    1    3    3    0    0 -0.70924646364E+00  0.38791970674E+01  0.12399804979E+01  0.41338543841E+01  0.00000000000E+00 0. -1.
</event>
<event>
 7    1  0.2709921E-010  0.4778727E+02  0.7816164E-02  0.1312668E+00
        -11   -1    0    0    0    0  0.00000000000E+00  0.00000000000E+00  0.45593999997E+02  0.45594000000E+02  0.51100000000E-03 0. -1.
         11   -1    0    0    0    0 -0.00000000000E+00 -0.00000000000E+00 -0.45593999997E+02  0.45594000000E+02  0.51100000000E-03 0.  1.
    9900012    2    1    2    0    0  0.42430979378E+02 -0.57543035034E+01  0.70797916358E+01  0.47787268791E+02  0.19999989728E+02 0.  0.
         12    1    1    2    0    0 -0.42430979378E+02  0.57543035034E+01 -0.70797916358E+01  0.43400731209E+02  0.00000000000E+00 0. -1.
         11    1    3    3    0    0 -0.43113480761E+00 -0.23776540279E+01  0.99163019917E+00  0.26119813574E+01  0.51100000000E-03 0. -1.
        -11    1    3    3    0    0  0.18846632391E+02 -0.75107786450E+01  0.12177100834E+01  0.20324619712E+02  0.51100000000E-03 0.  1.
        -12    1    3    3    0    0  0.24015481795E+02  0.41341291694E+01  0.48704513532E+01  0.24850667722E+02  0.00000000000E+00 0.  1.
</event>
<event>
 7    1  0.2486105E-010  0.4778727E+02  0.7816164E-02  0.1312668E+00
        -11   -1    0    0    0    0  0.00000000000E+00  0.00000000000E+00  0.45593999997E+02  0.45594000000E+02  0.51100000000E-03 0.  1.
         11   -1    0    0    0    0 -0.00000000000E+00 -0.00000000000E+00 -0.45593999997E+02  0.45594000000E+02  0.51100000000E-03 0. -1.
    9900012    2    1    2    0    0  0.18543234843E+02 -0.32609002027E+02  0.21827153565E+02  0.47787271845E+02  0.20000003652E+02 0.  0.
         12    1    1    2    0    0 -0.18543234843E+02  0.32609002027E+02 -0.21827153565E+02  0.43400728155E+02  0.00000000000E+00 0. -1.
         11    1    3    3    0    0  0.10566652232E+02 -0.13370191137E+02  0.54477674694E+01  0.17891179981E+02  0.51100000000E-03 0. -1.
        -11    1    3    3    0    0  0.81215727738E+01 -0.10636329771E+02  0.25719071510E+01  0.13627404814E+02  0.51100000000E-03 0.  1.
        -12    1    3    3    0    0 -0.14499016338E+00 -0.86024811180E+01  0.13807478944E+02  0.16268687050E+02  0.00000000000E+00 0.  1.
</event>
<event>
 7    1  0.2486105E-010  0.4778727E+02  0.7816164E-02  0.1312668E+00
        -11   -1    0    0    0    0  0.00000000000E+00  0.00000000000E+00  0.45593999997E+02  0.45594000000E+02  0.51100000000E-03 0.  1.
         11   -1    0    0    0    0 -0.00000000000E+00 -0.00000000000E+00 -0.45593999997E+02  0.45594000000E+02  0.51100000000E-03 0. -1.
    9900012    2    1    2    0    0  0.41338784760E+02  0.10506167325E+02  0.80217520106E+01  0.47787272096E+02  0.20000004792E+02 0.  0.
         12    1    1    2    0    0 -0.41338784760E+02 -0.10506167325E+02 -0.80217520106E+01  0.43400727904E+02  0.00000000000E+00 0. -1.
         11    1    3    3    0    0  0.11341521913E+02  0.69949725249E+01 -0.37296436880E+01  0.13837268597E+02  0.51100000000E-03 0. -1.
        -11    1    3    3    0    0  0.16434757019E+02 -0.25954112262E+01  0.37314161938E+01  0.17051711491E+02  0.51100000000E-03 0.  1.
         12    1    3    3    0    0  0.13562505828E+02  0.61066060267E+01  0.80199795047E+01  0.16898292007E+02  0.00000000000E+00 0. -1.
</event>
<event>
 7    1  0.2486105E-010  0.4778727E+02  0.7816164E-02  0.1312668E+00
        -11   -1    0    0    0    0  0.00000000000E+00  0.00000000000E+00  0.45593999997E+02  0.45594000000E+02  0.51100000000E-03 0.  1.
         11   -1    0    0    0    0 -0.00000000000E+00 -0.00000000000E+00 -0.45593999997E+02  0.45594000000E+02  0.51100000000E-03 0. -1.
    9900012    2    1    2    0    0  0.40423717782E+02 -0.15324173368E+02 -0.38361357140E+01  0.47787272057E+02  0.20000004617E+02 0.  0.
         12    1    1    2    0    0 -0.40423717782E+02  0.15324173368E+02  0.38361357140E+01  0.43400727943E+02  0.00000000000E+00 0. -1.
         11    1    3    3    0    0  0.12463050149E+02 -0.42800701810E+01 -0.60535770628E+00  0.13191401668E+02  0.51100000000E-03 0. -1.
        -11    1    3    3    0    0  0.25939789750E+02 -0.12584649654E+02 -0.73522271813E+01  0.29754013913E+02  0.51100000000E-03 0.  1.
         12    1    3    3    0    0  0.20208778839E+01  0.15405464668E+01  0.41214491735E+01  0.48418564754E+01  0.00000000000E+00 0. -1.
</event>
<event>
 7    1  0.2486105E-010  0.4778727E+02  0.7816164E-02  0.1312668E+00
        -11   -1    0    0    0    0  0.00000000000E+00  0.00000000000E+00  0.45593999997E+02  0.45594000000E+02  0.51100000000E-03 0.  1.
         11   -1    0    0    0    0 -0.00000000000E+00 -0.00000000000E+00 -0.45593999997E+02  0.45594000000E+02  0.51100000000E-03 0. -1.
    9900012    2    1    2    0    0  0.15907743187E+02 -0.38579662032E+02 -0.11923797705E+02  0.47787267661E+02  0.19999984575E+02 0.  0.
         12    1    1    2    0    0 -0.15907743187E+02  0.38579662032E+02  0.11923797705E+02  0.43400732339E+02  0.00000000000E+00 0. -1.
         11    1    3    3    0    0 -0.99137748197E+00 -0.69321109016E+01 -0.67439450086E+01  0.97220257871E+01  0.51100000000E-03 0. -1.
        -11    1    3    3    0    0  0.39528364991E+01 -0.17746085323E+02 -0.57253710250E+01  0.19061173476E+02  0.51100000000E-03 0.  1.
        -12    1    3    3    0    0  0.12946284170E+02 -0.13901465808E+02  0.54551832885E+00  0.19004068398E+02  0.00000000000E+00 0.  1.
</event>
<event>
 7    1  0.2486105E-010  0.4778727E+02  0.7816164E-02  0.1312668E+00
        -11   -1    0    0    0    0  0.00000000000E+00  0.00000000000E+00  0.45593999997E+02  0.45594000000E+02  0.51100000000E-03 0.  1.
         11   -1    0    0    0    0 -0.00000000000E+00 -0.00000000000E+00 -0.45593999997E+02  0.45594000000E+02  0.51100000000E-03 0. -1.
    9900012    2    1    2    0    0 -0.26703826535E+02  0.17870121131E+02  0.29175120449E+02  0.47787271503E+02  0.20000002091E+02 0.  0.
         12    1    1    2    0    0  0.26703826535E+02 -0.17870121131E+02 -0.29175120449E+02  0.43400728497E+02  0.00000000000E+00 0. -1.
         11    1    3    3    0    0 -0.11458478717E+02 -0.28200210822E+01  0.68686484687E+01  0.13653848741E+02  0.51100000000E-03 0. -1.
        -11    1    3    3    0    0 -0.10105640914E+01  0.21061750638E+01  0.29158923016E+01  0.37362603439E+01  0.51100000000E-03 0.  1.
         12    1    3    3    0    0 -0.14234783727E+02  0.18583967150E+02  0.19390579679E+02  0.30397162418E+02  0.00000000000E+00 0. -1.
</event>
<event>
 7    1  0.2486105E-010  0.4778727E+02  0.7816164E-02  0.1312668E+00
        -11   -1    0    0    0    0  0.00000000000E+00  0.00000000000E+00  0.45593999997E+02  0.45594000000E+02  0.51100000000E-03 0.  1.
         11   -1    0    0    0    0 -0.00000000000E+00 -0.00000000000E+00 -0.45593999997E+02  0.45594000000E+02  0.51100000000E-03 0. -1.
    9900012    2    1    2    0    0 -0.73564491906E+01  0.21953698396E+02  0.36708870014E+02  0.47787270102E+02  0.19999995704E+02 0.  0.
         12    1    1    2    0    0  0.73564491906E+01 -0.21953698396E+02 -0.36708870014E+02  0.43400729898E+02  0.00000000000E+00 0. -1.
         11    1    3    3    0    0  0.33934837759E+00  0.13312072309E+02  0.10022962526E+02  0.16666919468E+02  0.51100000000E-03 0. -1.
        -11    1    3    3    0    0 -0.18416404392E+00  0.84894640024E+01  0.14580993477E+02  0.16873360260E+02  0.51100000000E-03 0.  1.
         12    1    3    3    0    0 -0.75116335243E+01  0.15216208403E+00  0.12104914011E+02  0.14246990374E+02  0.00000000000E+00 0. -1.
</event>
<event>
 7    1  0.2486105E-010  0.4778727E+02  0.7816164E-02  0.1312668E+00
        -11   -1    0    0    0    0  0.00000000000E+00  0.00000000000E+00  0.45593999997E+02  0.45594000000E+02  0.51100000000E-03 0. -1.
         11   -1    0    0    0    0 -0.00000000000E+00 -0.00000000000E+00 -0.45593999997E+02  0.45594000000E+02  0.51100000000E-03 0.  1.
    9900012    2    1    2    0    0 -0.49199641114E+01  0.22526998706E+02 -0.36768893894E+02  0.47787271023E+02  0.19999999902E+02 0.  0.
         12    1    1    2    0    0  0.49199641114E+01 -0.22526998706E+02  0.36768893894E+02  0.43400728977E+02  0.00000000000E+00 0. -1.
         11    1    3    3    0    0 -0.94139692666E+01  0.16849120096E+02 -0.26503333592E+02  0.32786313564E+02  0.51100000000E-03 0. -1.
        -11    1    3    3    0    0  0.22524622974E+01  0.75451553392E+01 -0.63360693308E+01  0.10106865504E+02  0.51100000000E-03 0.  1.
         12    1    3    3    0    0  0.22415428578E+01 -0.18672767295E+01 -0.39294909712E+01  0.48940919547E+01  0.00000000000E+00 0. -1.
</event>
<event>
 7    1  0.2486105E-010  0.4778727E+02  0.7816164E-02  0.1312668E+00
        -11   -1    0    0    0    0  0.00000000000E+00  0.00000000000E+00  0.45593999997E+02  0.45594000000E+02  0.51100000000E-03 0.  1.
         11   -1    0    0    0    0 -0.00000000000E+00 -0.00000000000E+00 -0.45593999997E+02  0.45594000000E+02  0.51100000000E-03 0. -1.
    9900012    2    1    2    0    0 -0.26075449361E+02 -0.23426444254E+02  0.25590933871E+02  0.47787271363E+02  0.20000001454E+02 0.  0.
         12    1    1    2    0    0  0.26075449361E+02  0.23426444254E+02 -0.25590933871E+02  0.43400728637E+02  0.00000000000E+00 0. -1.
         11    1    3    3    0    0  0.13252078989E+00 -0.39780731058E+01  0.19445909066E+01  0.44299053545E+01  0.51100000000E-03 0. -1.
        -11    1    3    3    0    0 -0.14544038234E+02 -0.14111924197E+02  0.22797643463E+02  0.30502590060E+02  0.51100000000E-03 0.  1.
         12    1    3    3    0    0 -0.11663931918E+02 -0.53364469512E+01  0.84869950211E+00  0.12854775949E+02  0.00000000000E+00 0. -1.
</event>
<event>
 7    1  0.2486105E-010  0.4778726E+02  0.7816164E-02  0.1312668E+00
        -11   -1    0    0    0    0  0.00000000000E+00  0.00000000000E+00  0.45593999997E+02  0.45594000000E+02  0.51100000000E-03 0.  1.
         11   -1    0    0    0    0 -0.00000000000E+00 -0.00000000000E+00 -0.45593999997E+02  0.45594000000E+02  0.51100000000E-03 0. -1.
    9900012    2    1    2    0    0  0.72088617476E+01 -0.30712663409E+02  0.29805849103E+02  0.47787262424E+02  0.19999960696E+02 0.  0.
         12    1    1    2    0    0 -0.72088617476E+01  0.30712663409E+02 -0.29805849103E+02  0.43400737576E+02  0.00000000000E+00 0. -1.
         11    1    3    3    0    0  0.40848426664E+01 -0.55638235652E+01 -0.10082891091E+00  0.69030601189E+01  0.51100000000E-03 0. -1.
        -11    1    3    3    0    0  0.53528880136E+01 -0.16925369338E+02  0.13169982004E+02  0.22103618789E+02  0.51100000000E-03 0.  1.
         12    1    3    3    0    0 -0.22288689324E+01 -0.82234705056E+01  0.16736696010E+02  0.18780583516E+02  0.00000000000E+00 0. -1.
</event>
<event>
 7    1  0.2486105E-010  0.4778727E+02  0.7816164E-02  0.1312668E+00
        -11   -1    0    0    0    0  0.00000000000E+00  0.00000000000E+00  0.45593999997E+02  0.45594000000E+02  0.51100000000E-03 0.  1.
         11   -1    0    0    0    0 -0.00000000000E+00 -0.00000000000E+00 -0.45593999997E+02  0.45594000000E+02  0.51100000000E-03 0. -1.
    9900012    2    1    2    0    0 -0.44603784166E+00  0.17805348509E+02  0.39577693981E+02  0.47787271364E+02  0.20000001456E+02 0.  0.
         12    1    1    2    0    0  0.44603784166E+00 -0.17805348509E+02 -0.39577693981E+02  0.43400728636E+02  0.00000000000E+00 0. -1.
         11    1    3    3    0    0 -0.42269055666E+01  0.10797612808E+02  0.26377442136E+02  0.28813618775E+02  0.51100000000E-03 0. -1.
        -11    1    3    3    0    0  0.12920831841E+01  0.97915985114E+01  0.91297776868E+01  0.13449822350E+02  0.51100000000E-03 0.  1.
         12    1    3    3    0    0  0.24887845409E+01 -0.27838628102E+01  0.40704741581E+01  0.55238302389E+01  0.00000000000E+00 0. -1.
</event>
<event>
 7    1  0.2486105E-010  0.4778726E+02  0.7816164E-02  0.1312668E+00
        -11   -1    0    0    0    0  0.00000000000E+00  0.00000000000E+00  0.45593999997E+02  0.45594000000E+02  0.51100000000E-03 0. -1.
         11   -1    0    0    0    0 -0.00000000000E+00 -0.00000000000E+00 -0.45593999997E+02  0.45594000000E+02  0.51100000000E-03 0.  1.
    9900012    2    1    2    0    0 -0.11150549871E+02 -0.22324457128E+02 -0.35509263882E+02  0.47787263025E+02  0.19999963438E+02 0.  0.
         12    1    1    2    0    0  0.11150549871E+02  0.22324457128E+02  0.35509263882E+02  0.43400736975E+02  0.00000000000E+00 0. -1.
         11    1    3    3    0    0  0.11939894918E+01 -0.97310701852E+01 -0.18509725461E+02  0.20945865338E+02  0.51100000000E-03 0. -1.
        -11    1    3    3    0    0 -0.42838804912E+01 -0.14265945954E+01 -0.10862967988E+02  0.11763965232E+02  0.51100000000E-03 0.  1.
        -12    1    3    3    0    0 -0.80606588714E+01 -0.11166792348E+02 -0.61365704329E+01  0.15077432456E+02  0.00000000000E+00 0.  1.
</event>
<event>
 7    1  0.2486105E-010  0.4778726E+02  0.7816164E-02  0.1312668E+00
        -11   -1    0    0    0    0  0.00000000000E+00  0.00000000000E+00  0.45593999997E+02  0.45594000000E+02  0.51100000000E-03 0.  1.
         11   -1    0    0    0    0 -0.00000000000E+00 -0.00000000000E+00 -0.45593999997E+02  0.45594000000E+02  0.51100000000E-03 0. -1.
    9900012    2    1    2    0    0 -0.47783300586E+01  0.10055116173E+02  0.41948620127E+02  0.47787256573E+02  0.19999934020E+02 0.  0.
         12    1    1    2    0    0  0.47783300586E+01 -0.10055116173E+02 -0.41948620127E+02  0.43400743427E+02  0.00000000000E+00 0. -1.
         11    1    3    3    0    0  0.37743552613E+01  0.59835167632E+01  0.63292451362E+01  0.94925009744E+01  0.51100000000E-03 0. -1.
        -11    1    3    3    0    0 -0.12033874848E+01  0.37676801553E+01  0.33064516336E+01  0.51552088084E+01  0.51100000000E-03 0.  1.
        -12    1    3    3    0    0 -0.73492978352E+01  0.30391925487E+00  0.32312923357E+02  0.33139546791E+02  0.00000000000E+00 0.  1.
</event>
<event>
 7    1  0.2486105E-010  0.4778727E+02  0.7816164E-02  0.1312668E+00
        -11   -1    0    0    0    0  0.00000000000E+00  0.00000000000E+00  0.45593999997E+02  0.45594000000E+02  0.51100000000E-03 0.  1.
         11   -1    0    0    0    0 -0.00000000000E+00 -0.00000000000E+00 -0.45593999997E+02  0.45594000000E+02  0.51100000000E-03 0. -1.
    9900012    2    1    2    0    0  0.11003272047E+02  0.17407379950E+02  0.38203851890E+02  0.47787272221E+02  0.20000005366E+02 0.  0.
         12    1    1    2    0    0 -0.11003272047E+02 -0.17407379950E+02 -0.38203851890E+02  0.43400727779E+02  0.00000000000E+00 0. -1.
         11    1    3    3    0    0  0.18187081437E+01 -0.34867035125E+01  0.88959332858E+01  0.97263780506E+01  0.51100000000E-03 0. -1.
        -11    1    3    3    0    0 -0.27186226068E+00  0.91014344390E+01  0.97207037606E+01  0.13319237959E+02  0.51100000000E-03 0.  1.
        -12    1    3    3    0    0  0.94564261635E+01  0.11792649024E+02  0.19587214844E+02  0.24741656212E+02  0.00000000000E+00 0.  1.
</event>
<event>
 7    1  0.2486105E-010  0.4778728E+02  0.7816164E-02  0.1312668E+00
        -11   -1    0    0    0    0  0.00000000000E+00  0.00000000000E+00  0.45593999997E+02  0.45594000000E+02  0.51100000000E-03 0.  1.
         11   -1    0    0    0    0 -0.00000000000E+00 -0.00000000000E+00 -0.45593999997E+02  0.45594000000E+02  0.51100000000E-03 0. -1.
    9900012    2    1    2    0    0 -0.14547424706E+02  0.12231107992E+02  0.39017884501E+02  0.47787275591E+02  0.20000020731E+02 0.  0.
         12    1    1    2    0    0  0.14547424706E+02 -0.12231107992E+02 -0.39017884501E+02  0.43400724409E+02  0.00000000000E+00 0. -1.
         11    1    3    3    0    0  0.18621581519E+01 -0.22218619417E+01  0.19738619375E+01  0.35071975536E+01  0.51100000000E-03 0. -1.
        -11    1    3    3    0    0 -0.11350589691E+01  0.69820451646E+01  0.13459059649E+02  0.15204722965E+02  0.51100000000E-03 0.  1.
         12    1    3    3    0    0 -0.15274523889E+02  0.74709247692E+01  0.23584962915E+02  0.29075355073E+02  0.00000000000E+00 0. -1.
</event>
<event>
 7    1  0.2486105E-010  0.4778727E+02  0.7816164E-02  0.1312668E+00
        -11   -1    0    0    0    0  0.00000000000E+00  0.00000000000E+00  0.45593999997E+02  0.45594000000E+02  0.51100000000E-03 0.  1.
         11   -1    0    0    0    0 -0.00000000000E+00 -0.00000000000E+00 -0.45593999997E+02  0.45594000000E+02  0.51100000000E-03 0. -1.
    9900012    2    1    2    0    0  0.37475119461E+02  0.37469231917E+01  0.21568482490E+02  0.47787269028E+02  0.19999990805E+02 0.  0.
         12    1    1    2    0    0 -0.37475119461E+02 -0.37469231917E+01 -0.21568482490E+02  0.43400730972E+02  0.00000000000E+00 0. -1.
         11    1    3    3    0    0  0.89105580408E+01 -0.46685944166E+01  0.51474073618E+01  0.11299983240E+02  0.51100000000E-03 0. -1.
        -11    1    3    3    0    0  0.16202556139E+02  0.50388330410E+00  0.27741817969E+01  0.16446057544E+02  0.51100000000E-03 0.  1.
         12    1    3    3    0    0  0.12362005281E+02  0.79116343042E+01  0.13646893331E+02  0.20041228244E+02  0.00000000000E+00 0. -1.
</event>
<event>
 7    1  0.2486105E-010  0.4778722E+02  0.7816164E-02  0.1312668E+00
        -11   -1    0    0    0    0  0.00000000000E+00  0.00000000000E+00  0.45593999997E+02  0.45594000000E+02  0.51100000000E-03 0. -1.
         11   -1    0    0    0    0 -0.00000000000E+00 -0.00000000000E+00 -0.45593999997E+02  0.45594000000E+02  0.51100000000E-03 0.  1.
    9900012    2    1    2    0    0 -0.27516770302E+02 -0.16484885004E+02  0.29235310144E+02  0.47787223041E+02  0.19999781132E+02 0.  0.
         12    1    1    2    0    0  0.27516770302E+02  0.16484885004E+02 -0.29235310144E+02  0.43400776959E+02  0.00000000000E+00 0. -1.
         11    1    3    3    0    0 -0.67382974058E+01 -0.44214941544E+00  0.53152543546E+00  0.67736745998E+01  0.51100000000E-03 0. -1.
        -11    1    3    3    0    0 -0.68111294121E+01 -0.39342183152E-01  0.24399295842E+01  0.72350734836E+01  0.51100000000E-03 0.  1.
        -12    1    3    3    0    0 -0.13967343484E+02 -0.16003393406E+02  0.26263855124E+02  0.33778474958E+02  0.00000000000E+00 0.  1.
</event>
<event>
 7    1  0.2486105E-010  0.4778727E+02  0.7816164E-02  0.1312668E+00
        -11   -1    0    0    0    0  0.00000000000E+00  0.00000000000E+00  0.45593999997E+02  0.45594000000E+02  0.51100000000E-03 0.  1.
         11   -1    0    0    0    0 -0.00000000000E+00 -0.00000000000E+00 -0.45593999997E+02  0.45594000000E+02  0.51100000000E-03 0. -1.
    9900012    2    1    2    0    0 -0.22928370298E+02  0.13280191494E+02  0.34373676676E+02  0.47787270756E+02  0.19999998687E+02 0.  0.
         12    1    1    2    0    0  0.22928370298E+02 -0.13280191494E+02 -0.34373676676E+02  0.43400729244E+02  0.00000000000E+00 0. -1.
         11    1    3    3    0    0  0.10349866676E+01  0.50330008686E+01  0.79354029342E+01  0.94537249344E+01  0.51100000000E-03 0. -1.
        -11    1    3    3    0    0 -0.10928334313E+02  0.88112007532E+01  0.94894925937E+01  0.16944504109E+02  0.51100000000E-03 0.  1.
        -12    1    3    3    0    0 -0.13035022652E+02 -0.56401012760E+00  0.16948781148E+02  0.21389041713E+02  0.00000000000E+00 0.  1.
</event>
<event>
 7    1  0.2486105E-010  0.4778727E+02  0.7816164E-02  0.1312668E+00
        -11   -1    0    0    0    0  0.00000000000E+00  0.00000000000E+00  0.45593999997E+02  0.45594000000E+02  0.51100000000E-03 0. -1.
         11   -1    0    0    0    0 -0.00000000000E+00 -0.00000000000E+00 -0.45593999997E+02  0.45594000000E+02  0.51100000000E-03 0.  1.
    9900012    2    1    2    0    0  0.37501361921E+02  0.17953469953E+02  0.12447653659E+02  0.47787270618E+02  0.19999998057E+02 0.  0.
         12    1    1    2    0    0 -0.37501361921E+02 -0.17953469953E+02 -0.12447653659E+02  0.43400729382E+02  0.00000000000E+00 0. -1.
         11    1    3    3    0    0  0.45426593885E+01 -0.99068466569E+00  0.60613187590E+01  0.76391619819E+01  0.51100000000E-03 0. -1.
        -11    1    3    3    0    0  0.34257727770E+01  0.54403318711E+01 -0.17648791225E+01  0.66669279706E+01  0.51100000000E-03 0.  1.
         12    1    3    3    0    0  0.29532929755E+02  0.13503822747E+02  0.81512140225E+01  0.33481180666E+02  0.00000000000E+00 0. -1.
</event>
<event>
 7    1  0.2486105E-010  0.4778728E+02  0.7816164E-02  0.1312668E+00
        -11   -1    0    0    0    0  0.00000000000E+00  0.00000000000E+00  0.45593999997E+02  0.45594000000E+02  0.51100000000E-03 0. -1.
         11   -1    0    0    0    0 -0.00000000000E+00 -0.00000000000E+00 -0.45593999997E+02  0.45594000000E+02  0.51100000000E-03 0.  1.
    9900012    2    1    2    0    0  0.21221876761E+02 -0.37654390096E+02  0.39244420145E+01  0.47787281206E+02  0.20000046330E+02 0.  0.
         12    1    1    2    0    0 -0.21221876761E+02  0.37654390096E+02 -0.39244420145E+01  0.43400718794E+02  0.00000000000E+00 0. -1.
         11    1    3    3    0    0 -0.44956023563E+00 -0.10434703133E+02  0.20503909303E+01  0.10643741687E+02  0.51100000000E-03 0. -1.
        -11    1    3    3    0    0  0.12764325754E+02 -0.23522799634E+02  0.45233565798E+01  0.27142418271E+02  0.51100000000E-03 0.  1.
         12    1    3    3    0    0  0.89071112426E+01 -0.36968873290E+01 -0.26493054956E+01  0.10001121248E+02  0.00000000000E+00 0. -1.
</event>
<event>
 7    1  0.2486105E-010  0.4778727E+02  0.7816164E-02  0.1312668E+00
        -11   -1    0    0    0    0  0.00000000000E+00  0.00000000000E+00  0.45593999997E+02  0.45594000000E+02  0.51100000000E-03 0.  1.
         11   -1    0    0    0    0 -0.00000000000E+00 -0.00000000000E+00 -0.45593999997E+02  0.45594000000E+02  0.51100000000E-03 0. -1.
    9900012    2    1    2    0    0  0.42874216995E+02  0.27878741454E+01  0.61361691296E+01  0.47787270781E+02  0.19999998797E+02 0.  0.
         12    1    1    2    0    0 -0.42874216995E+02 -0.27878741454E+01 -0.61361691296E+01  0.43400729219E+02  0.00000000000E+00 0. -1.
         11    1    3    3    0    0  0.19413637936E+02  0.57811465617E+01 -0.30776036675E-01  0.20256158098E+02  0.51100000000E-03 0. -1.
        -11    1    3    3    0    0  0.11645214578E+02  0.28452340405E+01 -0.18132962877E+01  0.12124125659E+02  0.51100000000E-03 0.  1.
         12    1    3    3    0    0  0.11815364482E+02 -0.58385064567E+01  0.79802414539E+01  0.15406987024E+02  0.00000000000E+00 0. -1.
</event>
<event>
 7    1  0.2486105E-010  0.4778727E+02  0.7816164E-02  0.1312668E+00
        -11   -1    0    0    0    0  0.00000000000E+00  0.00000000000E+00  0.45593999997E+02  0.45594000000E+02  0.51100000000E-03 0.  1.
         11   -1    0    0    0    0 -0.00000000000E+00 -0.00000000000E+00 -0.45593999997E+02  0.45594000000E+02  0.51100000000E-03 0. -1.
    9900012    2    1    2    0    0 -0.34642163964E+02 -0.11544230893E+02  0.23457925804E+02  0.47787273347E+02  0.20000010496E+02 0.  0.
         12    1    1    2    0    0  0.34642163964E+02  0.11544230893E+02 -0.23457925804E+02  0.43400726653E+02  0.00000000000E+00 0. -1.
         11    1    3    3    0    0 -0.67915319680E+01 -0.38944061290E+01  0.10068687008E+02  0.12754205734E+02  0.51100000000E-03 0. -1.
        -11    1    3    3    0    0 -0.14829046835E+02 -0.40542545280E+01  0.14938221082E+02  0.21435672584E+02  0.51100000000E-03 0.  1.
         12    1    3    3    0    0 -0.13021585161E+02 -0.35955702358E+01 -0.15489822856E+01  0.13597395028E+02  0.00000000000E+00 0. -1.
</event>
<event>
 7    1  0.2486105E-010  0.4778728E+02  0.7816164E-02  0.1312668E+00
        -11   -1    0    0    0    0  0.00000000000E+00  0.00000000000E+00  0.45593999997E+02  0.45594000000E+02  0.51100000000E-03 0. -1.
         11   -1    0    0    0    0 -0.00000000000E+00 -0.00000000000E+00 -0.45593999997E+02  0.45594000000E+02  0.51100000000E-03 0.  1.
    9900012    2    1    2    0    0  0.34056616635E+02  0.24507244613E+02 -0.11097936407E+02  0.47787281485E+02  0.20000047604E+02 0.  0.
         12    1    1    2    0    0 -0.34056616635E+02 -0.24507244613E+02  0.11097936407E+02  0.43400718515E+02  0.00000000000E+00 0. -1.
         11    1    3    3    0    0  0.13013825927E+02  0.14290396461E+02 -0.97510915022E+00  0.19352672538E+02  0.51100000000E-03 0. -1.
        -11    1    3    3    0    0  0.18431528082E+02  0.11037383825E+02 -0.41726560592E+01  0.21885066324E+02  0.51100000000E-03 0.  1.
         12    1    3    3    0    0  0.26112626253E+01 -0.82053567334E+00 -0.59501711976E+01  0.65495426230E+01  0.00000000000E+00 0. -1.
</event>
<event>
 7    1  0.2486105E-010  0.4778727E+02  0.7816164E-02  0.1312668E+00
        -11   -1    0    0    0    0  0.00000000000E+00  0.00000000000E+00  0.45593999997E+02  0.45594000000E+02  0.51100000000E-03 0.  1.
         11   -1    0    0    0    0 -0.00000000000E+00 -0.00000000000E+00 -0.45593999997E+02  0.45594000000E+02  0.51100000000E-03 0. -1.
    9900012    2    1    2    0    0 -0.13408152284E+02  0.44100043049E+01  0.41041403296E+02  0.47787268783E+02  0.19999989691E+02 0.  0.
         12    1    1    2    0    0  0.13408152284E+02 -0.44100043049E+01 -0.41041403296E+02  0.43400731217E+02  0.00000000000E+00 0. -1.
         11    1    3    3    0    0 -0.22612426476E+01  0.10269456700E+01 -0.37711006043E-01  0.24837991266E+01  0.51100000000E-03 0. -1.
        -11    1    3    3    0    0  0.16396469596E+01  0.48988523925E+01  0.19519250284E+02  0.20191293392E+02  0.51100000000E-03 0.  1.
        -12    1    3    3    0    0 -0.12786556596E+02 -0.15157937576E+01  0.21559864018E+02  0.25112176265E+02  0.00000000000E+00 0.  1.
</event>
<event>
 7    1  0.2486105E-010  0.4778727E+02  0.7816164E-02  0.1312668E+00
        -11   -1    0    0    0    0  0.00000000000E+00  0.00000000000E+00  0.45593999997E+02  0.45594000000E+02  0.51100000000E-03 0.  1.
         11   -1    0    0    0    0 -0.00000000000E+00 -0.00000000000E+00 -0.45593999997E+02  0.45594000000E+02  0.51100000000E-03 0. -1.
    9900012    2    1    2    0    0  0.16837591427E+02  0.67985128608E+01  0.39419528865E+02  0.47787268231E+02  0.19999987171E+02 0.  0.
         12    1    1    2    0    0 -0.16837591427E+02 -0.67985128608E+01 -0.39419528865E+02  0.43400731769E+02  0.00000000000E+00 0. -1.
         11    1    3    3    0    0 -0.41775218731E+00  0.36844648538E+01  0.25836607102E+01  0.45194137978E+01  0.51100000000E-03 0. -1.
        -11    1    3    3    0    0  0.46876363624E+01 -0.49638891556E+01  0.17833509673E+02  0.19095763869E+02  0.51100000000E-03 0.  1.
        -12    1    3    3    0    0  0.12567707251E+02  0.80779371627E+01  0.19002358482E+02  0.24172090564E+02  0.00000000000E+00 0.  1.
</event>
<event>
 7    1  0.2486105E-010  0.4778727E+02  0.7816164E-02  0.1312668E+00
        -11   -1    0    0    0    0  0.00000000000E+00  0.00000000000E+00  0.45593999997E+02  0.45594000000E+02  0.51100000000E-03 0.  1.
         11   -1    0    0    0    0 -0.00000000000E+00 -0.00000000000E+00 -0.45593999997E+02  0.45594000000E+02  0.51100000000E-03 0. -1.
    9900012    2    1    2    0    0  0.86500314004E+01 -0.42461698177E+02 -0.24092196440E+01  0.47787271958E+02  0.20000004165E+02 0.  0.
         12    1    1    2    0    0 -0.86500314004E+01  0.42461698177E+02  0.24092196440E+01  0.43400728042E+02  0.00000000000E+00 0. -1.
         11    1    3    3    0    0  0.13018215632E+01 -0.12007184523E+02 -0.69371055405E+01  0.13928052739E+02  0.51100000000E-03 0. -1.
        -11    1    3    3    0    0  0.72104859883E+01 -0.16235731321E+02 -0.25985678737E+01  0.17953903057E+02  0.51100000000E-03 0.  1.
        -12    1    3    3    0    0  0.13772384884E+00 -0.14218782332E+02  0.71264537702E+01  0.15905316162E+02  0.00000000000E+00 0.  1.
</event>
<event>
 7    1  0.2486105E-010  0.4778727E+02  0.7816164E-02  0.1312668E+00
        -11   -1    0    0    0    0  0.00000000000E+00  0.00000000000E+00  0.45593999997E+02  0.45594000000E+02  0.51100000000E-03 0.  1.
         11   -1    0    0    0    0 -0.00000000000E+00 -0.00000000000E+00 -0.45593999997E+02  0.45594000000E+02  0.51100000000E-03 0. -1.
    9900012    2    1    2    0    0  0.41478673046E+01  0.35725020508E+02  0.24292822722E+02  0.47787272710E+02  0.20000007596E+02 0.  0.
         12    1    1    2    0    0 -0.41478673046E+01 -0.35725020508E+02 -0.24292822722E+02  0.43400727290E+02  0.00000000000E+00 0. -1.
         11    1    3    3    0    0  0.71172089533E+00 -0.16908653969E+00  0.21678730218E+01  0.22879708456E+01  0.51100000000E-03 0. -1.
        -11    1    3    3    0    0  0.53199292204E+01  0.35865573475E+01  0.78229142884E+01  0.10117461576E+02  0.51100000000E-03 0.  1.
         12    1    3    3    0    0 -0.18837828112E+01  0.32307549700E+02  0.14302035412E+02  0.35381840289E+02  0.00000000000E+00 0. -1.
</event>
<event>
 7    1  0.2486105E-010  0.4778727E+02  0.7816164E-02  0.1312668E+00
        -11   -1    0    0    0    0  0.00000000000E+00  0.00000000000E+00  0.45593999997E+02  0.45594000000E+02  0.51100000000E-03 0. -1.
         11   -1    0    0    0    0 -0.00000000000E+00 -0.00000000000E+00 -0.45593999997E+02  0.45594000000E+02  0.51100000000E-03 0.  1.
    9900012    2    1    2    0    0  0.78882692717E+01  0.18806884465E+02 -0.38310571466E+02  0.47787267501E+02  0.19999983843E+02 0.  0.
         12    1    1    2    0    0 -0.78882692717E+01 -0.18806884465E+02  0.38310571466E+02  0.43400732499E+02  0.00000000000E+00 0. -1.
         11    1    3    3    0    0 -0.27018259648E+01  0.11271796790E+01 -0.77348032980E+01  0.82702829391E+01  0.51100000000E-03 0.  1.
        -11    1    3    3    0    0  0.69257692010E+01 -0.17685289986E-02 -0.96366850739E+01  0.11867265128E+02  0.51100000000E-03 0. -1.
         12    1    3    3    0    0  0.36643260356E+01  0.17681473315E+02 -0.20939083095E+02  0.27649719433E+02  0.00000000000E+00 0. -1.
</event>
<event>
 7    1  0.2486105E-010  0.4778727E+02  0.7816164E-02  0.1312668E+00
        -11   -1    0    0    0    0  0.00000000000E+00  0.00000000000E+00  0.45593999997E+02  0.45594000000E+02  0.51100000000E-03 0. -1.
         11   -1    0    0    0    0 -0.00000000000E+00 -0.00000000000E+00 -0.45593999997E+02  0.45594000000E+02  0.51100000000E-03 0.  1.
    9900012    2    1    2    0    0  0.20226580234E+02  0.28870129628E+02 -0.25318459741E+02  0.47787270325E+02  0.19999996719E+02 0.  0.
         12    1    1    2    0    0 -0.20226580234E+02 -0.28870129628E+02  0.25318459741E+02  0.43400729675E+02  0.00000000000E+00 0. -1.
         11    1    3    3    0    0  0.11187107261E+02  0.13021037635E+02 -0.11167450944E+02  0.20479520278E+02  0.51100000000E-03 0. -1.
        -11    1    3    3    0    0  0.55399773984E+01  0.44087198335E+01 -0.13598628925E+02  0.15331368793E+02  0.51100000000E-03 0.  1.
         12    1    3    3    0    0  0.34994955737E+01  0.11440372159E+02 -0.55237987122E+00  0.11976381254E+02  0.00000000000E+00 0. -1.
</event>
<event>
 7    1  0.2486105E-010  0.4778727E+02  0.7816164E-02  0.1312668E+00
        -11   -1    0    0    0    0  0.00000000000E+00  0.00000000000E+00  0.45593999997E+02  0.45594000000E+02  0.51100000000E-03 0. -1.
         11   -1    0    0    0    0 -0.00000000000E+00 -0.00000000000E+00 -0.45593999997E+02  0.45594000000E+02  0.51100000000E-03 0.  1.
    9900012    2    1    2    0    0  0.57342221287E+01 -0.62342395700E+01 -0.42566139009E+02  0.47787271474E+02  0.20000001957E+02 0.  0.
         12    1    1    2    0    0 -0.57342221287E+01  0.62342395700E+01  0.42566139009E+02  0.43400728526E+02  0.00000000000E+00 0. -1.
         11    1    3    3    0    0 -0.30179551819E+01  0.27521092288E+01 -0.65934125239E+01  0.77559814117E+01  0.51100000000E-03 0. -1.
        -11    1    3    3    0    0 -0.27970236262E+00 -0.50129205930E+01 -0.23985260559E+02  0.24505108256E+02  0.51100000000E-03 0.  1.
         12    1    3    3    0    0  0.90318796733E+01 -0.39734282059E+01 -0.11987465927E+02  0.15526181806E+02  0.00000000000E+00 0. -1.
</event>
<event>
 7    1  0.2486105E-010  0.4778727E+02  0.7816164E-02  0.1312668E+00
        -11   -1    0    0    0    0  0.00000000000E+00  0.00000000000E+00  0.45593999997E+02  0.45594000000E+02  0.51100000000E-03 0.  1.
         11   -1    0    0    0    0 -0.00000000000E+00 -0.00000000000E+00 -0.45593999997E+02  0.45594000000E+02  0.51100000000E-03 0. -1.
    9900012    2    1    2    0    0  0.62722669390E+01 -0.16680419318E+02  0.39573299371E+02  0.47787265625E+02  0.19999975291E+02 0.  0.
         12    1    1    2    0    0 -0.62722669390E+01  0.16680419318E+02 -0.39573299371E+02  0.43400734375E+02  0.00000000000E+00 0. -1.
         11    1    3    3    0    0 -0.86480553764E+00 -0.55120148615E+01  0.28762947500E+01  0.62772022591E+01  0.51100000000E-03 0. -1.
        -11    1    3    3    0    0  0.46272435251E+01 -0.77157498155E+01  0.67170826928E+01  0.11227794887E+02  0.51100000000E-03 0.  1.
        -12    1    3    3    0    0  0.25098289515E+01 -0.34526546414E+01  0.29979921928E+02  0.30282268479E+02  0.00000000000E+00 0.  1.
</event>
<event>
 7    1  0.2486105E-010  0.4778731E+02  0.7816164E-02  0.1312668E+00
        -11   -1    0    0    0    0  0.00000000000E+00  0.00000000000E+00  0.45593999997E+02  0.45594000000E+02  0.51100000000E-03 0.  1.
         11   -1    0    0    0    0 -0.00000000000E+00 -0.00000000000E+00 -0.45593999997E+02  0.45594000000E+02  0.51100000000E-03 0. -1.
    9900012    2    1    2    0    0 -0.14627385145E+02  0.42233335213E+01  0.40642623774E+02  0.47787310957E+02  0.20000181975E+02 0.  0.
         12    1    1    2    0    0  0.14627385145E+02 -0.42233335213E+01 -0.40642623774E+02  0.43400689043E+02  0.00000000000E+00 0. -1.
         11    1    3    3    0    0 -0.25848359875E+00  0.33001330381E+01  0.19493218669E+01  0.38415553935E+01  0.51100000000E-03 0. -1.
        -11    1    3    3    0    0 -0.51219017916E+01  0.76787546963E+01  0.14664527225E+02  0.17327593908E+02  0.51100000000E-03 0.  1.
        -12    1    3    3    0    0 -0.92469997542E+01 -0.67555542131E+01  0.24028774682E+02  0.26618161655E+02  0.00000000000E+00 0.  1.
</event>
<event>
 7    1  0.2486105E-010  0.4778729E+02  0.7816164E-02  0.1312668E+00
        -11   -1    0    0    0    0  0.00000000000E+00  0.00000000000E+00  0.45593999997E+02  0.45594000000E+02  0.51100000000E-03 0. -1.
         11   -1    0    0    0    0 -0.00000000000E+00 -0.00000000000E+00 -0.45593999997E+02  0.45594000000E+02  0.51100000000E-03 0.  1.
    9900012    2    1    2    0    0  0.37351774645E+02 -0.21703843792E+02 -0.41724610562E+01  0.47787293373E+02  0.20000101805E+02 0.  0.
         12    1    1    2    0    0 -0.37351774645E+02  0.21703843792E+02  0.41724610562E+01  0.43400706627E+02  0.00000000000E+00 0. -1.
         11    1    3    3    0    0  0.11050950422E+02 -0.12715419736E+01 -0.24624968992E+01  0.11393165295E+02  0.51100000000E-03 0. -1.
        -11    1    3    3    0    0 -0.87182552297E+00 -0.22819661300E+00 -0.23608414678E+01  0.25269994329E+01  0.51100000000E-03 0.  1.
         12    1    3    3    0    0  0.27172649746E+02 -0.20204105205E+02  0.65087731072E+00  0.33867128645E+02  0.00000000000E+00 0. -1.
</event>
<event>
 7    1  0.2486105E-010  0.4778727E+02  0.7816164E-02  0.1312668E+00
        -11   -1    0    0    0    0  0.00000000000E+00  0.00000000000E+00  0.45593999997E+02  0.45594000000E+02  0.51100000000E-03 0. -1.
         11   -1    0    0    0    0 -0.00000000000E+00 -0.00000000000E+00 -0.45593999997E+02  0.45594000000E+02  0.51100000000E-03 0.  1.
    9900012    2    1    2    0    0 -0.78515103622E+01  0.41327507658E+02 -0.10677726113E+02  0.47787274901E+02  0.20000017584E+02 0.  0.
         12    1    1    2    0    0  0.78515103622E+01 -0.41327507658E+02  0.10677726113E+02  0.43400725099E+02  0.00000000000E+00 0. -1.
         11    1    3    3    0    0 -0.51725350937E+01  0.37926162018E+01 -0.57285233362E+01  0.85997114384E+01  0.51100000000E-03 0. -1.
        -11    1    3    3    0    0  0.54975686435E+00  0.15578304436E+01 -0.24823198109E+01  0.29817746738E+01  0.51100000000E-03 0.  1.
        -12    1    3    3    0    0 -0.32287321329E+01  0.35977061012E+02 -0.24668829662E+01  0.36205788789E+02  0.00000000000E+00 0.  1.
</event>
<event>
 7    1  0.2486105E-010  0.4778727E+02  0.7816164E-02  0.1312668E+00
        -11   -1    0    0    0    0  0.00000000000E+00  0.00000000000E+00  0.45593999997E+02  0.45594000000E+02  0.51100000000E-03 0.  1.
         11   -1    0    0    0    0 -0.00000000000E+00 -0.00000000000E+00 -0.45593999997E+02  0.45594000000E+02  0.51100000000E-03 0. -1.
    9900012    2    1    2    0    0  0.42201333484E+02  0.61840092213E+01  0.80267435348E+01  0.47787272706E+02  0.20000007575E+02 0.  0.
         12    1    1    2    0    0 -0.42201333484E+02 -0.61840092213E+01 -0.80267435348E+01  0.43400727294E+02  0.00000000000E+00 0. -1.
         11    1    3    3    0    0 -0.13904576639E+00 -0.40449486186E+00  0.67978191979E-01  0.43309480963E+00  0.51100000000E-03 0. -1.
        -11    1    3    3    0    0  0.19833445548E+02 -0.24226444455E+01 -0.39118795601E+01  0.20360195735E+02  0.51100000000E-03 0.  1.
         12    1    3    3    0    0  0.22506933702E+02  0.90111485287E+01  0.11870644903E+02  0.26993982161E+02  0.00000000000E+00 0. -1.
</event>
<event>
 7    1  0.2486105E-010  0.4778727E+02  0.7816164E-02  0.1312668E+00
        -11   -1    0    0    0    0  0.00000000000E+00  0.00000000000E+00  0.45593999997E+02  0.45594000000E+02  0.51100000000E-03 0.  1.
         11   -1    0    0    0    0 -0.00000000000E+00 -0.00000000000E+00 -0.45593999997E+02  0.45594000000E+02  0.51100000000E-03 0. -1.
    9900012    2    1    2    0    0 -0.10607234296E+02  0.22252153481E+02  0.35720464875E+02  0.47787269997E+02  0.19999995224E+02 0.  0.
         12    1    1    2    0    0  0.10607234296E+02 -0.22252153481E+02 -0.35720464875E+02  0.43400730003E+02  0.00000000000E+00 0. -1.
         11    1    3    3    0    0 -0.90152778221E+01  0.62806834659E+01  0.79566979391E+01  0.13565812226E+02  0.51100000000E-03 0. -1.
        -11    1    3    3    0    0 -0.29931276721E+01  0.81095383576E+00  0.11637232232E+02  0.12043323199E+02  0.51100000000E-03 0.  1.
         12    1    3    3    0    0  0.14011711986E+01  0.15160516179E+02  0.16126534704E+02  0.22178134572E+02  0.00000000000E+00 0. -1.
</event>
<event>
 7    1  0.2486105E-010  0.4778727E+02  0.7816164E-02  0.1312668E+00
        -11   -1    0    0    0    0  0.00000000000E+00  0.00000000000E+00  0.45593999997E+02  0.45594000000E+02  0.51100000000E-03 0. -1.
         11   -1    0    0    0    0 -0.00000000000E+00 -0.00000000000E+00 -0.45593999997E+02  0.45594000000E+02  0.51100000000E-03 0.  1.
    9900012    2    1    2    0    0 -0.52525620128E+00 -0.38560991014E+02 -0.19909727208E+02  0.47787272361E+02  0.20000006004E+02 0.  0.
         12    1    1    2    0    0  0.52525620128E+00  0.38560991014E+02  0.19909727208E+02  0.43400727639E+02  0.00000000000E+00 0. -1.
         11    1    3    3    0    0 -0.77298211725E+01 -0.15802102657E+02 -0.98980699589E+01  0.20184855038E+02  0.51100000000E-03 0. -1.
        -11    1    3    3    0    0 -0.27678092873E+00 -0.12530915457E+02 -0.22272245860E+01  0.12730317336E+02  0.51100000000E-03 0.  1.
        -12    1    3    3    0    0  0.74813458999E+01 -0.10227972901E+02 -0.77844326634E+01  0.14872099987E+02  0.00000000000E+00 0.  1.
</event>
<event>
 7    1  0.2486105E-010  0.4778727E+02  0.7816164E-02  0.1312668E+00
        -11   -1    0    0    0    0  0.00000000000E+00  0.00000000000E+00  0.45593999997E+02  0.45594000000E+02  0.51100000000E-03 0. -1.
         11   -1    0    0    0    0 -0.00000000000E+00 -0.00000000000E+00 -0.45593999997E+02  0.45594000000E+02  0.51100000000E-03 0.  1.
    9900012    2    1    2    0    0  0.20424993166E+02  0.24554422241E+02 -0.29385769208E+02  0.47787269253E+02  0.19999991831E+02 0.  0.
         12    1    1    2    0    0 -0.20424993166E+02 -0.24554422241E+02  0.29385769208E+02  0.43400730747E+02  0.00000000000E+00 0. -1.
         11    1    3    3    0    0 -0.30547223332E+01  0.18595883051E+01 -0.34681452212E+01  0.49817094189E+01  0.51100000000E-03 0. -1.
        -11    1    3    3    0    0  0.23741843021E+01  0.23191845650E+01 -0.74096987776E+01  0.81190519387E+01  0.51100000000E-03 0.  1.
         12    1    3    3    0    0  0.21105531197E+02  0.20375649371E+02 -0.18507925209E+02  0.34686507895E+02  0.00000000000E+00 0. -1.
</event>
<event>
 7    1  0.2486105E-010  0.4778727E+02  0.7816164E-02  0.1312668E+00
        -11   -1    0    0    0    0  0.00000000000E+00  0.00000000000E+00  0.45593999997E+02  0.45594000000E+02  0.51100000000E-03 0. -1.
         11   -1    0    0    0    0 -0.00000000000E+00 -0.00000000000E+00 -0.45593999997E+02  0.45594000000E+02  0.51100000000E-03 0.  1.
    9900012    2    1    2    0    0 -0.13315191362E+02  0.35682549265E+02 -0.20810685552E+02  0.47787271018E+02  0.19999999878E+02 0.  0.
         12    1    1    2    0    0  0.13315191362E+02 -0.35682549265E+02  0.20810685552E+02  0.43400728982E+02  0.00000000000E+00 0. -1.
         11    1    3    3    0    0 -0.21453556029E+01  0.13116259181E+02 -0.27944797385E+01  0.13581160585E+02  0.51100000000E-03 0. -1.
        -11    1    3    3    0    0 -0.60724213556E+01  0.21642750801E+02 -0.18346604928E+02  0.29015183542E+02  0.51100000000E-03 0.  1.
         12    1    3    3    0    0 -0.50974144037E+01  0.92353928340E+00  0.33039911460E+00  0.51909268908E+01  0.00000000000E+00 0. -1.
</event>
<event>
 7    1  0.2531287E-010  0.4778727E+02  0.7816164E-02  0.1312668E+00
        -11   -1    0    0    0    0  0.00000000000E+00  0.00000000000E+00  0.45593999997E+02  0.45594000000E+02  0.51100000000E-03 0. -1.
         11   -1    0    0    0    0 -0.00000000000E+00 -0.00000000000E+00 -0.45593999997E+02  0.45594000000E+02  0.51100000000E-03 0.  1.
    9900012    2    1    2    0    0  0.14371068815E+02 -0.34743810608E+02 -0.21678642865E+02  0.47787267853E+02  0.19999985448E+02 0.  0.
         12    1    1    2    0    0 -0.14371068815E+02  0.34743810608E+02  0.21678642865E+02  0.43400732147E+02  0.00000000000E+00 0. -1.
         11    1    3    3    0    0  0.20923700993E+01 -0.11721298896E+01 -0.65934787857E+01  0.70161145849E+01  0.51100000000E-03 0. -1.
        -11    1    3    3    0    0  0.30561690119E+01 -0.46054379103E+01  0.20264291159E+01  0.58869892643E+01  0.51100000000E-03 0.  1.
        -12    1    3    3    0    0  0.92225297040E+01 -0.28966242808E+02 -0.17111593195E+02  0.34884164004E+02  0.00000000000E+00 0.  1.
</event>
<event>
 7    1  0.2486105E-010  0.4778727E+02  0.7816164E-02  0.1312668E+00
        -11   -1    0    0    0    0  0.00000000000E+00  0.00000000000E+00  0.45593999997E+02  0.45594000000E+02  0.51100000000E-03 0.  1.
         11   -1    0    0    0    0 -0.00000000000E+00 -0.00000000000E+00 -0.45593999997E+02  0.45594000000E+02  0.51100000000E-03 0. -1.
    9900012    2    1    2    0    0  0.36079567175E+02 -0.23369653665E+02  0.59789258969E+01  0.47787269190E+02  0.19999991545E+02 0.  0.
         12    1    1    2    0    0 -0.36079567175E+02  0.23369653665E+02 -0.59789258969E+01  0.43400730810E+02  0.00000000000E+00 0. -1.
         11    1    3    3    0    0 -0.15859731602E+01  0.24543348574E-01  0.32956760087E+00  0.16200396000E+01  0.51100000000E-03 0. -1.
        -11    1    3    3    0    0  0.13614895036E+02 -0.27702679976E+01 -0.45817905470E+00  0.13901427262E+02  0.51100000000E-03 0.  1.
        -12    1    3    3    0    0  0.24050645299E+02 -0.20623929016E+02  0.61075373508E+01  0.32265802328E+02  0.00000000000E+00 0.  1.
</event>
<event>
 7    1  0.2486105E-010  0.4778727E+02  0.7816164E-02  0.1312668E+00
        -11   -1    0    0    0    0  0.00000000000E+00  0.00000000000E+00  0.45593999997E+02  0.45594000000E+02  0.51100000000E-03 0.  1.
         11   -1    0    0    0    0 -0.00000000000E+00 -0.00000000000E+00 -0.45593999997E+02  0.45594000000E+02  0.51100000000E-03 0. -1.
    9900012    2    1    2    0    0 -0.16951106990E+02 -0.25111968354E+01  0.39874519444E+02  0.47787269146E+02  0.19999991346E+02 0.  0.
         12    1    1    2    0    0  0.16951106990E+02  0.25111968354E+01 -0.39874519444E+02  0.43400730854E+02  0.00000000000E+00 0. -1.
         11    1    3    3    0    0  0.36672896801E+01 -0.18363443126E+01  0.10271808116E+02  0.11060344310E+02  0.51100000000E-03 0. -1.
        -11    1    3    3    0    0 -0.11711766053E+02 -0.21858724169E+01  0.21554154819E+02  0.24627730154E+02  0.51100000000E-03 0.  1.
        -12    1    3    3    0    0 -0.89066306177E+01  0.15110198941E+01  0.80485565089E+01  0.12099194682E+02  0.00000000000E+00 0.  1.
</event>
<event>
 7    1  0.2486105E-010  0.4778727E+02  0.7816164E-02  0.1312668E+00
        -11   -1    0    0    0    0  0.00000000000E+00  0.00000000000E+00  0.45593999997E+02  0.45594000000E+02  0.51100000000E-03 0. -1.
         11   -1    0    0    0    0 -0.00000000000E+00 -0.00000000000E+00 -0.45593999997E+02  0.45594000000E+02  0.51100000000E-03 0.  1.
    9900012    2    1    2    0    0  0.19546038170E+02  0.10324713157E+02 -0.37349377500E+02  0.47787270633E+02  0.19999998126E+02 0.  0.
         12    1    1    2    0    0 -0.19546038170E+02 -0.10324713157E+02  0.37349377500E+02  0.43400729367E+02  0.00000000000E+00 0. -1.
         11    1    3    3    0    0  0.10620583467E+02  0.16176609753E+01 -0.25265955475E+02  0.27455092907E+02  0.51100000000E-03 0. -1.
        -11    1    3    3    0    0  0.57315980201E+01  0.85997535247E+01 -0.13360214436E+02  0.16890894191E+02  0.51100000000E-03 0.  1.
         12    1    3    3    0    0  0.31938566820E+01  0.10729865682E+00  0.12767924104E+01  0.34412835348E+01  0.00000000000E+00 0. -1.
</event>
<event>
 7    1  0.2486105E-010  0.4778728E+02  0.7816164E-02  0.1312668E+00
        -11   -1    0    0    0    0  0.00000000000E+00  0.00000000000E+00  0.45593999997E+02  0.45594000000E+02  0.51100000000E-03 0. -1.
         11   -1    0    0    0    0 -0.00000000000E+00 -0.00000000000E+00 -0.45593999997E+02  0.45594000000E+02  0.51100000000E-03 0.  1.
    9900012    2    1    2    0    0  0.36866904400E+02  0.21604881914E+02 -0.75949518677E+01  0.47787275854E+02  0.20000021927E+02 0.  0.
         12    1    1    2    0    0 -0.36866904400E+02 -0.21604881914E+02  0.75949518677E+01  0.43400724146E+02  0.00000000000E+00 0. -1.
         11    1    3    3    0    0  0.23541421463E+01  0.38388962964E+01 -0.63017875688E+01  0.77454268341E+01  0.51100000000E-03 0. -1.
        -11    1    3    3    0    0  0.11580401663E+02  0.59968333173E+01 -0.50673685971E+01  0.13990923389E+02  0.51100000000E-03 0.  1.
         12    1    3    3    0    0  0.22932360591E+02  0.11769152301E+02  0.37742042982E+01  0.26050925631E+02  0.00000000000E+00 0. -1.
</event>
<event>
 7    1  0.2486105E-010  0.4778727E+02  0.7816164E-02  0.1312668E+00
        -11   -1    0    0    0    0  0.00000000000E+00  0.00000000000E+00  0.45593999997E+02  0.45594000000E+02  0.51100000000E-03 0.  1.
         11   -1    0    0    0    0 -0.00000000000E+00 -0.00000000000E+00 -0.45593999997E+02  0.45594000000E+02  0.51100000000E-03 0. -1.
    9900012    2    1    2    0    0  0.13067852416E+02 -0.37759754306E+02  0.16942712910E+02  0.47787270366E+02  0.19999996908E+02 0.  0.
         12    1    1    2    0    0 -0.13067852416E+02  0.37759754306E+02 -0.16942712910E+02  0.43400729634E+02  0.00000000000E+00 0. -1.
         11    1    3    3    0    0  0.84874619681E+01 -0.20816891311E+02  0.48463177075E+01  0.22997103516E+02  0.51100000000E-03 0. -1.
        -11    1    3    3    0    0  0.56943174974E+01 -0.17657158365E+02  0.75071285595E+01  0.20013931966E+02  0.51100000000E-03 0.  1.
         12    1    3    3    0    0 -0.11139270492E+01  0.71429537083E+00  0.45892666429E+01  0.47762348840E+01  0.00000000000E+00 0. -1.
</event>
<event>
 7    1  0.2486105E-010  0.4778728E+02  0.7816164E-02  0.1312668E+00
        -11   -1    0    0    0    0  0.00000000000E+00  0.00000000000E+00  0.45593999997E+02  0.45594000000E+02  0.51100000000E-03 0.  1.
         11   -1    0    0    0    0 -0.00000000000E+00 -0.00000000000E+00 -0.45593999997E+02  0.45594000000E+02  0.51100000000E-03 0. -1.
    9900012    2    1    2    0    0  0.29635810586E+02  0.19348102086E+02  0.25119549949E+02  0.47787284417E+02  0.20000060972E+02 0.  0.
         12    1    1    2    0    0 -0.29635810586E+02 -0.19348102086E+02 -0.25119549949E+02  0.43400715583E+02  0.00000000000E+00 0. -1.
         11    1    3    3    0    0  0.73682710312E+01 -0.76393444383E+00  0.42234333843E+01  0.85271568319E+01  0.51100000000E-03 0. -1.
        -11    1    3    3    0    0  0.24126450235E+02  0.16932255677E+02  0.19388076038E+02  0.35280084694E+02  0.51100000000E-03 0.  1.
         12    1    3    3    0    0 -0.18589106804E+01  0.31797808527E+01  0.15080405274E+01  0.39800428918E+01  0.00000000000E+00 0. -1.
</event>
<event>
 7    1  0.2486105E-010  0.4778727E+02  0.7816164E-02  0.1312668E+00
        -11   -1    0    0    0    0  0.00000000000E+00  0.00000000000E+00  0.45593999997E+02  0.45594000000E+02  0.51100000000E-03 0. -1.
         11   -1    0    0    0    0 -0.00000000000E+00 -0.00000000000E+00 -0.45593999997E+02  0.45594000000E+02  0.51100000000E-03 0.  1.
    9900012    2    1    2    0    0 -0.41413886456E+02  0.45016630386E+01 -0.12175715178E+02  0.47787274182E+02  0.20000014303E+02 0.  0.
         12    1    1    2    0    0  0.41413886456E+02 -0.45016630386E+01  0.12175715178E+02  0.43400725818E+02  0.00000000000E+00 0. -1.
         11    1    3    3    0    0 -0.39135911855E+02  0.59488562705E+01 -0.47744706178E+01  0.39872347028E+02  0.51100000000E-03 0. -1.
        -11    1    3    3    0    0 -0.55947313831E+00 -0.22257564516E+00 -0.92630306463E+00  0.11048021266E+01  0.51100000000E-03 0.  1.
         12    1    3    3    0    0 -0.17185014629E+01 -0.12246175867E+01 -0.64749414951E+01  0.68101250265E+01  0.00000000000E+00 0. -1.
</event>
<event>
 7    1  0.2486105E-010  0.4778727E+02  0.7816164E-02  0.1312668E+00
        -11   -1    0    0    0    0  0.00000000000E+00  0.00000000000E+00  0.45593999997E+02  0.45594000000E+02  0.51100000000E-03 0. -1.
         11   -1    0    0    0    0 -0.00000000000E+00 -0.00000000000E+00 -0.45593999997E+02  0.45594000000E+02  0.51100000000E-03 0.  1.
    9900012    2    1    2    0    0 -0.36403195989E+02 -0.23576609503E+02  0.16044821703E+01  0.47787267784E+02  0.19999985132E+02 0.  0.
         12    1    1    2    0    0  0.36403195989E+02  0.23576609503E+02 -0.16044821703E+01  0.43400732216E+02  0.00000000000E+00 0. -1.
         11    1    3    3    0    0 -0.83155006412E+00 -0.97207448479E+00 -0.19215879161E+01  0.23084420490E+01  0.51100000000E-03 0. -1.
        -11    1    3    3    0    0 -0.84865934204E+01 -0.14920538145E+02  0.20351700970E+01  0.17285446017E+02  0.51100000000E-03 0.  1.
         12    1    3    3    0    0 -0.27085052505E+02 -0.76839968733E+01  0.14908999894E+01  0.28193379718E+02  0.00000000000E+00 0. -1.
</event>
<event>
 7    1  0.2486105E-010  0.4778726E+02  0.7816164E-02  0.1312668E+00
        -11   -1    0    0    0    0  0.00000000000E+00  0.00000000000E+00  0.45593999997E+02  0.45594000000E+02  0.51100000000E-03 0.  1.
         11   -1    0    0    0    0 -0.00000000000E+00 -0.00000000000E+00 -0.45593999997E+02  0.45594000000E+02  0.51100000000E-03 0. -1.
    9900012    2    1    2    0    0 -0.23221885642E+02 -0.26398288369E+02  0.25445993432E+02  0.47787260567E+02  0.19999952230E+02 0.  0.
         12    1    1    2    0    0  0.23221885642E+02  0.26398288369E+02 -0.25445993432E+02  0.43400739433E+02  0.00000000000E+00 0. -1.
         11    1    3    3    0    0 -0.64587573029E+01 -0.92327984000E+01  0.65563667640E+01  0.13036336050E+02  0.51100000000E-03 0. -1.
        -11    1    3    3    0    0 -0.14409267551E+02 -0.30725569671E+01  0.78446642447E+01  0.16691505476E+02  0.51100000000E-03 0.  1.
         12    1    3    3    0    0 -0.23538607884E+01 -0.14092933002E+02  0.11044962423E+02  0.18059419042E+02  0.00000000000E+00 0. -1.
</event>
<event>
 7    1  0.2486105E-010  0.4778727E+02  0.7816164E-02  0.1312668E+00
        -11   -1    0    0    0    0  0.00000000000E+00  0.00000000000E+00  0.45593999997E+02  0.45594000000E+02  0.51100000000E-03 0.  1.
         11   -1    0    0    0    0 -0.00000000000E+00 -0.00000000000E+00 -0.45593999997E+02  0.45594000000E+02  0.51100000000E-03 0. -1.
    9900012    2    1    2    0    0  0.19399515293E+02  0.33646716122E+00  0.38822269519E+02  0.47787274034E+02  0.20000013631E+02 0.  0.
         12    1    1    2    0    0 -0.19399515293E+02 -0.33646716122E+00 -0.38822269519E+02  0.43400725966E+02  0.00000000000E+00 0. -1.
         11    1    3    3    0    0  0.95111977584E+01 -0.17324352616E+01  0.84690122765E+01  0.12852563322E+02  0.51100000000E-03 0. -1.
        -11    1    3    3    0    0 -0.11600805472E+01  0.25885377218E+01  0.23103075419E+00  0.28459954118E+01  0.51100000000E-03 0.  1.
        -12    1    3    3    0    0  0.11048398082E+02 -0.51963529900E+00  0.30122226488E+02  0.32088715301E+02  0.00000000000E+00 0.  1.
</event>
<event>
 7    1  0.2486105E-010  0.4778727E+02  0.7816164E-02  0.1312668E+00
        -11   -1    0    0    0    0  0.00000000000E+00  0.00000000000E+00  0.45593999997E+02  0.45594000000E+02  0.51100000000E-03 0. -1.
         11   -1    0    0    0    0 -0.00000000000E+00 -0.00000000000E+00 -0.45593999997E+02  0.45594000000E+02  0.51100000000E-03 0.  1.
    9900012    2    1    2    0    0  0.55188745548E+00  0.42900584772E+02  0.65466461304E+01  0.47787270409E+02  0.19999997101E+02 0.  0.
         12    1    1    2    0    0 -0.55188745548E+00 -0.42900584772E+02 -0.65466461304E+01  0.43400729591E+02  0.00000000000E+00 0. -1.
         11    1    3    3    0    0 -0.26555986176E+01  0.17950589047E+02  0.19789699233E+01  0.18253552349E+02  0.51100000000E-03 0. -1.
        -11    1    3    3    0    0 -0.28020311180E+00  0.22297711941E+02 -0.11513161406E+01  0.22329173758E+02  0.51100000000E-03 0.  1.
         12    1    3    3    0    0  0.34876891849E+01  0.26522837834E+01  0.57189923477E+01  0.72045443014E+01  0.00000000000E+00 0. -1.
</event>
<event>
 7    1  0.2486105E-010  0.4778727E+02  0.7816164E-02  0.1312668E+00
        -11   -1    0    0    0    0  0.00000000000E+00  0.00000000000E+00  0.45593999997E+02  0.45594000000E+02  0.51100000000E-03 0.  1.
         11   -1    0    0    0    0 -0.00000000000E+00 -0.00000000000E+00 -0.45593999997E+02  0.45594000000E+02  0.51100000000E-03 0. -1.
    9900012    2    1    2    0    0  0.18899582840E+02 -0.35000324493E+02 -0.17361051899E+02  0.47787273403E+02  0.20000010754E+02 0.  0.
         12    1    1    2    0    0 -0.18899582840E+02  0.35000324493E+02  0.17361051899E+02  0.43400726597E+02  0.00000000000E+00 0. -1.
         11    1    3    3    0    0  0.17987769661E+00 -0.21414231039E+01  0.14981102434E+01  0.26196151355E+01  0.51100000000E-03 0. -1.
        -11    1    3    3    0    0  0.18572637957E+02 -0.27996286859E+02 -0.99875843866E+01  0.35049776044E+02  0.51100000000E-03 0.  1.
         12    1    3    3    0    0  0.14706718597E+00 -0.48626145297E+01 -0.88715777557E+01  0.10117882224E+02  0.00000000000E+00 0. -1.
</event>
<event>
 7    1  0.2486105E-010  0.4778727E+02  0.7816164E-02  0.1312668E+00
        -11   -1    0    0    0    0  0.00000000000E+00  0.00000000000E+00  0.45593999997E+02  0.45594000000E+02  0.51100000000E-03 0.  1.
         11   -1    0    0    0    0 -0.00000000000E+00 -0.00000000000E+00 -0.45593999997E+02  0.45594000000E+02  0.51100000000E-03 0. -1.
    9900012    2    1    2    0    0 -0.23078681432E+02  0.16827850726E+02  0.32677532098E+02  0.47787271887E+02  0.20000003843E+02 0.  0.
         12    1    1    2    0    0  0.23078681432E+02 -0.16827850726E+02 -0.32677532098E+02  0.43400728113E+02  0.00000000000E+00 0. -1.
         11    1    3    3    0    0 -0.82526044697E+00  0.10577391503E+02  0.73147602145E+01  0.12886736712E+02  0.51100000000E-03 0. -1.
        -11    1    3    3    0    0 -0.11254618180E+01  0.66143741089E+00 -0.14186483025E+00  0.13131220977E+01  0.51100000000E-03 0.  1.
        -12    1    3    3    0    0 -0.21127959167E+02  0.55890218118E+01  0.25504636714E+02  0.33587413078E+02  0.00000000000E+00 0.  1.
</event>
<event>
 7    1  0.2486105E-010  0.4778727E+02  0.7816164E-02  0.1312668E+00
        -11   -1    0    0    0    0  0.00000000000E+00  0.00000000000E+00  0.45593999997E+02  0.45594000000E+02  0.51100000000E-03 0.  1.
         11   -1    0    0    0    0 -0.00000000000E+00 -0.00000000000E+00 -0.45593999997E+02  0.45594000000E+02  0.51100000000E-03 0. -1.
    9900012    2    1    2    0    0 -0.15491004524E+02 -0.19428935612E+02  0.35583266766E+02  0.47787266896E+02  0.19999981086E+02 0.  0.
         12    1    1    2    0    0  0.15491004524E+02  0.19428935612E+02 -0.35583266766E+02  0.43400733104E+02  0.00000000000E+00 0. -1.
         11    1    3    3    0    0 -0.48632299848E+01  0.13979284829E+01  0.58088396314E+01  0.77037541532E+01  0.51100000000E-03 0. -1.
        -11    1    3    3    0    0 -0.18245786546E+00  0.17597821188E+01  0.96755156282E+00  0.20165019876E+01  0.51100000000E-03 0.  1.
        -12    1    3    3    0    0 -0.10445316674E+02 -0.22586646214E+02  0.28806875572E+02  0.38067010755E+02  0.00000000000E+00 0.  1.
</event>
<event>
 7    1  0.2486105E-010  0.4778727E+02  0.7816164E-02  0.1312668E+00
        -11   -1    0    0    0    0  0.00000000000E+00  0.00000000000E+00  0.45593999997E+02  0.45594000000E+02  0.51100000000E-03 0. -1.
         11   -1    0    0    0    0 -0.00000000000E+00 -0.00000000000E+00 -0.45593999997E+02  0.45594000000E+02  0.51100000000E-03 0.  1.
    9900012    2    1    2    0    0 -0.24685780854E+02 -0.23194404436E+02  0.27134019305E+02  0.47787272159E+02  0.20000005080E+02 0.  0.
         12    1    1    2    0    0  0.24685780854E+02  0.23194404436E+02 -0.27134019305E+02  0.43400727841E+02  0.00000000000E+00 0. -1.
         11    1    3    3    0    0 -0.78487258921E+01 -0.11204223084E+02  0.18138123812E+02  0.22718464929E+02  0.51100000000E-03 0. -1.
        -11    1    3    3    0    0 -0.11058417258E+02 -0.12088494813E+02  0.10012228422E+02  0.19200651482E+02  0.51100000000E-03 0.  1.
         12    1    3    3    0    0 -0.57786377042E+01  0.98313461986E-01 -0.10163329290E+01  0.58681557474E+01  0.00000000000E+00 0. -1.
</event>
<event>
 7    1  0.2486105E-010  0.4778727E+02  0.7816164E-02  0.1312668E+00
        -11   -1    0    0    0    0  0.00000000000E+00  0.00000000000E+00  0.45593999997E+02  0.45594000000E+02  0.51100000000E-03 0. -1.
         11   -1    0    0    0    0 -0.00000000000E+00 -0.00000000000E+00 -0.45593999997E+02  0.45594000000E+02  0.51100000000E-03 0.  1.
    9900012    2    1    2    0    0  0.20222231367E+02  0.34862976500E+02  0.16101488438E+02  0.47787266114E+02  0.19999977522E+02 0.  0.
         12    1    1    2    0    0 -0.20222231367E+02 -0.34862976500E+02 -0.16101488438E+02  0.43400733886E+02  0.00000000000E+00 0. -1.
         11    1    3    3    0    0  0.40934078716E+01  0.13286125930E+02  0.97896631218E+01  0.17003371270E+02  0.51100000000E-03 0. -1.
        -11    1    3    3    0    0  0.87023012318E+01  0.20610610005E+02  0.29190050186E+01  0.22562089488E+02  0.51100000000E-03 0.  1.
        -12    1    3    3    0    0  0.74265222631E+01  0.96624056511E+00  0.33928202972E+01  0.82218053567E+01  0.00000000000E+00 0.  1.
</event>
<event>
 7    1  0.2486105E-010  0.4778722E+02  0.7816164E-02  0.1312668E+00
        -11   -1    0    0    0    0  0.00000000000E+00  0.00000000000E+00  0.45593999997E+02  0.45594000000E+02  0.51100000000E-03 0.  1.
         11   -1    0    0    0    0 -0.00000000000E+00 -0.00000000000E+00 -0.45593999997E+02  0.45594000000E+02  0.51100000000E-03 0. -1.
    9900012    2    1    2    0    0 -0.11763378803E+02  0.35680249200E+02  0.21729486318E+02  0.47787218446E+02  0.19999760182E+02 0.  0.
         12    1    1    2    0    0  0.11763378803E+02 -0.35680249200E+02 -0.21729486318E+02  0.43400781554E+02  0.00000000000E+00 0. -1.
         11    1    3    3    0    0  0.11248410659E+01  0.66014715799E+01  0.71651107575E+01  0.98073190461E+01  0.51100000000E-03 0.  1.
        -11    1    3    3    0    0  0.25424451574E+01  0.53706514559E+00  0.66561653921E+00  0.26824451508E+01  0.51100000000E-03 0. -1.
        -12    1    3    3    0    0 -0.15430665026E+02  0.28541712475E+02  0.13898759021E+02  0.35297454249E+02  0.00000000000E+00 0.  1.
</event>
<event>
 7    1  0.2486105E-010  0.4778726E+02  0.7816164E-02  0.1312668E+00
        -11   -1    0    0    0    0  0.00000000000E+00  0.00000000000E+00  0.45593999997E+02  0.45594000000E+02  0.51100000000E-03 0.  1.
         11   -1    0    0    0    0 -0.00000000000E+00 -0.00000000000E+00 -0.45593999997E+02  0.45594000000E+02  0.51100000000E-03 0. -1.
    9900012    2    1    2    0    0  0.15086139957E+02  0.22817928979E+02  0.33695318970E+02  0.47787262423E+02  0.19999960693E+02 0.  0.
         12    1    1    2    0    0 -0.15086139957E+02 -0.22817928979E+02 -0.33695318970E+02  0.43400737577E+02  0.00000000000E+00 0. -1.
         11    1    3    3    0    0  0.92154962972E+01  0.93531854044E+01  0.47522021395E+01  0.13963913300E+02  0.51100000000E-03 0. -1.
        -11    1    3    3    0    0 -0.18790762517E+01  0.30898042668E+00  0.15218320000E+01  0.24376975533E+01  0.51100000000E-03 0.  1.
        -12    1    3    3    0    0  0.77497199117E+01  0.13155763148E+02  0.27421284831E+02  0.31385651570E+02  0.00000000000E+00 0.  1.
</event>
<event>
 7    1  0.2486105E-010  0.4778727E+02  0.7816164E-02  0.1312668E+00
        -11   -1    0    0    0    0  0.00000000000E+00  0.00000000000E+00  0.45593999997E+02  0.45594000000E+02  0.51100000000E-03 0.  1.
         11   -1    0    0    0    0 -0.00000000000E+00 -0.00000000000E+00 -0.45593999997E+02  0.45594000000E+02  0.51100000000E-03 0. -1.
    9900012    2    1    2    0    0 -0.20933974081E+02 -0.85759803547E+01  0.37038417364E+02  0.47787273385E+02  0.20000010673E+02 0.  0.
         12    1    1    2    0    0  0.20933974081E+02  0.85759803547E+01 -0.37038417364E+02  0.43400726615E+02  0.00000000000E+00 0. -1.
         11    1    3    3    0    0  0.21489493744E+01 -0.25890126574E+01  0.51348619661E+01  0.61390371904E+01  0.51100000000E-03 0. -1.
        -11    1    3    3    0    0 -0.25587243409E+00  0.17980849653E+01  0.21991226474E+00  0.18294649246E+01  0.51100000000E-03 0.  1.
        -12    1    3    3    0    0 -0.22827051022E+02 -0.77850526626E+01  0.31683643133E+02  0.39818771270E+02  0.00000000000E+00 0.  1.
</event>
<event>
 7    1  0.2486105E-010  0.4778727E+02  0.7816164E-02  0.1312668E+00
        -11   -1    0    0    0    0  0.00000000000E+00  0.00000000000E+00  0.45593999997E+02  0.45594000000E+02  0.51100000000E-03 0.  1.
         11   -1    0    0    0    0 -0.00000000000E+00 -0.00000000000E+00 -0.45593999997E+02  0.45594000000E+02  0.51100000000E-03 0. -1.
    9900012    2    1    2    0    0 -0.61225365595E+01 -0.18853962822E+02  0.38609144409E+02  0.47787269591E+02  0.19999993373E+02 0.  0.
         12    1    1    2    0    0  0.61225365595E+01  0.18853962822E+02 -0.38609144409E+02  0.43400730409E+02  0.00000000000E+00 0. -1.
         11    1    3    3    0    0 -0.38789702513E+01  0.16742539165E+01  0.57196078370E+01  0.71107981590E+01  0.51100000000E-03 0. -1.
        -11    1    3    3    0    0 -0.64852602012E+01 -0.62485620830E+01  0.11379003924E+02  0.14511542252E+02  0.51100000000E-03 0.  1.
        -12    1    3    3    0    0  0.42416938931E+01 -0.14279654655E+02  0.21510532649E+02  0.26164929180E+02  0.00000000000E+00 0.  1.
</event>
<event>
 7    1  0.2486105E-010  0.4778727E+02  0.7816164E-02  0.1312668E+00
        -11   -1    0    0    0    0  0.00000000000E+00  0.00000000000E+00  0.45593999997E+02  0.45594000000E+02  0.51100000000E-03 0.  1.
         11   -1    0    0    0    0 -0.00000000000E+00 -0.00000000000E+00 -0.45593999997E+02  0.45594000000E+02  0.51100000000E-03 0. -1.
    9900012    2    1    2    0    0 -0.19884900017E+02 -0.87274589398E+01  0.37577190922E+02  0.47787273442E+02  0.20000010930E+02 0.  0.
         12    1    1    2    0    0  0.19884900017E+02  0.87274589398E+01 -0.37577190922E+02  0.43400726558E+02  0.00000000000E+00 0. -1.
         11    1    3    3    0    0 -0.81598789357E+01 -0.58607740498E+01  0.40484642617E+01  0.10831544666E+02  0.51100000000E-03 0. -1.
        -11    1    3    3    0    0 -0.21172841649E+01 -0.51491045108E+01  0.10143329081E+02  0.11570794899E+02  0.51100000000E-03 0.  1.
        -12    1    3    3    0    0 -0.96077369161E+01  0.22824196208E+01  0.23385397579E+02  0.25384933877E+02  0.00000000000E+00 0.  1.
</event>
<event>
 7    1  0.2486105E-010  0.4778726E+02  0.7816164E-02  0.1312668E+00
        -11   -1    0    0    0    0  0.00000000000E+00  0.00000000000E+00  0.45593999997E+02  0.45594000000E+02  0.51100000000E-03 0.  1.
         11   -1    0    0    0    0 -0.00000000000E+00 -0.00000000000E+00 -0.45593999997E+02  0.45594000000E+02  0.51100000000E-03 0. -1.
    9900012    2    1    2    0    0  0.12120373686E+02 -0.82725666151E+01  0.40844649500E+02  0.47787260266E+02  0.19999950857E+02 0.  0.
         12    1    1    2    0    0 -0.12120373686E+02  0.82725666151E+01 -0.40844649500E+02  0.43400739734E+02  0.00000000000E+00 0. -1.
         11    1    3    3    0    0 -0.21885019616E+01 -0.37391392497E+01  0.19031473817E+02  0.19518393865E+02  0.51100000000E-03 0. -1.
        -11    1    3    3    0    0  0.41286533565E+01  0.15047812368E+01  0.12369520951E+02  0.13126888204E+02  0.51100000000E-03 0.  1.
         12    1    3    3    0    0  0.10180222291E+02 -0.60382086022E+01  0.94436547319E+01  0.15141978197E+02  0.00000000000E+00 0. -1.
</event>
<event>
 7    1  0.2486105E-010  0.4778727E+02  0.7816164E-02  0.1312668E+00
        -11   -1    0    0    0    0  0.00000000000E+00  0.00000000000E+00  0.45593999997E+02  0.45594000000E+02  0.51100000000E-03 0.  1.
         11   -1    0    0    0    0 -0.00000000000E+00 -0.00000000000E+00 -0.45593999997E+02  0.45594000000E+02  0.51100000000E-03 0. -1.
    9900012    2    1    2    0    0 -0.26846617506E+02 -0.13423703380E+02  0.31347832255E+02  0.47787271077E+02  0.20000000149E+02 0.  0.
         12    1    1    2    0    0  0.26846617506E+02  0.13423703380E+02 -0.31347832255E+02  0.43400728923E+02  0.00000000000E+00 0. -1.
         11    1    3    3    0    0 -0.77152550563E+01 -0.38915269853E+01  0.24302566664E+01  0.89763740222E+01  0.51100000000E-03 0. -1.
        -11    1    3    3    0    0 -0.20883988731E+02 -0.59521867082E+01  0.25973933711E+02  0.33855793369E+02  0.51100000000E-03 0.  1.
         12    1    3    3    0    0  0.17526262817E+01 -0.35799896864E+01  0.29436418778E+01  0.49551036864E+01  0.00000000000E+00 0. -1.
</event>
<event>
 7    1  0.2486105E-010  0.4778727E+02  0.7816164E-02  0.1312668E+00
        -11   -1    0    0    0    0  0.00000000000E+00  0.00000000000E+00  0.45593999997E+02  0.45594000000E+02  0.51100000000E-03 0.  1.
         11   -1    0    0    0    0 -0.00000000000E+00 -0.00000000000E+00 -0.45593999997E+02  0.45594000000E+02  0.51100000000E-03 0. -1.
    9900012    2    1    2    0    0 -0.31060419039E+02  0.18687937294E+02  0.23867028824E+02  0.47787266181E+02  0.19999977824E+02 0.  0.
         12    1    1    2    0    0  0.31060419039E+02 -0.18687937294E+02 -0.23867028824E+02  0.43400733819E+02  0.00000000000E+00 0. -1.
         11    1    3    3    0    0 -0.16015736361E+02  0.71538926197E+01  0.12511813163E+02  0.21545938357E+02  0.51100000000E-03 0. -1.
        -11    1    3    3    0    0 -0.88444685871E+01  0.93805349248E+01  0.14118873222E+02  0.19119666351E+02  0.51100000000E-03 0.  1.
         12    1    3    3    0    0 -0.62002140910E+01  0.21535097497E+01 -0.27636575609E+01  0.71216614726E+01  0.00000000000E+00 0. -1.
</event>
<event>
 7    1  0.2486105E-010  0.4778727E+02  0.7816164E-02  0.1312668E+00
        -11   -1    0    0    0    0  0.00000000000E+00  0.00000000000E+00  0.45593999997E+02  0.45594000000E+02  0.51100000000E-03 0.  1.
         11   -1    0    0    0    0 -0.00000000000E+00 -0.00000000000E+00 -0.45593999997E+02  0.45594000000E+02  0.51100000000E-03 0. -1.
    9900012    2    1    2    0    0  0.70034366096E+01 -0.15984430033E+02  0.39737554783E+02  0.47787269731E+02  0.19999994009E+02 0.  0.
         12    1    1    2    0    0 -0.70034366096E+01  0.15984430033E+02 -0.39737554783E+02  0.43400730269E+02  0.00000000000E+00 0. -1.
         11    1    3    3    0    0 -0.23837180014E+01 -0.60518409320E+00  0.13538435208E+02  0.13759999543E+02  0.51100000000E-03 0. -1.
        -11    1    3    3    0    0  0.45551858465E+01 -0.40494136892E+01  0.18556176757E+02  0.19531491634E+02  0.51100000000E-03 0.  1.
         12    1    3    3    0    0  0.48319687645E+01 -0.11329832250E+02  0.76429428177E+01  0.14495778554E+02  0.00000000000E+00 0. -1.
</event>
<event>
 7    1  0.2486105E-010  0.4778727E+02  0.7816164E-02  0.1312668E+00
        -11   -1    0    0    0    0  0.00000000000E+00  0.00000000000E+00  0.45593999997E+02  0.45594000000E+02  0.51100000000E-03 0.  1.
         11   -1    0    0    0    0 -0.00000000000E+00 -0.00000000000E+00 -0.45593999997E+02  0.45594000000E+02  0.51100000000E-03 0. -1.
    9900012    2    1    2    0    0  0.62906659904E+01 -0.13579496663E+02  0.40738775895E+02  0.47787273397E+02  0.20000010728E+02 0.  0.
         12    1    1    2    0    0 -0.62906659904E+01  0.13579496663E+02 -0.40738775895E+02  0.43400726603E+02  0.00000000000E+00 0. -1.
         11    1    3    3    0    0  0.71282151396E+01 -0.85152642861E+01  0.21182525742E+02  0.23916951604E+02  0.51100000000E-03 0. -1.
        -11    1    3    3    0    0  0.33894658911E+01  0.28933431282E+01  0.45654979222E+01  0.63799439671E+01  0.51100000000E-03 0.  1.
        -12    1    3    3    0    0 -0.42270150404E+01 -0.79575755055E+01  0.14990752231E+02  0.17490377827E+02  0.00000000000E+00 0.  1.
</event>
<event>
 7    1  0.2486105E-010  0.4778727E+02  0.7816164E-02  0.1312668E+00
        -11   -1    0    0    0    0  0.00000000000E+00  0.00000000000E+00  0.45593999997E+02  0.45594000000E+02  0.51100000000E-03 0.  1.
         11   -1    0    0    0    0 -0.00000000000E+00 -0.00000000000E+00 -0.45593999997E+02  0.45594000000E+02  0.51100000000E-03 0. -1.
    9900012    2    1    2    0    0 -0.13378485467E+02 -0.20109929094E+02  0.36058703803E+02  0.47787271417E+02  0.20000001699E+02 0.  0.
         12    1    1    2    0    0  0.13378485467E+02  0.20109929094E+02 -0.36058703803E+02  0.43400728583E+02  0.00000000000E+00 0. -1.
         11    1    3    3    0    0 -0.27839227575E+01 -0.29972974089E+01  0.14512039503E+02  0.15077576347E+02  0.51100000000E-03 0. -1.
        -11    1    3    3    0    0 -0.49681520593E+01  0.19100022878E+00  0.99778343510E+01  0.11147923330E+02  0.51100000000E-03 0.  1.
         12    1    3    3    0    0 -0.56264106507E+01 -0.17303631914E+02  0.11568829949E+02  0.21561771741E+02  0.00000000000E+00 0. -1.
</event>
<event>
 7    1  0.2486105E-010  0.4778727E+02  0.7816164E-02  0.1312668E+00
        -11   -1    0    0    0    0  0.00000000000E+00  0.00000000000E+00  0.45593999997E+02  0.45594000000E+02  0.51100000000E-03 0.  1.
         11   -1    0    0    0    0 -0.00000000000E+00 -0.00000000000E+00 -0.45593999997E+02  0.45594000000E+02  0.51100000000E-03 0. -1.
    9900012    2    1    2    0    0  0.97848650961E+01 -0.45612557380E+01  0.42036584942E+02  0.47787272904E+02  0.20000008479E+02 0.  0.
         12    1    1    2    0    0 -0.97848650961E+01  0.45612557380E+01 -0.42036584942E+02  0.43400727096E+02  0.00000000000E+00 0. -1.
         11    1    3    3    0    0  0.38946731885E+01 -0.51628642342E+01  0.29134060153E+02  0.29843208735E+02  0.51100000000E-03 0. -1.
        -11    1    3    3    0    0  0.73199183487E+01  0.23094357640E+01  0.13594556639E+02  0.15611747777E+02  0.51100000000E-03 0.  1.
         12    1    3    3    0    0 -0.14297264410E+01 -0.17078272678E+01 -0.69203184958E+00  0.23323163923E+01  0.00000000000E+00 0. -1.
</event>
<event>
 7    1  0.2486105E-010  0.4778727E+02  0.7816164E-02  0.1312668E+00
        -11   -1    0    0    0    0  0.00000000000E+00  0.00000000000E+00  0.45593999997E+02  0.45594000000E+02  0.51100000000E-03 0. -1.
         11   -1    0    0    0    0 -0.00000000000E+00 -0.00000000000E+00 -0.45593999997E+02  0.45594000000E+02  0.51100000000E-03 0.  1.
    9900012    2    1    2    0    0 -0.40553347098E+02  0.14865040709E+02  0.42520380487E+01  0.47787271623E+02  0.20000002636E+02 0.  0.
         12    1    1    2    0    0  0.40553347098E+02 -0.14865040709E+02 -0.42520380487E+01  0.43400728377E+02  0.00000000000E+00 0. -1.
         11    1    3    3    0    0 -0.93013416206E+01  0.43410778684E+01  0.47173872475E-01  0.10264606112E+02  0.51100000000E-03 0. -1.
        -11    1    3    3    0    0 -0.28672516475E+02  0.12428714319E+02 -0.11607555475E+01  0.31271928215E+02  0.51100000000E-03 0.  1.
         12    1    3    3    0    0 -0.25794890027E+01 -0.19047514785E+01  0.53656197238E+01  0.62507372949E+01  0.00000000000E+00 0. -1.
</event>
<event>
 7    1  0.2486105E-010  0.4778728E+02  0.7816164E-02  0.1312668E+00
        -11   -1    0    0    0    0  0.00000000000E+00  0.00000000000E+00  0.45593999997E+02  0.45594000000E+02  0.51100000000E-03 0. -1.
         11   -1    0    0    0    0 -0.00000000000E+00 -0.00000000000E+00 -0.45593999997E+02  0.45594000000E+02  0.51100000000E-03 0.  1.
    9900012    2    1    2    0    0  0.37861444435E+02  0.12551457724E+02 -0.17105399759E+02  0.47787276888E+02  0.20000026645E+02 0.  0.
         12    1    1    2    0    0 -0.37861444435E+02 -0.12551457724E+02  0.17105399759E+02  0.43400723112E+02  0.00000000000E+00 0. -1.
         11    1    3    3    0    0 -0.18710073765E+00  0.25874888059E+01 -0.11079288983E+00  0.25966093915E+01  0.51100000000E-03 0. -1.
        -11    1    3    3    0    0  0.20115294972E+02  0.50708579821E+01 -0.16647756285E+02  0.26598618048E+02  0.51100000000E-03 0.  1.
         12    1    3    3    0    0  0.17933250201E+02  0.48931109359E+01 -0.34685058444E+00  0.18592049449E+02  0.00000000000E+00 0. -1.
</event>
<event>
 7    1  0.2486105E-010  0.4778731E+02  0.7816164E-02  0.1312668E+00
        -11   -1    0    0    0    0  0.00000000000E+00  0.00000000000E+00  0.45593999997E+02  0.45594000000E+02  0.51100000000E-03 0.  1.
         11   -1    0    0    0    0 -0.00000000000E+00 -0.00000000000E+00 -0.45593999997E+02  0.45594000000E+02  0.51100000000E-03 0. -1.
    9900012    2    1    2    0    0 -0.96409901758E+00  0.90465529623E+01  0.42436426616E+02  0.47787309782E+02  0.20000176621E+02 0.  0.
         12    1    1    2    0    0  0.96409901758E+00 -0.90465529623E+01 -0.42436426616E+02  0.43400690218E+02  0.00000000000E+00 0. -1.
         11    1    3    3    0    0  0.51816762765E+01  0.56754201575E+01  0.24244590231E+02  0.25433448817E+02  0.51100000000E-03 0. -1.
        -11    1    3    3    0    0 -0.35864470835E+01  0.48730430493E+01  0.18409605032E+02  0.19378408318E+02  0.51100000000E-03 0.  1.
         12    1    3    3    0    0 -0.25593282105E+01 -0.15019102445E+01 -0.21776864692E+00  0.29754526471E+01  0.00000000000E+00 0. -1.
</event>
<event>
 7    1 -0.5438650E-010  0.4778727E+02  0.7816164E-02  0.1312668E+00
        -11   -1    0    0    0    0  0.00000000000E+00  0.00000000000E+00  0.45593999997E+02  0.45594000000E+02  0.51100000000E-03 0.  1.
         11   -1    0    0    0    0 -0.00000000000E+00 -0.00000000000E+00 -0.45593999997E+02  0.45594000000E+02  0.51100000000E-03 0. -1.
    9900012    2    1    2    0    0  0.33480981421E+01 -0.88348529351E+00  0.43262371130E+02  0.47787273471E+02  0.20000011064E+02 0.  0.
         12    1    1    2    0    0 -0.33480981421E+01  0.88348529351E+00 -0.43262371130E+02  0.43400726529E+02  0.00000000000E+00 0. -1.
         11    1    3    3    0    0 -0.31602037237E+01 -0.83363906592E+00  0.15460882690E+00  0.32719636028E+01  0.51100000000E-03 0. -1.
        -11    1    3    3    0    0  0.20347905128E+01  0.40764893624E+01  0.12406221843E+02  0.13216371614E+02  0.51100000000E-03 0.  1.
         12    1    3    3    0    0  0.44735113530E+01 -0.41263355900E+01  0.30701540460E+02  0.31298938255E+02  0.00000000000E+00 0. -1.
</event>
<event>
 7    1  0.2486105E-010  0.4778727E+02  0.7816164E-02  0.1312668E+00
        -11   -1    0    0    0    0  0.00000000000E+00  0.00000000000E+00  0.45593999997E+02  0.45594000000E+02  0.51100000000E-03 0. -1.
         11   -1    0    0    0    0 -0.00000000000E+00 -0.00000000000E+00 -0.45593999997E+02  0.45594000000E+02  0.51100000000E-03 0.  1.
    9900012    2    1    2    0    0  0.34449638787E+02  0.26271298195E+02  0.25815414593E+01  0.47787273305E+02  0.20000010305E+02 0.  0.
         12    1    1    2    0    0 -0.34449638787E+02 -0.26271298195E+02 -0.25815414593E+01  0.43400726695E+02  0.00000000000E+00 0. -1.
         11    1    3    3    0    0  0.12524160689E+02  0.12851457437E+02 -0.58226490616E+01  0.18865783885E+02  0.51100000000E-03 0. -1.
        -11    1    3    3    0    0  0.18171436388E+02  0.12796433500E+02  0.31696468807E+01  0.22449865753E+02  0.51100000000E-03 0.  1.
        -12    1    3    3    0    0  0.37540417097E+01  0.62340725785E+00  0.52345436401E+01  0.64716236670E+01  0.00000000000E+00 0.  1.
</event>
<event>
 7    1  0.2486105E-010  0.4778724E+02  0.7816164E-02  0.1312668E+00
        -11   -1    0    0    0    0  0.00000000000E+00  0.00000000000E+00  0.45593999997E+02  0.45594000000E+02  0.51100000000E-03 0. -1.
         11   -1    0    0    0    0 -0.00000000000E+00 -0.00000000000E+00 -0.45593999997E+02  0.45594000000E+02  0.51100000000E-03 0.  1.
    9900012    2    1    2    0    0  0.66401289274E+01 -0.14389995551E+01 -0.42865646432E+02  0.47787243371E+02  0.19999873826E+02 0.  0.
         12    1    1    2    0    0 -0.66401289274E+01  0.14389995551E+01  0.42865646432E+02  0.43400756629E+02  0.00000000000E+00 0. -1.
         11    1    3    3    0    0 -0.16082925129E+01  0.12349888928E+01  0.95096543241E+00  0.22396736118E+01  0.51100000000E-03 0. -1.
        -11    1    3    3    0    0  0.93153597733E-01 -0.24033815160E+01 -0.26445255051E+01  0.35746937929E+01  0.51100000000E-03 0.  1.
        -12    1    3    3    0    0  0.81552678426E+01 -0.27060693190E+00 -0.41172086360E+02  0.41972875967E+02  0.00000000000E+00 0.  1.
</event>
<event>
 7    1  0.2486105E-010  0.4778726E+02  0.7816164E-02  0.1312668E+00
        -11   -1    0    0    0    0  0.00000000000E+00  0.00000000000E+00  0.45593999997E+02  0.45594000000E+02  0.51100000000E-03 0. -1.
         11   -1    0    0    0    0 -0.00000000000E+00 -0.00000000000E+00 -0.45593999997E+02  0.45594000000E+02  0.51100000000E-03 0.  1.
    9900012    2    1    2    0    0  0.11588755722E+02  0.25705878517E+02 -0.32992920507E+02  0.47787259763E+02  0.19999948565E+02 0.  0.
         12    1    1    2    0    0 -0.11588755722E+02 -0.25705878517E+02  0.32992920507E+02  0.43400740237E+02  0.00000000000E+00 0. -1.
         11    1    3    3    0    0  0.48952727841E+01  0.31724764448E+01 -0.12885338219E+02  0.14144265400E+02  0.51100000000E-03 0. -1.
        -11    1    3    3    0    0  0.92030045075E+01  0.13963310257E+02 -0.17791973615E+02  0.24417691346E+02  0.51100000000E-03 0.  1.
         12    1    3    3    0    0 -0.25095215697E+01  0.85700918156E+01 -0.23156086728E+01  0.92253030174E+01  0.00000000000E+00 0. -1.
</event>
<event>
 7    1  0.2486105E-010  0.4778727E+02  0.7816164E-02  0.1312668E+00
        -11   -1    0    0    0    0  0.00000000000E+00  0.00000000000E+00  0.45593999997E+02  0.45594000000E+02  0.51100000000E-03 0.  1.
         11   -1    0    0    0    0 -0.00000000000E+00 -0.00000000000E+00 -0.45593999997E+02  0.45594000000E+02  0.51100000000E-03 0. -1.
    9900012    2    1    2    0    0 -0.40168649551E+02 -0.10234114010E+02  0.12859459995E+02  0.47787271807E+02  0.20000003477E+02 0.  0.
         12    1    1    2    0    0  0.40168649551E+02  0.10234114010E+02 -0.12859459995E+02  0.43400728193E+02  0.00000000000E+00 0. -1.
         11    1    3    3    0    0 -0.16025423479E+02 -0.60455317971E+01  0.68520069794E+00  0.17141532973E+02  0.51100000000E-03 0.  1.
        -11    1    3    3    0    0 -0.17555531578E+02 -0.70735127731E+01  0.32822892092E+01  0.19209494909E+02  0.51100000000E-03 0. -1.
         12    1    3    3    0    0 -0.65876944936E+01  0.28849305599E+01  0.88919700883E+01  0.11436243926E+02  0.00000000000E+00 0. -1.
</event>
<event>
 7    1  0.2486105E-010  0.4778727E+02  0.7816164E-02  0.1312668E+00
        -11   -1    0    0    0    0  0.00000000000E+00  0.00000000000E+00  0.45593999997E+02  0.45594000000E+02  0.51100000000E-03 0.  1.
         11   -1    0    0    0    0 -0.00000000000E+00 -0.00000000000E+00 -0.45593999997E+02  0.45594000000E+02  0.51100000000E-03 0. -1.
    9900012    2    1    2    0    0  0.18675905583E+02  0.39081003820E+02 -0.27402868269E+01  0.47787268660E+02  0.19999989127E+02 0.  0.
         12    1    1    2    0    0 -0.18675905583E+02 -0.39081003820E+02  0.27402868269E+01  0.43400731340E+02  0.00000000000E+00 0. -1.
         11    1    3    3    0    0 -0.75159198642E+00  0.14597456811E+02 -0.33611968694E+01  0.14998275918E+02  0.51100000000E-03 0. -1.
        -11    1    3    3    0    0 -0.86365300521E+00  0.34376693530E+01  0.22729736407E+00  0.35517786314E+01  0.51100000000E-03 0.  1.
        -12    1    3    3    0    0  0.20291150575E+02  0.21045877657E+02  0.39361267844E+00  0.29237214111E+02  0.00000000000E+00 0.  1.
</event>
<event>
 7    1  0.2486105E-010  0.4778727E+02  0.7816164E-02  0.1312668E+00
        -11   -1    0    0    0    0  0.00000000000E+00  0.00000000000E+00  0.45593999997E+02  0.45594000000E+02  0.51100000000E-03 0.  1.
         11   -1    0    0    0    0 -0.00000000000E+00 -0.00000000000E+00 -0.45593999997E+02  0.45594000000E+02  0.51100000000E-03 0. -1.
    9900012    2    1    2    0    0  0.14913496890E+02  0.32194888106E+02  0.24993998684E+02  0.47787272128E+02  0.20000004940E+02 0.  0.
         12    1    1    2    0    0 -0.14913496890E+02 -0.32194888106E+02 -0.24993998684E+02  0.43400727872E+02  0.00000000000E+00 0. -1.
         11    1    3    3    0    0  0.87089614897E+01  0.90341754642E+01  0.38684176628E+01  0.13131145876E+02  0.51100000000E-03 0. -1.
        -11    1    3    3    0    0  0.26336270969E+01  0.48762166651E+00  0.74999057652E+01  0.79638152492E+01  0.51100000000E-03 0.  1.
         12    1    3    3    0    0  0.35709083031E+01  0.22673090975E+02  0.13625675256E+02  0.26692311003E+02  0.00000000000E+00 0. -1.
</event>
<event>
 7    1  0.2541423E-010  0.4778727E+02  0.7816164E-02  0.1312668E+00
        -11   -1    0    0    0    0  0.00000000000E+00  0.00000000000E+00  0.45593999997E+02  0.45594000000E+02  0.51100000000E-03 0. -1.
         11   -1    0    0    0    0 -0.00000000000E+00 -0.00000000000E+00 -0.45593999997E+02  0.45594000000E+02  0.51100000000E-03 0.  1.
    9900012    2    1    2    0    0 -0.25091795562E+01  0.43526046641E+00 -0.43325949261E+02  0.47787270592E+02  0.19999997939E+02 0.  0.
         12    1    1    2    0    0  0.25091795562E+01 -0.43526046641E+00  0.43325949261E+02  0.43400729408E+02  0.00000000000E+00 0. -1.
         11    1    3    3    0    0  0.21572552591E+01  0.25549013356E+01 -0.47229106504E+01  0.57868088235E+01  0.51100000000E-03 0. -1.
        -11    1    3    3    0    0 -0.45342976058E+01  0.15793683836E+01 -0.37937004470E+02  0.38239646542E+02  0.51100000000E-03 0.  1.
        -12    1    3    3    0    0 -0.13213720947E+00 -0.36990092527E+01 -0.66603414124E+00  0.37608152269E+01  0.00000000000E+00 0.  1.
</event>
<event>
 7    1  0.2486105E-010  0.4778727E+02  0.7816164E-02  0.1312668E+00
        -11   -1    0    0    0    0  0.00000000000E+00  0.00000000000E+00  0.45593999997E+02  0.45594000000E+02  0.51100000000E-03 0. -1.
         11   -1    0    0    0    0 -0.00000000000E+00 -0.00000000000E+00 -0.45593999997E+02  0.45594000000E+02  0.51100000000E-03 0.  1.
    9900012    2    1    2    0    0  0.86869186137E+01 -0.41242357313E+02 -0.10355128341E+02  0.47787271035E+02  0.19999999956E+02 0.  0.
         12    1    1    2    0    0 -0.86869186137E+01  0.41242357313E+02  0.10355128341E+02  0.43400728965E+02  0.00000000000E+00 0. -1.
         11    1    3    3    0    0  0.12341957573E+01 -0.69888767277E+01  0.31133085396E+01  0.77498598314E+01  0.51100000000E-03 0. -1.
        -11    1    3    3    0    0 -0.34152312492E+01 -0.11744926500E+02 -0.14944250542E+01  0.12322354056E+02  0.51100000000E-03 0.  1.
        -12    1    3    3    0    0  0.10867954106E+02 -0.22508554085E+02 -0.11974011827E+02  0.27715057147E+02  0.00000000000E+00 0.  1.
</event>
<event>
 7    1  0.2486105E-010  0.4778728E+02  0.7816164E-02  0.1312668E+00
        -11   -1    0    0    0    0  0.00000000000E+00  0.00000000000E+00  0.45593999997E+02  0.45594000000E+02  0.51100000000E-03 0.  1.
         11   -1    0    0    0    0 -0.00000000000E+00 -0.00000000000E+00 -0.45593999997E+02  0.45594000000E+02  0.51100000000E-03 0. -1.
    9900012    2    1    2    0    0  0.19771433893E+02  0.21392715636E+02  0.32172424601E+02  0.47787276675E+02  0.20000025670E+02 0.  0.
         12    1    1    2    0    0 -0.19771433893E+02 -0.21392715636E+02 -0.32172424601E+02  0.43400723325E+02  0.00000000000E+00 0. -1.
         11    1    3    3    0    0  0.96178223134E+01  0.68214830995E+01  0.14902991840E+02  0.19003533981E+02  0.51100000000E-03 0. -1.
        -11    1    3    3    0    0  0.13763362807E+02  0.93376357437E+01  0.11742056385E+02  0.20359211316E+02  0.51100000000E-03 0.  1.
         12    1    3    3    0    0 -0.36097512274E+01  0.52335967927E+01  0.55273763769E+01  0.84245313771E+01  0.00000000000E+00 0. -1.
</event>
<event>
 7    1  0.2486105E-010  0.4778727E+02  0.7816164E-02  0.1312668E+00
        -11   -1    0    0    0    0  0.00000000000E+00  0.00000000000E+00  0.45593999997E+02  0.45594000000E+02  0.51100000000E-03 0. -1.
         11   -1    0    0    0    0 -0.00000000000E+00 -0.00000000000E+00 -0.45593999997E+02  0.45594000000E+02  0.51100000000E-03 0.  1.
    9900012    2    1    2    0    0 -0.16076180574E+02 -0.36314998771E+02 -0.17504303783E+02  0.47787269955E+02  0.19999995031E+02 0.  0.
         12    1    1    2    0    0  0.16076180574E+02  0.36314998771E+02  0.17504303783E+02  0.43400730045E+02  0.00000000000E+00 0. -1.
         11    1    3    3    0    0 -0.51628472524E+01 -0.69393768580E+01  0.12089705707E+00  0.86501190332E+01  0.51100000000E-03 0. -1.
        -11    1    3    3    0    0 -0.12887020299E+02 -0.12581326218E+02 -0.98114183177E+01  0.20509241606E+02  0.51100000000E-03 0.  1.
        -12    1    3    3    0    0  0.19736869771E+01 -0.16794295694E+02 -0.78137825218E+01  0.18627909315E+02  0.00000000000E+00 0.  1.
</event>
<event>
 7    1  0.2486105E-010  0.4778730E+02  0.7816164E-02  0.1312668E+00
        -11   -1    0    0    0    0  0.00000000000E+00  0.00000000000E+00  0.45593999997E+02  0.45594000000E+02  0.51100000000E-03 0.  1.
         11   -1    0    0    0    0 -0.00000000000E+00 -0.00000000000E+00 -0.45593999997E+02  0.45594000000E+02  0.51100000000E-03 0. -1.
    9900012    2    1    2    0    0 -0.10956347843E+01  0.43353945415E+02  0.16899731743E+01  0.47787297149E+02  0.20000119021E+02 0.  0.
         12    1    1    2    0    0  0.10956347843E+01 -0.43353945415E+02 -0.16899731743E+01  0.43400702851E+02  0.00000000000E+00 0. -1.
         11    1    3    3    0    0  0.27514316883E+01  0.35615507894E+01 -0.47973569463E+01  0.65779673374E+01  0.51100000000E-03 0. -1.
        -11    1    3    3    0    0 -0.26046815311E+01  0.57531225623E+01 -0.83204574490E+00  0.63698575713E+01  0.51100000000E-03 0.  1.
        -12    1    3    3    0    0 -0.12423849415E+01  0.34039272063E+02  0.73193758655E+01  0.34839472240E+02  0.00000000000E+00 0.  1.
</event>
<event>
 7    1  0.2486105E-010  0.4778727E+02  0.7816164E-02  0.1312668E+00
        -11   -1    0    0    0    0  0.00000000000E+00  0.00000000000E+00  0.45593999997E+02  0.45594000000E+02  0.51100000000E-03 0. -1.
         11   -1    0    0    0    0 -0.00000000000E+00 -0.00000000000E+00 -0.45593999997E+02  0.45594000000E+02  0.51100000000E-03 0.  1.
    9900012    2    1    2    0    0  0.21145514535E+02  0.37868790012E+02 -0.15637794247E+01  0.47787269038E+02  0.19999990851E+02 0.  0.
         12    1    1    2    0    0 -0.21145514535E+02 -0.37868790012E+02  0.15637794247E+01  0.43400730962E+02  0.00000000000E+00 0. -1.
         11    1    3    3    0    0  0.83877556607E+00  0.41359305147E+01  0.41171286643E+01  0.58957793694E+01  0.51100000000E-03 0. -1.
        -11    1    3    3    0    0  0.24045639951E+01  0.13701796151E+02  0.17419231983E+01  0.14019823196E+02  0.51100000000E-03 0.  1.
         12    1    3    3    0    0  0.17902174974E+02  0.20031063347E+02 -0.74228312873E+01  0.27871666472E+02  0.00000000000E+00 0. -1.
</event>
<event>
 7    1  0.2486105E-010  0.4778727E+02  0.7816164E-02  0.1312668E+00
        -11   -1    0    0    0    0  0.00000000000E+00  0.00000000000E+00  0.45593999997E+02  0.45594000000E+02  0.51100000000E-03 0.  1.
         11   -1    0    0    0    0 -0.00000000000E+00 -0.00000000000E+00 -0.45593999997E+02  0.45594000000E+02  0.51100000000E-03 0. -1.
    9900012    2    1    2    0    0 -0.85552741212E+01  0.40789301925E+02  0.12110474626E+02  0.47787268871E+02  0.19999990092E+02 0.  0.
         12    1    1    2    0    0  0.85552741212E+01 -0.40789301925E+02 -0.12110474626E+02  0.43400731129E+02  0.00000000000E+00 0. -1.
         11    1    3    3    0    0 -0.60546936915E+01  0.19522105753E+02  0.83929099088E+01  0.22095539498E+02  0.51100000000E-03 0. -1.
        -11    1    3    3    0    0  0.25736827697E+01  0.19804038692E+02  0.41353171038E+01  0.20394230540E+02  0.51100000000E-03 0.  1.
         12    1    3    3    0    0 -0.50742631994E+01  0.14631574805E+01 -0.41775238621E+00  0.52974988330E+01  0.00000000000E+00 0. -1.
</event>
<event>
 7    1  0.2486105E-010  0.4778728E+02  0.7816164E-02  0.1312668E+00
        -11   -1    0    0    0    0  0.00000000000E+00  0.00000000000E+00  0.45593999997E+02  0.45594000000E+02  0.51100000000E-03 0.  1.
         11   -1    0    0    0    0 -0.00000000000E+00 -0.00000000000E+00 -0.45593999997E+02  0.45594000000E+02  0.51100000000E-03 0. -1.
    9900012    2    1    2    0    0 -0.36519188409E+02 -0.67929803820E+01  0.22446091842E+02  0.47787277155E+02  0.20000027858E+02 0.  0.
         12    1    1    2    0    0  0.36519188409E+02  0.67929803820E+01 -0.22446091842E+02  0.43400722845E+02  0.00000000000E+00 0. -1.
         11    1    3    3    0    0 -0.52161436397E+01 -0.66705669369E+01  0.21433555546E+01  0.87349064691E+01  0.51100000000E-03 0. -1.
        -11    1    3    3    0    0 -0.16501175207E+02 -0.19049099522E+01  0.42531577298E+01  0.17146626959E+02  0.51100000000E-03 0.  1.
         12    1    3    3    0    0 -0.14801869563E+02  0.17824965071E+01  0.16049578557E+02  0.21905743727E+02  0.00000000000E+00 0. -1.
</event>
<event>
 7    1  0.2486105E-010  0.4778727E+02  0.7816164E-02  0.1312668E+00
        -11   -1    0    0    0    0  0.00000000000E+00  0.00000000000E+00  0.45593999997E+02  0.45594000000E+02  0.51100000000E-03 0. -1.
         11   -1    0    0    0    0 -0.00000000000E+00 -0.00000000000E+00 -0.45593999997E+02  0.45594000000E+02  0.51100000000E-03 0.  1.
    9900012    2    1    2    0    0  0.43175657484E+02 -0.94431013903E+00  0.43120863779E+01  0.47787271783E+02  0.20000003367E+02 0.  0.
         12    1    1    2    0    0 -0.43175657484E+02  0.94431013903E+00 -0.43120863779E+01  0.43400728217E+02  0.00000000000E+00 0. -1.
         11    1    3    3    0    0  0.14853340694E+02  0.43312160196E+01  0.22568895606E+01  0.15635687152E+02  0.51100000000E-03 0. -1.
        -11    1    3    3    0    0  0.28872484894E+02 -0.49970196555E+01  0.44865907827E+01  0.29643213161E+02  0.51100000000E-03 0.  1.
        -12    1    3    3    0    0 -0.55016810346E+00 -0.27850650318E+00 -0.24313939655E+01  0.25083714697E+01  0.00000000000E+00 0.  1.
</event>
<event>
 7    1  0.2486105E-010  0.4778727E+02  0.7816164E-02  0.1312668E+00
        -11   -1    0    0    0    0  0.00000000000E+00  0.00000000000E+00  0.45593999997E+02  0.45594000000E+02  0.51100000000E-03 0. -1.
         11   -1    0    0    0    0 -0.00000000000E+00 -0.00000000000E+00 -0.45593999997E+02  0.45594000000E+02  0.51100000000E-03 0.  1.
    9900012    2    1    2    0    0  0.93748446820E+01 -0.41330113332E+01 -0.42174086221E+02  0.47787273692E+02  0.20000012069E+02 0.  0.
         12    1    1    2    0    0 -0.93748446820E+01  0.41330113332E+01  0.42174086221E+02  0.43400726308E+02  0.00000000000E+00 0. -1.
         11    1    3    3    0    0  0.83753177981E+01 -0.26089200405E+01 -0.32004812818E+02  0.33185244549E+02  0.51100000000E-03 0. -1.
        -11    1    3    3    0    0 -0.21312973738E+01 -0.14880748465E+01 -0.11048283825E+02  0.11349950263E+02  0.51100000000E-03 0.  1.
         12    1    3    3    0    0  0.31308242576E+01 -0.36016446082E-01  0.87901042141E+00  0.32520788793E+01  0.00000000000E+00 0. -1.
</event>
<event>
 7    1  0.2486105E-010  0.4778727E+02  0.7816164E-02  0.1312668E+00
        -11   -1    0    0    0    0  0.00000000000E+00  0.00000000000E+00  0.45593999997E+02  0.45594000000E+02  0.51100000000E-03 0. -1.
         11   -1    0    0    0    0 -0.00000000000E+00 -0.00000000000E+00 -0.45593999997E+02  0.45594000000E+02  0.51100000000E-03 0.  1.
    9900012    2    1    2    0    0 -0.14283544503E+02  0.40821043539E+02  0.36394756644E+01  0.47787273943E+02  0.20000013215E+02 0.  0.
         12    1    1    2    0    0  0.14283544503E+02 -0.40821043539E+02 -0.36394756644E+01  0.43400726057E+02  0.00000000000E+00 0. -1.
         11    1    3    3    0    0 -0.36129448200E+01  0.49364319320E+01 -0.23976852473E+00  0.61220274173E+01  0.51100000000E-03 0.  1.
        -11    1    3    3    0    0 -0.67139060958E+01  0.33463387989E+02  0.84417689377E+01  0.35158758991E+02  0.51100000000E-03 0. -1.
         12    1    3    3    0    0 -0.39566935875E+01  0.24212236180E+01 -0.45625247486E+01  0.65064875343E+01  0.00000000000E+00 0. -1.
</event>
<event>
 7    1  0.2486105E-010  0.4778727E+02  0.7816164E-02  0.1312668E+00
        -11   -1    0    0    0    0  0.00000000000E+00  0.00000000000E+00  0.45593999997E+02  0.45594000000E+02  0.51100000000E-03 0.  1.
         11   -1    0    0    0    0 -0.00000000000E+00 -0.00000000000E+00 -0.45593999997E+02  0.45594000000E+02  0.51100000000E-03 0. -1.
    9900012    2    1    2    0    0  0.16329688977E+02  0.39755360348E+02  0.60395073360E+01  0.47787273423E+02  0.20000010847E+02 0.  0.
         12    1    1    2    0    0 -0.16329688977E+02 -0.39755360348E+02 -0.60395073360E+01  0.43400726577E+02  0.00000000000E+00 0. -1.
         11    1    3    3    0    0  0.24531759412E+01  0.17229481934E+02 -0.41606374036E+01  0.17893686702E+02  0.51100000000E-03 0. -1.
        -11    1    3    3    0    0 -0.43560668980E+00  0.96293448366E+00  0.27744122234E+01  0.29688986939E+01  0.51100000000E-03 0.  1.
        -12    1    3    3    0    0  0.14312119726E+02  0.21562943931E+02  0.74257325161E+01  0.26924688028E+02  0.00000000000E+00 0.  1.
</event>
<event>
 7    1  0.2486105E-010  0.4778727E+02  0.7816164E-02  0.1312668E+00
        -11   -1    0    0    0    0  0.00000000000E+00  0.00000000000E+00  0.45593999997E+02  0.45594000000E+02  0.51100000000E-03 0. -1.
         11   -1    0    0    0    0 -0.00000000000E+00 -0.00000000000E+00 -0.45593999997E+02  0.45594000000E+02  0.51100000000E-03 0.  1.
    9900012    2    1    2    0    0  0.27349077491E+02 -0.14484457594E+02 -0.30427816143E+02  0.47787267902E+02  0.19999985673E+02 0.  0.
         12    1    1    2    0    0 -0.27349077491E+02  0.14484457594E+02  0.30427816143E+02  0.43400732098E+02  0.00000000000E+00 0. -1.
         11    1    3    3    0    0  0.14699906134E+02 -0.15702261585E+02 -0.13480833134E+02  0.25384663116E+02  0.51100000000E-03 0. -1.
        -11    1    3    3    0    0  0.84274956312E-01  0.35566612132E+00  0.66022815554E+00  0.75465365341E+00  0.51100000000E-03 0.  1.
        -12    1    3    3    0    0  0.12564896400E+02  0.86213787018E+00 -0.17607211165E+02  0.21647951133E+02  0.00000000000E+00 0.  1.
</event>
<event>
 7    1  0.2486105E-010  0.4778727E+02  0.7816164E-02  0.1312668E+00
        -11   -1    0    0    0    0  0.00000000000E+00  0.00000000000E+00  0.45593999997E+02  0.45594000000E+02  0.51100000000E-03 0.  1.
         11   -1    0    0    0    0 -0.00000000000E+00 -0.00000000000E+00 -0.45593999997E+02  0.45594000000E+02  0.51100000000E-03 0. -1.
    9900012    2    1    2    0    0  0.20692957925E+00 -0.21145047935E+02  0.37900754440E+02  0.47787273518E+02  0.20000011279E+02 0.  0.
         12    1    1    2    0    0 -0.20692957925E+00  0.21145047935E+02 -0.37900754440E+02  0.43400726482E+02  0.00000000000E+00 0. -1.
         11    1    3    3    0    0  0.21588058606E+01 -0.76136289911E+01  0.74145067416E+01  0.10844477841E+02  0.51100000000E-03 0. -1.
        -11    1    3    3    0    0  0.10827327323E+01 -0.15469311634E+02  0.29302153207E+02  0.33152497574E+02  0.51100000000E-03 0.  1.
         12    1    3    3    0    0 -0.30346090137E+01  0.19378926901E+01  0.11840944915E+01  0.37902981029E+01  0.00000000000E+00 0. -1.
</event>
<event>
 7    1  0.2486105E-010  0.4778727E+02  0.7816164E-02  0.1312668E+00
        -11   -1    0    0    0    0  0.00000000000E+00  0.00000000000E+00  0.45593999997E+02  0.45594000000E+02  0.51100000000E-03 0.  1.
         11   -1    0    0    0    0 -0.00000000000E+00 -0.00000000000E+00 -0.45593999997E+02  0.45594000000E+02  0.51100000000E-03 0. -1.
    9900012    2    1    2    0    0  0.32955431614E+02 -0.26035181440E+01  0.28120893492E+02  0.47787269241E+02  0.19999991779E+02 0.  0.
         12    1    1    2    0    0 -0.32955431614E+02  0.26035181440E+01 -0.28120893492E+02  0.43400730759E+02  0.00000000000E+00 0. -1.
         11    1    3    3    0    0  0.53933835430E+00 -0.64820744102E+00 -0.49448075824E+00  0.97753272498E+00  0.51100000000E-03 0. -1.
        -11    1    3    3    0    0  0.29011274544E+02 -0.96566726555E+00  0.31052665644E+02  0.42507112438E+02  0.51100000000E-03 0.  1.
        -12    1    3    3    0    0  0.34048187161E+01 -0.98964343740E+00 -0.24372913942E+01  0.43026240787E+01  0.00000000000E+00 0.  1.
</event>
<event>
 7    1  0.2486105E-010  0.4778727E+02  0.7816164E-02  0.1312668E+00
        -11   -1    0    0    0    0  0.00000000000E+00  0.00000000000E+00  0.45593999997E+02  0.45594000000E+02  0.51100000000E-03 0.  1.
         11   -1    0    0    0    0 -0.00000000000E+00 -0.00000000000E+00 -0.45593999997E+02  0.45594000000E+02  0.51100000000E-03 0. -1.
    9900012    2    1    2    0    0  0.21979000273E+02  0.14767616160E+02  0.34386978314E+02  0.47787271692E+02  0.20000002953E+02 0.  0.
         12    1    1    2    0    0 -0.21979000273E+02 -0.14767616160E+02 -0.34386978314E+02  0.43400728308E+02  0.00000000000E+00 0. -1.
         11    1    3    3    0    0  0.97206704883E+00 -0.16764617581E+01 -0.63753571563E+00  0.20400711810E+01  0.51100000000E-03 0. -1.
        -11    1    3    3    0    0  0.82186732868E+01  0.14136122865E+02  0.17799716494E+02  0.24170363418E+02  0.51100000000E-03 0.  1.
         12    1    3    3    0    0  0.12788259938E+02  0.23079550529E+01  0.17224797536E+02  0.21576837093E+02  0.00000000000E+00 0. -1.
</event>
<event>
 7    1  0.2486105E-010  0.4778728E+02  0.7816164E-02  0.1312668E+00
        -11   -1    0    0    0    0  0.00000000000E+00  0.00000000000E+00  0.45593999997E+02  0.45594000000E+02  0.51100000000E-03 0.  1.
         11   -1    0    0    0    0 -0.00000000000E+00 -0.00000000000E+00 -0.45593999997E+02  0.45594000000E+02  0.51100000000E-03 0. -1.
    9900012    2    1    2    0    0  0.38428411942E+02  0.13425456145E+02  0.15054467658E+02  0.47787277499E+02  0.20000029431E+02 0.  0.
         12    1    1    2    0    0 -0.38428411942E+02 -0.13425456145E+02 -0.15054467658E+02  0.43400722501E+02  0.00000000000E+00 0. -1.
         11    1    3    3    0    0  0.11806466956E+02  0.16262317049E+01 -0.67698454733E+00  0.11937152084E+02  0.51100000000E-03 0. -1.
        -11    1    3    3    0    0  0.17575951048E+02  0.30248749652E+00  0.82214873790E+01  0.19406143587E+02  0.51100000000E-03 0.  1.
         12    1    3    3    0    0  0.90459939382E+01  0.11496736943E+02  0.75099648261E+01  0.16443981828E+02  0.00000000000E+00 0. -1.
</event>
<event>
 7    1  0.2486105E-010  0.4778727E+02  0.7816164E-02  0.1312668E+00
        -11   -1    0    0    0    0  0.00000000000E+00  0.00000000000E+00  0.45593999997E+02  0.45594000000E+02  0.51100000000E-03 0.  1.
         11   -1    0    0    0    0 -0.00000000000E+00 -0.00000000000E+00 -0.45593999997E+02  0.45594000000E+02  0.51100000000E-03 0. -1.
    9900012    2    1    2    0    0  0.18861733004E+02 -0.30547574872E+02  0.24386550010E+02  0.47787272773E+02  0.20000007880E+02 0.  0.
         12    1    1    2    0    0 -0.18861733004E+02  0.30547574872E+02 -0.24386550010E+02  0.43400727227E+02  0.00000000000E+00 0. -1.
         11    1    3    3    0    0  0.86686392633E+00 -0.45328032139E+01  0.81347891752E+00  0.46860971237E+01  0.51100000000E-03 0. -1.
        -11    1    3    3    0    0  0.21036957103E+02 -0.24458029038E+02  0.23038329721E+02  0.39642318110E+02  0.51100000000E-03 0.  1.
         12    1    3    3    0    0 -0.30420880255E+01 -0.15567426204E+01  0.53474137185E+00  0.34588575391E+01  0.00000000000E+00 0. -1.
</event>
<event>
 7    1  0.2486105E-010  0.4778727E+02  0.7816164E-02  0.1312668E+00
        -11   -1    0    0    0    0  0.00000000000E+00  0.00000000000E+00  0.45593999997E+02  0.45594000000E+02  0.51100000000E-03 0. -1.
         11   -1    0    0    0    0 -0.00000000000E+00 -0.00000000000E+00 -0.45593999997E+02  0.45594000000E+02  0.51100000000E-03 0.  1.
    9900012    2    1    2    0    0 -0.67223996403E+01  0.26882154882E+02 -0.33403335277E+02  0.47787265955E+02  0.19999976796E+02 0.  0.
         12    1    1    2    0    0  0.67223996403E+01 -0.26882154882E+02  0.33403335277E+02  0.43400734045E+02  0.00000000000E+00 0. -1.
         11    1    3    3    0    0 -0.41037429783E+00  0.14628842359E+01 -0.18756434632E+00  0.15308879766E+01  0.51100000000E-03 0.  1.
        -11    1    3    3    0    0 -0.32243540351E+01  0.21728458910E+02 -0.34832155013E+02  0.41180109381E+02  0.51100000000E-03 0. -1.
         12    1    3    3    0    0 -0.30876713074E+01  0.36908117355E+01  0.16163840821E+01  0.50762685971E+01  0.00000000000E+00 0. -1.
</event>
<event>
 7    1  0.2486105E-010  0.4778732E+02  0.7816164E-02  0.1312668E+00
        -11   -1    0    0    0    0  0.00000000000E+00  0.00000000000E+00  0.45593999997E+02  0.45594000000E+02  0.51100000000E-03 0.  1.
         11   -1    0    0    0    0 -0.00000000000E+00 -0.00000000000E+00 -0.45593999997E+02  0.45594000000E+02  0.51100000000E-03 0. -1.
    9900012    2    1    2    0    0 -0.15755617909E+02 -0.28312087210E+02  0.28875687291E+02  0.47787319194E+02  0.20000219532E+02 0.  0.
         12    1    1    2    0    0  0.15755617909E+02  0.28312087210E+02 -0.28875687291E+02  0.43400680806E+02  0.00000000000E+00 0. -1.
         11    1    3    3    0    0  0.15389602301E+01 -0.42598134715E+00  0.15402859923E+01  0.22186346922E+01  0.51100000000E-03 0. -1.
        -11    1    3    3    0    0  0.54213343436E+00 -0.99250206458E+01  0.13366132456E+02  0.16656933709E+02  0.51100000000E-03 0.  1.
         12    1    3    3    0    0 -0.17836711573E+02 -0.17961085217E+02  0.13969268843E+02  0.28911750793E+02  0.00000000000E+00 0. -1.
</event>
<event>
 7    1  0.2486105E-010  0.4778727E+02  0.7816164E-02  0.1312668E+00
        -11   -1    0    0    0    0  0.00000000000E+00  0.00000000000E+00  0.45593999997E+02  0.45594000000E+02  0.51100000000E-03 0.  1.
         11   -1    0    0    0    0 -0.00000000000E+00 -0.00000000000E+00 -0.45593999997E+02  0.45594000000E+02  0.51100000000E-03 0. -1.
    9900012    2    1    2    0    0  0.21026452064E+02 -0.12441669360E+02  0.35870828913E+02  0.47787272013E+02  0.20000004418E+02 0.  0.
         12    1    1    2    0    0 -0.21026452064E+02  0.12441669360E+02 -0.35870828913E+02  0.43400727987E+02  0.00000000000E+00 0. -1.
         11    1    3    3    0    0  0.11904311386E+01 -0.50073325528E+01  0.19255163448E+00  0.51504933728E+01  0.51100000000E-03 0. -1.
        -11    1    3    3    0    0  0.79807876827E+00 -0.47245551846E+00  0.94142676087E+01  0.94598403162E+01  0.51100000000E-03 0.  1.
        -12    1    3    3    0    0  0.19037942157E+02 -0.69618812886E+01  0.26264009670E+02  0.33176938325E+02  0.00000000000E+00 0.  1.
</event>
<event>
 7    1  0.2486105E-010  0.4778727E+02  0.7816164E-02  0.1312668E+00
        -11   -1    0    0    0    0  0.00000000000E+00  0.00000000000E+00  0.45593999997E+02  0.45594000000E+02  0.51100000000E-03 0. -1.
         11   -1    0    0    0    0 -0.00000000000E+00 -0.00000000000E+00 -0.45593999997E+02  0.45594000000E+02  0.51100000000E-03 0.  1.
    9900012    2    1    2    0    0  0.35179722396E+01 -0.26355909584E+02 -0.34301797283E+02  0.47787269643E+02  0.19999993612E+02 0.  0.
         12    1    1    2    0    0 -0.35179722396E+01  0.26355909584E+02  0.34301797283E+02  0.43400730357E+02  0.00000000000E+00 0. -1.
         11    1    3    3    0    0  0.57078521729E+01 -0.13050860395E+02 -0.15292278087E+02  0.20898763189E+02  0.51100000000E-03 0.  1.
        -11    1    3    3    0    0  0.61313340231E+00 -0.53985703646E+01 -0.17552607707E+02  0.18374289976E+02  0.51100000000E-03 0. -1.
         12    1    3    3    0    0 -0.28030133356E+01 -0.79064788243E+01 -0.14569114892E+01  0.85142164787E+01  0.00000000000E+00 0. -1.
</event>
<event>
 7    1  0.2486105E-010  0.4778727E+02  0.7816164E-02  0.1312668E+00
        -11   -1    0    0    0    0  0.00000000000E+00  0.00000000000E+00  0.45593999997E+02  0.45594000000E+02  0.51100000000E-03 0.  1.
         11   -1    0    0    0    0 -0.00000000000E+00 -0.00000000000E+00 -0.45593999997E+02  0.45594000000E+02  0.51100000000E-03 0. -1.
    9900012    2    1    2    0    0  0.29806926121E+02 -0.18638495533E+02  0.25451461378E+02  0.47787271356E+02  0.20000001422E+02 0.  0.
         12    1    1    2    0    0 -0.29806926121E+02  0.18638495533E+02 -0.25451461378E+02  0.43400728644E+02  0.00000000000E+00 0. -1.
         11    1    3    3    0    0  0.21125830483E+01 -0.17896043138E+01  0.79469443833E+01  0.84154391464E+01  0.51100000000E-03 0. -1.
        -11    1    3    3    0    0  0.70638360935E+01 -0.12231212261E+02  0.68540444137E+01  0.15699626073E+02  0.51100000000E-03 0.  1.
         12    1    3    3    0    0  0.20630506980E+02 -0.46176789574E+01  0.10650472581E+02  0.23672206137E+02  0.00000000000E+00 0. -1.
</event>
<event>
 7    1  0.2486105E-010  0.4778727E+02  0.7816164E-02  0.1312668E+00
        -11   -1    0    0    0    0  0.00000000000E+00  0.00000000000E+00  0.45593999997E+02  0.45594000000E+02  0.51100000000E-03 0.  1.
         11   -1    0    0    0    0 -0.00000000000E+00 -0.00000000000E+00 -0.45593999997E+02  0.45594000000E+02  0.51100000000E-03 0. -1.
    9900012    2    1    2    0    0  0.31408179140E+02  0.28559682952E+02  0.90274024023E+01  0.47787271880E+02  0.20000003809E+02 0.  0.
         12    1    1    2    0    0 -0.31408179140E+02 -0.28559682952E+02 -0.90274024023E+01  0.43400728120E+02  0.00000000000E+00 0. -1.
         11    1    3    3    0    0  0.23832218479E+02  0.18072075769E+02  0.65226639096E+01  0.30612410963E+02  0.51100000000E-03 0. -1.
        -11    1    3    3    0    0  0.55035073356E+01  0.96580803145E+01  0.62959860691E+01  0.12775231865E+02  0.51100000000E-03 0.  1.
         12    1    3    3    0    0  0.20724533259E+01  0.82952686864E+00 -0.37912475764E+01  0.43996290525E+01  0.00000000000E+00 0. -1.
</event>
<event>
 7    1  0.2486105E-010  0.4778722E+02  0.7816164E-02  0.1312668E+00
        -11   -1    0    0    0    0  0.00000000000E+00  0.00000000000E+00  0.45593999997E+02  0.45594000000E+02  0.51100000000E-03 0. -1.
         11   -1    0    0    0    0 -0.00000000000E+00 -0.00000000000E+00 -0.45593999997E+02  0.45594000000E+02  0.51100000000E-03 0.  1.
    9900012    2    1    2    0    0 -0.24027001372E+02 -0.33143861431E+02 -0.14415796493E+02  0.47787221965E+02  0.19999776228E+02 0.  0.
         12    1    1    2    0    0  0.24027001372E+02  0.33143861431E+02  0.14415796493E+02  0.43400778035E+02  0.00000000000E+00 0. -1.
         11    1    3    3    0    0 -0.42849402940E+01  0.11018585788E+01  0.25140914368E+00  0.44314797155E+01  0.51100000000E-03 0. -1.
        -11    1    3    3    0    0 -0.16057560667E+01 -0.57877007663E+01 -0.60539886676E+01  0.85279957642E+01  0.51100000000E-03 0.  1.
         12    1    3    3    0    0 -0.18136305011E+02 -0.28458019244E+02 -0.86132169687E+01  0.34827746486E+02  0.00000000000E+00 0. -1.
</event>
<event>
 7    1  0.2486105E-010  0.4778727E+02  0.7816164E-02  0.1312668E+00
        -11   -1    0    0    0    0  0.00000000000E+00  0.00000000000E+00  0.45593999997E+02  0.45594000000E+02  0.51100000000E-03 0. -1.
         11   -1    0    0    0    0 -0.00000000000E+00 -0.00000000000E+00 -0.45593999997E+02  0.45594000000E+02  0.51100000000E-03 0.  1.
    9900012    2    1    2    0    0 -0.17793112452E+02  0.38605408338E+02 -0.87550394546E+01  0.47787272823E+02  0.20000008110E+02 0.  0.
         12    1    1    2    0    0  0.17793112452E+02 -0.38605408338E+02  0.87550394546E+01  0.43400727177E+02  0.00000000000E+00 0. -1.
         11    1    3    3    0    0 -0.27471737103E+01  0.89140888027E+01  0.34115373299E+01  0.99320959415E+01  0.51100000000E-03 0. -1.
        -11    1    3    3    0    0 -0.14472817688E+02  0.22162629630E+02 -0.40638958755E+01  0.26779840438E+02  0.51100000000E-03 0.  1.
         12    1    3    3    0    0 -0.57312105377E+00  0.75286899045E+01 -0.81026809089E+01  0.11075336443E+02  0.00000000000E+00 0. -1.
</event>
<event>
 7    1  0.2486105E-010  0.4778727E+02  0.7816164E-02  0.1312668E+00
        -11   -1    0    0    0    0  0.00000000000E+00  0.00000000000E+00  0.45593999997E+02  0.45594000000E+02  0.51100000000E-03 0.  1.
         11   -1    0    0    0    0 -0.00000000000E+00 -0.00000000000E+00 -0.45593999997E+02  0.45594000000E+02  0.51100000000E-03 0. -1.
    9900012    2    1    2    0    0  0.38555728716E+02  0.14534311061E+02  0.13632049205E+02  0.47787272121E+02  0.20000004911E+02 0.  0.
         12    1    1    2    0    0 -0.38555728716E+02 -0.14534311061E+02 -0.13632049205E+02  0.43400727879E+02  0.00000000000E+00 0. -1.
         11    1    3    3    0    0  0.26793902313E+01 -0.24604066834E+01  0.92253301956E-01  0.36388520157E+01  0.51100000000E-03 0. -1.
        -11    1    3    3    0    0  0.14224787039E+02  0.75081347307E+00  0.85834119189E+01  0.16630792152E+02  0.51100000000E-03 0.  1.
        -12    1    3    3    0    0  0.21651551446E+02  0.16243904271E+02  0.49563839837E+01  0.27517627954E+02  0.00000000000E+00 0.  1.
</event>
<event>
 7    1  0.2486105E-010  0.4778727E+02  0.7816164E-02  0.1312668E+00
        -11   -1    0    0    0    0  0.00000000000E+00  0.00000000000E+00  0.45593999997E+02  0.45594000000E+02  0.51100000000E-03 0.  1.
         11   -1    0    0    0    0 -0.00000000000E+00 -0.00000000000E+00 -0.45593999997E+02  0.45594000000E+02  0.51100000000E-03 0. -1.
    9900012    2    1    2    0    0  0.25292990562E+02 -0.36724522229E+01  0.35077075278E+02  0.47787268590E+02  0.19999988808E+02 0.  0.
         12    1    1    2    0    0 -0.25292990562E+02  0.36724522229E+01 -0.35077075278E+02  0.43400731410E+02  0.00000000000E+00 0. -1.
         11    1    3    3    0    0  0.55041704627E+01 -0.29310469739E+01  0.14675201610E+02  0.15945170786E+02  0.51100000000E-03 0. -1.
        -11    1    3    3    0    0  0.40525757517E+00 -0.42964934863E+01  0.15937086387E+01  0.46004344867E+01  0.51100000000E-03 0.  1.
        -12    1    3    3    0    0  0.19383562524E+02  0.35550882374E+01  0.18808165030E+02  0.27241663317E+02  0.00000000000E+00 0.  1.
</event>
<event>
 7    1  0.2486105E-010  0.4778726E+02  0.7816164E-02  0.1312668E+00
        -11   -1    0    0    0    0  0.00000000000E+00  0.00000000000E+00  0.45593999997E+02  0.45594000000E+02  0.51100000000E-03 0.  1.
         11   -1    0    0    0    0 -0.00000000000E+00 -0.00000000000E+00 -0.45593999997E+02  0.45594000000E+02  0.51100000000E-03 0. -1.
    9900012    2    1    2    0    0 -0.73387895781E+01  0.17310927729E+02  0.39116465808E+02  0.47787263271E+02  0.19999964560E+02 0.  0.
         12    1    1    2    0    0  0.73387895781E+01 -0.17310927729E+02 -0.39116465808E+02  0.43400736729E+02  0.00000000000E+00 0. -1.
         11    1    3    3    0    0  0.40350224017E+01  0.89487725246E+01  0.70531687393E+01  0.12087560755E+02  0.51100000000E-03 0. -1.
        -11    1    3    3    0    0 -0.12037548112E+01  0.43022932837E+01  0.12583197886E+02  0.13352738387E+02  0.51100000000E-03 0.  1.
         12    1    3    3    0    0 -0.10170057169E+02  0.40598619204E+01  0.19480099183E+02  0.22346964129E+02  0.00000000000E+00 0. -1.
</event>
<event>
 7    1  0.2486105E-010  0.4778727E+02  0.7816164E-02  0.1312668E+00
        -11   -1    0    0    0    0  0.00000000000E+00  0.00000000000E+00  0.45593999997E+02  0.45594000000E+02  0.51100000000E-03 0.  1.
         11   -1    0    0    0    0 -0.00000000000E+00 -0.00000000000E+00 -0.45593999997E+02  0.45594000000E+02  0.51100000000E-03 0. -1.
    9900012    2    1    2    0    0 -0.30192220349E+01  0.18476578887E+01  0.43256139572E+02  0.47787272448E+02  0.20000006400E+02 0.  0.
         12    1    1    2    0    0  0.30192220349E+01 -0.18476578887E+01 -0.43256139572E+02  0.43400727552E+02  0.00000000000E+00 0. -1.
         11    1    3    3    0    0  0.72632718753E+00 -0.25728996615E+00  0.13576571414E+02  0.13598420530E+02  0.51100000000E-03 0. -1.
        -11    1    3    3    0    0 -0.39338765205E+01 -0.44584750025E+01  0.25981052444E+02  0.26652738512E+02  0.51100000000E-03 0.  1.
         12    1    3    3    0    0  0.18832729802E+00  0.65634228573E+01  0.36985157136E+01  0.75361134054E+01  0.00000000000E+00 0. -1.
</event>
<event>
 7    1  0.2486105E-010  0.4778728E+02  0.7816164E-02  0.1312668E+00
        -11   -1    0    0    0    0  0.00000000000E+00  0.00000000000E+00  0.45593999997E+02  0.45594000000E+02  0.51100000000E-03 0.  1.
         11   -1    0    0    0    0 -0.00000000000E+00 -0.00000000000E+00 -0.45593999997E+02  0.45594000000E+02  0.51100000000E-03 0. -1.
    9900012    2    1    2    0    0 -0.74408555092E+01 -0.36246471004E+02  0.22681486606E+02  0.47787276209E+02  0.20000023547E+02 0.  0.
         12    1    1    2    0    0  0.74408555092E+01  0.36246471004E+02 -0.22681486606E+02  0.43400723791E+02  0.00000000000E+00 0. -1.
         11    1    3    3    0    0 -0.48429685277E+01 -0.89236921571E+01 -0.38396871498E+00  0.10160416237E+02  0.51100000000E-03 0. -1.
        -11    1    3    3    0    0 -0.65997014628E+01 -0.15602074105E+02  0.10226597244E+02  0.19787977846E+02  0.51100000000E-03 0.  1.
         12    1    3    3    0    0  0.40018144813E+01 -0.11720704741E+02  0.12838858077E+02  0.17838882126E+02  0.00000000000E+00 0. -1.
</event>
<event>
 7    1  0.2486105E-010  0.4778727E+02  0.7816164E-02  0.1312668E+00
        -11   -1    0    0    0    0  0.00000000000E+00  0.00000000000E+00  0.45593999997E+02  0.45594000000E+02  0.51100000000E-03 0. -1.
         11   -1    0    0    0    0 -0.00000000000E+00 -0.00000000000E+00 -0.45593999997E+02  0.45594000000E+02  0.51100000000E-03 0.  1.
    9900012    2    1    2    0    0  0.55200605130E+01 -0.39561068885E+02 -0.16972741078E+02  0.47787272137E+02  0.20000004981E+02 0.  0.
         12    1    1    2    0    0 -0.55200605130E+01  0.39561068885E+02  0.16972741078E+02  0.43400727863E+02  0.00000000000E+00 0. -1.
         11    1    3    3    0    0  0.48810427412E+01 -0.16718464447E+01 -0.58483728705E+00  0.51924641250E+01  0.51100000000E-03 0. -1.
        -11    1    3    3    0    0  0.53857073955E+01 -0.15819547294E+02 -0.61431520257E+01  0.17804556659E+02  0.51100000000E-03 0.  1.
         12    1    3    3    0    0 -0.47466896236E+01 -0.22069675146E+02 -0.10244751765E+02  0.24790251353E+02  0.00000000000E+00 0. -1.
</event>
<event>
 7    1  0.2486105E-010  0.4778728E+02  0.7816164E-02  0.1312668E+00
        -11   -1    0    0    0    0  0.00000000000E+00  0.00000000000E+00  0.45593999997E+02  0.45594000000E+02  0.51100000000E-03 0. -1.
         11   -1    0    0    0    0 -0.00000000000E+00 -0.00000000000E+00 -0.45593999997E+02  0.45594000000E+02  0.51100000000E-03 0.  1.
    9900012    2    1    2    0    0  0.12539060239E+02  0.41220392425E+02 -0.52224092815E+01  0.47787281779E+02  0.20000048944E+02 0.  0.
         12    1    1    2    0    0 -0.12539060239E+02 -0.41220392425E+02  0.52224092815E+01  0.43400718221E+02  0.00000000000E+00 0. -1.
         11    1    3    3    0    0  0.25904541578E+01  0.17092729635E+01  0.11436769508E+01  0.33075767620E+01  0.51100000000E-03 0. -1.
        -11    1    3    3    0    0  0.85842258264E+01  0.31218294239E+02 -0.11812905289E+02  0.34464700199E+02  0.51100000000E-03 0.  1.
        -12    1    3    3    0    0  0.13643802549E+01  0.82928252233E+01  0.54468190567E+01  0.10015004818E+02  0.00000000000E+00 0.  1.
</event>
<event>
 7    1  0.2486105E-010  0.4778727E+02  0.7816164E-02  0.1312668E+00
        -11   -1    0    0    0    0  0.00000000000E+00  0.00000000000E+00  0.45593999997E+02  0.45594000000E+02  0.51100000000E-03 0.  1.
         11   -1    0    0    0    0 -0.00000000000E+00 -0.00000000000E+00 -0.45593999997E+02  0.45594000000E+02  0.51100000000E-03 0. -1.
    9900012    2    1    2    0    0  0.21979123765E+02 -0.33914162929E+02  0.15823113503E+02  0.47787271325E+02  0.20000001277E+02 0.  0.
         12    1    1    2    0    0 -0.21979123765E+02  0.33914162929E+02 -0.15823113503E+02  0.43400728675E+02  0.00000000000E+00 0. -1.
         11    1    3    3    0    0  0.59738855088E+01 -0.16632057819E+02  0.12139577750E+02  0.21440195978E+02  0.51100000000E-03 0. -1.
        -11    1    3    3    0    0  0.80783751208E+01 -0.13280556595E+02  0.67583205474E+01  0.16950168877E+02  0.51100000000E-03 0.  1.
        -12    1    3    3    0    0  0.79268631352E+01 -0.40015485153E+01 -0.30747847941E+01  0.93969064705E+01  0.00000000000E+00 0.  1.
</event>
<event>
 7    1  0.2486105E-010  0.4778727E+02  0.7816164E-02  0.1312668E+00
        -11   -1    0    0    0    0  0.00000000000E+00  0.00000000000E+00  0.45593999997E+02  0.45594000000E+02  0.51100000000E-03 0.  1.
         11   -1    0    0    0    0 -0.00000000000E+00 -0.00000000000E+00 -0.45593999997E+02  0.45594000000E+02  0.51100000000E-03 0. -1.
    9900012    2    1    2    0    0  0.92888801379E+01  0.95217551273E+01  0.41311938081E+02  0.47787270249E+02  0.19999996373E+02 0.  0.
         12    1    1    2    0    0 -0.92888801379E+01 -0.95217551273E+01 -0.41311938081E+02  0.43400729751E+02  0.00000000000E+00 0. -1.
         11    1    3    3    0    0  0.57106873460E+01  0.49089911716E+01  0.26630390617E+02  0.27674678841E+02  0.51100000000E-03 0.  1.
        -11    1    3    3    0    0  0.80454500584E+01  0.12900300462E+01  0.93774350380E+01  0.12422951836E+02  0.51100000000E-03 0. -1.
        -12    1    3    3    0    0 -0.44672572664E+01  0.33227339095E+01  0.53041124262E+01  0.76896395720E+01  0.00000000000E+00 0.  1.
</event>
<event>
 7    1  0.2486105E-010  0.4778727E+02  0.7816164E-02  0.1312668E+00
        -11   -1    0    0    0    0  0.00000000000E+00  0.00000000000E+00  0.45593999997E+02  0.45594000000E+02  0.51100000000E-03 0.  1.
         11   -1    0    0    0    0 -0.00000000000E+00 -0.00000000000E+00 -0.45593999997E+02  0.45594000000E+02  0.51100000000E-03 0. -1.
    9900012    2    1    2    0    0  0.95714358805E+01  0.38947505837E+00  0.42330359416E+02  0.47787269546E+02  0.19999993168E+02 0.  0.
         12    1    1    2    0    0 -0.95714358805E+01 -0.38947505837E+00 -0.42330359416E+02  0.43400730454E+02  0.00000000000E+00 0. -1.
         11    1    3    3    0    0  0.20202350621E+01 -0.11063110217E+01 -0.37697109974E+00  0.23339625649E+01  0.51100000000E-03 0. -1.
        -11    1    3    3    0    0  0.64756469808E+01  0.50004391889E+01  0.11974839705E+02  0.14502937017E+02  0.51100000000E-03 0.  1.
        -12    1    3    3    0    0  0.10755538376E+01 -0.35046531088E+01  0.30732490811E+02  0.30950369964E+02  0.00000000000E+00 0.  1.
</event>
<event>
 7    1  0.2486105E-010  0.4778728E+02  0.7816164E-02  0.1312668E+00
        -11   -1    0    0    0    0  0.00000000000E+00  0.00000000000E+00  0.45593999997E+02  0.45594000000E+02  0.51100000000E-03 0.  1.
         11   -1    0    0    0    0 -0.00000000000E+00 -0.00000000000E+00 -0.45593999997E+02  0.45594000000E+02  0.51100000000E-03 0. -1.
    9900012    2    1    2    0    0  0.11683527609E+02  0.25461186704E+02  0.33148845596E+02  0.47787276387E+02  0.20000024361E+02 0.  0.
         12    1    1    2    0    0 -0.11683527609E+02 -0.25461186704E+02 -0.33148845596E+02  0.43400723613E+02  0.00000000000E+00 0. -1.
         11    1    3    3    0    0  0.14600340279E+01  0.26040299056E+01 -0.95408580757E+00  0.31341587549E+01  0.51100000000E-03 0. -1.
        -11    1    3    3    0    0  0.11093343732E+02  0.81869805602E+01  0.13093173242E+02  0.19013682222E+02  0.51100000000E-03 0.  1.
         12    1    3    3    0    0 -0.86985015134E+00  0.14670176238E+02  0.21009758162E+02  0.25639435410E+02  0.00000000000E+00 0. -1.
</event>
<event>
 7    1  0.2486105E-010  0.4778728E+02  0.7816164E-02  0.1312668E+00
        -11   -1    0    0    0    0  0.00000000000E+00  0.00000000000E+00  0.45593999997E+02  0.45594000000E+02  0.51100000000E-03 0.  1.
         11   -1    0    0    0    0 -0.00000000000E+00 -0.00000000000E+00 -0.45593999997E+02  0.45594000000E+02  0.51100000000E-03 0. -1.
    9900012    2    1    2    0    0  0.11423830214E+02 -0.17581928139E+02  0.37999931599E+02  0.47787275405E+02  0.20000019882E+02 0.  0.
         12    1    1    2    0    0 -0.11423830214E+02  0.17581928139E+02 -0.37999931599E+02  0.43400724595E+02  0.00000000000E+00 0. -1.
         11    1    3    3    0    0 -0.25975885785E+01  0.23880775889E+01  0.34819094714E+01  0.49572245079E+01  0.51100000000E-03 0. -1.
        -11    1    3    3    0    0  0.30236121440E+01 -0.93912802135E+01  0.16433209448E+02  0.19167387602E+02  0.51100000000E-03 0.  1.
         12    1    3    3    0    0  0.10997806649E+02 -0.10578725514E+02  0.18084812679E+02  0.23662663295E+02  0.00000000000E+00 0. -1.
</event>
<event>
 7    1  0.2486105E-010  0.4778726E+02  0.7816164E-02  0.1312668E+00
        -11   -1    0    0    0    0  0.00000000000E+00  0.00000000000E+00  0.45593999997E+02  0.45594000000E+02  0.51100000000E-03 0.  1.
         11   -1    0    0    0    0 -0.00000000000E+00 -0.00000000000E+00 -0.45593999997E+02  0.45594000000E+02  0.51100000000E-03 0. -1.
    9900012    2    1    2    0    0 -0.21356987790E+02 -0.18135768389E+02  0.33145089015E+02  0.47787263274E+02  0.19999964572E+02 0.  0.
         12    1    1    2    0    0  0.21356987790E+02  0.18135768389E+02 -0.33145089015E+02  0.43400736726E+02  0.00000000000E+00 0. -1.
         11    1    3    3    0    0 -0.37379640546E+01 -0.11485610000E+02  0.22668926291E+02  0.25686024056E+02  0.51100000000E-03 0. -1.
        -11    1    3    3    0    0 -0.25510252495E+01 -0.29498436669E+01  0.15162583408E+01  0.41842976830E+01  0.51100000000E-03 0.  1.
         12    1    3    3    0    0 -0.15067998486E+02 -0.37003147215E+01  0.89599043837E+01  0.17916941535E+02  0.00000000000E+00 0. -1.
</event>
<event>
 7    1  0.2486105E-010  0.4778727E+02  0.7816164E-02  0.1312668E+00
        -11   -1    0    0    0    0  0.00000000000E+00  0.00000000000E+00  0.45593999997E+02  0.45594000000E+02  0.51100000000E-03 0.  1.
         11   -1    0    0    0    0 -0.00000000000E+00 -0.00000000000E+00 -0.45593999997E+02  0.45594000000E+02  0.51100000000E-03 0. -1.
    9900012    2    1    2    0    0 -0.35282269782E+02 -0.12710111806E+02  0.21845772643E+02  0.47787270911E+02  0.19999999391E+02 0.  0.
         12    1    1    2    0    0  0.35282269782E+02  0.12710111806E+02 -0.21845772643E+02  0.43400729089E+02  0.00000000000E+00 0. -1.
         11    1    3    3    0    0 -0.44125296046E+01 -0.24371806601E+01  0.10714061374E+02  0.11840666302E+02  0.51100000000E-03 0. -1.
        -11    1    3    3    0    0 -0.67261180798E+01 -0.65708673095E+01  0.54515131411E+01  0.10869036637E+02  0.51100000000E-03 0.  1.
         12    1    3    3    0    0 -0.24143622098E+02 -0.37020638367E+01  0.56801981276E+01  0.25077567972E+02  0.00000000000E+00 0. -1.
</event>
<event>
 7    1  0.2486105E-010  0.4778727E+02  0.7816164E-02  0.1312668E+00
        -11   -1    0    0    0    0  0.00000000000E+00  0.00000000000E+00  0.45593999997E+02  0.45594000000E+02  0.51100000000E-03 0.  1.
         11   -1    0    0    0    0 -0.00000000000E+00 -0.00000000000E+00 -0.45593999997E+02  0.45594000000E+02  0.51100000000E-03 0. -1.
    9900012    2    1    2    0    0  0.40035678387E+02 -0.82756282606E+01  0.14569903023E+02  0.47787266814E+02  0.19999980710E+02 0.  0.
         12    1    1    2    0    0 -0.40035678387E+02  0.82756282606E+01 -0.14569903023E+02  0.43400733186E+02  0.00000000000E+00 0. -1.
         11    1    3    3    0    0  0.87135546541E+01 -0.77884628012E+01  0.29963115201E+01  0.12064993597E+02  0.51100000000E-03 0. -1.
        -11    1    3    3    0    0  0.20663007260E+02 -0.29387538289E+01  0.13155425013E+02  0.24671063022E+02  0.51100000000E-03 0.  1.
        -12    1    3    3    0    0  0.10659116473E+02  0.24515883695E+01 -0.15818335094E+01  0.11051210195E+02  0.00000000000E+00 0.  1.
</event>
<event>
 7    1  0.2486105E-010  0.4778727E+02  0.7816164E-02  0.1312668E+00
        -11   -1    0    0    0    0  0.00000000000E+00  0.00000000000E+00  0.45593999997E+02  0.45594000000E+02  0.51100000000E-03 0.  1.
         11   -1    0    0    0    0 -0.00000000000E+00 -0.00000000000E+00 -0.45593999997E+02  0.45594000000E+02  0.51100000000E-03 0. -1.
    9900012    2    1    2    0    0  0.28076258002E+02 -0.32509165973E+02  0.62049578936E+01  0.47787266849E+02  0.19999980870E+02 0.  0.
         12    1    1    2    0    0 -0.28076258002E+02  0.32509165973E+02 -0.62049578936E+01  0.43400733151E+02  0.00000000000E+00 0. -1.
         11    1    3    3    0    0  0.91341063765E+01 -0.19149607564E+02  0.61204318673E+00  0.21225314280E+02  0.51100000000E-03 0. -1.
        -11    1    3    3    0    0  0.13600223047E+01 -0.46734920517E+01  0.49478871204E+01  0.69406610524E+01  0.51100000000E-03 0.  1.
        -12    1    3    3    0    0  0.17582129320E+02 -0.86860663569E+01  0.64502758645E+00  0.19621291517E+02  0.00000000000E+00 0.  1.
</event>
<event>
 7    1  0.2486105E-010  0.4778726E+02  0.7816164E-02  0.1312668E+00
        -11   -1    0    0    0    0  0.00000000000E+00  0.00000000000E+00  0.45593999997E+02  0.45594000000E+02  0.51100000000E-03 0.  1.
         11   -1    0    0    0    0 -0.00000000000E+00 -0.00000000000E+00 -0.45593999997E+02  0.45594000000E+02  0.51100000000E-03 0. -1.
    9900012    2    1    2    0    0 -0.16957608638E+02  0.36469570607E+02  0.16310543800E+02  0.47787263715E+02  0.19999966583E+02 0.  0.
         12    1    1    2    0    0  0.16957608638E+02 -0.36469570607E+02 -0.16310543800E+02  0.43400736285E+02  0.00000000000E+00 0. -1.
         11    1    3    3    0    0 -0.29682021008E+00  0.92535423762E-01  0.18747457960E+01  0.19003518365E+01  0.51100000000E-03 0. -1.
        -11    1    3    3    0    0 -0.20108686762E+02  0.32075244068E+02  0.11133673593E+02  0.39460603813E+02  0.51100000000E-03 0.  1.
        -12    1    3    3    0    0  0.34478983346E+01  0.43017911152E+01  0.33021244116E+01  0.64263080656E+01  0.00000000000E+00 0.  1.
</event>
<event>
 7    1  0.2486105E-010  0.4778727E+02  0.7816164E-02  0.1312668E+00
        -11   -1    0    0    0    0  0.00000000000E+00  0.00000000000E+00  0.45593999997E+02  0.45594000000E+02  0.51100000000E-03 0. -1.
         11   -1    0    0    0    0 -0.00000000000E+00 -0.00000000000E+00 -0.45593999997E+02  0.45594000000E+02  0.51100000000E-03 0.  1.
    9900012    2    1    2    0    0  0.24643110000E+02 -0.25148257685E+01 -0.35637287911E+02  0.47787268339E+02  0.19999987663E+02 0.  0.
         12    1    1    2    0    0 -0.24643110000E+02  0.25148257685E+01  0.35637287911E+02  0.43400731661E+02  0.00000000000E+00 0. -1.
         11    1    3    3    0    0  0.10819597911E+02  0.51432931290E-01 -0.58456673471E+01  0.12297892961E+02  0.51100000000E-03 0. -1.
        -11    1    3    3    0    0  0.37874676169E+01  0.30061787565E+01 -0.19438805293E+02  0.20031204985E+02  0.51100000000E-03 0.  1.
         12    1    3    3    0    0  0.10036044472E+02 -0.55724374563E+01 -0.10352815271E+02  0.15458170392E+02  0.00000000000E+00 0. -1.
</event>
<event>
 7    1  0.2486105E-010  0.4778727E+02  0.7816164E-02  0.1312668E+00
        -11   -1    0    0    0    0  0.00000000000E+00  0.00000000000E+00  0.45593999997E+02  0.45594000000E+02  0.51100000000E-03 0.  1.
         11   -1    0    0    0    0 -0.00000000000E+00 -0.00000000000E+00 -0.45593999997E+02  0.45594000000E+02  0.51100000000E-03 0. -1.
    9900012    2    1    2    0    0 -0.25278157631E+02  0.31230511972E+02  0.16410161940E+02  0.47787267908E+02  0.19999985701E+02 0.  0.
         12    1    1    2    0    0  0.25278157631E+02 -0.31230511972E+02 -0.16410161940E+02  0.43400732092E+02  0.00000000000E+00 0. -1.
         11    1    3    3    0    0 -0.52269518967E+01  0.11662132476E+02  0.92706158098E+00  0.12813500827E+02  0.51100000000E-03 0. -1.
        -11    1    3    3    0    0 -0.71654448527E+01  0.16136734534E+02  0.11444336535E+02  0.21040690111E+02  0.51100000000E-03 0.  1.
         12    1    3    3    0    0 -0.12885760881E+02  0.34316449616E+01  0.40387638234E+01  0.13933076970E+02  0.00000000000E+00 0. -1.
</event>
<event>
 7    1  0.2486105E-010  0.4778727E+02  0.7816164E-02  0.1312668E+00
        -11   -1    0    0    0    0  0.00000000000E+00  0.00000000000E+00  0.45593999997E+02  0.45594000000E+02  0.51100000000E-03 0. -1.
         11   -1    0    0    0    0 -0.00000000000E+00 -0.00000000000E+00 -0.45593999997E+02  0.45594000000E+02  0.51100000000E-03 0.  1.
    9900012    2    1    2    0    0  0.43298722942E+02  0.28711739073E+01  0.77478131657E+00  0.47787270350E+02  0.19999996835E+02 0.  0.
         12    1    1    2    0    0 -0.43298722942E+02 -0.28711739073E+01 -0.77478131657E+00  0.43400729650E+02  0.00000000000E+00 0. -1.
         11    1    3    3    0    0 -0.37669434757E+00  0.40269927388E-01 -0.78876829511E+00  0.87502913268E+00  0.51100000000E-03 0. -1.
        -11    1    3    3    0    0  0.33030781005E+01 -0.46647969125E+01 -0.85196189540E+00  0.57789700211E+01  0.51100000000E-03 0.  1.
        -12    1    3    3    0    0  0.40372339189E+02  0.74957008924E+01  0.24155115071E+01  0.41133271197E+02  0.00000000000E+00 0.  1.
</event>
<event>
 7    1  0.2486105E-010  0.4778725E+02  0.7816164E-02  0.1312668E+00
        -11   -1    0    0    0    0  0.00000000000E+00  0.00000000000E+00  0.45593999997E+02  0.45594000000E+02  0.51100000000E-03 0. -1.
         11   -1    0    0    0    0 -0.00000000000E+00 -0.00000000000E+00 -0.45593999997E+02  0.45594000000E+02  0.51100000000E-03 0.  1.
    9900012    2    1    2    0    0  0.18189885268E+02 -0.24890441799E+02 -0.30548634620E+02  0.47787250050E+02  0.19999904279E+02 0.  0.
         12    1    1    2    0    0 -0.18189885268E+02  0.24890441799E+02  0.30548634620E+02  0.43400749950E+02  0.00000000000E+00 0. -1.
         11    1    3    3    0    0  0.13088811644E+01 -0.27433539161E-01  0.35845349125E+00  0.13573546582E+01  0.51100000000E-03 0. -1.
        -11    1    3    3    0    0 -0.10975245216E+01 -0.22606319947E+01 -0.11170080019E+02  0.11449266569E+02  0.51100000000E-03 0.  1.
         12    1    3    3    0    0  0.17978528625E+02 -0.22602376265E+02 -0.19737008093E+02  0.34980628823E+02  0.00000000000E+00 0. -1.
</event>
<event>
 7    1  0.2486105E-010  0.4778728E+02  0.7816164E-02  0.1312668E+00
        -11   -1    0    0    0    0  0.00000000000E+00  0.00000000000E+00  0.45593999997E+02  0.45594000000E+02  0.51100000000E-03 0.  1.
         11   -1    0    0    0    0 -0.00000000000E+00 -0.00000000000E+00 -0.45593999997E+02  0.45594000000E+02  0.51100000000E-03 0. -1.
    9900012    2    1    2    0    0  0.45099790967E+01  0.29142661741E+02  0.31843182007E+02  0.47787275522E+02  0.20000020417E+02 0.  0.
         12    1    1    2    0    0 -0.45099790967E+01 -0.29142661741E+02 -0.31843182007E+02  0.43400724478E+02  0.00000000000E+00 0. -1.
         11    1    3    3    0    0 -0.25952938703E+01 -0.17480099908E+01  0.43246650104E+01  0.53379599956E+01  0.51100000000E-03 0. -1.
        -11    1    3    3    0    0  0.12378192706E+01  0.87986390835E+01  0.11521512356E+02  0.14549690495E+02  0.51100000000E-03 0.  1.
        -12    1    3    3    0    0  0.58674536964E+01  0.22092032649E+02  0.15997004641E+02  0.27899625032E+02  0.00000000000E+00 0.  1.
</event>
<event>
 7    1  0.2486105E-010  0.4778727E+02  0.7816164E-02  0.1312668E+00
        -11   -1    0    0    0    0  0.00000000000E+00  0.00000000000E+00  0.45593999997E+02  0.45594000000E+02  0.51100000000E-03 0.  1.
         11   -1    0    0    0    0 -0.00000000000E+00 -0.00000000000E+00 -0.45593999997E+02  0.45594000000E+02  0.51100000000E-03 0. -1.
    9900012    2    1    2    0    0  0.33761083133E+02 -0.14333018271E+02  0.23202953064E+02  0.47787272149E+02  0.20000005038E+02 0.  0.
         12    1    1    2    0    0 -0.33761083133E+02  0.14333018271E+02 -0.23202953064E+02  0.43400727851E+02  0.00000000000E+00 0. -1.
         11    1    3    3    0    0  0.35018802713E+01  0.31944152022E+01  0.55432755849E+01  0.72935148173E+01  0.51100000000E-03 0. -1.
        -11    1    3    3    0    0  0.13520130337E+02 -0.62446685246E+01  0.13018391857E+02  0.19780503940E+02  0.51100000000E-03 0.  1.
         12    1    3    3    0    0  0.16739072525E+02 -0.11282764949E+02  0.46412856222E+01  0.20713253393E+02  0.00000000000E+00 0. -1.
</event>
<event>
 7    1  0.2486105E-010  0.4778726E+02  0.7816164E-02  0.1312668E+00
        -11   -1    0    0    0    0  0.00000000000E+00  0.00000000000E+00  0.45593999997E+02  0.45594000000E+02  0.51100000000E-03 0.  1.
         11   -1    0    0    0    0 -0.00000000000E+00 -0.00000000000E+00 -0.45593999997E+02  0.45594000000E+02  0.51100000000E-03 0. -1.
    9900012    2    1    2    0    0  0.20262122558E+01 -0.10146297889E+02  0.42149389224E+02  0.47787263729E+02  0.19999966645E+02 0.  0.
         12    1    1    2    0    0 -0.20262122558E+01  0.10146297889E+02 -0.42149389224E+02  0.43400736271E+02  0.00000000000E+00 0. -1.
         11    1    3    3    0    0  0.71119709146E+01 -0.67687660524E+01  0.26174202247E+02  0.27955056567E+02  0.51100000000E-03 0. -1.
        -11    1    3    3    0    0  0.13396111089E+01 -0.43771944572E+01  0.10013825569E+02  0.11010499173E+02  0.51100000000E-03 0.  1.
         12    1    3    3    0    0 -0.64253697677E+01  0.99966262053E+00  0.59613614078E+01  0.88217079889E+01  0.00000000000E+00 0. -1.
</event>
<event>
 7    1  0.2486105E-010  0.4778727E+02  0.7816164E-02  0.1312668E+00
        -11   -1    0    0    0    0  0.00000000000E+00  0.00000000000E+00  0.45593999997E+02  0.45594000000E+02  0.51100000000E-03 0.  1.
         11   -1    0    0    0    0 -0.00000000000E+00 -0.00000000000E+00 -0.45593999997E+02  0.45594000000E+02  0.51100000000E-03 0. -1.
    9900012    2    1    2    0    0  0.78996565844E+00 -0.30592889359E+02  0.30774578429E+02  0.47787267257E+02  0.19999982734E+02 0.  0.
         12    1    1    2    0    0 -0.78996565844E+00  0.30592889359E+02 -0.30774578429E+02  0.43400732743E+02  0.00000000000E+00 0. -1.
         11    1    3    3    0    0 -0.67026049053E+00  0.10555315274E+00  0.16803002256E+01  0.18121257414E+01  0.51100000000E-03 0. -1.
        -11    1    3    3    0    0  0.10873504451E+00 -0.26417933569E+02  0.31312490098E+02  0.40968171472E+02  0.51100000000E-03 0.  1.
        -12    1    3    3    0    0  0.13514911045E+01 -0.42805089434E+01 -0.22182118941E+01  0.50069700446E+01  0.00000000000E+00 0.  1.
</event>
<event>
 7    1  0.2486105E-010  0.4778727E+02  0.7816164E-02  0.1312668E+00
        -11   -1    0    0    0    0  0.00000000000E+00  0.00000000000E+00  0.45593999997E+02  0.45594000000E+02  0.51100000000E-03 0.  1.
         11   -1    0    0    0    0 -0.00000000000E+00 -0.00000000000E+00 -0.45593999997E+02  0.45594000000E+02  0.51100000000E-03 0. -1.
    9900012    2    1    2    0    0 -0.19484610406E+02  0.23009185065E+02  0.31217795658E+02  0.47787269525E+02  0.19999993072E+02 0.  0.
         12    1    1    2    0    0  0.19484610406E+02 -0.23009185065E+02 -0.31217795658E+02  0.43400730475E+02  0.00000000000E+00 0. -1.
         11    1    3    3    0    0 -0.52609416351E+00 -0.10361914258E+01 -0.19137586836E+01  0.22389596468E+01  0.51100000000E-03 0. -1.
        -11    1    3    3    0    0 -0.11260782780E+02  0.92769298743E+01  0.14841599206E+02  0.20812009129E+02  0.51100000000E-03 0.  1.
         12    1    3    3    0    0 -0.76977334626E+01  0.14768446616E+02  0.18289955135E+02  0.24736300750E+02  0.00000000000E+00 0. -1.
</event>
<event>
 7    1  0.2486105E-010  0.4778727E+02  0.7816164E-02  0.1312668E+00
        -11   -1    0    0    0    0  0.00000000000E+00  0.00000000000E+00  0.45593999997E+02  0.45594000000E+02  0.51100000000E-03 0.  1.
         11   -1    0    0    0    0 -0.00000000000E+00 -0.00000000000E+00 -0.45593999997E+02  0.45594000000E+02  0.51100000000E-03 0. -1.
    9900012    2    1    2    0    0 -0.31041268427E+01 -0.24883007699E+02  0.35423490710E+02  0.47787269941E+02  0.19999994967E+02 0.  0.
         12    1    1    2    0    0  0.31041268427E+01  0.24883007699E+02 -0.35423490710E+02  0.43400730059E+02  0.00000000000E+00 0. -1.
         11    1    3    3    0    0 -0.73395598474E+00 -0.15453237843E+02  0.69194740254E+01  0.16947577180E+02  0.51100000000E-03 0. -1.
        -11    1    3    3    0    0  0.20999351696E+01 -0.38402618192E+01  0.79501023994E+01  0.90753218664E+01  0.51100000000E-03 0.  1.
        -12    1    3    3    0    0 -0.44701060276E+01 -0.55895080371E+01  0.20553914285E+02  0.21764370895E+02  0.00000000000E+00 0.  1.
</event>
<event>
 7    1  0.2486105E-010  0.4778725E+02  0.7816164E-02  0.1312668E+00
        -11   -1    0    0    0    0  0.00000000000E+00  0.00000000000E+00  0.45593999997E+02  0.45594000000E+02  0.51100000000E-03 0.  1.
         11   -1    0    0    0    0 -0.00000000000E+00 -0.00000000000E+00 -0.45593999997E+02  0.45594000000E+02  0.51100000000E-03 0. -1.
    9900012    2    1    2    0    0 -0.28762146675E+02  0.31990894542E+02  0.57399381079E+01  0.47787247651E+02  0.19999893340E+02 0.  0.
         12    1    1    2    0    0  0.28762146675E+02 -0.31990894542E+02 -0.57399381079E+01  0.43400752349E+02  0.00000000000E+00 0. -1.
         11    1    3    3    0    0 -0.42573473778E+01  0.51205708014E+01  0.45201997597E+01  0.80484444557E+01  0.51100000000E-03 0. -1.
        -11    1    3    3    0    0 -0.59210225108E+01  0.14198693400E+01 -0.46780413005E+01  0.76784508325E+01  0.51100000000E-03 0.  1.
        -12    1    3    3    0    0 -0.18583776786E+02  0.25450454401E+02  0.58977796488E+01  0.32060352363E+02  0.00000000000E+00 0.  1.
</event>
<event>
 7    1  0.2486105E-010  0.4778727E+02  0.7816164E-02  0.1312668E+00
        -11   -1    0    0    0    0  0.00000000000E+00  0.00000000000E+00  0.45593999997E+02  0.45594000000E+02  0.51100000000E-03 0.  1.
         11   -1    0    0    0    0 -0.00000000000E+00 -0.00000000000E+00 -0.45593999997E+02  0.45594000000E+02  0.51100000000E-03 0. -1.
    9900012    2    1    2    0    0 -0.18033803083E+02 -0.37968877701E+02 -0.10806011737E+02  0.47787267090E+02  0.19999981969E+02 0.  0.
         12    1    1    2    0    0  0.18033803083E+02  0.37968877701E+02  0.10806011737E+02  0.43400732910E+02  0.00000000000E+00 0. -1.
         11    1    3    3    0    0 -0.16599407136E+01  0.69049996697E+00 -0.22100729469E+01  0.28489675444E+01  0.51100000000E-03 0. -1.
        -11    1    3    3    0    0 -0.40883593425E+01 -0.13351263339E+02 -0.93348769796E+01  0.16796155612E+02  0.51100000000E-03 0.  1.
         12    1    3    3    0    0 -0.12285503027E+02 -0.25308114329E+02  0.73893818969E+00  0.28142143934E+02  0.00000000000E+00 0. -1.
</event>
<event>
 7    1  0.2486105E-010  0.4778730E+02  0.7816164E-02  0.1312668E+00
        -11   -1    0    0    0    0  0.00000000000E+00  0.00000000000E+00  0.45593999997E+02  0.45594000000E+02  0.51100000000E-03 0.  1.
         11   -1    0    0    0    0 -0.00000000000E+00 -0.00000000000E+00 -0.45593999997E+02  0.45594000000E+02  0.51100000000E-03 0. -1.
    9900012    2    1    2    0    0 -0.43305626945E+02  0.11662514510E+01  0.26235810184E+01  0.47787301332E+02  0.20000138091E+02 0.  0.
         12    1    1    2    0    0  0.43305626945E+02 -0.11662514510E+01 -0.26235810184E+01  0.43400698668E+02  0.00000000000E+00 0. -1.
         11    1    3    3    0    0  0.10833582568E+01 -0.19192865581E+01  0.15933701286E+01  0.27195872173E+01  0.51100000000E-03 0.  1.
        -11    1    3    3    0    0 -0.39462869557E+01  0.16691882145E+01 -0.14521178590E+01  0.45241592114E+01  0.51100000000E-03 0. -1.
        -12    1    3    3    0    0 -0.40442698246E+02  0.14163497946E+01  0.24823287488E+01  0.40543554903E+02  0.00000000000E+00 0.  1.
</event>
<event>
 7    1  0.2486105E-010  0.4778727E+02  0.7816164E-02  0.1312668E+00
        -11   -1    0    0    0    0  0.00000000000E+00  0.00000000000E+00  0.45593999997E+02  0.45594000000E+02  0.51100000000E-03 0.  1.
         11   -1    0    0    0    0 -0.00000000000E+00 -0.00000000000E+00 -0.45593999997E+02  0.45594000000E+02  0.51100000000E-03 0. -1.
    9900012    2    1    2    0    0  0.40972059062E+02  0.13254117297E+02 -0.54076086977E+01  0.47787268659E+02  0.19999989123E+02 0.  0.
         12    1    1    2    0    0 -0.40972059062E+02 -0.13254117297E+02  0.54076086977E+01  0.43400731341E+02  0.00000000000E+00 0. -1.
         11    1    3    3    0    0  0.19235176283E+02  0.29086302767E+01 -0.95315662863E+01  0.21663399845E+02  0.51100000000E-03 0. -1.
        -11    1    3    3    0    0  0.12354301862E+02  0.68349259702E+01 -0.21819786889E+01  0.14286567775E+02  0.51100000000E-03 0.  1.
        -12    1    3    3    0    0  0.93825809169E+01  0.35105610499E+01  0.63059362776E+01  0.11837301039E+02  0.00000000000E+00 0.  1.
</event>
<event>
 7    1  0.2486105E-010  0.4778727E+02  0.7816164E-02  0.1312668E+00
        -11   -1    0    0    0    0  0.00000000000E+00  0.00000000000E+00  0.45593999997E+02  0.45594000000E+02  0.51100000000E-03 0. -1.
         11   -1    0    0    0    0 -0.00000000000E+00 -0.00000000000E+00 -0.45593999997E+02  0.45594000000E+02  0.51100000000E-03 0.  1.
    9900012    2    1    2    0    0  0.17689912460E+02  0.40261133163E+01 -0.39426902913E+02  0.47787271151E+02  0.20000000486E+02 0.  0.
         12    1    1    2    0    0 -0.17689912460E+02 -0.40261133163E+01  0.39426902913E+02  0.43400728849E+02  0.00000000000E+00 0. -1.
         11    1    3    3    0    0  0.37062232954E+01 -0.29732937748E+01 -0.13484857270E+01  0.49391275549E+01  0.51100000000E-03 0. -1.
        -11    1    3    3    0    0  0.57046140823E+01 -0.29692405812E+01 -0.16057302446E+02  0.17297282259E+02  0.51100000000E-03 0.  1.
        -12    1    3    3    0    0  0.82790750827E+01  0.99686476723E+01 -0.22021114741E+02  0.25550861337E+02  0.00000000000E+00 0.  1.
</event>
<event>
 7    1  0.2486105E-010  0.4778727E+02  0.7816164E-02  0.1312668E+00
        -11   -1    0    0    0    0  0.00000000000E+00  0.00000000000E+00  0.45593999997E+02  0.45594000000E+02  0.51100000000E-03 0.  1.
         11   -1    0    0    0    0 -0.00000000000E+00 -0.00000000000E+00 -0.45593999997E+02  0.45594000000E+02  0.51100000000E-03 0. -1.
    9900012    2    1    2    0    0 -0.37050923101E+02  0.21328728052E+02  0.74791361308E+01  0.47787273967E+02  0.20000013323E+02 0.  0.
         12    1    1    2    0    0  0.37050923101E+02 -0.21328728052E+02 -0.74791361308E+01  0.43400726033E+02  0.00000000000E+00 0. -1.
         11    1    3    3    0    0 -0.46755698956E+01  0.68204391642E+01 -0.17218833859E+01  0.84465511836E+01  0.51100000000E-03 0. -1.
        -11    1    3    3    0    0 -0.18750205782E+01  0.40715879246E+01 -0.23946090803E+01  0.50820943818E+01  0.51100000000E-03 0.  1.
        -12    1    3    3    0    0 -0.30500332627E+02  0.10436700963E+02  0.11595628597E+02  0.34258628401E+02  0.00000000000E+00 0.  1.
</event>
<event>
 7    1  0.2486105E-010  0.4778727E+02  0.7816164E-02  0.1312668E+00
        -11   -1    0    0    0    0  0.00000000000E+00  0.00000000000E+00  0.45593999997E+02  0.45594000000E+02  0.51100000000E-03 0. -1.
         11   -1    0    0    0    0 -0.00000000000E+00 -0.00000000000E+00 -0.45593999997E+02  0.45594000000E+02  0.51100000000E-03 0.  1.
    9900012    2    1    2    0    0 -0.39676315801E+02 -0.17567528576E+02  0.89159546558E+00  0.47787273759E+02  0.20000012375E+02 0.  0.
         12    1    1    2    0    0  0.39676315801E+02  0.17567528576E+02 -0.89159546558E+00  0.43400726241E+02  0.00000000000E+00 0. -1.
         11    1    3    3    0    0  0.77218529286E+00  0.73500164865E+00 -0.81662413770E+00  0.13428971641E+01  0.51100000000E-03 0. -1.
        -11    1    3    3    0    0 -0.22945585132E+02 -0.55939559460E+01 -0.42763901373E+01  0.24001661048E+02  0.51100000000E-03 0.  1.
         12    1    3    3    0    0 -0.17502915961E+02 -0.12708574279E+02  0.59846097406E+01  0.22442715547E+02  0.00000000000E+00 0. -1.
</event>
<event>
 7    1  0.2486105E-010  0.4778727E+02  0.7816164E-02  0.1312668E+00
        -11   -1    0    0    0    0  0.00000000000E+00  0.00000000000E+00  0.45593999997E+02  0.45594000000E+02  0.51100000000E-03 0.  1.
         11   -1    0    0    0    0 -0.00000000000E+00 -0.00000000000E+00 -0.45593999997E+02  0.45594000000E+02  0.51100000000E-03 0. -1.
    9900012    2    1    2    0    0 -0.76722904452E+00  0.55960904488E+01  0.43031597290E+02  0.47787271503E+02  0.20000002092E+02 0.  0.
         12    1    1    2    0    0  0.76722904452E+00 -0.55960904488E+01 -0.43031597290E+02  0.43400728497E+02  0.00000000000E+00 0. -1.
         11    1    3    3    0    0 -0.22674166867E+01 -0.58425798863E+01  0.97962569176E+01  0.11629426814E+02  0.51100000000E-03 0.  1.
        -11    1    3    3    0    0  0.22578138491E+01 -0.87716606130E-01  0.94441413965E+01  0.97106758034E+01  0.51100000000E-03 0. -1.
        -12    1    3    3    0    0 -0.75762620694E+00  0.11526386941E+02  0.23791198976E+02  0.26447168886E+02  0.00000000000E+00 0.  1.
</event>
<event>
 7    1  0.2486105E-010  0.4778727E+02  0.7816164E-02  0.1312668E+00
        -11   -1    0    0    0    0  0.00000000000E+00  0.00000000000E+00  0.45593999997E+02  0.45594000000E+02  0.51100000000E-03 0. -1.
         11   -1    0    0    0    0 -0.00000000000E+00 -0.00000000000E+00 -0.45593999997E+02  0.45594000000E+02  0.51100000000E-03 0.  1.
    9900012    2    1    2    0    0  0.14451714421E+01  0.14165367722E+01 -0.43353525414E+02  0.47787271173E+02  0.20000000586E+02 0.  0.
         12    1    1    2    0    0 -0.14451714421E+01 -0.14165367722E+01  0.43353525414E+02  0.43400728827E+02  0.00000000000E+00 0. -1.
         11    1    3    3    0    0 -0.12531068611E+01 -0.15180290006E+01 -0.97534713417E+00  0.21968138623E+01  0.51100000000E-03 0. -1.
        -11    1    3    3    0    0  0.25757013338E+01  0.92434060852E+01 -0.17873251026E+02  0.20286150348E+02  0.51100000000E-03 0.  1.
        -12    1    3    3    0    0  0.12257696947E+00 -0.63088403124E+01 -0.24504927253E+02  0.25304306963E+02  0.00000000000E+00 0.  1.
</event>
<event>
 7    1  0.2486105E-010  0.4778727E+02  0.7816164E-02  0.1312668E+00
        -11   -1    0    0    0    0  0.00000000000E+00  0.00000000000E+00  0.45593999997E+02  0.45594000000E+02  0.51100000000E-03 0.  1.
         11   -1    0    0    0    0 -0.00000000000E+00 -0.00000000000E+00 -0.45593999997E+02  0.45594000000E+02  0.51100000000E-03 0. -1.
    9900012    2    1    2    0    0  0.92888430976E+01 -0.21805401797E+02  0.36357465797E+02  0.47787268753E+02  0.19999989550E+02 0.  0.
         12    1    1    2    0    0 -0.92888430976E+01  0.21805401797E+02 -0.36357465797E+02  0.43400731247E+02  0.00000000000E+00 0. -1.
         11    1    3    3    0    0  0.32063934663E+01 -0.11268802697E+02  0.13336752448E+02  0.17752065779E+02  0.51100000000E-03 0. -1.
        -11    1    3    3    0    0 -0.33158640706E+01 -0.85795933278E+01  0.79024538525E+01  0.12126547462E+02  0.51100000000E-03 0.  1.
         12    1    3    3    0    0  0.93983137020E+01 -0.19570057724E+01  0.15118259496E+02  0.17908655512E+02  0.00000000000E+00 0. -1.
</event>
<event>
 7    1  0.2486105E-010  0.4778732E+02  0.7816164E-02  0.1312668E+00
        -11   -1    0    0    0    0  0.00000000000E+00  0.00000000000E+00  0.45593999997E+02  0.45594000000E+02  0.51100000000E-03 0.  1.
         11   -1    0    0    0    0 -0.00000000000E+00 -0.00000000000E+00 -0.45593999997E+02  0.45594000000E+02  0.51100000000E-03 0. -1.
    9900012    2    1    2    0    0 -0.37094681074E+02 -0.19268956656E+02  0.11675222898E+02  0.47787321614E+02  0.20000230567E+02 0.  0.
         12    1    1    2    0    0  0.37094681074E+02  0.19268956656E+02 -0.11675222898E+02  0.43400678386E+02  0.00000000000E+00 0. -1.
         11    1    3    3    0    0  0.10149930114E+01 -0.14700908875E+01 -0.23454900708E+00  0.18017745498E+01  0.51100000000E-03 0. -1.
        -11    1    3    3    0    0 -0.23590381575E+02 -0.12865266086E+02  0.50561535394E+00  0.26875208305E+02  0.51100000000E-03 0.  1.
         12    1    3    3    0    0 -0.14519292511E+02 -0.49335996820E+01  0.11404156552E+02  0.19110338759E+02  0.00000000000E+00 0. -1.
</event>
<event>
 7    1  0.2486105E-010  0.4778727E+02  0.7816164E-02  0.1312668E+00
        -11   -1    0    0    0    0  0.00000000000E+00  0.00000000000E+00  0.45593999997E+02  0.45594000000E+02  0.51100000000E-03 0.  1.
         11   -1    0    0    0    0 -0.00000000000E+00 -0.00000000000E+00 -0.45593999997E+02  0.45594000000E+02  0.51100000000E-03 0. -1.
    9900012    2    1    2    0    0 -0.24928880506E+02 -0.35209078817E+02 -0.47429026117E+01  0.47787269135E+02  0.19999991293E+02 0.  0.
         12    1    1    2    0    0  0.24928880506E+02  0.35209078817E+02  0.47429026117E+01  0.43400730865E+02  0.00000000000E+00 0. -1.
         11    1    3    3    0    0 -0.11223236401E+02 -0.16325881325E+02 -0.71237677422E+01  0.21053348985E+02  0.51100000000E-03 0. -1.
        -11    1    3    3    0    0 -0.14718971608E+02 -0.14064773766E+02 -0.15729613531E+01  0.20419113447E+02  0.51100000000E-03 0.  1.
         12    1    3    3    0    0  0.10133275032E+01 -0.48184237265E+01  0.39538264837E+01  0.63148067032E+01  0.00000000000E+00 0. -1.
</event>
<event>
 7    1  0.2486105E-010  0.4778727E+02  0.7816164E-02  0.1312668E+00
        -11   -1    0    0    0    0  0.00000000000E+00  0.00000000000E+00  0.45593999997E+02  0.45594000000E+02  0.51100000000E-03 0.  1.
         11   -1    0    0    0    0 -0.00000000000E+00 -0.00000000000E+00 -0.45593999997E+02  0.45594000000E+02  0.51100000000E-03 0. -1.
    9900012    2    1    2    0    0 -0.18507184659E+02  0.16380971522E+02  0.35675919720E+02  0.47787270054E+02  0.19999995482E+02 0.  0.
         12    1    1    2    0    0  0.18507184659E+02 -0.16380971522E+02 -0.35675919720E+02  0.43400729946E+02  0.00000000000E+00 0. -1.
         11    1    3    3    0    0 -0.89233696442E+01  0.11016769838E+01  0.62865539308E+01  0.10970915120E+02  0.51100000000E-03 0. -1.
        -11    1    3    3    0    0 -0.62525011786E+01  0.11230863743E+02  0.88192854362E+01  0.15588645459E+02  0.51100000000E-03 0.  1.
        -12    1    3    3    0    0 -0.33313138361E+01  0.40484307958E+01  0.20570080353E+02  0.21227709474E+02  0.00000000000E+00 0.  1.
</event>
<event>
 7    1  0.2486105E-010  0.4778727E+02  0.7816164E-02  0.1312668E+00
        -11   -1    0    0    0    0  0.00000000000E+00  0.00000000000E+00  0.45593999997E+02  0.45594000000E+02  0.51100000000E-03 0.  1.
         11   -1    0    0    0    0 -0.00000000000E+00 -0.00000000000E+00 -0.45593999997E+02  0.45594000000E+02  0.51100000000E-03 0. -1.
    9900012    2    1    2    0    0  0.14860763107E+02 -0.16246462242E+02  0.37400982209E+02  0.47787270908E+02  0.19999999378E+02 0.  0.
         12    1    1    2    0    0 -0.14860763107E+02  0.16246462242E+02 -0.37400982209E+02  0.43400729092E+02  0.00000000000E+00 0. -1.
         11    1    3    3    0    0  0.97059404020E+01 -0.17985482567E+02  0.29993224873E+02  0.36294302594E+02  0.51100000000E-03 0.  1.
        -11    1    3    3    0    0 -0.89200095696E+00  0.34215749927E+00  0.45701543154E+01  0.46689450831E+01  0.51100000000E-03 0. -1.
         12    1    3    3    0    0  0.60468236619E+01  0.13968628254E+01  0.28376030207E+01  0.68240232307E+01  0.00000000000E+00 0. -1.
</event>
<event>
 7    1  0.2486105E-010  0.4778726E+02  0.7816164E-02  0.1312668E+00
        -11   -1    0    0    0    0  0.00000000000E+00  0.00000000000E+00  0.45593999997E+02  0.45594000000E+02  0.51100000000E-03 0.  1.
         11   -1    0    0    0    0 -0.00000000000E+00 -0.00000000000E+00 -0.45593999997E+02  0.45594000000E+02  0.51100000000E-03 0. -1.
    9900012    2    1    2    0    0  0.17750498933E+01  0.42159458147E+02  0.10151515746E+02  0.47787262848E+02  0.19999962629E+02 0.  0.
         12    1    1    2    0    0 -0.17750498933E+01 -0.42159458147E+02 -0.10151515746E+02  0.43400737152E+02  0.00000000000E+00 0. -1.
         11    1    3    3    0    0  0.10485907311E+02  0.23658498789E+02  0.81330104811E+01  0.27126088491E+02  0.51100000000E-03 0. -1.
        -11    1    3    3    0    0 -0.36351680751E+01  0.80962523862E+01  0.19386798811E+01  0.90841746779E+01  0.51100000000E-03 0.  1.
         12    1    3    3    0    0 -0.50756893426E+01  0.10404706972E+02  0.79825383301E-01  0.11576999679E+02  0.00000000000E+00 0. -1.
</event>
<event>
 7    1  0.2486105E-010  0.4778726E+02  0.7816164E-02  0.1312668E+00
        -11   -1    0    0    0    0  0.00000000000E+00  0.00000000000E+00  0.45593999997E+02  0.45594000000E+02  0.51100000000E-03 0. -1.
         11   -1    0    0    0    0 -0.00000000000E+00 -0.00000000000E+00 -0.45593999997E+02  0.45594000000E+02  0.51100000000E-03 0.  1.
    9900012    2    1    2    0    0  0.21560979802E+02  0.23299718307E+02 -0.29595128886E+02  0.47787258336E+02  0.19999942057E+02 0.  0.
         12    1    1    2    0    0 -0.21560979802E+02 -0.23299718307E+02  0.29595128886E+02  0.43400741664E+02  0.00000000000E+00 0. -1.
         11    1    3    3    0    0  0.33340648302E+01  0.70733360794E+01 -0.92132254821E+01  0.12084353339E+02  0.51100000000E-03 0. -1.
        -11    1    3    3    0    0  0.24284190873E+01  0.12303574495E+02 -0.56759797395E+01  0.13765606085E+02  0.51100000000E-03 0.  1.
         12    1    3    3    0    0  0.15798495885E+02  0.39228077324E+01 -0.14705923664E+02  0.21937298912E+02  0.00000000000E+00 0. -1.
</event>
<event>
 7    1  0.2486105E-010  0.4778727E+02  0.7816164E-02  0.1312668E+00
        -11   -1    0    0    0    0  0.00000000000E+00  0.00000000000E+00  0.45593999997E+02  0.45594000000E+02  0.51100000000E-03 0.  1.
         11   -1    0    0    0    0 -0.00000000000E+00 -0.00000000000E+00 -0.45593999997E+02  0.45594000000E+02  0.51100000000E-03 0. -1.
    9900012    2    1    2    0    0  0.33214924730E+02 -0.12394725245E+02  0.25035230836E+02  0.47787271645E+02  0.20000002739E+02 0.  0.
         12    1    1    2    0    0 -0.33214924730E+02  0.12394725245E+02 -0.25035230836E+02  0.43400728355E+02  0.00000000000E+00 0. -1.
         11    1    3    3    0    0  0.81683605266E+00 -0.32360100391E+00 -0.99116576126E+00  0.13245182423E+01  0.51100000000E-03 0. -1.
        -11    1    3    3    0    0  0.34425364818E+02 -0.10731961784E+02  0.24359505605E+02  0.43516275808E+02  0.51100000000E-03 0.  1.
        -12    1    3    3    0    0 -0.20272761409E+01 -0.13391624578E+01  0.16668909919E+01  0.29464775952E+01  0.00000000000E+00 0.  1.
</event>
<event>
 7    1  0.2486105E-010  0.4778727E+02  0.7816164E-02  0.1312668E+00
        -11   -1    0    0    0    0  0.00000000000E+00  0.00000000000E+00  0.45593999997E+02  0.45594000000E+02  0.51100000000E-03 0. -1.
         11   -1    0    0    0    0 -0.00000000000E+00 -0.00000000000E+00 -0.45593999997E+02  0.45594000000E+02  0.51100000000E-03 0.  1.
    9900012    2    1    2    0    0  0.43168175825E+02  0.33827417392E+01 -0.29477120766E+01  0.47787270142E+02  0.19999995884E+02 0.  0.
         12    1    1    2    0    0 -0.43168175825E+02 -0.33827417392E+01  0.29477120766E+01  0.43400729858E+02  0.00000000000E+00 0. -1.
         11    1    3    3    0    0  0.95818087221E+01  0.48374629802E+01 -0.42318161274E+00  0.10742029110E+02  0.51100000000E-03 0. -1.
        -11    1    3    3    0    0  0.97861053907E+01  0.59169451051E+01 -0.39237668428E+01  0.12090245845E+02  0.51100000000E-03 0.  1.
        -12    1    3    3    0    0  0.23800261712E+02 -0.73716663461E+01  0.13992363789E+01  0.24954995186E+02  0.00000000000E+00 0.  1.
</event>
<event>
 7    1  0.2486105E-010  0.4778728E+02  0.7816164E-02  0.1312668E+00
        -11   -1    0    0    0    0  0.00000000000E+00  0.00000000000E+00  0.45593999997E+02  0.45594000000E+02  0.51100000000E-03 0.  1.
         11   -1    0    0    0    0 -0.00000000000E+00 -0.00000000000E+00 -0.45593999997E+02  0.45594000000E+02  0.51100000000E-03 0. -1.
    9900012    2    1    2    0    0  0.15537693993E+02 -0.32444715845E+02  0.24280504521E+02  0.47787280874E+02  0.20000044815E+02 0.  0.
         12    1    1    2    0    0 -0.15537693993E+02  0.32444715845E+02 -0.24280504521E+02  0.43400719126E+02  0.00000000000E+00 0. -1.
         11    1    3    3    0    0  0.90845411000E+01 -0.14446028251E+02  0.16822481804E+02  0.23962731762E+02  0.51100000000E-03 0. -1.
        -11    1    3    3    0    0  0.97639978495E+01 -0.11410103887E+02  0.65904610515E+01  0.16400009203E+02  0.51100000000E-03 0.  1.
         12    1    3    3    0    0 -0.33108449570E+01 -0.65885837081E+01  0.86756166549E+00  0.74245399084E+01  0.00000000000E+00 0. -1.
</event>
<event>
 7    1  0.2486105E-010  0.4778727E+02  0.7816164E-02  0.1312668E+00
        -11   -1    0    0    0    0  0.00000000000E+00  0.00000000000E+00  0.45593999997E+02  0.45594000000E+02  0.51100000000E-03 0.  1.
         11   -1    0    0    0    0 -0.00000000000E+00 -0.00000000000E+00 -0.45593999997E+02  0.45594000000E+02  0.51100000000E-03 0. -1.
    9900012    2    1    2    0    0  0.33296848850E+02 -0.95624687683E+01 -0.26143872043E+02  0.47787274226E+02  0.20000014507E+02 0.  0.
         12    1    1    2    0    0 -0.33296848850E+02  0.95624687683E+01  0.26143872043E+02  0.43400725774E+02  0.00000000000E+00 0. -1.
         11    1    3    3    0    0  0.86167843902E+01 -0.13520109955E+00 -0.15937002918E+02  0.18117817606E+02  0.51100000000E-03 0. -1.
        -11    1    3    3    0    0  0.57182970787E+01  0.13306076914E+01 -0.79885180683E+00  0.59251668988E+01  0.51100000000E-03 0.  1.
         12    1    3    3    0    0  0.18961767381E+02 -0.10757875360E+02 -0.94080173185E+01  0.23744289721E+02  0.00000000000E+00 0. -1.
</event>
<event>
 7    1  0.2486105E-010  0.4778727E+02  0.7816164E-02  0.1312668E+00
        -11   -1    0    0    0    0  0.00000000000E+00  0.00000000000E+00  0.45593999997E+02  0.45594000000E+02  0.51100000000E-03 0.  1.
         11   -1    0    0    0    0 -0.00000000000E+00 -0.00000000000E+00 -0.45593999997E+02  0.45594000000E+02  0.51100000000E-03 0. -1.
    9900012    2    1    2    0    0  0.32689687981E+02 -0.65869714976E+01  0.27778042419E+02  0.47787268043E+02  0.19999986316E+02 0.  0.
         12    1    1    2    0    0 -0.32689687981E+02  0.65869714976E+01 -0.27778042419E+02  0.43400731957E+02  0.00000000000E+00 0. -1.
         11    1    3    3    0    0  0.23941508226E+02 -0.62840206082E+01  0.16825178639E+02  0.29929439815E+02  0.51100000000E-03 0. -1.
        -11    1    3    3    0    0  0.51994439587E+01 -0.55511291335E+01  0.46149342166E+01  0.88964526763E+01  0.51100000000E-03 0.  1.
         12    1    3    3    0    0  0.35487357954E+01  0.52481782441E+01  0.63379295629E+01  0.89613755513E+01  0.00000000000E+00 0. -1.
</event>
<event>
 7    1  0.2486105E-010  0.4778727E+02  0.7816164E-02  0.1312668E+00
        -11   -1    0    0    0    0  0.00000000000E+00  0.00000000000E+00  0.45593999997E+02  0.45594000000E+02  0.51100000000E-03 0.  1.
         11   -1    0    0    0    0 -0.00000000000E+00 -0.00000000000E+00 -0.45593999997E+02  0.45594000000E+02  0.51100000000E-03 0. -1.
    9900012    2    1    2    0    0 -0.15232727429E+02  0.12510876820E+02  0.38666080399E+02  0.47787265016E+02  0.19999972515E+02 0.  0.
         12    1    1    2    0    0  0.15232727429E+02 -0.12510876820E+02 -0.38666080399E+02  0.43400734984E+02  0.00000000000E+00 0. -1.
         11    1    3    3    0    0 -0.49603211768E+01  0.21396778679E+01  0.11952991022E+01  0.55327884254E+01  0.51100000000E-03 0. -1.
        -11    1    3    3    0    0 -0.12067623113E+02  0.12057998199E+02  0.32378873814E+02  0.36598009753E+02  0.51100000000E-03 0.  1.
         12    1    3    3    0    0  0.17952168609E+01 -0.16867992469E+01  0.50919074822E+01  0.56564668376E+01  0.00000000000E+00 0. -1.
</event>
<event>
 7    1  0.2486105E-010  0.4778727E+02  0.7816164E-02  0.1312668E+00
        -11   -1    0    0    0    0  0.00000000000E+00  0.00000000000E+00  0.45593999997E+02  0.45594000000E+02  0.51100000000E-03 0.  1.
         11   -1    0    0    0    0 -0.00000000000E+00 -0.00000000000E+00 -0.45593999997E+02  0.45594000000E+02  0.51100000000E-03 0. -1.
    9900012    2    1    2    0    0  0.16426447818E+02 -0.32528117510E+02  0.23573646362E+02  0.47787269367E+02  0.19999992351E+02 0.  0.
         12    1    1    2    0    0 -0.16426447818E+02  0.32528117510E+02 -0.23573646362E+02  0.43400730633E+02  0.00000000000E+00 0. -1.
         11    1    3    3    0    0  0.18093628483E+01  0.10822597277E+01 -0.71474924941E+00  0.22261955857E+01  0.51100000000E-03 0.  1.
        -11    1    3    3    0    0  0.40631715285E+00 -0.89129740577E+01  0.14399736618E+01  0.90376835854E+01  0.51100000000E-03 0. -1.
        -12    1    3    3    0    0  0.14210767817E+02 -0.24697403180E+02  0.22848421950E+02  0.36523390196E+02  0.00000000000E+00 0.  1.
</event>
<event>
 7    1  0.2486105E-010  0.4778727E+02  0.7816164E-02  0.1312668E+00
        -11   -1    0    0    0    0  0.00000000000E+00  0.00000000000E+00  0.45593999997E+02  0.45594000000E+02  0.51100000000E-03 0. -1.
         11   -1    0    0    0    0 -0.00000000000E+00 -0.00000000000E+00 -0.45593999997E+02  0.45594000000E+02  0.51100000000E-03 0.  1.
    9900012    2    1    2    0    0  0.17644663632E+02  0.21294319046E+01 -0.39594882912E+02  0.47787269733E+02  0.19999994020E+02 0.  0.
         12    1    1    2    0    0 -0.17644663632E+02 -0.21294319046E+01  0.39594882912E+02  0.43400730267E+02  0.00000000000E+00 0. -1.
         11    1    3    3    0    0  0.61968854343E+01  0.87548797278E+01 -0.19436202941E+02  0.22199443532E+02  0.51100000000E-03 0. -1.
        -11    1    3    3    0    0  0.26407878737E+01 -0.22961523696E-02 -0.10837958735E+02  0.11155048886E+02  0.51100000000E-03 0.  1.
        -12    1    3    3    0    0  0.88069903240E+01 -0.66231516709E+01 -0.93207212366E+01  0.14432777314E+02  0.00000000000E+00 0.  1.
</event>
<event>
 7    1  0.2486105E-010  0.4778727E+02  0.7816164E-02  0.1312668E+00
        -11   -1    0    0    0    0  0.00000000000E+00  0.00000000000E+00  0.45593999997E+02  0.45594000000E+02  0.51100000000E-03 0.  1.
         11   -1    0    0    0    0 -0.00000000000E+00 -0.00000000000E+00 -0.45593999997E+02  0.45594000000E+02  0.51100000000E-03 0. -1.
    9900012    2    1    2    0    0 -0.18852535083E+02 -0.37188675587E+02  0.12050213975E+02  0.47787270423E+02  0.19999997167E+02 0.  0.
         12    1    1    2    0    0  0.18852535083E+02  0.37188675587E+02 -0.12050213975E+02  0.43400729577E+02  0.00000000000E+00 0. -1.
         11    1    3    3    0    0  0.58659123754E+00 -0.61244533790E+01  0.65084409602E+01  0.89561611455E+01  0.51100000000E-03 0. -1.
        -11    1    3    3    0    0 -0.56313974612E+01 -0.13252336874E+02  0.74520852061E+01  0.16213286039E+02  0.51100000000E-03 0.  1.
        -12    1    3    3    0    0 -0.13807728859E+02 -0.17811885334E+02 -0.19103121910E+01  0.22617823239E+02  0.00000000000E+00 0.  1.
</event>
<event>
 7    1  0.2486105E-010  0.4778727E+02  0.7816164E-02  0.1312668E+00
        -11   -1    0    0    0    0  0.00000000000E+00  0.00000000000E+00  0.45593999997E+02  0.45594000000E+02  0.51100000000E-03 0. -1.
         11   -1    0    0    0    0 -0.00000000000E+00 -0.00000000000E+00 -0.45593999997E+02  0.45594000000E+02  0.51100000000E-03 0.  1.
    9900012    2    1    2    0    0 -0.13615405215E+01  0.12128520067E+02 -0.41649355345E+02  0.47787267377E+02  0.19999983278E+02 0.  0.
         12    1    1    2    0    0  0.13615405215E+01 -0.12128520067E+02  0.41649355345E+02  0.43400732623E+02  0.00000000000E+00 0. -1.
         11    1    3    3    0    0  0.55186644671E+01 -0.83143661575E+00 -0.59232131094E+01  0.81382675151E+01  0.51100000000E-03 0. -1.
        -11    1    3    3    0    0  0.18131635694E+01  0.49167907615E+01 -0.89660228374E+01  0.10385179792E+02  0.51100000000E-03 0.  1.
        -12    1    3    3    0    0 -0.86933685580E+01  0.80431659213E+01 -0.26760119398E+02  0.29263820070E+02  0.00000000000E+00 0.  1.
</event>
<event>
 7    1  0.2486105E-010  0.4778727E+02  0.7816164E-02  0.1312668E+00
        -11   -1    0    0    0    0  0.00000000000E+00  0.00000000000E+00  0.45593999997E+02  0.45594000000E+02  0.51100000000E-03 0. -1.
         11   -1    0    0    0    0 -0.00000000000E+00 -0.00000000000E+00 -0.45593999997E+02  0.45594000000E+02  0.51100000000E-03 0.  1.
    9900012    2    1    2    0    0  0.67545745740E+00  0.10298098060E+02 -0.42155856899E+02  0.47787270314E+02  0.19999996668E+02 0.  0.
         12    1    1    2    0    0 -0.67545745740E+00 -0.10298098060E+02  0.42155856899E+02  0.43400729686E+02  0.00000000000E+00 0. -1.
         11    1    3    3    0    0 -0.17358202141E+01  0.13471781650E+01 -0.79646637295E+01  0.82621927725E+01  0.51100000000E-03 0. -1.
        -11    1    3    3    0    0 -0.38044119535E+00 -0.16390772236E+01 -0.25468727746E+02  0.25524251271E+02  0.51100000000E-03 0.  1.
         12    1    3    3    0    0  0.27917188669E+01  0.10589997119E+02 -0.87224654231E+01  0.14000826271E+02  0.00000000000E+00 0. -1.
</event>
<event>
 7    1  0.2486105E-010  0.4778727E+02  0.7816164E-02  0.1312668E+00
        -11   -1    0    0    0    0  0.00000000000E+00  0.00000000000E+00  0.45593999997E+02  0.45594000000E+02  0.51100000000E-03 0.  1.
         11   -1    0    0    0    0 -0.00000000000E+00 -0.00000000000E+00 -0.45593999997E+02  0.45594000000E+02  0.51100000000E-03 0. -1.
    9900012    2    1    2    0    0  0.30389564782E+02  0.33697011671E+01  0.30801674383E+02  0.47787266384E+02  0.19999978753E+02 0.  0.
         12    1    1    2    0    0 -0.30389564782E+02 -0.33697011671E+01 -0.30801674383E+02  0.43400733616E+02  0.00000000000E+00 0. -1.
         11    1    3    3    0    0  0.83145792346E+01  0.50455914530E+01  0.11433434511E+02  0.15010451224E+02  0.51100000000E-03 0. -1.
        -11    1    3    3    0    0  0.36451786619E+01  0.55542050858E+01  0.47200879213E+01  0.81495859931E+01  0.51100000000E-03 0.  1.
         12    1    3    3    0    0  0.18429806885E+02 -0.72300953718E+01  0.14648151951E+02  0.24627229168E+02  0.00000000000E+00 0. -1.
</event>
<event>
 7    1  0.2486105E-010  0.4778727E+02  0.7816164E-02  0.1312668E+00
        -11   -1    0    0    0    0  0.00000000000E+00  0.00000000000E+00  0.45593999997E+02  0.45594000000E+02  0.51100000000E-03 0.  1.
         11   -1    0    0    0    0 -0.00000000000E+00 -0.00000000000E+00 -0.45593999997E+02  0.45594000000E+02  0.51100000000E-03 0. -1.
    9900012    2    1    2    0    0 -0.64641233544E+01 -0.24706648704E+02  0.35091591192E+02  0.47787272433E+02  0.20000006332E+02 0.  0.
         12    1    1    2    0    0  0.64641233544E+01  0.24706648704E+02 -0.35091591192E+02  0.43400727567E+02  0.00000000000E+00 0. -1.
         11    1    3    3    0    0 -0.14869555454E+01 -0.81681852204E+01  0.27173998825E+01  0.87358198797E+01  0.51100000000E-03 0. -1.
        -11    1    3    3    0    0  0.44421204811E+01 -0.78656887922E+01  0.13173695885E+02  0.15973345237E+02  0.51100000000E-03 0.  1.
        -12    1    3    3    0    0 -0.94192882902E+01 -0.86727746918E+01  0.19200495424E+02  0.23078107316E+02  0.00000000000E+00 0.  1.
</event>
<event>
 7    1  0.2486105E-010  0.4778727E+02  0.7816164E-02  0.1312668E+00
        -11   -1    0    0    0    0  0.00000000000E+00  0.00000000000E+00  0.45593999997E+02  0.45594000000E+02  0.51100000000E-03 0.  1.
         11   -1    0    0    0    0 -0.00000000000E+00 -0.00000000000E+00 -0.45593999997E+02  0.45594000000E+02  0.51100000000E-03 0. -1.
    9900012    2    1    2    0    0 -0.26080389698E+02  0.34522350635E+02  0.34123001810E+01  0.47787271749E+02  0.20000003212E+02 0.  0.
         12    1    1    2    0    0  0.26080389698E+02 -0.34522350635E+02 -0.34123001810E+01  0.43400728251E+02  0.00000000000E+00 0. -1.
         11    1    3    3    0    0 -0.52841949521E+01  0.53502855989E+00  0.27917289993E+01  0.60002269056E+01  0.51100000000E-03 0. -1.
        -11    1    3    3    0    0 -0.48039214527E+01  0.56809260865E+01 -0.47614000538E+01  0.88329787307E+01  0.51100000000E-03 0.  1.
        -12    1    3    3    0    0 -0.15992273293E+02  0.28306395989E+02  0.53819712355E+01  0.32954066113E+02  0.00000000000E+00 0.  1.
</event>
<event>
 7    1  0.2486105E-010  0.4778726E+02  0.7816164E-02  0.1312668E+00
        -11   -1    0    0    0    0  0.00000000000E+00  0.00000000000E+00  0.45593999997E+02  0.45594000000E+02  0.51100000000E-03 0.  1.
         11   -1    0    0    0    0 -0.00000000000E+00 -0.00000000000E+00 -0.45593999997E+02  0.45594000000E+02  0.51100000000E-03 0. -1.
    9900012    2    1    2    0    0 -0.19328946355E+02 -0.18411771204E+02  0.34220203907E+02  0.47787264505E+02  0.19999970185E+02 0.  0.
         12    1    1    2    0    0  0.19328946355E+02  0.18411771204E+02 -0.34220203907E+02  0.43400735495E+02  0.00000000000E+00 0. -1.
         11    1    3    3    0    0 -0.63573618771E+01 -0.38608242990E+01  0.65528996909E+01  0.99127447725E+01  0.51100000000E-03 0. -1.
        -11    1    3    3    0    0 -0.73215590715E+01 -0.87081992467E+01  0.27482853547E+02  0.29744666761E+02  0.51100000000E-03 0.  1.
         12    1    3    3    0    0 -0.56500254068E+01 -0.58427476582E+01  0.18445066867E+00  0.81298529719E+01  0.00000000000E+00 0. -1.
</event>
<event>
 7    1  0.2486105E-010  0.4778727E+02  0.7816164E-02  0.1312668E+00
        -11   -1    0    0    0    0  0.00000000000E+00  0.00000000000E+00  0.45593999997E+02  0.45594000000E+02  0.51100000000E-03 0.  1.
         11   -1    0    0    0    0 -0.00000000000E+00 -0.00000000000E+00 -0.45593999997E+02  0.45594000000E+02  0.51100000000E-03 0. -1.
    9900012    2    1    2    0    0  0.14024712414E+02 -0.31872742017E+01  0.40948407762E+02  0.47787269898E+02  0.19999994772E+02 0.  0.
         12    1    1    2    0    0 -0.14024712414E+02  0.31872742017E+01 -0.40948407762E+02  0.43400730102E+02  0.00000000000E+00 0. -1.
         11    1    3    3    0    0  0.31623314727E+01 -0.64922311139E+01  0.19984267451E+02  0.21249008236E+02  0.51100000000E-03 0. -1.
        -11    1    3    3    0    0  0.10222758124E+02 -0.23492845499E+01  0.14906915763E+02  0.18227453453E+02  0.51100000000E-03 0.  1.
         12    1    3    3    0    0  0.63962281796E+00  0.56542414622E+01  0.60572245482E+01  0.83108082091E+01  0.00000000000E+00 0. -1.
</event>
<event>
 7    1  0.2486105E-010  0.4778727E+02  0.7816164E-02  0.1312668E+00
        -11   -1    0    0    0    0  0.00000000000E+00  0.00000000000E+00  0.45593999997E+02  0.45594000000E+02  0.51100000000E-03 0.  1.
         11   -1    0    0    0    0 -0.00000000000E+00 -0.00000000000E+00 -0.45593999997E+02  0.45594000000E+02  0.51100000000E-03 0. -1.
    9900012    2    1    2    0    0 -0.36419497037E+02 -0.12670385253E+02  0.19917449913E+02  0.47787271458E+02  0.20000001887E+02 0.  0.
         12    1    1    2    0    0  0.36419497037E+02  0.12670385253E+02 -0.19917449913E+02  0.43400728542E+02  0.00000000000E+00 0. -1.
         11    1    3    3    0    0 -0.20202950959E+02 -0.11738858556E+02  0.85225799849E+01  0.24871558004E+02  0.51100000000E-03 0.  1.
        -11    1    3    3    0    0 -0.25448357135E+01 -0.21518501807E+01 -0.18750603039E+01  0.38239376843E+01  0.51100000000E-03 0. -1.
         12    1    3    3    0    0 -0.13671710364E+02  0.12203234839E+01  0.13269930232E+02  0.19091775770E+02  0.00000000000E+00 0. -1.
</event>
<event>
 7    1  0.2957689E-010  0.4778727E+02  0.7816164E-02  0.1312668E+00
        -11   -1    0    0    0    0  0.00000000000E+00  0.00000000000E+00  0.45593999997E+02  0.45594000000E+02  0.51100000000E-03 0. -1.
         11   -1    0    0    0    0 -0.00000000000E+00 -0.00000000000E+00 -0.45593999997E+02  0.45594000000E+02  0.51100000000E-03 0.  1.
    9900012    2    1    2    0    0 -0.18589758026E+01 -0.15010535491E+02 -0.40679863749E+02  0.47787270957E+02  0.19999999603E+02 0.  0.
         12    1    1    2    0    0  0.18589758026E+01  0.15010535491E+02  0.40679863749E+02  0.43400729043E+02  0.00000000000E+00 0. -1.
         11    1    3    3    0    0  0.47569416995E+01 -0.39909786138E+01 -0.43380909318E+01  0.75746576043E+01  0.51100000000E-03 0. -1.
        -11    1    3    3    0    0 -0.23541766624E+00  0.21515858013E+01 -0.83475497628E+01  0.86235914932E+01  0.51100000000E-03 0.  1.
        -12    1    3    3    0    0 -0.63804998359E+01 -0.13171142679E+02 -0.27994223055E+02  0.31589021860E+02  0.00000000000E+00 0.  1.
</event>
